Title
43181
    1CHL1    C3    1   3.160   4.821   6.913 -0.4488 -0.4656  0.6629
    1CHL1    H3    2   3.240   4.747   6.891 -0.0244  0.8089 -2.7936
    1CHL1    O3    3   3.148   4.839   7.057 -0.2983 -0.3166  0.8497
    1CHL1   H3'    4   3.061   4.808   7.082 -0.4262 -0.1344  0.6344
    1CHL1    C4    5   3.189   4.953   6.841 -0.2207 -0.0019  0.4110
    1CHL1   H4A    6   3.108   5.023   6.871 -0.2287 -0.0240  0.4415
    1CHL1   H4B    7   3.286   4.999   6.869 -0.7010  1.4927 -0.3120
    1CHL1    C5    8   3.192   4.937   6.695 -0.1025  0.1059  0.4989
    1CHL1    C6    9   3.288   4.990   6.621  0.0320  0.2723 -0.1875
    1CHL1    H6   10   3.378   5.024   6.675  0.3394 -1.6988  0.6171
    1CHL1    C7   11   3.296   4.984   6.471 -0.8887  0.9987  0.8000
    1CHL1   H7A   12   3.320   5.086   6.434 -0.4638 -0.0138 -1.9882
    1CHL1   H7B   13   3.382   4.919   6.446 -0.6841  1.9670 -1.2627
    1CHL1    C8   14   3.160   4.947   6.413 -0.4991 -0.2630  0.1269
    1CHL1    H8   15   3.100   5.040   6.423 -0.1901  0.3199 -2.6924
    1CHL1   C14   16   3.181   4.910   6.268 -0.0389 -0.1436 -0.1343
    1CHL1   H14   17   3.238   4.815   6.276 -0.7944 -0.5806  0.1445
    1CHL1   C15   18   3.261   5.007   6.182 -0.3458 -0.4237 -0.0224
    1CHL1  H15A   19   3.225   5.108   6.211 -0.6217 -0.3166 -0.7338
    1CHL1  H15B   20   3.370   5.014   6.203 -0.8040 -0.7815  2.9160
    1CHL1   C16   21   3.216   4.977   6.039 -0.1533  0.1512  0.6722
    1CHL1  H16A   22   3.165   5.064   5.991  1.9009  0.2762 -1.4839
    1CHL1  H16B   23   3.297   4.944   5.970 -0.9303  0.7335 -0.5645
    1CHL1   C17   24   3.119   4.856   6.046 -0.3990  0.2556  0.2114
    1CHL1   H17   25   3.180   4.763   6.043  0.3000  0.6119  1.9663
    1CHL1   C13   26   3.058   4.871   6.188 -0.6976 -0.5067  0.2537
    1CHL1   C18   27   2.949   4.983   6.189 -0.2347 -0.4881 -0.9567
    1CHL1  H18A   28   2.933   5.020   6.293 -0.0685 -2.7113 -0.0781
    1CHL1  H18B   29   2.980   5.059   6.114  0.9139  1.2158  1.0926
    1CHL1  H18C   30   2.851   4.941   6.161 -1.4037  1.1319  0.4806
    1CHL1   C12   31   3.015   4.732   6.254  0.0833 -0.5739  0.7677
    1CHL1  H12A   32   2.927   4.681   6.210  1.5813 -0.2131 -3.1529
    1CHL1  H12B   33   3.100   4.662   6.238  1.0381  0.8048 -0.4217
    1CHL1   C11   34   2.983   4.754   6.406  0.3327 -0.2588  0.0592
    1CHL1  H11A   35   2.895   4.821   6.416 -0.0913 -0.7120 -0.5874
    1CHL1  H11B   36   2.957   4.657   6.453 -2.4325  1.2255  1.8767
    1CHL1    C9   37   3.097   4.824   6.486 -0.5482 -0.0220 -0.4635
    1CHL1    H9   38   3.178   4.749   6.481 -0.3388  0.0672  1.1452
    1CHL1   C10   39   3.070   4.858   6.631 -0.1926  0.1668 -0.9517
    1CHL1   C19   40   2.950   4.950   6.632  0.3297 -0.4340  0.3994
    1CHL1  H19A   41   2.919   4.969   6.738 -0.8049  0.5292 -0.0828
    1CHL1  H19B   42   2.981   5.044   6.582 -0.3146 -1.9945 -3.2165
    1CHL1  H19C   43   2.856   4.911   6.587  0.5182 -1.2798  0.7148
    1CHL1    C1   44   3.053   4.726   6.709  0.3276 -0.5824 -0.0357
    1CHL1   H1A   45   2.971   4.657   6.683 -0.4297 -0.4516  1.8569
    1CHL1   H1B   46   3.143   4.660   6.706  1.0856  0.4185  0.0337
    1CHL1    C2   47   3.030   4.748   6.863  0.9382 -0.3626  0.1151
    1CHL1   H2A   48   3.001   4.653   6.913  4.2012 -0.6849  1.6042
    1CHL1   H2B   49   2.945   4.817   6.881  3.0266  1.9720  1.6784
    1CHL1   C20   50   3.018   4.855   5.929  0.7536 -0.1425  0.5873
    1CHL1   H20   51   2.944   4.937   5.940  0.9794 -0.0464  1.4667
    1CHL1   C21   52   2.936   4.721   5.923  0.0144 -0.2236  0.7929
    1CHL1  H21A   53   2.861   4.733   5.842  0.4618 -2.3017  0.0262
    1CHL1  H21B   54   2.871   4.723   6.012 -0.5240 -1.9857  0.4701
    1CHL1  H21C   55   3.000   4.631   5.915  0.9066  0.4413  0.1116
    1CHL1   C22   56   3.077   4.890   5.789  0.0547 -0.1006  1.1559
    1CHL1  H22A   57   3.132   4.987   5.791  2.8928 -1.5271 -0.5450
    1CHL1  H22B   58   3.155   4.812   5.772 -0.7984 -0.8037  0.3353
    1CHL1   C23   59   2.974   4.889   5.667 -0.0549  0.3639 -0.7240
    1CHL1  H23A   60   3.047   4.898   5.584  1.2559 -0.0735  0.3480
    1CHL1  H23B   61   2.919   4.792   5.662 -0.8551  0.6983  0.9504
    1CHL1   C24   62   2.880   5.007   5.670  0.2154  0.3600 -0.2981
    1CHL1  H24A   63   2.820   5.016   5.763  3.7366  1.8014  2.0693
    1CHL1  H24B   64   2.939   5.101   5.663 -0.4575  0.6801 -2.1124
    1CHL1   C25   65   2.784   5.018   5.553 -0.1558 -1.0386  0.3765
    1CHL1   H25   66   2.714   4.931   5.554  1.3719 -2.3250  1.7287
    1CHL1   C26   67   2.699   5.148   5.560 -0.3466  0.6813  0.2699
    1CHL1  H26A   68   2.672   5.171   5.665  1.9814  2.5806  0.5234
    1CHL1  H26B   69   2.776   5.217   5.519 -0.5492  0.2180 -0.9364
    1CHL1  H26C   70   2.619   5.139   5.483  1.0799  1.1347 -1.3362
    1CHL1   C27   71   2.852   5.006   5.416  0.7537 -0.6326  0.1806
    1CHL1  H27A   72   2.901   5.101   5.386 -1.0195  0.3750  0.3163
    1CHL1  H27B   73   2.921   4.920   5.411  1.5613  0.0430 -0.5994
    1CHL1  H27C   74   2.777   4.981   5.338  2.3558 -1.9693 -0.9946
    2CHL1    C3   75   2.873   5.354   7.062 -0.6724  0.6572  0.3434
    2CHL1    H3   76   2.824   5.257   7.041 -0.2079  0.1186  1.6574
    2CHL1    O3   77   2.916   5.362   7.198 -0.3565 -0.2920  0.3482
    2CHL1   H3'   78   2.985   5.429   7.199  0.4334 -1.0742  1.3229
    2CHL1    C4   79   2.995   5.374   6.958  0.7844 -0.4994  0.1458
    2CHL1   H4A   80   3.044   5.470   6.986 -0.9740  0.4293  0.1496
    2CHL1   H4B   81   3.082   5.306   6.967  1.0350 -0.0912  0.9245
    2CHL1    C5   82   2.951   5.385   6.815 -0.1319  0.4022 -0.6895
    2CHL1    C6   83   3.010   5.303   6.731  0.1382  0.2014  0.0697
    2CHL1    H6   84   3.095   5.245   6.771  0.0720  0.2005  0.2103
    2CHL1    C7   85   2.990   5.317   6.581 -0.6404 -0.2943  0.0538
    2CHL1   H7A   86   3.088   5.336   6.531 -1.3790  0.4172 -1.1668
    2CHL1   H7B   87   2.951   5.228   6.527 -0.9094 -0.1409 -0.0060
    2CHL1    C8   88   2.910   5.446   6.542  0.3231  0.4740  0.4713
    2CHL1    H8   89   2.981   5.529   6.558  1.7457 -0.7384  0.6530
    2CHL1   C14   90   2.871   5.431   6.397 -0.3309  1.1641  0.1604
    2CHL1   H14   91   2.794   5.351   6.399 -0.5342  1.3542 -0.0025
    2CHL1   C15   92   2.982   5.391   6.298 -0.0216 -0.0369  0.1230
    2CHL1  H15A   93   3.076   5.449   6.294 -0.1800  0.2503 -4.8587
    2CHL1  H15B   94   3.021   5.287   6.307 -0.4344 -0.1249  1.0738
    2CHL1   C16   95   2.910   5.415   6.160  0.2283 -0.0512 -0.1606
    2CHL1  H16A   96   2.985   5.466   6.096  0.3165  0.3575  0.2648
    2CHL1  H16B   97   2.888   5.321   6.106  1.0447 -0.2095 -0.2429
    2CHL1   C17   98   2.776   5.492   6.189  0.0334  0.2740  0.2736
    2CHL1   H17   99   2.700   5.411   6.193  0.9232 -0.6077 -0.3129
    2CHL1   C13  100   2.794   5.543   6.336 -0.5131 -0.6263 -0.4837
    2CHL1   C18  101   2.880   5.670   6.339 -0.3042  0.7776 -0.3921
    2CHL1  H18A  102   2.963   5.653   6.268 -0.0879 -1.9047  0.3815
    2CHL1  H18B  103   2.830   5.759   6.294  0.9608  0.4464 -2.5914
    2CHL1  H18C  104   2.909   5.691   6.444 -1.1280  0.6038 -0.1257
    2CHL1   C12  105   2.671   5.567   6.423  0.2968 -0.0543  0.3631
    2CHL1  H12A  106   2.612   5.655   6.389 -0.5168 -0.7481 -0.0820
    2CHL1  H12B  107   2.606   5.478   6.406 -1.3623  1.0171  0.8877
    2CHL1   C11  108   2.696   5.574   6.572 -0.8082  0.5145 -0.1823
    2CHL1  H11A  109   2.744   5.672   6.595  2.5253 -1.3625  1.5077
    2CHL1  H11B  110   2.600   5.585   6.628  0.2278 -0.4635  1.8565
    2CHL1    C9  111   2.793   5.464   6.630  0.0783  0.1159  0.0835
    2CHL1    H9  112   2.744   5.365   6.637  0.7193 -0.0944  2.5219
    2CHL1   C10  113   2.835   5.484   6.779 -0.5286  0.3424  0.3639
    2CHL1   C19  114   2.881   5.626   6.799  0.0048 -0.0866  0.2184
    2CHL1  H19A  115   2.788   5.687   6.807 -0.9149 -1.6121  1.9833
    2CHL1  H19B  116   2.938   5.658   6.889 -1.0895  2.1042  0.2144
    2CHL1  H19C  117   2.941   5.652   6.709 -0.2000 -1.1496 -0.2375
    2CHL1    C1  118   2.725   5.455   6.885  0.7271  0.3542  0.1121
    2CHL1   H1A  119   2.639   5.525   6.876 -0.6848 -1.3593 -0.0373
    2CHL1   H1B  120   2.689   5.351   6.870  1.8772  0.2417 -2.5405
    2CHL1    C2  121   2.770   5.459   7.034  0.0817  0.1001 -0.4459
    2CHL1   H2A  122   2.677   5.444   7.093 -0.8403 -0.7564 -2.0278
    2CHL1   H2B  123   2.819   5.559   7.040  0.5294 -0.1589  0.3398
    2CHL1   C20  124   2.734   5.587   6.075 -0.0276  0.1963 -1.2327
    2CHL1   H20  125   2.805   5.670   6.055 -0.3881  0.4891 -1.3132
    2CHL1   C21  126   2.604   5.671   6.107 -0.2271 -0.2797 -0.1696
    2CHL1  H21A  127   2.516   5.608   6.130 -1.4432  1.7280  0.9057
    2CHL1  H21B  128   2.592   5.729   6.013 -0.2854 -1.1618 -0.7211
    2CHL1  H21C  129   2.625   5.733   6.196 -0.3568  0.7990 -0.8748
    2CHL1   C22  130   2.724   5.510   5.940 -0.2730 -0.5713  0.3912
    2CHL1  H22A  131   2.811   5.442   5.928  0.0845 -0.1209  0.4321
    2CHL1  H22B  132   2.631   5.450   5.938  0.3222 -1.5062  0.0418
    2CHL1   C23  133   2.733   5.593   5.810  0.2879  0.0803 -0.0908
    2CHL1  H23A  134   2.665   5.680   5.810  1.0066  0.6551  0.4778
    2CHL1  H23B  135   2.833   5.642   5.804 -0.5881  1.9897  0.1379
    2CHL1   C24  136   2.711   5.503   5.690 -0.3117 -0.2805  0.9568
    2CHL1  H24A  137   2.769   5.408   5.690 -1.3844 -1.0131  3.2286
    2CHL1  H24B  138   2.605   5.478   5.667 -0.4115  2.2487 -1.9376
    2CHL1   C25  139   2.759   5.572   5.555  0.5209 -0.6553 -0.2490
    2CHL1   H25  140   2.712   5.672   5.565 -3.0564 -2.3022  1.3344
    2CHL1   C26  141   2.907   5.589   5.555  0.5212  0.1263 -0.9169
    2CHL1  H26A  142   2.953   5.491   5.580 -2.6335 -1.2594 -0.0374
    2CHL1  H26B  143   2.942   5.635   5.460 -0.9692  2.4003 -0.4463
    2CHL1  H26C  144   2.939   5.661   5.632  0.5832 -1.0471  0.1887
    2CHL1   C27  145   2.703   5.507   5.433 -0.2010 -0.5604 -0.7239
    2CHL1  H27A  146   2.593   5.498   5.445 -0.2153  0.4325  0.0056
    2CHL1  H27B  147   2.724   5.559   5.337 -0.6867 -2.3053 -1.8109
    2CHL1  H27C  148   2.742   5.405   5.418  0.8963 -0.1852 -0.4930
    3CHL1    C3  149   2.630   4.432   6.896 -0.2838  0.2996 -0.1375
    3CHL1    H3  150   2.645   4.323   6.907 -0.9947  0.0739 -1.3028
    3CHL1    O3  151   2.618   4.481   7.022 -0.2830 -0.0289 -0.2105
    3CHL1   H3'  152   2.693   4.538   7.040 -0.5239  0.2712 -0.1414
    3CHL1    C4  153   2.753   4.482   6.829  0.8333 -0.0944  0.2241
    3CHL1   H4A  154   2.755   4.592   6.814 -1.1700  0.1047  1.0380
    3CHL1   H4B  155   2.840   4.456   6.893  1.2068  2.0328  0.6378
    3CHL1    C5  156   2.765   4.423   6.690  0.5404 -0.2013 -0.6156
    3CHL1    C6  157   2.863   4.340   6.655  0.0813  0.3130  0.5706
    3CHL1    H6  158   2.939   4.313   6.730  0.3085  0.6604  0.4661
    3CHL1    C7  159   2.876   4.294   6.513 -0.1456  0.8396  0.7685
    3CHL1   H7A  160   2.981   4.305   6.476  0.1091 -0.2331  1.1353
    3CHL1   H7B  161   2.846   4.187   6.509  1.5819  0.3185  0.4982
    3CHL1    C8  162   2.779   4.356   6.409 -0.7511  0.5899  0.9471
    3CHL1    H8  163   2.832   4.448   6.376 -0.7035 -0.0931 -0.9874
    3CHL1   C14  164   2.772   4.275   6.282 -0.3370 -0.8581 -1.3822
    3CHL1   H14  165   2.719   4.180   6.304 -1.6851 -0.1979 -1.6954
    3CHL1   C15  166   2.906   4.237   6.218  0.4545 -0.2966 -0.0036
    3CHL1  H15A  167   2.980   4.320   6.222 -1.4251  1.4744 -0.3876
    3CHL1  H15B  168   2.938   4.138   6.257  0.1706 -0.4742 -0.2153
    3CHL1   C16  169   2.875   4.210   6.068  0.2833  0.2883 -0.4906
    3CHL1  H16A  170   2.948   4.273   6.013  1.0451 -0.7943 -0.7432
    3CHL1  H16B  171   2.897   4.102   6.052 -0.1359  0.5570 -3.4318
    3CHL1   C17  172   2.720   4.242   6.050  0.0740  0.6240  0.4522
    3CHL1   H17  173   2.663   4.150   6.076  1.3972 -0.9935 -1.9339
    3CHL1   C13  174   2.687   4.340   6.176  0.9062 -0.2505 -0.7043
    3CHL1   C18  175   2.745   4.482   6.124  0.5521 -0.7546  0.3801
    3CHL1  H18A  176   2.734   4.565   6.198 -0.4616  2.5788 -3.1869
    3CHL1  H18B  177   2.849   4.461   6.092  0.7871  1.2127 -0.2921
    3CHL1  H18C  178   2.670   4.523   6.053  0.3838 -0.2916  0.8115
    3CHL1   C12  179   2.548   4.354   6.229  0.3547  0.7774 -0.3018
    3CHL1  H12A  180   2.490   4.411   6.153 -3.6181 -2.0022  0.3454
    3CHL1  H12B  181   2.498   4.258   6.252  1.0782  0.2608 -0.8647
    3CHL1   C11  182   2.537   4.435   6.364 -0.3708 -0.4737 -0.7588
    3CHL1  H11A  183   2.568   4.540   6.346  0.3592 -0.3219  1.0982
    3CHL1  H11B  184   2.429   4.438   6.388 -0.0068 -1.4965  1.2571
    3CHL1    C9  185   2.640   4.376   6.468  0.2332 -0.0022 -0.1036
    3CHL1    H9  186   2.590   4.279   6.490 -1.4045  0.5007 -1.3944
    3CHL1   C10  187   2.640   4.458   6.597  0.5998 -0.1462 -0.2226
    3CHL1   C19  188   2.636   4.610   6.563 -0.3313  0.3891  0.4681
    3CHL1  H19A  189   2.700   4.633   6.475  0.7617 -0.2799  1.0633
    3CHL1  H19B  190   2.532   4.648   6.551 -0.8199 -0.6455  1.2534
    3CHL1  H19C  191   2.672   4.666   6.652 -1.2989  0.1410  1.0238
    3CHL1    C1  192   2.512   4.424   6.677  0.1073  0.0323  0.6572
    3CHL1   H1A  193   2.428   4.464   6.617  1.4011  0.2160 -1.1138
    3CHL1   H1B  194   2.489   4.316   6.684  1.4684 -0.1846  3.2592
    3CHL1    C2  195   2.506   4.474   6.822  0.7448  0.2817  0.6529
    3CHL1   H2A  196   2.412   4.436   6.867  0.6827 -0.1426  0.1722
    3CHL1   H2B  197   2.502   4.585   6.825 -2.9382  0.2614  1.0495
    3CHL1   C20  198   2.661   4.290   5.918 -0.3052  0.5362  0.2432
    3CHL1   H20  199   2.587   4.370   5.937  0.0292  1.0205 -0.4455
    3CHL1   C21  200   2.584   4.177   5.850 -0.0718  0.6345 -0.6236
    3CHL1  H21A  201   2.535   4.209   5.755 -0.7424 -0.0834 -0.5310
    3CHL1  H21B  202   2.502   4.145   5.917  0.7290  0.2211  0.1700
    3CHL1  H21C  203   2.656   4.094   5.831  0.3106  0.6026  0.8483
    3CHL1   C22  204   2.773   4.350   5.823 -1.1363  0.0853 -0.2197
    3CHL1  H22A  205   2.816   4.437   5.877 -0.9646  1.3256 -2.2626
    3CHL1  H22B  206   2.854   4.275   5.813 -0.3778  1.1516 -2.5394
    3CHL1   C23  207   2.732   4.395   5.680 -0.2715 -0.6486  0.0278
    3CHL1  H23A  208   2.715   4.304   5.619 -0.5742  0.0147 -0.9017
    3CHL1  H23B  209   2.644   4.462   5.688  0.2119 -0.1370  1.5238
    3CHL1   C24  210   2.848   4.481   5.621 -0.3510  0.3328 -0.3440
    3CHL1  H24A  211   2.800   4.531   5.533 -3.9386  0.3900  1.4543
    3CHL1  H24B  212   2.859   4.566   5.691 -0.9879  0.3109 -0.2079
    3CHL1   C25  213   2.982   4.406   5.598  0.1681 -0.2848  0.5634
    3CHL1   H25  214   3.010   4.365   5.697 -0.9387 -0.4967  0.8114
    3CHL1   C26  215   2.967   4.287   5.501 -0.4933 -0.0627  0.7271
    3CHL1  H26A  216   2.883   4.220   5.530 -0.5894  0.8191  2.5496
    3CHL1  H26B  217   2.931   4.326   5.403  1.9744  2.0253  0.5487
    3CHL1  H26C  218   3.061   4.233   5.474 -1.2588 -0.3831 -1.5130
    3CHL1   C27  219   3.094   4.508   5.556 -0.3278 -0.7696  0.4442
    3CHL1  H27A  220   3.188   4.450   5.548  0.0723  0.1552 -3.4571
    3CHL1  H27B  221   3.071   4.567   5.465 -0.9826 -0.5472  0.7482
    3CHL1  H27C  222   3.105   4.581   5.639 -0.1842  1.3479 -1.3483
    4CHL1    C3  223   2.869   6.607   6.914  0.4295 -0.7471 -0.4184
    4CHL1    H3  224   2.777   6.666   6.899  1.1865  0.1257 -1.8724
    4CHL1    O3  225   2.878   6.563   7.045 -0.2214  1.0829 -0.5084
    4CHL1   H3'  226   2.968   6.539   7.065 -0.8296  0.4631  1.7068
    4CHL1    C4  227   2.840   6.482   6.829 -0.6213  0.4477  0.0625
    4CHL1   H4A  228   2.920   6.411   6.857  0.7985  2.3807  1.1927
    4CHL1   H4B  229   2.742   6.443   6.864 -0.3888 -0.5029 -0.3207
    4CHL1    C5  230   2.848   6.503   6.681  0.5413 -0.0326 -0.4148
    4CHL1    C6  231   2.754   6.453   6.605  0.0409  0.3987  0.0663
    4CHL1    H6  232   2.681   6.391   6.660  0.0507 -0.1839 -0.5732
    4CHL1    C7  233   2.738   6.465   6.457 -0.1345  0.2131  0.4057
    4CHL1   H7A  234   2.709   6.376   6.397  0.4379  0.3646 -0.1005
    4CHL1   H7B  235   2.665   6.541   6.422  1.4950  1.1608 -1.0865
    4CHL1    C8  236   2.881   6.506   6.394 -0.0313  0.7544 -0.0052
    4CHL1    H8  237   2.948   6.417   6.394 -0.0893  0.7082  0.3904
    4CHL1   C14  238   2.864   6.558   6.254 -0.0095 -1.2370 -0.7605
    4CHL1   H14  239   2.794   6.645   6.251  1.3286 -0.0980 -0.2478
    4CHL1   C15  240   2.807   6.448   6.157 -0.5916  0.0112 -0.4897
    4CHL1  H15A  241   2.866   6.361   6.192 -0.1824  0.5083  0.0864
    4CHL1  H15B  242   2.698   6.425   6.164 -0.0153 -2.6809  0.8110
    4CHL1   C16  243   2.841   6.496   6.016 -0.2701 -0.6177 -0.5362
    4CHL1  H16A  244   2.896   6.414   5.964 -0.5507 -0.5613 -0.9254
    4CHL1  H16B  245   2.753   6.531   5.958 -0.7505  1.3936  1.2682
    4CHL1   C17  246   2.932   6.623   6.044  0.5304  0.7632  0.2283
    4CHL1   H17  247   2.853   6.701   6.050 -0.6254 -0.4765  2.0170
    4CHL1   C13  248   2.988   6.613   6.183 -0.0890 -0.2631 -0.0136
    4CHL1   C18  249   3.105   6.511   6.173  0.2861  0.6219 -0.2652
    4CHL1  H18A  250   3.188   6.581   6.149  0.3115 -0.0276 -2.2410
    4CHL1  H18B  251   3.124   6.454   6.266 -0.5988  2.2658  0.9812
    4CHL1  H18C  252   3.094   6.437   6.091  0.7496 -1.3498  1.3676
    4CHL1   C12  253   3.034   6.738   6.255 -0.1865 -0.2370 -0.3703
    4CHL1  H12A  254   3.130   6.780   6.219  0.2445  0.7056  1.7281
    4CHL1  H12B  255   2.961   6.822   6.254  1.4532  1.2398  0.0227
    4CHL1   C11  256   3.054   6.701   6.404 -0.1938 -0.2406  0.4574
    4CHL1  H11A  257   3.141   6.633   6.399 -1.0254 -1.2528 -2.8935
    4CHL1  H11B  258   3.082   6.792   6.460  1.0253  0.2091 -0.8519
    4CHL1    C9  259   2.936   6.625   6.475 -0.0356  0.2854 -0.1238
    4CHL1    H9  260   2.850   6.695   6.475 -0.0331  0.3514  2.0546
    4CHL1   C10  261   2.964   6.595   6.629 -0.4408 -0.4144 -1.0040
    4CHL1   C19  262   3.100   6.519   6.649 -0.2779  0.0818  0.4054
    4CHL1  H19A  263   3.192   6.568   6.612 -0.9417  1.3178  0.3346
    4CHL1  H19B  264   3.113   6.499   6.758 -0.9370  0.4360  0.5561
    4CHL1  H19C  265   3.088   6.424   6.593  0.3782  0.7694 -0.9437
    4CHL1    C1  266   2.969   6.726   6.717 -0.3767 -0.4365 -0.5013
    4CHL1   H1A  267   3.060   6.785   6.691  0.6247 -0.6120  2.2747
    4CHL1   H1B  268   2.882   6.788   6.687 -0.1127  0.3411  0.2673
    4CHL1    C2  269   2.984   6.703   6.876  0.6668  0.0938 -0.3350
    4CHL1   H2A  270   2.958   6.798   6.926 -0.8205 -0.6266  0.3231
    4CHL1   H2B  271   3.085   6.664   6.905  0.3633 -0.9228 -0.5935
    4CHL1   C20  272   3.017   6.669   5.926 -0.0677  0.0007  0.3587
    4CHL1   H20  273   3.103   6.727   5.965  1.1002  1.1073 -3.4460
    4CHL1   C21  274   2.925   6.749   5.834 -0.2003 -0.3037 -0.8171
    4CHL1  H21A  275   2.854   6.813   5.892 -1.0318 -0.5250 -1.5598
    4CHL1  H21B  276   2.864   6.677   5.775  1.9014 -1.8738 -1.1637
    4CHL1  H21C  277   2.986   6.816   5.769  2.9726 -1.2651  0.9659
    4CHL1   C22  278   3.096   6.565   5.846 -0.1016  0.1920  0.5643
    4CHL1  H22A  279   3.134   6.476   5.902 -0.3587 -2.1970 -2.7451
    4CHL1  H22B  280   3.036   6.516   5.767 -0.0388 -1.7765  1.6711
    4CHL1   C23  281   3.221   6.631   5.777 -0.0120 -0.2705 -0.7946
    4CHL1  H23A  282   3.245   6.579   5.682  2.4180 -0.2662 -0.2413
    4CHL1  H23B  283   3.193   6.738   5.765 -2.0950 -0.5582  0.8377
    4CHL1   C24  284   3.344   6.612   5.872  0.0090  0.3615  0.2465
    4CHL1  H24A  285   3.312   6.626   5.978 -0.0511 -2.5815  0.6901
    4CHL1  H24B  286   3.361   6.503   5.857 -2.5007 -0.1585  0.6725
    4CHL1   C25  287   3.471   6.691   5.858  0.1616  0.2067  1.0582
    4CHL1   H25  288   3.517   6.654   5.764 -0.1411  0.4277  0.8209
    4CHL1   C26  289   3.456   6.845   5.860  0.3961 -0.4668  0.6842
    4CHL1  H26A  290   3.406   6.882   5.768 -1.3927 -3.0766  0.4910
    4CHL1  H26B  291   3.384   6.887   5.933 -2.4062  1.1048 -2.7082
    4CHL1  H26C  292   3.554   6.898   5.866 -0.2848  0.7483  1.3810
    4CHL1   C27  293   3.568   6.640   5.974  0.8299 -0.7655  0.4685
    4CHL1  H27A  294   3.522   6.674   6.069  0.7014  0.2736  0.0426
    4CHL1  H27B  295   3.583   6.530   5.978  2.7510 -0.5293  1.8073
    4CHL1  H27C  296   3.666   6.690   5.957  0.8239 -1.1513 -0.7882
    5CHL1    C3  297   4.832   2.337   6.905  1.0662 -0.3420  0.7765
    5CHL1    H3  298   4.828   2.447   6.890  1.6848 -0.2884  0.9648
    5CHL1    O3  299   4.823   2.314   7.041  0.7547 -0.0011  0.2611
    5CHL1   H3'  300   4.848   2.222   7.052 -0.6759 -0.8477 -2.6315
    5CHL1    C4  301   4.722   2.251   6.834 -0.4629 -0.5177 -0.5106
    5CHL1   H4A  302   4.732   2.149   6.876  1.1774 -0.0657  0.2653
    5CHL1   H4B  303   4.623   2.288   6.868 -0.5082 -0.0983 -1.0748
    5CHL1    C5  304   4.722   2.260   6.684 -0.5984 -0.7286 -0.5149
    5CHL1    C6  305   4.624   2.306   6.611 -0.1016 -0.0457  0.5767
    5CHL1    H6  306   4.532   2.335   6.664 -0.5389 -0.7287  0.2143
    5CHL1    C7  307   4.625   2.304   6.460  0.7815 -0.2453  0.6717
    5CHL1   H7A  308   4.539   2.253   6.411  1.6391  1.4909 -3.0382
    5CHL1   H7B  309   4.608   2.410   6.432  0.2283 -0.6271 -0.5207
    5CHL1    C8  310   4.752   2.240   6.395  0.0758  0.5325 -0.3776
    5CHL1    H8  311   4.736   2.130   6.400  0.8113  0.4668  1.3222
    5CHL1   C14  312   4.764   2.274   6.244  0.3406  0.1625  0.5168
    5CHL1   H14  313   4.768   2.385   6.246 -0.2686  0.1912  2.6696
    5CHL1   C15  314   4.640   2.244   6.155  0.3025  0.6776 -0.2257
    5CHL1  H15A  315   4.600   2.147   6.192  2.3228  0.2608  1.0079
    5CHL1  H15B  316   4.565   2.324   6.172 -0.9329 -0.4202 -0.3014
    5CHL1   C16  317   4.704   2.241   6.018 -0.1486 -0.2566 -0.2346
    5CHL1  H16A  318   4.682   2.143   5.970 -1.2806 -0.1624  0.0610
    5CHL1  H16B  319   4.653   2.312   5.949  1.0088  0.2319 -0.6104
    5CHL1   C17  320   4.855   2.275   6.030 -0.3884 -0.3852  0.1166
    5CHL1   H17  321   4.875   2.384   6.026  4.0260 -1.0608 -0.9583
    5CHL1   C13  322   4.890   2.234   6.178  0.7095  0.0901  0.0281
    5CHL1   C18  323   4.899   2.079   6.191 -0.1513 -0.0711 -0.2197
    5CHL1  H18A  324   4.994   2.037   6.153 -0.6831 -1.0740 -0.4748
    5CHL1  H18B  325   4.896   2.040   6.295 -1.5553  0.0814 -0.1813
    5CHL1  H18C  326   4.823   2.023   6.132  0.9676 -1.9864  0.0868
    5CHL1   C12  327   5.004   2.306   6.255  0.0077  0.2662 -0.5290
    5CHL1  H12A  328   5.103   2.288   6.208  0.6886 -0.4815  1.1362
    5CHL1  H12B  329   4.998   2.417   6.246  0.9399  0.4738  1.1109
    5CHL1   C11  330   5.013   2.259   6.402  0.1353 -1.0987 -0.4125
    5CHL1  H11A  331   5.040   2.151   6.412 -2.5635 -1.8501 -0.4897
    5CHL1  H11B  332   5.095   2.319   6.449  0.2905 -0.6754 -1.2128
    5CHL1    C9  333   4.873   2.278   6.478  0.2417 -0.3299 -0.1920
    5CHL1    H9  334   4.870   2.388   6.485  1.1666 -0.3341  0.4313
    5CHL1   C10  335   4.866   2.236   6.624 -0.0925  0.1423 -0.6069
    5CHL1   C19  336   4.896   2.084   6.642  0.0940 -0.0278  0.3027
    5CHL1  H19A  337   4.899   2.065   6.751 -2.3907  1.3725  0.6988
    5CHL1  H19B  338   4.815   2.024   6.596  0.0583 -0.7296  1.2659
    5CHL1  H19C  339   5.002   2.060   6.619  0.1558 -2.0223  2.4168
    5CHL1    C1  340   4.980   2.305   6.699 -0.2848 -0.1218 -0.6516
    5CHL1   H1A  341   5.082   2.269   6.670 -1.4784 -2.2911 -2.5053
    5CHL1   H1B  342   4.975   2.414   6.680  0.8827  0.2687  1.0736
    5CHL1    C2  343   4.971   2.292   6.859 -0.8040  0.4857  0.5265
    5CHL1   H2A  344   5.044   2.347   6.922 -1.0962  1.5886 -0.0699
    5CHL1   H2B  345   4.979   2.186   6.890 -1.5223  0.2758  0.0200
    5CHL1   C20  346   4.941   2.214   5.919  0.5841 -0.4303 -0.4219
    5CHL1   H20  347   4.951   2.106   5.944 -1.5779 -0.6335 -0.2613
    5CHL1   C21  348   5.073   2.295   5.917 -0.8158  0.4729 -0.8013
    5CHL1  H21A  349   5.061   2.402   5.890 -1.2904  0.8387  0.7683
    5CHL1  H21B  350   5.135   2.247   5.838  0.2433  2.3343 -1.1566
    5CHL1  H21C  351   5.136   2.283   6.008  0.0789  4.0928 -0.8095
    5CHL1   C22  352   4.871   2.222   5.791  1.0999  0.0502 -0.7054
    5CHL1  H22A  353   4.774   2.169   5.782  1.5827 -1.2692  1.2584
    5CHL1  H22B  354   4.846   2.328   5.769  0.0422  0.3944  1.8362
    5CHL1   C23  355   4.954   2.171   5.670  0.6056  0.4812 -0.6148
    5CHL1  H23A  356   5.039   2.236   5.639  1.4637 -0.6556 -0.6958
    5CHL1  H23B  357   4.993   2.069   5.686 -1.8918 -0.1311  2.4541
    5CHL1   C24  358   4.859   2.148   5.545 -0.0190 -0.1153 -0.2800
    5CHL1  H24A  359   4.777   2.080   5.574  1.1883 -1.2103  0.6586
    5CHL1  H24B  360   4.823   2.250   5.519 -0.4816  0.0216  0.8530
    5CHL1   C25  361   4.929   2.084   5.418 -0.1669  0.2849  0.3314
    5CHL1   H25  362   5.029   2.133   5.417 -0.0928  0.1344  0.2943
    5CHL1   C26  363   4.969   1.936   5.435 -0.3564 -0.1824 -0.2305
    5CHL1  H26A  364   5.023   1.917   5.530 -0.1691  1.8313  0.1009
    5CHL1  H26B  365   4.874   1.881   5.456 -1.7426  2.1676  0.0580
    5CHL1  H26C  366   5.008   1.904   5.336  0.4009  4.0436 -1.4790
    5CHL1   C27  367   4.853   2.120   5.283 -0.6325 -0.0779  1.0005
    5CHL1  H27A  368   4.743   2.114   5.299 -1.1713  2.2640 -1.2453
    5CHL1  H27B  369   4.865   2.229   5.269 -1.8791 -0.0012  0.4236
    5CHL1  H27C  370   4.889   2.071   5.190 -1.1386 -0.7103  1.1294
    6CHL1    C3  371   4.017   3.713   6.643  0.3612 -0.3156 -0.7565
    6CHL1    H3  372   3.955   3.800   6.614  2.3043  2.5904  2.8784
    6CHL1    O3  373   3.997   3.713   6.780 -0.1237 -0.6581  0.4715
    6CHL1   H3'  374   4.048   3.637   6.808 -0.3085 -0.9935 -0.0787
    6CHL1    C4  375   3.979   3.573   6.594 -0.2025 -0.2192  0.1103
    6CHL1   H4A  376   4.047   3.494   6.633 -0.4055  0.6124  2.2873
    6CHL1   H4B  377   3.872   3.554   6.618 -0.4611 -0.2129 -0.9692
    6CHL1    C5  378   3.990   3.580   6.441 -0.3095  0.1435  0.5571
    6CHL1    C6  379   3.883   3.572   6.364 -0.0329 -0.6044  0.4459
    6CHL1    H6  380   3.785   3.557   6.412 -0.1866 -2.6220 -0.3986
    6CHL1    C7  381   3.879   3.572   6.210  0.1049  0.2771  0.2404
    6CHL1   H7A  382   3.808   3.498   6.169 -0.1168 -0.1124  1.2791
    6CHL1   H7B  383   3.840   3.671   6.178  0.5265  0.9260  1.6255
    6CHL1    C8  384   4.024   3.561   6.149  0.0015 -0.4254  0.2043
    6CHL1    H8  385   4.043   3.451   6.148 -1.7430 -0.7972 -2.3343
    6CHL1   C14  386   4.020   3.600   6.006  0.2778 -0.7825 -0.2794
    6CHL1   H14  387   3.995   3.708   6.017  0.1770 -0.8108 -0.2245
    6CHL1   C15  388   3.920   3.531   5.913 -0.4584 -0.3056  0.0134
    6CHL1  H15A  389   3.912   3.420   5.911 -1.7910 -0.3031  1.9171
    6CHL1  H15B  390   3.818   3.573   5.927 -0.5917 -0.6997  0.2488
    6CHL1   C16  391   3.968   3.572   5.771  0.2725 -0.3200 -0.3746
    6CHL1  H16A  392   3.985   3.488   5.701 -1.3289  0.8189 -2.2226
    6CHL1  H16B  393   3.905   3.647   5.718  0.7165  0.2552 -0.1069
    6CHL1   C17  394   4.102   3.650   5.797 -0.2143  0.0131 -0.3370
    6CHL1   H17  395   4.077   3.758   5.809 -1.7222 -0.5830  3.1846
    6CHL1   C13  396   4.155   3.610   5.937  0.5424  0.4815 -0.2697
    6CHL1   C18  397   4.207   3.460   5.931 -0.1147  0.1574  0.2139
    6CHL1  H18A  398   4.231   3.426   6.033 -1.6025  0.3431  0.6474
    6CHL1  H18B  399   4.130   3.399   5.879 -0.5722  1.0459 -0.1909
    6CHL1  H18C  400   4.300   3.446   5.872 -0.3418 -0.1565 -0.0756
    6CHL1   C12  401   4.248   3.690   6.013 -0.7576  0.2308 -0.3502
    6CHL1  H12A  402   4.349   3.699   5.969 -0.3254  0.4290  0.6621
    6CHL1  H12B  403   4.213   3.795   6.009 -0.1862  0.5581  1.7969
    6CHL1   C11  404   4.268   3.638   6.158  0.1034  0.7038 -0.6450
    6CHL1  H11A  405   4.320   3.541   6.174 -0.5738  0.1516 -1.6856
    6CHL1  H11B  406   4.336   3.700   6.221 -2.3681  0.6565  2.3215
    6CHL1    C9  407   4.131   3.639   6.229 -0.0190 -0.3422  0.3564
    6CHL1    H9  408   4.091   3.742   6.219  0.5251 -0.2819 -1.7197
    6CHL1   C10  409   4.134   3.613   6.383  0.4721 -0.7186 -0.6299
    6CHL1   C19  410   4.217   3.489   6.416 -0.8049  1.4267  0.0162
    6CHL1  H19A  411   4.322   3.511   6.391 -0.7125  0.8850 -0.0914
    6CHL1  H19B  412   4.222   3.464   6.525 -0.3755 -1.3906 -0.5694
    6CHL1  H19C  413   4.176   3.407   6.353  0.5953  0.0166  0.8715
    6CHL1    C1  414   4.199   3.732   6.468  0.0208 -0.1370 -0.2465
    6CHL1   H1A  415   4.309   3.717   6.457 -0.0371  0.9085 -3.5471
    6CHL1   H1B  416   4.167   3.819   6.408 -0.8329  0.5788  1.2059
    6CHL1    C2  417   4.165   3.736   6.620 -0.1636 -0.5232  0.3724
    6CHL1   H2A  418   4.199   3.833   6.663  1.4524 -1.1621  0.6097
    6CHL1   H2B  419   4.225   3.653   6.662  0.6167  0.3765  1.1057
    6CHL1   C20  420   4.210   3.637   5.679 -0.5291  0.3525  0.0621
    6CHL1   H20  421   4.257   3.537   5.669  0.9787  0.9951  0.4933
    6CHL1   C21  422   4.323   3.737   5.700  0.4369 -0.3210  0.2125
    6CHL1  H21A  423   4.376   3.760   5.605  0.6518  0.6339  0.5496
    6CHL1  H21B  424   4.402   3.698   5.768 -0.5077  0.1578  1.6265
    6CHL1  H21C  425   4.298   3.833   5.750 -0.5275 -1.9940  3.1656
    6CHL1   C22  426   4.149   3.656   5.539 -0.3833 -0.4112  0.6222
    6CHL1  H22A  427   4.055   3.596   5.538 -1.9237  1.7222  3.5044
    6CHL1  H22B  428   4.130   3.765   5.532 -1.5146 -0.5932  0.6355
    6CHL1   C23  429   4.245   3.637   5.414 -0.0418  1.0304 -0.3209
    6CHL1  H23A  430   4.175   3.652   5.329 -1.3860  2.5700  0.9792
    6CHL1  H23B  431   4.323   3.715   5.419 -1.0429  1.9782  1.3066
    6CHL1   C24  432   4.315   3.497   5.414  0.2778 -0.1109 -0.2552
    6CHL1  H24A  433   4.367   3.489   5.512  0.1497  1.4631 -0.0464
    6CHL1  H24B  434   4.243   3.412   5.407 -2.4055  1.8884  1.3540
    6CHL1   C25  435   4.426   3.490   5.303 -0.0339 -0.3660  0.1816
    6CHL1   H25  436   4.372   3.510   5.208 -1.0711 -3.6082 -0.0386
    6CHL1   C26  437   4.547   3.580   5.324  0.3539 -1.2345 -0.0595
    6CHL1  H26A  438   4.589   3.575   5.427 -0.0358  3.7066  0.5800
    6CHL1  H26B  439   4.636   3.553   5.263  2.5147  1.2455  1.7470
    6CHL1  H26C  440   4.517   3.685   5.304 -2.0914 -1.4559  1.9753
    6CHL1   C27  441   4.482   3.343   5.298  0.1836 -0.2409  0.4429
    6CHL1  H27A  442   4.397   3.272   5.289  1.2573 -1.4245 -0.8126
    6CHL1  H27B  443   4.554   3.319   5.216 -0.0342 -1.1687  0.5126
    6CHL1  H27C  444   4.538   3.315   5.390  1.0395  0.3748  0.1227
    7CHL1    C3  445   3.381   5.316   6.835 -0.7224  0.5228 -0.0331
    7CHL1    H3  446   3.336   5.217   6.816  0.1845 -0.0829  0.8422
    7CHL1    O3  447   3.340   5.344   6.967  0.4246 -0.2704  0.6002
    7CHL1   H3'  448   3.351   5.262   7.016  0.0608 -0.7518 -0.1033
    7CHL1    C4  449   3.533   5.291   6.827 -0.3080 -0.2409  0.2175
    7CHL1   H4A  450   3.582   5.379   6.873  1.4889 -1.4604  0.7258
    7CHL1   H4B  451   3.561   5.209   6.895 -2.4991 -1.3626 -0.1323
    7CHL1    C5  452   3.595   5.266   6.681 -0.1384  0.4670 -0.0969
    7CHL1    C6  453   3.677   5.162   6.652  0.6479 -0.4687  0.5995
    7CHL1    H6  454   3.699   5.098   6.739  0.2964 -0.5446  0.6336
    7CHL1    C7  455   3.733   5.137   6.517  0.1710  0.6506 -0.3097
    7CHL1   H7A  456   3.843   5.130   6.532  0.1532  1.4982  0.2774
    7CHL1   H7B  457   3.700   5.036   6.484 -0.9566  0.8694  0.0842
    7CHL1    C8  458   3.705   5.244   6.410 -0.4261  0.1835  0.4235
    7CHL1    H8  459   3.785   5.321   6.405 -1.1401  0.8715 -1.1998
    7CHL1   C14  460   3.697   5.184   6.266 -0.1225  0.4565  0.0070
    7CHL1   H14  461   3.612   5.112   6.266  0.4910 -0.2904 -0.4894
    7CHL1   C15  462   3.816   5.090   6.231  0.3010  0.3946 -0.5154
    7CHL1  H15A  463   3.916   5.129   6.261 -0.1493  1.1390  0.0515
    7CHL1  H15B  464   3.804   4.990   6.279  0.9140  1.1533  1.3189
    7CHL1   C16  465   3.801   5.076   6.079  0.4739  0.2194  0.0760
    7CHL1  H16A  466   3.902   5.102   6.040  0.8686  0.2501  1.0961
    7CHL1  H16B  467   3.772   4.972   6.050  1.8031 -0.1335 -0.0935
    7CHL1   C17  468   3.690   5.171   6.037 -0.4718 -0.9807 -0.5734
    7CHL1   H17  469   3.603   5.104   6.053  0.7849 -2.5261  0.0855
    7CHL1   C13  470   3.671   5.275   6.154  0.4913  0.3444  0.0363
    7CHL1   C18  471   3.784   5.384   6.147  0.2116  0.5279 -0.4090
    7CHL1  H18A  472   3.792   5.443   6.241  0.3762 -0.0236 -0.0661
    7CHL1  H18B  473   3.877   5.326   6.132 -0.3622 -0.5593  0.1045
    7CHL1  H18C  474   3.776   5.455   6.063  2.3190 -0.8487 -1.8636
    7CHL1   C12  475   3.530   5.333   6.166  0.2010 -0.5213 -0.0909
    7CHL1  H12A  476   3.512   5.403   6.082 -0.6368  1.6507  1.8250
    7CHL1  H12B  477   3.456   5.251   6.150 -2.5532  1.9811 -0.9784
    7CHL1   C11  478   3.518   5.394   6.305  0.4063  0.1878 -0.8797
    7CHL1  H11A  479   3.573   5.491   6.300  0.8473 -0.1021 -2.0659
    7CHL1  H11B  480   3.411   5.417   6.324  0.8037  0.3787  1.3491
    7CHL1    C9  481   3.561   5.300   6.424  0.0097 -0.1719 -0.6375
    7CHL1    H9  482   3.491   5.214   6.423 -0.3761  0.1408 -0.5800
    7CHL1   C10  483   3.544   5.367   6.567 -0.5557 -0.0561 -0.3850
    7CHL1   C19  484   3.621   5.503   6.582  0.6942  0.1463 -0.2500
    7CHL1  H19A  485   3.627   5.549   6.683  1.5914  1.5807 -0.9266
    7CHL1  H19B  486   3.721   5.484   6.539  2.1481  1.9967  2.0234
    7CHL1  H19C  487   3.578   5.587   6.523 -0.7823  0.0393  0.6219
    7CHL1    C1  488   3.393   5.391   6.595  0.0285  0.2935 -0.0903
    7CHL1   H1A  489   3.352   5.463   6.522 -1.7350  0.1472  0.7017
    7CHL1   H1B  490   3.340   5.295   6.580  0.0529 -0.2082  2.4860
    7CHL1    C2  491   3.351   5.429   6.738  0.0765  0.7186  0.5091
    7CHL1   H2A  492   3.242   5.448   6.744 -0.2609 -1.4689  2.4901
    7CHL1   H2B  493   3.397   5.527   6.765  2.2688 -0.1970  0.3274
    7CHL1   C20  494   3.699   5.216   5.889  0.5694 -0.1395 -0.0268
    7CHL1   H20  495   3.638   5.308   5.887 -1.7930 -1.6291 -0.5206
    7CHL1   C21  496   3.627   5.112   5.802 -0.4626 -0.0198  0.2630
    7CHL1  H21A  497   3.538   5.068   5.852  1.0961 -2.2910  1.2082
    7CHL1  H21B  498   3.686   5.019   5.788 -4.2580 -2.9280  1.9797
    7CHL1  H21C  499   3.617   5.145   5.696  0.4829 -2.3032 -0.6004
    7CHL1   C22  500   3.829   5.260   5.820  0.1904  0.4801 -0.3410
    7CHL1  H22A  501   3.892   5.330   5.877  1.4613  0.1106 -1.2497
    7CHL1  H22B  502   3.890   5.169   5.804 -2.0470 -1.0868 -0.5178
    7CHL1   C23  503   3.813   5.316   5.672 -0.5991  0.3874 -0.0101
    7CHL1  H23A  504   3.789   5.229   5.608 -0.0486 -0.4123  0.8475
    7CHL1  H23B  505   3.720   5.376   5.657 -0.5184  0.3055 -0.8410
    7CHL1   C24  506   3.941   5.392   5.624  0.4069  0.3500 -0.5353
    7CHL1  H24A  507   3.947   5.491   5.674 -1.5540 -0.1435  0.8254
    7CHL1  H24B  508   4.033   5.338   5.652 -0.0940  0.2787  1.0528
    7CHL1   C25  509   3.941   5.419   5.474 -0.0176  0.1552 -0.0328
    7CHL1   H25  510   3.940   5.323   5.417  2.5701  0.6533 -1.0869
    7CHL1   C26  511   3.826   5.506   5.421 -0.5401 -0.3666 -0.2828
    7CHL1  H26A  512   3.859   5.547   5.323  0.0030  2.5693  1.0035
    7CHL1  H26B  513   3.736   5.443   5.407 -0.8122 -0.2641  0.8913
    7CHL1  H26C  514   3.799   5.589   5.490 -2.8707 -2.0221  0.9394
    7CHL1   C27  515   4.086   5.468   5.431 -0.6270 -0.1695 -0.5129
    7CHL1  H27A  516   4.097   5.479   5.321  2.3335 -0.7987 -0.3436
    7CHL1  H27B  517   4.120   5.551   5.496 -0.5384 -0.5180 -0.1086
    7CHL1  H27C  518   4.157   5.386   5.453  0.4851  0.9657  0.2252
    8CHL1    C3  519   3.590   4.061   6.677  0.3180 -0.2796 -0.2306
    8CHL1    H3  520   3.638   3.961   6.677  1.4649  0.1934 -2.6091
    8CHL1    O3  521   3.550   4.106   6.807 -0.3940 -0.6650  0.2322
    8CHL1   H3'  522   3.454   4.108   6.807 -0.4433  0.2578 -1.8795
    8CHL1    C4  523   3.706   4.156   6.624 -0.5052  0.1222  0.1273
    8CHL1   H4A  524   3.654   4.255   6.624  0.4828  0.7013  2.1464
    8CHL1   H4B  525   3.786   4.156   6.701  0.3902 -0.8446 -0.7693
    8CHL1    C5  526   3.754   4.110   6.487 -0.5365 -0.6631  0.6636
    8CHL1    C6  527   3.883   4.078   6.454  0.6703 -0.4019  0.4153
    8CHL1    H6  528   3.967   4.081   6.526  1.3180  3.7669 -0.2829
    8CHL1    C7  529   3.931   4.035   6.316 -0.3697  0.3950  0.0027
    8CHL1   H7A  530   4.022   4.092   6.285  0.0972  1.2307  2.6441
    8CHL1   H7B  531   3.944   3.926   6.301 -4.0675 -0.7208  3.1210
    8CHL1    C8  532   3.827   4.078   6.208  0.2807 -0.0102  0.1930
    8CHL1    H8  533   3.819   4.188   6.192  0.0780 -0.1217 -0.5145
    8CHL1   C14  534   3.869   4.010   6.075 -0.3223 -0.3451  0.8388
    8CHL1   H14  535   3.894   3.903   6.093  0.3219 -0.1055  1.4354
    8CHL1   C15  536   4.007   4.054   6.012  0.3185  0.2900  0.7593
    8CHL1  H15A  537   4.034   4.158   6.038  1.0578  0.4351 -0.4954
    8CHL1  H15B  538   4.088   3.994   6.060  0.6315  0.1281  0.0345
    8CHL1   C16  539   3.986   4.034   5.861 -0.0536  0.2090  0.1950
    8CHL1  H16A  540   3.979   4.132   5.809 -0.0818 -1.2775 -2.8490
    8CHL1  H16B  541   4.061   3.967   5.812 -1.4968  0.3819 -2.4451
    8CHL1   C17  542   3.843   3.968   5.843  0.5142 -0.2591 -0.3603
    8CHL1   H17  543   3.861   3.859   5.855 -0.5881 -0.4002  0.1815
    8CHL1   C13  544   3.760   4.012   5.966 -0.6681  0.3474  0.5149
    8CHL1   C18  545   3.721   4.160   5.949  0.7021  0.2075  0.2843
    8CHL1  H18A  546   3.814   4.219   5.940 -0.4536  2.0568 -0.0951
    8CHL1  H18B  547   3.665   4.172   5.854  1.1937  0.7373  0.0642
    8CHL1  H18C  548   3.667   4.211   6.032 -2.7750  0.8786 -2.1541
    8CHL1   C12  549   3.638   3.929   6.015  0.0638  0.0096  0.3781
    8CHL1  H12A  550   3.546   3.934   5.953 -1.5413 -0.2626  2.6211
    8CHL1  H12B  551   3.665   3.824   6.042 -2.3366 -0.8358 -0.2966
    8CHL1   C11  552   3.590   3.997   6.146 -0.1993  0.1686 -0.1052
    8CHL1  H11A  553   3.530   4.088   6.123  0.6943  0.7578 -0.1554
    8CHL1  H11B  554   3.513   3.925   6.182 -1.8048  1.5545 -0.6316
    8CHL1    C9  555   3.698   4.019   6.255  0.0139  0.1192  0.2622
    8CHL1    H9  556   3.723   3.917   6.290 -0.8260 -0.8706 -1.8314
    8CHL1   C10  557   3.640   4.090   6.383 -0.6227 -0.5686  0.3457
    8CHL1   C19  558   3.592   4.230   6.345  0.3565  0.6704 -0.3580
    8CHL1  H19A  559   3.510   4.217   6.271  0.3204 -0.0519 -0.2031
    8CHL1  H19B  560   3.542   4.295   6.421 -3.0377 -1.8471 -0.1900
    8CHL1  H19C  561   3.673   4.295   6.306  1.4692 -0.6740 -0.3605
    8CHL1    C1  562   3.530   3.993   6.449  0.0969 -0.3258  1.3581
    8CHL1   H1A  563   3.448   3.986   6.375  0.6769 -1.5007  0.7894
    8CHL1   H1B  564   3.558   3.887   6.467  1.2181 -0.2404  0.2991
    8CHL1    C2  565   3.475   4.054   6.577  0.2218  0.9669 -0.2771
    8CHL1   H2A  566   3.403   3.979   6.616  2.3648 -1.3798 -0.6019
    8CHL1   H2B  567   3.421   4.149   6.553 -0.5491  0.6188  0.0259
    8CHL1   C20  568   3.787   3.989   5.704  0.4302  0.0699 -0.3503
    8CHL1   H20  569   3.767   4.098   5.695  2.6937  0.5998  0.5426
    8CHL1   C21  570   3.661   3.906   5.688  0.0058  0.5746 -0.2699
    8CHL1  H21A  571   3.578   3.951   5.746 -2.4227 -1.1180 -2.1860
    8CHL1  H21B  572   3.660   3.798   5.714 -3.2734  0.8166  1.0644
    8CHL1  H21C  573   3.631   3.906   5.581  2.0758  2.6134 -0.9269
    8CHL1   C22  574   3.880   3.961   5.583  0.5052  0.1074  0.1455
    8CHL1  H22A  575   3.986   3.955   5.616 -0.0451 -0.5772  1.9054
    8CHL1  H22B  576   3.853   3.860   5.544 -1.4220  0.5578  0.2344
    8CHL1   C23  577   3.875   4.062   5.472 -0.3957  0.5717  1.2071
    8CHL1  H23A  578   3.778   4.116   5.481 -2.0236 -1.8779 -0.3435
    8CHL1  H23B  579   3.957   4.133   5.496  0.0256  1.7568 -2.8667
    8CHL1   C24  580   3.894   3.992   5.337  0.1382  0.4100  0.3114
    8CHL1  H24A  581   3.980   3.922   5.340  2.4665  3.1284  1.7843
    8CHL1  H24B  582   3.798   3.940   5.316  0.7301  0.1192 -2.0014
    8CHL1   C25  583   3.910   4.091   5.220  0.0371  0.6728  0.2556
    8CHL1   H25  584   3.817   4.151   5.227 -2.1571 -2.6436  2.8530
    8CHL1   C26  585   4.038   4.171   5.224  0.6019  0.3685  0.3032
    8CHL1  H26A  586   4.056   4.218   5.125  1.6104 -0.1411  0.2367
    8CHL1  H26B  587   4.037   4.264   5.285 -0.9503  0.7394 -0.2440
    8CHL1  H26C  588   4.127   4.113   5.258  1.3872  1.0601 -0.5033
    8CHL1   C27  589   3.907   4.014   5.088  0.6773  0.4643  0.3762
    8CHL1  H27A  590   3.947   4.073   5.003 -0.8631  2.1449  0.7564
    8CHL1  H27B  591   3.961   3.917   5.097  0.9396  0.0459 -3.7352
    8CHL1  H27C  592   3.802   3.981   5.068  1.3802 -0.8769 -1.3952
    9CHL1    C3  593   4.974   4.052   6.805 -0.5238 -0.1275 -0.2892
    9CHL1    H3  594   4.972   4.159   6.776  0.7442  0.0218  0.0755
    9CHL1    O3  595   4.938   4.051   6.939  0.1393 -0.4566 -0.9338
    9CHL1   H3'  596   4.981   4.128   6.977  1.0763 -1.0329 -0.8062
    9CHL1    C4  597   4.859   3.977   6.723 -0.6843 -0.2720 -0.1659
    9CHL1   H4A  598   4.861   3.870   6.750  1.3360  0.4158  2.9974
    9CHL1   H4B  599   4.760   4.021   6.748  0.0705  0.8567  0.9897
    9CHL1    C5  600   4.897   3.986   6.566  0.2966 -0.3643  0.1441
    9CHL1    C6  601   4.809   4.029   6.469 -0.3453 -0.7752 -0.0759
    9CHL1    H6  602   4.703   4.050   6.490  0.1105  1.6570  0.1749
    9CHL1    C7  603   4.840   4.024   6.316  0.1209  0.4038 -0.1774
    9CHL1   H7A  604   4.765   3.964   6.260  1.2700  0.1917 -1.5691
    9CHL1   H7B  605   4.828   4.131   6.289 -1.5839  0.0595 -0.8713
    9CHL1    C8  606   4.984   3.972   6.284 -0.0450 -0.3018 -0.4045
    9CHL1    H8  607   4.969   3.863   6.265 -4.1239  0.1581 -0.7232
    9CHL1   C14  608   5.036   4.025   6.155  1.3786 -0.4484 -0.5350
    9CHL1   H14  609   5.060   4.131   6.179 -0.6673 -0.0585  0.0486
    9CHL1   C15  610   4.938   4.026   6.032 -0.1248  0.3125 -0.3381
    9CHL1  H15A  611   4.889   3.927   6.020 -0.6365  0.7775 -2.5985
    9CHL1  H15B  612   4.847   4.089   6.044 -0.5410 -0.2913 -0.3022
    9CHL1   C16  613   5.029   4.049   5.907 -0.5774  0.5515  0.7834
    9CHL1  H16A  614   5.028   3.966   5.833  0.6369  0.3311  1.0023
    9CHL1  H16B  615   5.027   4.154   5.871  1.5092  0.2805 -0.2839
    9CHL1   C17  616   5.177   4.028   5.955 -0.1286 -0.0564  0.4697
    9CHL1   H17  617   5.214   4.127   5.988  1.6997 -1.4348  2.9500
    9CHL1   C13  618   5.160   3.957   6.096 -0.3292  0.0837  0.0377
    9CHL1   C18  619   5.129   3.807   6.082 -0.0559 -0.0388 -0.2308
    9CHL1  H18A  620   5.226   3.765   6.048  0.1359  1.5080 -1.7132
    9CHL1  H18B  621   5.095   3.746   6.168  0.9636 -0.1056  0.1418
    9CHL1  H18C  622   5.056   3.796   5.999  1.3723 -1.5858 -1.3447
    9CHL1   C12  623   5.265   3.988   6.202 -0.0476  0.3846 -0.1155
    9CHL1  H12A  624   5.353   3.927   6.173 -1.4887 -1.7053 -0.2868
    9CHL1  H12B  625   5.283   4.096   6.219 -0.6027  0.2114  1.6962
    9CHL1   C11  626   5.222   3.944   6.342  0.3864  0.2363 -0.2987
    9CHL1  H11A  627   5.228   3.835   6.322  1.0098  0.5798 -2.2309
    9CHL1  H11B  628   5.305   3.971   6.411  1.8268  0.6991 -2.1273
    9CHL1    C9  629   5.088   3.992   6.397 -0.0572 -0.5297 -0.1947
    9CHL1    H9  630   5.104   4.102   6.402 -0.4900 -0.4596 -0.2685
    9CHL1   C10  631   5.048   3.950   6.536 -0.2940 -0.4140 -0.6798
    9CHL1   C19  632   5.079   3.799   6.544 -0.0268  0.4471  0.0465
    9CHL1  H19A  633   5.036   3.764   6.640  1.2221  0.3704  0.5971
    9CHL1  H19B  634   5.029   3.753   6.456 -0.3028  3.4130 -1.4772
    9CHL1  H19C  635   5.189   3.780   6.542  0.0645  0.8745 -2.0396
    9CHL1    C1  636   5.149   4.018   6.627 -0.0633  0.0918  0.7481
    9CHL1   H1A  637   5.253   3.980   6.618 -0.3216 -0.7622  1.3398
    9CHL1   H1B  638   5.142   4.125   6.596  0.6325 -0.3033 -0.8651
    9CHL1    C2  639   5.120   4.002   6.780  0.1149 -0.0323  0.1017
    9CHL1   H2A  640   5.206   4.039   6.839  0.4716  0.3891 -0.6661
    9CHL1   H2B  641   5.106   3.897   6.812  0.4201  0.1095  0.7049
    9CHL1   C20  642   5.268   3.968   5.847  0.5930  0.2039  0.9784
    9CHL1   H20  643   5.246   3.859   5.843  0.9065  0.1855 -1.7156
    9CHL1   C21  644   5.417   3.975   5.891  0.2171  0.2335  0.0985
    9CHL1  H21A  645   5.433   3.899   5.971  0.1810 -0.5215 -0.5955
    9CHL1  H21B  646   5.454   4.069   5.937  1.0680 -0.4084  0.7452
    9CHL1  H21C  647   5.478   3.940   5.805 -0.9183  0.5020 -0.8481
    9CHL1   C22  648   5.255   4.019   5.707 -0.2639  0.3602 -0.2604
    9CHL1  H22A  649   5.331   3.987   5.633 -2.2175  1.3706 -2.8143
    9CHL1  H22B  650   5.169   3.965   5.664  0.5934  0.7367 -2.5568
    9CHL1   C23  651   5.269   4.169   5.688  0.0783  0.1961 -0.3183
    9CHL1  H23A  652   5.194   4.232   5.742  0.9517  1.0208 -0.0273
    9CHL1  H23B  653   5.365   4.207   5.729 -0.2727 -0.9009  1.6544
    9CHL1   C24  654   5.275   4.213   5.544 -0.4041 -0.2319  0.1256
    9CHL1  H24A  655   5.328   4.134   5.485 -0.7190 -0.4925  0.1846
    9CHL1  H24B  656   5.168   4.213   5.514 -0.4575  2.3966  0.1566
    9CHL1   C25  657   5.346   4.341   5.526  0.7827 -0.1796 -0.5133
    9CHL1   H25  658   5.449   4.343   5.567  0.5690  2.4509  0.0918
    9CHL1   C26  659   5.370   4.355   5.373  0.2509  0.0936  0.0674
    9CHL1  H26A  660   5.297   4.290   5.321 -0.8244  0.7257  0.7613
    9CHL1  H26B  661   5.345   4.461   5.350  1.9892  0.5740  0.2210
    9CHL1  H26C  662   5.472   4.326   5.338  0.5617  2.9608 -1.7405
    9CHL1   C27  663   5.259   4.463   5.573 -0.1247  0.1959  0.1006
    9CHL1  H27A  664   5.239   4.451   5.682 -0.0553 -2.5538 -0.1033
    9CHL1  H27B  665   5.313   4.558   5.553  1.9926 -1.0952 -0.7553
    9CHL1  H27C  666   5.167   4.460   5.511 -0.1126  0.1753  0.0833
   10CHL1    C3  667   4.986   0.199   6.637  0.0427 -0.0062  0.0311
   10CHL1    H3  668   4.896   0.262   6.619 -0.3587 -0.8994 -1.2270
   10CHL1    O3  669   5.028   0.226   6.769  0.1232 -0.3258  0.2416
   10CHL1   H3'  670   5.091   0.160   6.800 -0.3052 -0.5569  0.6304
   10CHL1    C4  671   4.938   0.055   6.633  0.4022 -0.3523 -0.3565
   10CHL1   H4A  672   5.004  -0.012   6.692  1.6939  0.3911 -0.9355
   10CHL1   H4B  673   4.844   0.053   6.694  0.8205 -1.0375  0.2809
   10CHL1    C5  674   4.904   0.010   6.494 -0.4079 -0.2431  1.3739
   10CHL1    C6  675   4.780  -0.026   6.452 -0.1451 -0.1562  0.1951
   10CHL1    H6  676   4.705  -0.046   6.531  0.6738 -0.1406  0.9950
   10CHL1    C7  677   4.749  -0.064   6.312  0.4033  0.0583  0.0523
   10CHL1   H7A  678   4.695  -0.160   6.325 -0.7306  0.7481  0.6503
   10CHL1   H7B  679   4.675   0.006   6.267  0.8500  0.8915  0.5850
   10CHL1    C8  680   4.876  -0.087   6.217 -0.4987 -0.1147 -0.5756
   10CHL1    H8  681   4.909  -0.184   6.259  1.1279  0.4461 -0.4790
   10CHL1   C14  682   4.830  -0.095   6.068 -0.5314 -0.2693 -0.0182
   10CHL1   H14  683   4.795   0.005   6.037 -1.9274 -0.5605  0.5665
   10CHL1   C15  684   4.717  -0.185   6.032  0.3861  0.2365 -0.8019
   10CHL1  H15A  685   4.733  -0.282   6.084  0.3501  0.5100 -0.2868
   10CHL1  H15B  686   4.613  -0.153   6.053  0.1806  0.4819 -2.0853
   10CHL1   C16  687   4.733  -0.188   5.876 -0.4717 -0.5758  0.3540
   10CHL1  H16A  688   4.729  -0.295   5.847  0.5727  0.0410 -2.4183
   10CHL1  H16B  689   4.652  -0.134   5.822  1.8877  2.0223 -0.8712
   10CHL1   C17  690   4.873  -0.120   5.842  0.8342  0.2814 -1.0456
   10CHL1   H17  691   4.839  -0.018   5.812 -0.7403 -0.2703 -1.2661
   10CHL1   C13  692   4.948  -0.123   5.975  0.4885 -0.1057  0.2415
   10CHL1   C18  693   5.008  -0.258   6.000  0.3170 -0.1245 -0.4255
   10CHL1  H18A  694   5.086  -0.288   5.927 -0.6308 -1.9380 -0.7571
   10CHL1  H18B  695   5.056  -0.259   6.100  2.2296  2.4619 -1.1907
   10CHL1  H18C  696   4.930  -0.335   6.013 -1.2643  1.4386 -0.1913
   10CHL1   C12  697   5.056  -0.012   5.992  0.1214  0.0186  0.0133
   10CHL1  H12A  698   5.144  -0.017   5.924  0.6752 -0.1671  0.7311
   10CHL1  H12B  699   5.001   0.080   5.962  0.5521  1.4998  3.3527
   10CHL1   C11  700   5.100   0.001   6.140  0.6575  0.2221 -0.2250
   10CHL1  H11A  701   5.150  -0.094   6.168  0.2972  0.3089  0.7496
   10CHL1  H11B  702   5.179   0.078   6.155 -1.0223  2.0990 -0.5527
   10CHL1    C9  703   4.982   0.025   6.242  0.3919 -0.1609 -0.0223
   10CHL1    H9  704   4.938   0.121   6.208 -2.5529 -0.7326  1.8083
   10CHL1   C10  705   5.018   0.037   6.390  1.1814 -0.6613  0.1535
   10CHL1   C19  706   5.140  -0.056   6.422 -0.0769 -0.5034  0.1700
   10CHL1  H19A  707   5.126  -0.157   6.380 -0.3908  0.1452 -1.3537
   10CHL1  H19B  708   5.239  -0.019   6.387  0.2157 -1.3814  0.0494
   10CHL1  H19C  709   5.150  -0.069   6.532 -0.5264 -0.2288  0.2485
   10CHL1    C1  710   5.072   0.183   6.400 -0.3431 -0.0166 -0.0616
   10CHL1   H1A  711   5.161   0.201   6.336 -1.0884  0.4977 -0.9882
   10CHL1   H1B  712   4.994   0.251   6.359 -0.0392  0.2703 -0.1679
   10CHL1    C2  713   5.104   0.231   6.544  0.1927 -0.3761  0.3483
   10CHL1   H2A  714   5.120   0.341   6.546 -0.0201 -0.3460  0.4386
   10CHL1   H2B  715   5.190   0.170   6.578  0.3187 -2.1794 -2.8436
   10CHL1   C20  716   4.947  -0.163   5.714 -0.3180 -0.5674 -0.2218
   10CHL1   H20  717   5.049  -0.196   5.743  0.1476 -0.3291 -1.4977
   10CHL1   C21  718   4.959  -0.044   5.620  0.0427 -0.5095  0.2771
   10CHL1  H21A  719   4.860  -0.004   5.590 -0.6701 -3.4859 -1.8377
   10CHL1  H21B  720   5.029  -0.056   5.535  0.2049  0.7281  0.2179
   10CHL1  H21C  721   5.009   0.033   5.682  0.5146 -2.6140  2.6550
   10CHL1   C22  722   4.885  -0.278   5.631  0.3600  0.5188  0.0513
   10CHL1  H22A  723   4.874  -0.362   5.703 -0.1292  0.7141  0.2076
   10CHL1  H22B  724   4.788  -0.244   5.590 -1.8475 -1.9471  2.7785
   10CHL1   C23  725   4.979  -0.326   5.519  0.5020 -0.3915  0.2211
   10CHL1  H23A  726   5.000  -0.239   5.454 -0.5621  0.0627  0.4692
   10CHL1  H23B  727   5.082  -0.353   5.554  0.2730 -1.2979  0.2368
   10CHL1   C24  728   4.922  -0.441   5.431 -0.2007  0.6712  0.0627
   10CHL1  H24A  729   4.902  -0.533   5.491 -2.6576  0.9434 -0.2076
   10CHL1  H24B  730   4.824  -0.399   5.400 -0.1125  2.6979  2.2423
   10CHL1   C25  731   5.009  -0.492   5.314 -0.1792  0.2510  0.7285
   10CHL1   H25  732   5.047  -0.413   5.246  1.7030 -1.7582 -0.7178
   10CHL1   C26  733   5.136  -0.557   5.369 -1.4637  0.2151  0.1296
   10CHL1  H26A  734   5.220  -0.546   5.297 -2.0156 -2.2598 -1.0157
   10CHL1  H26B  735   5.180  -0.512   5.460  3.2321 -0.7730 -1.3768
   10CHL1  H26C  736   5.122  -0.663   5.400 -1.7168  0.2483  0.1375
   10CHL1   C27  737   4.939  -0.600   5.241 -0.9748 -0.0653  0.0579
   10CHL1  H27A  738   4.935  -0.692   5.304 -1.8821 -0.6832 -0.8796
   10CHL1  H27B  739   4.840  -0.578   5.197 -0.1128  1.3272 -1.2467
   10CHL1  H27C  740   4.998  -0.627   5.151  0.8066  0.8844  0.9018
   11CHL1    C3  741   3.144   2.338   6.913 -0.0720  0.9576  0.7178
   11CHL1    H3  742   3.251   2.311   6.899 -0.5489 -0.6754 -0.0095
   11CHL1    O3  743   3.119   2.356   7.054  0.0802 -0.4276  0.2500
   11CHL1   H3'  744   3.102   2.450   7.063 -0.5307 -0.6096  1.1182
   11CHL1    C4  745   3.128   2.471   6.834  0.2496  0.9873  0.3917
   11CHL1   H4A  746   3.029   2.513   6.859 -0.0788  0.4960 -0.0446
   11CHL1   H4B  747   3.195   2.548   6.878  2.4984 -0.5006 -0.2283
   11CHL1    C5  748   3.141   2.455   6.687 -0.3812 -0.8824  0.1969
   11CHL1    C6  749   3.224   2.538   6.623 -0.2203 -0.2354  0.0367
   11CHL1    H6  750   3.284   2.615   6.673 -1.1834 -0.2586  1.2805
   11CHL1    C7  751   3.235   2.542   6.475  0.8189  0.3522  0.6248
   11CHL1   H7A  752   3.244   2.644   6.432  0.5865  0.5656  1.0789
   11CHL1   H7B  753   3.334   2.501   6.445  1.4956  1.7068  0.9469
   11CHL1    C8  754   3.129   2.458   6.395  0.3201  0.5052  0.2535
   11CHL1    H8  755   3.042   2.527   6.394  0.8653  1.4601  3.9069
   11CHL1   C14  756   3.168   2.431   6.246  0.2671  0.6544 -0.1707
   11CHL1   H14  757   3.252   2.358   6.244 -0.9147 -0.7266 -0.8382
   11CHL1   C15  758   3.220   2.547   6.168 -0.0709  0.7125 -0.0302
   11CHL1  H15A  759   3.154   2.635   6.179 -1.6699 -0.5945  1.4657
   11CHL1  H15B  760   3.318   2.590   6.198  0.3163 -0.9040  1.1765
   11CHL1   C16  761   3.213   2.488   6.030  0.0124 -0.1601  0.0387
   11CHL1  H16A  762   3.164   2.559   5.960 -0.7833  0.1735  0.9062
   11CHL1  H16B  763   3.317   2.463   6.000  0.1022  1.8519 -1.4978
   11CHL1   C17  764   3.132   2.353   6.033  0.2696  0.1997  1.0299
   11CHL1   H17  765   3.202   2.267   6.033  1.2286  0.9600  1.1687
   11CHL1   C13  766   3.052   2.359   6.162 -1.1163 -0.1258 -0.0696
   11CHL1   C18  767   2.926   2.442   6.154 -0.3105 -0.0984  0.1145
   11CHL1  H18A  768   2.844   2.379   6.114  1.0266 -1.6330 -0.3085
   11CHL1  H18B  769   2.905   2.476   6.257  2.9932 -1.0465  1.2317
   11CHL1  H18C  770   2.940   2.527   6.083  0.9629 -1.4757 -1.3732
   11CHL1   C12  771   3.016   2.227   6.243 -0.2295 -0.5159 -0.0037
   11CHL1  H12A  772   2.938   2.168   6.190 -0.4512 -1.8943  1.7894
   11CHL1  H12B  773   3.109   2.167   6.250  0.7153  0.9780  0.7326
   11CHL1   C11  774   2.973   2.260   6.384  0.7968  0.2760  0.3072
   11CHL1  H11A  775   2.870   2.298   6.394  0.7730  0.1162  0.6613
   11CHL1  H11B  776   2.959   2.160   6.429  1.9430 -0.4208 -0.8170
   11CHL1    C9  777   3.088   2.331   6.469 -0.6941  0.0812 -0.3372
   11CHL1    H9  778   3.174   2.262   6.458  0.8199  1.9769 -0.9797
   11CHL1   C10  779   3.055   2.347   6.625 -0.1956 -0.4996  0.7666
   11CHL1   C19  780   2.909   2.393   6.641 -0.0504  0.4771  0.3099
   11CHL1  H19A  781   2.898   2.494   6.597  0.3531  1.3054  2.0056
   11CHL1  H19B  782   2.835   2.327   6.591  1.1180 -0.6131 -0.0425
   11CHL1  H19C  783   2.883   2.399   6.749  0.0778  4.2898  0.2518
   11CHL1    C1  784   3.085   2.214   6.699  0.1292 -0.3090  0.2189
   11CHL1   H1A  785   3.012   2.138   6.664  1.1545 -1.9794  1.5602
   11CHL1   H1B  786   3.187   2.180   6.672 -0.9900 -2.4817 -1.5607
   11CHL1    C2  787   3.063   2.222   6.851 -0.5676 -0.8230 -0.3788
   11CHL1   H2A  788   3.105   2.131   6.898  1.9522 -1.3882 -3.3875
   11CHL1   H2B  789   2.957   2.248   6.874  0.4041  2.1459  1.2190
   11CHL1   C20  790   3.049   2.343   5.899 -0.5415 -0.2637 -0.0175
   11CHL1   H20  791   2.976   2.427   5.897 -0.5509 -0.2742 -1.6444
   11CHL1   C21  792   2.962   2.210   5.900  0.9208  0.8962  0.3238
   11CHL1  H21A  793   2.915   2.189   5.802  1.2397 -0.8897  0.5162
   11CHL1  H21B  794   2.882   2.217   5.978  0.1541 -4.3016  0.3636
   11CHL1  H21C  795   3.018   2.119   5.931  0.1354  0.5469  0.7382
   11CHL1   C22  796   3.134   2.371   5.767  0.1343  0.2807  0.1969
   11CHL1  H22A  797   3.203   2.459   5.767 -2.9702  2.9076 -1.1115
   11CHL1  H22B  798   3.191   2.275   5.761 -1.5502 -0.8396  1.4045
   11CHL1   C23  799   3.057   2.376   5.636  0.0457 -0.5055  0.3420
   11CHL1  H23A  800   2.993   2.286   5.621 -0.5385 -0.1372  0.6360
   11CHL1  H23B  801   2.993   2.466   5.644  1.9249  0.7280  3.0596
   11CHL1   C24  802   3.150   2.381   5.513 -0.5198 -0.0710  0.1312
   11CHL1  H24A  803   3.203   2.476   5.534  2.1712 -1.4052 -0.0890
   11CHL1  H24B  804   3.228   2.303   5.531  0.6363  1.6700  3.4329
   11CHL1   C25  805   3.081   2.386   5.377 -0.1562 -0.7622 -0.0637
   11CHL1   H25  806   3.000   2.462   5.368 -0.7619 -1.5343 -1.3975
   11CHL1   C26  807   3.192   2.426   5.278 -0.0368  0.1479  0.0200
   11CHL1  H26A  808   3.146   2.433   5.178  0.8032  1.9316 -0.2776
   11CHL1  H26B  809   3.225   2.524   5.318  0.2832 -0.8942  2.5603
   11CHL1  H26C  810   3.268   2.345   5.291  0.7092  0.8216 -0.0279
   11CHL1   C27  811   3.024   2.249   5.332 -0.0794 -0.2411  0.4484
   11CHL1  H27A  812   3.100   2.169   5.334 -0.8668 -1.0561 -0.7462
   11CHL1  H27B  813   2.945   2.213   5.401  0.1466 -1.0701  0.2828
   11CHL1  H27C  814   2.980   2.243   5.230 -2.7737  0.7208  1.4583
   12CHL1    C3  815   6.371   2.054   6.650 -0.2160 -0.3067 -0.2028
   12CHL1    H3  816   6.307   2.144   6.660 -1.0745 -0.8841 -0.4099
   12CHL1    O3  817   6.418   2.023   6.781 -0.0334 -0.1125 -0.4761
   12CHL1   H3'  818   6.368   1.945   6.806 -0.7295 -0.4992 -2.8027
   12CHL1    C4  819   6.281   1.940   6.589 -0.0305  0.9744 -0.5762
   12CHL1   H4A  820   6.353   1.855   6.582 -2.0781 -0.8155 -1.0493
   12CHL1   H4B  821   6.211   1.920   6.672  2.2872  2.5694  1.9282
   12CHL1    C5  822   6.228   1.963   6.450  0.5002 -0.4929 -0.5400
   12CHL1    C6  823   6.092   1.963   6.431 -0.0763 -0.7438  0.1884
   12CHL1    H6  824   6.023   1.926   6.508 -0.1568  0.6488  0.8278
   12CHL1    C7  825   6.037   1.977   6.290  0.1985 -0.2445 -0.8470
   12CHL1   H7A  826   5.972   1.890   6.266 -0.1037 -0.0296 -0.8063
   12CHL1   H7B  827   5.981   2.073   6.283 -1.7357 -0.9599  2.5740
   12CHL1    C8  828   6.145   1.977   6.183  0.0835  0.6639 -0.0683
   12CHL1    H8  829   6.179   1.873   6.163 -0.0806  0.8353 -1.3754
   12CHL1   C14  830   6.090   2.031   6.048 -0.7454  0.2563 -0.2343
   12CHL1   H14  831   6.054   2.134   6.070  0.5300  0.7165 -0.1779
   12CHL1   C15  832   5.968   1.957   5.993  0.3152  0.3818 -0.3832
   12CHL1  H15A  833   5.993   1.850   5.978  1.0360  0.6034 -0.8518
   12CHL1  H15B  834   5.877   1.956   6.057 -0.0046 -3.2121 -0.6569
   12CHL1   C16  835   5.962   2.018   5.848  0.3226 -0.4703 -0.8093
   12CHL1  H16A  836   5.960   1.933   5.776  0.7893 -0.3742 -0.9393
   12CHL1  H16B  837   5.870   2.075   5.827  1.5725  2.0731  0.1771
   12CHL1   C17  838   6.090   2.097   5.823 -0.8701  0.1255  0.5394
   12CHL1   H17  839   6.062   2.199   5.857  0.5050  0.3643  1.0117
   12CHL1   C13  840   6.190   2.052   5.935 -0.0057 -0.6151 -0.4853
   12CHL1   C18  841   6.249   1.911   5.889 -0.0350 -0.6044 -0.8352
   12CHL1  H18A  842   6.168   1.844   5.853 -0.1967 -1.5491  1.1894
   12CHL1  H18B  843   6.335   1.916   5.819 -0.2192  2.0828 -0.9604
   12CHL1  H18C  844   6.283   1.867   5.985 -0.4027  2.6565  0.9174
   12CHL1   C12  845   6.302   2.145   5.976 -0.3389  0.3458 -0.1744
   12CHL1  H12A  846   6.376   2.167   5.897 -0.7691  1.7798 -0.2050
   12CHL1  H12B  847   6.253   2.244   5.989  0.2047  0.7916 -1.3712
   12CHL1   C11  848   6.374   2.097   6.100  0.2899  0.1932 -0.4619
   12CHL1  H11A  849   6.417   2.001   6.065 -1.7905 -0.8383 -0.3364
   12CHL1  H11B  850   6.439   2.176   6.144 -1.0422  0.2674  1.5008
   12CHL1    C9  851   6.272   2.062   6.215  0.2608 -0.3094  0.2511
   12CHL1    H9  852   6.236   2.165   6.233 -0.6290 -0.0598 -2.5485
   12CHL1   C10  853   6.334   2.011   6.348 -0.2308  0.5297  0.2347
   12CHL1   C19  854   6.421   1.881   6.304 -0.2274 -0.4671 -0.4832
   12CHL1  H19A  855   6.506   1.910   6.239  0.3241 -0.5158  0.2162
   12CHL1  H19B  856   6.459   1.827   6.393 -0.2302  0.4261  0.0730
   12CHL1  H19C  857   6.362   1.807   6.246  1.1702 -0.8343 -1.4740
   12CHL1    C1  858   6.424   2.123   6.414  0.3589 -0.5437  1.5969
   12CHL1   H1A  859   6.502   2.150   6.340  0.4865  0.3542  2.0353
   12CHL1   H1B  860   6.380   2.226   6.417  2.3082  0.5153 -1.5648
   12CHL1    C2  861   6.482   2.088   6.547 -0.5915  0.4593 -0.2643
   12CHL1   H2A  862   6.536   2.180   6.579  1.2701 -0.2650 -1.1590
   12CHL1   H2B  863   6.550   2.001   6.532 -0.6952  0.2796  0.2872
   12CHL1   C20  864   6.137   2.099   5.675  0.5013 -0.2327  0.5332
   12CHL1   H20  865   6.165   1.993   5.657  0.0922 -0.6984  2.4048
   12CHL1   C21  866   6.260   2.182   5.654 -0.4880 -0.0450 -0.5532
   12CHL1  H21A  867   6.268   2.193   5.544 -2.9843  0.7428 -0.7109
   12CHL1  H21B  868   6.353   2.130   5.685 -1.1394 -0.2651  1.1644
   12CHL1  H21C  869   6.244   2.282   5.700  0.2957  0.2029 -0.8063
   12CHL1   C22  870   6.024   2.137   5.573  0.9583 -0.0146  0.1180
   12CHL1  H22A  871   6.064   2.120   5.471  0.3802  0.0496 -0.1197
   12CHL1  H22B  872   5.943   2.063   5.589  2.3342 -1.2290  2.0196
   12CHL1   C23  873   5.953   2.274   5.584 -0.2435 -0.0136 -0.2511
   12CHL1  H23A  874   5.893   2.288   5.677  1.9466  0.5340  1.1425
   12CHL1  H23B  875   6.028   2.356   5.588 -1.2344  1.0572 -2.1548
   12CHL1   C24  876   5.878   2.309   5.457 -0.3042 -0.0948  0.2655
   12CHL1  H24A  877   5.948   2.296   5.372 -1.3725  0.4473 -0.7234
   12CHL1  H24B  878   5.791   2.243   5.436  0.0108  0.1921 -2.2264
   12CHL1   C25  879   5.838   2.456   5.464 -0.4711  0.1341  0.4619
   12CHL1   H25  880   5.915   2.530   5.493 -0.5248  0.2158  0.3969
   12CHL1   C26  881   5.791   2.497   5.324  0.0319  0.1985 -0.8133
   12CHL1  H26A  882   5.703   2.438   5.288 -3.0774  4.2821 -0.6492
   12CHL1  H26B  883   5.752   2.601   5.324 -1.9628 -0.4943 -0.8016
   12CHL1  H26C  884   5.873   2.486   5.250 -0.4676  0.5569 -1.4411
   12CHL1   C27  885   5.725   2.477   5.565  0.0315  0.4720  0.1009
   12CHL1  H27A  886   5.699   2.585   5.572  2.4986  1.3404 -2.5630
   12CHL1  H27B  887   5.636   2.415   5.541  1.7650 -2.9490  1.7876
   12CHL1  H27C  888   5.754   2.448   5.668  1.6497  0.3059 -0.3772
   13CHL1    C3  889   5.910   2.584   6.974  0.3340  0.2761  0.7158
   13CHL1    H3  890   5.820   2.520   6.955 -0.1836  0.6858  1.6978
   13CHL1    O3  891   5.902   2.608   7.113 -0.1907  0.1383  0.2079
   13CHL1   H3'  892   5.816   2.593   7.151  0.5399 -0.6844  1.6418
   13CHL1    C4  893   6.032   2.508   6.928  0.7572  0.4166 -0.0691
   13CHL1   H4A  894   6.103   2.571   6.985 -0.0666  1.4738 -0.1781
   13CHL1   H4B  895   6.027   2.405   6.970 -2.3340  0.5071  0.0438
   13CHL1    C5  896   6.042   2.511   6.778  0.0335 -0.0377  0.1866
   13CHL1    C6  897   6.070   2.400   6.717  0.4193 -0.0059  0.4395
   13CHL1    H6  898   6.078   2.307   6.775 -0.9498  0.9908  2.3585
   13CHL1    C7  899   6.077   2.393   6.566 -0.0458 -0.4552  0.2568
   13CHL1   H7A  900   6.176   2.347   6.546  1.3931  1.7734  1.7523
   13CHL1   H7B  901   5.994   2.337   6.519  0.1256 -1.3303  0.9719
   13CHL1    C8  902   6.098   2.529   6.502  0.4681 -0.4028  0.2501
   13CHL1    H8  903   6.205   2.551   6.524 -0.0720 -0.7569  3.9723
   13CHL1   C14  904   6.070   2.528   6.356 -0.0955  0.1643  0.3966
   13CHL1   H14  905   5.963   2.501   6.345  0.1885 -0.1633 -2.2088
   13CHL1   C15  906   6.152   2.420   6.279  0.0797  0.4651 -0.4307
   13CHL1  H15A  907   6.249   2.420   6.334  0.4373  1.3018 -1.0385
   13CHL1  H15B  908   6.101   2.321   6.282  0.3613  0.1327 -3.1848
   13CHL1   C16  909   6.151   2.469   6.136  0.3277 -0.4023  0.7878
   13CHL1  H16A  910   6.255   2.480   6.097 -0.5241 -1.1743 -1.9037
   13CHL1  H16B  911   6.097   2.411   6.059  0.4506  1.6377 -0.9261
   13CHL1   C17  912   6.079   2.609   6.140 -0.4796  0.1843 -0.0233
   13CHL1   H17  913   5.972   2.582   6.123 -0.4211  0.0044 -0.1182
   13CHL1   C13  914   6.093   2.652   6.282  0.0362 -0.2686 -0.4635
   13CHL1   C18  915   6.237   2.712   6.309 -0.3902  0.1542  0.3067
   13CHL1  H18A  916   6.253   2.811   6.261  2.0003 -0.1312  0.3760
   13CHL1  H18B  917   6.256   2.723   6.418 -0.2046 -1.4489  0.4603
   13CHL1  H18C  918   6.315   2.641   6.276 -0.0271  0.0789  1.2870
   13CHL1   C12  919   5.988   2.750   6.334  0.3175  0.7817 -0.0207
   13CHL1  H12A  920   5.992   2.844   6.275 -0.0660 -0.9460 -3.0427
   13CHL1  H12B  921   5.889   2.706   6.310  0.2496  0.4781  0.7811
   13CHL1   C11  922   6.002   2.773   6.483  0.1073  0.4924  0.6880
   13CHL1  H11A  923   6.096   2.831   6.496  1.4044 -1.5910  1.0326
   13CHL1  H11B  924   5.925   2.843   6.523  0.8564  0.8960  1.4635
   13CHL1    C9  925   6.000   2.639   6.556 -0.0833  0.5638  0.0748
   13CHL1    H9  926   5.903   2.587   6.542  0.4735 -1.0559  1.7963
   13CHL1   C10  927   6.011   2.644   6.705 -0.0219  0.9287  0.1402
   13CHL1   C19  928   6.120   2.744   6.747  0.4286 -0.0902  0.7859
   13CHL1  H19A  929   6.156   2.739   6.852 -1.2917  0.9948  1.4715
   13CHL1  H19B  930   6.208   2.722   6.683 -0.9346  1.1495 -1.6745
   13CHL1  H19C  931   6.087   2.850   6.738 -0.6838 -0.5413 -0.7915
   13CHL1    C1  932   5.881   2.689   6.753 -0.3834 -0.2306 -0.0780
   13CHL1   H1A  933   5.840   2.783   6.711 -1.3472 -0.7970 -0.4414
   13CHL1   H1B  934   5.800   2.616   6.731 -0.7902 -0.3850  1.8043
   13CHL1    C2  935   5.883   2.717   6.904 -0.3548  0.7315 -0.3809
   13CHL1   H2A  936   5.779   2.738   6.938 -0.1398  0.0533  0.7122
   13CHL1   H2B  937   5.948   2.804   6.926 -1.1224  0.6870  2.4069
   13CHL1   C20  938   6.106   2.719   6.035 -0.1235 -0.2404  0.0764
   13CHL1   H20  939   6.065   2.818   6.066 -0.9661 -0.4690 -0.2828
   13CHL1   C21  940   6.010   2.677   5.910 -0.0376  0.6102 -1.0319
   13CHL1  H21A  941   6.019   2.764   5.841  1.2585  2.0804  0.8731
   13CHL1  H21B  942   5.903   2.672   5.937  0.2463  1.8515  0.4390
   13CHL1  H21C  943   6.039   2.580   5.864 -0.8998  0.7130 -1.8269
   13CHL1   C22  944   6.247   2.736   5.977  0.1889  0.2618 -0.2603
   13CHL1  H22A  945   6.310   2.762   6.065  1.8052 -1.1758 -0.9447
   13CHL1  H22B  946   6.276   2.638   5.933 -1.9904  0.7741 -3.1205
   13CHL1   C23  947   6.272   2.845   5.878  0.6702  0.6147 -0.5282
   13CHL1  H23A  948   6.207   2.839   5.788 -1.2896  0.2085  0.8572
   13CHL1  H23B  949   6.265   2.950   5.914 -1.5581  1.1433 -2.2729
   13CHL1   C24  950   6.421   2.825   5.826 -0.8189 -0.3728  0.5512
   13CHL1  H24A  951   6.472   2.863   5.917  0.5824  0.0445 -0.3679
   13CHL1  H24B  952   6.442   2.717   5.810 -2.8685 -0.6754 -0.3754
   13CHL1   C25  953   6.464   2.905   5.699 -0.8349  0.3469  0.1657
   13CHL1   H25  954   6.431   3.009   5.715  0.9244  1.0365 -0.4233
   13CHL1   C26  955   6.625   2.905   5.692  0.1703 -0.3861  0.4532
   13CHL1  H26A  956   6.656   2.800   5.714 -0.5968 -0.4624  1.2279
   13CHL1  H26B  957   6.661   2.937   5.593  0.3631  0.3074  0.7405
   13CHL1  H26C  958   6.659   2.969   5.776 -0.0887 -1.0938  1.1191
   13CHL1   C27  959   6.397   2.850   5.574  0.1646 -0.3318 -0.3813
   13CHL1  H27A  960   6.442   2.754   5.542  0.2401 -0.0269 -1.1964
   13CHL1  H27B  961   6.286   2.849   5.581  0.2426 -1.8990  1.7930
   13CHL1  H27C  962   6.420   2.916   5.488 -0.6995  0.2969 -0.1420
   14CHL1    C3  963   3.753   0.953   6.905 -0.3307  0.0442 -0.2844
   14CHL1    H3  964   3.647   0.939   6.873 -0.2907 -1.3851  0.1398
   14CHL1    O3  965   3.763   0.938   7.045  0.0759  0.0129 -0.4784
   14CHL1   H3'  966   3.719   1.012   7.088 -1.6898 -0.8200 -0.7413
   14CHL1    C4  967   3.831   0.834   6.842 -0.0619 -0.2833 -0.7542
   14CHL1   H4A  968   3.933   0.831   6.885 -0.4713 -0.5819  0.2284
   14CHL1   H4B  969   3.777   0.742   6.872 -3.6028  1.6813 -0.4887
   14CHL1    C5  970   3.835   0.854   6.692  0.4244  0.1123 -0.7573
   14CHL1    C6  971   3.798   0.762   6.603 -0.4884  0.1502  0.4162
   14CHL1    H6  972   3.760   0.666   6.640  0.0852 -0.9282 -1.6643
   14CHL1    C7  973   3.809   0.768   6.455 -0.8416 -0.1988  0.3322
   14CHL1   H7A  974   3.860   0.683   6.405 -0.7833 -0.0283  0.0998
   14CHL1   H7B  975   3.708   0.778   6.409  0.1579 -0.7296 -2.1890
   14CHL1    C8  976   3.886   0.893   6.409  0.1999 -0.5184  0.2567
   14CHL1    H8  977   3.994   0.868   6.417  0.6558  1.0565 -0.5212
   14CHL1   C14  978   3.847   0.923   6.261 -1.0317  0.3697  0.3217
   14CHL1   H14  979   3.740   0.954   6.270 -0.8611  1.7126 -1.7363
   14CHL1   C15  980   3.852   0.813   6.162  0.5412 -0.4498 -0.8636
   14CHL1  H15A  981   3.949   0.762   6.180  1.0816  0.8006 -0.0857
   14CHL1  H15B  982   3.770   0.739   6.170 -0.3980  0.5515 -0.8882
   14CHL1   C16  983   3.840   0.889   6.031  0.2191 -0.1233 -0.2288
   14CHL1  H16A  984   3.927   0.855   5.970  0.9571  1.0926  0.0988
   14CHL1  H16B  985   3.740   0.865   5.991 -0.7531 -0.3024  2.1568
   14CHL1   C17  986   3.856   1.038   6.062  0.3754  0.0932  0.1702
   14CHL1   H17  987   3.753   1.077   6.072 -0.0858 -1.1112  0.2415
   14CHL1   C13  988   3.919   1.039   6.195 -0.3620 -0.1713 -0.0916
   14CHL1   C18  989   4.076   1.005   6.176  0.1519  0.3662  0.5744
   14CHL1  H18A  990   4.099   0.903   6.140  0.1261  0.0414  1.4531
   14CHL1  H18B  991   4.120   1.086   6.114 -0.2012 -0.1020 -0.3008
   14CHL1  H18C  992   4.131   1.012   6.273  0.0071 -0.7084  0.7461
   14CHL1   C12  993   3.895   1.168   6.285 -0.1648 -0.4138  0.9586
   14CHL1  H12A  994   3.957   1.256   6.257  0.9438 -1.6406 -0.6391
   14CHL1  H12B  995   3.790   1.200   6.273 -0.4208 -1.7505 -0.7716
   14CHL1   C11  996   3.930   1.136   6.430  0.0785 -0.1538 -0.4351
   14CHL1  H11A  997   4.041   1.122   6.433  0.2371  1.1739  1.4588
   14CHL1  H11B  998   3.918   1.231   6.485 -0.2572 -0.1473 -0.5199
   14CHL1    C9  999   3.858   1.014   6.489 -0.7963 -0.4712 -0.4990
   14CHL1    H9 1000   3.752   1.043   6.471 -0.4640  0.5933 -0.8119
   14CHL1   C10 1001   3.881   0.992   6.644  0.2734 -0.1699  0.5097
   14CHL1   C19 1002   4.037   1.007   6.664 -0.6520 -0.0730  0.2954
   14CHL1  H19A 1003   4.079   1.107   6.638  1.0128 -0.6214  0.7939
   14CHL1  H19B 1004   4.070   0.992   6.769 -0.6402  0.4595  0.3727
   14CHL1  H19C 1005   4.085   0.931   6.599 -1.7604 -0.9479  0.4727
   14CHL1    C1 1006   3.802   1.109   6.717  0.0247 -0.2032  0.1617
   14CHL1   H1A 1007   3.844   1.208   6.690  2.8862 -1.1691  0.6427
   14CHL1   H1B 1008   3.695   1.105   6.687 -0.1188 -0.2440  0.6649
   14CHL1    C2 1009   3.803   1.089   6.867  0.2258  0.1652 -0.0141
   14CHL1   H2A 1010   3.740   1.155   6.931  1.1647  0.6666  0.4053
   14CHL1   H2B 1011   3.903   1.108   6.910  0.2504 -0.0486  0.0223
   14CHL1   C20 1012   3.913   1.114   5.934  0.9485 -0.6426 -0.2192
   14CHL1   H20 1013   4.006   1.061   5.905  0.2052 -2.2474  0.2054
   14CHL1   C21 1014   3.935   1.264   5.964  0.2769  0.0993  0.1183
   14CHL1  H21A 1015   3.838   1.307   5.996  0.1977 -0.2530  0.3623
   14CHL1  H21B 1016   3.979   1.316   5.877  0.8464  2.5878  1.7994
   14CHL1  H21C 1017   4.004   1.269   6.050  1.9972 -2.7892 -0.9365
   14CHL1   C22 1018   3.820   1.106   5.813 -0.1471  0.3831 -0.0170
   14CHL1  H22A 1019   3.786   1.001   5.799  0.2621  0.0648  1.2017
   14CHL1  H22B 1020   3.733   1.167   5.846 -1.9391 -0.7840 -2.2894
   14CHL1   C23 1021   3.866   1.174   5.678 -1.3093 -0.2747  0.0164
   14CHL1  H23A 1022   3.886   1.283   5.683  1.2324 -0.6687  0.0808
   14CHL1  H23B 1023   3.965   1.133   5.647 -0.7326  1.3584 -0.3969
   14CHL1   C24 1024   3.765   1.140   5.564  0.3435 -0.0109 -0.0203
   14CHL1  H24A 1025   3.739   1.032   5.565  1.3111 -0.2668 -0.7870
   14CHL1  H24B 1026   3.672   1.199   5.580  0.6336  1.9916 -4.2535
   14CHL1   C25 1027   3.816   1.183   5.431  0.9733 -0.0899  0.0784
   14CHL1   H25 1028   3.739   1.188   5.351  0.7698  1.1730  0.3321
   14CHL1   C26 1029   3.872   1.329   5.430  0.0617  0.2297  0.3812
   14CHL1  H26A 1030   3.788   1.388   5.473 -1.0049  0.1888 -1.5403
   14CHL1  H26B 1031   3.963   1.343   5.494  1.5562  1.5791 -1.9088
   14CHL1  H26C 1032   3.895   1.361   5.326  1.6199 -2.5998 -0.2446
   14CHL1   C27 1033   3.933   1.095   5.387 -0.2267 -0.3809  0.5685
   14CHL1  H27A 1034   3.957   1.114   5.280  0.7446  1.3584  1.0555
   14CHL1  H27B 1035   4.023   1.128   5.442  1.8207 -2.9160 -1.0168
   14CHL1  H27C 1036   3.920   0.986   5.403  1.3431 -0.8827 -1.1524
   15CHL1    C3 1037   4.434   0.353   6.610 -0.5162 -0.2032  0.1237
   15CHL1    H3 1038   4.332   0.396   6.601 -0.2285  0.5350  0.3299
   15CHL1    O3 1039   4.453   0.320   6.748  0.6004  0.2684 -0.0764
   15CHL1   H3' 1040   4.537   0.274   6.755  0.4154 -0.1394 -0.4915
   15CHL1    C4 1041   4.436   0.219   6.531 -0.1817  0.4458 -0.5923
   15CHL1   H4A 1042   4.521   0.161   6.572 -1.5632 -0.1929  1.5505
   15CHL1   H4B 1043   4.351   0.158   6.568  1.9496 -2.4151 -0.0909
   15CHL1    C5 1044   4.445   0.241   6.384 -0.2148 -0.0253 -0.0746
   15CHL1    C6 1045   4.355   0.167   6.313 -0.1465 -0.1337  0.4080
   15CHL1    H6 1046   4.294   0.091   6.365  0.2377  0.0947  1.2197
   15CHL1    C7 1047   4.351   0.169   6.160  0.0405  0.2297  0.4569
   15CHL1   H7A 1048   4.327   0.070   6.116  1.1956 -0.0371  0.3912
   15CHL1   H7B 1049   4.253   0.215   6.135 -0.7732 -0.3158  2.3954
   15CHL1    C8 1050   4.467   0.248   6.095  0.4411  0.6161 -0.7190
   15CHL1    H8 1051   4.559   0.187   6.090 -0.1950 -0.4063 -0.2461
   15CHL1   C14 1052   4.434   0.289   5.948 -0.3390  0.3863  0.9522
   15CHL1   H14 1053   4.343   0.350   5.964 -1.5577 -1.4224  1.2494
   15CHL1   C15 1054   4.394   0.178   5.851 -0.9435 -0.6173  0.4470
   15CHL1  H15A 1055   4.472   0.099   5.844  1.6885  2.0025 -2.1054
   15CHL1  H15B 1056   4.301   0.128   5.888 -0.9025 -0.8104  0.2914
   15CHL1   C16 1057   4.377   0.261   5.724 -0.7639  0.0871 -0.2049
   15CHL1  H16A 1058   4.421   0.198   5.643  0.5724 -0.6928  1.0842
   15CHL1  H16B 1059   4.272   0.280   5.693  0.1556  1.2835 -2.8996
   15CHL1   C17 1060   4.455   0.396   5.740 -0.3234  0.6914 -0.3284
   15CHL1   H17 1061   4.373   0.469   5.751  0.6017  1.7108 -0.0661
   15CHL1   C13 1062   4.537   0.374   5.876  0.5014  0.1458  0.6158
   15CHL1   C18 1063   4.675   0.304   5.845  0.5414 -0.0217 -1.1090
   15CHL1  H18A 1064   4.711   0.254   5.938 -2.4093 -0.4979 -0.1030
   15CHL1  H18B 1065   4.658   0.220   5.774  1.8778 -2.8965  1.7077
   15CHL1  H18C 1066   4.744   0.380   5.804 -1.0072  0.7224 -2.4546
   15CHL1   C12 1067   4.563   0.504   5.957  0.3261  0.6454  0.0874
   15CHL1  H12A 1068   4.636   0.572   5.907  1.3168 -1.3718 -1.3370
   15CHL1  H12B 1069   4.462   0.550   5.957 -0.3836 -0.7949 -1.3206
   15CHL1   C11 1070   4.613   0.464   6.100 -0.8897 -0.2822  0.4590
   15CHL1  H11A 1071   4.709   0.413   6.082 -0.0376  0.5524  2.3408
   15CHL1  H11B 1072   4.640   0.558   6.153  1.4234 -1.7215  2.0293
   15CHL1    C9 1073   4.502   0.377   6.174 -0.2116 -0.4755  0.5574
   15CHL1    H9 1074   4.412   0.441   6.180  0.6304  0.6563  1.5013
   15CHL1   C10 1075   4.536   0.345   6.320  0.2007 -0.5106 -0.3253
   15CHL1   C19 1076   4.679   0.285   6.338 -0.1087 -0.1358  0.4689
   15CHL1  H19A 1077   4.759   0.354   6.306  0.7883 -0.5963  1.6530
   15CHL1  H19B 1078   4.683   0.248   6.443 -2.9344 -1.4347  0.2313
   15CHL1  H19C 1079   4.694   0.204   6.264  0.4261  0.6406 -0.2836
   15CHL1    C1 1080   4.530   0.477   6.408  0.1813 -0.1845  0.1623
   15CHL1   H1A 1081   4.615   0.546   6.386 -0.5858  0.4258 -0.9646
   15CHL1   H1B 1082   4.434   0.518   6.372 -0.6120 -3.4413 -1.9183
   15CHL1    C2 1083   4.528   0.466   6.565 -1.0597  0.2462  0.0190
   15CHL1   H2A 1084   4.488   0.563   6.600  0.4930  1.7067 -1.9811
   15CHL1   H2B 1085   4.631   0.453   6.606 -1.3777  1.8270  1.4388
   15CHL1   C20 1086   4.534   0.448   5.622  0.5708 -0.5930 -0.0237
   15CHL1   H20 1087   4.616   0.378   5.595 -0.0668 -1.8210  1.1380
   15CHL1   C21 1088   4.600   0.590   5.632 -0.0112  0.5236  0.3146
   15CHL1  H21A 1089   4.529   0.656   5.686 -3.7010 -1.2713 -1.8928
   15CHL1  H21B 1090   4.613   0.633   5.530 -0.1830  2.5618  1.1146
   15CHL1  H21C 1091   4.701   0.599   5.677  0.9916  3.3673 -2.1605
   15CHL1   C22 1092   4.455   0.436   5.488  0.3147 -0.4982  0.1084
   15CHL1  H22A 1093   4.520   0.490   5.416 -1.8779  1.4442 -0.5436
   15CHL1  H22B 1094   4.445   0.330   5.454  3.6370 -0.5011 -1.2240
   15CHL1   C23 1095   4.311   0.504   5.486 -0.1226  0.0148 -0.0938
   15CHL1  H23A 1096   4.239   0.459   5.557  1.1501  1.4701  2.2611
   15CHL1  H23B 1097   4.324   0.607   5.527 -2.0266 -0.3331  1.5999
   15CHL1   C24 1098   4.244   0.495   5.344  0.2685 -0.0749 -0.0125
   15CHL1  H24A 1099   4.148   0.551   5.354 -0.6154 -1.1159 -2.0443
   15CHL1  H24B 1100   4.309   0.563   5.285 -0.3972  2.0501  1.5663
   15CHL1   C25 1101   4.224   0.358   5.280 -0.3998 -0.0789 -0.5604
   15CHL1   H25 1102   4.321   0.311   5.255  0.3888  1.2174 -0.0021
   15CHL1   C26 1103   4.155   0.265   5.382 -0.7727 -0.1518 -0.7350
   15CHL1  H26A 1104   4.221   0.245   5.469 -0.9125  0.3047 -0.5256
   15CHL1  H26B 1105   4.052   0.300   5.404 -0.6078 -1.2129  2.0337
   15CHL1  H26C 1106   4.140   0.163   5.340 -0.7935 -0.8431  0.8808
   15CHL1   C27 1107   4.142   0.370   5.155  0.7225  0.1526  0.2127
   15CHL1  H27A 1108   4.180   0.437   5.075 -2.5063  1.5327 -0.3441
   15CHL1  H27B 1109   4.113   0.274   5.109  1.7279  0.6404 -1.5317
   15CHL1  H27C 1110   4.042   0.413   5.180  0.6273  0.9753 -1.4470
   16CHL1    C3 1111   1.745   5.364   6.873  0.5665 -0.4302 -0.6081
   16CHL1    H3 1112   1.752   5.465   6.827  0.9597  0.4485  1.2624
   16CHL1    O3 1113   1.715   5.379   7.018  0.4947 -0.2431  1.1417
   16CHL1   H3' 1114   1.797   5.350   7.057  1.5096  0.1839 -0.5787
   16CHL1    C4 1115   1.631   5.281   6.822 -0.0013  0.2377 -0.9178
   16CHL1   H4A 1116   1.638   5.184   6.875 -0.0152  1.3876  1.3101
   16CHL1   H4B 1117   1.534   5.329   6.850 -0.3926 -0.2758 -1.3692
   16CHL1    C5 1118   1.651   5.258   6.674 -0.0653 -0.0979  0.5293
   16CHL1    C6 1119   1.558   5.300   6.589 -0.4224  0.7141  0.7928
   16CHL1    H6 1120   1.461   5.329   6.630 -1.1253  0.5758 -0.7080
   16CHL1    C7 1121   1.563   5.280   6.445 -0.9395  0.0603  0.3358
   16CHL1   H7A 1122   1.470   5.233   6.406 -0.1011 -0.2944 -1.3101
   16CHL1   H7B 1123   1.571   5.380   6.397  0.9566 -0.3713 -0.3171
   16CHL1    C8 1124   1.687   5.191   6.397 -0.1326  0.1933 -0.4366
   16CHL1    H8 1125   1.659   5.084   6.407  0.9031 -0.0154  0.4162
   16CHL1   C14 1126   1.727   5.224   6.245  0.6292  0.1775  0.2585
   16CHL1   H14 1127   1.769   5.327   6.243  0.8384  0.1272  1.4274
   16CHL1   C15 1128   1.610   5.232   6.144  0.4988 -0.0238 -0.1604
   16CHL1  H15A 1129   1.541   5.145   6.153  0.1067  0.4802  2.4325
   16CHL1  H15B 1130   1.546   5.323   6.152  2.5483  1.5281 -0.5736
   16CHL1   C16 1131   1.687   5.217   6.010 -0.1096  0.4831  0.0649
   16CHL1  H16A 1132   1.636   5.133   5.958  0.3827  0.7638 -0.9071
   16CHL1  H16B 1133   1.685   5.305   5.942  1.4252 -0.6415 -1.5216
   16CHL1   C17 1134   1.838   5.178   6.039 -0.1821 -0.2218  0.4274
   16CHL1   H17 1135   1.901   5.269   6.044 -0.7867  0.2048  0.3455
   16CHL1   C13 1136   1.837   5.134   6.192  0.2675 -1.0208 -0.1290
   16CHL1   C18 1137   1.798   4.986   6.184 -0.4536  0.0189 -0.3518
   16CHL1  H18A 1138   1.891   4.934   6.153  0.6629  1.2325  0.7679
   16CHL1  H18B 1139   1.773   4.946   6.285 -0.0725 -0.6667 -0.5234
   16CHL1  H18C 1140   1.710   4.985   6.116 -1.2712  1.0387  0.6366
   16CHL1   C12 1141   1.962   5.166   6.283  0.5062  0.2930  0.0918
   16CHL1  H12A 1142   2.043   5.100   6.245 -1.4766 -1.2857 -1.6331
   16CHL1  H12B 1143   1.983   5.275   6.272 -3.3877  1.1897 -0.0714
   16CHL1   C11 1144   1.932   5.137   6.429  0.2380 -0.5820  0.3247
   16CHL1  H11A 1145   1.916   5.027   6.433  1.4644 -0.9517 -2.6030
   16CHL1  H11B 1146   2.021   5.149   6.494  0.5666  2.2112 -0.4970
   16CHL1    C9 1147   1.809   5.215   6.486 -0.1545  0.3253  0.0342
   16CHL1    H9 1148   1.830   5.323   6.467 -1.9133  1.2032  2.4752
   16CHL1   C10 1149   1.786   5.198   6.637 -0.2387  0.4929 -0.2875
   16CHL1   C19 1150   1.790   5.044   6.672  0.2116 -0.4477 -0.2585
   16CHL1  H19A 1151   1.769   5.029   6.780 -1.3925 -0.9985 -0.6077
   16CHL1  H19B 1152   1.710   4.992   6.614 -1.2058  1.7033 -0.3507
   16CHL1  H19C 1153   1.889   4.999   6.649  0.0099 -0.9501 -0.1538
   16CHL1    C1 1154   1.902   5.277   6.708 -0.2318  0.4009 -0.9574
   16CHL1   H1A 1155   1.984   5.203   6.699  0.2125  0.5419  1.3531
   16CHL1   H1B 1156   1.925   5.373   6.656  0.4245  1.3772  1.0079
   16CHL1    C2 1157   1.871   5.285   6.862 -0.0430 -0.2198 -0.3201
   16CHL1   H2A 1158   1.956   5.339   6.911  0.3350 -0.3948 -0.7751
   16CHL1   H2B 1159   1.865   5.185   6.911  0.9306  0.8815  2.2199
   16CHL1   C20 1160   1.895   5.098   5.932 -0.6988  0.9975  0.0069
   16CHL1   H20 1161   1.845   4.999   5.921  0.8909  0.2183 -0.5931
   16CHL1   C21 1162   2.038   5.063   5.962  0.0856 -0.9208  0.1350
   16CHL1  H21A 1163   2.093   5.013   5.880  1.7373  1.0010 -0.0108
   16CHL1  H21B 1164   2.046   4.998   6.052 -1.9679  1.2956  2.0463
   16CHL1  H21C 1165   2.098   5.152   5.988  1.1128 -1.1183 -1.4310
   16CHL1   C22 1166   1.892   5.169   5.794 -0.0502 -0.0574 -0.4338
   16CHL1  H22A 1167   1.789   5.205   5.776 -0.5635 -1.2927 -0.0778
   16CHL1  H22B 1168   1.970   5.249   5.800 -0.0951 -0.0794  0.6899
   16CHL1   C23 1169   1.931   5.079   5.668  0.3548 -0.0831  0.3688
   16CHL1  H23A 1170   2.024   5.117   5.619  0.7147 -3.6423 -2.0407
   16CHL1  H23B 1171   1.955   4.979   5.709 -1.9111 -0.0364  2.0064
   16CHL1   C24 1172   1.816   5.076   5.567 -0.7287 -0.5118 -0.7376
   16CHL1  H24A 1173   1.745   4.997   5.600 -1.9400  1.4946  1.8955
   16CHL1  H24B 1174   1.763   5.174   5.564 -0.1485 -0.2236 -2.6886
   16CHL1   C25 1175   1.857   5.029   5.425  0.3463 -0.6417 -0.6543
   16CHL1   H25 1176   1.923   5.108   5.382 -0.2605 -0.1707 -0.7240
   16CHL1   C26 1177   1.927   4.894   5.419  0.9727 -0.0061  0.0565
   16CHL1  H26A 1178   1.957   4.877   5.313  2.3631 -1.2232  0.6013
   16CHL1  H26B 1179   2.025   4.900   5.471  1.2156  0.3818 -0.4385
   16CHL1  H26C 1180   1.855   4.816   5.451 -0.6801  0.2697 -2.6768
   16CHL1   C27 1181   1.730   5.019   5.338 -0.1911 -0.0037 -0.4259
   16CHL1  H27A 1182   1.683   5.120   5.340  1.8207  0.9772 -0.1896
   16CHL1  H27B 1183   1.739   4.986   5.232 -0.1908  1.3188 -0.8560
   16CHL1  H27C 1184   1.663   4.952   5.396 -0.0133 -1.3288 -1.6957
   17CHL1    C3 1185   5.265   2.684   6.971  0.0370 -0.7455 -0.3233
   17CHL1    H3 1186   5.332   2.770   6.991 -0.6658 -0.1227 -0.6254
   17CHL1    O3 1187   5.219   2.639   7.097  0.7157 -0.3922  0.5207
   17CHL1   H3' 1188   5.184   2.718   7.137  0.5543 -0.1531 -0.0886
   17CHL1    C4 1189   5.147   2.743   6.890  0.2720  0.4936 -0.3130
   17CHL1   H4A 1190   5.079   2.656   6.876  2.5333 -1.3181 -0.5351
   17CHL1   H4B 1191   5.093   2.819   6.951  2.5155 -0.1905  2.7983
   17CHL1    C5 1192   5.182   2.794   6.757 -0.0393 -0.2953 -0.2733
   17CHL1    C6 1193   5.145   2.916   6.716  0.9663  0.3757 -0.1515
   17CHL1    H6 1194   5.078   2.977   6.778  0.4938  0.4022 -0.6858
   17CHL1    C7 1195   5.186   2.972   6.580  0.4354  0.1653  0.1570
   17CHL1   H7A 1196   5.104   3.024   6.526 -1.1507 -1.8367  0.4857
   17CHL1   H7B 1197   5.255   3.054   6.609 -2.9464  2.5231  2.3462
   17CHL1    C8 1198   5.257   2.875   6.479  0.0804 -0.7904  0.1616
   17CHL1    H8 1199   5.176   2.820   6.427  0.7149 -1.1481 -0.4672
   17CHL1   C14 1200   5.341   2.944   6.371 -1.0492  0.2608 -0.7300
   17CHL1   H14 1201   5.413   3.002   6.432 -3.0001  2.3743 -0.3107
   17CHL1   C15 1202   5.271   3.052   6.287 -0.2706 -0.2562 -0.7829
   17CHL1  H15A 1203   5.174   3.012   6.252 -0.9371 -0.4059  1.1379
   17CHL1  H15B 1204   5.258   3.140   6.353  0.9308 -1.9483  1.9113
   17CHL1   C16 1205   5.371   3.072   6.170 -0.0140  0.7009 -0.0747
   17CHL1  H16A 1206   5.321   3.091   6.073  0.2077  1.5479 -0.0372
   17CHL1  H16B 1207   5.439   3.154   6.204 -0.6553  1.3328 -0.2871
   17CHL1   C17 1208   5.467   2.947   6.166  0.4919  0.3406 -0.3019
   17CHL1   H17 1209   5.556   2.973   6.227 -0.4321  0.9859  0.8238
   17CHL1   C13 1210   5.402   2.845   6.270 -0.1606  0.6578 -0.1134
   17CHL1   C18 1211   5.289   2.755   6.203 -0.0322  0.4333  0.0099
   17CHL1  H18A 1212   5.219   2.698   6.267  1.7082 -0.3065  1.3615
   17CHL1  H18B 1213   5.223   2.821   6.143 -1.4724 -0.8019  0.1701
   17CHL1  H18C 1214   5.325   2.685   6.124 -0.6834  0.8844 -0.7071
   17CHL1   C12 1215   5.491   2.747   6.346 -0.5098 -0.7528  0.2211
   17CHL1  H12A 1216   5.536   2.666   6.285 -1.2708 -0.7319 -0.3912
   17CHL1  H12B 1217   5.581   2.805   6.375  0.2825 -1.6856 -0.2999
   17CHL1   C11 1218   5.430   2.676   6.466  0.3601  0.8298  0.2105
   17CHL1  H11A 1219   5.368   2.598   6.417 -0.3806 -0.5214  3.0774
   17CHL1  H11B 1220   5.513   2.622   6.516  1.3570  0.1764 -2.0220
   17CHL1    C9 1221   5.344   2.771   6.554  0.3514 -0.0056 -0.1912
   17CHL1    H9 1222   5.419   2.829   6.611 -1.6157  0.3279  2.2339
   17CHL1   C10 1223   5.265   2.696   6.669  0.1327  0.7429 -0.4507
   17CHL1   C19 1224   5.160   2.606   6.604  0.0003  0.0413  0.6265
   17CHL1  H19A 1225   5.124   2.536   6.683 -0.2853  0.3627  0.7905
   17CHL1  H19B 1226   5.081   2.672   6.562  0.0142 -0.2862  0.0812
   17CHL1  H19C 1227   5.186   2.550   6.513 -3.5288 -1.5915  0.4517
   17CHL1    C1 1228   5.366   2.617   6.752  0.0291  0.1715 -0.5845
   17CHL1   H1A 1229   5.396   2.524   6.699  0.0294  1.0769 -2.2410
   17CHL1   H1B 1230   5.458   2.676   6.770 -0.1564  0.0844  0.7659
   17CHL1    C2 1231   5.324   2.568   6.901  0.4432 -0.5797 -0.3593
   17CHL1   H2A 1232   5.415   2.524   6.948  2.0261  1.1219 -1.7092
   17CHL1   H2B 1233   5.251   2.484   6.902 -1.1868  0.7602  1.7940
   17CHL1   C20 1234   5.504   2.887   6.031 -0.1387  0.0965  1.4554
   17CHL1   H20 1235   5.419   2.843   5.977 -0.0388  1.6962 -0.0842
   17CHL1   C21 1236   5.610   2.777   6.042 -0.7201  0.1408  0.7195
   17CHL1  H21A 1237   5.683   2.799   6.123  0.1337  0.6333 -0.1694
   17CHL1  H21B 1238   5.668   2.765   5.948  0.0790 -0.7615  1.3137
   17CHL1  H21C 1239   5.566   2.676   6.058 -1.6023  0.0879 -1.6857
   17CHL1   C22 1240   5.552   2.997   5.924 -0.3469 -0.3955 -0.6283
   17CHL1  H22A 1241   5.492   3.087   5.951 -1.8308 -2.4026  3.7885
   17CHL1  H22B 1242   5.662   3.008   5.940 -0.3691 -2.2259  1.1692
   17CHL1   C23 1243   5.537   2.956   5.776  0.2826 -0.4460 -0.4176
   17CHL1  H23A 1244   5.590   2.859   5.764  2.3544  0.7282 -1.1880
   17CHL1  H23B 1245   5.428   2.945   5.756 -0.3322  0.4323  2.0667
   17CHL1   C24 1246   5.609   3.043   5.675  0.0642 -0.5385  0.6842
   17CHL1  H24A 1247   5.579   3.148   5.699  0.7654 -0.3908  0.9528
   17CHL1  H24B 1248   5.715   3.056   5.705 -0.2168  1.2502  1.0853
   17CHL1   C25 1249   5.591   3.012   5.529 -0.1498  0.0100  0.1707
   17CHL1   H25 1250   5.636   3.094   5.470 -1.3029 -0.5687 -1.5618
   17CHL1   C26 1251   5.667   2.882   5.488  0.0607  0.7810  1.0008
   17CHL1  H26A 1252   5.630   2.794   5.545 -1.9091  1.2009  0.4624
   17CHL1  H26B 1253   5.650   2.859   5.381 -3.9324 -1.3046  1.8682
   17CHL1  H26C 1254   5.770   2.896   5.526  0.1520 -0.3441  1.2029
   17CHL1   C27 1255   5.448   2.997   5.487 -0.3336 -0.1170 -0.8744
   17CHL1  H27A 1256   5.437   2.988   5.377 -1.5126  2.6456 -1.0762
   17CHL1  H27B 1257   5.386   2.920   5.537 -0.0870  1.3067  1.8343
   17CHL1  H27C 1258   5.400   3.097   5.495  0.8853  0.4381 -0.2390
   18CHL1    C3 1259   3.916   3.139   6.513 -0.2344 -0.0685 -0.5409
   18CHL1    H3 1260   3.861   3.233   6.494  1.0120  0.6488 -0.7300
   18CHL1    O3 1261   3.916   3.115   6.655  0.0057 -0.3281  0.0516
   18CHL1   H3' 1262   3.944   3.024   6.671  3.3981  0.2466 -1.6603
   18CHL1    C4 1263   3.835   3.026   6.441  0.2214 -0.2093  0.1589
   18CHL1   H4A 1264   3.881   2.929   6.469 -2.6045 -2.6399 -2.8078
   18CHL1   H4B 1265   3.738   3.010   6.493 -1.0144  0.5293 -1.7931
   18CHL1    C5 1266   3.819   3.033   6.291  0.1574  1.0900  0.3957
   18CHL1    C6 1267   3.700   3.049   6.234  0.5119  0.0029 -0.4764
   18CHL1    H6 1268   3.613   3.059   6.300  1.5520 -0.8008  1.0585
   18CHL1    C7 1269   3.685   3.052   6.086 -0.2056 -0.0859  0.3937
   18CHL1   H7A 1270   3.613   2.976   6.048  0.0513 -0.4807  0.6824
   18CHL1   H7B 1271   3.648   3.152   6.053 -0.9091  0.4618  2.6682
   18CHL1    C8 1272   3.818   3.022   6.011  0.0431 -0.0764  0.1958
   18CHL1    H8 1273   3.827   2.912   6.019 -1.3126 -0.1042  2.2640
   18CHL1   C14 1274   3.816   3.074   5.868 -0.0778  0.6475  0.0188
   18CHL1   H14 1275   3.826   3.184   5.881 -2.9402  1.1186 -0.9643
   18CHL1   C15 1276   3.689   3.057   5.786  0.3041 -0.1195  1.0359
   18CHL1  H15A 1277   3.658   2.951   5.793  0.5078 -0.2438  0.1776
   18CHL1  H15B 1278   3.610   3.130   5.812  0.9369  0.3457  1.6818
   18CHL1   C16 1279   3.729   3.098   5.642  0.1068  0.3661  0.0876
   18CHL1  H16A 1280   3.689   3.007   5.591  0.1131  0.7562 -0.6218
   18CHL1  H16B 1281   3.687   3.195   5.609  0.1185  0.2186 -0.3650
   18CHL1   C17 1282   3.883   3.106   5.639 -0.3026 -0.0909 -0.8081
   18CHL1   H17 1283   3.910   3.211   5.664  2.2562 -1.3345  2.4401
   18CHL1   C13 1284   3.936   3.035   5.772  0.0627 -0.2421 -0.5526
   18CHL1   C18 1285   3.937   2.876   5.759  0.1034 -0.3352  0.1535
   18CHL1  H18A 1286   3.946   2.830   5.860  1.5499 -0.3072  0.0542
   18CHL1  H18B 1287   3.839   2.841   5.719 -0.4318  1.1742  0.0927
   18CHL1  H18C 1288   4.025   2.852   5.696  1.1064  2.4184  0.3502
   18CHL1   C12 1289   4.060   3.094   5.842  0.5268  0.6410 -1.0340
   18CHL1  H12A 1290   4.147   3.054   5.786 -0.8473 -3.1963 -0.7154
   18CHL1  H12B 1291   4.063   3.205   5.835 -0.1841  0.7770  0.4143
   18CHL1   C11 1292   4.066   3.041   5.987  0.1308 -0.0520  0.3670
   18CHL1  H11A 1293   4.081   2.931   5.984  1.9371  0.1772 -0.3572
   18CHL1  H11B 1294   4.155   3.087   6.035  1.5772 -2.3087  0.0355
   18CHL1    C9 1295   3.948   3.078   6.073 -0.4903 -0.4164 -0.5620
   18CHL1    H9 1296   3.945   3.189   6.083 -0.7989 -0.5214  0.7434
   18CHL1   C10 1297   3.961   3.042   6.227 -0.1559  0.0420  0.0611
   18CHL1   C19 1298   4.029   2.902   6.240  0.1470 -0.1754 -0.0633
   18CHL1  H19A 1299   4.045   2.870   6.345  0.9577  1.4274  0.3378
   18CHL1  H19B 1300   3.967   2.831   6.180 -1.7672  2.1302 -1.0011
   18CHL1  H19C 1301   4.130   2.926   6.202 -0.2649 -0.2905 -1.2886
   18CHL1    C1 1302   4.050   3.147   6.298  0.4421  0.3390  0.4095
   18CHL1   H1A 1303   4.156   3.137   6.266 -0.1191  1.5909 -2.0495
   18CHL1   H1B 1304   4.014   3.248   6.270  1.6233  0.5023 -0.6264
   18CHL1    C2 1305   4.054   3.141   6.457 -0.4644 -0.4640  0.0532
   18CHL1   H2A 1306   4.111   3.231   6.486 -2.0407  0.6272 -0.1223
   18CHL1   H2B 1307   4.112   3.050   6.487 -0.8859 -0.8489 -0.2832
   18CHL1   C20 1308   3.943   3.064   5.504  0.0920  0.6061 -0.1941
   18CHL1   H20 1309   3.934   2.953   5.506 -1.0029  0.6933  0.9153
   18CHL1   C21 1310   4.089   3.113   5.510  0.1351  0.2334  0.2567
   18CHL1  H21A 1311   4.150   3.055   5.582 -2.5817 -1.5128  1.3052
   18CHL1  H21B 1312   4.104   3.217   5.545 -0.8607 -0.0405  1.5476
   18CHL1  H21C 1313   4.126   3.099   5.406  0.0664 -0.2234  0.2923
   18CHL1   C22 1314   3.881   3.118   5.377 -0.7231 -0.1085  0.0644
   18CHL1  H22A 1315   3.931   3.074   5.289  1.7557  1.3839  0.6279
   18CHL1  H22B 1316   3.778   3.076   5.379 -0.5021 -0.9090  3.8129
   18CHL1   C23 1317   3.872   3.268   5.351  0.2682 -0.1170 -0.8024
   18CHL1  H23A 1318   3.844   3.315   5.447  0.2822 -1.1748 -0.2591
   18CHL1  H23B 1319   3.972   3.310   5.324  0.4749 -1.3551 -2.1291
   18CHL1   C24 1320   3.765   3.306   5.242 -1.3103 -0.6225 -0.3448
   18CHL1  H24A 1321   3.759   3.234   5.159  1.1109  0.2066 -1.3286
   18CHL1  H24B 1322   3.665   3.303   5.290 -1.2698 -2.0810 -0.3282
   18CHL1   C25 1323   3.793   3.447   5.179  0.0426 -0.2389  0.2598
   18CHL1   H25 1324   3.854   3.432   5.087  0.2215  2.6906 -0.2050
   18CHL1   C26 1325   3.649   3.499   5.134 -0.2294 -0.1055 -0.4074
   18CHL1  H26A 1326   3.610   3.544   5.228  1.9490  2.2748 -0.5434
   18CHL1  H26B 1327   3.658   3.579   5.058  0.7792 -1.0349 -1.2959
   18CHL1  H26C 1328   3.586   3.415   5.098  0.9591 -0.2197 -2.3223
   18CHL1   C27 1329   3.855   3.557   5.263 -0.0587 -0.0573  0.5246
   18CHL1  H27A 1330   3.873   3.649   5.204 -1.0810  0.4049  0.8973
   18CHL1  H27B 1331   3.781   3.587   5.341 -0.8469 -2.0002  0.5866
   18CHL1  H27C 1332   3.954   3.527   5.303  0.1196 -2.2976 -1.3821
   19CHL1    C3 1333   2.923   3.018   7.012  0.3953 -0.1374  0.4769
   19CHL1    H3 1334   2.908   3.128   7.007 -1.5745 -0.4266 -0.9290
   19CHL1    O3 1335   2.941   2.974   7.147 -0.6112 -0.0589 -0.3815
   19CHL1   H3' 1336   2.914   2.882   7.145  4.8904 -2.0702 -1.1256
   19CHL1    C4 1337   2.797   2.942   6.973 -0.0402 -0.1662 -0.4795
   19CHL1   H4A 1338   2.804   2.833   6.990  1.9135 -0.2802 -1.6757
   19CHL1   H4B 1339   2.717   2.981   7.039  0.1703  0.3689 -0.5357
   19CHL1    C5 1340   2.766   2.955   6.828  0.5345 -0.1745  0.2115
   19CHL1    C6 1341   2.639   3.000   6.790 -0.1861 -0.6399  0.9109
   19CHL1    H6 1342   2.568   3.033   6.867 -0.1983 -0.1590  0.6985
   19CHL1    C7 1343   2.594   3.008   6.643 -0.3428 -0.3870  0.1665
   19CHL1   H7A 1344   2.490   2.983   6.614  0.1437  1.6252 -4.1833
   19CHL1   H7B 1345   2.613   3.111   6.604  0.0575 -0.1358  1.0021
   19CHL1    C8 1346   2.692   2.927   6.553 -0.2373  0.6987  0.1835
   19CHL1    H8 1347   2.676   2.819   6.572 -0.3595  0.2120 -2.4308
   19CHL1   C14 1348   2.665   2.964   6.408  0.2067  0.3469  0.3241
   19CHL1   H14 1349   2.690   3.072   6.400 -2.1066  0.8360 -1.4543
   19CHL1   C15 1350   2.514   2.951   6.355 -0.6397 -0.3566  0.0108
   19CHL1  H15A 1351   2.461   2.863   6.398 -0.6908  0.3163  1.3537
   19CHL1  H15B 1352   2.474   3.052   6.376  3.1589  1.0105  1.6420
   19CHL1   C16 1353   2.535   2.918   6.204 -0.0622 -0.4284  0.5941
   19CHL1  H16A 1354   2.493   2.818   6.184 -1.9862  0.3740  0.4316
   19CHL1  H16B 1355   2.482   2.990   6.138  2.4476  0.2846 -0.7599
   19CHL1   C17 1356   2.691   2.934   6.173  0.5576  0.6292  0.0096
   19CHL1   H17 1357   2.713   3.043   6.164 -0.0320  0.7561  0.0127
   19CHL1   C13 1358   2.755   2.888   6.310 -0.6260 -0.5480 -0.1392
   19CHL1   C18 1359   2.765   2.735   6.327 -0.1715  0.1689  0.2778
   19CHL1  H18A 1360   2.778   2.709   6.434 -0.4384 -3.5648 -0.4558
   19CHL1  H18B 1361   2.677   2.670   6.307  1.6100 -2.4932  0.7439
   19CHL1  H18C 1362   2.851   2.704   6.265  0.1921  0.8915  0.4153
   19CHL1   C12 1363   2.901   2.947   6.341  0.3386  0.0053  0.0942
   19CHL1  H12A 1364   2.984   2.906   6.279 -0.3238 -0.6090 -0.4023
   19CHL1  H12B 1365   2.898   3.057   6.326  2.4728  0.1728  0.6336
   19CHL1   C11 1366   2.939   2.912   6.484  0.7178 -0.1644 -0.9538
   19CHL1  H11A 1367   2.950   2.802   6.475 -2.9445 -0.8829  1.1419
   19CHL1  H11B 1368   3.042   2.950   6.497  0.9529 -0.7870 -0.9578
   19CHL1    C9 1369   2.837   2.961   6.586 -0.6201  0.2394 -0.7949
   19CHL1    H9 1370   2.843   3.072   6.584 -0.0624  0.2534  0.6823
   19CHL1   C10 1371   2.879   2.916   6.731  0.1729  0.5227 -0.0419
   19CHL1   C19 1372   2.907   2.766   6.734  0.2726  0.1478  0.2804
   19CHL1  H19A 1373   2.915   2.738   6.841 -2.8408  1.6405  1.0247
   19CHL1  H19B 1374   2.832   2.704   6.680  1.4219  0.5977 -1.9583
   19CHL1  H19C 1375   3.000   2.731   6.684 -2.2493 -3.6648 -2.3210
   19CHL1    C1 1376   3.006   2.993   6.770 -1.2515 -0.2904 -0.0149
   19CHL1   H1A 1377   3.092   2.959   6.710 -0.2823  1.4518  0.2983
   19CHL1   H1B 1378   2.986   3.100   6.747  2.1671  0.6091  0.6854
   19CHL1    C2 1379   3.045   2.982   6.922  0.6084 -0.1314  0.2367
   19CHL1   H2A 1380   3.130   3.044   6.959 -0.1864  0.6126  0.8526
   19CHL1   H2B 1381   3.073   2.876   6.941 -1.1032 -1.0947 -2.1831
   19CHL1   C20 1382   2.742   2.880   6.039  0.0967  0.6621 -0.8417
   19CHL1   H20 1383   2.852   2.874   6.047  0.0054 -0.9603 -0.4993
   19CHL1   C21 1384   2.722   2.995   5.930  0.1151  0.6893 -0.0981
   19CHL1  H21A 1385   2.766   2.962   5.833  0.9976  0.1787  0.4635
   19CHL1  H21B 1386   2.769   3.090   5.961  0.7663  0.4250 -0.2601
   19CHL1  H21C 1387   2.613   3.007   5.909 -0.3137 -1.7174  0.4056
   19CHL1   C22 1388   2.682   2.742   6.001  0.6195 -0.1170 -1.1591
   19CHL1  H22A 1389   2.703   2.665   6.078 -0.0730 -1.6052 -2.4107
   19CHL1  H22B 1390   2.571   2.747   5.996  0.6791  0.0731 -2.7838
   19CHL1   C23 1391   2.725   2.693   5.861  0.3025 -0.5463 -0.1743
   19CHL1  H23A 1392   2.702   2.768   5.782  3.1318  3.0995  2.1749
   19CHL1  H23B 1393   2.835   2.689   5.871  0.1454 -0.9294  1.7684
   19CHL1   C24 1394   2.665   2.562   5.812  0.7903 -0.2739 -0.0495
   19CHL1  H24A 1395   2.717   2.482   5.869 -2.0637 -1.8923  0.4429
   19CHL1  H24B 1396   2.558   2.564   5.841  0.3815 -0.5840 -1.4489
   19CHL1   C25 1397   2.673   2.538   5.655 -0.2006  0.0976  0.0879
   19CHL1   H25 1398   2.759   2.595   5.614  0.6092 -0.5812  0.8144
   19CHL1   C26 1399   2.669   2.388   5.630 -0.4683  0.1023 -0.2228
   19CHL1  H26A 1400   2.755   2.335   5.678  0.0728  0.2491 -1.0098
   19CHL1  H26B 1401   2.572   2.342   5.658  0.1439  0.5751  3.0949
   19CHL1  H26C 1402   2.697   2.361   5.526  1.3017 -0.4745  0.3637
   19CHL1   C27 1403   2.552   2.602   5.575  0.4151  0.1704  0.2036
   19CHL1  H27A 1404   2.562   2.594   5.465  1.4195 -0.3784  0.3241
   19CHL1  H27B 1405   2.464   2.538   5.597  1.0403 -1.5190 -1.8774
   19CHL1  H27C 1406   2.532   2.707   5.605 -2.0275  0.1242 -1.0383
   20CHL1    C3 1407   0.711   3.449   7.132 -0.2125  0.0646  0.1837
   20CHL1    H3 1408   0.767   3.355   7.118  1.3734  1.1415 -1.1091
   20CHL1    O3 1409   0.710   3.492   7.269 -0.4689  0.2054  0.6184
   20CHL1   H3' 1410   0.627   3.485   7.315 -1.4015 -0.3380 -1.0681
   20CHL1    C4 1411   0.791   3.552   7.049  0.0306  0.3634 -0.8196
   20CHL1   H4A 1412   0.747   3.649   7.078 -3.3707 -1.7194  1.8404
   20CHL1   H4B 1413   0.896   3.544   7.086 -0.1354  0.3540 -0.3336
   20CHL1    C5 1414   0.781   3.532   6.903 -0.0462 -0.3310 -0.0615
   20CHL1    C6 1415   0.890   3.529   6.817 -0.8683  0.0603 -0.2254
   20CHL1    H6 1416   0.989   3.539   6.863 -0.3369  0.3574 -1.3894
   20CHL1    C7 1417   0.885   3.525   6.671 -0.1438 -0.1679 -0.4703
   20CHL1   H7A 1418   0.955   3.596   6.621 -0.8670  0.7062 -0.2498
   20CHL1   H7B 1419   0.919   3.422   6.645  0.7906 -0.8126  2.8163
   20CHL1    C8 1420   0.747   3.561   6.618 -0.6415  0.6076  0.7203
   20CHL1    H8 1421   0.722   3.669   6.616 -1.1268  0.5505 -3.0123
   20CHL1   C14 1422   0.742   3.519   6.472 -0.5805 -0.5215  0.6016
   20CHL1   H14 1423   0.758   3.409   6.469 -0.9640 -0.5929 -2.7063
   20CHL1   C15 1424   0.849   3.564   6.368 -0.4108  0.6342 -0.0040
   20CHL1  H15A 1425   0.878   3.670   6.386  0.8947  0.1153  1.0835
   20CHL1  H15B 1426   0.945   3.509   6.364 -1.4673 -2.0298  4.3192
   20CHL1   C16 1427   0.778   3.537   6.234  0.3792  0.2150 -0.0243
   20CHL1  H16A 1428   0.765   3.638   6.190  0.6092  1.7180  3.0465
   20CHL1  H16B 1429   0.839   3.475   6.165  1.4830 -0.7476  1.7261
   20CHL1   C17 1430   0.634   3.487   6.254  0.3689  0.5606 -0.0789
   20CHL1   H17 1431   0.639   3.377   6.262 -0.2476  0.4511 -1.0022
   20CHL1   C13 1432   0.608   3.537   6.401  0.8211  0.3746  0.1937
   20CHL1   C18 1433   0.567   3.686   6.398  0.0952  0.0575  0.4734
   20CHL1  H18A 1434   0.555   3.722   6.502 -1.8429  0.0488  0.2982
   20CHL1  H18B 1435   0.649   3.745   6.353  0.5904 -1.4685 -0.7004
   20CHL1  H18C 1436   0.476   3.712   6.340  1.6380  0.8525 -1.7208
   20CHL1   C12 1437   0.513   3.447   6.482  0.1865  0.3802 -0.0095
   20CHL1  H12A 1438   0.414   3.437   6.431  1.3751  0.7803 -2.5226
   20CHL1  H12B 1439   0.559   3.346   6.488 -2.2142 -0.8462 -0.8491
   20CHL1   C11 1440   0.493   3.493   6.632 -0.2211  0.3780  0.1313
   20CHL1  H11A 1441   0.470   3.602   6.634  3.8751  1.4145 -0.7506
   20CHL1  H11B 1442   0.417   3.431   6.685 -1.4200  1.8756  0.2499
   20CHL1    C9 1443   0.636   3.484   6.698 -0.5264 -0.0224  0.3227
   20CHL1    H9 1444   0.656   3.375   6.706  0.4226  0.0950 -0.2805
   20CHL1   C10 1445   0.641   3.518   6.849 -0.2918  0.1762 -0.1128
   20CHL1   C19 1446   0.576   3.666   6.868 -0.6442  0.1040  0.0762
   20CHL1  H19A 1447   0.581   3.693   6.976 -1.0081 -2.2451  0.7412
   20CHL1  H19B 1448   0.616   3.738   6.793  0.8049 -0.7407  0.0069
   20CHL1  H19C 1449   0.468   3.647   6.849 -0.6582 -0.5739  0.8065
   20CHL1    C1 1450   0.555   3.420   6.929 -0.5710  0.0571 -0.1386
   20CHL1   H1A 1451   0.445   3.424   6.909 -1.1263 -0.0586  2.5356
   20CHL1   H1B 1452   0.597   3.320   6.907  1.0336  0.1700  2.0969
   20CHL1    C2 1453   0.565   3.435   7.080  0.0471 -0.0336  0.0527
   20CHL1   H2A 1454   0.522   3.342   7.121  1.2100 -1.4419 -1.7444
   20CHL1   H2B 1455   0.505   3.520   7.117  0.8584  1.0406 -0.9962
   20CHL1   C20 1456   0.535   3.529   6.146  0.2039 -0.2528  0.0086
   20CHL1   H20 1457   0.500   3.634   6.152  0.0099 -0.2348 -1.2401
   20CHL1   C21 1458   0.399   3.451   6.148 -0.1883 -0.1012 -0.0772
   20CHL1  H21A 1459   0.426   3.344   6.159 -0.1554 -0.1318 -0.4650
   20CHL1  H21B 1460   0.346   3.456   6.051 -1.2138 -1.2287  0.4073
   20CHL1  H21C 1461   0.342   3.494   6.233  1.2902  0.4410  0.6891
   20CHL1   C22 1462   0.596   3.515   6.003 -0.1938 -0.4177  0.2111
   20CHL1  H22A 1463   0.519   3.545   5.929 -0.9078 -0.4027  0.9384
   20CHL1  H22B 1464   0.683   3.578   5.975 -1.1475 -0.2448 -2.7070
   20CHL1   C23 1465   0.629   3.370   5.957 -0.4334  0.1472 -0.2286
   20CHL1  H23A 1466   0.724   3.343   6.009  0.1187 -0.9100 -1.7069
   20CHL1  H23B 1467   0.554   3.293   5.984  0.4129 -0.4361  0.5222
   20CHL1   C24 1468   0.636   3.358   5.805 -0.4437 -0.6234 -0.4994
   20CHL1  H24A 1469   0.553   3.422   5.766  1.8077  2.0289 -1.2559
   20CHL1  H24B 1470   0.724   3.413   5.765 -1.2236  0.3538 -0.9319
   20CHL1   C25 1471   0.633   3.227   5.723  0.8274  0.8651 -0.9113
   20CHL1   H25 1472   0.533   3.183   5.746 -0.8897  4.0954 -1.5276
   20CHL1   C26 1473   0.643   3.254   5.574 -0.4670 -0.2435  0.0874
   20CHL1  H26A 1474   0.742   3.303   5.560 -0.2051 -1.3853 -2.8483
   20CHL1  H26B 1475   0.656   3.161   5.515  0.4283 -0.4668  0.6125
   20CHL1  H26C 1476   0.560   3.321   5.543  0.7164  0.8895 -0.7265
   20CHL1   C27 1477   0.734   3.127   5.779  0.4134 -0.7570  0.0624
   20CHL1  H27A 1478   0.725   3.034   5.721 -0.6521 -0.8491  0.3624
   20CHL1  H27B 1479   0.836   3.170   5.762 -0.1378  1.8378  2.4788
   20CHL1  H27C 1480   0.704   3.109   5.885  0.2084  1.4758  0.4469
   21CHL1    C3 1481   0.726   3.049   7.044  0.9330  0.5985 -0.2754
   21CHL1    H3 1482   0.708   3.158   7.033 -0.6928  0.2467 -1.4568
   21CHL1    O3 1483   0.680   2.997   7.163  0.1455 -0.3371 -0.6043
   21CHL1   H3' 1484   0.586   3.000   7.147  0.1149 -0.0959 -0.3877
   21CHL1    C4 1485   0.649   2.976   6.933  0.5966 -0.6610 -0.7851
   21CHL1   H4A 1486   0.651   2.868   6.957  0.0992 -0.2413  1.2961
   21CHL1   H4B 1487   0.545   3.009   6.953  0.3348 -2.8087  1.8671
   21CHL1    C5 1488   0.696   3.003   6.788  0.7472  0.1698 -0.4142
   21CHL1    C6 1489   0.620   3.051   6.693 -0.0971 -0.7683 -0.1117
   21CHL1    H6 1490   0.511   3.071   6.690 -0.3855 -2.1296 -2.8274
   21CHL1    C7 1491   0.673   3.093   6.562 -0.6903  0.5463 -0.3479
   21CHL1   H7A 1492   0.586   3.064   6.499 -2.2317  3.9211  0.0056
   21CHL1   H7B 1493   0.683   3.204   6.561  0.9657  0.4419  0.8049
   21CHL1    C8 1494   0.800   3.017   6.521 -0.5157  0.3673 -0.2212
   21CHL1    H8 1495   0.784   2.909   6.501  0.3850  0.2988 -0.6403
   21CHL1   C14 1496   0.860   3.059   6.386  0.1915 -0.2359 -0.2835
   21CHL1   H14 1497   0.867   3.169   6.398 -0.6128 -0.3335  1.4320
   21CHL1   C15 1498   0.773   3.049   6.263 -0.9932  0.1153 -0.5319
   21CHL1  H15A 1499   0.731   2.950   6.238  1.4754 -0.5803 -2.3293
   21CHL1  H15B 1500   0.699   3.131   6.255  0.0801  1.0114 -1.6177
   21CHL1   C16 1501   0.876   3.087   6.151  0.0650  0.0142  0.6027
   21CHL1  H16A 1502   0.868   3.010   6.070  0.5892 -0.1211  0.6752
   21CHL1  H16B 1503   0.854   3.184   6.102 -1.3482 -0.3566  0.4437
   21CHL1   C17 1504   1.021   3.065   6.216  0.5196 -0.5387 -0.3231
   21CHL1   H17 1505   1.048   3.167   6.248 -1.6793  0.1975 -0.6749
   21CHL1   C13 1506   0.998   2.991   6.353  0.2988 -0.4141  0.5089
   21CHL1   C18 1507   0.981   2.838   6.341  0.3023 -0.5445  0.0764
   21CHL1  H18A 1508   1.078   2.790   6.315 -0.1628 -0.2085 -2.5706
   21CHL1  H18B 1509   0.957   2.795   6.440  0.5822  1.4072  1.0523
   21CHL1  H18C 1510   0.907   2.818   6.261 -1.8440  1.2928  1.4916
   21CHL1   C12 1511   1.094   3.027   6.466  0.5282  0.4222  0.1843
   21CHL1  H12A 1512   1.193   2.980   6.448  0.2130  0.2691 -1.2293
   21CHL1  H12B 1513   1.117   3.136   6.470  1.6740  0.1821  0.6588
   21CHL1   C11 1514   1.041   2.987   6.605 -0.3548 -0.1979 -0.1328
   21CHL1  H11A 1515   1.065   2.879   6.608  1.5151  0.1903  2.5911
   21CHL1  H11B 1516   1.107   3.034   6.681 -0.1889 -1.9879  0.8884
   21CHL1    C9 1517   0.897   3.036   6.640 -0.6275  0.7966 -0.0683
   21CHL1    H9 1518   0.904   3.147   6.649  2.5994  0.7731 -1.2219
   21CHL1   C10 1519   0.846   2.979   6.774  0.6782  0.0466 -0.7230
   21CHL1   C19 1520   0.873   2.818   6.773 -0.9216 -0.5786  0.5271
   21CHL1  H19A 1521   0.981   2.806   6.796 -0.3524  1.6170 -0.7458
   21CHL1  H19B 1522   0.807   2.772   6.850  1.1985  0.1940  2.9403
   21CHL1  H19C 1523   0.853   2.769   6.675 -2.6540  0.6270  0.2419
   21CHL1    C1 1524   0.929   3.041   6.887 -0.1964 -0.1746 -0.2426
   21CHL1   H1A 1525   1.026   2.986   6.894 -0.7424 -0.9333  2.3038
   21CHL1   H1B 1526   0.939   3.149   6.861 -1.9385  0.4200  1.3165
   21CHL1    C2 1527   0.876   3.021   7.027  0.5109 -0.3799  0.0330
   21CHL1   H2A 1528   0.932   3.080   7.103  0.4796  2.7291 -2.1817
   21CHL1   H2B 1529   0.895   2.914   7.050  0.4264 -0.2395  0.7679
   21CHL1   C20 1530   1.115   3.012   6.116  0.7336 -0.1091 -0.4061
   21CHL1   H20 1531   1.088   2.905   6.102  0.3764 -0.0262 -0.3664
   21CHL1   C21 1532   1.259   3.004   6.180  0.7817 -0.3937  0.1374
   21CHL1  H21A 1533   1.337   2.972   6.108  1.9080 -0.6151  1.4119
   21CHL1  H21B 1534   1.254   2.931   6.263 -1.2396 -0.1360  0.2802
   21CHL1  H21C 1535   1.290   3.097   6.232 -2.2646  1.0203 -0.4116
   21CHL1   C22 1536   1.118   3.080   5.975 -0.1221  0.2603 -0.8153
   21CHL1  H22A 1537   1.017   3.101   5.932  0.1991  1.2076 -1.1392
   21CHL1  H22B 1538   1.167   3.178   5.995  0.7972 -0.7174  2.1370
   21CHL1   C23 1539   1.185   3.005   5.863  0.0097  0.1148 -0.3504
   21CHL1  H23A 1540   1.292   3.006   5.891  0.0547  2.4461 -0.4652
   21CHL1  H23B 1541   1.164   2.896   5.861  1.3370 -0.2603  2.0806
   21CHL1   C24 1542   1.168   3.063   5.719  0.1415  0.5336 -0.0967
   21CHL1  H24A 1543   1.196   2.983   5.648  1.6571  0.1479  0.8784
   21CHL1  H24B 1544   1.060   3.083   5.702  0.1150 -1.0589 -2.0792
   21CHL1   C25 1545   1.259   3.183   5.697 -0.1299  0.5023  0.3685
   21CHL1   H25 1546   1.260   3.242   5.792 -0.3178  2.0635 -0.5554
   21CHL1   C26 1547   1.404   3.147   5.660  0.0171 -0.1860 -0.4245
   21CHL1  H26A 1548   1.425   3.066   5.732 -0.9397  1.2621  1.5669
   21CHL1  H26B 1549   1.407   3.101   5.558  1.8057 -0.7175 -0.1635
   21CHL1  H26C 1550   1.473   3.234   5.657  2.2341 -1.7714  1.2978
   21CHL1   C27 1551   1.207   3.272   5.582  0.4924  0.1145 -0.0067
   21CHL1  H27A 1552   1.200   3.211   5.489 -2.0198 -0.9781  0.8064
   21CHL1  H27B 1553   1.105   3.307   5.610 -0.5845 -2.3738 -0.4705
   21CHL1  H27C 1554   1.279   3.355   5.570 -0.4606  1.1505  1.1665
   22CHL1    C3 1555   2.541   0.256   7.177 -0.3473  0.0063 -0.3225
   22CHL1    H3 1556   2.650   0.277   7.171 -0.8433  3.3033  0.1470
   22CHL1    O3 1557   2.495   0.251   7.314  0.2615 -0.1529  0.0641
   22CHL1   H3' 1558   2.501   0.341   7.347  1.0396 -0.7872  1.8336
   22CHL1    C4 1559   2.460   0.356   7.094 -0.4455 -0.0806 -0.8314
   22CHL1   H4A 1560   2.352   0.333   7.103 -0.3826 -0.7260 -1.6010
   22CHL1   H4B 1561   2.484   0.458   7.131 -0.2519  0.7581 -3.0607
   22CHL1    C5 1562   2.489   0.350   6.948  0.1265  0.4229  0.8661
   22CHL1    C6 1563   2.521   0.467   6.880  0.1987 -0.4350  0.5545
   22CHL1    H6 1564   2.511   0.564   6.931  0.5218 -0.8958  1.5249
   22CHL1    C7 1565   2.547   0.474   6.735  0.6783 -0.2776  0.1556
   22CHL1   H7A 1566   2.488   0.556   6.689 -0.4593  0.0162  2.0372
   22CHL1   H7B 1567   2.655   0.494   6.722  0.9593 -1.5701  0.3511
   22CHL1    C8 1568   2.502   0.347   6.659 -0.3950  0.1544 -0.7002
   22CHL1    H8 1569   2.393   0.345   6.637 -0.4123 -0.9136 -0.5769
   22CHL1   C14 1570   2.577   0.343   6.524 -0.2043  0.3558 -1.1535
   22CHL1   H14 1571   2.682   0.340   6.558 -0.3445 -1.0369 -0.7727
   22CHL1   C15 1572   2.550   0.461   6.438 -0.2889 -0.6123  0.1300
   22CHL1  H15A 1573   2.445   0.496   6.452  0.1858  0.1140  2.2124
   22CHL1  H15B 1574   2.612   0.547   6.472  0.3911 -1.7395  1.8543
   22CHL1   C16 1575   2.592   0.417   6.302  0.2372 -0.0073  0.1514
   22CHL1  H16A 1576   2.504   0.426   6.235 -0.0839  1.1579  0.7056
   22CHL1  H16B 1577   2.672   0.487   6.269  0.9248  0.6821  2.9463
   22CHL1   C17 1578   2.622   0.259   6.311 -0.1747 -0.1646  0.2515
   22CHL1   H17 1579   2.731   0.245   6.331 -0.6738 -3.9054  1.1601
   22CHL1   C13 1580   2.556   0.218   6.441 -0.0902 -0.3656 -0.9717
   22CHL1   C18 1581   2.401   0.194   6.416  0.1760  0.0621  0.1926
   22CHL1  H18A 1582   2.391   0.108   6.348  0.8593  0.9066 -1.0115
   22CHL1  H18B 1583   2.333   0.178   6.503  0.0552  0.0725  0.1007
   22CHL1  H18C 1584   2.369   0.279   6.352  1.6860  0.1854 -0.4258
   22CHL1   C12 1585   2.618   0.098   6.518  0.5480 -0.8549  0.0533
   22CHL1  H12A 1586   2.616   0.003   6.462  0.0954  0.3683 -2.1186
   22CHL1  H12B 1587   2.727   0.117   6.531  0.4594 -0.3331  0.0668
   22CHL1   C11 1588   2.549   0.088   6.658 -0.5480 -0.0723 -0.2671
   22CHL1  H11A 1589   2.449   0.042   6.642 -0.3465  0.1714 -2.4636
   22CHL1  H11B 1590   2.591   0.003   6.716 -1.6731  0.7116  1.8423
   22CHL1    C9 1591   2.541   0.218   6.740 -0.0771 -0.3935 -0.2078
   22CHL1    H9 1592   2.649   0.243   6.748 -0.2978  0.8648 -0.7990
   22CHL1   C10 1593   2.484   0.211   6.881 -0.1907  0.2542 -0.7750
   22CHL1   C19 1594   2.328   0.174   6.859 -0.0847  0.0144  0.0077
   22CHL1  H19A 1595   2.313   0.073   6.816  2.7294 -0.1207 -0.8622
   22CHL1  H19B 1596   2.264   0.179   6.950 -2.8124  2.2970 -1.8422
   22CHL1  H19C 1597   2.278   0.243   6.788  2.5599  1.9066 -0.1731
   22CHL1    C1 1598   2.560   0.112   6.969  0.7278  1.0854  0.5846
   22CHL1   H1A 1599   2.514   0.017   6.935 -0.1596  1.5290  0.5134
   22CHL1   H1B 1600   2.669   0.122   6.953  0.3673  2.1072 -1.6582
   22CHL1    C2 1601   2.532   0.114   7.121 -0.2005  0.1703 -0.4511
   22CHL1   H2A 1602   2.592   0.046   7.185  1.8422  1.3768 -1.0043
   22CHL1   H2B 1603   2.427   0.081   7.139  0.0020 -0.5437 -0.5283
   22CHL1   C20 1604   2.588   0.196   6.176 -0.7423  0.4464  0.7424
   22CHL1   H20 1605   2.479   0.208   6.158 -0.3742  1.8581 -0.7306
   22CHL1   C21 1606   2.636   0.052   6.192 -0.0647  0.3300 -0.5186
   22CHL1  H21A 1607   2.636   0.005   6.092  2.6892 -0.2187 -0.3513
   22CHL1  H21B 1608   2.562  -0.002   6.255 -0.2351  0.8381 -0.2738
   22CHL1  H21C 1609   2.739   0.035   6.229 -0.1725 -0.9185 -0.7593
   22CHL1   C22 1610   2.649   0.264   6.050  0.1583 -0.1491 -0.3102
   22CHL1  H22A 1611   2.618   0.371   6.052  0.5129 -0.0601  0.8720
   22CHL1  H22B 1612   2.760   0.259   6.044  0.2290  1.6082 -1.0302
   22CHL1   C23 1613   2.615   0.192   5.922 -0.4080 -0.2638 -0.5502
   22CHL1  H23A 1614   2.654   0.088   5.920  0.8666  0.1906 -2.4400
   22CHL1  H23B 1615   2.504   0.190   5.918 -0.3977 -2.1950 -0.4483
   22CHL1   C24 1616   2.676   0.269   5.807  0.3806  0.1225  0.2420
   22CHL1  H24A 1617   2.642   0.374   5.823  3.1268  0.8126  2.2085
   22CHL1  H24B 1618   2.785   0.284   5.822  0.0977  2.9627  0.0201
   22CHL1   C25 1619   2.642   0.215   5.671 -0.1975  0.0742  0.0250
   22CHL1   H25 1620   2.532   0.195   5.668 -0.7843  2.4813  2.1106
   22CHL1   C26 1621   2.664   0.323   5.570  0.3141 -0.4711  0.1662
   22CHL1  H26A 1622   2.591   0.407   5.574  0.9403  0.1615 -1.0477
   22CHL1  H26B 1623   2.760   0.370   5.599 -0.4651  1.8389 -0.7688
   22CHL1  H26C 1624   2.660   0.287   5.465 -1.3920 -1.0607  0.4081
   22CHL1   C27 1625   2.703   0.074   5.639 -0.4331 -0.6680 -0.0518
   22CHL1  H27A 1626   2.670   0.044   5.538 -2.1762 -0.0305  0.2856
   22CHL1  H27B 1627   2.812   0.086   5.623 -0.4555  0.1155  0.2948
   22CHL1  H27C 1628   2.683  -0.005   5.715 -2.0436 -0.3278 -0.0990
   23CHL1    C3 1629   6.031   5.265   6.984 -0.1322 -0.6713 -0.1336
   23CHL1    H3 1630   5.979   5.364   6.982  1.4732  0.1990 -0.6426
   23CHL1    O3 1631   6.061   5.226   7.120 -0.3037 -0.3386  0.0822
   23CHL1   H3' 1632   6.067   5.131   7.130  1.5420 -0.3266 -0.4554
   23CHL1    C4 1633   5.923   5.176   6.922 -0.0673  0.4911  0.7732
   23CHL1   H4A 1634   5.953   5.071   6.939 -1.4175 -0.0050  0.2661
   23CHL1   H4B 1635   5.820   5.180   6.964 -1.2382  1.8469 -1.9848
   23CHL1    C5 1636   5.912   5.186   6.769  0.0960 -0.8086 -0.7795
   23CHL1    C6 1637   5.791   5.219   6.715 -0.1556 -0.5152  0.3147
   23CHL1    H6 1638   5.699   5.221   6.775  0.2026  0.8966  0.8515
   23CHL1    C7 1639   5.773   5.232   6.562  0.4328 -0.4347 -0.3024
   23CHL1   H7A 1640   5.691   5.166   6.526 -0.5766  0.5954  0.0607
   23CHL1   H7B 1641   5.748   5.338   6.543 -2.1155 -1.0252 -0.5626
   23CHL1    C8 1642   5.898   5.196   6.476  1.3103 -0.4421 -0.4983
   23CHL1    H8 1643   5.905   5.086   6.464  2.2630 -0.2260 -2.1015
   23CHL1   C14 1644   5.876   5.269   6.345  0.4920 -0.3368  0.5872
   23CHL1   H14 1645   5.868   5.376   6.372  2.6369 -0.3639  1.4863
   23CHL1   C15 1646   5.750   5.241   6.271  0.5754  0.0693  0.9005
   23CHL1  H15A 1647   5.745   5.131   6.256  0.1914  0.0577  1.0988
   23CHL1  H15B 1648   5.656   5.282   6.314  0.2707 -0.2397  0.5291
   23CHL1   C16 1649   5.778   5.307   6.135  0.5668  0.0866 -0.2616
   23CHL1  H16A 1650   5.740   5.231   6.063  0.6668 -0.6514  0.4403
   23CHL1  H16B 1651   5.715   5.397   6.119 -1.5649 -0.8039  2.5095
   23CHL1   C17 1652   5.932   5.329   6.119 -0.3358 -0.0491 -0.3406
   23CHL1   H17 1653   5.960   5.435   6.137  0.4958 -0.5232  1.3888
   23CHL1   C13 1654   5.987   5.254   6.244  0.7162  0.5618  0.9959
   23CHL1   C18 1655   5.995   5.102   6.211  0.1771 -0.6691  0.2350
   23CHL1  H18A 1656   6.009   5.041   6.302 -0.2973  0.0249  0.7837
   23CHL1  H18B 1657   5.901   5.072   6.159  0.2307 -1.7280  0.7200
   23CHL1  H18C 1658   6.078   5.074   6.143 -0.1761 -0.6493 -0.2076
   23CHL1   C12 1659   6.112   5.315   6.308  0.1204  0.7823  0.2854
   23CHL1  H12A 1660   6.207   5.299   6.252  2.1147 -3.0263  4.2067
   23CHL1  H12B 1661   6.090   5.424   6.316 -2.3041  0.4887 -1.2216
   23CHL1   C11 1662   6.138   5.254   6.449  0.4167 -0.0258  0.0471
   23CHL1  H11A 1663   6.181   5.154   6.431  4.3250  1.3977  0.6285
   23CHL1  H11B 1664   6.221   5.309   6.497  0.0542  0.2413  0.3738
   23CHL1    C9 1665   6.024   5.249   6.543  0.0084  0.0871 -0.0200
   23CHL1    H9 1666   6.000   5.356   6.565 -1.1448 -0.1902  0.1209
   23CHL1   C10 1667   6.040   5.190   6.687 -0.1693 -0.1383 -0.1872
   23CHL1   C19 1668   6.094   5.044   6.669 -0.0013  0.2490 -0.1429
   23CHL1  H19A 1669   6.133   4.999   6.762  2.4746  1.2493 -0.6268
   23CHL1  H19B 1670   6.013   4.979   6.629  0.1010  0.6336 -1.0167
   23CHL1  H19C 1671   6.178   5.044   6.596 -2.0283  1.3952 -2.6516
   23CHL1    C1 1672   6.143   5.280   6.755  0.3088  0.0280  0.3003
   23CHL1   H1A 1673   6.241   5.255   6.712  0.6570 -0.5174  1.3669
   23CHL1   H1B 1674   6.113   5.386   6.736  0.5254 -0.3347 -2.4423
   23CHL1    C2 1675   6.164   5.266   6.904 -0.5787  0.1232  0.4926
   23CHL1   H2A 1676   6.217   5.351   6.953 -0.8536  0.6562 -0.1271
   23CHL1   H2B 1677   6.221   5.174   6.929  0.8141  0.2333 -2.0137
   23CHL1   C20 1678   5.990   5.290   5.984  0.2340  0.3437  1.0071
   23CHL1   H20 1679   5.982   5.182   5.960  1.1854  0.1794  1.3826
   23CHL1   C21 1680   6.137   5.324   5.981  0.0401  0.6743 -0.7690
   23CHL1  H21A 1681   6.198   5.250   6.037 -1.1872  1.4169  1.7061
   23CHL1  H21B 1682   6.160   5.429   6.011 -0.4327  0.8067 -0.8661
   23CHL1  H21C 1683   6.176   5.316   5.878 -0.2646 -0.8908 -0.7857
   23CHL1   C22 1684   5.912   5.352   5.868  0.3432 -0.2983  0.7460
   23CHL1  H22A 1685   5.965   5.312   5.780 -1.7480  0.4202 -0.9413
   23CHL1  H22B 1686   5.808   5.315   5.857  0.1999  0.1863  0.4089
   23CHL1   C23 1687   5.907   5.505   5.870  0.1980  0.1344  0.0183
   23CHL1  H23A 1688   5.830   5.540   5.942  0.9323  0.8239  0.4913
   23CHL1  H23B 1689   6.000   5.551   5.908 -0.9608  1.7089  1.0696
   23CHL1   C24 1690   5.881   5.560   5.727  0.4854  0.1202 -0.1089
   23CHL1  H24A 1691   5.974   5.543   5.669  0.8979  0.3719  0.4648
   23CHL1  H24B 1692   5.808   5.496   5.674 -0.1205  0.0766  0.7711
   23CHL1   C25 1693   5.844   5.714   5.723  0.6312  0.2316  1.0510
   23CHL1   H25 1694   5.783   5.742   5.812  0.8029  0.7254  1.0128
   23CHL1   C26 1695   5.978   5.790   5.726 -0.6401  0.1656 -1.0468
   23CHL1  H26A 1696   5.974   5.886   5.782  1.5354 -0.2972  0.0263
   23CHL1  H26B 1697   6.053   5.729   5.781 -0.3048 -0.0234 -1.7078
   23CHL1  H26C 1698   6.010   5.812   5.622 -1.6866  0.4025 -1.3290
   23CHL1   C27 1699   5.768   5.766   5.606  0.0640 -0.0556 -0.0687
   23CHL1  H27A 1700   5.746   5.875   5.603 -0.1786 -0.1333 -1.5386
   23CHL1  H27B 1701   5.815   5.732   5.512 -0.9733 -2.3795  0.1725
   23CHL1  H27C 1702   5.670   5.714   5.596  0.3840 -0.2647 -2.7827
   24CHL1    C3 1703   3.019   1.824   6.699  0.2778 -0.2258  0.7570
   24CHL1    H3 1704   2.952   1.908   6.673  0.8782 -0.7728 -3.1691
   24CHL1    O3 1705   3.026   1.805   6.840  0.3095  0.3727 -0.0873
   24CHL1   H3' 1706   3.119   1.800   6.862 -0.1111 -1.5111  1.5046
   24CHL1    C4 1707   2.961   1.704   6.638 -0.0937  0.7897  0.2450
   24CHL1   H4A 1708   3.025   1.622   6.678  1.0848  1.6474  0.1765
   24CHL1   H4B 1709   2.863   1.683   6.686  0.4793 -1.3411  0.5962
   24CHL1    C5 1710   2.952   1.705   6.485 -0.5802  0.8122  0.2837
   24CHL1    C6 1711   2.845   1.681   6.411  0.4457  0.2477  0.2040
   24CHL1    H6 1712   2.756   1.655   6.470  0.2803 -1.6411 -0.7729
   24CHL1    C7 1713   2.839   1.669   6.261 -0.0077  0.5051 -0.4780
   24CHL1   H7A 1714   2.776   1.587   6.221  0.2642 -0.5889  1.2336
   24CHL1   H7B 1715   2.780   1.751   6.214 -2.0912 -0.8593 -0.3409
   24CHL1    C8 1716   2.986   1.668   6.202  0.3065  0.1591  0.3923
   24CHL1    H8 1717   3.025   1.564   6.215 -0.2431 -0.0737  0.1879
   24CHL1   C14 1718   2.978   1.710   6.051 -0.2295  0.2929  0.4957
   24CHL1   H14 1719   2.937   1.813   6.058  0.7386  0.5973  2.3633
   24CHL1   C15 1720   2.865   1.638   5.973 -0.5931 -0.5280  0.1365
   24CHL1  H15A 1721   2.847   1.530   5.995  1.1002 -1.1662 -1.3890
   24CHL1  H15B 1722   2.769   1.693   5.984  0.2741  0.6907  2.1090
   24CHL1   C16 1723   2.914   1.657   5.830 -0.3702  0.9311  0.1114
   24CHL1  H16A 1724   2.943   1.562   5.780 -2.1000 -0.2704  1.2769
   24CHL1  H16B 1725   2.829   1.689   5.767 -1.1101  1.7052  1.4502
   24CHL1   C17 1726   3.046   1.746   5.831  0.0423  0.1494 -0.4265
   24CHL1   H17 1727   3.008   1.850   5.844  0.5693  0.6882 -2.7634
   24CHL1   C13 1728   3.108   1.708   5.973  0.2984  0.4139 -0.3530
   24CHL1   C18 1729   3.162   1.566   5.956 -0.5180  0.2959 -0.2089
   24CHL1  H18A 1730   3.085   1.500   5.911 -2.3257  2.2274 -0.1117
   24CHL1  H18B 1731   3.255   1.560   5.894 -0.2762 -2.9636  0.3035
   24CHL1  H18C 1732   3.202   1.521   6.049 -2.4411 -1.8220 -0.3206
   24CHL1   C12 1733   3.205   1.799   6.040 -0.0979  0.1523 -0.6082
   24CHL1  H12A 1734   3.303   1.810   5.988  0.4067 -0.3085  0.2136
   24CHL1  H12B 1735   3.162   1.901   6.029 -1.2629 -0.2724 -0.1190
   24CHL1   C11 1736   3.223   1.766   6.190 -0.0571  0.3156  0.9672
   24CHL1  H11A 1737   3.278   1.670   6.192  0.5638  0.6602  0.5990
   24CHL1  H11B 1738   3.277   1.849   6.239  2.1324  0.4249 -1.4318
   24CHL1    C9 1739   3.082   1.762   6.266 -0.4313 -0.9482 -0.1816
   24CHL1    H9 1740   3.041   1.862   6.242  1.0945 -0.3726 -0.4673
   24CHL1   C10 1741   3.088   1.737   6.418  0.3068 -0.6643 -0.0793
   24CHL1   C19 1742   3.178   1.616   6.436  0.2127 -0.0294 -0.1730
   24CHL1  H19A 1743   3.154   1.529   6.370 -0.9196 -0.7839  1.1890
   24CHL1  H19B 1744   3.288   1.632   6.432  0.3681 -0.6915  1.1285
   24CHL1  H19C 1745   3.165   1.589   6.543 -0.6689 -1.0731 -0.5189
   24CHL1    C1 1746   3.150   1.861   6.492 -0.3322 -0.7639  0.5831
   24CHL1   H1A 1747   3.251   1.883   6.451  1.0687 -2.0122  3.1205
   24CHL1   H1B 1748   3.076   1.943   6.476 -0.1036  0.1874  3.6625
   24CHL1    C2 1749   3.160   1.851   6.639  0.3329  0.5334  0.2462
   24CHL1   H2A 1750   3.194   1.946   6.686  0.7866  0.6899 -0.3776
   24CHL1   H2B 1751   3.230   1.771   6.672  0.2252 -0.6928 -2.2161
   24CHL1   C20 1752   3.133   1.729   5.710  0.1033  0.5702 -0.2382
   24CHL1   H20 1753   3.134   1.620   5.691 -2.3385  0.2365  1.0669
   24CHL1   C21 1754   3.273   1.795   5.726 -0.3840  0.1226 -0.1885
   24CHL1  H21A 1755   3.274   1.878   5.800 -1.4998  0.0868 -0.1191
   24CHL1  H21B 1756   3.311   1.826   5.626 -2.0271  0.5145 -0.7288
   24CHL1  H21C 1757   3.349   1.724   5.765 -2.1570 -0.8142  1.7585
   24CHL1   C22 1758   3.064   1.777   5.578 -0.2862  0.5091  0.2202
   24CHL1  H22A 1759   2.963   1.733   5.570 -0.4295  0.8499  0.1507
   24CHL1  H22B 1760   3.041   1.883   5.599  2.1627  1.1456 -0.0369
   24CHL1   C23 1761   3.134   1.755   5.444 -0.0149  0.8202  0.2432
   24CHL1  H23A 1762   3.244   1.772   5.447  0.4037 -0.3175 -3.4238
   24CHL1  H23B 1763   3.126   1.645   5.429 -2.1205  1.0576 -0.7147
   24CHL1   C24 1764   3.056   1.815   5.327 -0.2618 -0.4283  0.3820
   24CHL1  H24A 1765   2.960   1.760   5.329 -0.8382  0.5146 -0.6054
   24CHL1  H24B 1766   3.032   1.918   5.361  0.0597  0.4535 -1.9402
   24CHL1   C25 1767   3.124   1.820   5.190  0.5329 -0.0179 -0.0982
   24CHL1   H25 1768   3.219   1.876   5.203  2.7376 -3.3415 -0.6671
   24CHL1   C26 1769   3.159   1.678   5.135 -0.4516  0.5341  0.7596
   24CHL1  H26A 1770   3.236   1.625   5.195  1.3852  0.5401 -1.4515
   24CHL1  H26B 1771   3.068   1.619   5.115 -0.1167 -0.3206  1.6447
   24CHL1  H26C 1772   3.210   1.674   5.036 -3.7900 -0.3049 -1.0592
   24CHL1   C27 1773   3.029   1.891   5.092  0.1730 -0.4475 -0.6041
   24CHL1  H27A 1774   3.008   1.995   5.127 -1.4451 -1.4466  1.6174
   24CHL1  H27B 1775   3.089   1.889   4.999 -0.0270  0.6696 -0.7696
   24CHL1  H27C 1776   2.931   1.839   5.089  0.9651 -1.9709 -0.6439
   25CHL1    C3 1777   1.177   2.735   7.114  0.2747 -0.3470  0.5185
   25CHL1    H3 1778   1.076   2.776   7.091 -0.3963 -1.2192  1.8022
   25CHL1    O3 1779   1.183   2.744   7.256 -0.4002 -0.7788  0.7034
   25CHL1   H3' 1780   1.275   2.760   7.280 -0.6333 -0.4503  1.3908
   25CHL1    C4 1781   1.177   2.584   7.074 -0.5700 -0.1797  0.7652
   25CHL1   H4A 1782   1.270   2.536   7.111 -0.5946 -1.7824 -1.0983
   25CHL1   H4B 1783   1.098   2.537   7.137 -0.9514  0.7813  1.0168
   25CHL1    C5 1784   1.169   2.561   6.924  0.4918 -0.8348 -0.5503
   25CHL1    C6 1785   1.069   2.491   6.867 -0.1693 -0.5836 -0.0862
   25CHL1    H6 1786   1.002   2.442   6.939 -0.0855 -0.3708  0.1358
   25CHL1    C7 1787   1.050   2.486   6.714  0.0426  0.3960 -0.4860
   25CHL1   H7A 1788   1.015   2.384   6.688  0.1733  0.2304 -0.0282
   25CHL1   H7B 1789   0.974   2.564   6.691 -0.2888  0.5489  1.0212
   25CHL1    C8 1790   1.187   2.505   6.645 -0.5472 -0.0480  0.5195
   25CHL1    H8 1791   1.264   2.430   6.672  1.1834  1.1990 -0.7661
   25CHL1   C14 1792   1.174   2.504   6.501  0.1719 -0.9839  0.3272
   25CHL1   H14 1793   1.101   2.583   6.473  0.8766 -0.7472 -0.9026
   25CHL1   C15 1794   1.109   2.380   6.440 -0.2980  0.1132 -0.5997
   25CHL1  H15A 1795   1.161   2.292   6.484 -2.2323  0.6864  3.2879
   25CHL1  H15B 1796   1.001   2.374   6.463 -0.0699  0.5355  0.6972
   25CHL1   C16 1797   1.134   2.398   6.288 -0.2862  0.1213  0.3241
   25CHL1  H16A 1798   1.174   2.304   6.246 -0.0716  0.2502  0.2402
   25CHL1  H16B 1799   1.036   2.424   6.243 -0.6857  1.1516  1.7051
   25CHL1   C17 1800   1.237   2.517   6.269 -0.2946  0.1414  0.3492
   25CHL1   H17 1801   1.178   2.608   6.245  0.1769  0.3602  0.0207
   25CHL1   C13 1802   1.292   2.541   6.415 -0.2909  0.1229  0.1193
   25CHL1   C18 1803   1.415   2.441   6.434  0.3302  0.3980 -0.3548
   25CHL1  H18A 1804   1.437   2.423   6.541 -0.1466 -2.4365 -0.6746
   25CHL1  H18B 1805   1.405   2.341   6.388  2.9047 -0.8816  1.6211
   25CHL1  H18C 1806   1.501   2.495   6.390 -1.9646  2.6737 -2.3841
   25CHL1   C12 1807   1.333   2.685   6.457  0.1424  0.3522  0.4611
   25CHL1  H12A 1808   1.426   2.703   6.400  0.2071  0.1870  0.5136
   25CHL1  H12B 1809   1.257   2.762   6.433  1.6032  1.9366  0.7348
   25CHL1   C11 1810   1.369   2.681   6.606 -0.3139 -0.1250  0.7959
   25CHL1  H11A 1811   1.451   2.606   6.607 -1.3824 -1.4863 -2.6018
   25CHL1  H11B 1812   1.422   2.770   6.648 -0.5842 -0.2402  1.3912
   25CHL1    C9 1813   1.254   2.637   6.694 -0.5637  0.1715  0.3452
   25CHL1    H9 1814   1.180   2.718   6.677 -1.1591 -0.6955 -1.3903
   25CHL1   C10 1815   1.282   2.640   6.849  0.1867  0.4855 -0.1497
   25CHL1   C19 1816   1.427   2.588   6.872  0.2089  1.0336  0.1952
   25CHL1  H19A 1817   1.449   2.563   6.978  2.7075  3.3572  0.3502
   25CHL1  H19B 1818   1.435   2.491   6.819  0.5821  0.7159  0.8265
   25CHL1  H19C 1819   1.508   2.652   6.830  1.4782 -0.1378  0.7740
   25CHL1    C1 1820   1.272   2.786   6.893 -0.6880 -0.5621  0.3134
   25CHL1   H1A 1821   1.343   2.848   6.834 -1.0156  0.0002  0.4966
   25CHL1   H1B 1822   1.172   2.823   6.862 -0.5979 -0.3793  0.2375
   25CHL1    C2 1823   1.291   2.816   7.042  0.0895 -1.0026  0.7601
   25CHL1   H2A 1824   1.275   2.924   7.066 -1.8776 -1.4629  1.7151
   25CHL1   H2B 1825   1.384   2.779   7.091 -0.4632 -3.5373  0.0111
   25CHL1   C20 1826   1.339   2.492   6.152  0.1583  0.0300 -0.3148
   25CHL1   H20 1827   1.388   2.395   6.179  1.1069  0.6700  0.3535
   25CHL1   C21 1828   1.440   2.606   6.128 -0.2951 -0.0034 -0.0349
   25CHL1  H21A 1829   1.393   2.704   6.107  1.2786  0.9114  0.5374
   25CHL1  H21B 1830   1.510   2.584   6.045 -1.3250 -2.4686 -0.3265
   25CHL1  H21C 1831   1.508   2.620   6.214  1.1156  1.5881 -1.3375
   25CHL1   C22 1832   1.256   2.469   6.019  0.6017  0.4875  0.3220
   25CHL1  H22A 1833   1.161   2.417   6.044  1.2699 -1.4382 -0.9863
   25CHL1  H22B 1834   1.223   2.564   5.971  1.7859 -0.1661 -1.8903
   25CHL1   C23 1835   1.317   2.386   5.910  0.0279  0.3349  0.0372
   25CHL1  H23A 1836   1.422   2.415   5.892 -0.3473  0.7392 -1.6315
   25CHL1  H23B 1837   1.317   2.283   5.952 -1.8456  0.3914  0.2556
   25CHL1   C24 1838   1.239   2.380   5.780 -0.6744  0.1869 -0.0424
   25CHL1  H24A 1839   1.131   2.355   5.792 -0.0795 -2.8310 -0.1930
   25CHL1  H24B 1840   1.240   2.480   5.731 -0.0793  0.2878  0.1715
   25CHL1   C25 1841   1.307   2.267   5.698  0.3167 -0.3892  0.1023
   25CHL1   H25 1842   1.404   2.237   5.743 -0.1420 -1.3634  0.4563
   25CHL1   C26 1843   1.219   2.142   5.711 -0.0680 -0.0222  0.4890
   25CHL1  H26A 1844   1.118   2.162   5.671  0.3298  2.5199  0.5887
   25CHL1  H26B 1845   1.266   2.061   5.652 -0.2985  0.9873 -1.1547
   25CHL1  H26C 1846   1.212   2.119   5.819  2.7043 -0.7888  0.5815
   25CHL1   C27 1847   1.324   2.304   5.547  0.4748  0.2223 -0.3106
   25CHL1  H27A 1848   1.390   2.393   5.546 -2.4189  2.4978  0.0365
   25CHL1  H27B 1849   1.377   2.217   5.502  0.1471  0.2617 -0.7761
   25CHL1  H27C 1850   1.228   2.316   5.493  0.4608 -1.7148 -0.8181
   26CHL1    C3 1851   3.637   1.737   6.607 -0.5482  0.7299 -0.3903
   26CHL1    H3 1852   3.536   1.780   6.592 -0.0540  2.4608  0.9905
   26CHL1    O3 1853   3.650   1.729   6.745  0.2046 -0.0453 -0.4277
   26CHL1   H3' 1854   3.611   1.646   6.773  1.0645  0.4592  2.6825
   26CHL1    C4 1855   3.656   1.593   6.547  0.3289 -0.3987 -0.3851
   26CHL1   H4A 1856   3.753   1.556   6.586 -0.4167  0.5892  2.6492
   26CHL1   H4B 1857   3.586   1.518   6.590 -2.4802  0.2273 -3.4025
   26CHL1    C5 1858   3.645   1.595   6.395  0.1760 -0.4374  0.6332
   26CHL1    C6 1859   3.557   1.524   6.321  0.6382 -0.4651 -0.3792
   26CHL1    H6 1860   3.484   1.458   6.369  0.1224 -0.4357 -1.1157
   26CHL1    C7 1861   3.548   1.522   6.164 -0.3089 -0.5622 -0.1228
   26CHL1   H7A 1862   3.569   1.416   6.137  0.8577 -0.5587  0.6961
   26CHL1   H7B 1863   3.451   1.564   6.131 -0.9519 -0.7267  1.4710
   26CHL1    C8 1864   3.675   1.594   6.104 -0.3476  0.4901  0.3480
   26CHL1    H8 1865   3.761   1.526   6.124 -0.6079 -0.0915 -0.4654
   26CHL1   C14 1866   3.652   1.622   5.959 -0.6136 -0.4003  0.8512
   26CHL1   H14 1867   3.577   1.704   5.969 -1.4949 -1.3411  2.5082
   26CHL1   C15 1868   3.599   1.508   5.872  0.1616  0.1314  0.3829
   26CHL1  H15A 1869   3.652   1.412   5.893  0.9070  0.0236 -1.7145
   26CHL1  H15B 1870   3.493   1.506   5.904 -0.0675  3.0883  0.0396
   26CHL1   C16 1871   3.629   1.550   5.733  0.2031 -0.4924 -0.3763
   26CHL1  H16A 1872   3.695   1.490   5.668  1.4329  2.9658 -2.6310
   26CHL1  H16B 1873   3.535   1.549   5.672 -2.2676 -1.7668  3.1185
   26CHL1   C17 1874   3.698   1.691   5.743 -0.5490 -0.2505 -0.0616
   26CHL1   H17 1875   3.617   1.764   5.766  0.6956  0.6988  1.5408
   26CHL1   C13 1876   3.765   1.691   5.880  0.0502 -0.3390 -0.3154
   26CHL1   C18 1877   3.889   1.607   5.882  0.0539  0.6038  0.4320
   26CHL1  H18A 1878   3.884   1.520   5.813  0.6268  0.3359  0.7241
   26CHL1  H18B 1879   3.980   1.669   5.868  0.1357  0.2886 -0.5519
   26CHL1  H18C 1880   3.901   1.560   5.982 -1.3334  1.0494  0.8397
   26CHL1   C12 1881   3.790   1.826   5.953 -0.6428  0.0284  0.5754
   26CHL1  H12A 1882   3.870   1.885   5.902 -2.7213  0.9761 -1.7759
   26CHL1  H12B 1883   3.707   1.899   5.953 -1.3834 -0.7936  1.2139
   26CHL1   C11 1884   3.827   1.796   6.103  0.0298 -0.8186  1.0642
   26CHL1  H11A 1885   3.918   1.732   6.095 -0.9051 -1.9296 -2.6186
   26CHL1  H11B 1886   3.838   1.893   6.156 -1.3956 -1.1134  1.9685
   26CHL1    C9 1887   3.715   1.719   6.178  0.0657 -0.5590  0.0948
   26CHL1    H9 1888   3.628   1.787   6.168  0.3132 -0.5303 -2.6655
   26CHL1   C10 1889   3.747   1.686   6.327  0.3766 -0.0409 -0.5593
   26CHL1   C19 1890   3.887   1.629   6.348  0.1494  0.3867 -0.6075
   26CHL1  H19A 1891   3.912   1.635   6.456  0.4907 -0.6149 -0.6204
   26CHL1  H19B 1892   3.893   1.524   6.311 -2.9095  0.1252 -0.6197
   26CHL1  H19C 1893   3.962   1.695   6.301 -0.5437  1.4921 -0.2129
   26CHL1    C1 1894   3.735   1.829   6.396 -1.0719  0.4270 -0.2081
   26CHL1   H1A 1895   3.818   1.893   6.359  1.7128 -1.3742  2.4668
   26CHL1   H1B 1896   3.640   1.882   6.374  1.1258  4.9755  0.0988
   26CHL1    C2 1897   3.746   1.827   6.550 -0.1450  0.0641 -0.1512
   26CHL1   H2A 1898   3.719   1.931   6.576  1.5789  0.6170 -0.4722
   26CHL1   H2B 1899   3.840   1.801   6.604  0.3800  1.3119 -0.4297
   26CHL1   C20 1900   3.789   1.717   5.623 -0.5153  0.5357  1.2106
   26CHL1   H20 1901   3.865   1.636   5.627 -1.7779 -0.6862  1.4613
   26CHL1   C21 1902   3.852   1.851   5.642 -0.3464 -0.0822  0.2004
   26CHL1  H21A 1903   3.890   1.890   5.546 -0.4221 -0.1460  0.1445
   26CHL1  H21B 1904   3.940   1.850   5.711  0.1618  1.6670 -0.3842
   26CHL1  H21C 1905   3.780   1.921   5.689 -1.8553 -0.0129 -2.0793
   26CHL1   C22 1906   3.727   1.718   5.485  0.2404 -0.2066 -0.5309
   26CHL1  H22A 1907   3.636   1.655   5.480 -0.9223  1.2655  1.2032
   26CHL1  H22B 1908   3.681   1.817   5.468  0.0623 -0.6516 -3.0431
   26CHL1   C23 1909   3.827   1.694   5.370 -0.3843  0.4483  0.7255
   26CHL1  H23A 1910   3.884   1.788   5.348  1.3473 -1.1109 -2.0729
   26CHL1  H23B 1911   3.901   1.615   5.397 -0.0446 -0.0736 -1.5569
   26CHL1   C24 1912   3.764   1.645   5.237  0.3988  0.1550 -0.1484
   26CHL1  H24A 1913   3.690   1.566   5.262  2.3056 -1.8916 -0.6743
   26CHL1  H24B 1914   3.710   1.732   5.193  0.4257 -0.6092 -1.7555
   26CHL1   C25 1915   3.863   1.587   5.135  0.0750  0.4728 -0.8596
   26CHL1   H25 1916   3.933   1.515   5.182  0.7233  1.7620  0.2016
   26CHL1   C26 1917   3.791   1.522   5.020 -0.2318  0.3465 -0.4005
   26CHL1  H26A 1918   3.866   1.475   4.953 -1.7857 -0.3282 -1.7601
   26CHL1  H26B 1919   3.739   1.435   5.066  1.9978 -1.1005 -0.4618
   26CHL1  H26C 1920   3.725   1.591   4.964  1.2332  1.6058 -0.6330
   26CHL1   C27 1921   3.949   1.697   5.074 -0.7385 -0.0252 -0.2468
   26CHL1  H27A 1922   4.018   1.658   4.996 -0.1341 -1.2479  0.8682
   26CHL1  H27B 1923   3.880   1.768   5.022 -1.4418 -2.9862 -3.7571
   26CHL1  H27C 1924   4.009   1.740   5.157  0.0454 -0.8856 -0.3575
   27CHL1    C3 1925   4.059   2.299   6.622  0.4387 -0.0699  0.3825
   27CHL1    H3 1926   4.077   2.401   6.580 -2.2499  1.0865  1.7427
   27CHL1    O3 1927   4.007   2.321   6.750 -0.4081 -0.1386  0.2869
   27CHL1   H3' 1928   3.941   2.252   6.751 -0.8801  0.2381 -1.5105
   27CHL1    C4 1929   3.948   2.239   6.544 -0.1414 -0.3961  0.3762
   27CHL1   H4A 1930   3.906   2.148   6.591 -0.2379 -0.0452  0.9731
   27CHL1   H4B 1931   3.855   2.300   6.545  0.3932  0.5982 -2.1370
   27CHL1    C5 1932   3.984   2.218   6.401  0.0220 -0.3161  0.0796
   27CHL1    C6 1933   3.918   2.286   6.305 -0.0275 -0.0357 -0.1732
   27CHL1    H6 1934   3.828   2.344   6.330 -0.3755 -1.4245  2.1073
   27CHL1    C7 1935   3.958   2.278   6.160 -0.6013 -0.6943 -0.6327
   27CHL1   H7A 1936   3.861   2.268   6.107 -2.0165  1.5346  1.3312
   27CHL1   H7B 1937   4.003   2.377   6.140 -0.8439 -0.7596 -1.5916
   27CHL1    C8 1938   4.051   2.166   6.118  0.1224 -0.5603  0.4293
   27CHL1    H8 1939   3.989   2.074   6.117 -0.0482 -0.4490 -0.8903
   27CHL1   C14 1940   4.109   2.184   5.976  0.7768 -0.0533 -0.0683
   27CHL1   H14 1941   4.163   2.281   5.974  0.6440  0.0120 -0.5081
   27CHL1   C15 1942   4.015   2.195   5.862 -0.6780 -0.0083 -0.1740
   27CHL1  H15A 1943   3.935   2.118   5.872 -1.4600  0.0391 -4.1527
   27CHL1  H15B 1944   3.965   2.294   5.852  0.0300  0.2771 -0.9426
   27CHL1   C16 1945   4.099   2.162   5.745  0.1846  0.2094  0.3647
   27CHL1  H16A 1946   4.065   2.074   5.686  0.0372  1.8740 -2.2056
   27CHL1  H16B 1947   4.107   2.251   5.679 -1.4170 -0.4314 -0.7554
   27CHL1   C17 1948   4.240   2.124   5.801  0.6534 -0.7884 -0.1280
   27CHL1   H17 1949   4.280   2.226   5.821 -2.0582  0.1325  1.0381
   27CHL1   C13 1950   4.212   2.078   5.945 -0.0423  0.4826  0.1436
   27CHL1   C18 1951   4.155   1.934   5.931  0.6489 -0.3083 -0.8007
   27CHL1  H18A 1952   4.072   1.922   6.003 -0.2863  1.9745 -1.4274
   27CHL1  H18B 1953   4.105   1.919   5.833 -0.6524 -1.3332 -0.0064
   27CHL1  H18C 1954   4.226   1.852   5.958 -1.7913 -2.1879  0.2939
   27CHL1   C12 1955   4.338   2.082   6.047 -0.7463  0.4255  0.1740
   27CHL1  H12A 1956   4.404   2.002   6.009 -1.6290  0.8293 -2.4024
   27CHL1  H12B 1957   4.371   2.188   6.051 -0.7707  0.4777 -0.8245
   27CHL1   C11 1958   4.282   2.057   6.188 -0.0239  0.7358 -0.2510
   27CHL1  H11A 1959   4.238   1.955   6.192 -0.2687  0.8531  0.1181
   27CHL1  H11B 1960   4.369   2.070   6.255 -0.8031 -0.0248  0.9532
   27CHL1    C9 1961   4.164   2.160   6.227 -0.6989  0.5530 -0.0741
   27CHL1    H9 1962   4.203   2.263   6.239 -0.7750  0.6393 -0.5594
   27CHL1   C10 1963   4.113   2.137   6.375  0.1794  0.5044  0.3102
   27CHL1   C19 1964   4.086   1.986   6.394  0.7993  0.2973 -0.4999
   27CHL1  H19A 1965   4.018   1.983   6.482 -2.1237  0.8036 -2.5906
   27CHL1  H19B 1966   4.030   1.946   6.307  1.6087  0.4490 -1.0990
   27CHL1  H19C 1967   4.175   1.921   6.405  0.9210  0.7093  1.3158
   27CHL1    C1 1968   4.221   2.184   6.474  0.2552 -0.0010  0.7493
   27CHL1   H1A 1969   4.298   2.104   6.480 -1.2428 -1.4745  0.7163
   27CHL1   H1B 1970   4.268   2.279   6.440 -2.2103  0.5480 -1.3664
   27CHL1    C2 1971   4.179   2.204   6.618 -0.0935  0.8366  0.3873
   27CHL1   H2A 1972   4.264   2.250   6.674 -0.8329  1.1004  1.3089
   27CHL1   H2B 1973   4.143   2.113   6.669  0.0795  1.6622  2.0381
   27CHL1   C20 1974   4.331   2.052   5.700  0.0864  0.1487  0.0835
   27CHL1   H20 1975   4.275   1.959   5.673 -1.2165  1.1996 -0.9995
   27CHL1   C21 1976   4.465   1.991   5.759  0.0697 -0.3319  0.4898
   27CHL1  H21A 1977   4.435   1.909   5.827  0.4434 -3.3675 -2.7219
   27CHL1  H21B 1978   4.522   2.068   5.816 -0.5163  0.9368 -0.5727
   27CHL1  H21C 1979   4.525   1.934   5.685  0.5004  0.3296  0.3161
   27CHL1   C22 1980   4.360   2.128   5.571  0.6015 -0.2782  0.2443
   27CHL1  H22A 1981   4.403   2.072   5.486  0.6164  0.5179 -0.2875
   27CHL1  H22B 1982   4.262   2.167   5.537  0.1989  0.4899  2.1745
   27CHL1   C23 1983   4.448   2.255   5.595  0.1773 -0.7817  0.2537
   27CHL1  H23A 1984   4.391   2.336   5.645  1.8445  0.7986 -0.2962
   27CHL1  H23B 1985   4.540   2.235   5.656 -0.5414  1.5562  2.2642
   27CHL1   C24 1986   4.503   2.302   5.463  0.4497 -0.1957 -0.1449
   27CHL1  H24A 1987   4.588   2.239   5.429 -1.4974 -1.5293 -2.9214
   27CHL1  H24B 1988   4.426   2.279   5.386 -0.8745  2.3459  0.2998
   27CHL1   C25 1989   4.529   2.450   5.457  0.5621  0.7467 -1.3453
   27CHL1   H25 1990   4.434   2.506   5.464 -0.3340 -0.6803 -1.8137
   27CHL1   C26 1991   4.636   2.508   5.549  0.2749  0.4370 -0.6535
   27CHL1  H26A 1992   4.597   2.518   5.652 -0.4499 -3.1822 -0.4453
   27CHL1  H26B 1993   4.714   2.430   5.545  2.0528  2.1406 -0.8364
   27CHL1  H26C 1994   4.677   2.603   5.507  0.5015  0.9296  0.6608
   27CHL1   C27 1995   4.571   2.472   5.310 -0.4840 -0.6717 -0.0244
   27CHL1  H27A 1996   4.663   2.414   5.289  0.1697  0.0363  0.8247
   27CHL1  H27B 1997   4.496   2.426   5.242  0.1337 -0.9344 -0.5382
   27CHL1  H27C 1998   4.588   2.578   5.284  3.5053 -1.1299  0.1419
   28CHL1    C3 1999   1.581   2.436   7.325  0.6349  0.1421 -0.6310
   28CHL1    H3 2000   1.534   2.522   7.273 -1.1143  1.3779  2.6299
   28CHL1    O3 2001   1.604   2.472   7.464 -1.0756  0.1027 -0.2759
   28CHL1   H3' 2002   1.531   2.436   7.516 -0.1256  1.3835  2.1411
   28CHL1    C4 2003   1.476   2.319   7.311  0.7716 -0.2024 -0.5813
   28CHL1   H4A 2004   1.517   2.242   7.379  1.7980  1.0667  0.2840
   28CHL1   H4B 2005   1.385   2.359   7.361  0.9981 -0.5950  0.1505
   28CHL1    C5 2006   1.455   2.263   7.169 -0.2248  0.8657 -0.0942
   28CHL1    C6 2007   1.337   2.270   7.113  0.0328 -1.2034 -0.1836
   28CHL1    H6 2008   1.254   2.296   7.179  1.2398  0.9228  0.5832
   28CHL1    C7 2009   1.306   2.228   6.969 -0.5856 -0.0491  0.1246
   28CHL1   H7A 2010   1.217   2.162   6.973 -1.0963  0.4068 -2.2854
   28CHL1   H7B 2011   1.280   2.316   6.906 -2.0768 -1.9662 -2.0705
   28CHL1    C8 2012   1.426   2.148   6.909 -0.3760 -0.7569 -0.0477
   28CHL1    H8 2013   1.423   2.046   6.954 -0.6258  0.0134  1.7752
   28CHL1   C14 2014   1.414   2.140   6.755  0.5001 -0.8075  0.0139
   28CHL1   H14 2015   1.417   2.243   6.713 -0.7505  0.4576  2.7651
   28CHL1   C15 2016   1.281   2.085   6.700  0.3504  0.1177  0.1838
   28CHL1  H15A 2017   1.259   2.003   6.772  0.3209 -1.1403 -1.2008
   28CHL1  H15B 2018   1.197   2.157   6.699 -0.8745 -1.2633 -1.0202
   28CHL1   C16 2019   1.320   2.046   6.563  0.3236  0.5448  0.4538
   28CHL1  H16A 2020   1.294   1.938   6.570 -0.4186  0.4748 -2.2305
   28CHL1  H16B 2021   1.255   2.086   6.482 -1.9044 -1.5554  1.0869
   28CHL1   C17 2022   1.478   2.066   6.543 -0.0531  1.1377  0.8621
   28CHL1   H17 2023   1.497   2.169   6.505  3.1448  0.9655  1.7126
   28CHL1   C13 2024   1.524   2.060   6.688 -0.0088  0.1313  0.6590
   28CHL1   C18 2025   1.519   1.917   6.751  0.3114 -0.0546 -0.2998
   28CHL1  H18A 2026   1.519   1.921   6.862 -0.6276  2.2125 -0.3388
   28CHL1  H18B 2027   1.429   1.856   6.725  1.6251 -2.4452  0.4920
   28CHL1  H18C 2028   1.613   1.865   6.724  0.5004  0.5027 -0.7279
   28CHL1   C12 2029   1.669   2.109   6.721  0.0626  0.2294  0.1225
   28CHL1  H12A 2030   1.737   2.032   6.678 -2.6417 -1.4302 -1.4376
   28CHL1  H12B 2031   1.700   2.204   6.672  1.0274 -0.3825 -0.4944
   28CHL1   C11 2032   1.688   2.122   6.878  0.4810  0.2662  0.2939
   28CHL1  H11A 2033   1.686   2.015   6.906 -1.3601 -0.3919 -2.0041
   28CHL1  H11B 2034   1.785   2.168   6.908 -0.8418  1.4196  3.0957
   28CHL1    C9 2035   1.565   2.203   6.941  0.6976 -0.2142  0.8190
   28CHL1    H9 2036   1.566   2.295   6.879  0.7118 -1.6138 -1.3717
   28CHL1   C10 2037   1.585   2.231   7.097 -0.3237  0.3510 -0.1996
   28CHL1   C19 2038   1.639   2.093   7.158  0.6359 -0.9839 -0.4611
   28CHL1  H19A 2039   1.744   2.070   7.131  1.2215 -0.2200  1.0286
   28CHL1  H19B 2040   1.635   2.107   7.268  4.3224 -1.1004 -0.1901
   28CHL1  H19C 2041   1.571   2.013   7.122 -1.6346  0.3622  0.5538
   28CHL1    C1 2042   1.695   2.344   7.113  0.6169 -0.2412  0.8517
   28CHL1   H1A 2043   1.791   2.307   7.073  0.4173  0.6007 -0.4582
   28CHL1   H1B 2044   1.659   2.427   7.048  2.1738  0.2206  0.5367
   28CHL1    C2 2045   1.713   2.394   7.260  0.7434  0.3633  0.5246
   28CHL1   H2A 2046   1.781   2.479   7.283 -0.2908  1.3708 -0.0731
   28CHL1   H2B 2047   1.750   2.310   7.322 -0.1850 -0.4259  0.0213
   28CHL1   C20 2048   1.551   1.967   6.444  0.4100 -0.3475  0.4253
   28CHL1   H20 2049   1.655   1.980   6.482 -0.1105 -0.0689  1.8211
   28CHL1   C21 2050   1.541   2.032   6.302 -0.0894 -0.2721 -0.0129
   28CHL1  H21A 2051   1.570   2.139   6.297 -0.1065 -0.3112 -1.6599
   28CHL1  H21B 2052   1.439   2.009   6.264 -0.9685 -0.9192  2.5400
   28CHL1  H21C 2053   1.614   1.974   6.241  0.6097  0.8418 -0.2614
   28CHL1   C22 2054   1.497   1.829   6.445  0.9160 -0.2959  0.0861
   28CHL1  H22A 2055   1.473   1.783   6.543 -1.3686 -2.4273 -1.3309
   28CHL1  H22B 2056   1.393   1.831   6.406  0.8385  1.0383  0.3127
   28CHL1   C23 2057   1.561   1.732   6.343  0.2739  0.0124  0.0722
   28CHL1  H23A 2058   1.526   1.749   6.239  1.6344 -1.5870 -0.7090
   28CHL1  H23B 2059   1.671   1.749   6.346  0.0663  1.2924  2.4809
   28CHL1   C24 2060   1.515   1.593   6.365 -0.8858 -0.0276  0.5204
   28CHL1  H24A 2061   1.524   1.589   6.476  0.6242  2.1878  0.5547
   28CHL1  H24B 2062   1.408   1.587   6.338 -0.5735 -1.0895 -0.5925
   28CHL1   C25 2063   1.575   1.478   6.283  0.0075 -0.4868 -0.4357
   28CHL1   H25 2064   1.685   1.479   6.293 -0.1067 -2.3251  1.5480
   28CHL1   C26 2065   1.523   1.344   6.332 -0.0564 -0.0636 -0.1652
   28CHL1  H26A 2066   1.550   1.335   6.440 -1.6646 -0.7082  0.2110
   28CHL1  H26B 2067   1.413   1.336   6.321 -0.0705  0.7314 -0.6543
   28CHL1  H26C 2068   1.569   1.266   6.268 -1.3022 -1.0955  0.1636
   28CHL1   C27 2069   1.548   1.500   6.135  0.1023  0.1644 -0.0277
   28CHL1  H27A 2070   1.442   1.530   6.122  0.7922  2.6213 -0.6149
   28CHL1  H27B 2071   1.611   1.588   6.107  0.8424  0.8256  3.2813
   28CHL1  H27C 2072   1.577   1.406   6.084  0.2252  0.4780 -0.5521
   29CHL1    C3 2073   1.367   5.645   3.835  0.2176  0.1530  0.3543
   29CHL1    H3 2074   1.263   5.607   3.830  0.2838  0.0394 -0.2732
   29CHL1    O3 2075   1.422   5.607   3.712  0.2452 -0.1615  0.1712
   29CHL1   H3' 2076   1.366   5.652   3.648 -0.0998 -0.3258  0.3559
   29CHL1    C4 2077   1.359   5.799   3.846  0.7234  1.0481  0.1901
   29CHL1   H4A 2078   1.464   5.835   3.841  0.1509  2.6498 -3.5950
   29CHL1   H4B 2079   1.311   5.832   3.752 -1.6019 -0.8859  0.5871
   29CHL1    C5 2080   1.287   5.848   3.973 -0.4261  0.4365 -0.2495
   29CHL1    C6 2081   1.180   5.932   3.971  0.1925 -0.1699  0.0106
   29CHL1    H6 2082   1.142   5.956   3.871 -2.9168  0.4660  1.2573
   29CHL1    C7 2083   1.102   5.972   4.088 -0.3876 -0.1318 -0.0058
   29CHL1   H7A 2084   1.090   6.082   4.078 -1.7371 -0.3015 -0.4465
   29CHL1   H7B 2085   1.001   5.926   4.093 -0.3951 -0.0212  1.5183
   29CHL1    C8 2086   1.166   5.935   4.227  0.6880 -0.4976  0.3477
   29CHL1    H8 2087   1.240   6.017   4.241 -0.1096  0.7583 -2.1911
   29CHL1   C14 2088   1.057   5.936   4.339 -0.0519  0.2226  0.2364
   29CHL1   H14 2089   0.987   5.855   4.312  0.1928  0.1022 -0.0474
   29CHL1   C15 2090   0.985   6.068   4.352 -0.2102 -0.1861  0.6759
   29CHL1  H15A 2091   1.058   6.149   4.332  0.5448 -0.6255  1.5822
   29CHL1  H15B 2092   0.897   6.071   4.284  1.1042  1.7181 -1.0797
   29CHL1   C16 2093   0.924   6.067   4.497  0.1478  0.0024  0.0190
   29CHL1  H16A 2094   0.957   6.161   4.546  2.9631 -0.3915 -0.9794
   29CHL1  H16B 2095   0.813   6.074   4.503 -0.0356 -2.8129  2.0887
   29CHL1   C17 2096   0.992   5.945   4.567  0.0998  0.3576  0.0554
   29CHL1   H17 2097   0.926   5.856   4.554  1.4128 -0.4592 -1.2952
   29CHL1   C13 2098   1.113   5.916   4.475 -0.3502 -0.1714  0.6005
   29CHL1   C18 2099   1.226   6.017   4.516 -0.2399  0.0855 -0.1955
   29CHL1  H18A 2100   1.280   5.995   4.610 -0.0388  1.3978  0.0207
   29CHL1  H18B 2101   1.296   6.025   4.431 -2.9631  2.3547 -2.4504
   29CHL1  H18C 2102   1.181   6.118   4.532 -0.2468 -0.1116  1.1075
   29CHL1   C12 2103   1.168   5.768   4.476 -0.4664 -0.4361  0.2894
   29CHL1  H12A 2104   1.222   5.737   4.569  0.9237  0.3906 -0.2050
   29CHL1  H12B 2105   1.082   5.697   4.475 -0.6819 -0.1983  1.1366
   29CHL1   C11 2106   1.275   5.742   4.364  0.1288  0.1385 -0.2903
   29CHL1  H11A 2107   1.362   5.797   4.406  0.1635 -1.1874  1.4613
   29CHL1  H11B 2108   1.298   5.634   4.358 -3.1838 -0.7204  0.4700
   29CHL1    C9 2109   1.235   5.801   4.223 -0.5576 -0.0787 -0.1634
   29CHL1    H9 2110   1.149   5.735   4.196 -1.6862  0.7478  1.2405
   29CHL1   C10 2111   1.340   5.784   4.108 -0.0075  0.0448  0.0309
   29CHL1   C19 2112   1.462   5.860   4.154 -0.6366  0.2924  0.5004
   29CHL1  H19A 2113   1.429   5.962   4.183  1.1476  0.9206  0.4515
   29CHL1  H19B 2114   1.507   5.817   4.246  1.1841  2.2841  0.6238
   29CHL1  H19C 2115   1.533   5.872   4.069 -1.4478  1.2690 -0.0587
   29CHL1    C1 2116   1.371   5.632   4.085  0.5532  0.5313 -0.0027
   29CHL1   H1A 2117   1.443   5.609   4.167  0.9026  0.3261 -0.3637
   29CHL1   H1B 2118   1.284   5.563   4.094  1.2463 -0.4564 -0.7048
   29CHL1    C2 2119   1.451   5.596   3.951  1.2069  0.1368  0.3394
   29CHL1   H2A 2120   1.468   5.486   3.944  1.1910  0.0150  1.8366
   29CHL1   H2B 2121   1.548   5.649   3.946  2.3436 -1.7365  1.3126
   29CHL1   C20 2122   1.012   5.961   4.712  0.0964 -0.8613 -0.0791
   29CHL1   H20 2123   1.091   6.038   4.726  0.5591 -1.4052  0.3129
   29CHL1   C21 2124   1.059   5.835   4.779  0.0318  0.0331 -0.4909
   29CHL1  H21A 2125   0.989   5.753   4.753  0.4083 -0.3990 -0.1494
   29CHL1  H21B 2126   1.052   5.842   4.889  2.6551 -0.2571 -0.2193
   29CHL1  H21C 2127   1.161   5.796   4.756  0.0357  0.0550 -0.5126
   29CHL1   C22 2128   0.894   6.020   4.794  0.0875 -0.5526  0.0388
   29CHL1  H22A 2129   0.875   6.117   4.743  2.1466 -0.2454 -0.2335
   29CHL1  H22B 2130   0.809   5.949   4.788 -1.1846  0.5952  2.7419
   29CHL1   C23 2131   0.928   6.048   4.944 -0.5118  0.1077  0.2636
   29CHL1  H23A 2132   0.907   5.951   4.994 -1.0092 -0.4240 -0.9356
   29CHL1  H23B 2133   1.035   6.075   4.955 -0.6832  1.0340 -0.2863
   29CHL1   C24 2134   0.851   6.167   5.000  0.4774 -0.0031 -0.6545
   29CHL1  H24A 2135   0.891   6.259   4.952  1.5398  0.6623  1.3799
   29CHL1  H24B 2136   0.742   6.149   4.987  0.2978 -1.0323  1.7206
   29CHL1   C25 2137   0.869   6.187   5.144  0.3483 -1.2810 -0.2306
   29CHL1   H25 2138   0.860   6.093   5.203  0.9903 -0.9088  0.4827
   29CHL1   C26 2139   1.005   6.253   5.172 -0.4140 -0.2373  0.2152
   29CHL1  H26A 2140   1.024   6.336   5.101 -0.2888  0.2517  0.8180
   29CHL1  H26B 2141   1.005   6.294   5.275  1.7602 -2.0727  1.0099
   29CHL1  H26C 2142   1.091   6.186   5.152  1.1739  1.3287  1.4918
   29CHL1   C27 2143   0.752   6.272   5.199 -0.8491  0.2187 -1.0608
   29CHL1  H27A 2144   0.660   6.213   5.180 -0.8612 -1.4910  3.1695
   29CHL1  H27B 2145   0.759   6.284   5.310 -0.6544  2.2205 -1.2592
   29CHL1  H27C 2146   0.763   6.376   5.162 -0.0337 -0.4460 -2.8123
   30CHL1    C3 2147   5.522   3.103   3.559  0.8906  0.0576  0.5132
   30CHL1    H3 2148   5.561   3.207   3.561  1.2285 -0.0498 -0.2149
   30CHL1    O3 2149   5.561   3.053   3.434 -0.0742 -0.4046  0.3623
   30CHL1   H3' 2150   5.483   3.068   3.379  0.2417  0.5447  0.1607
   30CHL1    C4 2151   5.577   3.017   3.678 -0.3509  0.0768  0.0156
   30CHL1   H4A 2152   5.553   2.910   3.663 -0.1156 -0.1782  1.3977
   30CHL1   H4B 2153   5.687   3.025   3.673 -0.2155  0.2746  2.3455
   30CHL1    C5 2154   5.529   3.061   3.812  0.5365 -0.3298 -0.8339
   30CHL1    C6 2155   5.617   3.098   3.908  0.0992 -0.2093  0.3993
   30CHL1    H6 2156   5.726   3.093   3.891  0.4315  1.3660  1.8718
   30CHL1    C7 2157   5.581   3.152   4.039  0.2205 -0.0111 -0.3829
   30CHL1   H7A 2158   5.632   3.088   4.114  1.0846  0.1849 -0.7875
   30CHL1   H7B 2159   5.600   3.260   4.053 -0.3886  0.1179 -0.5319
   30CHL1    C8 2160   5.428   3.127   4.071 -0.0341 -0.7741 -0.2646
   30CHL1    H8 2161   5.419   3.017   4.088 -0.8519 -0.4979  1.3141
   30CHL1   C14 2162   5.393   3.214   4.197 -0.5479  0.2850  0.6951
   30CHL1   H14 2163   5.396   3.318   4.158  1.0820 -0.4591 -1.3431
   30CHL1   C15 2164   5.482   3.205   4.321 -0.6704 -0.4067  0.6258
   30CHL1  H15A 2165   5.487   3.096   4.344 -1.6338 -0.4222  0.7831
   30CHL1  H15B 2166   5.587   3.237   4.301 -0.7399 -1.4901 -1.8086
   30CHL1   C16 2167   5.401   3.275   4.437 -0.6138 -0.0127  0.5332
   30CHL1  H16A 2168   5.401   3.202   4.521  2.5934 -1.0772 -0.2578
   30CHL1  H16B 2169   5.445   3.376   4.456  1.6671 -1.0113  0.8917
   30CHL1   C17 2170   5.257   3.282   4.383 -0.1406 -0.0014 -0.2750
   30CHL1   H17 2171   5.246   3.387   4.348  1.1811  0.6551  1.1493
   30CHL1   C13 2172   5.259   3.192   4.251  0.1923 -0.1073 -0.3694
   30CHL1   C18 2173   5.229   3.048   4.294 -0.8084 -0.1512 -0.8533
   30CHL1  H18A 2174   5.275   3.022   4.392  0.8006  0.6687 -1.3603
   30CHL1  H18B 2175   5.122   3.022   4.311 -0.7755  0.8641  1.2512
   30CHL1  H18C 2176   5.265   2.974   4.220 -0.7517  0.0014 -0.9773
   30CHL1   C12 2177   5.166   3.234   4.136 -0.1410  0.9810  0.3335
   30CHL1  H12A 2178   5.061   3.205   4.161 -0.1114  1.7056  1.3409
   30CHL1  H12B 2179   5.169   3.345   4.128  2.4022  0.8931 -0.7885
   30CHL1   C11 2180   5.193   3.166   4.006  0.1742 -0.3037 -0.5166
   30CHL1  H11A 2181   5.170   3.058   4.018  0.5654 -0.2376  0.9678
   30CHL1  H11B 2182   5.126   3.204   3.926 -0.8374  2.3114  1.4044
   30CHL1    C9 2183   5.337   3.168   3.959 -0.5830 -0.6372  0.1575
   30CHL1    H9 2184   5.350   3.277   3.941 -0.8387 -0.2705  2.0192
   30CHL1   C10 2185   5.374   3.086   3.826 -0.5368 -0.7370 -0.2792
   30CHL1   C19 2186   5.319   2.945   3.841 -0.7801 -0.5130  0.2188
   30CHL1  H19A 2187   5.342   2.886   3.750 -2.0093  0.9680 -1.1016
   30CHL1  H19B 2188   5.355   2.897   3.934  1.5036  1.3584  0.3868
   30CHL1  H19C 2189   5.208   2.933   3.842 -0.8192 -0.5993 -1.6245
   30CHL1    C1 2190   5.307   3.159   3.704  0.5494  0.6157  0.2710
   30CHL1   H1A 2191   5.198   3.137   3.693  0.9442 -0.7013 -1.3261
   30CHL1   H1B 2192   5.327   3.268   3.707 -0.2660  0.7861 -0.0539
   30CHL1    C2 2193   5.364   3.100   3.573  0.3942 -0.6258  0.5002
   30CHL1   H2A 2194   5.318   3.152   3.486  0.0108 -2.3582 -0.3743
   30CHL1   H2B 2195   5.333   2.994   3.558  2.1286 -1.0294 -0.3965
   30CHL1   C20 2196   5.152   3.266   4.487 -0.2274  0.1885  0.0303
   30CHL1   H20 2197   5.162   3.166   4.536 -0.4903  0.7319  1.2217
   30CHL1   C21 2198   5.013   3.283   4.425  0.6454 -0.1544 -0.0937
   30CHL1  H21A 2199   4.997   3.372   4.361 -1.5618 -0.6702 -0.3493
   30CHL1  H21B 2200   4.937   3.283   4.507  1.5748 -0.9165  0.8081
   30CHL1  H21C 2201   4.993   3.200   4.354 -0.4439 -0.5995  0.6852
   30CHL1   C22 2202   5.164   3.353   4.612  0.5410 -0.1238  0.6455
   30CHL1  H22A 2203   5.270   3.345   4.644  1.0498 -6.5242 -1.2624
   30CHL1  H22B 2204   5.143   3.458   4.582  1.9762 -0.0292 -0.0995
   30CHL1   C23 2205   5.067   3.310   4.728  0.2336  0.3695  0.7608
   30CHL1  H23A 2206   4.962   3.333   4.700  1.4026  2.7749 -2.2112
   30CHL1  H23B 2207   5.072   3.200   4.742  0.7946  0.4964  1.6344
   30CHL1   C24 2208   5.134   3.365   4.852  0.2018 -0.8429  0.5616
   30CHL1  H24A 2209   5.093   3.321   4.945 -1.0998  0.9119  0.8612
   30CHL1  H24B 2210   5.244   3.348   4.858  1.0079  2.7822 -1.1178
   30CHL1   C25 2211   5.090   3.515   4.857 -0.2067  0.8410  0.0290
   30CHL1   H25 2212   5.088   3.564   4.757  0.8627  0.1425 -0.3500
   30CHL1   C26 2213   4.945   3.525   4.927 -0.7755 -0.6802  0.3888
   30CHL1  H26A 2214   4.897   3.623   4.909 -0.2080 -0.6625 -1.1252
   30CHL1  H26B 2215   4.878   3.453   4.875 -0.5303  0.3322 -1.4115
   30CHL1  H26C 2216   4.938   3.500   5.035 -0.6774  1.0365  0.8091
   30CHL1   C27 2217   5.190   3.596   4.937 -0.4749 -0.0757  0.0653
   30CHL1  H27A 2218   5.210   3.539   5.031  0.4046  0.2849  0.1105
   30CHL1  H27B 2219   5.290   3.598   4.888 -0.1005  0.7234  0.8346
   30CHL1  H27C 2220   5.160   3.697   4.971  1.7464  0.6747 -0.0661
   31CHL1    C3 2221   4.022   1.084   3.417  0.2468  0.5026  0.0595
   31CHL1    H3 2222   4.120   1.045   3.380  0.0887 -1.9958  2.0469
   31CHL1    O3 2223   3.956   1.142   3.310  0.4148  0.4456  0.6248
   31CHL1   H3' 2224   3.869   1.169   3.340 -0.6458 -0.1695 -1.6366
   31CHL1    C4 2225   3.947   0.964   3.478  0.7391  0.1102  0.3086
   31CHL1   H4A 2226   3.843   1.003   3.480 -0.0088 -1.7322 -0.0771
   31CHL1   H4B 2227   3.934   0.880   3.406 -0.4965  1.0846 -0.6435
   31CHL1    C5 2228   3.983   0.923   3.620  0.2072  0.6620 -0.1922
   31CHL1    C6 2229   4.017   0.796   3.647 -0.3911  0.3483 -0.5031
   31CHL1    H6 2230   4.008   0.723   3.565 -0.0609 -0.6872  0.3576
   31CHL1    C7 2231   4.055   0.746   3.787  0.6056  0.6642 -0.2911
   31CHL1   H7A 2232   4.001   0.651   3.806 -1.5581  1.4686 -1.8899
   31CHL1   H7B 2233   4.163   0.723   3.774  0.4869  0.1318 -0.3553
   31CHL1    C8 2234   4.018   0.845   3.899  0.2142  0.6971  0.0214
   31CHL1    H8 2235   3.908   0.833   3.914  0.5754 -0.2121  2.2571
   31CHL1   C14 2236   4.089   0.803   4.025 -0.0745 -0.1180 -0.3707
   31CHL1   H14 2237   4.198   0.810   4.004  0.2525 -0.1637  1.1550
   31CHL1   C15 2238   4.073   0.651   4.073 -0.0478 -0.2043  0.1188
   31CHL1  H15A 2239   3.968   0.617   4.059 -1.2008  2.6922  0.8648
   31CHL1  H15B 2240   4.146   0.590   4.017  1.9235  0.9078  1.3464
   31CHL1   C16 2241   4.116   0.657   4.217 -0.7735  0.3676 -0.0877
   31CHL1  H16A 2242   4.029   0.612   4.268 -1.4517  0.2770 -1.2880
   31CHL1  H16B 2243   4.205   0.592   4.230  0.1511  0.5560 -4.0338
   31CHL1   C17 2244   4.149   0.811   4.248 -0.0134  0.4863 -0.2663
   31CHL1   H17 2245   4.255   0.827   4.220  0.4713 -0.8206  0.6968
   31CHL1   C13 2246   4.071   0.890   4.142 -0.6538 -0.4136 -0.6127
   31CHL1   C18 2247   3.926   0.887   4.173 -0.3226  0.2774 -0.7052
   31CHL1  H18A 2248   3.891   0.786   4.203  0.7248 -0.0443 -0.5186
   31CHL1  H18B 2249   3.909   0.963   4.251  1.2476 -1.5196  1.5240
   31CHL1  H18C 2250   3.867   0.928   4.088 -0.0432  1.3809 -0.3825
   31CHL1   C12 2251   4.128   1.026   4.106 -0.4284 -0.4304  0.7081
   31CHL1  H12A 2252   4.100   1.080   4.199  1.0996  1.9701 -0.1602
   31CHL1  H12B 2253   4.238   1.018   4.099 -0.3743  1.2803 -0.9833
   31CHL1   C11 2254   4.066   1.085   3.979  0.3010  0.0405  0.3452
   31CHL1  H11A 2255   3.959   1.107   4.003  0.3349 -1.0073  1.5616
   31CHL1  H11B 2256   4.108   1.187   3.965 -0.3096  0.2503 -0.0447
   31CHL1    C9 2257   4.059   0.988   3.858  0.1225 -0.4086 -1.1058
   31CHL1    H9 2258   4.162   0.973   3.819  0.8820  0.4740  0.4403
   31CHL1   C10 2259   3.988   1.039   3.729 -0.3760  0.0489  0.1023
   31CHL1   C19 2260   3.847   1.084   3.754  0.1756 -0.0550  0.3408
   31CHL1  H19A 2261   3.842   1.168   3.827  0.3645  0.6765 -0.4678
   31CHL1  H19B 2262   3.794   1.124   3.664  0.9408  2.2420  0.8283
   31CHL1  H19C 2263   3.777   1.003   3.784  0.2217 -0.7707 -1.3579
   31CHL1    C1 2264   4.074   1.146   3.661  0.4511  0.4328  0.5080
   31CHL1   H1A 2265   4.078   1.234   3.728 -0.5124  0.5757  0.3892
   31CHL1   H1B 2266   4.174   1.100   3.645  1.1052  2.5102 -2.0522
   31CHL1    C2 2267   4.037   1.190   3.521  0.1287 -0.0253  0.0514
   31CHL1   H2A 2268   4.110   1.267   3.489 -1.0875  0.7577 -0.9077
   31CHL1   H2B 2269   3.943   1.248   3.535  0.1488  0.1394 -0.4772
   31CHL1   C20 2270   4.125   0.851   4.396 -0.7388  0.2921 -0.6021
   31CHL1   H20 2271   4.017   0.846   4.422 -0.7190 -0.5233 -0.6477
   31CHL1   C21 2272   4.177   0.993   4.438  0.2375  0.5705  0.0380
   31CHL1  H21A 2273   4.287   1.004   4.425  0.3959 -0.8577  0.0796
   31CHL1  H21B 2274   4.167   1.009   4.548 -0.7613  0.5863 -0.0461
   31CHL1  H21C 2275   4.113   1.069   4.388 -0.9882  0.0481  0.7654
   31CHL1   C22 2276   4.180   0.741   4.492 -0.5805  0.0359 -0.3216
   31CHL1  H22A 2277   4.170   0.780   4.596  0.8108  0.4526 -0.3251
   31CHL1  H22B 2278   4.124   0.646   4.480  0.8607 -0.7454 -1.0891
   31CHL1   C23 2279   4.336   0.713   4.475 -0.1390  0.3897  0.5430
   31CHL1  H23A 2280   4.363   0.693   4.369  1.5092 -2.0446  1.3323
   31CHL1  H23B 2281   4.398   0.799   4.506  0.3071  0.8009 -1.3759
   31CHL1   C24 2282   4.388   0.596   4.560  0.8867  0.9385 -0.3927
   31CHL1  H24A 2283   4.347   0.500   4.525 -0.4763  1.7034 -0.9655
   31CHL1  H24B 2284   4.498   0.582   4.551  0.8214  0.3663 -0.3175
   31CHL1   C25 2285   4.362   0.621   4.713  0.4542  0.1882 -0.3300
   31CHL1   H25 2286   4.253   0.640   4.727  0.1581 -2.5067  1.7449
   31CHL1   C26 2287   4.397   0.494   4.793  0.0563 -0.1163 -0.2717
   31CHL1  H26A 2288   4.365   0.503   4.899 -0.5438 -0.4422 -0.4171
   31CHL1  H26B 2289   4.335   0.412   4.750 -0.3634 -0.4583  0.9380
   31CHL1  H26C 2290   4.505   0.468   4.793  0.1339  0.1641 -1.2485
   31CHL1   C27 2291   4.434   0.741   4.771 -0.1050 -0.6813 -0.0614
   31CHL1  H27A 2292   4.542   0.746   4.745  0.0167 -1.9126  0.1343
   31CHL1  H27B 2293   4.385   0.835   4.738  2.0886  0.9587  1.1010
   31CHL1  H27C 2294   4.431   0.726   4.881  1.4669 -0.6842  0.0031
   32CHL1    C3 2295   3.910   3.933   3.389  0.1388  0.4301  0.3851
   32CHL1    H3 2296   3.855   3.839   3.410  1.7612 -1.0446 -1.5358
   32CHL1    O3 2297   3.925   3.923   3.247 -0.2567  0.1428 -0.4157
   32CHL1   H3' 2298   3.858   3.987   3.220  0.3831  0.9283 -0.1673
   32CHL1    C4 2299   3.818   4.048   3.428 -0.1048 -0.0409 -0.5995
   32CHL1   H4A 2300   3.860   4.145   3.394 -2.4057  1.1534 -0.2103
   32CHL1   H4B 2301   3.723   4.034   3.373 -0.1666 -2.1308 -0.0539
   32CHL1    C5 2302   3.787   4.034   3.580  0.4822  0.0677 -0.8752
   32CHL1    C6 2303   3.659   4.035   3.636 -0.8051  0.6245 -0.0491
   32CHL1    H6 2304   3.571   4.041   3.571  0.3370 -1.2433 -1.8912
   32CHL1    C7 2305   3.640   4.019   3.785 -0.6847 -0.2730  0.0048
   32CHL1   H7A 2306   3.552   4.075   3.824 -1.3425 -0.7594 -0.7474
   32CHL1   H7B 2307   3.628   3.913   3.815  1.2147 -0.3887  0.5180
   32CHL1    C8 2308   3.766   4.063   3.870 -0.1372  0.4762  0.2639
   32CHL1    H8 2309   3.778   4.173   3.861  0.1059  0.3001 -2.4366
   32CHL1   C14 2310   3.746   4.020   4.017  0.2020  0.9416  0.5521
   32CHL1   H14 2311   3.731   3.910   4.023 -0.1959  0.9779  0.2377
   32CHL1   C15 2312   3.617   4.067   4.085 -0.6799 -0.5881  0.4919
   32CHL1  H15A 2313   3.607   4.172   4.052  1.1783 -0.2648  0.8320
   32CHL1  H15B 2314   3.524   4.012   4.058 -0.5943  0.0418 -1.1530
   32CHL1   C16 2315   3.655   4.063   4.227 -0.6072 -0.2937 -0.4215
   32CHL1  H16A 2316   3.640   4.159   4.282  1.6002 -0.8694  1.3131
   32CHL1  H16B 2317   3.597   3.983   4.278  0.2205 -1.4061 -1.1837
   32CHL1   C17 2318   3.812   4.031   4.239  0.0479 -0.3025  0.0291
   32CHL1   H17 2319   3.815   3.921   4.253 -1.1360 -0.0341  3.1771
   32CHL1   C13 2320   3.868   4.065   4.103 -0.3331 -0.4011 -0.0976
   32CHL1   C18 2321   3.885   4.227   4.098  0.3715 -0.4243 -0.0221
   32CHL1  H18A 2322   3.959   4.274   4.166  0.4991  0.3634 -0.6883
   32CHL1  H18B 2323   3.910   4.271   3.999 -0.0901  1.6224  0.7296
   32CHL1  H18C 2324   3.789   4.278   4.119 -0.9850 -2.2294 -1.4236
   32CHL1   C12 2325   3.993   3.984   4.056  0.7587 -0.3215  0.0721
   32CHL1  H12A 2326   4.086   4.027   4.099 -0.0603  0.3180  1.2395
   32CHL1  H12B 2327   3.983   3.878   4.087  2.5844 -1.0126 -1.4704
   32CHL1   C11 2328   4.014   4.007   3.901  0.0380  0.8084 -0.2943
   32CHL1  H11A 2329   4.062   4.107   3.894  0.7833  0.3308 -3.0153
   32CHL1  H11B 2330   4.086   3.929   3.868  0.4654  0.5951  1.0612
   32CHL1    C9 2331   3.891   3.997   3.810  0.3451 -0.0721 -0.4487
   32CHL1    H9 2332   3.872   3.888   3.819 -2.0944  0.3992  1.0121
   32CHL1   C10 2333   3.916   4.029   3.665  0.8442  0.5395 -0.0417
   32CHL1   C19 2334   3.986   4.166   3.676  0.1285  0.3317 -0.0455
   32CHL1  H19A 2335   3.989   4.225   3.582  0.2977  1.5358  0.7102
   32CHL1  H19B 2336   3.954   4.239   3.753  0.4179  0.4134 -0.0041
   32CHL1  H19C 2337   4.088   4.134   3.703 -0.3206  0.6224  2.1235
   32CHL1    C1 2338   4.028   3.933   3.611 -0.8276 -0.4861 -0.5622
   32CHL1   H1A 2339   4.131   3.938   3.654  0.3644  0.5783 -3.2999
   32CHL1   H1B 2340   3.987   3.831   3.619 -0.2822 -0.8136 -1.6908
   32CHL1    C2 2341   4.041   3.929   3.458 -0.8745 -0.4231 -0.1238
   32CHL1   H2A 2342   4.100   3.847   3.413 -1.0443 -1.5175  1.5482
   32CHL1   H2B 2343   4.078   4.031   3.434 -2.2685  0.2467  0.4250
   32CHL1   C20 2344   3.880   4.085   4.363 -0.5169  0.5678 -0.5824
   32CHL1   H20 2345   3.896   4.195   4.351  1.8949  0.1768 -1.4024
   32CHL1   C21 2346   4.026   4.026   4.380  0.1055  0.1692  0.2728
   32CHL1  H21A 2347   4.073   4.045   4.479  0.6145 -0.0495  0.0732
   32CHL1  H21B 2348   4.100   4.068   4.310  0.0196 -0.3988 -0.1674
   32CHL1  H21C 2349   4.031   3.916   4.367  5.0096  0.2482 -0.1426
   32CHL1   C22 2350   3.788   4.072   4.493 -0.1489  0.0573 -0.9208
   32CHL1  H22A 2351   3.834   4.110   4.586 -1.2459  1.9682 -1.1153
   32CHL1  H22B 2352   3.695   4.132   4.488  0.6556  1.3175 -1.0733
   32CHL1   C23 2353   3.748   3.931   4.524 -0.2287 -0.6406 -0.0939
   32CHL1  H23A 2354   3.692   3.883   4.441 -1.4556 -0.0316  0.3707
   32CHL1  H23B 2355   3.846   3.880   4.537  0.9768  1.1479 -1.6494
   32CHL1   C24 2356   3.659   3.916   4.647  0.0973  0.2807 -0.0946
   32CHL1  H24A 2357   3.701   3.969   4.735 -1.1570  1.0547  0.0682
   32CHL1  H24B 2358   3.556   3.960   4.645 -0.4300 -0.7057  2.0997
   32CHL1   C25 2359   3.634   3.766   4.690 -0.1162  1.2649 -0.0849
   32CHL1   H25 2360   3.580   3.714   4.608  1.6579 -0.9255  0.0559
   32CHL1   C26 2361   3.764   3.698   4.710  0.3426  0.9509  0.7483
   32CHL1  H26A 2362   3.843   3.762   4.754  2.9950 -2.3236  1.1482
   32CHL1  H26B 2363   3.752   3.606   4.770 -0.4664  0.3059 -0.3612
   32CHL1  H26C 2364   3.814   3.663   4.617 -1.2893 -1.0301  0.5568
   32CHL1   C27 2365   3.553   3.774   4.819  0.6323  0.1471 -0.2187
   32CHL1  H27A 2366   3.486   3.863   4.812  0.4414 -0.0289 -0.6492
   32CHL1  H27B 2367   3.498   3.679   4.835  0.7606  0.2965  1.1870
   32CHL1  H27C 2368   3.624   3.798   4.901 -1.0150 -0.8817  1.5941
   33CHL1    C3 2369   2.160   1.104   3.830  0.1466  0.4101  0.1293
   33CHL1    H3 2370   2.054   1.084   3.854 -0.0101  0.7995 -0.2191
   33CHL1    O3 2371   2.174   1.138   3.693  0.2381  0.5783 -0.0728
   33CHL1   H3' 2372   2.194   1.056   3.647  1.1189  0.2988  0.7790
   33CHL1    C4 2373   2.206   1.223   3.917 -1.1125  0.6326  0.5055
   33CHL1   H4A 2374   2.306   1.250   3.877 -2.3149  1.9245 -1.8277
   33CHL1   H4B 2375   2.152   1.315   3.886  0.1107  1.0535 -0.4890
   33CHL1    C5 2376   2.206   1.173   4.063  0.0017 -0.3460  0.3532
   33CHL1    C6 2377   2.131   1.236   4.148  0.4125  0.7705 -0.5325
   33CHL1    H6 2378   2.080   1.325   4.110  0.6422  2.4245  2.6706
   33CHL1    C7 2379   2.098   1.193   4.289 -0.3925  0.2671 -0.3040
   33CHL1   H7A 2380   2.096   1.282   4.356 -0.4660  0.1021 -0.0820
   33CHL1   H7B 2381   2.005   1.132   4.293 -0.6261  0.5755 -0.8815
   33CHL1    C8 2382   2.219   1.108   4.337  0.4320 -0.0263  0.2724
   33CHL1    H8 2383   2.311   1.170   4.346 -0.1723  0.6831  1.8301
   33CHL1   C14 2384   2.194   1.056   4.474 -0.1462 -0.3522 -0.1773
   33CHL1   H14 2385   2.097   1.002   4.479 -1.3600  1.8453  1.4133
   33CHL1   C15 2386   2.171   1.170   4.581 -0.0182 -0.8750  0.4966
   33CHL1  H15A 2387   2.253   1.245   4.574  0.1220 -0.7536  2.7274
   33CHL1  H15B 2388   2.073   1.219   4.564  0.5575  0.4022  0.7674
   33CHL1   C16 2389   2.186   1.097   4.719 -0.4995 -0.0141 -0.1314
   33CHL1  H16A 2390   2.249   1.151   4.793  0.5028  0.2098 -1.1205
   33CHL1  H16B 2391   2.084   1.085   4.762 -0.1964  0.6986  0.8309
   33CHL1   C17 2392   2.252   0.965   4.683 -0.4450  0.2408 -0.5904
   33CHL1   H17 2393   2.172   0.888   4.679 -0.2185  0.0108 -0.7192
   33CHL1   C13 2394   2.303   0.974   4.534 -0.4675 -0.2123 -0.2004
   33CHL1   C18 2395   2.441   1.046   4.536 -0.1751  0.1647 -0.2009
   33CHL1  H18A 2396   2.451   1.130   4.608  1.2438  0.5401 -0.7967
   33CHL1  H18B 2397   2.516   0.966   4.554 -0.0361  0.4397  0.4685
   33CHL1  H18C 2398   2.464   1.100   4.442 -1.4897  2.3067  0.6273
   33CHL1   C12 2399   2.316   0.846   4.444 -0.6771 -0.1201  0.4074
   33CHL1  H12A 2400   2.382   0.764   4.481 -0.3114  0.1427  0.3437
   33CHL1  H12B 2401   2.213   0.806   4.454 -1.7065  1.7166 -1.8821
   33CHL1   C11 2402   2.346   0.882   4.296 -0.6946 -0.2594 -0.1851
   33CHL1  H11A 2403   2.453   0.912   4.288 -0.3087 -1.5943 -0.3149
   33CHL1  H11B 2404   2.339   0.793   4.230 -1.9906  0.0847 -0.5276
   33CHL1    C9 2405   2.251   0.997   4.239  0.2797 -0.2804  0.4234
   33CHL1    H9 2406   2.151   0.951   4.231 -0.6082  1.6450 -0.2520
   33CHL1   C10 2407   2.286   1.049   4.099 -0.1356  0.1689  0.5625
   33CHL1   C19 2408   2.433   1.099   4.091  0.3120  0.4503 -0.5500
   33CHL1  H19A 2409   2.455   1.145   3.993 -1.3870 -1.7585 -2.0713
   33CHL1  H19B 2410   2.447   1.157   4.185  0.1568  0.4260 -0.5120
   33CHL1  H19C 2411   2.515   1.025   4.098  1.4731  1.4166 -2.8654
   33CHL1    C1 2412   2.240   0.933   4.010  0.2553  0.0607  0.4063
   33CHL1   H1A 2413   2.297   0.841   4.034  1.0567  0.5380  0.3780
   33CHL1   H1B 2414   2.133   0.910   4.027  0.1655 -0.8636 -1.1841
   33CHL1    C2 2415   2.246   0.975   3.858  0.8873 -0.2134  0.0694
   33CHL1   H2A 2416   2.207   0.887   3.802  0.2493 -0.9190  1.5561
   33CHL1   H2B 2417   2.353   0.989   3.829  0.0977  0.8820 -2.6978
   33CHL1   C20 2418   2.347   0.916   4.794  0.7210 -0.3370 -0.1393
   33CHL1   H20 2419   2.429   0.990   4.798 -0.3236  0.8117  0.5096
   33CHL1   C21 2420   2.419   0.786   4.746  0.4495 -0.0044 -0.7863
   33CHL1  H21A 2421   2.339   0.717   4.710 -0.6443  0.7790  0.0953
   33CHL1  H21B 2422   2.473   0.731   4.826  1.2983  1.8119 -0.0633
   33CHL1  H21C 2423   2.494   0.802   4.665  2.1943  1.4177  1.0157
   33CHL1   C22 2424   2.283   0.886   4.932  0.6316  0.3050  0.0312
   33CHL1  H22A 2425   2.200   0.956   4.956  0.2639  0.6905 -2.1354
   33CHL1  H22B 2426   2.233   0.787   4.919 -1.6267  1.3476  0.2823
   33CHL1   C23 2427   2.378   0.874   5.051 -0.0174 -0.5555  0.3774
   33CHL1  H23A 2428   2.466   0.808   5.034 -0.2845 -0.3191 -2.4478
   33CHL1  H23B 2429   2.420   0.975   5.067  2.7847 -1.4710 -0.5764
   33CHL1   C24 2430   2.303   0.826   5.178 -0.0927  0.0109  0.0458
   33CHL1  H24A 2431   2.207   0.878   5.200 -0.1727 -0.3974  0.6928
   33CHL1  H24B 2432   2.282   0.721   5.150  0.6008 -0.3495  0.8267
   33CHL1   C25 2433   2.398   0.816   5.293 -0.3070  0.2966  0.2190
   33CHL1   H25 2434   2.493   0.769   5.257 -0.4141  1.5739 -1.8703
   33CHL1   C26 2435   2.438   0.957   5.345 -0.5060 -0.3575 -0.1132
   33CHL1  H26A 2436   2.487   0.944   5.445  0.4638 -1.0065 -0.6521
   33CHL1  H26B 2437   2.509   1.007   5.277 -0.0542 -0.9086 -0.0585
   33CHL1  H26C 2438   2.349   1.023   5.349 -0.3573 -0.1737  0.1745
   33CHL1   C27 2439   2.335   0.732   5.409  0.5511  0.3220  0.4043
   33CHL1  H27A 2440   2.406   0.709   5.492  0.4146 -0.5455  0.2925
   33CHL1  H27B 2441   2.259   0.793   5.463 -0.2616 -0.5674  0.2960
   33CHL1  H27C 2442   2.285   0.638   5.376  2.9814 -1.2676  0.9337
   34CHL1    C3 2443   4.187   6.249   3.453 -0.9564 -0.4491  0.5836
   34CHL1    H3 2444   4.241   6.346   3.465 -0.0490 -0.9139  0.3827
   34CHL1    O3 2445   4.128   6.254   3.325 -0.1069  0.3371 -0.2528
   34CHL1   H3' 2446   4.161   6.183   3.270 -1.2254  0.8264 -1.6061
   34CHL1    C4 2447   4.279   6.128   3.467  0.5150  0.5719 -0.2994
   34CHL1   H4A 2448   4.215   6.045   3.430 -0.3504  1.0815  0.0241
   34CHL1   H4B 2449   4.368   6.145   3.403  1.0672 -1.0030  0.0068
   34CHL1    C5 2450   4.316   6.115   3.611 -0.4506  0.8445 -0.5687
   34CHL1    C6 2451   4.450   6.107   3.652  0.3397  0.7767  0.3154
   34CHL1    H6 2452   4.531   6.103   3.578 -1.2728  0.3114 -1.4844
   34CHL1    C7 2453   4.490   6.083   3.797 -0.2347 -0.5589 -0.0275
   34CHL1   H7A 2454   4.565   6.001   3.792 -1.6449 -1.8577 -0.8983
   34CHL1   H7B 2455   4.549   6.164   3.846 -0.4733 -0.2983 -0.1732
   34CHL1    C8 2456   4.374   6.053   3.901  0.3205  0.4314 -0.2115
   34CHL1    H8 2457   4.353   5.946   3.879 -1.3750  0.5033  0.8834
   34CHL1   C14 2458   4.420   6.078   4.040  0.1128  0.0249 -0.2471
   34CHL1   H14 2459   4.430   6.188   4.054  0.7613 -0.0497 -0.1188
   34CHL1   C15 2460   4.543   6.006   4.093 -0.1518  0.7458 -0.0575
   34CHL1  H15A 2461   4.548   5.907   4.042 -1.0378  1.8597 -2.4192
   34CHL1  H15B 2462   4.631   6.067   4.062  0.4278 -0.3525 -0.6479
   34CHL1   C16 2463   4.530   6.002   4.252 -0.1271  0.2455  0.4822
   34CHL1  H16A 2464   4.528   5.897   4.288 -0.4846 -0.0340 -0.3119
   34CHL1  H16B 2465   4.616   6.058   4.294  1.6627  0.3998 -3.0034
   34CHL1   C17 2466   4.392   6.063   4.286 -0.2735  0.4619 -0.0198
   34CHL1   H17 2467   4.403   6.173   4.294 -1.0109  0.4570  1.4791
   34CHL1   C13 2468   4.310   6.044   4.150  0.1576  0.0677  0.5837
   34CHL1   C18 2469   4.261   5.899   4.143  0.1735 -0.4406 -0.3114
   34CHL1  H18A 2470   4.349   5.834   4.164  2.0519  1.3249 -2.1420
   34CHL1  H18B 2471   4.181   5.878   4.216 -0.9055  2.7609 -0.3944
   34CHL1  H18C 2472   4.234   5.873   4.038  1.9461  1.4594 -1.3246
   34CHL1   C12 2473   4.199   6.148   4.120  0.0213  0.6372 -0.3350
   34CHL1  H12A 2474   4.115   6.128   4.190 -0.6708  0.5777 -1.1686
   34CHL1  H12B 2475   4.242   6.249   4.137  0.9073  0.1931  0.1228
   34CHL1   C11 2476   4.144   6.130   3.974 -0.3273  0.0324 -0.3960
   34CHL1  H11A 2477   4.076   6.042   3.966  1.5842 -1.7634  1.8244
   34CHL1  H11B 2478   4.076   6.217   3.956  0.9392  1.1255 -0.0889
   34CHL1    C9 2479   4.249   6.140   3.869  0.2119  0.9196  0.4833
   34CHL1    H9 2480   4.288   6.244   3.872 -0.9834  1.5073 -2.0410
   34CHL1   C10 2481   4.200   6.115   3.717  0.1211 -0.3171  0.2029
   34CHL1   C19 2482   4.117   5.983   3.709  0.0046  0.2358 -0.6883
   34CHL1  H19A 2483   4.185   5.901   3.739 -0.5075  0.2036  0.4276
   34CHL1  H19B 2484   4.027   5.990   3.774  0.9097  2.6909  0.4320
   34CHL1  H19C 2485   4.079   5.966   3.606  2.8347 -0.7499 -1.6690
   34CHL1    C1 2486   4.108   6.239   3.685 -0.6970  0.0737 -0.2675
   34CHL1   H1A 2487   4.028   6.237   3.762  1.1205 -0.5230  1.7305
   34CHL1   H1B 2488   4.172   6.325   3.717 -0.5448 -0.7905  1.9461
   34CHL1    C2 2489   4.071   6.252   3.543  0.0757 -0.4579  0.3137
   34CHL1   H2A 2490   4.004   6.337   3.518 -0.8006 -1.0725  0.5164
   34CHL1   H2B 2491   4.010   6.165   3.510  1.3009 -0.0045 -3.7449
   34CHL1   C20 2492   4.338   6.012   4.411  0.2918  0.4722 -0.8387
   34CHL1   H20 2493   4.330   5.903   4.391 -1.8122  0.8219 -2.2454
   34CHL1   C21 2494   4.206   6.083   4.450 -0.4058 -0.2697  0.4489
   34CHL1  H21A 2495   4.183   6.073   4.558 -2.1739 -0.7975  0.0590
   34CHL1  H21B 2496   4.117   6.041   4.398 -1.4206  1.2943  0.8430
   34CHL1  H21C 2497   4.223   6.191   4.431 -0.0036 -0.3700  0.2135
   34CHL1   C22 2498   4.427   6.017   4.535 -0.0886  0.8532  0.8600
   34CHL1  H22A 2499   4.508   5.943   4.518 -1.8627 -1.4591  1.8885
   34CHL1  H22B 2500   4.467   6.120   4.549  0.1707  1.0446 -1.0679
   34CHL1   C23 2501   4.389   5.966   4.674  0.2194 -0.0093  0.1050
   34CHL1  H23A 2502   4.306   6.028   4.714  1.6288  0.2365  2.8899
   34CHL1  H23B 2503   4.337   5.868   4.670  0.0450  0.0569  0.7175
   34CHL1   C24 2504   4.496   5.985   4.779  0.3522 -0.4327 -0.1410
   34CHL1  H24A 2505   4.588   5.929   4.752  1.5412  1.1626  0.4272
   34CHL1  H24B 2506   4.519   6.093   4.795 -0.2786 -0.6427  2.7296
   34CHL1   C25 2507   4.470   5.914   4.911 -0.5373 -0.3093  0.0915
   34CHL1   H25 2508   4.460   5.806   4.888 -0.6431 -0.0853 -0.9843
   34CHL1   C26 2509   4.586   5.936   5.017  0.2201  0.5421  0.3047
   34CHL1  H26A 2510   4.553   5.896   5.115 -0.0654  0.4549  0.1745
   34CHL1  H26B 2511   4.680   5.879   4.999 -0.5251 -1.0191  1.1543
   34CHL1  H26C 2512   4.602   6.046   5.015  0.4078  0.6628 -4.5860
   34CHL1   C27 2513   4.346   5.976   4.971 -0.2587  1.1360  0.1437
   34CHL1  H27A 2514   4.257   5.957   4.907  0.8221  0.3844 -1.1700
   34CHL1  H27B 2515   4.319   5.935   5.071  0.7301  0.3677  0.1041
   34CHL1  H27C 2516   4.361   6.086   4.976  2.3665  0.8358 -0.1950
   35CHL1    C3 2517   1.784   0.892   3.442  0.4532 -0.3258  0.0173
   35CHL1    H3 2518   1.857   0.812   3.418  2.3234  0.9807  1.1313
   35CHL1    O3 2519   1.771   0.974   3.331  0.1619  0.0448 -0.4238
   35CHL1   H3' 2520   1.763   0.918   3.253 -0.3374  0.1953 -0.4872
   35CHL1    C4 2521   1.649   0.832   3.487  0.3233 -0.3421  0.0377
   35CHL1   H4A 2522   1.582   0.912   3.524 -1.9518 -1.1303 -2.0873
   35CHL1   H4B 2523   1.599   0.792   3.396  0.3828  1.5700 -0.8719
   35CHL1    C5 2524   1.669   0.743   3.610 -0.5705  0.4061 -0.0869
   35CHL1    C6 2525   1.633   0.617   3.607  0.6058 -0.1429 -0.0893
   35CHL1    H6 2526   1.583   0.578   3.518  0.5682  0.0104 -0.1361
   35CHL1    C7 2527   1.653   0.521   3.725  1.0067 -0.3374 -0.9903
   35CHL1   H7A 2528   1.563   0.458   3.745  0.5438  0.4910 -0.3847
   35CHL1   H7B 2529   1.728   0.441   3.706 -0.6992 -2.3417  0.2836
   35CHL1    C8 2530   1.696   0.595   3.862 -0.0237  0.6239  0.5948
   35CHL1    H8 2531   1.613   0.657   3.902 -0.2047  1.3784 -0.8944
   35CHL1   C14 2532   1.732   0.497   3.968  0.1585 -0.1032  0.2343
   35CHL1   H14 2533   1.823   0.449   3.926 -0.6903  0.6300 -2.6618
   35CHL1   C15 2534   1.636   0.387   4.002  1.0990  0.0315 -0.7081
   35CHL1  H15A 2535   1.537   0.433   4.027  1.0114 -1.4591  2.0988
   35CHL1  H15B 2536   1.633   0.314   3.919 -2.1375  1.9529 -2.5078
   35CHL1   C16 2537   1.678   0.334   4.145 -0.5041  0.1558  0.6448
   35CHL1  H16A 2538   1.590   0.333   4.213 -0.6694  0.2517  0.4343
   35CHL1  H16B 2539   1.712   0.228   4.151 -2.4117 -0.6289 -1.0507
   35CHL1   C17 2540   1.798   0.427   4.184  0.6075 -0.0952  0.4070
   35CHL1   H17 2541   1.886   0.379   4.137  0.7064  1.8088 -1.4761
   35CHL1   C13 2542   1.775   0.558   4.102  0.6452  0.3911  0.5972
   35CHL1   C18 2543   1.661   0.642   4.180  0.3302 -0.6041  0.0587
   35CHL1  H18A 2544   1.615   0.722   4.118  0.5809 -1.0905 -0.7676
   35CHL1  H18B 2545   1.580   0.568   4.201 -0.6916  0.5237  0.2312
   35CHL1  H18C 2546   1.702   0.696   4.268  0.4304 -0.4074 -0.1093
   35CHL1   C12 2547   1.898   0.636   4.067 -0.5960 -0.0430  0.1045
   35CHL1  H12A 2548   1.932   0.685   4.161 -2.4295  1.5687  0.0084
   35CHL1  H12B 2549   1.977   0.565   4.036 -0.8253  0.0971 -0.8463
   35CHL1   C11 2550   1.869   0.747   3.959 -0.2081 -0.3652  0.0756
   35CHL1  H11A 2551   1.810   0.829   4.005  0.1913 -0.4963  0.8448
   35CHL1  H11B 2552   1.960   0.808   3.935 -1.2705  0.8760 -0.9554
   35CHL1    C9 2553   1.804   0.686   3.831 -0.1365 -0.7779  0.6632
   35CHL1    H9 2554   1.884   0.631   3.778  0.1501  1.9708 -2.0681
   35CHL1   C10 2555   1.759   0.798   3.727  0.6461 -0.0288  0.1083
   35CHL1   C19 2556   1.675   0.910   3.796 -0.5519 -0.4484 -0.0827
   35CHL1  H19A 2557   1.736   0.954   3.877 -1.3852 -1.3688  1.0832
   35CHL1  H19B 2558   1.652   0.994   3.727 -0.2900 -0.8114 -0.6164
   35CHL1  H19C 2559   1.576   0.878   3.834 -0.5048 -0.1130  0.3252
   35CHL1    C1 2560   1.886   0.868   3.669 -0.1161  0.0316  0.4923
   35CHL1   H1A 2561   1.947   0.925   3.743  0.9200  1.4336 -1.3526
   35CHL1   H1B 2562   1.942   0.782   3.627  1.1981  1.7095 -1.3761
   35CHL1    C2 2563   1.850   0.970   3.550 -0.4765 -0.3018 -0.4561
   35CHL1   H2A 2564   1.944   1.019   3.519 -1.4230  1.3267 -0.8769
   35CHL1   H2B 2565   1.790   1.054   3.591 -0.5879 -0.3408 -0.5388
   35CHL1   C20 2566   1.801   0.421   4.342 -0.5780  0.1496 -0.3967
   35CHL1   H20 2567   1.708   0.462   4.388 -1.6432 -0.3602 -2.0339
   35CHL1   C21 2568   1.924   0.514   4.385  0.5403  0.8512 -0.6042
   35CHL1  H21A 2569   2.008   0.472   4.325  0.7259  0.0128  0.2219
   35CHL1  H21B 2570   1.950   0.509   4.493  0.5839  0.8397 -0.6149
   35CHL1  H21C 2571   1.898   0.620   4.367 -1.0913  0.3611 -1.2570
   35CHL1   C22 2572   1.808   0.286   4.409  0.2355 -0.0426 -0.3891
   35CHL1  H22A 2573   1.748   0.207   4.359 -0.9302  0.0689  0.7916
   35CHL1  H22B 2574   1.912   0.248   4.401  0.9977  1.5184  1.3364
   35CHL1   C23 2575   1.776   0.297   4.563  0.9224  0.2585  0.1828
   35CHL1  H23A 2576   1.857   0.363   4.600  0.8737  0.0980  0.5891
   35CHL1  H23B 2577   1.681   0.351   4.585  0.3065  1.0033 -3.6136
   35CHL1   C24 2578   1.785   0.160   4.638 -0.1076  0.1202 -0.0853
   35CHL1  H24A 2579   1.709   0.096   4.588  0.9984 -0.0499 -1.6092
   35CHL1  H24B 2580   1.879   0.109   4.610 -1.1625 -2.4650  0.7461
   35CHL1   C25 2581   1.770   0.162   4.789 -0.1600  0.7841 -0.5851
   35CHL1   H25 2582   1.778   0.059   4.830  0.3449  1.5815  1.4602
   35CHL1   C26 2583   1.895   0.234   4.850 -0.5055  0.4610 -0.1980
   35CHL1  H26A 2584   1.907   0.332   4.798 -2.8760  0.3395 -1.1037
   35CHL1  H26B 2585   1.882   0.247   4.959  3.1921  1.8670  0.2209
   35CHL1  H26C 2586   1.983   0.173   4.821 -1.3364 -1.0719  0.3699
   35CHL1   C27 2587   1.631   0.214   4.831 -1.0896 -0.3246  0.0716
   35CHL1  H27A 2588   1.553   0.154   4.779  0.2203 -1.4275 -0.6726
   35CHL1  H27B 2589   1.623   0.203   4.941  1.2304 -0.0019  0.3135
   35CHL1  H27C 2590   1.621   0.322   4.807  0.1199 -0.3520 -0.6450
   36CHL1    C3 2591   4.542   4.822   3.283  0.2439 -0.3817  0.2077
   36CHL1    H3 2592   4.619   4.877   3.341  1.7056  1.2450 -3.0269
   36CHL1    O3 2593   4.587   4.833   3.146  0.1853 -0.2657 -0.3111
   36CHL1   H3' 2594   4.531   4.780   3.088  1.0826 -0.2977 -1.1852
   36CHL1    C4 2595   4.519   4.677   3.315  0.0483 -0.1819 -0.6932
   36CHL1   H4A 2596   4.454   4.634   3.236  0.5285 -1.8309 -0.2476
   36CHL1   H4B 2597   4.618   4.626   3.309  0.0691 -0.5286  1.8119
   36CHL1    C5 2598   4.456   4.646   3.449  0.0556 -0.0561 -0.2289
   36CHL1    C6 2599   4.505   4.556   3.537 -0.4152 -0.6439  0.0461
   36CHL1    H6 2600   4.601   4.504   3.521  1.1822  2.6519 -2.2999
   36CHL1    C7 2601   4.446   4.521   3.669  0.2360 -0.1619  0.0588
   36CHL1   H7A 2602   4.430   4.411   3.675 -1.7578  0.1324  0.9898
   36CHL1   H7B 2603   4.503   4.567   3.752 -0.2373  0.1092  0.2358
   36CHL1    C8 2604   4.305   4.581   3.684  0.0115  0.0505  0.1547
   36CHL1    H8 2605   4.239   4.520   3.619 -0.3974  0.6851 -0.0366
   36CHL1   C14 2606   4.260   4.579   3.830  0.3470 -0.5593 -0.2977
   36CHL1   H14 2607   4.319   4.656   3.884  0.5667 -2.2759  2.0579
   36CHL1   C15 2608   4.289   4.456   3.909  0.3495  0.1289 -0.3945
   36CHL1  H15A 2609   4.261   4.365   3.852  1.6938 -0.6891  0.1845
   36CHL1  H15B 2610   4.394   4.455   3.946 -0.2067 -1.0409  1.2651
   36CHL1   C16 2611   4.191   4.468   4.036  0.1761 -0.4137  0.2629
   36CHL1  H16A 2612   4.136   4.374   4.057  2.0273 -1.6324 -0.0936
   36CHL1  H16B 2613   4.246   4.487   4.131 -2.9166  1.1960  1.8814
   36CHL1   C17 2614   4.107   4.595   4.010  0.6787  0.6717  0.5604
   36CHL1   H17 2615   4.158   4.677   4.066  1.1573 -0.9732  2.6620
   36CHL1   C13 2616   4.120   4.622   3.856 -0.5653 -1.0063 -0.2391
   36CHL1   C18 2617   4.027   4.524   3.782  0.5714 -0.0200 -0.2227
   36CHL1  H18A 2618   3.925   4.548   3.820  0.8336 -1.1787  1.3234
   36CHL1  H18B 2619   4.037   4.517   3.672  0.1096 -0.3557 -0.2444
   36CHL1  H18C 2620   4.044   4.423   3.825  2.2497  0.6498  0.7923
   36CHL1   C12 2621   4.109   4.763   3.806  1.1440  0.3066 -0.5315
   36CHL1  H12A 2622   4.008   4.807   3.823  1.8718  1.5565  0.7267
   36CHL1  H12B 2623   4.174   4.831   3.866 -1.3020 -0.8975  3.9234
   36CHL1   C11 2624   4.132   4.776   3.651  0.0856 -0.2090 -0.1442
   36CHL1  H11A 2625   4.051   4.719   3.600 -0.3640  0.7000 -0.4752
   36CHL1  H11B 2626   4.133   4.885   3.630  0.0010 -0.0968  0.4337
   36CHL1    C9 2627   4.277   4.720   3.624  0.5323 -0.1070  0.1348
   36CHL1    H9 2628   4.343   4.784   3.687 -0.5491 -0.4240  1.6511
   36CHL1   C10 2629   4.324   4.724   3.478 -0.9061  0.6976 -0.1436
   36CHL1   C19 2630   4.207   4.671   3.391  0.1823 -0.4356  0.0593
   36CHL1  H19A 2631   4.173   4.576   3.436 -1.0277  0.9198  2.1834
   36CHL1  H19B 2632   4.128   4.749   3.381  0.0563 -0.3636  1.4456
   36CHL1  H19C 2633   4.245   4.659   3.287 -2.0223  2.1605 -1.1527
   36CHL1    C1 2634   4.348   4.867   3.434 -0.3277 -0.1395  0.5399
   36CHL1   H1A 2635   4.261   4.936   3.438  1.0693  1.8025 -1.0042
   36CHL1   H1B 2636   4.425   4.907   3.504 -0.0943 -1.4369  1.0668
   36CHL1    C2 2637   4.404   4.891   3.298  0.1505 -0.0840 -0.0730
   36CHL1   H2A 2638   4.417   5.001   3.288  0.4810 -0.0393  0.8003
   36CHL1   H2B 2639   4.326   4.865   3.223 -2.8429  2.5661  1.8723
   36CHL1   C20 2640   3.965   4.592   4.079 -0.2337  0.5890 -0.0626
   36CHL1   H20 2641   3.907   4.509   4.032  0.3313 -2.1773  3.6994
   36CHL1   C21 2642   3.894   4.734   4.064  0.1504 -0.0225  0.0836
   36CHL1  H21A 2643   3.951   4.813   4.117 -1.6699  1.1255  0.4055
   36CHL1  H21B 2644   3.797   4.727   4.118 -1.2596 -1.1371 -2.4139
   36CHL1  H21C 2645   3.871   4.766   3.960 -0.5025 -1.2604 -0.1780
   36CHL1   C22 2646   3.979   4.556   4.233  0.1857  0.7221 -0.4167
   36CHL1  H22A 2647   4.048   4.471   4.250  1.2184  1.9617  2.2886
   36CHL1  H22B 2648   4.044   4.634   4.280  2.3765  0.0008 -2.0395
   36CHL1   C23 2649   3.847   4.539   4.306  0.0454 -0.5536 -0.4046
   36CHL1  H23A 2650   3.791   4.633   4.325 -1.8215 -1.7996  0.6057
   36CHL1  H23B 2651   3.792   4.471   4.238 -0.7653  0.0127 -0.3255
   36CHL1   C24 2652   3.849   4.459   4.441  0.3636 -0.3002  0.0104
   36CHL1  H24A 2653   3.754   4.402   4.445  0.3311 -0.2236  0.4426
   36CHL1  H24B 2654   3.937   4.391   4.443 -0.3968 -1.4413 -2.2387
   36CHL1   C25 2655   3.857   4.549   4.566  0.5053  0.1163 -0.5535
   36CHL1   H25 2656   3.780   4.629   4.563  0.8270  0.4069 -2.0748
   36CHL1   C26 2657   3.825   4.446   4.682 -0.9300  0.3942  0.0251
   36CHL1  H26A 2658   3.735   4.389   4.651 -0.5291  0.1967 -0.8052
   36CHL1  H26B 2659   3.900   4.366   4.694 -1.3715  0.0931  0.9169
   36CHL1  H26C 2660   3.810   4.504   4.776  1.8791 -0.4196  1.0749
   36CHL1   C27 2661   3.997   4.615   4.573 -0.0305  0.8501 -0.9333
   36CHL1  H27A 2662   4.074   4.536   4.565 -1.6761 -0.7880 -1.3716
   36CHL1  H27B 2663   4.011   4.689   4.491 -1.1676  0.1134 -1.8318
   36CHL1  H27C 2664   4.003   4.672   4.668 -0.0045 -1.0215  0.2413
   37CHL1    C3 2665   5.712   0.421   3.686  0.8922  0.1618 -0.0933
   37CHL1    H3 2666   5.799   0.355   3.667 -0.1227 -1.0604 -0.6009
   37CHL1    O3 2667   5.637   0.416   3.567  0.5354  0.2134  0.1326
   37CHL1   H3' 2668   5.566   0.482   3.572 -1.2257 -1.4184 -1.6145
   37CHL1    C4 2669   5.631   0.379   3.814  0.5443  0.3821  0.7790
   37CHL1   H4A 2670   5.539   0.441   3.812 -0.3682 -0.9723 -0.7585
   37CHL1   H4B 2671   5.610   0.271   3.809 -1.9229  0.7959  1.0759
   37CHL1    C5 2672   5.702   0.411   3.946 -0.1369 -0.2557  0.2010
   37CHL1    C6 2673   5.740   0.310   4.024  0.0996  0.2886  0.1839
   37CHL1    H6 2674   5.709   0.206   4.004 -2.4390  1.0397 -0.2477
   37CHL1    C7 2675   5.818   0.335   4.154 -0.4753 -0.2533  0.2706
   37CHL1   H7A 2676   5.777   0.263   4.228 -3.5715  1.3976  0.3032
   37CHL1   H7B 2677   5.928   0.326   4.141  0.0209  4.9631 -1.2266
   37CHL1    C8 2678   5.801   0.478   4.208  0.0629 -0.2686  0.5572
   37CHL1    H8 2679   5.697   0.492   4.245 -0.0405  1.0807 -0.1825
   37CHL1   C14 2680   5.890   0.500   4.318 -0.2267 -0.1397 -0.5374
   37CHL1   H14 2681   5.994   0.492   4.281 -0.0932 -1.1196 -0.0029
   37CHL1   C15 2682   5.879   0.406   4.441  0.4616  0.2625 -0.0217
   37CHL1  H15A 2683   5.772   0.378   4.457  0.3226  0.8703  0.1353
   37CHL1  H15B 2684   5.938   0.315   4.417  1.5582  0.3634  2.0281
   37CHL1   C16 2685   5.947   0.485   4.555  0.6989  0.3748 -0.3639
   37CHL1  H16A 2686   5.886   0.479   4.647  3.0889 -1.4721  1.2316
   37CHL1  H16B 2687   6.039   0.433   4.591 -1.2556 -1.8980  1.7023
   37CHL1   C17 2688   5.984   0.625   4.501 -0.2788  0.2684  0.6931
   37CHL1   H17 2689   6.087   0.605   4.465 -0.1287  2.7623 -0.4842
   37CHL1   C13 2690   5.889   0.646   4.376 -0.4486  0.1877  0.5915
   37CHL1   C18 2691   5.748   0.693   4.430 -0.5376 -0.5436  0.2840
   37CHL1  H18A 2692   5.736   0.796   4.471 -2.7869  0.1923 -1.9903
   37CHL1  H18B 2693   5.672   0.698   4.349 -1.0952 -0.4537  0.8007
   37CHL1  H18C 2694   5.718   0.631   4.517  1.7936 -1.0389  0.8137
   37CHL1   C12 2695   5.926   0.745   4.266 -0.0709  0.1509 -0.6718
   37CHL1  H12A 2696   5.911   0.849   4.300  0.1695  0.2791 -0.9484
   37CHL1  H12B 2697   6.036   0.726   4.257  0.1591  0.6789  0.7637
   37CHL1   C11 2698   5.843   0.727   4.137  0.5983  0.2776 -0.3862
   37CHL1  H11A 2699   5.740   0.765   4.155 -0.1937 -1.5784 -0.7442
   37CHL1  H11B 2700   5.887   0.785   4.053 -0.8876  0.1173 -1.3154
   37CHL1    C9 2701   5.833   0.578   4.093 -0.4808 -0.4922 -0.3607
   37CHL1    H9 2702   5.933   0.549   4.054 -1.0054 -1.0888 -1.2992
   37CHL1   C10 2703   5.742   0.561   3.969 -0.7751  0.3163  0.2553
   37CHL1   C19 2704   5.617   0.658   3.965 -0.1829  0.7471  0.3363
   37CHL1  H19A 2705   5.555   0.639   3.875  2.9550  0.4772 -1.9166
   37CHL1  H19B 2706   5.561   0.654   4.061 -0.1552 -0.2181  0.3218
   37CHL1  H19C 2707   5.658   0.761   3.968 -0.1801  0.8856 -2.3030
   37CHL1    C1 2708   5.832   0.585   3.846 -0.1971 -0.0942  0.2312
   37CHL1   H1A 2709   5.860   0.692   3.845  1.4803 -0.4915  0.6622
   37CHL1   H1B 2710   5.926   0.525   3.851 -0.0297  0.0156 -1.3434
   37CHL1    C2 2711   5.758   0.565   3.705  0.2132  1.0535 -0.9012
   37CHL1   H2A 2712   5.826   0.604   3.626  0.2875  1.9655 -0.4008
   37CHL1   H2B 2713   5.669   0.631   3.697  0.5550  1.6259 -0.1447
   37CHL1   C20 2714   5.982   0.735   4.607  0.4240 -0.0687  0.1401
   37CHL1   H20 2715   5.881   0.779   4.621  0.0779 -0.9140  0.3579
   37CHL1   C21 2716   6.075   0.848   4.565 -0.2408  0.3542  0.0358
   37CHL1  H21A 2717   6.080   0.924   4.646 -3.0697  0.5354  0.1471
   37CHL1  H21B 2718   6.054   0.897   4.467  1.6724  0.1513 -0.5101
   37CHL1  H21C 2719   6.172   0.794   4.557 -0.2666  0.0692  1.3680
   37CHL1   C22 2720   6.032   0.680   4.748  0.2886 -0.2493 -0.2396
   37CHL1  H22A 2721   5.951   0.610   4.777 -1.1758  1.8211  0.8987
   37CHL1  H22B 2722   6.129   0.630   4.729  0.2058 -0.4384 -0.1684
   37CHL1   C23 2723   6.051   0.771   4.865 -0.3893 -0.8997  0.3662
   37CHL1  H23A 2724   6.144   0.824   4.836  0.6002 -2.0325  1.3519
   37CHL1  H23B 2725   5.971   0.847   4.876 -1.7260 -2.1911 -0.1508
   37CHL1   C24 2726   6.068   0.698   4.992  0.2627  0.0075  0.2646
   37CHL1  H24A 2727   5.971   0.648   5.012  0.3275 -0.6843 -1.0265
   37CHL1  H24B 2728   6.139   0.612   4.993  0.2763 -0.1115  4.5337
   37CHL1   C25 2729   6.121   0.779   5.108 -0.2395 -0.5303  0.0495
   37CHL1   H25 2730   6.048   0.861   5.124 -1.6154 -1.6638 -0.2970
   37CHL1   C26 2731   6.139   0.687   5.234  0.2681 -0.2237  0.2371
   37CHL1  H26A 2732   6.156   0.748   5.324 -2.5781  0.7885  0.1817
   37CHL1  H26B 2733   6.046   0.628   5.247  1.4960 -2.0351  1.1926
   37CHL1  H26C 2734   6.221   0.614   5.216 -0.2269 -0.5262 -0.9735
   37CHL1   C27 2735   6.260   0.845   5.095 -0.2686  0.1069  0.5966
   37CHL1  H27A 2736   6.254   0.931   5.026  1.7798  1.8412  2.4382
   37CHL1  H27B 2737   6.284   0.901   5.188 -1.5410 -0.0187  1.0199
   37CHL1  H27C 2738   6.329   0.762   5.070  1.5612  1.7808 -0.1171
   38CHL1    C3 2739   3.678   4.984   3.256  0.1679  0.5182 -0.1016
   38CHL1    H3 2740   3.606   5.065   3.232  0.6898  0.6213 -1.3891
   38CHL1    O3 2741   3.742   4.956   3.140 -0.1407 -0.3134  0.0474
   38CHL1   H3' 2742   3.677   4.945   3.070 -1.2588  1.0130  0.8218
   38CHL1    C4 2743   3.783   5.032   3.356  0.0774  0.6392 -0.2558
   38CHL1   H4A 2744   3.864   4.956   3.368  0.4719  0.9834 -0.6708
   38CHL1   H4B 2745   3.834   5.116   3.305  0.9275 -1.0390 -2.3636
   38CHL1    C5 2746   3.722   5.070   3.486  0.8265  0.4108 -0.1975
   38CHL1    C6 2747   3.736   5.190   3.544 -0.2280  0.2215 -0.1008
   38CHL1    H6 2748   3.790   5.260   3.479  0.7791 -1.8250 -1.5999
   38CHL1    C7 2749   3.670   5.246   3.665 -0.2084 -0.6926 -0.0367
   38CHL1   H7A 2750   3.730   5.316   3.728  1.2101  0.4569 -2.4844
   38CHL1   H7B 2751   3.582   5.307   3.636 -0.5101 -0.7609  0.7230
   38CHL1    C8 2752   3.629   5.130   3.758  0.1500  0.3296 -0.1763
   38CHL1    H8 2753   3.715   5.079   3.804  0.0714 -0.6045 -1.0416
   38CHL1   C14 2754   3.531   5.188   3.859  0.3165 -0.3671 -0.3184
   38CHL1   H14 2755   3.446   5.227   3.799 -0.5537  0.1977  1.2285
   38CHL1   C15 2756   3.573   5.314   3.933 -0.6175 -0.0549  0.0124
   38CHL1  H15A 2757   3.683   5.296   3.942 -0.1945  1.8381 -0.8545
   38CHL1  H15B 2758   3.567   5.416   3.888  0.3475 -0.0551 -0.1457
   38CHL1   C16 2759   3.489   5.302   4.061 -0.4933 -0.2186  1.1294
   38CHL1  H16A 2760   3.563   5.304   4.144 -1.0551  1.4538  1.6283
   38CHL1  H16B 2761   3.415   5.384   4.075 -0.6446 -0.2030  0.2678
   38CHL1   C17 2762   3.403   5.175   4.054  0.6688 -0.1454  0.4501
   38CHL1   H17 2763   3.310   5.209   4.003 -0.5695 -0.7711  2.1687
   38CHL1   C13 2764   3.481   5.083   3.956  0.3746  0.2879 -0.2426
   38CHL1   C18 2765   3.601   5.021   4.037 -0.1842  0.6645 -0.2000
   38CHL1  H18A 2766   3.665   4.958   3.972 -3.8941 -2.6969 -0.9121
   38CHL1  H18B 2767   3.654   5.100   4.095  1.4333 -1.1171  0.9033
   38CHL1  H18C 2768   3.564   4.947   4.111  1.6798 -0.4159 -0.2864
   38CHL1   C12 2769   3.395   4.977   3.879  0.2861  0.7310 -0.2228
   38CHL1  H12A 2770   3.377   4.888   3.943 -0.6679  1.4561  0.5540
   38CHL1  H12B 2771   3.302   5.021   3.838  0.2170  0.9229  0.1343
   38CHL1   C11 2772   3.472   4.910   3.757 -0.2777 -0.3798 -0.0818
   38CHL1  H11A 2773   3.556   4.847   3.795 -0.3376 -0.7149 -0.4872
   38CHL1  H11B 2774   3.403   4.850   3.693  0.0735  0.2668 -1.0964
   38CHL1    C9 2775   3.550   5.027   3.673  0.3632  0.4504  0.3462
   38CHL1    H9 2776   3.473   5.087   3.620 -1.8581 -3.7386 -1.6349
   38CHL1   C10 2777   3.631   4.965   3.549  0.1592  0.0428 -0.1507
   38CHL1   C19 2778   3.736   4.857   3.600  0.8112 -0.1306  0.3151
   38CHL1  H19A 2779   3.676   4.773   3.641  0.4070  0.5687  1.2147
   38CHL1  H19B 2780   3.807   4.823   3.523  0.5583  2.9283 -1.4650
   38CHL1  H19C 2781   3.787   4.898   3.690 -0.0196 -0.2897  0.8706
   38CHL1    C1 2782   3.535   4.900   3.443 -0.1596  0.2092 -0.3726
   38CHL1   H1A 2783   3.507   4.804   3.493  0.8641  1.6850  3.3229
   38CHL1   H1B 2784   3.448   4.967   3.426 -1.4191 -1.2665 -0.0163
   38CHL1    C2 2785   3.600   4.864   3.310  0.0473 -0.2051 -0.7617
   38CHL1   H2A 2786   3.522   4.840   3.235  0.7991  1.7967 -2.2946
   38CHL1   H2B 2787   3.664   4.777   3.333  0.7702  0.3336 -0.6895
   38CHL1   C20 2788   3.368   5.130   4.198 -0.1841  0.3226 -0.4940
   38CHL1   H20 2789   3.463   5.108   4.252 -1.7238 -0.3090  2.0979
   38CHL1   C21 2790   3.292   4.998   4.202  0.6920  0.5164  0.2855
   38CHL1  H21A 2791   3.247   4.970   4.299 -0.4955  0.4814 -0.2571
   38CHL1  H21B 2792   3.338   4.918   4.140 -0.8069  1.4571 -2.2156
   38CHL1  H21C 2793   3.195   5.017   4.151  1.2766  2.9205 -0.0488
   38CHL1   C22 2794   3.291   5.242   4.274 -0.0823  0.5828  0.3135
   38CHL1  H22A 2795   3.328   5.344   4.250 -0.0522  0.0952 -1.9660
   38CHL1  H22B 2796   3.183   5.239   4.248 -0.8854 -3.5716  3.0471
   38CHL1   C23 2797   3.294   5.223   4.429  0.1094  0.1323  0.0813
   38CHL1  H23A 2798   3.260   5.120   4.455  0.2544 -0.4151 -1.7251
   38CHL1  H23B 2799   3.395   5.241   4.470 -0.8649  3.2840  1.3832
   38CHL1   C24 2800   3.187   5.315   4.496 -0.1084  0.1188 -0.6322
   38CHL1  H24A 2801   3.218   5.422   4.487  2.7361 -0.5769 -0.1281
   38CHL1  H24B 2802   3.090   5.293   4.446  0.3841 -3.6993 -0.2209
   38CHL1   C25 2803   3.175   5.291   4.648 -0.4971 -0.0011  0.2726
   38CHL1   H25 2804   3.281   5.287   4.681  0.3473 -1.4096 -2.3554
   38CHL1   C26 2805   3.104   5.407   4.717 -0.2118  0.0429  0.6500
   38CHL1  H26A 2806   3.091   5.397   4.827 -1.6620 -2.1287  0.3384
   38CHL1  H26B 2807   3.163   5.501   4.705  0.8092 -0.4843  1.3569
   38CHL1  H26C 2808   3.002   5.426   4.676 -0.5530 -2.4721  0.1890
   38CHL1   C27 2809   3.114   5.156   4.684  0.3917 -0.5191 -0.0312
   38CHL1  H27A 2810   3.104   5.128   4.791 -0.2026 -2.7461 -0.6185
   38CHL1  H27B 2811   3.016   5.144   4.632  2.3156 -0.9035 -3.9710
   38CHL1  H27C 2812   3.171   5.067   4.649  0.7965 -0.2366 -0.1018
   39CHL1    C3 2813   3.346   2.641   3.323 -0.2283 -0.5661  0.4414
   39CHL1    H3 2814   3.237   2.640   3.349 -0.4928 -0.6570 -0.6198
   39CHL1    O3 2815   3.363   2.669   3.184  0.3459  0.0532  0.5528
   39CHL1   H3' 2816   3.287   2.722   3.159  0.3683 -0.4100 -0.5873
   39CHL1    C4 2817   3.405   2.752   3.412  0.7655  1.3381 -0.1751
   39CHL1   H4A 2818   3.510   2.780   3.391  0.4098  3.7763  0.9096
   39CHL1   H4B 2819   3.345   2.842   3.384 -1.4597  0.1247  0.4923
   39CHL1    C5 2820   3.383   2.729   3.559  0.0217  0.1188  0.6169
   39CHL1    C6 2821   3.319   2.816   3.642  0.2418  0.6361 -0.3656
   39CHL1    H6 2822   3.283   2.913   3.604  0.5345  0.8731 -0.0395
   39CHL1    C7 2823   3.284   2.783   3.788 -0.3194  0.0217  1.0999
   39CHL1   H7A 2824   3.293   2.869   3.857  1.5480 -1.3198  2.6243
   39CHL1   H7B 2825   3.179   2.750   3.800 -0.1023 -1.6395 -0.8951
   39CHL1    C8 2826   3.368   2.669   3.848 -0.3490  0.5795  0.1033
   39CHL1    H8 2827   3.473   2.705   3.857 -0.7951  1.8399  0.5401
   39CHL1   C14 2828   3.303   2.625   3.985  0.5232 -0.3715 -0.6219
   39CHL1   H14 2829   3.199   2.588   3.975  0.5180 -0.3887 -0.4964
   39CHL1   C15 2830   3.281   2.741   4.102  0.1128  0.0355  0.0164
   39CHL1  H15A 2831   3.378   2.795   4.109 -0.5636  1.1550  1.1275
   39CHL1  H15B 2832   3.194   2.807   4.079 -0.1280 -0.4895 -0.5998
   39CHL1   C16 2833   3.263   2.651   4.229 -0.6971 -0.4422 -0.6043
   39CHL1  H16A 2834   3.334   2.690   4.305 -1.3743  0.6285 -0.5061
   39CHL1  H16B 2835   3.160   2.666   4.265  0.1619  1.7709  1.2001
   39CHL1   C17 2836   3.295   2.510   4.190 -0.2191 -0.1689  0.2897
   39CHL1   H17 2837   3.194   2.475   4.159 -0.9837  1.4342  0.8340
   39CHL1   C13 2838   3.375   2.508   4.054  1.2445  0.1410  0.4057
   39CHL1   C18 2839   3.519   2.544   4.086 -0.0670 -0.1951  0.2660
   39CHL1  H18A 2840   3.563   2.479   4.164  2.9973  1.7251  0.3104
   39CHL1  H18B 2841   3.580   2.527   3.994  0.6432 -0.3579  0.7564
   39CHL1  H18C 2842   3.527   2.650   4.119  2.4745  0.5044 -2.1387
   39CHL1   C12 2843   3.371   2.384   3.959  0.3403 -0.3330 -0.0909
   39CHL1  H12A 2844   3.431   2.308   4.012  3.8030  2.0212 -0.3116
   39CHL1  H12B 2845   3.263   2.360   3.965  0.5578 -0.9472  2.1891
   39CHL1   C11 2846   3.418   2.425   3.814 -0.4908  0.0862  0.5380
   39CHL1  H11A 2847   3.528   2.430   3.830 -0.3812 -0.0322 -0.1502
   39CHL1  H11B 2848   3.389   2.345   3.743  2.7475 -1.0304  0.2993
   39CHL1    C9 2849   3.366   2.552   3.752 -0.4118 -0.0079  0.2317
   39CHL1    H9 2850   3.257   2.534   3.748 -0.4767  0.2350  0.7501
   39CHL1   C10 2851   3.423   2.588   3.614 -0.2910 -0.1987  0.8056
   39CHL1   C19 2852   3.582   2.590   3.608 -0.3243  0.7546  0.7077
   39CHL1  H19A 2853   3.621   2.656   3.688 -1.1890  2.6589 -0.3854
   39CHL1  H19B 2854   3.616   2.485   3.618  1.3139  0.8006 -2.9160
   39CHL1  H19C 2855   3.621   2.636   3.515  0.2770  0.7949  0.9803
   39CHL1    C1 2856   3.378   2.480   3.507  0.2237  0.7432 -0.5136
   39CHL1   H1A 2857   3.422   2.380   3.528 -2.8491 -0.7332 -0.5280
   39CHL1   H1B 2858   3.269   2.460   3.519  0.4061 -0.5621 -0.8540
   39CHL1    C2 2859   3.407   2.511   3.360  0.3521 -0.4285  0.2017
   39CHL1   H2A 2860   3.368   2.435   3.289  0.3220 -0.8017  0.6178
   39CHL1   H2B 2861   3.517   2.512   3.346  0.4162 -1.2452  0.5853
   39CHL1   C20 2862   3.325   2.415   4.310  0.2469  0.2961 -0.1437
   39CHL1   H20 2863   3.426   2.430   4.354  1.0840 -3.8182 -0.2435
   39CHL1   C21 2864   3.329   2.271   4.259  0.0273  0.2859  0.2955
   39CHL1  H21A 2865   3.277   2.260   4.161 -2.2136 -1.6503  1.6189
   39CHL1  H21B 2866   3.300   2.192   4.331  0.5221 -1.1402 -1.0091
   39CHL1  H21C 2867   3.437   2.249   4.250  0.0607  0.3786  0.4700
   39CHL1   C22 2868   3.223   2.419   4.426 -0.6046  0.3825 -0.0463
   39CHL1  H22A 2869   3.207   2.521   4.467  1.3724  0.9460 -0.5993
   39CHL1  H22B 2870   3.123   2.376   4.401 -2.1393  2.2859  2.2775
   39CHL1   C23 2871   3.269   2.336   4.552  0.5440 -0.0066  0.3200
   39CHL1  H23A 2872   3.294   2.234   4.515  1.7426  0.6410 -0.7602
   39CHL1  H23B 2873   3.356   2.382   4.604  0.5253 -0.8592  1.1273
   39CHL1   C24 2874   3.166   2.316   4.662 -0.1570 -0.1232  0.2374
   39CHL1  H24A 2875   3.138   2.416   4.702  2.3702  2.3457 -3.5145
   39CHL1  H24B 2876   3.084   2.257   4.615 -0.0431 -0.0282 -0.0770
   39CHL1   C25 2877   3.227   2.222   4.770  0.2218  0.0845  0.3386
   39CHL1   H25 2878   3.334   2.243   4.792  0.2759  0.9514 -0.6889
   39CHL1   C26 2879   3.149   2.247   4.905  0.5119  0.2036  0.0131
   39CHL1  H26A 2880   3.049   2.198   4.907 -0.8465  2.7812 -0.7047
   39CHL1  H26B 2881   3.207   2.203   4.989 -1.4537 -2.0516  0.3323
   39CHL1  H26C 2882   3.146   2.358   4.911  0.0082  0.1764  0.4069
   39CHL1   C27 2883   3.220   2.075   4.741  0.5598  0.3777  0.0905
   39CHL1  H27A 2884   3.279   2.046   4.652 -0.2721 -0.9796 -0.0495
   39CHL1  H27B 2885   3.281   2.026   4.820  0.4281  0.8916  0.5194
   39CHL1  H27C 2886   3.114   2.040   4.739  1.1674 -1.6386 -1.7599
   40CHL1    C3 2887   6.315   2.747   3.703 -0.3383  0.3870 -0.0745
   40CHL1    H3 2888   6.206   2.768   3.699 -1.0914 -2.9920 -0.1442
   40CHL1    O3 2889   6.353   2.735   3.566  0.5322  0.7185 -0.0500
   40CHL1   H3' 2890   6.289   2.668   3.540 -0.0836  0.4178  2.0629
   40CHL1    C4 2891   6.389   2.870   3.767  0.4157  1.0427 -0.0496
   40CHL1   H4A 2892   6.497   2.852   3.749 -0.4886 -2.3864 -3.3967
   40CHL1   H4B 2893   6.366   2.960   3.705 -3.1468  0.6471  0.5151
   40CHL1    C5 2894   6.359   2.881   3.913  0.7402 -0.1837  0.5579
   40CHL1    C6 2895   6.305   2.993   3.964  0.3695  0.0735 -0.3684
   40CHL1    H6 2896   6.291   3.081   3.900 -0.7865  1.2445  1.4079
   40CHL1    C7 2897   6.279   3.013   4.111 -0.2552 -0.1384 -0.0568
   40CHL1   H7A 2898   6.299   3.119   4.138 -0.6591 -0.1501  0.3204
   40CHL1   H7B 2899   6.171   2.992   4.131 -1.3512  1.1398 -3.9293
   40CHL1    C8 2900   6.349   2.909   4.197  0.2809  0.4622 -0.0875
   40CHL1    H8 2901   6.459   2.924   4.196  0.3027  0.3136 -0.0242
   40CHL1   C14 2902   6.302   2.922   4.341 -0.3475  0.1630  0.4246
   40CHL1   H14 2903   6.194   2.896   4.334 -0.2835 -1.6494  4.0406
   40CHL1   C15 2904   6.314   3.058   4.423 -0.5097  0.1295  0.2978
   40CHL1  H15A 2905   6.422   3.083   4.430 -0.3816 -0.1097 -0.6764
   40CHL1  H15B 2906   6.252   3.139   4.381  0.3802  0.0396 -1.2606
   40CHL1   C16 2907   6.269   3.011   4.562 -0.3414 -1.1192  0.5406
   40CHL1  H16A 2908   6.326   3.059   4.644 -1.5418  0.5738  0.4332
   40CHL1  H16B 2909   6.164   3.047   4.560  0.0891  0.1572  0.5489
   40CHL1   C17 2910   6.259   2.853   4.564 -0.4028 -0.0052 -0.4243
   40CHL1   H17 2911   6.151   2.830   4.552 -0.4044 -0.4321  0.3308
   40CHL1   C13 2912   6.346   2.811   4.446 -0.7441  0.1060  0.3385
   40CHL1   C18 2913   6.498   2.838   4.472 -0.2558 -0.3507 -0.1024
   40CHL1  H18A 2914   6.552   2.854   4.377 -0.7383  0.3959 -0.2551
   40CHL1  H18B 2915   6.504   2.931   4.532 -2.3762  1.3248 -2.2940
   40CHL1  H18C 2916   6.549   2.753   4.524 -0.7835 -1.2861 -1.0812
   40CHL1   C12 2917   6.312   2.676   4.382  0.5182 -0.0812 -0.2578
   40CHL1  H12A 2918   6.342   2.589   4.445 -4.1228 -1.9073 -0.0980
   40CHL1  H12B 2919   6.201   2.676   4.369  0.0816 -0.9766  2.6081
   40CHL1   C11 2920   6.372   2.663   4.241  0.1137 -0.3050 -0.6918
   40CHL1  H11A 2921   6.480   2.643   4.262  0.2409  0.0987 -0.9422
   40CHL1  H11B 2922   6.339   2.565   4.201 -0.6186  0.2040 -1.3466
   40CHL1    C9 2923   6.333   2.770   4.140  0.0536  0.7879  0.5446
   40CHL1    H9 2924   6.226   2.750   4.118  0.8361 -2.2955 -1.1323
   40CHL1   C10 2925   6.382   2.754   3.997 -0.1759  0.0880  1.0915
   40CHL1   C19 2926   6.533   2.723   3.997 -0.3563 -0.3371 -0.4506
   40CHL1  H19A 2927   6.551   2.626   4.046 -0.0789 -1.6006 -2.8803
   40CHL1  H19B 2928   6.562   2.708   3.891  1.7605  2.0497 -0.3120
   40CHL1  H19C 2929   6.597   2.803   4.040  0.2165  0.3296 -2.4025
   40CHL1    C1 2930   6.305   2.634   3.929 -0.8404  0.7743  0.2110
   40CHL1   H1A 2931   6.307   2.541   3.988  0.8082  2.3439  2.8188
   40CHL1   H1B 2932   6.196   2.658   3.930 -0.7445  1.2589  2.0006
   40CHL1    C2 2933   6.336   2.612   3.779 -0.1275  0.4801  0.2469
   40CHL1   H2A 2934   6.273   2.535   3.730  1.2562  0.7138 -2.0597
   40CHL1   H2B 2935   6.444   2.585   3.774 -0.4243 -0.7189 -0.1272
   40CHL1   C20 2936   6.280   2.796   4.710 -0.1921 -0.4092 -0.1263
   40CHL1   H20 2937   6.371   2.841   4.755  0.1079  0.7455 -1.7973
   40CHL1   C21 2938   6.292   2.647   4.703 -0.1713 -0.4639 -0.1108
   40CHL1  H21A 2939   6.212   2.615   4.632  1.5325 -1.2329 -1.7663
   40CHL1  H21B 2940   6.260   2.600   4.798 -2.1707 -1.7666 -1.3376
   40CHL1  H21C 2941   6.394   2.617   4.671 -0.8244 -0.1689 -2.7963
   40CHL1   C22 2942   6.162   2.846   4.805 -1.1762 -0.1225 -1.1017
   40CHL1  H22A 2943   6.137   2.950   4.774  0.5960  0.3773 -0.9471
   40CHL1  H22B 2944   6.075   2.783   4.775 -1.6041  0.8644 -1.9896
   40CHL1   C23 2945   6.192   2.843   4.962 -0.3567  0.0047  0.7554
   40CHL1  H23A 2946   6.221   2.737   4.979 -0.0572 -0.3437 -1.6804
   40CHL1  H23B 2947   6.278   2.909   4.987  1.3120 -1.4513 -0.9178
   40CHL1   C24 2948   6.061   2.885   5.032  0.2730 -0.0156  0.0759
   40CHL1  H24A 2949   6.017   2.962   4.966  0.6932 -0.8283 -1.1821
   40CHL1  H24B 2950   5.992   2.799   5.029 -2.2407  1.9280 -2.2690
   40CHL1   C25 2951   6.074   2.921   5.180  0.3265 -0.2241  0.5965
   40CHL1   H25 2952   6.155   2.997   5.190  0.0116  0.2158 -0.1551
   40CHL1   C26 2953   5.951   2.981   5.249 -0.4436  0.0620  0.5236
   40CHL1  H26A 2954   5.872   2.903   5.250 -0.5641  0.1787  1.5221
   40CHL1  H26B 2955   5.981   2.998   5.355 -0.4121 -1.5830  0.8131
   40CHL1  H26C 2956   5.919   3.078   5.206 -3.1532 -1.1908 -0.5452
   40CHL1   C27 2957   6.122   2.802   5.267  0.0211 -0.2285 -0.0179
   40CHL1  H27A 2958   6.031   2.744   5.292 -2.2170  2.9582 -0.0744
   40CHL1  H27B 2959   6.193   2.743   5.206 -1.8980 -0.9924 -1.6212
   40CHL1  H27C 2960   6.169   2.836   5.361  0.3715 -1.0227  0.0989
   41CHL1    C3 2961   4.923   1.975   3.392  0.6630  0.1728 -1.2814
   41CHL1    H3 2962   5.000   2.047   3.429  0.5430 -0.4789  0.3275
   41CHL1    O3 2963   4.916   1.981   3.249 -0.2062  0.0480  0.3092
   41CHL1   H3' 2964   4.822   1.973   3.233 -0.1500 -0.9053  0.3584
   41CHL1    C4 2965   4.953   1.827   3.436  0.0641  0.5321  0.4594
   41CHL1   H4A 2966   4.876   1.767   3.384 -0.4873  0.7081  1.0678
   41CHL1   H4B 2967   5.047   1.799   3.384 -0.4673  1.9274 -1.3756
   41CHL1    C5 2968   4.962   1.816   3.585  0.8916  0.0084  0.2007
   41CHL1    C6 2969   5.071   1.773   3.652  0.3984 -0.1369  0.6043
   41CHL1    H6 2970   5.158   1.724   3.605 -1.2581 -2.1032 -0.5841
   41CHL1    C7 2971   5.072   1.762   3.802 -0.4091 -0.0127  0.5762
   41CHL1   H7A 2972   5.107   1.661   3.833  0.1394 -0.0740 -0.2122
   41CHL1   H7B 2973   5.149   1.831   3.843 -0.6184  1.1964 -0.9781
   41CHL1    C8 2974   4.938   1.781   3.871 -0.6963 -0.2642 -0.1530
   41CHL1    H8 2975   4.876   1.689   3.871  0.5773 -1.1708  1.3684
   41CHL1   C14 2976   4.971   1.817   4.015  0.0824 -0.5282 -1.1084
   41CHL1   H14 2977   5.017   1.918   4.004  0.9407 -0.6276  0.9621
   41CHL1   C15 2978   5.073   1.727   4.102 -0.9449  0.3896 -0.0707
   41CHL1  H15A 2979   5.070   1.620   4.072 -0.1736  0.6353 -1.0907
   41CHL1  H15B 2980   5.180   1.751   4.084 -0.3867 -1.3573  0.7204
   41CHL1   C16 2981   5.034   1.752   4.249  1.0262  0.3858 -0.2710
   41CHL1  H16A 2982   4.987   1.659   4.286 -1.1311  1.2796 -0.6318
   41CHL1  H16B 2983   5.119   1.779   4.316  1.1919 -0.5236 -0.1134
   41CHL1   C17 2984   4.916   1.855   4.247  0.4835 -0.2998 -0.3816
   41CHL1   H17 2985   4.947   1.962   4.244  1.6787 -0.6429 -0.6741
   41CHL1   C13 2986   4.848   1.832   4.106  1.1714  0.4975 -0.5401
   41CHL1   C18 2987   4.768   1.698   4.110 -0.5544  0.1974  0.2272
   41CHL1  H18A 2988   4.732   1.653   4.015 -1.8539 -1.7998  1.6170
   41CHL1  H18B 2989   4.828   1.616   4.155  0.2212  1.0510  0.7839
   41CHL1  H18C 2990   4.678   1.703   4.174 -0.3079 -3.5779  1.0441
   41CHL1   C12 2991   4.759   1.943   4.046  0.2535 -0.0703  0.2860
   41CHL1  H12A 2992   4.662   1.949   4.101  0.6780  1.5022  0.9310
   41CHL1  H12B 2993   4.804   2.043   4.064  1.6934 -0.6850  0.2019
   41CHL1   C11 2994   4.733   1.923   3.895  0.5770  0.4855  0.2999
   41CHL1  H11A 2995   4.662   1.840   3.878 -1.5973  2.1960  0.5922
   41CHL1  H11B 2996   4.678   2.017   3.873  0.5597  0.1454 -1.1502
   41CHL1    C9 2997   4.859   1.900   3.809 -0.0961 -0.6305  0.1109
   41CHL1    H9 2998   4.926   1.988   3.817  0.0535 -0.4902 -2.0384
   41CHL1   C10 2999   4.835   1.873   3.655 -0.4821 -0.0800  0.0370
   41CHL1   C19 3000   4.733   1.762   3.639  0.1360 -0.1337  0.0429
   41CHL1  H19A 3001   4.705   1.736   3.535  0.4348 -0.6266  0.0784
   41CHL1  H19B 3002   4.766   1.665   3.683 -0.4286 -0.0893  0.5710
   41CHL1  H19C 3003   4.631   1.779   3.678  0.0680  0.5253 -0.4156
   41CHL1    C1 3004   4.775   1.998   3.592 -0.0891  0.2133  0.6735
   41CHL1   H1A 3005   4.667   2.006   3.616  0.0177 -0.5555  1.4478
   41CHL1   H1B 3006   4.820   2.085   3.645 -0.3014  1.4968 -1.1677
   41CHL1    C2 3007   4.781   2.017   3.442 -0.0724  0.6150  1.1917
   41CHL1   H2A 3008   4.750   2.122   3.419 -0.7530  0.2848  0.5775
   41CHL1   H2B 3009   4.712   1.943   3.396 -0.6369  0.9927  1.4228
   41CHL1   C20 3010   4.829   1.843   4.372 -0.1158  0.1108 -0.1317
   41CHL1   H20 3011   4.778   1.745   4.386 -0.4299  0.3911  0.7768
   41CHL1   C21 3012   4.713   1.940   4.349  0.5707 -0.1034  0.0978
   41CHL1  H21A 3013   4.652   1.947   4.441 -2.9842  2.1681 -2.1559
   41CHL1  H21B 3014   4.631   1.902   4.285  0.3052  2.1519 -1.0043
   41CHL1  H21C 3015   4.745   2.043   4.320 -2.5319  0.2134 -2.7461
   41CHL1   C22 3016   4.921   1.871   4.500  0.6171  1.0787 -0.3626
   41CHL1  H22A 3017   5.005   1.800   4.509 -0.3014  0.2183  2.3681
   41CHL1  H22B 3018   4.963   1.972   4.482  0.1117  1.1244 -1.3793
   41CHL1   C23 3019   4.849   1.861   4.634 -0.1346 -0.4868  0.3230
   41CHL1  H23A 3020   4.779   1.947   4.643  2.2306  1.4108  1.8726
   41CHL1  H23B 3021   4.795   1.767   4.660  0.8090 -1.2430 -0.3560
   41CHL1   C24 3022   4.942   1.883   4.763 -0.5808  0.7137  0.0339
   41CHL1  H24A 3023   5.019   1.804   4.755 -1.7499 -0.5036  0.3715
   41CHL1  H24B 3024   4.987   1.984   4.756  0.0881  0.3173 -1.7636
   41CHL1   C25 3025   4.860   1.868   4.895  0.4847  0.4162 -0.5339
   41CHL1   H25 3026   4.779   1.795   4.872 -3.7039  3.2312  3.3982
   41CHL1   C26 3027   4.950   1.831   5.015 -0.2376  0.3271 -0.4439
   41CHL1  H26A 3028   4.883   1.802   5.098 -1.8952  0.2175 -1.7537
   41CHL1  H26B 3029   5.023   1.752   4.984 -0.1429  0.3858 -0.3710
   41CHL1  H26C 3030   5.008   1.921   5.043 -0.3931  0.5370 -0.7873
   41CHL1   C27 3031   4.767   1.987   4.923  0.3304  0.1081 -0.0152
   41CHL1  H27A 3032   4.708   1.967   5.015  0.1859 -1.5250 -0.4341
   41CHL1  H27B 3033   4.824   2.081   4.936  0.4926 -0.2382  2.2294
   41CHL1  H27C 3034   4.691   2.001   4.843 -1.1342  1.8092  1.5613
   42CHL1    C3 3035   0.685   6.714   3.848 -0.2453 -0.1489  0.1781
   42CHL1    H3 3036   0.783   6.765   3.854 -0.5607  0.4837 -0.0774
   42CHL1    O3 3037   0.652   6.705   3.708 -0.1353 -0.0710 -0.8356
   42CHL1   H3' 3038   0.596   6.628   3.700 -1.6958  1.1616 -2.8629
   42CHL1    C4 3039   0.701   6.572   3.908  0.1560  0.0584  0.2804
   42CHL1   H4A 3040   0.608   6.515   3.888  1.1086 -1.6983  0.6811
   42CHL1   H4B 3041   0.787   6.521   3.859 -0.8751 -3.4391  1.8214
   42CHL1    C5 3042   0.738   6.584   4.053  0.1859 -0.0148  0.0786
   42CHL1    C6 3043   0.855   6.535   4.104 -0.7231  0.1789 -0.2299
   42CHL1    H6 3044   0.926   6.486   4.036 -1.0713 -1.2534  0.4176
   42CHL1    C7 3045   0.892   6.526   4.246 -0.8235 -0.6864 -0.7580
   42CHL1   H7A 3046   0.935   6.427   4.271 -0.6150 -0.5365 -0.5093
   42CHL1   H7B 3047   0.973   6.603   4.251  1.1013 -2.3191 -3.6326
   42CHL1    C8 3048   0.779   6.566   4.345 -0.7716 -0.0360  0.0168
   42CHL1    H8 3049   0.711   6.478   4.351 -0.2729 -0.3389  2.0255
   42CHL1   C14 3050   0.833   6.596   4.486 -0.6581  0.7295 -1.1955
   42CHL1   H14 3051   0.908   6.679   4.483  0.5331 -0.2758 -0.5056
   42CHL1   C15 3052   0.922   6.487   4.564 -0.1963  0.1871  0.4315
   42CHL1  H15A 3053   0.870   6.389   4.570  0.6303 -0.2851 -0.0510
   42CHL1  H15B 3054   1.023   6.484   4.517  0.5086 -0.2561  1.9150
   42CHL1   C16 3055   0.927   6.545   4.709  1.1480 -0.2507 -0.2224
   42CHL1  H16A 3056   0.893   6.463   4.775  1.8544 -0.8429 -0.5782
   42CHL1  H16B 3057   1.029   6.579   4.738  1.2162 -2.0624  1.9635
   42CHL1   C17 3058   0.817   6.662   4.714 -0.3286 -0.2054 -0.1093
   42CHL1   H17 3059   0.871   6.758   4.699 -0.4528  0.0888  1.1968
   42CHL1   C13 3060   0.731   6.651   4.588  0.2582  0.0701  0.7684
   42CHL1   C18 3061   0.615   6.542   4.605 -0.4420  0.1593  0.3028
   42CHL1  H18A 3062   0.575   6.506   4.508  2.6908 -1.6721 -0.4463
   42CHL1  H18B 3063   0.667   6.450   4.640 -0.8737  0.1633  0.9783
   42CHL1  H18C 3064   0.536   6.579   4.674 -1.4304 -0.1116 -0.6446
   42CHL1   C12 3065   0.662   6.777   4.531  0.0636 -0.4008  0.6062
   42CHL1  H12A 3066   0.576   6.824   4.583 -0.8974  0.9888 -2.0134
   42CHL1  H12B 3067   0.737   6.859   4.534 -0.8060  0.4030  0.8960
   42CHL1   C11 3068   0.607   6.754   4.387 -0.3876  0.1592  0.0198
   42CHL1  H11A 3069   0.513   6.696   4.402  1.1447 -2.4611  0.1706
   42CHL1  H11B 3070   0.582   6.855   4.350  2.1748  0.8591  0.0569
   42CHL1    C9 3071   0.705   6.690   4.290  0.5593 -0.0084 -0.3548
   42CHL1    H9 3072   0.791   6.760   4.280  2.4118 -1.7542  1.9016
   42CHL1   C10 3073   0.650   6.668   4.150  0.3897  0.7737  0.1500
   42CHL1   C19 3074   0.520   6.582   4.158 -0.1344 -0.5831 -0.1022
   42CHL1  H19A 3075   0.527   6.488   4.216 -2.8494 -0.0837  1.1963
   42CHL1  H19B 3076   0.443   6.642   4.210 -0.4797 -1.0297 -0.0948
   42CHL1  H19C 3077   0.468   6.565   4.061 -0.8749 -1.1487  0.3775
   42CHL1    C1 3078   0.618   6.799   4.080  0.1619  0.0501 -0.1385
   42CHL1   H1A 3079   0.532   6.845   4.134 -0.1858 -0.9593  0.1945
   42CHL1   H1B 3080   0.704   6.868   4.084 -0.2720  0.5639  2.0890
   42CHL1    C2 3081   0.578   6.785   3.933  0.1946 -0.1738 -0.2095
   42CHL1   H2A 3082   0.557   6.881   3.882  2.4311  0.4342 -0.0743
   42CHL1   H2B 3083   0.480   6.732   3.926 -0.1066  0.4352 -0.6603
   42CHL1   C20 3084   0.750   6.677   4.853  1.0657 -0.2716  0.1766
   42CHL1   H20 3085   0.697   6.580   4.862 -1.1162  0.8454  0.1599
   42CHL1   C21 3086   0.654   6.801   4.864  0.2730  0.1586 -0.8630
   42CHL1  H21A 3087   0.574   6.797   4.787 -1.4604 -0.8859  0.8907
   42CHL1  H21B 3088   0.710   6.896   4.853 -0.2593  0.6627  0.5617
   42CHL1  H21C 3089   0.601   6.807   4.961  0.3069 -0.9423 -0.7634
   42CHL1   C22 3090   0.855   6.687   4.970  0.2432  0.3608  0.1611
   42CHL1  H22A 3091   0.936   6.612   4.955 -0.4314 -0.5565  0.9463
   42CHL1  H22B 3092   0.915   6.778   4.947  0.2368  0.1119 -0.9084
   42CHL1   C23 3093   0.801   6.695   5.112 -0.1154  0.7008 -0.0908
   42CHL1  H23A 3094   0.747   6.790   5.135 -1.8372 -0.8602  3.1140
   42CHL1  H23B 3095   0.727   6.612   5.117  0.1828  0.3610 -1.1636
   42CHL1   C24 3096   0.893   6.665   5.230 -0.1568  0.1893  0.3276
   42CHL1  H24A 3097   0.826   6.670   5.319  0.3781 -1.4679  0.8540
   42CHL1  H24B 3098   0.935   6.563   5.224  0.9641  0.6557  0.0135
   42CHL1   C25 3099   1.001   6.766   5.246  0.2874 -0.2574  0.5491
   42CHL1   H25 3100   1.074   6.755   5.162  0.7967 -1.1577  1.0954
   42CHL1   C26 3101   0.962   6.912   5.254  0.7616  0.0592 -0.2016
   42CHL1  H26A 3102   0.894   6.926   5.341 -0.2660  2.8826 -1.3553
   42CHL1  H26B 3103   1.055   6.972   5.261  0.0329  1.0905  1.1171
   42CHL1  H26C 3104   0.913   6.940   5.159 -1.1968 -0.2139  0.6937
   42CHL1   C27 3105   1.091   6.730   5.363  0.9049  0.6124 -0.0233
   42CHL1  H27A 3106   1.122   6.623   5.357 -0.6171  0.1425  0.0354
   42CHL1  H27B 3107   1.177   6.800   5.376  0.9407  0.2488  1.9882
   42CHL1  H27C 3108   1.028   6.737   5.454  0.1682 -1.5231 -0.3150
   43CHL1    C3 3109   2.391   2.662   3.542 -0.4217  0.2362 -0.3488
   43CHL1    H3 3110   2.313   2.588   3.517  1.6882 -2.3731  0.2899
   43CHL1    O3 3111   2.440   2.715   3.422  0.1332 -0.4265  0.2950
   43CHL1   H3' 3112   2.493   2.646   3.383 -1.2127 -1.6117  0.4954
   43CHL1    C4 3113   2.339   2.779   3.625  0.1555 -0.0601 -0.2314
   43CHL1   H4A 3114   2.425   2.849   3.623 -1.0214  1.3932 -1.3281
   43CHL1   H4B 3115   2.258   2.829   3.569 -0.4386  0.5911  1.1491
   43CHL1    C5 3116   2.301   2.746   3.767  0.5489  0.0082  0.5528
   43CHL1    C6 3117   2.177   2.777   3.812  0.6214  0.3463 -0.2075
   43CHL1    H6 3118   2.104   2.829   3.749  1.5438  1.0696 -0.7078
   43CHL1    C7 3119   2.137   2.747   3.950  1.1962 -0.3409 -0.5152
   43CHL1   H7A 3120   2.095   2.842   3.988  3.4063 -0.0749  1.5133
   43CHL1   H7B 3121   2.055   2.672   3.946 -0.3997  1.3581 -1.0054
   43CHL1    C8 3122   2.246   2.701   4.048 -0.1673 -0.1570  0.4296
   43CHL1    H8 3123   2.296   2.797   4.073 -3.0656  1.0926  1.8529
   43CHL1   C14 3124   2.188   2.637   4.170 -0.2837  0.2814 -0.2069
   43CHL1   H14 3125   2.139   2.544   4.134 -1.4737  0.2280  1.4171
   43CHL1   C15 3126   2.077   2.713   4.242  0.3092  0.0032 -0.3288
   43CHL1  H15A 3127   2.101   2.819   4.262  1.2149 -0.5395  1.7528
   43CHL1  H15B 3128   1.984   2.700   4.183 -0.7255  1.6991  0.8596
   43CHL1   C16 3129   2.061   2.638   4.376  0.1788 -0.0029 -0.2977
   43CHL1  H16A 3130   2.038   2.698   4.467  1.3796 -1.2101  0.8571
   43CHL1  H16B 3131   1.985   2.557   4.378  0.4901 -0.2918  0.0135
   43CHL1   C17 3132   2.193   2.551   4.392  0.2924  0.7343 -0.7128
   43CHL1   H17 3133   2.169   2.446   4.364 -1.5294  0.9522 -0.0688
   43CHL1   C13 3134   2.290   2.600   4.278  0.0827 -0.3109  0.6256
   43CHL1   C18 3135   2.357   2.735   4.311  0.3430 -0.3863 -0.2760
   43CHL1  H18A 3136   2.415   2.774   4.224  3.0332  1.8662  2.3064
   43CHL1  H18B 3137   2.292   2.812   4.358 -0.4514 -0.7628 -0.7373
   43CHL1  H18C 3138   2.444   2.722   4.379  1.9139 -0.8156 -2.2448
   43CHL1   C12 3139   2.395   2.507   4.218  0.3591  0.2305 -0.4410
   43CHL1  H12A 3140   2.473   2.475   4.290  0.4125 -0.7380 -0.9189
   43CHL1  H12B 3141   2.340   2.412   4.206  0.9998 -0.0510 -1.2720
   43CHL1   C11 3142   2.449   2.553   4.082 -0.5736 -0.0311 -0.0016
   43CHL1  H11A 3143   2.513   2.638   4.113 -1.4415  0.1576  1.3623
   43CHL1  H11B 3144   2.509   2.471   4.036 -0.4596  0.2595 -0.3721
   43CHL1    C9 3145   2.348   2.602   3.983  1.1230 -0.1160 -0.4032
   43CHL1    H9 3146   2.280   2.518   3.960  0.8255  0.5333 -2.0677
   43CHL1   C10 3147   2.408   2.671   3.847 -0.3161 -0.0152 -0.5715
   43CHL1   C19 3148   2.531   2.757   3.890  0.3379 -0.0141 -0.8463
   43CHL1  H19A 3149   2.608   2.682   3.916 -0.3501 -0.6968 -0.7670
   43CHL1  H19B 3150   2.572   2.812   3.802  2.3016 -1.3662 -0.8344
   43CHL1  H19C 3151   2.505   2.827   3.973 -0.0257 -0.8276 -0.2664
   43CHL1    C1 3152   2.472   2.562   3.760  0.0820 -0.0666 -0.3838
   43CHL1   H1A 3153   2.574   2.532   3.791  1.0832  0.2857 -3.0912
   43CHL1   H1B 3154   2.409   2.471   3.761 -3.3253  2.0793 -1.4505
   43CHL1    C2 3155   2.511   2.598   3.614 -0.4056  0.2643 -0.3675
   43CHL1   H2A 3156   2.541   2.506   3.559 -0.8532 -0.7127  0.9761
   43CHL1   H2B 3157   2.588   2.679   3.613 -0.7213  0.6400 -3.2213
   43CHL1   C20 3158   2.258   2.551   4.527 -0.3262  0.0546  0.1570
   43CHL1   H20 3159   2.366   2.538   4.502 -1.1961 -1.5580 -3.3080
   43CHL1   C21 3160   2.208   2.420   4.600 -0.0657 -0.3723 -0.4827
   43CHL1  H21A 3161   2.097   2.421   4.609 -0.0926 -0.4731 -0.8022
   43CHL1  H21B 3162   2.247   2.403   4.702 -1.0997 -0.5594 -0.0988
   43CHL1  H21C 3163   2.237   2.334   4.536 -0.3284  0.9068 -2.4186
   43CHL1   C22 3164   2.241   2.676   4.615 -0.0480 -0.1661  0.6520
   43CHL1  H22A 3165   2.243   2.767   4.551 -0.9422  0.1236  1.0243
   43CHL1  H22B 3166   2.141   2.665   4.663 -0.4727 -1.6401 -0.4641
   43CHL1   C23 3167   2.337   2.682   4.737 -0.4583  0.1474 -0.2099
   43CHL1  H23A 3168   2.322   2.590   4.797  2.1404 -0.2920 -0.1413
   43CHL1  H23B 3169   2.439   2.682   4.693 -0.1113  0.5059  0.5696
   43CHL1   C24 3170   2.324   2.805   4.832 -0.5155 -0.7467  0.8229
   43CHL1  H24A 3171   2.361   2.892   4.775 -2.9587  0.0903  0.4112
   43CHL1  H24B 3172   2.221   2.817   4.871 -0.0512  0.2025  1.7997
   43CHL1   C25 3173   2.417   2.790   4.954  0.2100 -0.6626 -0.3790
   43CHL1   H25 3174   2.507   2.729   4.931  0.0696 -0.5502 -1.2577
   43CHL1   C26 3175   2.470   2.933   5.002 -0.1833  0.1706  0.9814
   43CHL1  H26A 3176   2.556   2.915   5.070 -0.1622  2.4016  1.6036
   43CHL1  H26B 3177   2.497   2.991   4.911  3.2948 -0.9657  1.1460
   43CHL1  H26C 3178   2.389   2.989   5.053  0.3249  1.9696 -0.1043
   43CHL1   C27 3179   2.355   2.709   5.069  0.2455  0.0245  0.0339
   43CHL1  H27A 3180   2.263   2.757   5.108  0.8833 -0.3657  2.1544
   43CHL1  H27B 3181   2.333   2.609   5.026  0.9763  0.1482 -0.6529
   43CHL1  H27C 3182   2.426   2.710   5.155  1.1338 -0.9236 -0.6643
   44CHL1    C3 3183   6.889   1.876   3.821 -0.1131 -0.1322  0.0460
   44CHL1    H3 3184   6.818   1.959   3.840 -1.3520 -1.6269  2.3295
   44CHL1    O3 3185   6.902   1.824   3.686 -0.1844  0.1522 -0.4302
   44CHL1   H3' 3186   6.820   1.853   3.646 -2.1458 -0.1718  2.9368
   44CHL1    C4 3187   7.026   1.930   3.870 -0.4138 -0.1004  0.0342
   44CHL1   H4A 3188   7.107   1.857   3.851  0.2257  0.3260  1.0663
   44CHL1   H4B 3189   7.044   2.016   3.803 -1.1461 -0.7417 -1.0309
   44CHL1    C5 3190   7.024   1.965   4.016 -0.3837 -0.0401  0.2745
   44CHL1    C6 3191   7.055   2.090   4.059 -0.2771 -0.2049  0.5267
   44CHL1    H6 3192   7.091   2.166   3.987  0.2343  0.2737  1.2688
   44CHL1    C7 3193   7.062   2.145   4.193  0.9328  0.2587 -0.1699
   44CHL1   H7A 3194   7.158   2.196   4.218  1.1796 -0.6680  0.8233
   44CHL1   H7B 3195   6.976   2.215   4.200  1.4601  0.9534 -0.4921
   44CHL1    C8 3196   7.055   2.024   4.299  0.4069 -0.6604  0.5652
   44CHL1    H8 3197   7.157   1.981   4.296  1.0738  0.9414 -0.9365
   44CHL1   C14 3198   7.029   2.088   4.440 -0.9555  0.4335 -0.2526
   44CHL1   H14 3199   6.939   2.152   4.429 -0.6370  1.1305  0.9679
   44CHL1   C15 3200   7.131   2.190   4.501 -0.2632  0.0732  0.2393
   44CHL1  H15A 3201   7.233   2.147   4.499  0.8404  2.5247 -1.0294
   44CHL1  H15B 3202   7.135   2.286   4.446 -0.0749  0.7992  1.4863
   44CHL1   C16 3203   7.087   2.207   4.646 -0.3456 -0.4695  0.4621
   44CHL1  H16A 3204   7.174   2.188   4.713  1.4310  3.0933 -0.6014
   44CHL1  H16B 3205   7.041   2.306   4.667 -1.0516 -0.3455 -1.4216
   44CHL1   C17 3206   6.975   2.101   4.677 -0.5361  0.3755  0.3554
   44CHL1   H17 3207   6.873   2.142   4.659 -1.1789  0.6856  4.0008
   44CHL1   C13 3208   6.996   1.995   4.556 -0.2440 -0.0965  0.1671
   44CHL1   C18 3209   7.109   1.905   4.594 -0.3383  0.9135 -0.3758
   44CHL1  H18A 3210   7.196   1.958   4.638 -1.5525  0.7439  2.4554
   44CHL1  H18B 3211   7.069   1.824   4.659  2.2237 -0.2117 -0.0559
   44CHL1  H18C 3212   7.150   1.835   4.517 -1.6042 -2.2538  1.6320
   44CHL1   C12 3213   6.874   1.906   4.513  0.5878 -0.3376  0.6423
   44CHL1  H12A 3214   6.840   1.825   4.581 -0.2999  0.3415  1.0277
   44CHL1  H12B 3215   6.792   1.979   4.493  1.1811 -0.2278 -1.7157
   44CHL1   C11 3216   6.902   1.835   4.376  0.1647 -0.2944  0.2401
   44CHL1  H11A 3217   6.989   1.768   4.392  2.4021  2.2342 -0.5670
   44CHL1  H11B 3218   6.816   1.779   4.334 -0.2576  1.2032 -1.0288
   44CHL1    C9 3219   6.940   1.929   4.262 -0.1920 -0.1516 -0.4975
   44CHL1    H9 3220   6.851   1.993   4.245  0.4036  0.8717  0.1123
   44CHL1   C10 3221   6.973   1.863   4.120  0.6449 -0.3633 -0.0373
   44CHL1   C19 3222   7.073   1.743   4.135 -0.1689 -0.6564 -0.0825
   44CHL1  H19A 3223   7.104   1.689   4.043  0.9828  0.3285 -0.3023
   44CHL1  H19B 3224   7.174   1.780   4.163  0.7674 -3.5557  0.8677
   44CHL1  H19C 3225   7.041   1.670   4.213 -0.0302 -1.0428 -0.3859
   44CHL1    C1 3226   6.845   1.803   4.056  0.3637  0.3114  0.2829
   44CHL1   H1A 3227   6.813   1.708   4.105  0.1034 -0.4351 -1.2792
   44CHL1   H1B 3228   6.762   1.876   4.063  0.4328  0.3710  0.4739
   44CHL1    C2 3229   6.852   1.760   3.910  0.2998 -0.1388  0.2359
   44CHL1   H2A 3230   6.752   1.725   3.878  0.8997 -1.4885 -0.2114
   44CHL1   H2B 3231   6.930   1.682   3.895 -0.4854 -0.9271  0.2117
   44CHL1   C20 3232   6.985   2.041   4.819 -0.6181 -0.1928  0.2891
   44CHL1   H20 3233   7.079   1.987   4.845 -1.3276 -1.1017  1.0787
   44CHL1   C21 3234   6.872   1.934   4.838 -0.2442  0.7574 -0.5000
   44CHL1  H21A 3235   6.781   1.978   4.791 -1.8611 -1.1935  0.6595
   44CHL1  H21B 3236   6.858   1.909   4.946 -0.8509  1.8417 -0.3105
   44CHL1  H21C 3237   6.891   1.836   4.790 -0.2299  1.1260 -1.2634
   44CHL1   C22 3238   6.964   2.156   4.929 -0.4461  0.5307 -0.0514
   44CHL1  H22A 3239   7.039   2.236   4.915  2.1982 -2.1478 -2.5966
   44CHL1  H22B 3240   6.863   2.197   4.908 -0.5785  1.8097  2.6495
   44CHL1   C23 3241   6.988   2.104   5.072  0.4552 -0.2784 -0.3427
   44CHL1  H23A 3242   6.908   2.030   5.096  0.4682  0.3038  1.5999
   44CHL1  H23B 3243   7.081   2.043   5.070 -0.1332 -1.5714  3.5321
   44CHL1   C24 3244   6.998   2.209   5.176  0.1814  0.1781  0.0732
   44CHL1  H24A 3245   7.068   2.290   5.145  1.1990 -0.2277  1.2440
   44CHL1  H24B 3246   6.894   2.244   5.190  0.5750  0.2816  3.4331
   44CHL1   C25 3247   7.038   2.150   5.315 -1.4662  1.0348 -0.3916
   44CHL1   H25 3248   6.981   2.055   5.324  1.9871 -1.1932 -0.0833
   44CHL1   C26 3249   7.187   2.097   5.306  0.4244  0.4915  0.0661
   44CHL1  H26A 3250   7.221   2.052   5.402 -0.5425 -1.5743 -0.4818
   44CHL1  H26B 3251   7.209   2.021   5.227 -0.9476 -0.5678  0.6415
   44CHL1  H26C 3252   7.262   2.174   5.280 -1.1770  1.2812 -2.6271
   44CHL1   C27 3253   7.013   2.238   5.431  0.1577 -0.7634 -0.7695
   44CHL1  H27A 3254   7.107   2.293   5.453  0.8133 -2.5510  1.2357
   44CHL1  H27B 3255   6.942   2.322   5.411  0.6730 -0.2801 -0.5956
   44CHL1  H27C 3256   6.980   2.182   5.521  1.8120  2.9552  2.4690
   45CHL1    C3 3257   6.667   0.842   3.472  0.2175  0.5758  0.5328
   45CHL1    H3 3258   6.696   0.735   3.477 -1.7835 -0.0873 -1.0172
   45CHL1    O3 3259   6.673   0.887   3.337 -0.3290 -0.2397 -0.0110
   45CHL1   H3' 3260   6.637   0.976   3.336  1.6185  0.6275 -1.8435
   45CHL1    C4 3261   6.524   0.862   3.524  0.3003 -0.6942  0.6360
   45CHL1   H4A 3262   6.498   0.970   3.521 -1.4608 -1.0784 -1.9184
   45CHL1   H4B 3263   6.447   0.811   3.462 -0.4302  1.5821 -0.4541
   45CHL1    C5 3264   6.512   0.826   3.669  0.3026  0.7647  0.2115
   45CHL1    C6 3265   6.426   0.727   3.709  0.5017 -0.5421 -0.0625
   45CHL1    H6 3266   6.367   0.669   3.636 -0.9284 -0.7336  1.1812
   45CHL1    C7 3267   6.406   0.706   3.853  0.5584 -0.2029  0.1759
   45CHL1   H7A 3268   6.297   0.702   3.870  0.5734  0.5626  0.5008
   45CHL1   H7B 3269   6.454   0.611   3.884  0.2780  0.3167  2.3737
   45CHL1    C8 3270   6.476   0.803   3.951  1.1712 -0.4227 -1.2683
   45CHL1    H8 3271   6.422   0.897   3.974  1.2548 -1.1216  2.4214
   45CHL1   C14 3272   6.471   0.732   4.095 -0.1064  0.4556 -0.0583
   45CHL1   H14 3273   6.533   0.640   4.095 -2.3763 -1.1449  0.1100
   45CHL1   C15 3274   6.336   0.692   4.140  0.0874  0.1360 -0.3898
   45CHL1  H15A 3275   6.263   0.775   4.128 -0.6426 -0.2884  0.8861
   45CHL1  H15B 3276   6.313   0.596   4.089  2.4581 -1.8603  2.0019
   45CHL1   C16 3277   6.365   0.667   4.289 -0.1240 -0.2684  0.2489
   45CHL1  H16A 3278   6.290   0.721   4.351 -2.0789 -1.6159 -0.8341
   45CHL1  H16B 3279   6.363   0.558   4.313  1.1369 -1.1989 -3.2169
   45CHL1   C17 3280   6.515   0.721   4.322  0.1987 -0.0379  0.1021
   45CHL1   H17 3281   6.597   0.647   4.318  1.2276  1.1119 -0.8028
   45CHL1   C13 3282   6.540   0.818   4.200  0.5467 -0.2402 -0.8375
   45CHL1   C18 3283   6.469   0.955   4.224  0.5213  0.8628  0.5362
   45CHL1  H18A 3284   6.503   1.001   4.319  2.2711 -0.9410  0.8663
   45CHL1  H18B 3285   6.468   1.026   4.139 -0.8962  0.6222  0.3240
   45CHL1  H18C 3286   6.361   0.940   4.246  1.2419  0.4464  4.4675
   45CHL1   C12 3287   6.687   0.837   4.159  0.5285  0.4146  0.3563
   45CHL1  H12A 3288   6.751   0.902   4.223  1.8133  0.0067 -0.4809
   45CHL1  H12B 3289   6.723   0.733   4.170  0.6688  0.6644  2.8007
   45CHL1   C11 3290   6.695   0.907   4.019 -0.9601  0.0441 -0.6239
   45CHL1  H11A 3291   6.662   1.012   4.033  2.9802  1.4700 -0.6584
   45CHL1  H11B 3292   6.806   0.902   4.014 -0.8624 -0.1287  1.1353
   45CHL1    C9 3293   6.615   0.839   3.909  0.7263  0.3873 -0.2759
   45CHL1    H9 3294   6.659   0.738   3.894  1.1483  0.6690 -0.9727
   45CHL1   C10 3295   6.613   0.897   3.769  0.9942 -0.3601  0.5721
   45CHL1   C19 3296   6.569   1.041   3.777  0.0311  0.4066 -0.0012
   45CHL1  H19A 3297   6.572   1.088   3.676  2.8365 -1.5413 -0.9408
   45CHL1  H19B 3298   6.466   1.052   3.818 -0.4991 -2.2747 -0.3868
   45CHL1  H19C 3299   6.640   1.097   3.841 -0.4351 -1.6522  2.4788
   45CHL1    C1 3300   6.759   0.873   3.704  0.0572 -0.3098 -1.2677
   45CHL1   H1A 3301   6.829   0.926   3.772  0.9832 -2.1287 -0.7092
   45CHL1   H1B 3302   6.793   0.767   3.710 -0.1579 -0.3382  3.1107
   45CHL1    C2 3303   6.773   0.921   3.561  0.1395 -0.4578  0.0669
   45CHL1   H2A 3304   6.879   0.908   3.531  0.9450  2.3740  1.3459
   45CHL1   H2B 3305   6.758   1.031   3.559 -1.4622 -0.6423  0.6266
   45CHL1   C20 3306   6.515   0.780   4.457 -0.0614 -0.5307  0.4703
   45CHL1   H20 3307   6.444   0.865   4.454  0.0624 -0.4429 -0.0289
   45CHL1   C21 3308   6.650   0.837   4.492 -0.8759 -0.2636 -0.0495
   45CHL1  H21A 3309   6.657   0.948   4.483 -2.2073 -0.0779  0.8043
   45CHL1  H21B 3310   6.734   0.786   4.440 -0.1154  0.2851  0.6187
   45CHL1  H21C 3311   6.659   0.827   4.603  0.2884 -1.3814 -0.2263
   45CHL1   C22 3312   6.464   0.699   4.576  0.1898  0.3438  0.1488
   45CHL1  H22A 3313   6.445   0.771   4.658 -1.8142 -0.2741  0.2863
   45CHL1  H22B 3314   6.361   0.663   4.554 -0.2655  1.7147 -0.0193
   45CHL1   C23 3315   6.547   0.578   4.604  0.0737 -0.1708 -0.4499
   45CHL1  H23A 3316   6.567   0.524   4.508 -0.4166 -0.2829 -0.4959
   45CHL1  H23B 3317   6.643   0.612   4.647 -1.0526  3.4778 -0.5054
   45CHL1   C24 3318   6.464   0.486   4.695  0.3807 -0.2241 -0.4777
   45CHL1  H24A 3319   6.371   0.462   4.638  1.4604 -1.9657 -1.5902
   45CHL1  H24B 3320   6.517   0.389   4.699  2.5631  0.8395 -1.7075
   45CHL1   C25 3321   6.438   0.545   4.831  0.7034 -0.4022  0.1324
   45CHL1   H25 3322   6.366   0.629   4.823  0.1916 -0.5734  2.3810
   45CHL1   C26 3323   6.370   0.436   4.913 -0.2308 -0.5454 -0.0268
   45CHL1  H26A 3324   6.442   0.352   4.916 -1.1821 -1.3724  2.1310
   45CHL1  H26B 3325   6.351   0.472   5.017  0.6284  0.2042 -0.1229
   45CHL1  H26C 3326   6.273   0.399   4.872 -1.1650  0.9094  0.7801
   45CHL1   C27 3327   6.568   0.594   4.904 -0.2325 -0.2675  0.1789
   45CHL1  H27A 3328   6.610   0.687   4.858  1.1935 -0.9678 -0.0019
   45CHL1  H27B 3329   6.539   0.608   5.010  1.4703 -0.1945  0.6697
   45CHL1  H27C 3330   6.643   0.513   4.891  0.4242  0.3970 -0.3106
   46CHL1    C3 3331   5.133   3.493   3.270 -0.3628  0.7078  1.4630
   46CHL1    H3 3332   5.065   3.408   3.291  0.8633 -0.5450  0.5463
   46CHL1    O3 3333   5.194   3.480   3.135  0.1279  0.2484 -0.3249
   46CHL1   H3' 3334   5.208   3.572   3.109 -1.0253  0.1606 -1.3745
   46CHL1    C4 3335   5.056   3.627   3.286  0.5879 -0.0539  0.3917
   46CHL1   H4A 3336   5.128   3.710   3.271 -0.6108  0.6794 -1.6231
   46CHL1   H4B 3337   4.975   3.647   3.213  0.6816  1.3802  0.6592
   46CHL1    C5 3338   5.011   3.632   3.432 -0.0395 -0.4519  0.4126
   46CHL1    C6 3339   4.882   3.655   3.461  0.0300 -0.7340 -0.0574
   46CHL1    H6 3340   4.808   3.677   3.383  1.1306  0.1914 -0.8730
   46CHL1    C7 3341   4.830   3.676   3.605  0.1290  0.4781  0.0539
   46CHL1   H7A 3342   4.750   3.753   3.606  0.8710  1.2749 -0.5998
   46CHL1   H7B 3343   4.768   3.586   3.626  0.7513 -0.2213 -1.0019
   46CHL1    C8 3344   4.939   3.698   3.708 -0.5275  0.4332  0.4201
   46CHL1    H8 3345   4.980   3.801   3.701 -0.6829  0.4620 -0.0838
   46CHL1   C14 3346   4.884   3.685   3.855 -0.0135 -0.3593  0.0735
   46CHL1   H14 3347   4.852   3.579   3.866 -1.0701 -0.0781 -0.1713
   46CHL1   C15 3348   4.763   3.765   3.886  0.6000  0.1188  0.4374
   46CHL1  H15A 3349   4.791   3.866   3.848  1.8527 -0.7181 -1.0081
   46CHL1  H15B 3350   4.667   3.731   3.841  0.7865  0.4032 -0.1895
   46CHL1   C16 3351   4.759   3.763   4.040  0.1844  0.3418  0.2935
   46CHL1  H16A 3352   4.754   3.866   4.080 -1.1405 -0.3060  1.8852
   46CHL1  H16B 3353   4.666   3.706   4.062  0.2296 -1.0950 -2.6938
   46CHL1   C17 3354   4.885   3.688   4.084 -0.1463  0.2240 -0.1941
   46CHL1   H17 3355   4.863   3.579   4.084  1.3294 -0.1168 -0.8531
   46CHL1   C13 3356   4.984   3.703   3.964  0.6122 -0.5822  0.2517
   46CHL1   C18 3357   5.039   3.847   3.962  0.1037  0.7332 -0.4310
   46CHL1  H18A 3358   5.100   3.867   3.872 -1.4584  1.0028 -1.4553
   46CHL1  H18B 3359   4.958   3.919   3.986  1.7411  2.0048  1.6198
   46CHL1  H18C 3360   5.107   3.860   4.050  0.4161 -0.2886 -0.5091
   46CHL1   C12 3361   5.092   3.600   3.935 -0.0716  0.9741  0.5053
   46CHL1  H12A 3362   5.168   3.602   4.016  1.5548 -1.9431 -0.7981
   46CHL1  H12B 3363   5.037   3.504   3.950 -0.8758  0.5825 -3.7061
   46CHL1   C11 3364   5.164   3.619   3.796  0.0613  0.8014 -0.0905
   46CHL1  H11A 3365   5.224   3.712   3.789  0.8537  0.2323 -1.0947
   46CHL1  H11B 3366   5.234   3.533   3.787  0.4777  1.1513 -0.2277
   46CHL1    C9 3367   5.057   3.607   3.681 -1.3048 -0.5552  0.1420
   46CHL1    H9 3368   5.024   3.501   3.683 -0.9676 -0.6873 -0.7452
   46CHL1   C10 3369   5.118   3.616   3.537 -0.6777 -0.5774  0.1222
   46CHL1   C19 3370   5.210   3.738   3.531 -0.0085  0.3906 -0.3830
   46CHL1  H19A 3371   5.266   3.758   3.437  0.8909  1.2967  0.3239
   46CHL1  H19B 3372   5.160   3.834   3.556  1.9683  1.1706  0.7820
   46CHL1  H19C 3373   5.298   3.719   3.596 -0.6741 -0.2437  0.3582
   46CHL1    C1 3374   5.193   3.486   3.506 -0.4849 -0.2926 -0.1598
   46CHL1   H1A 3375   5.284   3.481   3.570 -1.7723 -0.5484  1.7302
   46CHL1   H1B 3376   5.132   3.395   3.521  0.3924 -0.7767  0.6322
   46CHL1    C2 3377   5.250   3.484   3.369  0.5525 -0.4053  0.6953
   46CHL1   H2A 3378   5.312   3.392   3.356  0.8643 -0.2144  0.8145
   46CHL1   H2B 3379   5.321   3.569   3.356 -0.4840  0.3864  0.0332
   46CHL1   C20 3380   4.928   3.734   4.224 -0.1852  0.5065 -0.2548
   46CHL1   H20 3381   4.936   3.845   4.223 -1.1228  0.6491  1.8841
   46CHL1   C21 3382   5.058   3.668   4.265 -0.5464 -0.3443 -0.0019
   46CHL1  H21A 3383   5.053   3.557   4.261 -0.1221 -0.3543 -0.4696
   46CHL1  H21B 3384   5.082   3.698   4.369  1.3603  1.2771 -0.8345
   46CHL1  H21C 3385   5.150   3.697   4.209 -0.5577 -1.4083 -0.6012
   46CHL1   C22 3386   4.823   3.694   4.333  0.6453 -0.2944 -0.1360
   46CHL1  H22A 3387   4.719   3.714   4.299  0.5150 -1.7618 -0.6764
   46CHL1  H22B 3388   4.821   3.584   4.346  0.4200 -0.0717  2.0345
   46CHL1   C23 3389   4.835   3.768   4.463  0.5396  0.7395  0.5210
   46CHL1  H23A 3390   4.931   3.737   4.509  0.2794  0.1757  0.6953
   46CHL1  H23B 3391   4.851   3.875   4.439 -1.2612  0.7413 -0.8953
   46CHL1   C24 3392   4.723   3.745   4.566  0.2668 -0.2546 -0.4317
   46CHL1  H24A 3393   4.628   3.776   4.517  1.2388  0.5209 -1.9075
   46CHL1  H24B 3394   4.719   3.643   4.610  0.3833  0.5500  1.5807
   46CHL1   C25 3395   4.748   3.841   4.685  0.0216  0.2821  0.1597
   46CHL1   H25 3396   4.846   3.814   4.731 -0.1293  0.7754  0.7818
   46CHL1   C26 3397   4.761   3.986   4.651  0.1432  0.4577 -0.2256
   46CHL1  H26A 3398   4.771   4.058   4.736 -1.4551  2.4773 -1.6241
   46CHL1  H26B 3399   4.856   3.999   4.596  0.7826 -3.3710 -0.2450
   46CHL1  H26C 3400   4.676   4.029   4.593 -0.5694 -1.9350 -1.0544
   46CHL1   C27 3401   4.650   3.821   4.799  0.3331  0.8974  0.1070
   46CHL1  H27A 3402   4.627   3.713   4.811  1.5095  0.3022 -2.4268
   46CHL1  H27B 3403   4.680   3.870   4.895 -0.6926  2.4508 -0.3178
   46CHL1  H27C 3404   4.549   3.868   4.792  0.8213  1.7860 -1.1578
   47CHL1    C3 3405   0.105   4.480   3.485 -0.9422 -0.4975  0.6450
   47CHL1    H3 3406   0.186   4.403   3.494  1.5919  1.6907 -1.6219
   47CHL1    O3 3407   0.111   4.530   3.352  0.4141 -0.0687 -0.7577
   47CHL1   H3' 3408   0.054   4.607   3.354  2.3145  1.3871 -0.4650
   47CHL1    C4 3409  -0.040   4.436   3.516 -0.0371 -0.9365 -0.1542
   47CHL1   H4A 3410  -0.108   4.519   3.486 -3.1129 -2.5576  1.7825
   47CHL1   H4B 3411  -0.059   4.354   3.443  0.2175 -0.6841 -0.5042
   47CHL1    C5 3412  -0.064   4.405   3.664  0.4012 -0.1884 -0.1464
   47CHL1    C6 3413  -0.133   4.294   3.692  0.4974 -0.2550 -0.4770
   47CHL1    H6 3414  -0.173   4.233   3.609  0.4088 -0.4384 -0.2995
   47CHL1    C7 3415  -0.145   4.247   3.831  0.3478  0.1752 -0.0280
   47CHL1   H7A 3416  -0.242   4.199   3.852 -0.5206  1.9397  0.1488
   47CHL1   H7B 3417  -0.075   4.163   3.853  0.0863  0.3108  1.4062
   47CHL1    C8 3418  -0.114   4.358   3.933  0.3572 -0.0047 -0.4945
   47CHL1    H8 3419  -0.192   4.437   3.938  2.3784  2.0227  0.5153
   47CHL1   C14 3420  -0.104   4.301   4.071 -0.1390  0.0019  0.5253
   47CHL1   H14 3421  -0.020   4.229   4.074 -1.7911 -2.0128  1.7704
   47CHL1   C15 3422  -0.225   4.218   4.124  0.5916  0.2488 -0.1523
   47CHL1  H15A 3423  -0.321   4.271   4.104 -0.2832 -0.1213  2.6104
   47CHL1  H15B 3424  -0.214   4.111   4.095 -1.7124 -0.5727  1.7012
   47CHL1   C16 3425  -0.207   4.209   4.275  0.0744 -1.1666 -0.6281
   47CHL1  H16A 3426  -0.305   4.221   4.326 -0.0873 -0.0133 -1.1737
   47CHL1  H16B 3427  -0.157   4.112   4.292  0.3650 -1.2317 -1.7904
   47CHL1   C17 3428  -0.111   4.323   4.312  0.2863  0.0914  0.4830
   47CHL1   H17 3429  -0.016   4.267   4.325 -0.8888 -1.5386  2.9040
   47CHL1   C13 3430  -0.087   4.408   4.184 -0.5061 -0.4511  0.3945
   47CHL1   C18 3431  -0.203   4.509   4.175 -0.1969 -0.3686 -0.0607
   47CHL1  H18A 3432  -0.199   4.568   4.081 -2.0924 -1.9246 -1.1836
   47CHL1  H18B 3433  -0.308   4.475   4.179  0.1002 -1.6060 -1.6249
   47CHL1  H18C 3434  -0.176   4.584   4.253  2.9379 -1.8834  0.4794
   47CHL1   C12 3435   0.048   4.466   4.157 -0.4557  0.5596  0.2299
   47CHL1  H12A 3436   0.078   4.542   4.232  0.5739  2.2276 -1.7867
   47CHL1  H12B 3437   0.134   4.396   4.161  0.5194  1.6946 -0.5903
   47CHL1   C11 3438   0.060   4.534   4.021  0.4529  0.1004 -0.0134
   47CHL1  H11A 3439  -0.005   4.624   4.017 -1.1759 -1.0741 -0.8465
   47CHL1  H11B 3440   0.164   4.571   4.004  0.3776 -0.4088 -1.9046
   47CHL1    C9 3441   0.016   4.438   3.906  0.2988  1.1369 -0.1144
   47CHL1    H9 3442   0.092   4.357   3.910  0.9903  1.7530 -0.4802
   47CHL1   C10 3443   0.009   4.503   3.766 -0.5782  1.3811  0.3399
   47CHL1   C19 3444  -0.069   4.631   3.787 -0.1120 -0.6952  0.6891
   47CHL1  H19A 3445   0.014   4.696   3.824 -1.7720  1.5622  0.6282
   47CHL1  H19B 3446  -0.104   4.675   3.692  0.8378 -2.8465 -0.7351
   47CHL1  H19C 3447  -0.154   4.625   3.859  1.7630  3.4173  3.6913
   47CHL1    C1 3448   0.154   4.542   3.726  0.3426  0.3443  0.2905
   47CHL1   H1A 3449   0.185   4.631   3.785  0.6255  1.2737 -1.2023
   47CHL1   H1B 3450   0.219   4.453   3.744 -0.8063 -1.0772 -2.0656
   47CHL1    C2 3451   0.161   4.583   3.586  0.5475 -0.6046  0.5695
   47CHL1   H2A 3452   0.270   4.591   3.566  1.2014 -0.5737  3.6432
   47CHL1   H2B 3453   0.110   4.681   3.578  1.0523 -0.4892 -3.4247
   47CHL1   C20 3454  -0.144   4.380   4.447  0.2930  0.1051  0.5969
   47CHL1   H20 3455  -0.240   4.434   4.432 -0.3332 -0.8782  1.0293
   47CHL1   C21 3456  -0.047   4.488   4.487 -0.2438  0.3864 -0.2254
   47CHL1  H21A 3457  -0.071   4.527   4.588  0.8968  1.2734 -0.2734
   47CHL1  H21B 3458  -0.031   4.578   4.424  1.6873  0.9450  0.9898
   47CHL1  H21C 3459   0.049   4.432   4.492 -1.5619 -2.7463 -3.8632
   47CHL1   C22 3460  -0.172   4.276   4.563 -0.2725 -0.2871 -0.0717
   47CHL1  H22A 3461  -0.183   4.342   4.652 -0.3913 -1.1766  0.5972
   47CHL1  H22B 3462  -0.271   4.232   4.538 -0.6619  0.5783 -0.0726
   47CHL1   C23 3463  -0.063   4.162   4.574 -0.0005  0.0092  0.4067
   47CHL1  H23A 3464  -0.072   4.084   4.496  0.8832  1.8976 -1.6885
   47CHL1  H23B 3465   0.039   4.197   4.549 -0.5302  1.6582  0.4362
   47CHL1   C24 3466  -0.065   4.095   4.712  0.0844  0.2978  0.1118
   47CHL1  H24A 3467  -0.154   4.029   4.714  1.0550 -1.1403 -1.6352
   47CHL1  H24B 3468   0.013   4.018   4.730 -0.8591  0.0973  4.3236
   47CHL1   C25 3469  -0.066   4.182   4.837  0.1401  0.0104  0.9625
   47CHL1   H25 3470  -0.149   4.256   4.834  0.9952  0.9539 -0.2473
   47CHL1   C26 3471  -0.094   4.094   4.960  0.2846  0.6936 -0.4456
   47CHL1  H26A 3472  -0.055   4.141   5.052 -0.0359  0.1647 -0.0343
   47CHL1  H26B 3473  -0.201   4.064   4.969  0.3764 -0.4021 -2.3099
   47CHL1  H26C 3474  -0.034   4.001   4.975  0.1025  0.8404  1.3800
   47CHL1   C27 3475   0.054   4.274   4.850 -0.3137 -0.6125  0.0850
   47CHL1  H27A 3476   0.149   4.234   4.891  0.8263  1.8042 -0.0098
   47CHL1  H27B 3477   0.075   4.310   4.747  0.2910 -1.3848 -0.0690
   47CHL1  H27C 3478   0.024   4.362   4.910 -0.8299 -0.8773  0.2262
   48CHL1    C3 3479   6.526   6.615   3.667 -0.3348  0.3925 -0.2357
   48CHL1    H3 3480   6.576   6.518   3.686  2.5991  2.0126  0.9830
   48CHL1    O3 3481   6.506   6.642   3.527  0.2178  0.2650 -0.1644
   48CHL1   H3' 3482   6.516   6.736   3.508  1.3782 -0.0769 -1.4457
   48CHL1    C4 3483   6.385   6.614   3.736  0.1110 -0.5030  0.0258
   48CHL1   H4A 3484   6.333   6.711   3.723 -0.9738 -1.1884 -0.9050
   48CHL1   H4B 3485   6.327   6.537   3.682  1.3104 -0.4345 -1.4431
   48CHL1    C5 3486   6.393   6.600   3.882 -0.2405  0.4914 -0.1578
   48CHL1    C6 3487   6.320   6.498   3.939 -0.3048 -0.7109 -0.8200
   48CHL1    H6 3488   6.251   6.439   3.876 -1.2769  0.2131 -0.6344
   48CHL1    C7 3489   6.344   6.454   4.080 -0.2105  0.1099 -0.0661
   48CHL1   H7A 3490   6.255   6.420   4.137 -0.1108  0.3833  0.2559
   48CHL1   H7B 3491   6.396   6.356   4.072 -2.1636 -0.9896  0.1377
   48CHL1    C8 3492   6.415   6.555   4.176 -0.0564 -0.9947 -0.5303
   48CHL1    H8 3493   6.348   6.632   4.220  1.7821 -0.1222  0.9036
   48CHL1   C14 3494   6.466   6.490   4.308 -0.3313 -0.2176 -0.3556
   48CHL1   H14 3495   6.539   6.416   4.268 -1.9862 -1.7658 -0.6797
   48CHL1   C15 3496   6.369   6.404   4.396 -0.8399  0.4379 -0.5529
   48CHL1  H15A 3497   6.267   6.446   4.398 -0.7077  0.7455 -0.1532
   48CHL1  H15B 3498   6.379   6.301   4.355  2.2067  1.1804 -1.9485
   48CHL1   C16 3499   6.434   6.400   4.541  0.2980  0.6486 -0.6812
   48CHL1  H16A 3500   6.360   6.458   4.599 -1.1349 -0.6028 -1.1970
   48CHL1  H16B 3501   6.446   6.294   4.574  0.5505 -0.8067 -4.8085
   48CHL1   C17 3502   6.559   6.487   4.531 -0.6327 -0.1604 -0.6378
   48CHL1   H17 3503   6.644   6.426   4.496 -0.6105  0.3519 -1.5140
   48CHL1   C13 3504   6.535   6.580   4.407 -0.3629 -0.0752 -0.8548
   48CHL1   C18 3505   6.432   6.686   4.445 -0.1220 -0.4588  0.0458
   48CHL1  H18A 3506   6.344   6.646   4.498  0.2426 -1.1984  0.0962
   48CHL1  H18B 3507   6.477   6.764   4.511 -1.3958  1.8350 -1.6376
   48CHL1  H18C 3508   6.404   6.749   4.357  2.6661  0.0743 -0.5634
   48CHL1   C12 3509   6.659   6.632   4.330  0.5113  0.2415 -0.1014
   48CHL1  H12A 3510   6.729   6.703   4.380  1.2537  0.0925 -0.9025
   48CHL1  H12B 3511   6.726   6.546   4.309 -0.9296 -0.9331  0.0242
   48CHL1   C11 3512   6.616   6.704   4.197  0.1299 -0.5183 -1.1149
   48CHL1  H11A 3513   6.565   6.796   4.233 -1.7087 -2.0759  0.5258
   48CHL1  H11B 3514   6.712   6.734   4.149 -1.5553  5.0707 -1.6297
   48CHL1    C9 3515   6.535   6.621   4.104 -0.1445  0.1590  0.5849
   48CHL1    H9 3516   6.595   6.530   4.082 -0.4074  0.0199  0.4314
   48CHL1   C10 3517   6.500   6.682   3.960  0.2132  0.1230 -0.0522
   48CHL1   C19 3518   6.459   6.826   3.987 -0.5113 -0.2030  0.1457
   48CHL1  H19A 3519   6.404   6.835   4.083 -2.7021  0.5720 -1.1063
   48CHL1  H19B 3520   6.544   6.897   3.992  1.0763 -1.8549 -1.8812
   48CHL1  H19C 3521   6.376   6.858   3.920  0.0381  1.2877  0.1424
   48CHL1    C1 3522   6.633   6.680   3.881  0.2863 -0.2694  0.1155
   48CHL1   H1A 3523   6.702   6.753   3.929  0.2798 -0.3171  0.1973
   48CHL1   H1B 3524   6.686   6.586   3.906  1.7587  1.1727  2.8389
   48CHL1    C2 3525   6.625   6.716   3.736  0.4812  0.5287 -0.7451
   48CHL1   H2A 3526   6.727   6.719   3.692 -0.0862  3.0131 -2.0436
   48CHL1   H2B 3527   6.591   6.821   3.722 -0.5211  0.5115  1.2079
   48CHL1   C20 3528   6.606   6.549   4.665  0.1983  0.6266  0.5325
   48CHL1   H20 3529   6.524   6.618   4.695 -1.1088 -0.6753  0.0836
   48CHL1   C21 3530   6.737   6.623   4.643 -0.4880  0.3701 -0.3765
   48CHL1  H21A 3531   6.801   6.552   4.587 -0.9042  0.3688 -0.8584
   48CHL1  H21B 3532   6.780   6.643   4.743  0.9126 -0.7820 -0.7308
   48CHL1  H21C 3533   6.727   6.717   4.584 -0.5736  0.6198  0.0338
   48CHL1   C22 3534   6.614   6.443   4.779  0.8687 -0.1230 -0.6465
   48CHL1  H22A 3535   6.525   6.376   4.779 -0.2433  1.3210 -0.1926
   48CHL1  H22B 3536   6.702   6.379   4.756  0.4264 -0.5333 -1.2439
   48CHL1   C23 3537   6.623   6.499   4.923  0.3308 -1.0458 -0.6041
   48CHL1  H23A 3538   6.695   6.583   4.931 -0.6167 -0.3135  0.4057
   48CHL1  H23B 3539   6.528   6.547   4.955  0.6705  0.8067 -2.1930
   48CHL1   C24 3540   6.662   6.400   5.035  0.0025 -0.0165  0.1784
   48CHL1  H24A 3541   6.605   6.306   5.022 -0.9486  0.5005  0.4835
   48CHL1  H24B 3542   6.765   6.361   5.022 -0.0510 -0.1933  0.2957
   48CHL1   C25 3543   6.650   6.443   5.182 -0.3674  0.2252  0.3499
   48CHL1   H25 3544   6.551   6.491   5.195 -0.9634 -0.9822  0.4344
   48CHL1   C26 3545   6.687   6.333   5.277  0.8291  0.5292  0.3823
   48CHL1  H26A 3546   6.619   6.250   5.247 -0.1491  0.9988  1.2323
   48CHL1  H26B 3547   6.792   6.300   5.261  1.1058  1.3666  0.4412
   48CHL1  H26C 3548   6.678   6.353   5.386  1.0473  0.8605  0.3410
   48CHL1   C27 3549   6.749   6.560   5.211 -0.0308 -0.1388  0.3574
   48CHL1  H27A 3550   6.726   6.598   5.313  0.9309  1.0594  0.1557
   48CHL1  H27B 3551   6.855   6.528   5.215  1.1563  3.1231 -1.1554
   48CHL1  H27C 3552   6.741   6.644   5.138  1.0243 -0.1407  0.2216
   49CHL1    C3 3553   0.488   4.087   3.521  0.7246 -0.2366  0.2341
   49CHL1    H3 3554   0.507   3.984   3.485  1.2122  0.4063 -1.4607
   49CHL1    O3 3555   0.521   4.181   3.418 -0.3088 -0.0602  0.3584
   49CHL1   H3' 3556   0.482   4.149   3.336  0.1975 -0.1846  0.1641
   49CHL1    C4 3557   0.348   4.111   3.559  0.3859 -0.1495 -0.4408
   49CHL1   H4A 3558   0.335   4.220   3.579 -1.0438 -0.9674  4.2448
   49CHL1   H4B 3559   0.287   4.086   3.469 -0.1138  0.5734 -0.3158
   49CHL1    C5 3560   0.304   4.038   3.685 -0.0184 -0.2716  0.1578
   49CHL1    C6 3561   0.188   3.967   3.698  0.6111 -0.0028  0.6857
   49CHL1    H6 3562   0.120   3.969   3.611  1.7438 -2.0316 -0.3159
   49CHL1    C7 3563   0.135   3.896   3.823 -0.4918  0.0653  0.7714
   49CHL1   H7A 3564   0.025   3.907   3.820 -0.6951 -0.6781  3.0579
   49CHL1   H7B 3565   0.148   3.786   3.808 -0.8740  0.1768 -0.4542
   49CHL1    C8 3566   0.197   3.955   3.946  0.0070 -0.2116 -0.0220
   49CHL1    H8 3567   0.145   4.050   3.969  2.1294  0.5303  2.2350
   49CHL1   C14 3568   0.175   3.866   4.059  0.0793 -0.0616 -0.3961
   49CHL1   H14 3569   0.231   3.774   4.032  0.0521 -0.9368  2.2435
   49CHL1   C15 3570   0.036   3.804   4.086  0.5036  0.3739  0.2090
   49CHL1  H15A 3571  -0.031   3.892   4.101 -1.6201 -0.8728 -1.3819
   49CHL1  H15B 3572  -0.001   3.746   3.999  1.2906  1.1977 -0.7117
   49CHL1   C16 3573   0.045   3.745   4.223  0.5351  0.1931 -0.5572
   49CHL1  H16A 3574  -0.018   3.800   4.296  2.5389  0.5739  0.9469
   49CHL1  H16B 3575   0.025   3.636   4.217  0.0255  0.3306 -1.6964
   49CHL1   C17 3576   0.188   3.778   4.278  0.5323 -0.0786 -0.7639
   49CHL1   H17 3577   0.258   3.695   4.253  0.6698 -0.1706 -0.0917
   49CHL1   C13 3578   0.236   3.904   4.200 -0.1217  0.4347  0.2107
   49CHL1   C18 3579   0.164   4.032   4.256  0.3527  0.1357 -0.4374
   49CHL1  H18A 3580   0.175   4.122   4.192 -1.2963  0.0505 -0.8726
   49CHL1  H18B 3581   0.057   4.025   4.283 -0.0765  0.9715 -1.8409
   49CHL1  H18C 3582   0.224   4.051   4.348  1.1192  0.2387 -0.9426
   49CHL1   C12 3583   0.394   3.923   4.180  0.4132  0.0271  0.7782
   49CHL1  H12A 3584   0.431   3.955   4.280 -0.3031  3.1122  0.1443
   49CHL1  H12B 3585   0.455   3.837   4.146  1.8588  2.1120 -2.2815
   49CHL1   C11 3586   0.415   4.027   4.069 -0.4800 -0.5162  0.3239
   49CHL1  H11A 3587   0.381   4.120   4.118 -0.0622 -0.3191  0.2442
   49CHL1  H11B 3588   0.524   4.040   4.053 -0.3777 -0.8187  0.7503
   49CHL1    C9 3589   0.350   3.982   3.933  0.0496 -0.5127 -0.0014
   49CHL1    H9 3590   0.396   3.882   3.922  1.2603 -0.3035  2.5640
   49CHL1   C10 3591   0.395   4.060   3.804 -0.3747  0.4421 -0.4733
   49CHL1   C19 3592   0.371   4.214   3.833  0.6151  0.0410  0.0571
   49CHL1  H19A 3593   0.433   4.235   3.923 -0.4205  0.1633  0.7525
   49CHL1  H19B 3594   0.383   4.287   3.750 -2.3740  2.2145  1.3786
   49CHL1  H19C 3595   0.266   4.237   3.861  0.4711 -0.6182  0.0733
   49CHL1    C1 3596   0.542   4.029   3.763 -0.1744 -0.5215  0.3045
   49CHL1   H1A 3597   0.616   4.059   3.840  2.2814  1.9269 -2.7228
   49CHL1   H1B 3598   0.547   3.921   3.737 -0.0738 -0.3155 -0.5580
   49CHL1    C2 3599   0.580   4.121   3.644 -1.0217 -0.1791 -0.4433
   49CHL1   H2A 3600   0.682   4.091   3.614 -0.5822 -0.2613  1.0815
   49CHL1   H2B 3601   0.598   4.228   3.668 -0.8664 -0.3541  0.2385
   49CHL1   C20 3602   0.195   3.790   4.432  0.4895 -0.1967 -0.5922
   49CHL1   H20 3603   0.152   3.886   4.466 -1.2134 -0.8990 -0.6326
   49CHL1   C21 3604   0.341   3.765   4.478 -0.5914  0.0213 -0.6308
   49CHL1  H21A 3605   0.411   3.846   4.448  2.2098 -1.7783  0.5556
   49CHL1  H21B 3606   0.377   3.667   4.438  0.9091 -0.6650  2.1455
   49CHL1  H21C 3607   0.360   3.762   4.587 -1.5821 -0.0418 -0.4555
   49CHL1   C22 3608   0.102   3.692   4.502 -0.1931 -0.0165 -0.1727
   49CHL1  H22A 3609  -0.008   3.698   4.489 -0.6880 -3.0732  1.6918
   49CHL1  H22B 3610   0.120   3.591   4.461  2.5655  0.5101 -0.4306
   49CHL1   C23 3611   0.111   3.685   4.655 -0.1490  1.3170  0.0627
   49CHL1  H23A 3612   0.195   3.618   4.680 -0.9831 -0.9527 -2.6813
   49CHL1  H23B 3613   0.120   3.789   4.694  0.4258  2.0855 -1.9668
   49CHL1   C24 3614  -0.015   3.613   4.717 -0.4421  0.1516 -0.1037
   49CHL1  H24A 3615  -0.109   3.641   4.666 -0.6418  1.0738  0.7392
   49CHL1  H24B 3616   0.005   3.505   4.701 -2.6769 -0.1320 -1.3797
   49CHL1   C25 3617  -0.034   3.641   4.867  0.6232  0.1622 -0.3610
   49CHL1   H25 3618  -0.055   3.746   4.897  2.1843 -0.3479  2.9202
   49CHL1   C26 3619  -0.165   3.559   4.907 -0.0510  0.5417  0.6282
   49CHL1  H26A 3620  -0.193   3.582   5.012 -0.5315  1.1255  0.3811
   49CHL1  H26B 3621  -0.246   3.592   4.839  1.1626  2.1135 -0.1262
   49CHL1  H26C 3622  -0.145   3.450   4.899 -1.0546  0.1902  2.5174
   49CHL1   C27 3623   0.089   3.616   4.951  0.2573 -0.3210  0.4306
   49CHL1  H27A 3624   0.066   3.620   5.059 -0.8006  1.3545  0.1726
   49CHL1  H27B 3625   0.120   3.515   4.917 -0.6485  0.1804 -2.1038
   49CHL1  H27C 3626   0.173   3.687   4.934  1.0771 -1.5011 -0.6721
   50CHL1    C3 3627   5.463   2.214   3.534  0.5632 -0.1464 -0.4473
   50CHL1    H3 3628   5.425   2.312   3.571  0.2126  0.3889 -2.1507
   50CHL1    O3 3629   5.497   2.215   3.400 -0.2486  0.1680  0.0679
   50CHL1   H3' 3630   5.532   2.126   3.388 -0.3685 -0.0879  1.4942
   50CHL1    C4 3631   5.603   2.181   3.611  0.6895  0.1103  0.3977
   50CHL1   H4A 3632   5.641   2.092   3.556  2.0598  0.1149  1.3121
   50CHL1   H4B 3633   5.669   2.267   3.589  1.9886 -0.7273  0.9160
   50CHL1    C5 3634   5.589   2.169   3.761 -1.0208  0.6517 -0.0169
   50CHL1    C6 3635   5.676   2.237   3.845  0.2986  0.0288 -0.0906
   50CHL1    H6 3636   5.752   2.299   3.794  1.0541  0.6590  1.7407
   50CHL1    C7 3637   5.672   2.234   3.990 -0.3960 -0.0734 -0.0376
   50CHL1   H7A 3638   5.775   2.226   4.030 -0.0026  1.2063 -0.7629
   50CHL1   H7B 3639   5.638   2.333   4.028  0.2242 -0.3316  1.2548
   50CHL1    C8 3640   5.581   2.122   4.045  0.0202 -0.4560 -0.1272
   50CHL1    H8 3641   5.633   2.024   4.047 -2.9566 -2.1476  2.1888
   50CHL1   C14 3642   5.536   2.163   4.186  0.8067 -0.1037 -0.3390
   50CHL1   H14 3643   5.465   2.246   4.165  0.0200 -0.6638  0.0230
   50CHL1   C15 3644   5.637   2.221   4.285 -0.4804 -0.7907  0.0967
   50CHL1  H15A 3645   5.724   2.152   4.290  0.8192  0.7475 -0.5307
   50CHL1  H15B 3646   5.679   2.322   4.266  2.1444 -1.8585 -0.2490
   50CHL1   C16 3647   5.566   2.205   4.424  0.0467  0.0415 -0.2871
   50CHL1  H16A 3648   5.624   2.136   4.489  1.6203  2.8526  1.5112
   50CHL1  H16B 3649   5.549   2.299   4.480  1.5122 -1.3235  2.6562
   50CHL1   C17 3650   5.432   2.138   4.398 -0.0954 -0.4156 -0.2134
   50CHL1   H17 3651   5.356   2.216   4.378  1.8278  1.9029  1.0162
   50CHL1   C13 3652   5.449   2.063   4.264 -0.2781  0.6681  1.4128
   50CHL1   C18 3653   5.522   1.929   4.287 -0.6528  0.5751 -1.0902
   50CHL1  H18A 3654   5.458   1.858   4.344 -0.2410  1.7925  1.0022
   50CHL1  H18B 3655   5.540   1.876   4.191 -0.2816  0.2267 -0.8354
   50CHL1  H18C 3656   5.621   1.943   4.337 -0.7269 -0.8030 -0.5042
   50CHL1   C12 3657   5.318   2.037   4.184  0.1643 -0.7124  0.4798
   50CHL1  H12A 3658   5.255   1.952   4.217  0.5990 -0.9607  0.6717
   50CHL1  H12B 3659   5.262   2.133   4.190  0.4659 -0.6080  2.2101
   50CHL1   C11 3660   5.350   2.003   4.033 -0.4041  0.0657  0.0400
   50CHL1  H11A 3661   5.407   1.909   4.045  0.2410  0.5590  1.0162
   50CHL1  H11B 3662   5.256   1.997   3.974 -0.4359  0.4809  0.0427
   50CHL1    C9 3663   5.450   2.106   3.965  0.2367 -0.3091  0.2755
   50CHL1    H9 3664   5.388   2.199   3.970 -0.8738 -1.1039  2.8162
   50CHL1   C10 3665   5.476   2.081   3.808 -0.1781  0.1016 -0.7905
   50CHL1   C19 3666   5.486   1.927   3.786 -0.1229 -0.3156  0.2893
   50CHL1  H19A 3667   5.506   1.897   3.681  2.5135  0.2339  0.5710
   50CHL1  H19B 3668   5.578   1.904   3.844  0.2363 -0.6609 -0.4083
   50CHL1  H19C 3669   5.403   1.869   3.832  0.8795 -0.8513  1.4648
   50CHL1    C1 3670   5.349   2.124   3.739  0.0084  0.7255  0.2584
   50CHL1   H1A 3671   5.265   2.061   3.773  1.0233 -1.5556 -1.1957
   50CHL1   H1B 3672   5.325   2.226   3.775 -0.4242  0.1944  1.5469
   50CHL1    C2 3673   5.360   2.121   3.582  0.1442  0.4331  0.0370
   50CHL1   H2A 3674   5.267   2.154   3.531 -0.7009 -0.4300  0.9965
   50CHL1   H2B 3675   5.373   2.017   3.548 -0.3567  0.4864 -0.3318
   50CHL1   C20 3676   5.389   2.050   4.522 -0.7948  0.4493  0.0158
   50CHL1   H20 3677   5.464   1.969   4.536  1.2289  2.1113 -0.7038
   50CHL1   C21 3678   5.248   1.981   4.509 -0.4065 -0.0558 -0.4697
   50CHL1  H21A 3679   5.160   2.049   4.518 -0.6430 -0.4058 -0.1297
   50CHL1  H21B 3680   5.240   1.912   4.596  0.8639 -0.7937 -0.9151
   50CHL1  H21C 3681   5.249   1.921   4.416  0.2652  0.7789 -1.0204
   50CHL1   C22 3682   5.393   2.121   4.655 -0.8236  0.2117 -0.3290
   50CHL1  H22A 3683   5.389   2.229   4.631  3.4647  0.3959 -0.8984
   50CHL1  H22B 3684   5.300   2.095   4.711 -0.9450 -0.3759 -0.7835
   50CHL1   C23 3685   5.513   2.081   4.743  1.2967  0.1771  0.5587
   50CHL1  H23A 3686   5.503   1.972   4.759 -0.7744  0.3428  0.6732
   50CHL1  H23B 3687   5.610   2.102   4.692  1.3128 -1.2135 -0.0328
   50CHL1   C24 3688   5.503   2.155   4.878  0.3193  0.6485  0.1424
   50CHL1  H24A 3689   5.507   2.265   4.860  0.9773  0.4663 -0.8912
   50CHL1  H24B 3690   5.405   2.140   4.928  0.5495 -0.1700  0.3516
   50CHL1   C25 3691   5.619   2.120   4.974  0.0654  0.2990  0.5562
   50CHL1   H25 3692   5.708   2.123   4.907 -0.6992 -0.1658 -0.4981
   50CHL1   C26 3693   5.635   2.221   5.089 -0.0351  0.7121  0.1193
   50CHL1  H26A 3694   5.546   2.209   5.154  0.5091 -3.0402  0.4213
   50CHL1  H26B 3695   5.720   2.199   5.157 -0.0187 -1.2885 -0.4775
   50CHL1  H26C 3696   5.644   2.318   5.036  0.6084 -0.8212 -2.7780
   50CHL1   C27 3697   5.612   1.968   5.018 -0.1614  0.0112 -0.4779
   50CHL1  H27A 3698   5.514   1.944   5.067  0.0781 -1.4469 -0.6554
   50CHL1  H27B 3699   5.616   1.901   4.929 -0.1235  0.1597 -0.5882
   50CHL1  H27C 3700   5.694   1.958   5.091 -1.0052 -0.0075  0.4975
   51CHL1    C3 3701   0.599   3.084   3.727 -0.2528 -0.5410  0.4756
   51CHL1    H3 3702   0.561   3.183   3.762 -1.1656 -0.6100 -0.2911
   51CHL1    O3 3703   0.578   3.092   3.586  0.2985  0.3491 -0.4174
   51CHL1   H3' 3704   0.545   3.004   3.564 -1.6916  0.7141  0.8072
   51CHL1    C4 3705   0.751   3.053   3.756 -0.7996  0.0101 -1.0255
   51CHL1   H4A 3706   0.771   2.947   3.729 -0.6721 -0.8176  1.9942
   51CHL1   H4B 3707   0.826   3.108   3.695 -1.0570  0.5752 -0.8393
   51CHL1    C5 3708   0.771   3.074   3.907  0.1437 -0.5225 -0.2435
   51CHL1    C6 3709   0.858   3.164   3.958 -0.3734  0.1407 -0.3836
   51CHL1    H6 3710   0.909   3.220   3.879  0.3268  0.7124  0.4436
   51CHL1    C7 3711   0.887   3.182   4.109  0.0875 -0.2059  0.4614
   51CHL1   H7A 3712   0.998   3.181   4.113  0.0982 -2.1811  0.6491
   51CHL1   H7B 3713   0.837   3.278   4.136  1.5440  1.0143 -1.0049
   51CHL1    C8 3714   0.818   3.076   4.207  1.0412  0.3444  0.2178
   51CHL1    H8 3715   0.878   2.984   4.192 -1.8163 -1.6389  0.1658
   51CHL1   C14 3716   0.805   3.117   4.351 -0.1552 -0.6707  0.0309
   51CHL1   H14 3717   0.724   3.190   4.371  0.2888  0.6438 -2.5412
   51CHL1   C15 3718   0.931   3.171   4.423 -0.4259 -0.2787 -0.4896
   51CHL1  H15A 3719   1.022   3.111   4.401  0.2793  0.0171  1.3970
   51CHL1  H15B 3720   0.952   3.278   4.403  0.7295 -0.0699  1.4543
   51CHL1   C16 3721   0.897   3.152   4.570  0.0811  0.4112  0.1770
   51CHL1  H16A 3722   0.989   3.096   4.598 -1.3772 -1.6845  0.9862
   51CHL1  H16B 3723   0.894   3.236   4.642 -0.1751  1.0099 -0.5168
   51CHL1   C17 3724   0.776   3.054   4.581 -1.2243 -0.1553  0.7547
   51CHL1   H17 3725   0.690   3.123   4.594 -0.9784 -0.0019  1.6156
   51CHL1   C13 3726   0.765   2.994   4.437 -0.3149  0.0721 -1.0786
   51CHL1   C18 3727   0.862   2.870   4.423 -0.9923 -0.0047 -0.8948
   51CHL1  H18A 3728   0.951   2.902   4.482 -1.4511 -0.3895  0.0201
   51CHL1  H18B 3729   0.827   2.775   4.468 -0.6909 -0.3877 -1.4583
   51CHL1  H18C 3730   0.900   2.842   4.322 -0.3572  2.3433 -1.3670
   51CHL1   C12 3731   0.622   2.953   4.390 -0.6863  0.1347 -0.0988
   51CHL1  H12A 3732   0.592   2.872   4.459 -1.3339  1.2113  0.9296
   51CHL1  H12B 3733   0.546   3.033   4.400 -1.2960 -0.3897 -0.4852
   51CHL1   C11 3734   0.619   2.918   4.245  0.5506  0.3886  0.4531
   51CHL1  H11A 3735   0.665   2.818   4.230  0.9819  0.6466  0.0215
   51CHL1  H11B 3736   0.514   2.911   4.210  0.1507  0.5960  1.5768
   51CHL1    C9 3737   0.682   3.030   4.150  0.3818  0.1810  0.0409
   51CHL1    H9 3738   0.606   3.110   4.163 -0.3655 -0.6546  1.1379
   51CHL1   C10 3739   0.680   2.988   3.994 -0.0442  0.5772 -1.1888
   51CHL1   C19 3740   0.720   2.837   3.992  0.1923 -0.4161  0.0014
   51CHL1  H19A 3741   0.633   2.784   4.036 -0.6151  0.5345 -0.4069
   51CHL1  H19B 3742   0.733   2.800   3.888 -1.0403 -0.4105 -0.1738
   51CHL1  H19C 3743   0.810   2.814   4.053 -0.4993 -0.6749  0.9545
   51CHL1    C1 3744   0.537   3.008   3.940  0.3595 -0.4450 -0.8597
   51CHL1   H1A 3745   0.467   2.934   3.986 -0.8023  0.7287 -0.6655
   51CHL1   H1B 3746   0.502   3.110   3.965  0.4252 -0.5664 -0.2542
   51CHL1    C2 3747   0.513   2.978   3.793  0.5733  0.5862 -0.4890
   51CHL1   H2A 3748   0.404   2.991   3.773 -0.2727 -0.0221  3.1357
   51CHL1   H2B 3749   0.548   2.880   3.754 -0.4313 -1.2539  2.9075
   51CHL1   C20 3750   0.795   2.971   4.716 -0.5685 -0.1854  0.7498
   51CHL1   H20 3751   0.895   2.924   4.707  1.4041  3.7785  0.2062
   51CHL1   C21 3752   0.680   2.863   4.728 -0.5807  0.2941 -0.6753
   51CHL1  H21A 3753   0.672   2.802   4.636 -2.2689  1.4561 -1.3373
   51CHL1  H21B 3754   0.588   2.921   4.748 -0.8347 -0.3864  0.2199
   51CHL1  H21C 3755   0.691   2.787   4.809 -0.6156  0.5233 -0.4544
   51CHL1   C22 3756   0.808   3.062   4.840 -0.4920 -0.8012  0.2996
   51CHL1  H22A 3757   0.890   3.134   4.825  0.9770 -1.9347  2.3677
   51CHL1  H22B 3758   0.713   3.116   4.861 -0.2336  0.5808 -1.8566
   51CHL1   C23 3759   0.847   2.986   4.967 -0.7600 -0.1136  0.0632
   51CHL1  H23A 3760   0.760   2.934   5.010 -0.9297  0.2860  0.2118
   51CHL1  H23B 3761   0.923   2.911   4.937 -0.1679  1.2266 -2.0025
   51CHL1   C24 3762   0.918   3.083   5.067 -0.2209  0.3182 -0.8924
   51CHL1  H24A 3763   1.010   3.116   5.013  0.9490 -2.4793 -0.7758
   51CHL1  H24B 3764   0.850   3.170   5.082  0.4899  1.0255 -1.6218
   51CHL1   C25 3765   0.956   2.996   5.197 -0.7589 -0.1875 -0.8840
   51CHL1   H25 3766   1.001   2.903   5.157  0.9966  0.5955 -0.8151
   51CHL1   C26 3767   1.044   3.069   5.290 -0.6733  0.5315 -0.5163
   51CHL1  H26A 3768   0.997   3.150   5.350  1.0306 -0.5016  2.3637
   51CHL1  H26B 3769   1.077   3.004   5.373 -0.9900  3.2773  1.9374
   51CHL1  H26C 3770   1.137   3.105   5.240  0.5948  1.6649  2.4595
   51CHL1   C27 3771   0.831   2.954   5.287  0.4639  0.2816 -0.3346
   51CHL1  H27A 3772   0.857   2.870   5.355 -1.5280  0.4083  0.6612
   51CHL1  H27B 3773   0.793   3.030   5.359 -1.2193 -1.5200  0.7661
   51CHL1  H27C 3774   0.759   2.913   5.212 -1.2654 -1.1638  1.9880
   52CHL1    C3 3775   0.718   4.538   3.747 -0.4142  0.5189 -0.2095
   52CHL1    H3 3776   0.650   4.476   3.684  2.3650 -2.4237 -0.5923
   52CHL1    O3 3777   0.773   4.620   3.643 -0.4139  0.2872  0.3834
   52CHL1   H3' 3778   0.831   4.681   3.687 -1.7169  0.7041  1.5880
   52CHL1    C4 3779   0.654   4.632   3.846 -0.1899 -0.4597 -0.3384
   52CHL1   H4A 3780   0.728   4.707   3.880  0.8087 -1.6012  0.0846
   52CHL1   H4B 3781   0.581   4.672   3.773  1.4192 -0.6317 -2.1160
   52CHL1    C5 3782   0.601   4.543   3.956 -0.3213 -0.0679 -0.0493
   52CHL1    C6 3783   0.476   4.545   3.998  0.6820  0.3736 -0.0202
   52CHL1    H6 3784   0.401   4.609   3.949  1.2439  0.6161 -0.5825
   52CHL1    C7 3785   0.427   4.483   4.126  0.6538  0.7424 -0.5307
   52CHL1   H7A 3786   0.371   4.566   4.174  2.8534  1.8795  0.2359
   52CHL1   H7B 3787   0.363   4.398   4.094  2.3536 -0.8775  0.1727
   52CHL1    C8 3788   0.530   4.435   4.229  0.3844 -0.0339 -0.6469
   52CHL1    H8 3789   0.575   4.514   4.292  0.5260 -0.0625 -0.7123
   52CHL1   C14 3790   0.469   4.338   4.330  0.0656 -0.0711  0.1460
   52CHL1   H14 3791   0.445   4.248   4.269  0.5042 -1.6365  2.1768
   52CHL1   C15 3792   0.350   4.384   4.410  0.2188  0.2523 -0.6639
   52CHL1  H15A 3793   0.385   4.477   4.460 -0.3489  0.7138 -1.1042
   52CHL1  H15B 3794   0.256   4.403   4.352 -0.0864  1.3697  0.1708
   52CHL1   C16 3795   0.339   4.281   4.527 -0.1571 -0.5842  0.0567
   52CHL1  H16A 3796   0.332   4.333   4.625 -0.6236  0.5871 -0.5619
   52CHL1  H16B 3797   0.243   4.225   4.517 -0.1561 -0.2503 -2.4057
   52CHL1   C17 3798   0.460   4.192   4.514 -0.2323  0.2987 -0.6154
   52CHL1   H17 3799   0.434   4.106   4.449  2.4398 -0.7962 -0.3754
   52CHL1   C13 3800   0.568   4.275   4.427  0.1247 -0.2061  0.6892
   52CHL1   C18 3801   0.634   4.375   4.526  0.5335 -0.0715 -0.2776
   52CHL1  H18A 3802   0.693   4.445   4.462 -1.3694  1.8275 -0.0854
   52CHL1  H18B 3803   0.551   4.427   4.578  0.2974 -1.1575  0.4522
   52CHL1  H18C 3804   0.699   4.316   4.594 -2.5753 -3.8792 -0.2270
   52CHL1   C12 3805   0.682   4.191   4.350 -0.0021  0.1314  0.2538
   52CHL1  H12A 3806   0.768   4.162   4.414  1.1896  1.3308 -0.7310
   52CHL1  H12B 3807   0.635   4.104   4.301  0.3814  0.3438 -0.5065
   52CHL1   C11 3808   0.744   4.287   4.236  0.9661 -0.1460 -0.1389
   52CHL1  H11A 3809   0.813   4.354   4.291 -2.3567  2.3410  1.3647
   52CHL1  H11B 3810   0.818   4.221   4.186  1.2718  0.1039 -0.0136
   52CHL1    C9 3811   0.643   4.368   4.148  0.0476 -0.0323  0.1293
   52CHL1    H9 3812   0.594   4.279   4.102  0.8754 -0.8975  0.8721
   52CHL1   C10 3813   0.703   4.454   4.026 -0.2943 -0.3729  0.3139
   52CHL1   C19 3814   0.807   4.554   4.092  0.5265  0.1673 -0.2598
   52CHL1  H19A 3815   0.901   4.497   4.103 -0.3917 -1.5056 -0.7345
   52CHL1  H19B 3816   0.831   4.642   4.029  0.9096 -0.5192 -1.0903
   52CHL1  H19C 3817   0.774   4.602   4.187 -0.8389 -0.6932 -0.2610
   52CHL1    C1 3818   0.769   4.361   3.926 -0.2119 -0.4108  0.4706
   52CHL1   H1A 3819   0.849   4.298   3.970  0.0311  0.2396  0.9816
   52CHL1   H1B 3820   0.698   4.288   3.880  1.3394 -4.0737  3.4109
   52CHL1    C2 3821   0.826   4.447   3.803  0.6317  0.3440  0.1552
   52CHL1   H2A 3822   0.857   4.377   3.723 -0.9152  0.6792 -0.7860
   52CHL1   H2B 3823   0.912   4.506   3.840  0.7873  0.7704 -0.8516
   52CHL1   C20 3824   0.508   4.135   4.658  0.7984  0.1334  0.4215
   52CHL1   H20 3825   0.561   4.219   4.709 -1.4191  0.2824  2.6476
   52CHL1   C21 3826   0.604   4.021   4.632 -0.8016  0.5836  0.0714
   52CHL1  H21A 3827   0.646   3.967   4.719 -1.4009 -0.1438 -0.0779
   52CHL1  H21B 3828   0.697   4.055   4.582 -0.2656  1.7897  1.7748
   52CHL1  H21C 3829   0.562   3.933   4.580 -0.3644 -1.0527  2.3227
   52CHL1   C22 3830   0.394   4.090   4.757 -0.1474  0.3804  0.9666
   52CHL1  H22A 3831   0.334   4.178   4.788 -1.8123 -0.9081  1.5585
   52CHL1  H22B 3832   0.317   4.037   4.697 -0.9566  2.1079  0.4144
   52CHL1   C23 3833   0.436   4.020   4.884 -0.4567 -0.7068  0.9629
   52CHL1  H23A 3834   0.459   3.916   4.852  0.9966 -0.0331 -0.3015
   52CHL1  H23B 3835   0.525   4.063   4.935 -0.1418 -1.5363  1.1181
   52CHL1   C24 3836   0.319   4.013   4.978 -0.4445 -0.0335 -0.5121
   52CHL1  H24A 3837   0.295   4.119   5.000 -2.2183 -0.4075 -0.4452
   52CHL1  H24B 3838   0.240   3.954   4.926  0.1468 -0.8665 -0.4741
   52CHL1   C25 3839   0.350   3.950   5.109  0.2459 -0.7314 -0.4144
   52CHL1   H25 3840   0.424   4.013   5.163 -0.5589 -1.2190  1.3323
   52CHL1   C26 3841   0.225   3.924   5.190  0.4741 -0.4133 -0.0909
   52CHL1  H26A 3842   0.245   3.870   5.285 -0.7197 -0.2644  0.2673
   52CHL1  H26B 3843   0.170   4.019   5.208 -0.4377 -0.5602 -1.8802
   52CHL1  H26C 3844   0.153   3.864   5.130 -1.4956  0.8018  0.9498
   52CHL1   C27 3845   0.418   3.814   5.092 -0.5012  0.2081  0.8282
   52CHL1  H27A 3846   0.502   3.809   5.019 -0.0112 -0.3745  1.4204
   52CHL1  H27B 3847   0.470   3.777   5.183  0.2098 -0.8626  0.0115
   52CHL1  H27C 3848   0.356   3.726   5.066  2.1809 -1.9288  1.2316
   53CHL1    C3 3849   2.296   3.217   3.609  0.2209 -0.3635 -0.0033
   53CHL1    H3 3850   2.192   3.255   3.599  1.2675  2.5198 -0.7772
   53CHL1    O3 3851   2.336   3.177   3.475 -0.0134 -0.0642 -0.7567
   53CHL1   H3' 3852   2.398   3.103   3.476  0.6974  0.5148 -0.3599
   53CHL1    C4 3853   2.397   3.313   3.671 -0.5326 -0.4107  0.0074
   53CHL1   H4A 3854   2.498   3.272   3.652 -0.1959 -0.1040  1.0323
   53CHL1   H4B 3855   2.390   3.405   3.609  0.8129 -0.6071 -0.4690
   53CHL1    C5 3856   2.384   3.334   3.818  0.3359 -1.0727 -1.0979
   53CHL1    C6 3857   2.381   3.455   3.870 -0.3246 -0.4402  0.7119
   53CHL1    H6 3858   2.390   3.537   3.797 -0.9824 -2.3722 -1.6720
   53CHL1    C7 3859   2.360   3.486   4.014 -0.3569 -0.4361 -0.7640
   53CHL1   H7A 3860   2.424   3.574   4.040 -0.2087 -1.0556  1.1693
   53CHL1   H7B 3861   2.259   3.523   4.040 -0.6899 -2.2037  0.7104
   53CHL1    C8 3862   2.382   3.365   4.114  0.7238 -1.2401 -0.0514
   53CHL1    H8 3863   2.490   3.341   4.125  0.7521 -1.4928 -0.8563
   53CHL1   C14 3864   2.323   3.383   4.255  0.0452 -0.7281 -0.1326
   53CHL1   H14 3865   2.216   3.408   4.242  0.0325 -0.9653 -0.4724
   53CHL1   C15 3866   2.366   3.507   4.334  0.5641 -0.2228 -0.3538
   53CHL1  H15A 3867   2.475   3.528   4.324  0.4435  0.2736 -0.6230
   53CHL1  H15B 3868   2.309   3.593   4.293 -0.5101 -0.0787  1.3407
   53CHL1   C16 3869   2.336   3.478   4.485  0.0832 -0.4039  0.1759
   53CHL1  H16A 3870   2.429   3.474   4.545 -1.5064 -1.5488  2.6888
   53CHL1  H16B 3871   2.261   3.547   4.528  1.3688 -0.0258  1.9071
   53CHL1   C17 3872   2.278   3.331   4.481 -0.1963 -0.5148 -0.5524
   53CHL1   H17 3873   2.172   3.346   4.450 -0.4807 -2.3417 -0.5893
   53CHL1   C13 3874   2.333   3.264   4.360  0.2286  0.5439  0.6163
   53CHL1   C18 3875   2.484   3.242   4.384 -0.1183  0.2419 -0.6753
   53CHL1  H18A 3876   2.505   3.207   4.488 -0.0890  2.8460  0.2721
   53CHL1  H18B 3877   2.516   3.158   4.320  1.9191  0.7296 -0.3763
   53CHL1  H18C 3878   2.542   3.334   4.361  1.4262 -1.1181 -2.4275
   53CHL1   C12 3879   2.254   3.154   4.287  0.1201  0.3357 -0.3261
   53CHL1  H12A 3880   2.245   3.058   4.342 -0.1400 -0.1567 -1.2089
   53CHL1  H12B 3881   2.149   3.189   4.273 -0.0778  0.8719  2.0546
   53CHL1   C11 3882   2.319   3.119   4.156  0.3344  0.6494 -0.1793
   53CHL1  H11A 3883   2.423   3.081   4.165  0.7806  1.9254  0.3974
   53CHL1  H11B 3884   2.247   3.048   4.110 -0.8704  1.8383 -0.1841
   53CHL1    C9 3885   2.323   3.243   4.055  0.8455  0.3949  0.3293
   53CHL1    H9 3886   2.214   3.262   4.047  0.9648  1.1228  0.3581
   53CHL1   C10 3887   2.376   3.210   3.909  1.0159  0.3874  0.4717
   53CHL1   C19 3888   2.514   3.149   3.919 -0.1997  0.2358 -0.2662
   53CHL1  H19A 3889   2.591   3.222   3.951 -2.4878  2.7701 -0.1356
   53CHL1  H19B 3890   2.516   3.051   3.971 -0.2775  0.2474 -0.2393
   53CHL1  H19C 3891   2.549   3.124   3.817  0.9932 -0.4174  0.2873
   53CHL1    C1 3892   2.270   3.123   3.843 -0.1232 -0.1512  0.4587
   53CHL1   H1A 3893   2.268   3.029   3.902  0.1481 -0.4153  0.0521
   53CHL1   H1B 3894   2.172   3.171   3.859  1.2403  2.3698  1.9145
   53CHL1    C2 3895   2.292   3.093   3.697  0.4275 -0.1371 -0.3005
   53CHL1   H2A 3896   2.211   3.039   3.643 -0.5150  2.6093 -1.7802
   53CHL1   H2B 3897   2.392   3.043   3.698  0.7626  0.5237  0.7713
   53CHL1   C20 3898   2.277   3.262   4.622 -0.4970 -0.4339 -0.2614
   53CHL1   H20 3899   2.380   3.275   4.662  0.3939 -2.9731 -1.4797
   53CHL1   C21 3900   2.260   3.111   4.613 -0.7167 -0.1503 -0.1604
   53CHL1  H21A 3901   2.291   3.073   4.712 -0.4104 -0.3256 -0.3207
   53CHL1  H21B 3902   2.329   3.056   4.546  1.0422 -1.4507  2.5488
   53CHL1  H21C 3903   2.151   3.091   4.599 -0.6870 -0.5047  0.1357
   53CHL1   C22 3904   2.174   3.332   4.723 -0.2058 -0.0429  1.1751
   53CHL1  H22A 3905   2.191   3.442   4.723  1.1226 -0.2302  1.5799
   53CHL1  H22B 3906   2.071   3.327   4.682  0.1805  1.5587 -0.1220
   53CHL1   C23 3907   2.190   3.282   4.865 -0.1628  0.2993  1.3076
   53CHL1  H23A 3908   2.205   3.173   4.879  3.1097  0.3444 -0.8221
   53CHL1  H23B 3909   2.281   3.326   4.909  0.6115 -0.1574  0.2216
   53CHL1   C24 3910   2.069   3.319   4.950  0.0608 -0.1503  0.5215
   53CHL1  H24A 3911   2.024   3.419   4.936 -0.7232 -0.3026  1.7606
   53CHL1  H24B 3912   1.986   3.247   4.933 -1.3188  0.5952  3.3807
   53CHL1   C25 3913   2.094   3.316   5.104 -0.0216  0.5770 -0.0176
   53CHL1   H25 3914   2.131   3.216   5.136  2.1277  1.3903  0.1997
   53CHL1   C26 3915   2.192   3.423   5.152 -0.3314  0.3783 -0.3580
   53CHL1  H26A 3916   2.140   3.519   5.133 -0.4674  0.4921  0.5368
   53CHL1  H26B 3917   2.219   3.419   5.260  1.8206 -1.6670 -0.8837
   53CHL1  H26C 3918   2.289   3.427   5.098 -1.0266 -1.7902 -1.9096
   53CHL1   C27 3919   1.956   3.335   5.176 -0.2835  0.5650  0.2901
   53CHL1  H27A 3920   1.897   3.242   5.162  1.4808 -0.3254 -1.8012
   53CHL1  H27B 3921   1.968   3.360   5.283  0.9164 -1.7242  0.7466
   53CHL1  H27C 3922   1.911   3.422   5.122  0.8988  0.3964 -1.0266
   54CHL1    C3 3923   1.047   3.884   3.561 -1.0072  0.2532  0.2573
   54CHL1    H3 3924   1.077   3.777   3.554 -2.5440 -0.1492 -0.7530
   54CHL1    O3 3925   1.065   3.961   3.443 -0.5050  0.4072  0.4055
   54CHL1   H3' 3926   1.054   4.053   3.469 -2.5046  0.4216 -0.2887
   54CHL1    C4 3927   0.897   3.885   3.603  0.3861 -0.5708  0.1678
   54CHL1   H4A 3928   0.855   3.984   3.578  2.0925  0.1448 -0.0320
   54CHL1   H4B 3929   0.846   3.818   3.531 -2.0917  0.8861  0.4668
   54CHL1    C5 3930   0.882   3.827   3.740  0.2107 -0.4082 -0.2590
   54CHL1    C6 3931   0.801   3.723   3.761  0.1203 -0.3573 -0.1088
   54CHL1    H6 3932   0.736   3.700   3.675  1.3955  2.2603 -1.8815
   54CHL1    C7 3933   0.775   3.659   3.894 -0.0959 -0.5315 -0.0813
   54CHL1   H7A 3934   0.664   3.663   3.902 -0.0181  2.0475  0.6007
   54CHL1   H7B 3935   0.793   3.549   3.900 -0.3681 -0.5238  1.2894
   54CHL1    C8 3936   0.830   3.739   4.020 -0.4857 -0.0151 -0.4020
   54CHL1    H8 3937   0.765   3.825   4.045  1.8653  2.1176 -1.2275
   54CHL1   C14 3938   0.827   3.653   4.137  0.0141  0.6920  0.0561
   54CHL1   H14 3939   0.897   3.567   4.125  0.8746  0.9190  2.7507
   54CHL1   C15 3940   0.689   3.603   4.187 -0.7302 -0.3837 -0.6969
   54CHL1  H15A 3941   0.608   3.676   4.167 -0.2975 -0.1442 -1.6252
   54CHL1  H15B 3942   0.660   3.507   4.139 -0.0820 -0.0208 -1.8551
   54CHL1   C16 3943   0.720   3.569   4.340  0.1311 -0.3330 -0.3381
   54CHL1  H16A 3944   0.642   3.620   4.399 -0.1875 -2.0421  0.8123
   54CHL1  H16B 3945   0.707   3.459   4.350 -0.1069 -0.3222 -0.5378
   54CHL1   C17 3946   0.864   3.620   4.375  0.3051  0.7587  0.6652
   54CHL1   H17 3947   0.929   3.531   4.356 -0.5869  0.0445  0.8770
   54CHL1   C13 3948   0.885   3.725   4.262  0.1506  0.4683  0.1215
   54CHL1   C18 3949   0.805   3.848   4.295  0.1816  0.2075 -0.2305
   54CHL1  H18A 3950   0.869   3.910   4.361  1.1598 -1.6133  0.5754
   54CHL1  H18B 3951   0.792   3.921   4.211 -0.8275 -1.5923 -1.7117
   54CHL1  H18C 3952   0.705   3.826   4.339  1.1988 -0.2888  1.9256
   54CHL1   C12 3953   1.031   3.751   4.229 -1.3179  0.1704  0.4584
   54CHL1  H12A 3954   1.075   3.808   4.313  0.6037  1.3177 -1.2486
   54CHL1  H12B 3955   1.094   3.661   4.214  0.7541  1.8218 -1.2236
   54CHL1   C11 3956   1.050   3.841   4.106  0.7919  0.4287  0.2960
   54CHL1  H11A 3957   1.014   3.944   4.126  0.6147  0.0506  2.0290
   54CHL1  H11B 3958   1.155   3.855   4.071 -0.1559  0.0041 -3.1474
   54CHL1    C9 3959   0.974   3.783   3.981  0.3812  0.4488 -0.1428
   54CHL1    H9 3960   1.034   3.693   3.958  0.2756  1.1504 -3.7562
   54CHL1   C10 3961   0.980   3.868   3.851  0.4859 -0.1228 -0.4434
   54CHL1   C19 3962   0.936   4.013   3.893 -0.4745 -0.1171 -0.3718
   54CHL1  H19A 3963   1.008   4.072   3.953 -0.0225 -0.1238 -0.9037
   54CHL1  H19B 3964   0.915   4.077   3.804  0.7614  0.9920  0.1031
   54CHL1  H19C 3965   0.838   4.018   3.946 -0.4215  1.3278 -0.3838
   54CHL1    C1 3966   1.123   3.866   3.799 -0.7835  0.4471  0.3931
   54CHL1   H1A 3967   1.193   3.901   3.878  0.4593  1.2924 -1.0265
   54CHL1   H1B 3968   1.148   3.758   3.787 -1.0197  0.1065  2.5252
   54CHL1    C2 3969   1.145   3.942   3.664  0.1196  0.6173 -0.3549
   54CHL1   H2A 3970   1.252   3.923   3.641  0.1156 -1.3628  0.9930
   54CHL1   H2B 3971   1.135   4.052   3.676  2.0005  1.1114 -2.6886
   54CHL1   C20 3972   0.881   3.658   4.522 -0.6049 -0.4316 -0.3247
   54CHL1   H20 3973   0.821   3.744   4.558 -0.2983 -0.6872  0.8522
   54CHL1   C21 3974   1.031   3.685   4.562  0.4555 -0.2755  0.4178
   54CHL1  H21A 3975   1.079   3.775   4.517 -0.3700 -0.0670 -0.0601
   54CHL1  H21B 3976   1.091   3.604   4.515 -1.9671 -1.4457 -0.8655
   54CHL1  H21C 3977   1.041   3.702   4.671  0.1171  1.7117  0.1778
   54CHL1   C22 3978   0.832   3.544   4.614  0.8556  0.1330 -0.2198
   54CHL1  H22A 3979   0.732   3.510   4.580  0.1867  2.2540 -0.5108
   54CHL1  H22B 3980   0.903   3.458   4.611 -0.9933 -1.5088  0.8125
   54CHL1   C23 3981   0.799   3.592   4.759  0.5290 -0.9367  0.4262
   54CHL1  H23A 3982   0.895   3.625   4.805  0.6906  3.2517 -2.2700
   54CHL1  H23B 3983   0.743   3.688   4.763  2.0258  0.0140 -0.4303
   54CHL1   C24 3984   0.725   3.492   4.852 -0.0684 -0.5251 -0.7337
   54CHL1  H24A 3985   0.629   3.463   4.804  1.4406 -2.1331 -2.9478
   54CHL1  H24B 3986   0.775   3.394   4.862  1.4691  0.3399  0.3431
   54CHL1   C25 3987   0.704   3.557   4.992 -0.5359 -0.0965 -0.0821
   54CHL1   H25 3988   0.681   3.663   4.970 -0.7542 -0.2891 -0.8216
   54CHL1   C26 3989   0.579   3.501   5.065  0.4271 -0.5451 -0.0567
   54CHL1  H26A 3990   0.596   3.401   5.110  0.1810 -0.2782  0.6402
   54CHL1  H26B 3991   0.546   3.578   5.138  1.3274  1.2316 -1.4122
   54CHL1  H26C 3992   0.498   3.489   4.990  0.3989  1.0991 -0.3456
   54CHL1   C27 3993   0.833   3.556   5.084  0.1236 -0.3912 -0.3297
   54CHL1  H27A 3994   0.802   3.607   5.178 -0.0701 -0.9754 -0.0683
   54CHL1  H27B 3995   0.866   3.450   5.096 -1.1387 -1.0872 -2.4432
   54CHL1  H27C 3996   0.912   3.609   5.027  0.5291  0.2547  0.7984
   55CHL1    C3 3997   6.233   4.925   4.049 -0.4873  0.2960  0.0236
   55CHL1    H3 3998   6.176   4.831   4.033  0.2478 -0.7884  3.0993
   55CHL1    O3 3999   6.195   5.010   3.939 -0.3461 -0.2895  0.2942
   55CHL1   H3' 4000   6.239   5.094   3.952  0.9188 -0.8361 -0.2438
   55CHL1    C4 4001   6.169   4.977   4.186 -0.2303  0.1992  0.2517
   55CHL1   H4A 4002   6.195   5.084   4.197 -1.2473  0.4840  0.0047
   55CHL1   H4B 4003   6.058   4.976   4.175 -0.3086  1.5812  0.7741
   55CHL1    C5 4004   6.225   4.927   4.320 -0.1516 -0.3982  0.4204
   55CHL1    C6 4005   6.136   4.884   4.411  0.5660  0.1715 -0.0099
   55CHL1    H6 4006   6.027   4.890   4.397  0.6199  0.8396 -0.1809
   55CHL1    C7 4007   6.177   4.835   4.548  0.1405 -0.8419 -0.1838
   55CHL1   H7A 4008   6.113   4.870   4.632 -0.3053  1.3602 -1.3698
   55CHL1   H7B 4009   6.166   4.725   4.548 -2.4528 -0.7205  2.7031
   55CHL1    C8 4010   6.329   4.858   4.577  0.5530  0.8328 -0.0949
   55CHL1    H8 4011   6.342   4.966   4.601 -3.0838  1.6841 -1.3222
   55CHL1   C14 4012   6.377   4.775   4.690  0.0120  0.0229 -0.8285
   55CHL1   H14 4013   6.358   4.667   4.672 -2.6613 -0.1927  2.3630
   55CHL1   C15 4014   6.306   4.812   4.828 -0.8543  0.2779 -0.6602
   55CHL1  H15A 4015   6.305   4.920   4.857 -1.5096 -0.8847  4.8884
   55CHL1  H15B 4016   6.199   4.783   4.835 -0.1693 -1.9930  2.4476
   55CHL1   C16 4017   6.394   4.730   4.928 -0.5159 -0.1594 -1.1607
   55CHL1  H16A 4018   6.402   4.790   5.021 -0.1053 -0.1977 -1.1661
   55CHL1  H16B 4019   6.356   4.630   4.959  2.2138 -1.2066 -0.8419
   55CHL1   C17 4020   6.537   4.700   4.853  0.4278 -0.0326 -0.4602
   55CHL1   H17 4021   6.532   4.600   4.806  1.2415  0.3300 -1.3411
   55CHL1   C13 4022   6.526   4.783   4.723 -0.4689 -0.3699  0.4507
   55CHL1   C18 4023   6.564   4.929   4.759  0.1884  0.1132  0.1839
   55CHL1  H18A 4024   6.673   4.948   4.766  0.0620  3.5958 -3.3401
   55CHL1  H18B 4025   6.523   5.008   4.692  0.5817  0.6592  0.5760
   55CHL1  H18C 4026   6.531   4.952   4.862  2.9655  0.3494  1.1023
   55CHL1   C12 4027   6.608   4.731   4.604  0.3769  0.1417  0.1249
   55CHL1  H12A 4028   6.715   4.750   4.626  0.3880 -0.3292  0.4850
   55CHL1  H12B 4029   6.609   4.622   4.580 -1.7623  0.0777  0.1283
   55CHL1   C11 4030   6.566   4.811   4.482 -0.8400 -0.4250 -0.7608
   55CHL1  H11A 4031   6.601   4.914   4.504 -2.2565 -0.1561  0.4107
   55CHL1  H11B 4032   6.619   4.774   4.391  0.4595  2.0192 -1.0911
   55CHL1    C9 4033   6.413   4.821   4.453  0.3492 -0.1624  0.3340
   55CHL1    H9 4034   6.380   4.719   4.424 -0.5365  0.6832 -1.8811
   55CHL1   C10 4035   6.379   4.907   4.329 -0.1168 -0.9100  0.4104
   55CHL1   C19 4036   6.449   5.048   4.344  0.4577 -0.3749  0.7007
   55CHL1  H19A 4037   6.419   5.114   4.260  3.3440 -0.3967 -0.4812
   55CHL1  H19B 4038   6.444   5.098   4.443 -0.7664 -0.1942  0.5544
   55CHL1  H19C 4039   6.558   5.028   4.336  0.3867 -0.6942  0.5081
   55CHL1    C1 4040   6.419   4.833   4.197 -0.0140  0.3650  0.1539
   55CHL1   H1A 4041   6.530   4.830   4.199 -0.0430 -1.3633  1.6542
   55CHL1   H1B 4042   6.366   4.735   4.196 -1.3935  1.0716 -1.2806
   55CHL1    C2 4043   6.386   4.910   4.068 -0.0875 -0.2634  0.4923
   55CHL1   H2A 4044   6.447   4.857   3.991  1.2579  0.1259  1.2501
   55CHL1   H2B 4045   6.416   5.016   4.076 -0.3780  0.0738 -2.1146
   55CHL1   C20 4046   6.658   4.712   4.951 -0.1620  0.1704  0.0244
   55CHL1   H20 4047   6.644   4.809   5.004  0.5221 -0.5701  1.6210
   55CHL1   C21 4048   6.792   4.712   4.886 -0.5360  0.2001  0.5505
   55CHL1  H21A 4049   6.802   4.627   4.816 -1.3312  0.6308 -0.1055
   55CHL1  H21B 4050   6.876   4.693   4.957 -1.5751  0.7999  1.9966
   55CHL1  H21C 4051   6.827   4.808   4.841 -1.3180  0.5806  0.7347
   55CHL1   C22 4052   6.665   4.605   5.060  0.0388 -0.2138 -0.1306
   55CHL1  H22A 4053   6.564   4.577   5.097 -0.1631 -0.8906 -1.1369
   55CHL1  H22B 4054   6.727   4.521   5.021  0.5317  0.1343 -0.1037
   55CHL1   C23 4055   6.745   4.665   5.182 -0.1156  0.0234  0.5480
   55CHL1  H23A 4056   6.840   4.700   5.137 -1.0707  1.3336 -0.5246
   55CHL1  H23B 4057   6.694   4.759   5.213 -0.2269  1.0491 -2.3585
   55CHL1   C24 4058   6.757   4.570   5.296 -0.4122  0.5791  0.5886
   55CHL1  H24A 4059   6.805   4.620   5.383 -0.4167 -0.7688  1.3831
   55CHL1  H24B 4060   6.660   4.543   5.344  0.2301  0.3660  1.8244
   55CHL1   C25 4061   6.830   4.433   5.265 -0.0559  0.0355 -0.4209
   55CHL1   H25 4062   6.761   4.377   5.199 -2.1750 -1.4139  2.7939
   55CHL1   C26 4063   6.969   4.444   5.201  0.1763 -0.3061 -0.3262
   55CHL1  H26A 4064   6.954   4.503   5.107 -3.5012 -1.1533 -0.4225
   55CHL1  H26B 4065   7.042   4.500   5.263  1.0802 -0.3647 -1.3054
   55CHL1  H26C 4066   7.010   4.343   5.180  1.4162  0.3412 -1.1402
   55CHL1   C27 4067   6.841   4.354   5.402 -0.3068  0.7321  0.2746
   55CHL1  H27A 4068   6.923   4.396   5.463 -0.0814  0.9781 -0.1866
   55CHL1  H27B 4069   6.746   4.361   5.460  0.6199  3.5212  1.6357
   55CHL1  H27C 4070   6.863   4.246   5.393  0.2640  0.9714 -1.6096
   56CHL1    C3 4071   0.445   2.224   3.747 -0.3913  0.4869 -0.4288
   56CHL1    H3 4072   0.383   2.137   3.777 -1.3000  0.4636 -2.2580
   56CHL1    O3 4073   0.519   2.175   3.637  0.2714 -0.2097 -0.1354
   56CHL1   H3' 4074   0.538   2.256   3.588  0.2327  0.3450  0.7388
   56CHL1    C4 4075   0.356   2.344   3.707  0.0221  0.6946 -0.3688
   56CHL1   H4A 4076   0.419   2.415   3.650  3.5344 -2.3973 -0.7531
   56CHL1   H4B 4077   0.286   2.300   3.633  0.3907 -0.3917 -0.0996
   56CHL1    C5 4078   0.284   2.403   3.830  0.6279  0.1232  0.1606
   56CHL1    C6 4079   0.149   2.407   3.847 -0.5633  0.2852  1.2584
   56CHL1    H6 4080   0.084   2.373   3.765 -0.7726  2.3189  0.5101
   56CHL1    C7 4081   0.072   2.461   3.963 -1.1283 -0.2623 -0.3942
   56CHL1   H7A 4082  -0.026   2.507   3.938 -0.6518  0.6307 -0.6686
   56CHL1   H7B 4083   0.042   2.381   4.034 -1.8254  0.7921  0.5512
   56CHL1    C8 4084   0.163   2.567   4.042 -0.6926  0.2052  0.1445
   56CHL1    H8 4085   0.180   2.659   3.982 -0.5763  1.6685  2.2835
   56CHL1   C14 4086   0.100   2.602   4.171 -0.0237 -0.6439 -1.2381
   56CHL1   H14 4087   0.101   2.503   4.222  2.1537  0.0343  0.1632
   56CHL1   C15 4088  -0.049   2.651   4.177  0.3706  0.8295 -0.2971
   56CHL1  H15A 4089  -0.076   2.737   4.112 -1.4952  0.9036  0.5035
   56CHL1  H15B 4090  -0.122   2.567   4.180  0.5010  0.7587  1.7244
   56CHL1   C16 4091  -0.062   2.705   4.319  0.4890 -0.1875 -0.3888
   56CHL1  H16A 4092  -0.083   2.814   4.312  0.7804 -0.0966  0.0642
   56CHL1  H16B 4093  -0.142   2.665   4.385 -0.0375 -1.0059 -1.4920
   56CHL1   C17 4094   0.075   2.703   4.388 -0.4227  0.6745  0.2171
   56CHL1   H17 4095   0.080   2.607   4.442  0.8650 -0.1046 -1.2088
   56CHL1   C13 4096   0.175   2.700   4.271 -0.0983 -0.1919  0.3919
   56CHL1   C18 4097   0.184   2.844   4.220  0.3128  0.3335 -0.2571
   56CHL1  H18A 4098   0.198   2.846   4.110  1.3784 -0.6377 -0.1570
   56CHL1  H18B 4099   0.102   2.913   4.252  0.6144 -0.8065  3.4326
   56CHL1  H18C 4100   0.275   2.891   4.262  0.2415 -0.4622  0.8050
   56CHL1   C12 4101   0.306   2.631   4.302  0.1684 -0.2897  0.0608
   56CHL1  H12A 4102   0.366   2.706   4.358  0.8808  1.5756 -2.9203
   56CHL1  H12B 4103   0.283   2.541   4.361  0.0035 -0.3414 -0.0823
   56CHL1   C11 4104   0.386   2.586   4.174 -0.4684 -0.3873 -0.2364
   56CHL1  H11A 4105   0.417   2.685   4.133  2.9043  0.2992  3.3741
   56CHL1  H11B 4106   0.477   2.534   4.210 -0.3142  0.7154  1.0355
   56CHL1    C9 4107   0.301   2.498   4.073  0.1630  0.1840 -0.4581
   56CHL1    H9 4108   0.284   2.406   4.133 -1.3547  0.0707 -1.0315
   56CHL1   C10 4109   0.375   2.448   3.948 -0.3783 -0.5966  0.6310
   56CHL1   C19 4110   0.462   2.565   3.893 -0.6312 -0.0747  0.5564
   56CHL1  H19A 4111   0.409   2.663   3.890 -0.4978 -0.0189 -0.3465
   56CHL1  H19B 4112   0.551   2.584   3.957 -0.4523  1.4803 -0.0970
   56CHL1  H19C 4113   0.501   2.554   3.790 -1.6407  2.9845 -0.2781
   56CHL1    C1 4114   0.468   2.330   3.986  0.0060  0.1839 -0.4339
   56CHL1   H1A 4115   0.533   2.342   4.076  0.1838 -1.9331 -0.2170
   56CHL1   H1B 4116   0.397   2.253   4.025 -1.9267  2.2871  0.4118
   56CHL1    C2 4117   0.539   2.264   3.867  0.2080  0.5655 -0.0985
   56CHL1   H2A 4118   0.605   2.181   3.900  0.6413  1.5266  1.5888
   56CHL1   H2B 4119   0.617   2.335   3.832 -0.4998  0.5092 -1.8643
   56CHL1   C20 4120   0.090   2.810   4.494 -0.1563 -0.8464 -0.2858
   56CHL1   H20 4121   0.103   2.914   4.457  1.1547 -1.1732 -0.7955
   56CHL1   C21 4122   0.222   2.791   4.575  0.3947 -0.7237 -0.4314
   56CHL1  H21A 4123   0.226   2.857   4.664  0.0396 -0.8127 -0.3484
   56CHL1  H21B 4124   0.315   2.814   4.517  1.0014 -0.3318  0.6762
   56CHL1  H21C 4125   0.219   2.689   4.620  0.3630  0.0109  1.3001
   56CHL1   C22 4126  -0.031   2.824   4.586  0.5820  0.1420  0.3303
   56CHL1  H22A 4127   0.000   2.903   4.657  2.0746  2.1126 -2.3503
   56CHL1  H22B 4128  -0.128   2.863   4.547 -0.2302  1.1392  3.1623
   56CHL1   C23 4129  -0.060   2.697   4.670 -0.0970 -0.3476 -0.2400
   56CHL1  H23A 4130  -0.120   2.625   4.609 -0.4075 -0.5613  0.3099
   56CHL1  H23B 4131   0.033   2.640   4.691 -0.3082 -0.1161  1.4210
   56CHL1   C24 4132  -0.140   2.730   4.799  0.2108 -0.5348  0.2521
   56CHL1  H24A 4133  -0.077   2.789   4.869 -2.3883  0.9717  1.4427
   56CHL1  H24B 4134  -0.231   2.790   4.780 -0.9105 -1.8586  1.2199
   56CHL1   C25 4135  -0.189   2.608   4.880 -0.1996  0.6009 -0.2703
   56CHL1   H25 4136  -0.241   2.539   4.810  0.0879 -0.8517  0.9147
   56CHL1   C26 4137  -0.077   2.527   4.942 -0.7566  1.1325  0.3132
   56CHL1  H26A 4138  -0.001   2.498   4.867 -2.6547 -0.3503 -1.1427
   56CHL1  H26B 4139  -0.023   2.593   5.013  2.5145  2.6825 -3.2815
   56CHL1  H26C 4140  -0.110   2.434   4.993  1.1449 -1.0925 -2.2501
   56CHL1   C27 4141  -0.288   2.644   4.986 -0.5990 -0.0133 -0.1257
   56CHL1  H27A 4142  -0.237   2.713   5.057 -0.8766 -0.7728  0.8359
   56CHL1  H27B 4143  -0.373   2.705   4.947  2.1035  2.2655 -2.9191
   56CHL1  H27C 4144  -0.317   2.556   5.047  0.1021 -0.4463 -0.4187
   57SAPC     N 4145   5.578   3.505   7.818 -0.9154  0.7653 -0.2175
   57SAPC   C12 4146   5.554   3.574   7.691 -0.0895  0.2653  0.4928
   57SAPC  H12A 4147   5.647   3.581   7.636  0.3150  3.5839  1.4044
   57SAPC  H12B 4148   5.527   3.676   7.712 -0.1892 -0.0667  2.1363
   57SAPC   C13 4149   5.488   3.523   7.944  1.0725 -0.6150  0.0776
   57SAPC  H13A 4150   5.462   3.626   7.961  0.6290 -1.1028  2.6715
   57SAPC  H13B 4151   5.396   3.472   7.922  0.8716 -1.0624  1.8302
   57SAPC  H13C 4152   5.535   3.482   8.032  1.0619 -1.1173 -0.1440
   57SAPC   C14 4153   5.599   3.353   7.795  0.4671 -0.5572 -0.2536
   57SAPC  H14A 4154   5.634   3.301   7.883 -1.7033 -0.9428  0.4394
   57SAPC  H14B 4155   5.501   3.307   7.798  0.1001  0.2129  2.7771
   57SAPC  H14C 4156   5.663   3.331   7.711  0.1084  0.9639 -0.9694
   57SAPC   C15 4157   5.718   3.540   7.858 -0.3175 -0.2919 -0.2940
   57SAPC  H15A 4158   5.779   3.548   7.768 -1.1962 -0.5863 -0.9279
   57SAPC  H15B 4159   5.728   3.629   7.919  1.0398 -0.9787  0.5135
   57SAPC  H15C 4160   5.769   3.463   7.914 -0.4133  0.1019  0.3403
   57SAPC   C11 4161   5.454   3.507   7.597 -0.9548 -0.0250 -0.5535
   57SAPC  H11A 4162   5.468   3.397   7.599 -1.1048 -0.0282  0.4671
   57SAPC  H11B 4163   5.485   3.539   7.495 -0.2828 -1.7257 -0.9221
   57SAPC     P 4164   5.279   3.687   7.575  0.1520 -0.5198 -0.0953
   57SAPC   O13 4165   5.135   3.714   7.612 -0.6237 -0.2370  0.1386
   57SAPC   O14 4166   5.378   3.792   7.604  0.8639  0.3440  0.3265
   57SAPC   O12 4167   5.325   3.556   7.630 -0.3661 -0.0515 -0.7312
   57SAPC   O11 4168   5.285   3.661   7.420  0.1971  0.2060 -0.0860
   57SAPC    C1 4169   5.192   3.557   7.363  0.4409  0.4618  0.1169
   57SAPC    HA 4170   5.162   3.475   7.432  1.9060 -1.3855 -1.3388
   57SAPC    HB 4171   5.099   3.598   7.318  1.1496  0.2360 -1.6346
   57SAPC    C2 4172   5.249   3.492   7.238 -0.3262  0.0310 -0.7356
   57SAPC    HS 4173   5.345   3.447   7.271 -0.5463  0.7286  0.9721
   57SAPC   O21 4174   5.273   3.589   7.142  0.3114 -0.0751 -0.0882
   57SAPC   C21 4175   5.368   3.564   7.048 -0.5526  0.6176  0.0755
   57SAPC   O22 4176   5.449   3.477   7.065 -0.5598  0.2367  0.1511
   57SAPC   C22 4177   5.358   3.652   6.928  0.1492  0.5028 -0.6992
   57SAPC   H2R 4178   5.261   3.632   6.877 -0.1305  0.9574 -0.3513
   57SAPC   H2S 4179   5.362   3.755   6.968 -1.2977 -0.0837  1.1153
   57SAPC    C3 4180   5.152   3.375   7.197 -0.2440  0.3451  0.5428
   57SAPC    HX 4181   5.072   3.429   7.143  0.3747 -0.9602 -1.8329
   57SAPC    HY 4182   5.110   3.314   7.280 -1.8930 -1.1987 -1.3134
   57SAPC   O31 4183   5.213   3.289   7.099 -0.1992  0.4052  0.7635
   57SAPC   C31 4184   5.310   3.211   7.139  0.5415 -0.3590 -0.8695
   57SAPC   O32 4185   5.342   3.198   7.254  0.5650  0.7422 -0.7911
   57SAPC   C32 4186   5.352   3.125   7.021  0.0541 -0.0913 -0.5962
   57SAPC   H2X 4187   5.323   3.172   6.925  0.7272  1.8581  0.1176
   57SAPC   H2Y 4188   5.301   3.027   7.034  1.6264 -1.2801 -2.7100
   57SAPC   C23 4189   5.473   3.624   6.826  0.0145  0.0146 -0.0159
   57SAPC   H3R 4190   5.568   3.661   6.870 -0.4614 -0.6871  1.6451
   57SAPC   H3S 4191   5.447   3.690   6.740  0.1144  1.0887  0.7659
   57SAPC   C24 4192   5.493   3.488   6.758 -0.8588  0.5944  0.0528
   57SAPC   H4R 4193   5.564   3.430   6.820  0.6588  2.9023  0.5984
   57SAPC   H4S 4194   5.539   3.508   6.659 -0.0881 -2.0565 -0.1926
   57SAPC   C25 4195   5.361   3.419   6.732 -0.3462  0.3471 -0.0209
   57SAPC   H5R 4196   5.298   3.400   6.820 -1.5626  2.2080 -0.4384
   57SAPC   C26 4197   5.307   3.386   6.614 -0.1452 -0.2677  0.2425
   57SAPC   H6R 4198   5.233   3.305   6.625 -0.2970 -0.1356  0.1926
   57SAPC   C27 4199   5.364   3.408   6.480 -0.1375 -0.9063  0.1269
   57SAPC   H7R 4200   5.293   3.365   6.406 -1.3596  0.4078  0.4833
   57SAPC   H7S 4201   5.452   3.343   6.464  0.1638 -0.6533  0.7073
   57SAPC   C28 4202   5.390   3.554   6.442 -0.2044  0.1453 -0.6649
   57SAPC   H8R 4203   5.365   3.632   6.514  0.4441 -1.2875  1.2030
   57SAPC   C29 4204   5.436   3.584   6.317 -0.5548 -0.3276 -1.1401
   57SAPC   H9R 4205   5.456   3.691   6.297  0.6323 -0.1064  0.9050
   57SAPC  C210 4206   5.461   3.487   6.200 -0.6022 -0.0542  0.2422
   57SAPC  H10R 4207   5.456   3.380   6.231 -0.1854 -0.5733 -1.3625
   57SAPC  H10S 4208   5.567   3.494   6.168 -0.1162 -1.2189  1.5127
   57SAPC  C211 4209   5.360   3.500   6.084  0.0611  0.4991  0.8066
   57SAPC  H11R 4210   5.255   3.474   6.107 -0.6471  1.1664 -1.4241
   57SAPC  C212 4211   5.384   3.532   5.953 -0.2045  0.3994 -0.3986
   57SAPC  H12R 4212   5.303   3.543   5.879 -0.4406 -2.3525 -0.6542
   57SAPC  C213 4213   5.520   3.564   5.894  0.2991  0.0070 -0.4099
   57SAPC  H13R 4214   5.590   3.580   5.979 -0.8838  2.8839  0.1365
   57SAPC  H13S 4215   5.525   3.658   5.835  1.3515  1.7792  2.3125
   57SAPC  C214 4216   5.561   3.440   5.813 -0.4971  0.4053  0.7043
   57SAPC  H14R 4217   5.518   3.343   5.842 -0.8118 -0.8102 -3.2255
   57SAPC  C215 4218   5.633   3.454   5.700 -0.3182  0.2353 -0.0945
   57SAPC  H15R 4219   5.639   3.371   5.628  2.0045 -0.2494  0.5735
   57SAPC  C216 4220   5.689   3.592   5.662  0.8068  0.2093  0.1879
   57SAPC  H16R 4221   5.716   3.655   5.750 -2.1665 -0.2587  1.5399
   57SAPC  H16S 4222   5.614   3.634   5.592 -1.4019  1.5634  3.1599
   57SAPC  C217 4223   5.827   3.596   5.598  0.1505  0.3108 -0.1134
   57SAPC  H17R 4224   5.908   3.547   5.656  0.7934 -0.1679 -1.3706
   57SAPC  H17S 4225   5.860   3.702   5.590  0.1659  0.2752 -0.5633
   57SAPC  C218 4226   5.840   3.532   5.457  0.0742  0.3130  0.0313
   57SAPC  H18R 4227   5.785   3.594   5.383 -2.6213 -1.8794  0.0135
   57SAPC  H18S 4228   5.781   3.438   5.451 -0.1534  0.5328 -3.1619
   57SAPC  C219 4229   5.972   3.500   5.398  0.1955  0.0329  0.9276
   57SAPC  H19R 4230   6.029   3.424   5.457  0.4648  0.1802  0.8589
   57SAPC  H19S 4231   6.044   3.585   5.393 -0.2207  0.2929 -1.4751
   57SAPC  C220 4232   5.958   3.442   5.260  0.1291  0.2369 -0.0937
   57SAPC  H20R 4233   5.908   3.512   5.189  0.0384  0.3277  0.0597
   57SAPC  H20S 4234   5.900   3.349   5.272 -0.3589  0.5625  0.1055
   57SAPC  H20T 4235   6.058   3.416   5.221  0.0706 -3.4066  1.7885
   57SAPC   C33 4236   5.510   3.113   7.023  0.1789  0.3817 -0.5675
   57SAPC   H3X 4237   5.547   3.090   7.125  1.0226 -0.0649 -0.9633
   57SAPC   H3Y 4238   5.551   3.212   6.996  0.2890  0.5700  0.2599
   57SAPC   C34 4239   5.560   3.002   6.928 -0.7656 -0.1062 -0.4643
   57SAPC   H4X 4240   5.483   2.923   6.936 -1.3449  0.5188  0.2546
   57SAPC   H4Y 4241   5.655   2.967   6.975 -0.4528  1.2241 -0.0538
   57SAPC   C35 4242   5.580   3.036   6.782  0.0142  0.3025  0.1445
   57SAPC   H5X 4243   5.494   3.099   6.750  0.0637 -0.2439 -1.0964
   57SAPC   H5Y 4244   5.579   2.937   6.732  0.1256 -0.2922  1.2949
   57SAPC   C36 4245   5.712   3.112   6.746  0.3237 -0.0461  0.2734
   57SAPC   H6X 4246   5.807   3.055   6.757  1.2137  1.5659  1.3836
   57SAPC   H6Y 4247   5.724   3.183   6.831  2.4610 -1.8146  1.5841
   57SAPC   C37 4248   5.694   3.173   6.607 -0.5447 -0.4897  0.0010
   57SAPC   H7X 4249   5.618   3.254   6.607 -1.0993 -1.0019  0.5347
   57SAPC   H7Y 4250   5.681   3.088   6.537  0.8361 -1.6895  1.1175
   57SAPC   C38 4251   5.830   3.236   6.552 -0.5989 -0.0483 -0.3222
   57SAPC   H8X 4252   5.906   3.155   6.553  0.9107  1.3117  1.0230
   57SAPC   H8Y 4253   5.872   3.312   6.622 -0.3452  1.4608 -2.0480
   57SAPC   C39 4254   5.812   3.301   6.407  1.0491  0.0918 -0.1779
   57SAPC   H9X 4255   5.906   3.346   6.369  1.6855 -0.5626  0.5882
   57SAPC   H9Y 4256   5.741   3.386   6.417 -0.8255 -1.4092 -0.2701
   57SAPC  C310 4257   5.742   3.204   6.305 -0.1868  0.0689 -0.4247
   57SAPC  H10X 4258   5.635   3.197   6.333  0.3257  0.1395  1.7452
   57SAPC  H10Y 4259   5.795   3.107   6.306  2.9154  1.6034  0.6544
   57SAPC  C311 4260   5.753   3.260   6.166 -0.7075  0.6774  0.0373
   57SAPC  H11X 4261   5.744   3.370   6.153 -1.7053  0.4184 -1.9160
   57SAPC  H11Y 4262   5.674   3.217   6.100  1.3745  0.5080 -2.5397
   57SAPC  C312 4263   5.882   3.223   6.093 -0.5791  0.4156 -0.2616
   57SAPC  H12X 4264   5.902   3.114   6.105 -1.5177  0.2053 -0.4617
   57SAPC  H12Y 4265   5.969   3.282   6.129 -1.1339  0.9608  0.2089
   57SAPC  C313 4266   5.863   3.248   5.946 -0.0234 -0.0157  0.1274
   57SAPC  H13X 4267   5.886   3.356   5.934 -0.1008  0.1050  1.0501
   57SAPC  H13Y 4268   5.753   3.246   5.925  0.1340  1.9508 -1.1270
   57SAPC  C314 4269   5.941   3.158   5.849  0.4187 -0.3469  0.0743
   57SAPC  H14X 4270   5.904   3.054   5.838 -0.0367 -0.0164 -1.9758
   57SAPC  H14Y 4271   6.039   3.139   5.899  0.5442  1.1053  0.4152
   57SAPC  C315 4272   5.959   3.233   5.715  0.1975 -0.4394 -0.0901
   57SAPC  H15X 4273   6.029   3.319   5.723 -1.0436  0.5098  0.8416
   57SAPC  H15Y 4274   5.857   3.271   5.696  0.0084 -0.7868  0.2207
   57SAPC  C316 4275   6.025   3.141   5.605 -0.3671  0.9501 -0.1878
   57SAPC  H16X 4276   6.020   3.178   5.501  0.5117  1.1598 -0.1605
   57SAPC  H16Y 4277   5.985   3.037   5.605 -2.1468  1.6059  0.5940
   57SAPC  C317 4278   6.170   3.124   5.627 -0.0825  0.3468 -0.2855
   57SAPC  H17X 4279   6.203   3.039   5.563 -0.1102  0.5289 -0.5421
   57SAPC  H17Y 4280   6.188   3.100   5.734 -2.0935  0.7770  0.1863
   57SAPC  C318 4281   6.236   3.250   5.575  0.1972 -0.7439 -0.1843
   57SAPC  H18X 4282   6.345   3.257   5.593  0.1929  1.4564 -0.7355
   57SAPC  H18Y 4283   6.187   3.344   5.610 -1.7470 -0.8761 -2.2888
   57SAPC  H18Z 4284   6.233   3.263   5.465  0.5078  1.5027  0.0328
   58SAPC     N 4285   3.378   4.034   7.486 -0.0548  0.0300  0.1837
   58SAPC   C12 4286   3.397   3.961   7.349 -0.3912 -0.3678 -0.4894
   58SAPC  H12A 4287   3.488   3.903   7.360  0.5481  0.7563 -1.9969
   58SAPC  H12B 4288   3.429   4.027   7.270  1.9338 -1.4465 -0.5411
   58SAPC   C13 4289   3.267   4.141   7.456 -0.0997 -0.5825 -0.2338
   58SAPC  H13A 4290   3.286   4.202   7.369 -1.1119  1.7897  1.1305
   58SAPC  H13B 4291   3.174   4.086   7.447 -0.2260 -0.4559  0.2459
   58SAPC  H13C 4292   3.271   4.211   7.537  1.7233  0.5091 -1.2062
   58SAPC   C14 4293   3.326   3.939   7.591 -0.2033 -0.9200 -0.0455
   58SAPC  H14A 4294   3.334   3.991   7.686  0.6266 -0.1464 -0.5299
   58SAPC  H14B 4295   3.226   3.908   7.565 -1.5278  2.0254  1.0983
   58SAPC  H14C 4296   3.392   3.854   7.604 -0.3169 -0.7596  2.0784
   58SAPC   C15 4297   3.502   4.098   7.537  0.1960  0.6494  1.0067
   58SAPC  H15A 4298   3.484   4.170   7.615  0.6903  1.2943  0.5404
   58SAPC  H15B 4299   3.575   4.028   7.574 -0.1547  0.2746  1.0024
   58SAPC  H15C 4300   3.547   4.161   7.461 -2.4102  0.0632 -1.1863
   58SAPC   C11 4301   3.279   3.880   7.290 -0.7779  0.1525  0.6330
   58SAPC  H11A 4302   3.296   3.825   7.195 -0.8520  0.1391  0.6271
   58SAPC  H11B 4303   3.204   3.955   7.255  1.0407  1.1189 -1.4553
   58SAPC     P 4304   3.270   3.642   7.384 -0.1157 -0.5499 -0.0882
   58SAPC   O13 4305   3.415   3.652   7.377 -0.5513  0.4091  0.3350
   58SAPC   O14 4306   3.204   3.575   7.499 -0.1788  0.2148  0.4305
   58SAPC   O12 4307   3.219   3.790   7.382 -0.3990 -0.6220  0.5641
   58SAPC   O11 4308   3.213   3.595   7.244 -0.5872 -0.0394  0.8106
   58SAPC    C1 4309   3.076   3.616   7.206 -0.0452  0.1004  0.3204
   58SAPC    HA 4310   3.006   3.580   7.285  0.5614 -1.5793  0.1118
   58SAPC    HB 4311   3.064   3.726   7.192 -1.3291 -0.0449  0.1800
   58SAPC    C2 4312   3.039   3.544   7.067 -0.5605 -0.1902 -0.3196
   58SAPC    HS 4313   3.034   3.436   7.091  0.5313 -0.1039  0.3743
   58SAPC   O21 4314   3.146   3.577   6.977 -0.8151  0.1170 -0.7108
   58SAPC   C21 4315   3.230   3.476   6.937  0.7133 -0.3110  0.9139
   58SAPC   O22 4316   3.212   3.357   6.955 -0.0940  0.1240 -0.8449
   58SAPC   C22 4317   3.332   3.540   6.848  0.0245  0.1197 -0.3931
   58SAPC   H2R 4318   3.293   3.591   6.757  0.6836 -0.9379 -1.3022
   58SAPC   H2S 4319   3.399   3.611   6.903  1.0810 -2.2414  1.5351
   58SAPC    C3 4320   2.909   3.602   7.008 -0.3678  0.4790  0.0657
   58SAPC    HX 4321   2.940   3.708   6.991  0.3296  0.1808 -0.5313
   58SAPC    HY 4322   2.832   3.585   7.087 -1.6504 -3.1560 -1.7446
   58SAPC   O31 4323   2.873   3.537   6.886 -0.0897  0.2168 -0.0920
   58SAPC   C31 4324   2.818   3.411   6.897 -0.0330 -0.0399 -0.0666
   58SAPC   O32 4325   2.805   3.352   7.002 -0.0159 -0.1749  0.0902
   58SAPC   C32 4326   2.753   3.368   6.770  0.3728  0.6556  0.1264
   58SAPC   H2X 4327   2.654   3.417   6.776  0.1399  0.0574  2.0719
   58SAPC   H2Y 4328   2.743   3.257   6.769  2.6372  0.4023  0.7128
   58SAPC   C23 4329   3.435   3.444   6.773  0.6939 -0.4715  0.1405
   58SAPC   H3R 4330   3.376   3.378   6.706 -0.6806 -1.1110  1.9123
   58SAPC   H3S 4331   3.475   3.378   6.854  0.3657 -0.0969  0.6098
   58SAPC   C24 4332   3.555   3.507   6.694 -0.4522  0.4731 -0.0588
   58SAPC   H4R 4333   3.607   3.418   6.652  0.1773  0.7773  0.0788
   58SAPC   H4S 4334   3.631   3.562   6.753  0.1623 -0.3773 -0.0331
   58SAPC   C25 4335   3.514   3.594   6.585  0.1763  0.0728 -0.2999
   58SAPC   H5R 4336   3.502   3.700   6.611 -1.8667 -0.4138  1.0104
   58SAPC   C26 4337   3.497   3.561   6.455  0.3307 -0.0763 -0.7345
   58SAPC   H6R 4338   3.495   3.640   6.378 -1.6824 -0.7690 -1.4574
   58SAPC   C27 4339   3.493   3.427   6.390 -0.4857 -0.4321 -0.3853
   58SAPC   H7R 4340   3.382   3.420   6.377 -0.5307  0.6255 -0.6480
   58SAPC   H7S 4341   3.507   3.353   6.472 -3.7292 -1.3213 -0.4873
   58SAPC   C28 4342   3.577   3.383   6.275  0.8278 -1.0466 -0.1436
   58SAPC   H8R 4343   3.669   3.331   6.306  1.0776  0.0791  1.1040
   58SAPC   C29 4344   3.547   3.394   6.143  0.0289  0.0509 -0.8921
   58SAPC   H9R 4345   3.620   3.353   6.072  0.2718 -0.7186 -0.2125
   58SAPC  C210 4346   3.438   3.470   6.071 -0.7636 -0.3429  0.0214
   58SAPC  H10R 4347   3.385   3.530   6.148  1.1692 -0.4037  1.4606
   58SAPC  H10S 4348   3.362   3.402   6.028 -1.0261  1.2619 -2.2468
   58SAPC  C211 4349   3.501   3.565   5.965 -0.2713  0.2839 -0.1775
   58SAPC  H11R 4350   3.523   3.665   6.007 -0.6573  1.3044 -2.2831
   58SAPC  C212 4351   3.520   3.534   5.837 -0.1254 -0.4898  0.4195
   58SAPC  H12R 4352   3.574   3.606   5.775  2.2829  0.8347  3.8109
   58SAPC  C213 4353   3.476   3.403   5.776  0.3168  0.2171  0.0937
   58SAPC  H13R 4354   3.479   3.316   5.845 -0.6701  1.0432  1.2392
   58SAPC  H13S 4355   3.546   3.381   5.693 -0.2714  0.7007 -0.5446
   58SAPC  C214 4356   3.340   3.411   5.718  0.7989  0.6170  0.4721
   58SAPC  H14R 4357   3.274   3.344   5.775  0.2502  0.2439 -0.5806
   58SAPC  C215 4358   3.294   3.488   5.614  0.3930 -0.0380  0.0876
   58SAPC  H15R 4359   3.188   3.487   5.585  0.1782 -0.1061  0.8590
   58SAPC  C216 4360   3.390   3.581   5.539  0.5002 -0.0734  0.1816
   58SAPC  H16R 4361   3.496   3.566   5.570  0.7199  0.4634 -0.2881
   58SAPC  H16S 4362   3.366   3.686   5.567  4.5379  1.2771 -0.6961
   58SAPC  C217 4363   3.381   3.565   5.384 -0.2085  0.0822  0.7951
   58SAPC  H17R 4364   3.429   3.468   5.359  0.3239  0.5086  0.1511
   58SAPC  H17S 4365   3.439   3.646   5.335 -2.3291  1.1723 -0.0289
   58SAPC  C218 4366   3.247   3.586   5.324 -0.2597 -0.1853 -0.3592
   58SAPC  H18R 4367   3.167   3.523   5.368 -0.3913  0.9748  1.1461
   58SAPC  H18S 4368   3.249   3.570   5.214 -1.3174  0.0348 -0.4293
   58SAPC  C219 4369   3.206   3.732   5.338  0.2919  0.1350  0.1262
   58SAPC  H19R 4370   3.286   3.806   5.314  1.5761 -1.5047 -0.9168
   58SAPC  H19S 4371   3.191   3.745   5.447 -1.1242 -0.8431  0.0810
   58SAPC  C220 4372   3.084   3.769   5.259 -0.0372 -0.8489  0.1212
   58SAPC  H20R 4373   3.116   3.761   5.153 -1.1835  1.8113 -0.5282
   58SAPC  H20S 4374   3.068   3.879   5.272  3.2204  0.2004 -3.0351
   58SAPC  H20T 4375   2.994   3.705   5.268  0.6697 -1.6409  1.9414
   58SAPC   C33 4376   2.808   3.408   6.630 -0.0120  0.4045 -0.7829
   58SAPC   H3X 4377   2.796   3.518   6.633 -2.6807  0.1750  1.3201
   58SAPC   H3Y 4378   2.741   3.349   6.563 -1.3361 -1.0658  1.6862
   58SAPC   C34 4379   2.956   3.382   6.604  0.1468  0.0190 -0.1394
   58SAPC   H4X 4380   2.971   3.273   6.612  0.4091  0.0518 -0.1900
   58SAPC   H4Y 4381   3.019   3.423   6.685  1.4243  2.3454 -2.1403
   58SAPC   C35 4382   2.994   3.431   6.468 -0.3286  0.2166 -0.3820
   58SAPC   H5X 4383   3.104   3.421   6.460 -0.2615  0.2203  0.4352
   58SAPC   H5Y 4384   2.973   3.540   6.455  1.6174  0.7909  0.8690
   58SAPC   C36 4385   2.944   3.345   6.355 -0.3325 -0.2929 -0.2696
   58SAPC   H6X 4386   2.834   3.345   6.363 -0.2920  1.5724  0.6740
   58SAPC   H6Y 4387   2.969   3.237   6.366 -1.1149 -0.2759  2.2267
   58SAPC   C37 4388   2.981   3.393   6.214  0.4589 -0.5760  0.2044
   58SAPC   H7X 4389   3.090   3.402   6.198  0.7115  0.5830  2.2299
   58SAPC   H7Y 4390   2.929   3.490   6.197  1.4047 -0.2301 -0.8044
   58SAPC   C38 4391   2.921   3.297   6.110  0.0464  0.1608 -0.0499
   58SAPC   H8X 4392   2.823   3.252   6.136  0.5088 -0.4366  0.6920
   58SAPC   H8Y 4393   2.995   3.215   6.112 -0.3065 -0.1489  0.5940
   58SAPC   C39 4394   2.929   3.350   5.967  0.4792  0.3766  0.2315
   58SAPC   H9X 4395   2.915   3.263   5.899  1.5067  1.5549 -1.5629
   58SAPC   H9Y 4396   3.010   3.415   5.928 -0.4316  2.0852  1.1005
   58SAPC  C310 4397   2.803   3.437   5.946  0.0898 -0.2398 -0.0962
   58SAPC  H10X 4398   2.824   3.540   5.981  0.1064 -0.0433 -0.6666
   58SAPC  H10Y 4399   2.716   3.404   6.006 -3.4746  2.5471 -3.2465
   58SAPC  C311 4400   2.747   3.433   5.803 -0.5833  0.0337 -0.1508
   58SAPC  H11X 4401   2.666   3.509   5.797 -1.9276 -1.2248  1.1743
   58SAPC  H11Y 4402   2.703   3.332   5.796  0.7744 -0.6500  0.6990
   58SAPC  C312 4403   2.858   3.462   5.686  0.1146 -0.3122 -0.3947
   58SAPC  H12X 4404   2.921   3.371   5.690 -2.1328 -1.9543 -0.1497
   58SAPC  H12Y 4405   2.916   3.554   5.712 -0.2288 -0.1705 -0.1073
   58SAPC  C313 4406   2.807   3.473   5.548  0.2915  0.1068  0.0006
   58SAPC  H13X 4407   2.893   3.491   5.480  0.7801  0.6344  0.7374
   58SAPC  H13Y 4408   2.742   3.562   5.540 -1.6941 -1.3323 -0.7594
   58SAPC  C314 4409   2.725   3.346   5.507  0.0032  0.2790  1.0018
   58SAPC  H14X 4410   2.667   3.373   5.416 -0.6430 -0.3677  1.2204
   58SAPC  H14Y 4411   2.650   3.318   5.583  1.1761  0.4342  2.2505
   58SAPC  C315 4412   2.807   3.221   5.475 -0.6268 -0.0786  0.3308
   58SAPC  H15X 4413   2.869   3.194   5.563  0.0827  0.6366  0.0559
   58SAPC  H15Y 4414   2.874   3.242   5.389 -0.7580 -3.7199 -0.8541
   58SAPC  C316 4415   2.720   3.102   5.429 -0.0969 -0.3780 -0.2331
   58SAPC  H16X 4416   2.652   3.133   5.347  0.4565  0.5756 -0.3433
   58SAPC  H16Y 4417   2.657   3.067   5.514 -1.6187  2.0102 -0.2573
   58SAPC  C317 4418   2.811   2.986   5.385  0.0935  0.1993  0.0540
   58SAPC  H17X 4419   2.882   2.958   5.466  0.5160 -0.0347 -0.3870
   58SAPC  H17Y 4420   2.861   3.022   5.293 -2.1210  0.5157 -1.0948
   58SAPC  C318 4421   2.730   2.858   5.359  0.0361  0.7892  0.1398
   58SAPC  H18X 4422   2.630   2.901   5.338 -0.0613  0.8111  0.6228
   58SAPC  H18Y 4423   2.725   2.788   5.445  1.3361  0.5413  0.0383
   58SAPC  H18Z 4424   2.769   2.795   5.277  0.7376  0.1782  0.9250
   59SAPC     N 4425   4.538   0.443   7.489 -0.3948 -0.5867 -0.3837
   59SAPC   C12 4426   4.391   0.424   7.495  0.4140 -0.3759 -0.6407
   59SAPC  H12A 4427   4.354   0.404   7.395 -3.8489 -0.3144  0.7164
   59SAPC  H12B 4428   4.342   0.517   7.518  0.4965  0.4434 -3.4174
   59SAPC   C13 4429   4.616   0.322   7.455  0.0397  0.3704 -0.2682
   59SAPC  H13A 4430   4.590   0.230   7.504 -0.2970  0.5094 -0.1828
   59SAPC  H13B 4431   4.614   0.291   7.352 -0.6421 -1.7973  0.3523
   59SAPC  H13C 4432   4.717   0.346   7.484 -0.3100  1.2705  0.2516
   59SAPC   C14 4433   4.568   0.548   7.387  0.6976 -0.2556  0.0715
   59SAPC  H14A 4434   4.498   0.631   7.385 -1.0424 -1.6193 -2.7548
   59SAPC  H14B 4435   4.659   0.600   7.411  0.7405 -0.2250 -0.1547
   59SAPC  H14C 4436   4.575   0.502   7.290  0.8550  0.7851 -0.4240
   59SAPC   C15 4437   4.591   0.500   7.620 -0.4194  0.1603  0.1438
   59SAPC  H15A 4438   4.555   0.598   7.646 -1.4257 -0.6403  1.9704
   59SAPC  H15B 4439   4.554   0.450   7.708 -1.7722  1.3007  0.2562
   59SAPC  H15C 4440   4.697   0.522   7.619 -0.0760 -1.3581 -1.0896
   59SAPC   C11 4441   4.333   0.331   7.600 -0.1823  0.6426  0.1234
   59SAPC  H11A 4442   4.222   0.337   7.598 -0.2116  1.3099  1.8830
   59SAPC  H11B 4443   4.355   0.360   7.706  2.6385 -2.1236  0.4595
   59SAPC     P 4444   4.289   0.105   7.478  0.4311  0.2706  0.3493
   59SAPC   O13 4445   4.384   0.009   7.431 -0.4056  0.3964  0.0423
   59SAPC   O14 4446   4.166   0.047   7.541 -0.0524  0.0950 -0.3012
   59SAPC   O12 4447   4.362   0.197   7.578  0.0892  0.4642 -0.5640
   59SAPC   O11 4448   4.239   0.200   7.358 -0.7941 -0.5119 -0.3427
   59SAPC    C1 4449   4.120   0.166   7.285  0.0700 -0.0802 -0.4174
   59SAPC    HA 4450   4.030   0.138   7.345 -1.1365 -0.5339 -2.3455
   59SAPC    HB 4451   4.089   0.250   7.220 -0.0392  1.0695  1.0836
   59SAPC    C2 4452   4.136   0.041   7.188 -0.3598  0.1299  0.1325
   59SAPC    HS 4453   4.186  -0.034   7.252 -0.6513  0.9358  1.3479
   59SAPC   O21 4454   4.238   0.068   7.087  0.0528 -0.6567  0.0105
   59SAPC   C21 4455   4.269  -0.035   7.009  0.0064 -0.6290 -0.2131
   59SAPC   O22 4456   4.258  -0.151   7.046 -0.3921 -0.7637 -0.4014
   59SAPC   C22 4457   4.320   0.015   6.876  0.4568  0.4739  0.0484
   59SAPC   H2R 4458   4.292   0.122   6.864 -0.3222  0.3200  0.4337
   59SAPC   H2S 4459   4.431   0.006   6.884  0.5856  0.0296 -1.7167
   59SAPC    C3 4460   3.996  -0.010   7.131  0.2060  0.2091  0.2526
   59SAPC    HX 4461   3.924  -0.017   7.215 -0.1780  0.0548 -0.0805
   59SAPC    HY 4462   4.020  -0.110   7.087  0.6418 -0.0159  0.9950
   59SAPC   O31 4463   3.935   0.071   7.037  0.0022 -0.4195 -0.0482
   59SAPC   C31 4464   3.832   0.033   6.964 -0.0317 -0.1702  0.6358
   59SAPC   O32 4465   3.768  -0.071   6.981  0.6467  0.3922 -0.1454
   59SAPC   C32 4466   3.805   0.122   6.851  0.2357 -0.6897  0.8360
   59SAPC   H2X 4467   3.750   0.066   6.773  0.0832 -1.2851  1.3656
   59SAPC   H2Y 4468   3.901   0.168   6.818 -0.9732  1.8355  0.6069
   59SAPC   C23 4469   4.257  -0.063   6.768 -0.1538  0.2515 -0.0053
   59SAPC   H3R 4470   4.278  -0.170   6.789 -0.5046 -0.1215 -1.4646
   59SAPC   H3S 4471   4.300  -0.030   6.671 -2.3184 -1.2539 -1.5886
   59SAPC   C24 4472   4.106  -0.041   6.769 -0.1238  0.0819 -0.3955
   59SAPC   H4R 4473   4.094   0.069   6.771 -0.4999  0.0404  1.1899
   59SAPC   H4S 4474   4.065  -0.071   6.868 -1.1341 -0.1484 -0.8648
   59SAPC   C25 4475   4.029  -0.112   6.655  0.3839  0.2911 -0.3757
   59SAPC   H5R 4476   4.042  -0.221   6.659  0.1845  0.2943  0.6024
   59SAPC   C26 4477   3.964  -0.067   6.552 -0.2840 -0.5978  0.0594
   59SAPC   H6R 4478   3.938  -0.141   6.474 -1.5711 -0.8447  0.7015
   59SAPC   C27 4479   3.948   0.078   6.511  0.5342 -0.0159 -0.0242
   59SAPC   H7R 4480   3.969   0.128   6.607  0.4126 -0.7407  0.3870
   59SAPC   H7S 4481   3.838   0.088   6.503  0.5209  0.7086  0.9058
   59SAPC   C28 4482   4.018   0.152   6.398 -0.4004  0.8210  0.0411
   59SAPC   H8R 4483   4.104   0.214   6.428  2.7476 -2.7607 -0.7999
   59SAPC   C29 4484   3.969   0.149   6.272 -0.2029 -0.7838 -0.6837
   59SAPC   H9R 4485   4.032   0.204   6.201 -0.2994  0.0734 -0.1212
   59SAPC  C210 4486   3.855   0.065   6.212 -0.1379 -0.0742  0.0533
   59SAPC  H10R 4487   3.805   0.125   6.133 -0.5754  1.1116  1.1952
   59SAPC  H10S 4488   3.776   0.052   6.288 -1.3039 -0.1932 -1.1356
   59SAPC  C211 4489   3.897  -0.062   6.146 -0.0329 -0.2871  0.4357
   59SAPC  H11R 4490   3.889  -0.148   6.214  1.7293 -1.4538 -0.7544
   59SAPC  C212 4491   3.919  -0.080   6.014 -0.1123 -0.1866  0.7258
   59SAPC  H12R 4492   3.940  -0.179   5.971  0.1009  0.0170  0.3682
   59SAPC  C213 4493   3.912   0.022   5.903  0.5719 -0.0222 -0.7958
   59SAPC  H13R 4494   3.897   0.125   5.940  1.7647 -0.4620  1.0687
   59SAPC  H13S 4495   3.813   0.012   5.852  0.5063  1.6869 -1.0509
   59SAPC  C214 4496   4.019   0.020   5.791  0.3174  0.6369  0.6357
   59SAPC  H14R 4497   4.115   0.012   5.844 -0.5052  1.3359  2.2873
   59SAPC  C215 4498   4.016   0.028   5.657  0.0020  0.1835 -0.6958
   59SAPC  H15R 4499   4.113   0.036   5.605 -0.3001  3.4092 -0.9921
   59SAPC  C216 4500   3.891   0.029   5.575  0.2818 -0.3866  0.0265
   59SAPC  H16R 4501   3.819  -0.046   5.614 -0.9794  1.0337  0.5479
   59SAPC  H16S 4502   3.904   0.005   5.468 -1.6461  0.2664 -0.3950
   59SAPC  C217 4503   3.819   0.167   5.581  0.1244  0.1121  0.1589
   59SAPC  H17R 4504   3.882   0.245   5.533  1.2924 -1.2910 -0.6678
   59SAPC  H17S 4505   3.794   0.192   5.686  1.9698  0.3530  0.5703
   59SAPC  C218 4506   3.691   0.157   5.487  0.2797 -1.1208 -0.1415
   59SAPC  H18R 4507   3.612   0.092   5.531 -2.1106  2.8186  1.8750
   59SAPC  H18S 4508   3.725   0.125   5.386 -1.0358 -3.0688 -0.0192
   59SAPC  C219 4509   3.616   0.292   5.470  0.2341 -0.8941 -0.4819
   59SAPC  H19R 4510   3.547   0.279   5.384  0.9936  1.0746 -1.4748
   59SAPC  H19S 4511   3.682   0.382   5.460 -2.9065  1.5042 -1.1420
   59SAPC  C220 4512   3.520   0.320   5.589 -0.3260 -0.0529  0.7714
   59SAPC  H20R 4513   3.435   0.251   5.571 -1.6042  1.4574  0.7599
   59SAPC  H20S 4514   3.479   0.424   5.585  1.1079  0.5197  0.3108
   59SAPC  H20T 4515   3.563   0.312   5.691  0.4567  0.6705  0.5102
   59SAPC   C33 4516   3.709   0.240   6.866 -0.1690  0.4130 -0.1923
   59SAPC   H3X 4517   3.747   0.294   6.955  0.1635  2.1103 -1.3179
   59SAPC   H3Y 4518   3.606   0.204   6.887 -0.1459  0.3163 -0.2446
   59SAPC   C34 4519   3.703   0.337   6.744  0.1237 -0.1628 -0.7885
   59SAPC   H4X 4520   3.803   0.359   6.701  0.1184  0.7576 -0.3509
   59SAPC   H4Y 4521   3.661   0.432   6.784 -1.4295 -1.1936  0.1186
   59SAPC   C35 4522   3.622   0.290   6.621 -0.1675 -0.1892 -0.1302
   59SAPC   H5X 4523   3.515   0.272   6.645  0.3483 -0.8178  1.8384
   59SAPC   H5Y 4524   3.670   0.199   6.578 -1.8212 -0.5927 -1.2192
   59SAPC   C36 4525   3.632   0.408   6.521 -0.5847 -0.1481 -0.0007
   59SAPC   H6X 4526   3.732   0.403   6.471 -0.1688 -1.7237  0.9170
   59SAPC   H6Y 4527   3.620   0.499   6.585  0.1861  0.6776 -0.9837
   59SAPC   C37 4528   3.531   0.397   6.407 -0.3128  0.1516  0.4415
   59SAPC   H7X 4529   3.431   0.403   6.456 -1.5035 -1.2351 -1.5990
   59SAPC   H7Y 4530   3.562   0.303   6.356  1.3577  0.1374  1.4067
   59SAPC   C38 4531   3.542   0.513   6.305 -0.3474  0.4223  0.5418
   59SAPC   H8X 4532   3.642   0.512   6.257 -1.2995 -2.0035 -1.6878
   59SAPC   H8Y 4533   3.534   0.614   6.351  0.5666  1.3317 -1.1880
   59SAPC   C39 4534   3.435   0.504   6.189 -0.3612 -0.4497 -0.0642
   59SAPC   H9X 4535   3.333   0.483   6.229 -0.2296 -0.3929  0.3072
   59SAPC   H9Y 4536   3.473   0.418   6.130  2.1871 -0.4123  1.3743
   59SAPC  C310 4537   3.436   0.627   6.087  0.0417 -0.1560 -0.1903
   59SAPC  H10X 4538   3.532   0.611   6.034  1.3488 -1.7449  2.4297
   59SAPC  H10Y 4539   3.425   0.722   6.144  0.0212  0.5872 -1.4119
   59SAPC  C311 4540   3.332   0.617   5.978 -0.1185 -0.1324 -0.0238
   59SAPC  H11X 4541   3.230   0.632   6.019 -1.1510  2.2919 -3.1020
   59SAPC  H11Y 4542   3.339   0.514   5.938  1.8721 -0.1550  0.2756
   59SAPC  C312 4543   3.354   0.715   5.866 -0.3578  0.1994  0.3797
   59SAPC  H12X 4544   3.462   0.741   5.863 -0.1141 -0.6534  1.2925
   59SAPC  H12Y 4545   3.293   0.805   5.888 -1.5919 -0.7432  0.9629
   59SAPC  C313 4546   3.332   0.661   5.726 -0.1443  0.5353  0.0866
   59SAPC  H13X 4547   3.227   0.628   5.711  0.2731 -0.3121 -1.1110
   59SAPC  H13Y 4548   3.410   0.584   5.708  1.2994  1.2202  2.7401
   59SAPC  C314 4549   3.384   0.755   5.613  0.3377  0.3408  0.2117
   59SAPC  H14X 4550   3.489   0.788   5.630  0.3555  1.0952 -1.2783
   59SAPC  H14Y 4551   3.321   0.847   5.610  1.4258  1.1379  0.9342
   59SAPC  C315 4552   3.369   0.702   5.470 -0.1166  0.3556  0.5145
   59SAPC  H15X 4553   3.274   0.646   5.481 -0.9807  2.0190  2.1574
   59SAPC  H15Y 4554   3.445   0.623   5.451  1.1261  1.7655 -0.7045
   59SAPC  C316 4555   3.357   0.806   5.360 -0.9917  0.8028  0.3612
   59SAPC  H16X 4556   3.268   0.871   5.377 -1.0098  0.4891  1.4876
   59SAPC  H16Y 4557   3.335   0.752   5.265 -1.0607 -0.6489  1.1739
   59SAPC  C317 4558   3.481   0.904   5.333 -0.6971 -0.5968  0.5277
   59SAPC  H17X 4559   3.576   0.848   5.349  1.2203  1.6341 -2.1344
   59SAPC  H17Y 4560   3.487   0.982   5.412 -1.5600  0.1624 -0.1364
   59SAPC  C318 4561   3.492   0.979   5.196  0.1761  0.0234 -0.0799
   59SAPC  H18X 4562   3.593   1.022   5.178  0.7926 -1.5721 -0.6772
   59SAPC  H18Y 4563   3.426   1.067   5.187  1.3633  1.0393  0.8087
   59SAPC  H18Z 4564   3.490   0.903   5.115 -3.1395 -1.9652  1.6663
   60SAPC     N 4565   2.785   5.560   8.035  0.1902 -0.1251 -0.5473
   60SAPC   C12 4566   2.773   5.478   7.905  0.3814 -0.8119 -0.5353
   60SAPC  H12A 4567   2.698   5.534   7.851  0.1687  0.2808  0.8192
   60SAPC  H12B 4568   2.728   5.382   7.924 -3.4776  1.1667  1.4321
   60SAPC   C13 4569   2.655   5.588   8.092  0.1952 -0.0257 -0.1314
   60SAPC  H13A 4570   2.666   5.624   8.193 -0.5195  2.7502 -0.9458
   60SAPC  H13B 4571   2.599   5.658   8.032 -0.7039 -0.3113  0.3597
   60SAPC  H13C 4572   2.595   5.501   8.114 -0.1430 -0.3042 -1.9746
   60SAPC   C14 4573   2.866   5.488   8.141  0.0130  1.8260 -0.2755
   60SAPC  H14A 4574   2.943   5.434   8.087 -0.1620 -0.4667  1.5949
   60SAPC  H14B 4575   2.898   5.548   8.225  0.9400 -1.1238  1.6734
   60SAPC  H14C 4576   2.813   5.404   8.184  3.1347  0.4858  1.3465
   60SAPC   C15 4577   2.858   5.690   8.008 -0.1338 -0.3592  0.3181
   60SAPC  H15A 4578   2.813   5.758   7.938  3.0818  1.2275 -0.4060
   60SAPC  H15B 4579   2.873   5.755   8.093  0.8094  3.3415 -2.4246
   60SAPC  H15C 4580   2.955   5.670   7.966 -0.2180  0.9209 -0.5341
   60SAPC   C11 4581   2.894   5.471   7.813  0.0158  0.5297 -0.1612
   60SAPC  H11A 4582   2.865   5.396   7.736 -1.9665  2.0089 -0.9447
   60SAPC  H11B 4583   2.982   5.421   7.858 -0.3039 -1.5944 -1.7247
   60SAPC     P 4584   3.063   5.615   7.666 -0.0506 -0.2379 -0.6590
   60SAPC   O13 4585   3.139   5.717   7.738  0.0799 -0.4667 -0.4084
   60SAPC   O14 4586   3.124   5.484   7.644  0.2906 -0.2557  0.9325
   60SAPC   O12 4587   2.928   5.591   7.747  0.5223  0.4245 -0.4177
   60SAPC   O11 4588   3.008   5.669   7.527  0.0862  0.5493  0.6341
   60SAPC    C1 4589   2.908   5.602   7.454  0.2004  0.4046  0.4635
   60SAPC    HA 4590   2.957   5.514   7.408 -0.3003  0.0586  0.5769
   60SAPC    HB 4591   2.821   5.578   7.519  1.3032 -1.1718  1.4034
   60SAPC    C2 4592   2.868   5.691   7.332  0.2314  1.0902  0.2812
   60SAPC    HS 4593   2.833   5.618   7.256  0.2313  3.0240 -1.6679
   60SAPC   O21 4594   2.978   5.768   7.272  0.8215 -0.5087  0.2404
   60SAPC   C21 4595   3.068   5.689   7.213  0.2524  0.1085  0.3818
   60SAPC   O22 4596   3.074   5.569   7.219 -0.0570 -0.2983 -0.0439
   60SAPC   C22 4597   3.159   5.776   7.123 -0.0259 -0.1590  0.0163
   60SAPC   H2R 4598   3.109   5.860   7.071 -0.3138  0.0473  0.6153
   60SAPC   H2S 4599   3.249   5.811   7.177  1.2070  0.3884 -2.2918
   60SAPC    C3 4600   2.743   5.778   7.373  0.2727 -0.3953  0.2460
   60SAPC    HX 4601   2.785   5.852   7.445 -2.1818  0.1800  1.1865
   60SAPC    HY 4602   2.670   5.726   7.438  1.5148 -1.2606  0.9818
   60SAPC   O31 4603   2.693   5.855   7.263 -0.1722  0.6460 -0.8395
   60SAPC   C31 4604   2.631   5.779   7.174 -1.0395  0.4657 -0.9126
   60SAPC   O32 4605   2.587   5.663   7.184 -0.5951 -1.0466  0.6974
   60SAPC   C32 4606   2.619   5.858   7.040 -0.1379 -0.3324 -0.0417
   60SAPC   H2X 4607   2.713   5.861   6.982 -0.3705  0.8431 -0.3930
   60SAPC   H2Y 4608   2.608   5.968   7.058 -2.9368 -0.9135  2.7346
   60SAPC   C23 4609   3.231   5.691   7.009 -0.4605 -0.2343 -0.2469
   60SAPC   H3R 4610   3.167   5.694   6.919 -0.5165  0.2885 -0.1937
   60SAPC   H3S 4611   3.250   5.585   7.037  0.6287  0.2434  0.9333
   60SAPC   C24 4612   3.368   5.756   6.969 -0.1733 -0.0132  0.4632
   60SAPC   H4R 4613   3.402   5.704   6.877 -2.6838  0.3976 -0.7986
   60SAPC   H4S 4614   3.447   5.738   7.045 -0.9219 -0.7950  1.0901
   60SAPC   C25 4615   3.369   5.907   6.944 -0.3114  0.3253  1.0937
   60SAPC   H5R 4616   3.365   5.971   7.033 -0.4403  1.1250  0.5186
   60SAPC   C26 4617   3.378   5.954   6.819  0.4413  0.7713  0.5082
   60SAPC   H6R 4618   3.387   6.062   6.800 -1.0570  0.8321  0.0264
   60SAPC   C27 4619   3.386   5.872   6.689 -0.5960  0.5443  0.1484
   60SAPC   H7R 4620   3.446   5.781   6.710 -0.6768  0.6594  0.9230
   60SAPC   H7S 4621   3.432   5.929   6.606 -0.0577  2.0690  1.4333
   60SAPC   C28 4622   3.250   5.828   6.647  0.2989  0.2154 -0.1265
   60SAPC   H8R 4623   3.171   5.835   6.723 -1.0128  0.0079 -1.4019
   60SAPC   C29 4624   3.209   5.769   6.535 -0.1724  0.3578  0.1820
   60SAPC   H9R 4625   3.106   5.731   6.537 -0.5309  1.2386 -0.9575
   60SAPC  C210 4626   3.293   5.742   6.415 -0.3255 -0.3350 -0.3136
   60SAPC  H10R 4627   3.290   5.633   6.391 -2.3331 -0.8322  1.8770
   60SAPC  H10S 4628   3.401   5.760   6.432 -0.5196  0.1745  0.3841
   60SAPC  C211 4629   3.251   5.826   6.293 -0.3184  0.3570 -0.1551
   60SAPC  H11R 4630   3.201   5.922   6.313 -1.6356 -0.5310  1.0298
   60SAPC  C212 4631   3.260   5.784   6.161 -1.0282 -0.8510 -0.4832
   60SAPC  H12R 4632   3.230   5.865   6.093 -1.8144 -0.3561  0.4365
   60SAPC  C213 4633   3.324   5.659   6.105 -0.0629  0.2345  0.1854
   60SAPC  H13R 4634   3.241   5.586   6.110 -0.4477  0.6286 -0.3871
   60SAPC  H13S 4635   3.409   5.633   6.172 -0.8186 -1.0528  0.6740
   60SAPC  C214 4636   3.358   5.684   5.962 -0.3399  0.9264  0.3137
   60SAPC  H14R 4637   3.418   5.774   5.947  0.9592  0.1057  0.4521
   60SAPC  C215 4638   3.323   5.597   5.856 -0.0985 -1.1397  0.1149
   60SAPC  H15R 4639   3.371   5.621   5.759  0.3664 -1.0855  0.3534
   60SAPC  C216 4640   3.235   5.480   5.868  0.8517  0.7972  0.9139
   60SAPC  H16R 4641   3.140   5.513   5.915  0.3459  3.1488 -1.5352
   60SAPC  H16S 4642   3.289   5.396   5.919  1.9839  0.2859 -1.0393
   60SAPC  C217 4643   3.197   5.444   5.723 -0.3767 -0.1467  1.1292
   60SAPC  H17R 4644   3.169   5.537   5.669 -3.8567 -0.2990  2.4321
   60SAPC  H17S 4645   3.106   5.380   5.716  1.0838 -2.1712 -1.6984
   60SAPC  C218 4646   3.316   5.381   5.647 -0.3863 -0.0455 -0.6409
   60SAPC  H18R 4647   3.351   5.303   5.718  0.6423  1.5739  0.7138
   60SAPC  H18S 4648   3.390   5.463   5.656 -0.2427 -0.3363  1.3334
   60SAPC  C219 4649   3.299   5.338   5.503  0.6043 -0.0423  0.1397
   60SAPC  H19R 4650   3.290   5.426   5.437 -0.5133 -0.9173 -0.9223
   60SAPC  H19S 4651   3.206   5.278   5.494  0.1684  0.6012  0.2851
   60SAPC  C220 4652   3.415   5.251   5.445  0.3458 -0.7740 -0.6610
   60SAPC  H20R 4653   3.395   5.145   5.472 -1.0504 -0.3663  0.0465
   60SAPC  H20S 4654   3.518   5.281   5.474  0.9497 -2.4698 -0.9463
   60SAPC  H20T 4655   3.406   5.270   5.336 -1.9906  3.4263  0.0254
   60SAPC   C33 4656   2.499   5.811   6.959  0.1040 -0.2024  0.1253
   60SAPC   H3X 4657   2.402   5.829   7.011  1.5254  1.3507  2.4055
   60SAPC   H3Y 4658   2.500   5.701   6.940 -1.3155 -0.5847  1.9387
   60SAPC   C34 4659   2.490   5.873   6.820 -0.4912  0.1576 -0.0245
   60SAPC   H4X 4660   2.396   5.830   6.778 -0.2454 -0.6184  0.2031
   60SAPC   H4Y 4661   2.580   5.837   6.765 -1.4878 -1.2452 -0.8307
   60SAPC   C35 4662   2.475   6.028   6.817  0.8749  0.3194  0.5777
   60SAPC   H5X 4663   2.579   6.067   6.831  1.9358 -2.1616  0.1387
   60SAPC   H5Y 4664   2.419   6.053   6.910 -0.4210  0.6011 -0.2581
   60SAPC   C36 4665   2.412   6.074   6.687  0.0755 -0.5792 -0.1147
   60SAPC   H6X 4666   2.411   6.184   6.697 -0.2939 -0.5878 -0.0425
   60SAPC   H6Y 4667   2.306   6.042   6.682 -0.1894 -0.1704  2.0057
   60SAPC   C37 4668   2.491   6.032   6.559 -0.7426  0.2916  0.2182
   60SAPC   H7X 4669   2.438   5.937   6.535 -1.6710  0.5726  1.0922
   60SAPC   H7Y 4670   2.594   5.999   6.583 -1.4273 -1.8602  0.3686
   60SAPC   C38 4671   2.487   6.133   6.440 -0.0394  0.0095  0.1248
   60SAPC   H8X 4672   2.544   6.218   6.483  1.9878 -1.2481  0.0361
   60SAPC   H8Y 4673   2.383   6.171   6.431 -0.3621 -1.2023 -2.0920
   60SAPC   C39 4674   2.554   6.094   6.305 -0.1397  0.5659  0.4127
   60SAPC   H9X 4675   2.511   5.997   6.271 -1.4684  0.5302  2.1054
   60SAPC   H9Y 4676   2.664   6.092   6.319 -0.3231  0.8960  2.0714
   60SAPC  C310 4677   2.524   6.201   6.195  0.0202  0.6321  0.4701
   60SAPC  H10X 4678   2.544   6.307   6.224 -0.3065  0.6946  0.4709
   60SAPC  H10Y 4679   2.415   6.201   6.172 -0.0192  0.5413  0.6553
   60SAPC  C311 4680   2.582   6.166   6.060 -0.5811  0.8663 -0.6256
   60SAPC  H11X 4681   2.587   6.055   6.058 -2.0910  0.6703  1.8626
   60SAPC  H11Y 4682   2.687   6.200   6.066  0.4954 -1.9987 -1.6187
   60SAPC  C312 4683   2.507   6.216   5.933  0.2398 -0.1258  0.0167
   60SAPC  H12X 4684   2.460   6.316   5.947 -4.1343 -1.4636 -2.9419
   60SAPC  H12Y 4685   2.412   6.158   5.936 -0.0752  0.4052  2.1759
   60SAPC  C313 4686   2.594   6.205   5.810  0.5163 -0.8143  0.7542
   60SAPC  H13X 4687   2.639   6.104   5.813 -1.0886 -1.5414  2.1759
   60SAPC  H13Y 4688   2.686   6.266   5.812  0.9191 -1.2665 -1.4411
   60SAPC  C314 4689   2.503   6.250   5.698  0.1565 -0.1172 -0.5914
   60SAPC  H14X 4690   2.565   6.277   5.610 -1.0285  2.7415 -0.6413
   60SAPC  H14Y 4691   2.445   6.343   5.716  0.8936  0.1140  0.6778
   60SAPC  C315 4692   2.410   6.131   5.658  0.2534 -0.6744  0.1448
   60SAPC  H15X 4693   2.346   6.162   5.572  0.2973  2.1569  1.0365
   60SAPC  H15Y 4694   2.344   6.109   5.744 -1.2291  2.2026 -0.1215
   60SAPC  C316 4695   2.482   6.002   5.604  0.4886  0.4110 -0.1251
   60SAPC  H16X 4696   2.532   5.949   5.688  0.2654  2.6247  1.4912
   60SAPC  H16Y 4697   2.561   6.023   5.529  2.0563 -0.8415  1.1106
   60SAPC  C317 4698   2.375   5.915   5.532  0.3265  0.0653  0.3977
   60SAPC  H17X 4699   2.312   5.988   5.478 -1.3280  0.0988  2.2526
   60SAPC  H17Y 4700   2.309   5.869   5.609  0.6224  1.2486  1.3973
   60SAPC  C318 4701   2.436   5.810   5.436  0.5688 -0.5717 -0.2979
   60SAPC  H18X 4702   2.487   5.869   5.356 -0.3333  1.2101  0.3795
   60SAPC  H18Y 4703   2.364   5.744   5.384  0.5541 -0.3118 -0.6152
   60SAPC  H18Z 4704   2.521   5.758   5.485 -0.2804 -3.0395 -1.2855
   61SAPC     N 4705   0.319   0.907   7.804  0.4519  0.3284 -0.0947
   61SAPC   C12 4706   0.258   0.951   7.671 -0.5284 -0.6136 -0.2722
   61SAPC  H12A 4707   0.230   1.055   7.680 -3.1136 -1.0330 -2.2664
   61SAPC  H12B 4708   0.164   0.902   7.654 -0.6242 -0.3433 -0.5331
   61SAPC   C13 4709   0.361   0.765   7.783 -0.1225  0.4841  0.4131
   61SAPC  H13A 4710   0.425   0.745   7.698  1.2679 -0.2087  1.5920
   61SAPC  H13B 4711   0.402   0.728   7.876 -2.0000  1.6050  1.7520
   61SAPC  H13C 4712   0.272   0.710   7.758  0.4440  0.2779 -1.2720
   61SAPC   C14 4713   0.435   0.998   7.855 -0.2035  0.3664 -0.4310
   61SAPC  H14A 4714   0.461   0.964   7.955  0.9304 -0.1316 -0.8799
   61SAPC  H14B 4715   0.521   0.976   7.794  0.5252  1.1946  0.2763
   61SAPC  H14C 4716   0.407   1.101   7.844 -1.2842  0.2614  0.9411
   61SAPC   C15 4717   0.202   0.891   7.896 -0.6455 -0.1791  0.3772
   61SAPC  H15A 4718   0.227   0.813   7.966 -0.6799 -2.1553 -1.6915
   61SAPC  H15B 4719   0.165   0.985   7.934 -0.9491 -0.0392 -0.2577
   61SAPC  H15C 4720   0.124   0.845   7.838  0.0295  0.0733 -0.7576
   61SAPC   C11 4721   0.348   0.954   7.546  0.0675 -0.1324 -0.1205
   61SAPC  H11A 4722   0.299   1.003   7.458  4.5550  1.2317 -2.1483
   61SAPC  H11B 4723   0.362   0.846   7.521  0.7654  0.3621 -2.0418
   61SAPC     P 4724   0.485   1.176   7.566  0.1097  0.2839  0.6605
   61SAPC   O13 4725   0.347   1.237   7.544  1.0269 -0.3019  0.4047
   61SAPC   O14 4726   0.565   1.228   7.684  0.5547 -0.4343  0.0286
   61SAPC   O12 4727   0.474   1.009   7.568 -0.0791 -0.5110 -0.1000
   61SAPC   O11 4728   0.562   1.207   7.439 -0.2975  0.4384  0.2273
   61SAPC    C1 4729   0.508   1.204   7.304 -0.0964 -0.8125  0.1634
   61SAPC    HA 4730   0.400   1.179   7.310 -0.1519 -0.2088  2.7795
   61SAPC    HB 4731   0.515   1.307   7.264 -1.4134 -0.5725  0.5085
   61SAPC    C2 4732   0.574   1.100   7.216  0.6214  0.0949  0.5051
   61SAPC    HS 4733   0.578   1.005   7.272  0.8609  0.2803  0.8037
   61SAPC   O21 4734   0.711   1.143   7.188 -0.9290 -0.5011  0.3080
   61SAPC   C21 4735   0.802   1.042   7.178  0.7932  0.0524 -0.4508
   61SAPC   O22 4736   0.771   0.922   7.193 -0.4391 -0.2727 -0.6705
   61SAPC   C22 4737   0.938   1.092   7.142 -0.1338 -0.4151  0.4346
   61SAPC   H2R 4738   0.957   1.176   7.211  0.3132 -0.7178  0.6855
   61SAPC   H2S 4739   1.017   1.016   7.163  0.8352 -0.0831 -1.6808
   61SAPC    C3 4740   0.487   1.063   7.088  0.7832 -0.0887 -0.3598
   61SAPC    HX 4741   0.467   1.155   7.030  2.1145  1.6758  1.8272
   61SAPC    HY 4742   0.390   1.019   7.121 -0.5363  1.8159 -1.5171
   61SAPC   O31 4743   0.551   0.974   7.002 -0.2882  0.4941  0.4536
   61SAPC   C31 4744   0.529   0.848   7.017 -0.1650  0.1018  0.0432
   61SAPC   O32 4745   0.452   0.802   7.101 -0.1276 -0.7191  0.1258
   61SAPC   C32 4746   0.619   0.761   6.931 -0.2440  0.4818 -0.0126
   61SAPC   H2X 4747   0.720   0.805   6.917  0.3741 -1.1282 -0.9232
   61SAPC   H2Y 4748   0.576   0.762   6.829 -0.3184 -0.9163 -0.0150
   61SAPC   C23 4749   0.958   1.149   7.001  0.1324  0.5389 -0.2614
   61SAPC   H3R 4750   1.033   1.230   7.000  0.6110  0.0948 -1.9868
   61SAPC   H3S 4751   0.865   1.197   6.965 -0.3217  1.0657  1.4903
   61SAPC   C24 4752   0.999   1.045   6.894  0.0167  0.1935  0.1843
   61SAPC   H4R 4753   1.017   1.093   6.795  2.4073  0.9216  0.9037
   61SAPC   H4S 4754   0.920   0.967   6.892 -1.2980  1.2209  3.9971
   61SAPC   C25 4755   1.129   0.988   6.934 -0.4675  0.2868 -0.4541
   61SAPC   H5R 4756   1.217   1.053   6.946 -0.9351  0.8987 -0.2728
   61SAPC   C26 4757   1.164   0.859   6.970  0.4171 -0.6960 -0.1679
   61SAPC   H6R 4758   1.268   0.837   6.995  0.6526 -0.4294 -0.8807
   61SAPC   C27 4759   1.074   0.739   6.971  0.1294  0.3493 -0.1164
   61SAPC   H7R 4760   0.978   0.757   6.919 -1.4768  0.5011  2.7428
   61SAPC   H7S 4761   1.049   0.722   7.077  0.2136  3.5391  0.5183
   61SAPC   C28 4762   1.152   0.627   6.910 -0.3399 -0.0319  0.6133
   61SAPC   H8R 4763   1.209   0.564   6.979 -1.5216  0.4344  2.0563
   61SAPC   C29 4764   1.155   0.586   6.780  0.5150  0.0199  0.2776
   61SAPC   H9R 4765   1.217   0.499   6.753 -0.3708 -0.7527  0.6634
   61SAPC  C210 4766   1.075   0.639   6.663 -0.2178 -0.5651  0.1401
   61SAPC  H10R 4767   1.055   0.747   6.679  2.3516 -0.0929  0.5768
   61SAPC  H10S 4768   0.974   0.594   6.648 -0.4215  0.1476 -0.7006
   61SAPC  C211 4769   1.169   0.617   6.542 -0.1147 -0.2191 -0.3035
   61SAPC  H11R 4770   1.238   0.701   6.521 -1.0590  0.4528 -0.8272
   61SAPC  C212 4771   1.155   0.514   6.453  0.0292  0.0637 -0.4232
   61SAPC  H12R 4772   1.206   0.509   6.356  0.1665 -0.1961 -0.3391
   61SAPC  C213 4773   1.051   0.408   6.469 -0.4504  0.0486 -0.2450
   61SAPC  H13R 4774   0.950   0.454   6.469 -0.9814 -0.9626 -2.5310
   61SAPC  H13S 4775   1.066   0.344   6.558 -3.1268  1.0560  1.0371
   61SAPC  C214 4776   1.053   0.322   6.348  0.3962  0.8120  0.2719
   61SAPC  H14R 4777   1.145   0.262   6.344  0.9211  1.6690 -1.2648
   61SAPC  C215 4778   0.957   0.310   6.249  0.3490  0.3873 -0.1715
   61SAPC  H15R 4779   0.965   0.237   6.167 -0.2839 -0.3069  0.3680
   61SAPC  C216 4780   0.832   0.398   6.237 -0.0061  0.2708  0.2074
   61SAPC  H16R 4781   0.822   0.435   6.132 -1.1284  1.3322  0.6612
   61SAPC  H16S 4782   0.835   0.486   6.303 -0.3546 -0.4571  1.2099
   61SAPC  C217 4783   0.696   0.328   6.274  0.2130 -0.0547  0.0580
   61SAPC  H17R 4784   0.682   0.240   6.207 -0.8354  1.5450 -1.9038
   61SAPC  H17S 4785   0.619   0.406   6.259 -0.0788 -0.3550 -0.0374
   61SAPC  C218 4786   0.690   0.284   6.415  0.5558  0.3305  0.7549
   61SAPC  H18R 4787   0.717   0.365   6.486  3.5931  0.4104 -0.3685
   61SAPC  H18S 4788   0.753   0.196   6.437 -0.2888  0.2004  2.8589
   61SAPC  C219 4789   0.545   0.258   6.450 -0.0342  0.0494 -0.8976
   61SAPC  H19R 4790   0.492   0.188   6.383 -0.1011  1.2367 -2.1176
   61SAPC  H19S 4791   0.489   0.354   6.449  1.4156  1.0121  1.4385
   61SAPC  C220 4792   0.533   0.217   6.602 -0.1256  0.9087  0.8712
   61SAPC  H20R 4793   0.603   0.135   6.630  0.1159  0.6267 -0.4787
   61SAPC  H20S 4794   0.428   0.189   6.626 -0.7847  0.7795 -1.8999
   61SAPC  H20T 4795   0.553   0.310   6.659 -1.8467  0.3405  2.5220
   61SAPC   C33 4796   0.636   0.610   6.957  0.4748 -0.2820 -0.3144
   61SAPC   H3X 4797   0.540   0.562   6.985 -1.5911  2.9271 -1.3498
   61SAPC   H3Y 4798   0.693   0.608   7.052 -1.3939  0.9398  0.8965
   61SAPC   C34 4799   0.728   0.538   6.852 -0.4561 -0.3657 -0.0494
   61SAPC   H4X 4800   0.817   0.601   6.830 -0.5376  0.2700  1.3140
   61SAPC   H4Y 4801   0.667   0.518   6.762  0.3287 -2.1434 -0.2085
   61SAPC   C35 4802   0.761   0.404   6.917  1.0610 -0.1248 -0.8371
   61SAPC   H5X 4803   0.664   0.358   6.947  2.1687 -1.7790  0.3896
   61SAPC   H5Y 4804   0.822   0.424   7.008 -0.9602  0.1158  0.5450
   61SAPC   C36 4805   0.848   0.304   6.837 -0.1747 -0.6940  0.0616
   61SAPC   H6X 4806   0.938   0.350   6.792  0.0322 -0.8756  0.2901
   61SAPC   H6Y 4807   0.797   0.261   6.748 -1.4752  2.8844 -1.0853
   61SAPC   C37 4808   0.885   0.186   6.922  0.6051  0.1284  0.2734
   61SAPC   H7X 4809   0.800   0.117   6.936 -0.1923  1.3176  1.5422
   61SAPC   H7Y 4810   0.914   0.211   7.026  1.2330  1.2875 -0.1639
   61SAPC   C38 4811   0.998   0.099   6.869  0.8414 -0.7134  1.0908
   61SAPC   H8X 4812   1.032   0.029   6.948  2.4446  1.1495  2.1749
   61SAPC   H8Y 4813   1.089   0.163   6.874  1.4990 -1.3700 -1.2346
   61SAPC   C39 4814   0.995   0.058   6.716 -0.6594  0.1328 -0.5163
   61SAPC   H9X 4815   1.013   0.142   6.645 -1.3813  1.1205  0.4319
   61SAPC   H9Y 4816   0.897   0.018   6.682  0.5759 -0.0656 -4.3215
   61SAPC  C310 4817   1.094  -0.061   6.695  0.4120 -0.2139  0.0737
   61SAPC  H10X 4818   1.055  -0.152   6.746  0.9285  0.1838  1.2030
   61SAPC  H10Y 4819   1.194  -0.048   6.741  0.9014 -0.8126 -0.7934
   61SAPC  C311 4820   1.114  -0.099   6.546 -1.0719 -0.5429 -0.5846
   61SAPC  H11X 4821   1.165  -0.198   6.541  0.8269  0.4050 -0.6439
   61SAPC  H11Y 4822   1.170  -0.023   6.488  0.6368 -1.6416 -0.4509
   61SAPC  C312 4823   0.981  -0.127   6.477  0.1919 -0.7392 -0.7995
   61SAPC  H12X 4824   0.905  -0.047   6.492 -1.8845 -2.9186  1.0570
   61SAPC  H12Y 4825   0.925  -0.213   6.519  0.4932 -0.7219 -0.3571
   61SAPC  C313 4826   1.000  -0.150   6.331 -0.2927  0.4806 -0.7762
   61SAPC  H13X 4827   1.044  -0.251   6.321  0.0080  0.5250  0.0615
   61SAPC  H13Y 4828   1.062  -0.070   6.285 -1.7019  1.1624 -1.5820
   61SAPC  C314 4829   0.860  -0.161   6.258 -0.3741  0.6155  0.3815
   61SAPC  H14X 4830   0.795  -0.074   6.283 -1.6333 -0.2905  0.3450
   61SAPC  H14Y 4831   0.808  -0.253   6.290  1.2249  0.2329  1.9928
   61SAPC  C315 4832   0.879  -0.140   6.105  0.3552  0.2496 -0.2071
   61SAPC  H15X 4833   0.886  -0.242   6.061 -2.4836 -1.3826  2.6569
   61SAPC  H15Y 4834   0.966  -0.084   6.065  0.5876 -1.2135 -1.8784
   61SAPC  C316 4835   0.757  -0.062   6.040 -0.0775 -0.5929  0.4232
   61SAPC  H16X 4836   0.787  -0.006   5.949 -2.3493  1.4219  0.8124
   61SAPC  H16Y 4837   0.741   0.028   6.103 -0.3930 -0.6830  0.4750
   61SAPC  C317 4838   0.629  -0.151   6.029 -0.7976  0.1600 -0.0262
   61SAPC  H17X 4839   0.556  -0.086   5.977 -2.1335 -0.9563  0.3880
   61SAPC  H17Y 4840   0.586  -0.169   6.130 -0.3850 -1.8333 -0.1614
   61SAPC  C318 4841   0.649  -0.282   5.962 -0.7420 -0.2481 -0.4940
   61SAPC  H18X 4842   0.683  -0.353   6.041 -0.1862  0.7674  0.1986
   61SAPC  H18Y 4843   0.719  -0.261   5.878  0.7509 -0.2253  0.7176
   61SAPC  H18Z 4844   0.551  -0.323   5.931 -0.9754 -1.7922  2.0501
   62SAPC     N 4845   0.160   5.262   7.491 -0.1014 -0.1338 -0.4023
   62SAPC   C12 4846   0.159   5.159   7.387  0.2282 -0.7783  0.1726
   62SAPC  H12A 4847   0.193   5.066   7.429 -2.0933 -1.0916  1.5373
   62SAPC  H12B 4848   0.236   5.172   7.312  0.0232 -0.5095  0.0048
   62SAPC   C13 4849   0.303   5.305   7.510 -0.0126 -0.0146  0.1475
   62SAPC  H13A 4850   0.335   5.352   7.418  0.2428 -0.0765  0.2026
   62SAPC  H13B 4851   0.306   5.372   7.595  1.1729 -0.4212  0.4405
   62SAPC  H13C 4852   0.369   5.223   7.534  1.2001  1.0202  0.4367
   62SAPC   C14 4853   0.089   5.388   7.456 -0.2720 -0.1306  0.2491
   62SAPC  H14A 4854  -0.019   5.381   7.462 -0.2454 -1.3427 -0.3272
   62SAPC  H14B 4855   0.122   5.460   7.530  2.7037 -0.5803 -0.4936
   62SAPC  H14C 4856   0.117   5.430   7.361  0.1317 -1.2425 -0.1427
   62SAPC   C15 4857   0.107   5.203   7.621 -0.0415 -0.3875 -0.5227
   62SAPC  H15A 4858   0.002   5.177   7.622  0.3282 -2.1358 -2.5064
   62SAPC  H15B 4859   0.148   5.103   7.622  0.6629 -0.1209  1.1626
   62SAPC  H15C 4860   0.143   5.267   7.701  1.6896 -0.6851 -1.0257
   62SAPC   C11 4861   0.026   5.116   7.322 -0.5829 -0.0989  0.3262
   62SAPC  H11A 4862   0.054   5.055   7.233  0.3335 -0.0131  0.5510
   62SAPC  H11B 4863  -0.039   5.200   7.287  1.0583  0.7556 -0.7964
   62SAPC     P 4864  -0.052   4.877   7.406 -0.0135 -0.2670 -0.3864
   62SAPC   O13 4865   0.076   4.823   7.361  0.0779 -0.4225  0.6973
   62SAPC   O14 4866  -0.117   4.822   7.527 -0.2073 -0.5851 -0.1490
   62SAPC   O12 4867  -0.036   5.038   7.423 -0.0342 -0.3156  0.3635
   62SAPC   O11 4868  -0.152   4.867   7.290 -0.0645 -0.1011  0.2731
   62SAPC    C1 4869  -0.144   4.777   7.176  0.4139 -0.7922  0.2455
   62SAPC    HA 4870  -0.085   4.685   7.199  1.5859 -0.0191  0.4484
   62SAPC    HB 4871  -0.245   4.753   7.139  1.0045  0.0619 -2.0993
   62SAPC    C2 4872  -0.075   4.841   7.055  0.0387  0.0368  0.3610
   62SAPC    HS 4873   0.033   4.843   7.083  0.5152 -0.2815 -1.3132
   62SAPC   O21 4874  -0.127   4.977   7.035 -0.0598 -0.0161 -0.6020
   62SAPC   C21 4875  -0.047   5.071   6.996  0.1792 -0.6165 -0.3583
   62SAPC   O22 4876   0.074   5.060   6.979  0.5868  0.3827  0.1625
   62SAPC   C22 4877  -0.131   5.191   6.967 -1.0928 -0.1229  0.1143
   62SAPC   H2R 4878  -0.149   5.251   7.058  1.2545  1.3564 -0.3160
   62SAPC   H2S 4879  -0.071   5.264   6.908  0.2702 -0.1818  1.3885
   62SAPC    C3 4880  -0.091   4.762   6.919  0.3385 -0.3178  0.5962
   62SAPC    HX 4881  -0.199   4.781   6.898  0.2438 -0.6756  0.7590
   62SAPC    HY 4882  -0.083   4.652   6.931 -0.1907 -0.4603 -0.2480
   62SAPC   O31 4883  -0.007   4.822   6.814  0.3462  0.0937  0.0509
   62SAPC   C31 4884   0.120   4.788   6.819 -0.1104 -0.5796 -0.1381
   62SAPC   O32 4885   0.166   4.700   6.887  0.1133  0.3894  0.2015
   62SAPC   C32 4886   0.215   4.893   6.740  0.5130  0.2716 -0.0456
   62SAPC   H2X 4887   0.255   4.959   6.820  1.4920 -0.1725 -0.1509
   62SAPC   H2Y 4888   0.140   4.951   6.682 -0.2445 -0.3173  0.3152
   62SAPC   C23 4889  -0.254   5.164   6.886 -0.0184  0.1745  0.5771
   62SAPC   H3R 4890  -0.305   5.259   6.859  0.9778  0.4830 -0.3142
   62SAPC   H3S 4891  -0.329   5.103   6.940 -0.0168 -0.0377  0.3411
   62SAPC   C24 4892  -0.231   5.087   6.751 -0.0732  0.0868 -0.1359
   62SAPC   H4R 4893  -0.197   4.986   6.783  0.1736  0.7741  1.9170
   62SAPC   H4S 4894  -0.149   5.138   6.695  0.2536  1.6954  1.7241
   62SAPC   C25 4895  -0.352   5.080   6.654 -0.0615 -0.3816 -0.4751
   62SAPC   H5R 4896  -0.438   5.026   6.698  0.8902 -1.1647  0.4639
   62SAPC   C26 4897  -0.366   5.117   6.527 -0.3570 -0.1245 -0.6274
   62SAPC   H6R 4898  -0.468   5.126   6.486 -0.6781  2.4044  0.5825
   62SAPC   C27 4899  -0.264   5.186   6.441 -0.4406  0.4750 -0.0800
   62SAPC   H7R 4900  -0.276   5.128   6.347 -3.6804 -0.3026  0.6837
   62SAPC   H7S 4901  -0.159   5.171   6.471  0.2822  1.0535 -2.1349
   62SAPC   C28 4902  -0.290   5.335   6.434  0.1553  0.4622  0.6419
   62SAPC   H8R 4903  -0.330   5.390   6.520 -1.4650  1.2252 -0.5587
   62SAPC   C29 4904  -0.270   5.413   6.324  0.3286  0.1156 -0.0215
   62SAPC   H9R 4905  -0.291   5.520   6.332  1.6850  0.4315 -0.3701
   62SAPC  C210 4906  -0.219   5.369   6.196 -0.3598 -0.2820  0.2522
   62SAPC  H10R 4907  -0.211   5.258   6.202 -0.0962 -0.3185 -0.6222
   62SAPC  H10S 4908  -0.116   5.409   6.182  0.0484 -1.5619 -0.6979
   62SAPC  C211 4909  -0.310   5.406   6.084  0.6735 -0.2078 -0.0841
   62SAPC  H11R 4910  -0.399   5.341   6.076  0.1231  0.4113  0.7385
   62SAPC  C212 4911  -0.292   5.505   5.995  0.6533  0.2604 -0.4615
   62SAPC  H12R 4912  -0.378   5.521   5.928 -0.3510 -1.6350  0.2951
   62SAPC  C213 4913  -0.181   5.609   5.971  0.5280  0.8070  0.3643
   62SAPC  H13R 4914  -0.106   5.603   6.053  2.5190  0.3013 -1.4004
   62SAPC  H13S 4915  -0.216   5.714   5.969  1.6705  1.4098  3.8551
   62SAPC  C214 4916  -0.104   5.594   5.837 -0.1925 -0.2918 -0.4307
   62SAPC  H14R 4917  -0.112   5.497   5.786  0.0700 -0.8633  0.5809
   62SAPC  C215 4918  -0.025   5.685   5.776 -0.7049  0.5585 -0.6426
   62SAPC  H15R 4919   0.026   5.663   5.682 -0.4173 -1.5056 -0.0647
   62SAPC  C216 4920   0.016   5.812   5.843  0.3354 -0.0099 -0.2053
   62SAPC  H16R 4921  -0.013   5.805   5.950  0.5559  1.5786 -0.0112
   62SAPC  H16S 4922  -0.046   5.897   5.808  0.9396  0.9946  1.0612
   62SAPC  C217 4923   0.168   5.852   5.861 -0.2066  0.7314 -0.1662
   62SAPC  H17R 4924   0.171   5.961   5.886 -1.9318  0.5724  0.8783
   62SAPC  H17S 4925   0.221   5.831   5.766  1.9042 -3.1565  1.6727
   62SAPC  C218 4926   0.238   5.768   5.971 -0.2954  0.0422 -0.3516
   62SAPC  H18R 4927   0.227   5.658   5.961  0.8169 -0.3578  2.0433
   62SAPC  H18S 4928   0.179   5.794   6.062  0.2629 -3.6551  1.2614
   62SAPC  C219 4929   0.383   5.804   5.998 -0.0436  0.3446 -0.1691
   62SAPC  H19R 4930   0.415   5.746   6.087 -0.2413 -1.4165 -1.2039
   62SAPC  H19S 4931   0.376   5.914   6.013  3.9410  0.7526 -0.2100
   62SAPC  C220 4932   0.474   5.772   5.878  0.0159 -0.5794 -0.3313
   62SAPC  H20R 4933   0.429   5.823   5.789 -0.8343  1.1695  1.0335
   62SAPC  H20S 4934   0.480   5.662   5.867  0.2181 -0.6801  0.7434
   62SAPC  H20T 4935   0.575   5.819   5.879 -0.7037  1.0678 -0.3677
   62SAPC   C33 4936   0.317   4.819   6.664 -0.3017  0.2966  0.3591
   62SAPC   H3X 4937   0.272   4.752   6.588  0.6330  1.1695 -0.9959
   62SAPC   H3Y 4938   0.373   4.744   6.725 -1.8478 -2.2844 -1.1985
   62SAPC   C34 4939   0.417   4.911   6.596  0.1446 -0.6886 -0.1321
   62SAPC   H4X 4940   0.493   4.947   6.668  1.4635  0.3550 -1.9666
   62SAPC   H4Y 4941   0.353   4.997   6.569 -0.7187 -1.3734 -0.3492
   62SAPC   C35 4942   0.471   4.859   6.468  0.0274 -0.5671  0.1232
   62SAPC   H5X 4943   0.400   4.855   6.383 -0.2399 -1.4793  0.3779
   62SAPC   H5Y 4944   0.515   4.757   6.477 -0.5534 -0.7683  0.7494
   62SAPC   C36 4945   0.575   4.952   6.408 -0.0626 -0.9753 -0.5101
   62SAPC   H6X 4946   0.662   4.936   6.475 -0.1599 -1.2277 -0.4454
   62SAPC   H6Y 4947   0.546   5.059   6.419  1.8420 -0.5205  0.6896
   62SAPC   C37 4948   0.616   4.927   6.261  0.4270 -0.5438  0.6758
   62SAPC   H7X 4949   0.528   4.930   6.194  0.8643  0.5525  0.1329
   62SAPC   H7Y 4950   0.652   4.823   6.247  0.1327 -0.4560 -0.8233
   62SAPC   C38 4951   0.707   5.034   6.203 -0.9245  0.2519  0.3497
   62SAPC   H8X 4952   0.806   5.035   6.255 -0.1558 -0.5870 -1.0429
   62SAPC   H8Y 4953   0.671   5.137   6.224  1.1649  1.2387 -0.5950
   62SAPC   C39 4954   0.726   5.027   6.048 -0.4173 -0.2715  0.6628
   62SAPC   H9X 4955   0.788   4.940   6.021 -0.5207  0.3066 -1.6656
   62SAPC   H9Y 4956   0.773   5.125   6.023  2.0491 -1.6723 -0.5776
   62SAPC  C310 4957   0.592   5.010   5.974 -0.4983  0.2507  0.2839
   62SAPC  H10X 4958   0.518   5.084   6.011 -1.3816 -1.1256  1.3460
   62SAPC  H10Y 4959   0.559   4.907   5.999  2.0503 -0.9743 -0.9879
   62SAPC  C311 4960   0.595   5.003   5.823 -0.3231  0.2962  0.8960
   62SAPC  H11X 4961   0.508   4.942   5.791 -0.5952  2.1590 -2.3574
   62SAPC  H11Y 4962   0.681   4.942   5.786 -1.6494  0.1025 -2.1457
   62SAPC  C312 4963   0.586   5.126   5.736  0.3565 -0.9263  0.9909
   62SAPC  H12X 4964   0.643   5.215   5.772 -0.8041  0.4720 -0.5010
   62SAPC  H12Y 4965   0.482   5.164   5.738  1.3877  2.6953 -2.1392
   62SAPC  C313 4966   0.621   5.117   5.589  0.6921 -0.5071  0.1448
   62SAPC  H13X 4967   0.571   5.030   5.541 -1.5153  1.3864 -1.2785
   62SAPC  H13Y 4968   0.732   5.117   5.578  0.5849  1.4975 -1.9339
   62SAPC  C314 4969   0.572   5.245   5.509  0.4218 -0.4806 -0.5402
   62SAPC  H14X 4970   0.616   5.332   5.561 -2.3081 -0.7658  2.5270
   62SAPC  H14Y 4971   0.463   5.258   5.524  0.4578  0.1816 -0.8077
   62SAPC  C315 4972   0.600   5.234   5.357  0.5919  0.5911  0.3510
   62SAPC  H15X 4973   0.575   5.127   5.338 -2.1692  1.1326  0.5323
   62SAPC  H15Y 4974   0.706   5.256   5.333  1.4529 -1.7488  1.7151
   62SAPC  C316 4975   0.508   5.314   5.263 -0.1096 -0.4032  0.4505
   62SAPC  H16X 4976   0.544   5.418   5.248 -2.2428  0.2154 -1.0843
   62SAPC  H16Y 4977   0.410   5.321   5.315 -0.0226 -0.2282  0.5880
   62SAPC  C317 4978   0.493   5.251   5.121  0.3275 -0.3636 -0.4916
   62SAPC  H17X 4979   0.460   5.145   5.128  0.4940 -0.3391  1.4913
   62SAPC  H17Y 4980   0.593   5.241   5.074 -0.1392  0.1535 -1.6095
   62SAPC  C318 4981   0.387   5.311   5.030 -0.2036 -0.2558  0.5086
   62SAPC  H18X 4982   0.289   5.292   5.078  0.0034  0.3514  1.1873
   62SAPC  H18Y 4983   0.387   5.255   4.933 -0.2889 -2.1315  1.5352
   62SAPC  H18Z 4984   0.397   5.420   5.014  1.0824 -0.6293 -1.8360
   63SAPC     N 4985   3.625   1.818   7.877 -0.1875 -0.1182  0.2228
   63SAPC   C12 4986   3.583   1.739   7.755  0.1434 -0.9889 -0.1263
   63SAPC  H12A 4987   3.647   1.764   7.671  0.2537 -0.2100  0.1880
   63SAPC  H12B 4988   3.488   1.776   7.719  1.1673  0.9761 -0.9610
   63SAPC   C13 4989   3.617   1.968   7.847  0.9071 -0.4438  0.3101
   63SAPC  H13A 4990   3.640   2.023   7.937 -0.2513  1.5365 -0.5346
   63SAPC  H13B 4991   3.685   1.998   7.769 -0.0549 -0.8469 -0.7166
   63SAPC  H13C 4992   3.522   2.003   7.809  0.5162  0.2628  1.8794
   63SAPC   C14 4993   3.526   1.791   7.985 -0.6004  0.6089 -0.0006
   63SAPC  H14A 4994   3.532   1.854   8.072 -2.1344  1.6191 -0.5861
   63SAPC  H14B 4995   3.427   1.812   7.948  0.4202  3.1001 -1.5519
   63SAPC  H14C 4996   3.528   1.687   8.015 -1.0897  0.3938 -0.6901
   63SAPC   C15 4997   3.769   1.793   7.926  0.3647  0.0444 -0.0598
   63SAPC  H15A 4998   3.788   1.848   8.017 -0.3503 -1.5865  1.1108
   63SAPC  H15B 4999   3.795   1.689   7.939  0.5874 -0.0685 -1.2576
   63SAPC  H15C 5000   3.836   1.831   7.850 -0.7370  0.2572 -0.9389
   63SAPC   C11 5001   3.583   1.587   7.770 -0.2735  0.2778 -0.0404
   63SAPC  H11A 5002   3.498   1.548   7.831  2.3457  0.4395  4.0971
   63SAPC  H11B 5003   3.681   1.564   7.817 -0.6583  1.3131  1.3252
   63SAPC     P 5004   3.456   1.515   7.549  0.2479 -0.0930 -0.2583
   63SAPC   O13 5005   3.357   1.419   7.611 -0.3752  0.5602 -0.0579
   63SAPC   O14 5006   3.405   1.650   7.521  0.3915 -0.1479  0.0337
   63SAPC   O12 5007   3.580   1.519   7.642 -0.1450  0.1373  0.5094
   63SAPC   O11 5008   3.529   1.451   7.420 -0.4815 -0.8174 -0.1215
   63SAPC    C1 5009   3.606   1.529   7.336  0.0339  0.1535 -0.1987
   63SAPC    HA 5010   3.627   1.633   7.370  1.9583  0.0530 -0.9070
   63SAPC    HB 5011   3.711   1.491   7.330  1.1223  2.8190  0.4178
   63SAPC    C2 5012   3.541   1.528   7.195  0.4363 -0.1364 -0.3106
   63SAPC    HS 5013   3.443   1.577   7.214  1.5671  2.4298 -0.6209
   63SAPC   O21 5014   3.519   1.396   7.136  0.6190  0.2643 -0.0698
   63SAPC   C21 5015   3.441   1.394   7.036 -0.0042 -0.4104  0.5839
   63SAPC   O22 5016   3.379   1.493   6.990  0.2151 -0.2270  0.2780
   63SAPC   C22 5017   3.417   1.247   6.995 -0.5647 -0.3623  1.1677
   63SAPC   H2R 5018   3.515   1.205   6.962 -1.7657 -1.4840 -1.2853
   63SAPC   H2S 5019   3.381   1.189   7.082  1.5079 -1.4991  1.3395
   63SAPC    C3 5020   3.614   1.633   7.100 -0.4094 -0.1049  0.6952
   63SAPC    HX 5021   3.625   1.725   7.162 -0.6122  0.3614  0.0458
   63SAPC    HY 5022   3.561   1.649   7.004  0.4892 -2.0335 -0.1728
   63SAPC   O31 5023   3.748   1.584   7.076 -0.0159  0.1877 -0.1795
   63SAPC   C31 5024   3.765   1.518   6.965 -0.2135  0.1750  0.9675
   63SAPC   O32 5025   3.681   1.506   6.877  0.0039 -0.1038 -0.6328
   63SAPC   C32 5026   3.912   1.465   6.943 -0.5223  0.1398  0.2105
   63SAPC   H2X 5027   3.903   1.366   6.893  0.4760  0.1015  0.0987
   63SAPC   H2Y 5028   3.965   1.467   7.040 -0.9084  2.1565  0.4242
   63SAPC   C23 5029   3.306   1.226   6.897 -0.2319  0.8108 -0.3713
   63SAPC   H3R 5030   3.205   1.237   6.943  0.3245 -2.3348  1.9747
   63SAPC   H3S 5031   3.306   1.118   6.872  1.2822  0.6656  0.1700
   63SAPC   C24 5032   3.318   1.300   6.766 -0.5741 -0.8782  0.2588
   63SAPC   H4R 5033   3.316   1.410   6.779  0.5006 -0.7194 -0.7611
   63SAPC   H4S 5034   3.229   1.280   6.701 -0.4032  1.7696 -0.9293
   63SAPC   C25 5035   3.448   1.281   6.697 -0.4165 -0.6184  0.5492
   63SAPC   H5R 5036   3.534   1.337   6.737  0.7431 -1.5385 -0.5345
   63SAPC   C26 5037   3.464   1.216   6.577  0.4522  0.6435  0.9484
   63SAPC   H6R 5038   3.561   1.218   6.526  0.3191  1.5033  0.7002
   63SAPC   C27 5039   3.354   1.148   6.499  0.2112  0.1707  0.3798
   63SAPC   H7R 5040   3.274   1.121   6.570  0.6992  0.1747  0.9399
   63SAPC   H7S 5041   3.383   1.050   6.455 -0.0935  0.5945 -0.8199
   63SAPC   C28 5042   3.303   1.237   6.385  0.2801 -0.7418  0.3223
   63SAPC   H8R 5043   3.288   1.336   6.431  0.4973 -1.0066  0.9712
   63SAPC   C29 5044   3.265   1.206   6.261 -0.1512 -0.2017 -0.5647
   63SAPC   H9R 5045   3.227   1.282   6.192 -1.5317 -0.6999 -0.3752
   63SAPC  C210 5046   3.282   1.065   6.204 -0.5275  0.0585  0.3598
   63SAPC  H10R 5047   3.197   1.028   6.143  0.2262  0.9280 -1.2871
   63SAPC  H10S 5048   3.280   0.982   6.277 -1.3767 -0.3049 -0.0678
   63SAPC  C211 5049   3.418   1.062   6.135  0.8923 -0.9195 -0.3542
   63SAPC  H11R 5050   3.501   1.029   6.198  1.5200  0.9783 -0.1200
   63SAPC  C212 5051   3.444   1.119   6.012  0.1210  0.5844 -0.0022
   63SAPC  H12R 5052   3.547   1.116   5.975  0.5535  0.7626  1.1599
   63SAPC  C213 5053   3.347   1.191   5.918 -0.0007  0.8430  0.2463
   63SAPC  H13R 5054   3.376   1.298   5.913 -0.7593  0.9957 -2.4589
   63SAPC  H13S 5055   3.243   1.182   5.956 -0.6272  0.3922 -1.4704
   63SAPC  C214 5056   3.360   1.135   5.775 -1.2588 -0.4103  0.4451
   63SAPC  H14R 5057   3.350   1.025   5.775 -0.3789 -0.5398 -1.7234
   63SAPC  C215 5058   3.352   1.188   5.657 -0.0807  0.1225  0.3172
   63SAPC  H15R 5059   3.360   1.126   5.566 -0.1178 -0.4109  0.6760
   63SAPC  C216 5060   3.349   1.336   5.628 -1.1781  0.0286  0.3959
   63SAPC  H16R 5061   3.432   1.382   5.570 -0.4951 -0.2339  1.1444
   63SAPC  H16S 5062   3.346   1.396   5.722 -0.0098  0.8988 -0.0903
   63SAPC  C217 5063   3.222   1.375   5.549  0.0962  0.1044 -0.2529
   63SAPC  H17R 5064   3.210   1.486   5.554 -3.0839 -0.0635 -1.4988
   63SAPC  H17S 5065   3.141   1.335   5.614  1.0356  2.6577  2.7102
   63SAPC  C218 5066   3.213   1.332   5.408  0.1125 -0.1999  0.1211
   63SAPC  H18R 5067   3.239   1.224   5.410 -1.0677 -0.4979  1.6985
   63SAPC  H18S 5068   3.288   1.379   5.341 -2.4765  1.2178 -1.9877
   63SAPC  C219 5069   3.089   1.364   5.340  0.7009 -0.4397  0.1007
   63SAPC  H19R 5070   3.082   1.475   5.347 -1.5163 -0.5830  1.3564
   63SAPC  H19S 5071   2.996   1.342   5.397  1.7138 -0.3231  1.8569
   63SAPC  C220 5072   3.085   1.327   5.194  0.4767  0.0700  0.1891
   63SAPC  H20R 5073   3.162   1.376   5.131 -1.2216  1.1564 -1.1226
   63SAPC  H20S 5074   2.988   1.355   5.147  1.0761  2.5570  0.2685
   63SAPC  H20T 5075   3.097   1.217   5.188  1.7311  0.1784  0.3214
   63SAPC   C33 5076   3.987   1.561   6.842 -0.1515  0.8661 -0.0774
   63SAPC   H3X 5077   4.040   1.643   6.895 -1.0458 -0.2080  2.6171
   63SAPC   H3Y 5078   3.908   1.612   6.783  0.1616 -0.9332 -2.1999
   63SAPC   C34 5079   4.088   1.482   6.757  0.0595  0.3564 -0.3612
   63SAPC   H4X 5080   4.028   1.426   6.681 -0.1678 -0.5615  0.4715
   63SAPC   H4Y 5081   4.150   1.412   6.816  0.9533  1.4520  0.0222
   63SAPC   C35 5082   4.181   1.584   6.679 -0.4808  0.0287  0.5200
   63SAPC   H5X 5083   4.239   1.646   6.752  0.8482 -2.9500  2.1930
   63SAPC   H5Y 5084   4.121   1.654   6.618  1.0313 -0.2428 -1.3944
   63SAPC   C36 5085   4.272   1.522   6.573  0.4689 -0.8078  0.0175
   63SAPC   H6X 5086   4.251   1.415   6.552  2.4284 -1.3455  0.6179
   63SAPC   H6Y 5087   4.379   1.525   6.602  0.9394 -3.3157 -1.2053
   63SAPC   C37 5088   4.247   1.584   6.436 -0.2162  0.5245  0.3231
   63SAPC   H7X 5089   4.252   1.695   6.432 -1.5488  0.5836 -1.8784
   63SAPC   H7Y 5090   4.143   1.557   6.407 -0.8315  0.3666  2.5598
   63SAPC   C38 5091   4.342   1.519   6.332 -0.0433  0.1684  0.1491
   63SAPC   H8X 5092   4.353   1.410   6.349  2.6764  0.2681 -0.5699
   63SAPC   H8Y 5093   4.440   1.564   6.358  0.6594 -1.4460  0.4643
   63SAPC   C39 5094   4.308   1.546   6.183 -0.9924  0.2047  0.2571
   63SAPC   H9X 5095   4.294   1.654   6.162 -0.5530 -0.1209 -1.9591
   63SAPC   H9Y 5096   4.206   1.511   6.156 -0.6753  0.5090 -1.3992
   63SAPC  C310 5097   4.408   1.486   6.089 -0.6749  0.6017 -0.2459
   63SAPC  H10X 5098   4.427   1.377   6.097  2.8662  0.9210 -2.2065
   63SAPC  H10Y 5099   4.506   1.529   6.119 -0.3516  0.5133 -1.1322
   63SAPC  C311 5100   4.378   1.526   5.946 -0.3025  0.7905 -0.4712
   63SAPC  H11X 5101   4.450   1.470   5.883 -1.1692 -0.5314 -0.3092
   63SAPC  H11Y 5102   4.389   1.636   5.934  0.1280  1.0454  1.7940
   63SAPC  C312 5103   4.236   1.495   5.899  0.9086  0.0309 -0.1974
   63SAPC  H12X 5104   4.159   1.564   5.938  0.5868 -1.0526  1.1749
   63SAPC  H12Y 5105   4.195   1.399   5.937 -0.0582  0.2973 -0.5426
   63SAPC  C313 5106   4.226   1.493   5.745  0.1071  0.5557 -0.3314
   63SAPC  H13X 5107   4.120   1.477   5.715  0.5530 -2.7328 -0.5122
   63SAPC  H13Y 5108   4.287   1.414   5.696 -0.2486  0.3282 -0.4152
   63SAPC  C314 5109   4.270   1.634   5.690  0.4108  0.5980  0.3579
   63SAPC  H14X 5110   4.379   1.651   5.684  0.1734  3.6535  2.7593
   63SAPC  H14Y 5111   4.234   1.702   5.769  1.4391  1.8247 -0.2051
   63SAPC  C315 5112   4.190   1.685   5.572  0.0369  0.0041  1.1054
   63SAPC  H15X 5113   4.214   1.791   5.548 -0.0020 -0.4616 -1.2219
   63SAPC  H15Y 5114   4.081   1.693   5.595  0.1100  4.3541  0.8684
   63SAPC  C316 5115   4.212   1.609   5.439 -0.1580 -0.3329 -0.2734
   63SAPC  H16X 5116   4.146   1.653   5.361 -0.7819 -0.1562  0.3421
   63SAPC  H16Y 5117   4.166   1.512   5.465 -1.7322  0.7622  1.3152
   63SAPC  C317 5118   4.357   1.595   5.394  0.5428  0.7154 -0.1133
   63SAPC  H17X 5119   4.368   1.528   5.306  0.8719 -0.7223  0.9828
   63SAPC  H17Y 5120   4.414   1.544   5.476 -2.5593  1.8184  2.9733
   63SAPC  C318 5121   4.427   1.729   5.352  0.6742  0.1900 -0.7918
   63SAPC  H18X 5122   4.384   1.767   5.257 -0.7043  1.3275  0.2472
   63SAPC  H18Y 5123   4.536   1.721   5.333  1.1050  0.7520  1.2124
   63SAPC  H18Z 5124   4.417   1.816   5.420 -0.4607 -0.6109  0.1204
   64SAPC     N 5125   3.251   3.191   7.331  0.5932 -0.5559 -0.7119
   64SAPC   C12 5126   3.220   3.067   7.251 -0.2674 -0.2995 -0.2746
   64SAPC  H12A 5127   3.133   3.084   7.189 -1.1120  1.0180  1.1873
   64SAPC  H12B 5128   3.181   2.992   7.318 -0.7942  0.2913  0.0921
   64SAPC   C13 5129   3.331   3.292   7.250 -0.9638 -0.1935  0.2150
   64SAPC  H13A 5130   3.363   3.373   7.313 -2.4174 -0.8836  1.9275
   64SAPC  H13B 5131   3.408   3.224   7.216 -2.1672 -2.7538  2.2364
   64SAPC  H13C 5132   3.263   3.332   7.176  0.8078 -0.0142 -1.3846
   64SAPC   C14 5133   3.121   3.258   7.380  0.3184  0.1524  0.1874
   64SAPC  H14A 5134   3.049   3.264   7.299  0.4607  2.1040  0.1400
   64SAPC  H14B 5135   3.078   3.204   7.462 -1.0353  0.2418 -0.4299
   64SAPC  H14C 5136   3.135   3.361   7.410 -0.8909 -0.2923  2.4268
   64SAPC   C15 5137   3.334   3.163   7.450  0.3882 -0.6353 -0.2597
   64SAPC  H15A 5138   3.406   3.092   7.413  0.0160 -0.0304 -2.2274
   64SAPC  H15B 5139   3.381   3.252   7.488 -0.9674 -0.2469  0.5849
   64SAPC  H15C 5140   3.280   3.109   7.527  0.9088  0.7830  1.1620
   64SAPC   C11 5141   3.341   3.005   7.182 -0.0398 -0.1400 -0.3440
   64SAPC  H11A 5142   3.399   3.085   7.129 -0.1363  1.4386  1.8108
   64SAPC  H11B 5143   3.301   2.937   7.104  0.2358  2.6154 -3.1350
   64SAPC     P 5144   3.387   2.796   7.326  0.0121 -0.1119 -0.0448
   64SAPC   O13 5145   3.480   2.740   7.429  0.2694 -0.4554  0.0267
   64SAPC   O14 5146   3.242   2.804   7.359  0.0199 -0.1657 -0.3569
   64SAPC   O12 5147   3.430   2.933   7.271 -0.3048 -0.1266  0.3699
   64SAPC   O11 5148   3.396   2.715   7.197  0.5634  0.2809 -0.1274
   64SAPC    C1 5149   3.525   2.714   7.131  0.4271  0.5210  0.1700
   64SAPC    HA 5150   3.575   2.813   7.126  0.5214  0.4126 -3.3247
   64SAPC    HB 5151   3.596   2.639   7.172  2.4935  2.1993 -0.1527
   64SAPC    C2 5152   3.513   2.666   6.981 -0.4349  0.2945  0.5232
   64SAPC    HS 5153   3.614   2.662   6.936  0.1937 -0.9025  1.9255
   64SAPC   O21 5154   3.425   2.745   6.907 -0.6450 -0.1894 -0.2546
   64SAPC   C21 5155   3.477   2.868   6.879  0.3531  0.5169  0.7360
   64SAPC   O22 5156   3.566   2.920   6.938 -0.3033  0.2630  0.3921
   64SAPC   C22 5157   3.394   2.930   6.761  0.4603  0.1077  0.0225
   64SAPC   H2R 5158   3.351   2.850   6.697  0.9355 -0.8740  0.9002
   64SAPC   H2S 5159   3.314   2.996   6.801 -0.6223 -0.5853 -0.9382
   64SAPC    C3 5160   3.470   2.519   6.968  0.1394 -0.3005  0.2573
   64SAPC    HX 5161   3.369   2.498   7.010  1.2654 -1.7674  2.4546
   64SAPC    HY 5162   3.533   2.466   7.043 -0.0269 -0.0002  0.6149
   64SAPC   O31 5163   3.481   2.455   6.840  0.6002  0.0051 -0.8915
   64SAPC   C31 5164   3.516   2.331   6.838 -0.2686 -0.5253 -0.3488
   64SAPC   O32 5165   3.554   2.264   6.931  0.5407  0.3464 -0.0123
   64SAPC   C32 5166   3.469   2.282   6.699 -0.4618  0.4404 -0.6042
   64SAPC   H2X 5167   3.499   2.361   6.626 -1.1057 -0.1007 -1.4829
   64SAPC   H2Y 5168   3.359   2.292   6.707 -0.4716  0.2885 -0.5366
   64SAPC   C23 5169   3.480   3.026   6.672 -0.3058  0.9375  0.2599
   64SAPC   H3R 5170   3.582   2.984   6.664  0.0103  1.4690  1.2800
   64SAPC   H3S 5171   3.485   3.127   6.719  0.7191 -0.5159  3.4754
   64SAPC   C24 5172   3.422   3.054   6.534  0.3309 -0.1056 -1.3383
   64SAPC   H4R 5173   3.487   3.131   6.488 -0.3511  0.1954 -1.8184
   64SAPC   H4S 5174   3.322   3.101   6.548  0.1791 -0.9500  0.7521
   64SAPC   C25 5175   3.410   2.936   6.446 -0.9085  0.2183 -0.1677
   64SAPC   H5R 5176   3.474   2.849   6.467 -1.9799 -0.5949 -0.1782
   64SAPC   C26 5177   3.347   2.928   6.331  0.0851 -0.2683  0.0012
   64SAPC   H6R 5178   3.358   2.836   6.272  1.2664  1.4158 -2.5545
   64SAPC   C27 5179   3.252   3.026   6.268 -0.0760 -0.4146  0.0616
   64SAPC   H7R 5180   3.218   3.100   6.344 -0.2088  0.2972 -0.6748
   64SAPC   H7S 5181   3.168   2.972   6.220 -1.0974  0.7200  0.5284
   64SAPC   C28 5182   3.329   3.088   6.155  0.1236 -0.0213 -0.1415
   64SAPC   H8R 5183   3.401   3.167   6.179  1.5052 -0.4374 -2.5803
   64SAPC   C29 5184   3.329   3.060   6.021  0.9172  0.6754 -0.3040
   64SAPC   H9R 5185   3.401   3.121   5.963  1.1174  1.9805  1.2355
   64SAPC  C210 5186   3.253   2.948   5.953  0.8914  0.5878 -0.2566
   64SAPC  H10R 5187   3.194   2.875   6.012  1.2647  1.8322  1.7913
   64SAPC  H10S 5188   3.314   2.885   5.886 -2.2551 -3.8419  0.6072
   64SAPC  C211 5189   3.145   3.025   5.881  0.1730  0.2528  0.4496
   64SAPC  H11R 5190   3.071   3.089   5.931  1.5198  1.2644  1.2363
   64SAPC  C212 5191   3.131   3.025   5.744 -0.1969 -0.4030 -0.0013
   64SAPC  H12R 5192   3.042   3.078   5.706  0.4011 -0.0117 -0.9010
   64SAPC  C213 5193   3.213   2.942   5.643  0.1432 -0.3681 -0.3934
   64SAPC  H13R 5194   3.144   2.922   5.559 -0.9094  0.6009  0.2131
   64SAPC  H13S 5195   3.246   2.847   5.691 -0.7391  0.2482  1.5283
   64SAPC  C214 5196   3.350   3.001   5.616  0.2443  0.3842 -0.7761
   64SAPC  H14R 5197   3.432   2.965   5.680  2.2218 -0.4528 -3.6230
   64SAPC  C215 5198   3.378   3.097   5.529 -0.2818 -0.2133 -0.2364
   64SAPC  H15R 5199   3.482   3.132   5.528 -0.6305  0.8530 -0.7215
   64SAPC  C216 5200   3.296   3.163   5.418  0.4014 -0.4752  0.1353
   64SAPC  H16R 5201   3.344   3.259   5.389 -2.8322  1.5826  1.0943
   64SAPC  H16S 5202   3.197   3.187   5.461  0.7778 -0.4051  0.9857
   64SAPC  C217 5203   3.271   3.079   5.297  0.3650  0.2734 -0.2426
   64SAPC  H17R 5204   3.190   3.007   5.322 -0.0525  1.3200  1.6585
   64SAPC  H17S 5205   3.360   3.017   5.273  1.1466  1.0379  0.5961
   64SAPC  C218 5206   3.237   3.166   5.173 -0.0562 -0.1989  0.1335
   64SAPC  H18R 5207   3.209   3.102   5.086 -1.4521 -0.1088  0.4948
   64SAPC  H18S 5208   3.334   3.215   5.154  0.2499 -0.9760 -0.3783
   64SAPC  C219 5209   3.123   3.254   5.202  1.0391 -0.1488  0.0509
   64SAPC  H19R 5210   3.159   3.330   5.275 -1.4641  1.0084  0.1764
   64SAPC  H19S 5211   3.043   3.198   5.255  0.6199  1.4865  1.2547
   64SAPC  C220 5212   3.075   3.320   5.075  0.2833 -0.6899  0.9266
   64SAPC  H20R 5213   3.019   3.252   5.007 -1.9293  0.1068  1.8616
   64SAPC  H20S 5214   3.157   3.364   5.014 -0.9322 -2.0927 -1.9000
   64SAPC  H20T 5215   2.994   3.390   5.100  0.4803 -1.0280  2.6353
   64SAPC   C33 5216   3.515   2.141   6.673  0.1353  0.7150 -0.4600
   64SAPC   H3X 5217   3.481   2.074   6.755 -2.2665  1.7165 -0.5670
   64SAPC   H3Y 5218   3.626   2.137   6.663  0.2477  0.3343  0.7734
   64SAPC   C34 5219   3.462   2.085   6.544  0.6131 -0.2048  0.6396
   64SAPC   H4X 5220   3.351   2.094   6.551  0.8093  1.3188  2.8394
   64SAPC   H4Y 5221   3.492   1.980   6.522 -2.2764 -0.9865 -0.0867
   64SAPC   C35 5222   3.490   2.169   6.422  0.5807  0.0003 -0.1097
   64SAPC   H5X 5223   3.597   2.193   6.409  0.8593 -0.6173  0.8965
   64SAPC   H5Y 5224   3.424   2.258   6.421 -2.4614 -2.0294 -2.3827
   64SAPC   C36 5225   3.454   2.095   6.290  0.3285  0.3214 -0.0325
   64SAPC   H6X 5226   3.345   2.078   6.287  0.3309  0.3731 -1.1739
   64SAPC   H6Y 5227   3.516   2.003   6.288  0.5737  0.4555  0.9271
   64SAPC   C37 5228   3.495   2.171   6.176  0.6279 -1.2129  0.4335
   64SAPC   H7X 5229   3.600   2.205   6.192 -0.0721  0.7422  1.2140
   64SAPC   H7Y 5230   3.441   2.267   6.164  0.5545 -1.2490  0.4757
   64SAPC   C38 5231   3.499   2.077   6.055 -0.0839 -0.1853 -0.2052
   64SAPC   H8X 5232   3.403   2.022   6.054  0.2069 -0.7038 -1.5151
   64SAPC   H8Y 5233   3.584   2.007   6.071  0.6942  0.9307  0.7871
   64SAPC   C39 5234   3.515   2.171   5.932  0.0122  0.1436  0.1489
   64SAPC   H9X 5235   3.603   2.238   5.942 -0.2180  1.1789 -3.2779
   64SAPC   H9Y 5236   3.423   2.232   5.925 -2.4129 -3.1375  0.8597
   64SAPC  C310 5237   3.517   2.097   5.801  0.5361  0.3303  0.1415
   64SAPC  H10X 5238   3.425   2.036   5.797  0.4991  0.4460 -2.5120
   64SAPC  H10Y 5239   3.594   2.017   5.791 -0.3712 -0.3217 -2.1151
   64SAPC  C311 5240   3.503   2.183   5.669 -0.4305 -0.2695 -0.4229
   64SAPC  H11X 5241   3.583   2.260   5.660 -1.4717  0.7825 -0.8750
   64SAPC  H11Y 5242   3.405   2.234   5.676  0.4134  1.1857  1.8893
   64SAPC  C312 5243   3.510   2.085   5.550  0.3255 -0.3853 -0.0332
   64SAPC  H12X 5244   3.454   1.993   5.577 -1.2870  0.7201  0.5587
   64SAPC  H12Y 5245   3.615   2.057   5.531  1.0206  2.1825 -0.2999
   64SAPC  C313 5246   3.430   2.131   5.421 -0.4814  0.9235  0.0095
   64SAPC  H13X 5247   3.466   2.235   5.406 -0.2123  0.6634 -1.2185
   64SAPC  H13Y 5248   3.319   2.130   5.420 -0.5040 -0.8267  0.1350
   64SAPC  C314 5249   3.486   2.046   5.296  0.3685 -0.7243 -1.2186
   64SAPC  H14X 5250   3.445   1.945   5.318 -0.7412 -0.0348  0.0902
   64SAPC  H14Y 5251   3.596   2.038   5.311 -0.0465 -1.2681  2.9196
   64SAPC  C315 5252   3.440   2.097   5.167 -0.3656  0.1401  0.9359
   64SAPC  H15X 5253   3.454   2.206   5.155 -0.2433 -0.0193 -0.6004
   64SAPC  H15Y 5254   3.332   2.073   5.164 -0.0732 -1.2345  0.8239
   64SAPC  C316 5255   3.518   2.042   5.041  0.4100  0.0928  0.2230
   64SAPC  H16X 5256   3.624   2.046   5.072  0.2483 -0.7492  0.9465
   64SAPC  H16Y 5257   3.497   2.088   4.942 -2.0969 -3.2724 -1.0208
   64SAPC  C317 5258   3.480   1.896   5.010  0.3012  0.2814 -0.4483
   64SAPC  H17X 5259   3.370   1.899   4.998  0.0600  0.9372  1.6260
   64SAPC  H17Y 5260   3.504   1.833   5.098 -2.1991  1.1302  0.9284
   64SAPC  C318 5261   3.551   1.841   4.886  0.7665  0.3594 -0.2849
   64SAPC  H18X 5262   3.494   1.753   4.849 -3.0006  1.2090  2.7676
   64SAPC  H18Y 5263   3.654   1.806   4.905  0.1855 -2.9485 -2.4073
   64SAPC  H18Z 5264   3.551   1.915   4.803  1.4599  0.3718 -0.2750
   65SAPC     N 5265   1.840   6.504   3.145  0.2822 -0.3752  0.5261
   65SAPC   C12 5266   1.884   6.474   3.293 -0.2641 -0.0800  0.4334
   65SAPC  H12A 5267   1.938   6.560   3.329  1.2653 -1.1638  0.8574
   65SAPC  H12B 5268   1.964   6.402   3.282 -0.6030 -0.6057  1.2474
   65SAPC   C13 5269   1.952   6.537   3.055  0.0964  0.0735 -0.2265
   65SAPC  H13A 5270   2.004   6.625   3.091 -2.2363  1.5053 -0.1651
   65SAPC  H13B 5271   2.024   6.456   3.050 -2.0395 -1.9193 -0.0524
   65SAPC  H13C 5272   1.927   6.583   2.961  0.1319  0.6987  0.0590
   65SAPC   C14 5273   1.771   6.384   3.088 -0.2850 -0.5595 -0.1561
   65SAPC  H14A 5274   1.678   6.365   3.139 -0.3679  1.1133  0.3723
   65SAPC  H14B 5275   1.745   6.399   2.984  0.8539  0.8381 -0.2677
   65SAPC  H14C 5276   1.832   6.295   3.085 -0.0672 -0.3835 -1.6195
   65SAPC   C15 5277   1.745   6.620   3.145  0.3280  0.3902 -0.2864
   65SAPC  H15A 5278   1.671   6.601   3.221 -0.1909 -0.7938 -1.0582
   65SAPC  H15B 5279   1.800   6.711   3.163  1.3792 -0.2248 -0.3169
   65SAPC  H15C 5280   1.687   6.630   3.054 -0.1492  0.0518 -0.0258
   65SAPC   C11 5281   1.783   6.425   3.398  0.0812 -0.0667 -0.1653
   65SAPC  H11A 5282   1.708   6.504   3.421  0.5901 -0.1703  2.0547
   65SAPC  H11B 5283   1.843   6.410   3.490 -2.0439 -0.7880  1.1799
   65SAPC     P 5284   1.800   6.167   3.386 -0.0144  0.1120 -0.4061
   65SAPC   O13 5285   1.701   6.065   3.337 -0.1588  0.5625  0.0937
   65SAPC   O14 5286   1.927   6.180   3.313  0.0608  0.2709  0.2007
   65SAPC   O12 5287   1.720   6.300   3.370 -0.4169 -0.2079 -0.8654
   65SAPC   O11 5288   1.825   6.157   3.539 -0.1315  0.2067  0.1639
   65SAPC    C1 5289   1.737   6.100   3.633  0.1909 -0.2628  0.3873
   65SAPC    HA 5290   1.712   5.999   3.593  0.1452 -0.4166  0.7894
   65SAPC    HB 5291   1.795   6.077   3.725  0.3784  0.1915  0.3804
   65SAPC    C2 5292   1.608   6.174   3.669 -0.7423 -0.3148  0.5820
   65SAPC    HS 5293   1.553   6.194   3.575 -0.8255  1.1217  0.9128
   65SAPC   O21 5294   1.650   6.297   3.735 -0.4971 -0.2813  0.7001
   65SAPC   C21 5295   1.599   6.405   3.690 -0.0925  1.5194  0.4183
   65SAPC   O22 5296   1.518   6.412   3.600  0.0806  0.1622  0.1291
   65SAPC   C22 5297   1.634   6.516   3.784  0.0698 -0.7359 -0.3709
   65SAPC   H2R 5298   1.652   6.604   3.717 -3.4618  1.0046  0.7151
   65SAPC   H2S 5299   1.550   6.535   3.855  0.0176 -2.3378  0.0283
   65SAPC    C3 5300   1.513   6.087   3.757  0.6357 -0.1552 -0.6562
   65SAPC    HX 5301   1.574   6.032   3.832  0.8198 -0.0009 -0.6902
   65SAPC    HY 5302   1.470   6.009   3.691 -1.3903  1.7963 -1.7792
   65SAPC   O31 5303   1.406   6.171   3.811 -0.0292 -0.6148 -0.2901
   65SAPC   C31 5304   1.419   6.198   3.941  0.0822  0.1532 -0.7073
   65SAPC   O32 5305   1.492   6.144   4.022  0.1648 -0.4650  0.8363
   65SAPC   C32 5306   1.313   6.302   3.974 -0.1183  0.4771  0.2515
   65SAPC   H2X 5307   1.220   6.241   3.969  0.4499 -0.4611  0.8431
   65SAPC   H2Y 5308   1.313   6.381   3.896 -0.7726  1.2783  1.0269
   65SAPC   C23 5309   1.761   6.495   3.869  0.1321  0.8758 -0.0997
   65SAPC   H3R 5310   1.799   6.594   3.903  0.2218  1.1639 -1.0261
   65SAPC   H3S 5311   1.843   6.451   3.808  1.2200  1.7054  0.7201
   65SAPC   C24 5312   1.727   6.410   3.992  0.1257  0.2798 -0.0940
   65SAPC   H4R 5313   1.686   6.308   3.974 -2.0947  1.0890  0.0108
   65SAPC   H4S 5314   1.638   6.464   4.032  0.3332  0.1509  0.5502
   65SAPC   C25 5315   1.832   6.403   4.098 -0.4509  0.0245  1.0786
   65SAPC   H5R 5316   1.833   6.488   4.168 -1.5534  0.7080  0.3005
   65SAPC   C26 5317   1.930   6.312   4.099 -0.2408  0.1432  0.1986
   65SAPC   H6R 5318   1.992   6.321   4.189  0.0840  1.0051 -0.0999
   65SAPC   C27 5319   1.949   6.198   3.999 -0.2854 -0.3170 -0.0110
   65SAPC   H7R 5320   2.057   6.187   3.974  0.5172  3.6251  1.0213
   65SAPC   H7S 5321   1.913   6.228   3.898 -2.9014  0.9430  1.2002
   65SAPC   C28 5322   1.880   6.070   4.031 -0.3030 -0.0433 -0.0803
   65SAPC   H8R 5323   1.770   6.072   4.035 -0.5185  0.0478 -3.2874
   65SAPC   C29 5324   1.935   5.945   4.015  0.4248 -0.5415 -0.1684
   65SAPC   H9R 5325   1.880   5.856   4.049  2.4406 -1.2875  1.3449
   65SAPC  C210 5326   2.081   5.915   3.978  0.2491 -0.0516 -0.0542
   65SAPC  H10R 5327   2.147   5.916   4.068 -0.9785 -1.1218  0.9122
   65SAPC  H10S 5328   2.125   5.990   3.910  1.0405  0.6143  1.1645
   65SAPC  C211 5329   2.081   5.787   3.893  0.2198  0.2501 -0.7286
   65SAPC  H11R 5330   2.028   5.784   3.796  1.0804  1.0368 -1.2443
   65SAPC  C212 5331   2.154   5.677   3.931  0.9592  0.3043  0.2513
   65SAPC  H12R 5332   2.161   5.587   3.868 -1.4113  0.8526 -0.9422
   65SAPC  C213 5333   2.222   5.660   4.064 -0.5761  0.1852 -0.5628
   65SAPC  H13R 5334   2.148   5.676   4.145 -0.6340  1.6427 -0.8686
   65SAPC  H13S 5335   2.308   5.730   4.073  0.9298 -1.6522 -0.1343
   65SAPC  C214 5336   2.273   5.522   4.082  0.4032 -0.3471  0.8866
   65SAPC  H14R 5337   2.200   5.445   4.054  0.5468  0.0668 -0.7212
   65SAPC  C215 5338   2.393   5.489   4.138  0.5133  0.0773 -0.8988
   65SAPC  H15R 5339   2.429   5.385   4.147  0.3291  0.0616 -0.3229
   65SAPC  C216 5340   2.503   5.592   4.175  0.3386  0.6267 -0.2410
   65SAPC  H16R 5341   2.534   5.652   4.086  0.2746 -0.3745 -0.9495
   65SAPC  H16S 5342   2.597   5.539   4.198 -0.6270 -0.5410  1.1693
   65SAPC  C217 5343   2.465   5.673   4.305 -0.3760  0.0500 -0.4989
   65SAPC  H17R 5344   2.418   5.611   4.385 -0.0081 -1.1805 -1.2155
   65SAPC  H17S 5345   2.393   5.755   4.285  0.0606  0.2381 -1.3256
   65SAPC  C218 5346   2.593   5.734   4.367 -0.6427 -0.0609 -0.3923
   65SAPC  H18R 5347   2.655   5.773   4.284 -2.5293  1.3707 -1.2079
   65SAPC  H18S 5348   2.647   5.663   4.433 -3.5519  0.3981  2.7667
   65SAPC  C219 5349   2.558   5.845   4.470  0.1606  0.1134  0.0814
   65SAPC  H19R 5350   2.475   5.905   4.427 -0.2955 -0.4039  0.2178
   65SAPC  H19S 5351   2.647   5.909   4.487  2.0385 -2.5769  1.0186
   65SAPC  C220 5352   2.502   5.784   4.604 -0.6776  0.5872  0.0160
   65SAPC  H20R 5353   2.401   5.739   4.594 -0.5337  0.0359  0.9192
   65SAPC  H20S 5354   2.503   5.872   4.673  0.1389  1.4069 -1.0102
   65SAPC  H20T 5355   2.565   5.701   4.641 -1.8506  0.4691  1.9029
   65SAPC   C33 5356   1.343   6.353   4.114 -0.7276 -0.5080 -0.1215
   65SAPC   H3X 5357   1.447   6.393   4.118 -0.9576  0.1110 -0.2647
   65SAPC   H3Y 5358   1.343   6.260   4.175 -0.1170 -0.9954 -0.8423
   65SAPC   C34 5359   1.246   6.454   4.166 -0.5125  0.0921  0.2187
   65SAPC   H4X 5360   1.151   6.398   4.179 -0.0474 -0.4102  1.6617
   65SAPC   H4Y 5361   1.231   6.538   4.096  0.5764  0.9381  0.9728
   65SAPC   C35 5362   1.281   6.513   4.299  0.2213 -0.3760  0.4032
   65SAPC   H5X 5363   1.197   6.576   4.333  1.5968  0.9912  1.3626
   65SAPC   H5Y 5364   1.365   6.584   4.280  0.3910 -1.0783 -1.8346
   65SAPC   C36 5365   1.302   6.411   4.416  0.1469  0.9184  0.5774
   65SAPC   H6X 5366   1.378   6.335   4.388 -0.8180  0.1790 -0.1172
   65SAPC   H6Y 5367   1.213   6.346   4.422  0.6404 -0.3623 -3.1846
   65SAPC   C37 5368   1.310   6.475   4.553 -0.0116 -0.3669  0.5019
   65SAPC   H7X 5369   1.239   6.560   4.560 -0.1306 -0.5025  0.9711
   65SAPC   H7Y 5370   1.408   6.527   4.556  0.5629 -1.2307 -1.3442
   65SAPC   C38 5371   1.294   6.362   4.651 -0.3290 -0.2841  0.0144
   65SAPC   H8X 5372   1.356   6.275   4.622  0.4538  1.0369 -2.6012
   65SAPC   H8Y 5373   1.188   6.330   4.647  0.4693 -3.3347  0.7341
   65SAPC   C39 5374   1.329   6.412   4.793 -0.4984 -0.3099 -0.6351
   65SAPC   H9X 5375   1.281   6.509   4.819  0.3609  0.0156 -0.2070
   65SAPC   H9Y 5376   1.439   6.426   4.782 -0.0375 -0.6961  2.4811
   65SAPC  C310 5377   1.283   6.319   4.906 -0.7484  0.7983  0.5337
   65SAPC  H10X 5378   1.313   6.218   4.871 -0.8422  0.8314  0.3553
   65SAPC  H10Y 5379   1.175   6.315   4.933 -0.7402  0.7902  0.5656
   65SAPC  C311 5380   1.355   6.357   5.041  0.4272  0.8376  0.3113
   65SAPC  H11X 5381   1.319   6.307   5.133  0.8419  0.8242  0.4661
   65SAPC  H11Y 5382   1.327   6.464   5.056 -1.2335  0.6748 -1.2460
   65SAPC  C312 5383   1.510   6.344   5.049  0.2260 -0.1102  0.3041
   65SAPC  H12X 5384   1.565   6.426   4.999  0.0761  0.6790  1.3785
   65SAPC  H12Y 5385   1.537   6.253   4.992 -0.2983 -1.5502  2.2442
   65SAPC  C313 5386   1.552   6.331   5.199 -0.0888 -0.1590 -0.3196
   65SAPC  H13X 5387   1.498   6.251   5.255 -1.0440  0.7134  0.0374
   65SAPC  H13Y 5388   1.526   6.429   5.245 -0.5468  0.4251 -1.7699
   65SAPC  C314 5389   1.698   6.303   5.221 -0.0770 -0.1532  0.1790
   65SAPC  H14X 5390   1.748   6.375   5.153 -4.0867  1.1949 -1.6511
   65SAPC  H14Y 5391   1.727   6.202   5.187  2.2180  0.3280  0.5175
   65SAPC  C315 5392   1.727   6.319   5.365 -1.0337 -0.2760  0.1270
   65SAPC  H15X 5393   1.660   6.261   5.432 -1.7725 -0.2519 -0.5929
   65SAPC  H15Y 5394   1.707   6.428   5.371 -1.4366 -0.3882  0.8963
   65SAPC  C316 5395   1.883   6.295   5.392  1.2174 -0.0885  0.5856
   65SAPC  H16X 5396   1.904   6.191   5.358  0.0522  0.9481 -4.0053
   65SAPC  H16Y 5397   1.896   6.312   5.501 -0.2130 -0.0812  0.7777
   65SAPC  C317 5398   1.987   6.383   5.320  0.7712  0.1462 -0.1978
   65SAPC  H17X 5399   1.957   6.489   5.309  0.3716  0.0862  0.2914
   65SAPC  H17Y 5400   2.001   6.329   5.224  0.8324 -2.3097  1.1055
   65SAPC  C318 5401   2.122   6.375   5.392  0.1280  0.2367 -0.3620
   65SAPC  H18X 5402   2.132   6.399   5.501  2.0263  1.1969 -0.6960
   65SAPC  H18Y 5403   2.194   6.447   5.347  2.5140 -0.4078  2.1511
   65SAPC  H18Z 5404   2.163   6.272   5.393  0.3271  0.3166 -0.0491
   66SAPC     N 5405   4.578   0.093   2.886 -0.2211 -0.4968  0.1599
   66SAPC   C12 5406   4.598  -0.019   2.987 -0.2215 -0.4566  0.3230
   66SAPC  H12A 5407   4.703  -0.026   3.008  0.6132  0.0595 -3.0338
   66SAPC  H12B 5408   4.574  -0.109   2.931  0.6567 -0.1649 -0.5466
   66SAPC   C13 5409   4.698   0.104   2.791 -0.2653 -0.3804  0.7388
   66SAPC  H13A 5410   4.786   0.119   2.852  1.5854 -2.6482 -1.1869
   66SAPC  H13B 5411   4.718   0.011   2.739  0.4562 -0.2231  0.7285
   66SAPC  H13C 5412   4.677   0.176   2.714 -0.8369 -2.0273 -0.7094
   66SAPC   C14 5413   4.454   0.064   2.807  0.2315  0.4765  0.0146
   66SAPC  H14A 5414   4.469  -0.017   2.736 -3.8261  1.5138 -2.2937
   66SAPC  H14B 5415   4.371   0.032   2.868  0.5185 -0.0170  0.1579
   66SAPC  H14C 5416   4.427   0.145   2.741  1.1823 -1.4570 -2.9904
   66SAPC   C15 5417   4.563   0.226   2.957  0.2109  0.1726 -0.6135
   66SAPC  H15A 5418   4.635   0.251   3.034 -1.4810 -1.3152  1.5742
   66SAPC  H15B 5419   4.559   0.308   2.887  2.0669  0.8428 -0.0091
   66SAPC  H15C 5420   4.468   0.227   3.008 -2.1686 -2.1538 -4.4898
   66SAPC   C11 5421   4.515  -0.016   3.112  0.2723  0.1981 -0.7114
   66SAPC  H11A 5422   4.531   0.079   3.167  0.2902 -0.0218 -0.3315
   66SAPC  H11B 5423   4.559  -0.096   3.175  1.8194  0.8503 -0.9087
   66SAPC     P 5424   4.323  -0.188   3.082  0.5616 -0.3580 -0.0980
   66SAPC   O13 5425   4.188  -0.186   3.021  0.7652  0.0776 -0.3695
   66SAPC   O14 5426   4.429  -0.268   3.013 -0.1649 -0.1674 -0.1282
   66SAPC   O12 5427   4.375  -0.038   3.079  0.1921  0.3034  0.1281
   66SAPC   O11 5428   4.320  -0.231   3.234  0.0279 -0.4058 -0.8778
   66SAPC    C1 5429   4.312  -0.128   3.333  0.2418 -0.4498 -0.1889
   66SAPC    HA 5430   4.416  -0.094   3.352  0.3041  0.4603 -1.9524
   66SAPC    HB 5431   4.246  -0.041   3.312  0.4611 -0.1265  0.4520
   66SAPC    C2 5432   4.256  -0.176   3.467  0.3147  1.0711 -0.0918
   66SAPC    HS 5433   4.259  -0.088   3.535  1.9703 -0.7893  2.4481
   66SAPC   O21 5434   4.316  -0.293   3.523 -0.2257  0.1149 -0.6092
   66SAPC   C21 5435   4.443  -0.271   3.564 -0.4383  0.7628 -0.6306
   66SAPC   O22 5436   4.499  -0.164   3.563  0.3605 -0.2522 -0.4969
   66SAPC   C22 5437   4.510  -0.392   3.623  0.5595  0.3138 -0.1195
   66SAPC   H2R 5438   4.514  -0.476   3.550 -1.1659  1.5492 -1.7224
   66SAPC   H2S 5439   4.614  -0.366   3.650  1.5176 -0.8680 -2.3382
   66SAPC    C3 5440   4.104  -0.210   3.452 -0.2971  0.3083 -0.2664
   66SAPC    HX 5441   4.068  -0.226   3.556 -2.4126  0.0134 -0.9959
   66SAPC    HY 5442   4.091  -0.309   3.404  1.1887  0.8889 -1.9656
   66SAPC   O31 5443   4.035  -0.102   3.392  0.0903  0.2024  0.4760
   66SAPC   C31 5444   3.919  -0.131   3.333 -0.1471  0.3422 -0.3196
   66SAPC   O32 5445   3.864  -0.239   3.340 -0.3382  0.4088  0.7715
   66SAPC   C32 5446   3.866   0.003   3.271 -0.2492  0.1681  0.5298
   66SAPC   H2X 5447   3.843  -0.026   3.166 -0.6410 -1.5776  1.0674
   66SAPC   H2Y 5448   3.949   0.076   3.259  0.5942 -1.1917 -3.6376
   66SAPC   C23 5449   4.444  -0.433   3.758 -0.0152 -0.5113  0.1051
   66SAPC   H3R 5450   4.505  -0.521   3.787 -0.4312 -1.5320 -1.9457
   66SAPC   H3S 5451   4.342  -0.473   3.743 -0.0478 -0.8778  1.1977
   66SAPC   C24 5452   4.440  -0.319   3.854  0.1136 -0.2752 -0.7253
   66SAPC   H4R 5453   4.386  -0.230   3.817 -2.3195 -0.6501  1.6178
   66SAPC   H4S 5454   4.544  -0.298   3.888  1.6925 -4.7308 -2.0223
   66SAPC   C25 5455   4.359  -0.360   3.973 -0.0599 -0.2278  0.7373
   66SAPC   H5R 5456   4.411  -0.409   4.056  0.6273 -1.5088 -0.4102
   66SAPC   C26 5457   4.221  -0.366   3.978  0.6123  0.4770  0.1479
   66SAPC   H6R 5458   4.172  -0.406   4.068  0.9325  4.2215  2.2009
   66SAPC   C27 5459   4.122  -0.313   3.877  0.2301  0.6850 -0.3248
   66SAPC   H7R 5460   4.150  -0.312   3.769 -0.1789 -1.4883 -0.4886
   66SAPC   H7S 5461   4.111  -0.207   3.909  3.1069  0.5546  1.4920
   66SAPC   C28 5462   3.992  -0.387   3.884  0.1414  0.6024 -0.5669
   66SAPC   H8R 5463   4.000  -0.489   3.924  2.6376  0.8340 -0.3581
   66SAPC   C29 5464   3.872  -0.327   3.871  0.2802 -0.5408  0.8859
   66SAPC   H9R 5465   3.785  -0.393   3.862  0.9745 -1.2423 -1.2178
   66SAPC  C210 5466   3.844  -0.182   3.822 -0.2876 -0.3447 -0.0080
   66SAPC  H10R 5467   3.915  -0.141   3.746 -1.6740  0.0586 -1.1398
   66SAPC  H10S 5468   3.868  -0.125   3.914  1.4951 -0.1853 -0.5114
   66SAPC  C211 5469   3.698  -0.154   3.765 -0.6629  0.1314  0.1071
   66SAPC  H11R 5470   3.696  -0.129   3.658 -0.1064  1.5022  0.3943
   66SAPC  C212 5471   3.583  -0.181   3.830  0.5737 -0.0786  0.0371
   66SAPC  H12R 5472   3.491  -0.141   3.786 -0.1028 -0.1621  1.3167
   66SAPC  C213 5473   3.581  -0.223   3.980 -0.0093 -0.4375 -0.0381
   66SAPC  H13R 5474   3.529  -0.137   4.029 -0.4473 -0.2201 -0.8669
   66SAPC  H13S 5475   3.682  -0.223   4.027  0.5738  1.1506 -1.1747
   66SAPC  C214 5476   3.516  -0.354   4.013 -0.0890  0.7702  0.1770
   66SAPC  H14R 5477   3.461  -0.411   3.935  0.2911  0.0276  0.4459
   66SAPC  C215 5478   3.517  -0.416   4.129  0.3478  0.1801 -0.3953
   66SAPC  H15R 5479   3.479  -0.519   4.138  0.7400  0.1830  1.8590
   66SAPC  C216 5480   3.582  -0.369   4.254  0.2628  0.9084  0.8421
   66SAPC  H16R 5481   3.516  -0.388   4.340  1.0049 -0.7810  1.0879
   66SAPC  H16S 5482   3.599  -0.260   4.246 -0.5102  1.0215  0.6977
   66SAPC  C217 5483   3.710  -0.440   4.282 -0.1042 -0.9031 -0.8374
   66SAPC  H17R 5484   3.787  -0.416   4.207  0.7993  1.8913  0.8203
   66SAPC  H17S 5485   3.689  -0.546   4.309  3.8804 -1.1601  2.1618
   66SAPC  C218 5486   3.773  -0.364   4.405  0.6553 -0.3108  0.0689
   66SAPC  H18R 5487   3.691  -0.333   4.473  0.4934  0.3631 -0.4161
   66SAPC  H18S 5488   3.804  -0.262   4.376 -2.6951  1.1269  1.0623
   66SAPC  C219 5489   3.888  -0.445   4.466  0.0349 -0.5654  0.3733
   66SAPC  H19R 5490   3.859  -0.541   4.514 -1.1301  0.0321  0.8955
   66SAPC  H19S 5491   3.942  -0.392   4.548 -0.0955  0.9024 -0.4662
   66SAPC  C220 5492   3.995  -0.475   4.363  0.3326 -0.2438 -0.2123
   66SAPC  H20R 5493   3.971  -0.542   4.277 -0.3279  0.7816 -0.8471
   66SAPC  H20S 5494   4.085  -0.512   4.418  0.0969  2.9541  2.6719
   66SAPC  H20T 5495   4.029  -0.375   4.329 -0.4756 -0.4348 -1.6522
   66SAPC   C33 5496   3.733   0.049   3.336  0.7497  0.4352  0.0583
   66SAPC   H3X 5497   3.659  -0.033   3.327  0.6784  0.5512 -0.4500
   66SAPC   H3Y 5498   3.695   0.138   3.281  0.1290  0.0342 -0.1719
   66SAPC   C34 5499   3.743   0.100   3.477 -0.1163 -0.3633 -0.0464
   66SAPC   H4X 5500   3.798   0.197   3.474  0.6834 -0.8067 -0.0114
   66SAPC   H4Y 5501   3.801   0.030   3.540  0.1780  2.1984  2.7782
   66SAPC   C35 5502   3.601   0.124   3.539 -0.1521 -0.6639 -0.3788
   66SAPC   H5X 5503   3.557   0.025   3.565  2.2499 -1.4274  1.1477
   66SAPC   H5Y 5504   3.536   0.181   3.470  0.2044  1.0074  0.6120
   66SAPC   C36 5505   3.606   0.191   3.677  0.0136  0.7518 -0.3761
   66SAPC   H6X 5506   3.668   0.283   3.674 -0.8641  1.3712  0.0800
   66SAPC   H6Y 5507   3.676   0.126   3.734 -2.1005 -0.7122  0.7138
   66SAPC   C37 5508   3.464   0.207   3.735  0.4201  0.1519 -0.1206
   66SAPC   H7X 5509   3.413   0.112   3.759  0.3748  0.4756  1.1207
   66SAPC   H7Y 5510   3.403   0.268   3.664  0.2531  0.6630  0.4552
   66SAPC   C38 5511   3.451   0.281   3.870  0.1236  0.2301 -0.1168
   66SAPC   H8X 5512   3.484   0.387   3.862 -0.7175  0.5090 -0.1070
   66SAPC   H8Y 5513   3.505   0.223   3.947 -1.0382 -0.5356  0.1565
   66SAPC   C39 5514   3.302   0.281   3.912 -1.1898 -0.5414  0.8895
   66SAPC   H9X 5515   3.263   0.177   3.920 -0.4689 -1.0950 -1.8038
   66SAPC   H9Y 5516   3.234   0.327   3.837 -1.8413 -2.0162  0.5277
   66SAPC  C310 5517   3.260   0.344   4.042  0.0338  0.3074  0.1459
   66SAPC  H10X 5518   3.151   0.322   4.052 -0.3718  1.0023 -2.0861
   66SAPC  H10Y 5519   3.268   0.454   4.026  0.5521  0.1352 -0.8223
   66SAPC  C311 5520   3.333   0.306   4.170 -0.1372 -0.7568 -0.6253
   66SAPC  H11X 5521   3.433   0.352   4.153 -1.4153  2.3540 -0.3769
   66SAPC  H11Y 5522   3.343   0.198   4.190  0.4607 -0.6174 -0.1076
   66SAPC  C312 5523   3.253   0.357   4.291 -0.2070 -1.1264  0.2156
   66SAPC  H12X 5524   3.166   0.299   4.327 -0.3996  0.1457  1.9172
   66SAPC  H12Y 5525   3.216   0.458   4.264 -0.2414 -1.5235 -1.3071
   66SAPC  C313 5526   3.340   0.382   4.418 -0.5092  0.3766 -0.1864
   66SAPC  H13X 5527   3.435   0.430   4.385  0.0729 -0.7247 -0.1768
   66SAPC  H13Y 5528   3.367   0.285   4.466  0.4623  0.7219 -0.0110
   66SAPC  C314 5529   3.274   0.470   4.529 -0.5054  0.8014 -0.0069
   66SAPC  H14X 5530   3.169   0.437   4.544 -0.2479 -0.1711 -0.3012
   66SAPC  H14Y 5531   3.272   0.573   4.487 -0.0120  0.0011 -2.1061
   66SAPC  C315 5532   3.363   0.467   4.658  0.2533  0.2451  0.0478
   66SAPC  H15X 5533   3.469   0.494   4.639  0.5995  0.2460  1.8374
   66SAPC  H15Y 5534   3.367   0.362   4.696  1.6902  0.3649  0.3033
   66SAPC  C316 5535   3.313   0.569   4.759  0.3841 -0.2649 -0.1956
   66SAPC  H16X 5536   3.202   0.575   4.759  0.4006  0.3475  1.2732
   66SAPC  H16Y 5537   3.347   0.669   4.724 -0.3246 -0.6949 -2.2617
   66SAPC  C317 5538   3.366   0.546   4.901 -0.4559  0.1177  1.1724
   66SAPC  H17X 5539   3.349   0.439   4.925 -1.1265  0.2844  1.4569
   66SAPC  H17Y 5540   3.309   0.607   4.974  0.4660 -0.1926  2.1737
   66SAPC  C318 5541   3.510   0.571   4.925  0.2185 -0.3651  0.2245
   66SAPC  H18X 5542   3.516   0.581   5.036  1.6666  1.3209  0.0381
   66SAPC  H18Y 5543   3.546   0.667   4.884  0.8744 -0.3423  0.8292
   66SAPC  H18Z 5544   3.567   0.485   4.884 -2.7303 -1.0769 -2.8850
   67SAPC     N 5545   2.697   5.027   2.289 -0.3698 -0.1981 -0.0863
   67SAPC   C12 5546   2.620   4.998   2.417  0.4042 -0.2116  0.8460
   67SAPC  H12A 5547   2.546   4.924   2.391  0.8608 -1.0063  1.7520
   67SAPC  H12B 5548   2.561   5.086   2.440 -1.3187 -1.6177  2.0768
   67SAPC   C13 5549   2.781   4.901   2.254  0.3809 -0.4091 -0.9015
   67SAPC  H13A 5550   2.718   4.822   2.216 -3.4745  1.0165  1.8075
   67SAPC  H13B 5551   2.863   4.918   2.187  0.4745  0.0540 -0.6704
   67SAPC  H13C 5552   2.824   4.849   2.339 -3.9485  0.2434  2.0816
   67SAPC   C14 5553   2.610   5.057   2.166  0.3173  0.1798  0.4492
   67SAPC  H14A 5554   2.561   4.963   2.145 -0.2689  0.5060  0.3481
   67SAPC  H14B 5555   2.544   5.131   2.207  2.5585  2.7479 -0.2973
   67SAPC  H14C 5556   2.663   5.091   2.078  0.9684 -2.5621 -0.3391
   67SAPC   C15 5557   2.792   5.138   2.316 -0.1738  0.3504 -0.0305
   67SAPC  H15A 5558   2.738   5.231   2.327  0.4114  0.6495  0.3801
   67SAPC  H15B 5559   2.845   5.113   2.407  1.3921 -1.5334 -1.3837
   67SAPC  H15C 5560   2.871   5.157   2.245 -0.9847  2.4932 -0.4616
   67SAPC   C11 5561   2.691   4.942   2.541 -0.4387  0.1116 -0.0702
   67SAPC  H11A 5562   2.731   4.840   2.525 -1.6509 -0.3458 -0.3329
   67SAPC  H11B 5563   2.614   4.921   2.618  1.5487 -0.1833  1.9431
   67SAPC     P 5564   2.762   5.126   2.718 -0.2911 -0.0211 -0.5493
   67SAPC   O13 5565   2.875   5.219   2.741 -0.2767  0.1977  0.2967
   67SAPC   O14 5566   2.634   5.191   2.703 -0.1661  0.5717 -0.4418
   67SAPC   O12 5567   2.791   5.036   2.588  0.4512  0.3057 -0.0113
   67SAPC   O11 5568   2.759   5.008   2.834  0.4873  0.5690  0.1015
   67SAPC    C1 5569   2.874   4.913   2.829  0.6973  0.5332 -0.0716
   67SAPC    HA 5570   2.892   4.870   2.728 -0.8873  0.0766 -0.1888
   67SAPC    HB 5571   2.968   4.952   2.874  0.0409  0.8760  1.0445
   67SAPC    C2 5572   2.837   4.778   2.897 -0.8355  0.2412 -0.2002
   67SAPC    HS 5573   2.730   4.758   2.876 -0.8068  0.4762 -0.5984
   67SAPC   O21 5574   2.874   4.783   3.037 -0.0849  0.4454  0.0719
   67SAPC   C21 5575   2.784   4.713   3.112  0.2892  0.0024  1.2899
   67SAPC   O22 5576   2.687   4.654   3.071  0.1489 -0.3345 -0.0562
   67SAPC   C22 5577   2.835   4.693   3.252  0.1843 -0.5294  0.1613
   67SAPC   H2R 5578   2.907   4.608   3.255 -0.5984 -1.2013  0.3492
   67SAPC   H2S 5579   2.882   4.787   3.286 -1.0381  0.2796 -0.3174
   67SAPC    C3 5580   2.907   4.655   2.827 -0.5584 -0.2267  0.0400
   67SAPC    HX 5581   3.012   4.689   2.835 -0.5788 -0.5604  2.3784
   67SAPC    HY 5582   2.866   4.655   2.724 -1.1433 -0.6084  0.2697
   67SAPC   O31 5583   2.871   4.532   2.887  0.4716  0.4964  0.4420
   67SAPC   C31 5584   2.974   4.456   2.929  0.5139 -0.1609  0.0484
   67SAPC   O32 5585   3.090   4.491   2.933  0.0870  0.2768  0.3916
   67SAPC   C32 5586   2.920   4.314   2.966  0.1682 -0.3487  0.5688
   67SAPC   H2X 5587   2.867   4.284   2.873  1.5180  1.7453 -0.9646
   67SAPC   H2Y 5588   2.841   4.321   3.043  1.4924  0.1071  1.9372
   67SAPC   C23 5589   2.731   4.638   3.355 -0.0306 -0.2451  0.4483
   67SAPC   H3R 5590   2.639   4.699   3.339  0.8024  1.6501  2.3486
   67SAPC   H3S 5591   2.755   4.666   3.460 -0.8040 -0.5119  0.7040
   67SAPC   C24 5592   2.695   4.493   3.331 -0.4344  0.0186 -0.7921
   67SAPC   H4R 5593   2.699   4.468   3.223  2.5547  1.4750 -1.1290
   67SAPC   H4S 5594   2.592   4.467   3.366 -0.1341 -2.2982 -1.4267
   67SAPC   C25 5595   2.796   4.390   3.390  0.7220  0.2327 -0.2007
   67SAPC   H5R 5596   2.877   4.359   3.322  0.4070  1.5484 -1.2190
   67SAPC   C26 5597   2.796   4.356   3.519  0.0926  0.3706  0.5387
   67SAPC   H6R 5598   2.871   4.286   3.558 -0.8850 -0.0838  1.6592
   67SAPC   C27 5599   2.694   4.391   3.620 -0.3898 -0.4863 -0.2401
   67SAPC   H7R 5600   2.604   4.425   3.566  0.9509 -2.0302 -3.7505
   67SAPC   H7S 5601   2.729   4.479   3.678 -0.4165  0.8005 -2.1080
   67SAPC   C28 5602   2.652   4.267   3.700 -0.9275  0.1908 -0.1661
   67SAPC   H8R 5603   2.639   4.179   3.635  0.8560 -0.8226  0.7797
   67SAPC   C29 5604   2.608   4.274   3.826  0.3776  0.4166 -1.2164
   67SAPC   H9R 5605   2.560   4.186   3.870 -0.2783  1.8126  1.0109
   67SAPC  C210 5606   2.593   4.401   3.904 -0.0843 -0.6315  0.0991
   67SAPC  H10R 5607   2.506   4.374   3.968 -1.5815 -0.7201 -1.8751
   67SAPC  H10S 5608   2.566   4.492   3.845 -0.1009 -1.9164 -1.9677
   67SAPC  C211 5609   2.719   4.428   3.987  0.5098 -0.4265  0.8466
   67SAPC  H11R 5610   2.806   4.418   3.921 -1.4256  1.4158 -2.2610
   67SAPC  C212 5611   2.725   4.455   4.114  0.2519 -0.2354 -0.5556
   67SAPC  H12R 5612   2.823   4.447   4.162 -0.5015 -2.3219  0.7824
   67SAPC  C213 5613   2.609   4.484   4.214 -0.0074  0.3738  0.6326
   67SAPC  H13R 5614   2.518   4.523   4.163 -0.8034 -0.2640  1.5283
   67SAPC  H13S 5615   2.641   4.562   4.286 -0.3312  0.5357  0.6055
   67SAPC  C214 5616   2.594   4.348   4.283 -0.2919  0.1511 -0.2531
   67SAPC  H14R 5617   2.517   4.283   4.240  0.8826 -1.5623  0.1559
   67SAPC  C215 5618   2.628   4.311   4.408  0.2425  0.2212  0.1128
   67SAPC  H15R 5619   2.612   4.206   4.436  2.7714 -0.4485 -0.6923
   67SAPC  C216 5620   2.718   4.388   4.495  0.3279  0.1315  0.7692
   67SAPC  H16R 5621   2.750   4.482   4.446  1.2606 -0.4716  0.1898
   67SAPC  H16S 5622   2.816   4.338   4.513  0.0519  0.5325  3.9990
   67SAPC  C217 5623   2.657   4.420   4.633  0.4919 -0.1453  0.3132
   67SAPC  H17R 5624   2.567   4.480   4.609 -0.5434 -1.7086  0.1253
   67SAPC  H17S 5625   2.733   4.474   4.693  0.1067  1.5897 -0.7014
   67SAPC  C218 5626   2.599   4.313   4.714 -0.2884  0.2630 -0.0863
   67SAPC  H18R 5627   2.680   4.237   4.716 -1.3001 -0.9235 -1.7240
   67SAPC  H18S 5628   2.513   4.266   4.662 -0.4257  1.8721 -1.3874
   67SAPC  C219 5629   2.553   4.344   4.858  0.4186  1.2262 -0.8182
   67SAPC  H19R 5630   2.465   4.411   4.868  0.0454  0.8327 -1.4478
   67SAPC  H19S 5631   2.640   4.378   4.920  0.5128  0.3114 -0.4388
   67SAPC  C220 5632   2.509   4.205   4.921  0.4695 -0.8880 -0.0213
   67SAPC  H20R 5633   2.594   4.135   4.936  1.4873  0.4135  0.4039
   67SAPC  H20S 5634   2.434   4.156   4.855  1.1779 -0.8827 -0.8474
   67SAPC  H20T 5635   2.470   4.236   5.020 -0.9156  1.0460 -1.1126
   67SAPC   C33 5636   3.037   4.215   2.997 -0.2251  0.1955 -0.4968
   67SAPC   H3X 5637   3.112   4.214   2.915  0.9975 -1.8960  0.5850
   67SAPC   H3Y 5638   3.005   4.109   3.003  1.4071 -0.2380  1.7459
   67SAPC   C34 5639   3.109   4.247   3.137  0.5433  0.2149 -0.2719
   67SAPC   H4X 5640   3.026   4.224   3.208 -2.9383 -1.7750 -4.5119
   67SAPC   H4Y 5641   3.125   4.355   3.152 -1.9555  0.4523  1.1358
   67SAPC   C35 5642   3.239   4.170   3.170  0.9407 -0.4647  0.2972
   67SAPC   H5X 5643   3.319   4.191   3.096 -1.2265  3.8942 -1.1627
   67SAPC   H5Y 5644   3.214   4.062   3.161 -1.4581  0.0635 -0.0587
   67SAPC   C36 5645   3.300   4.201   3.305 -0.0439 -0.3866  0.1937
   67SAPC   H6X 5646   3.319   4.310   3.308 -0.2998 -0.2276 -2.2288
   67SAPC   H6Y 5647   3.395   4.147   3.322 -0.3074 -0.9768 -0.1535
   67SAPC   C37 5648   3.218   4.159   3.425 -0.0422 -0.9865  0.7114
   67SAPC   H7X 5649   3.213   4.048   3.427  0.1132 -0.9985  0.5147
   67SAPC   H7Y 5650   3.115   4.200   3.415 -0.7745 -2.7003  0.8741
   67SAPC   C38 5651   3.276   4.209   3.556  0.0738 -0.1164  0.2153
   67SAPC   H8X 5652   3.296   4.318   3.551 -0.8671  0.0238 -0.9081
   67SAPC   H8Y 5653   3.378   4.169   3.575  0.0236 -1.3553 -1.7656
   67SAPC   C39 5654   3.179   4.174   3.666 -0.0545 -0.1363  0.0282
   67SAPC   H9X 5655   3.163   4.065   3.656  0.5111  0.0226 -3.8451
   67SAPC   H9Y 5656   3.080   4.223   3.650 -0.4721 -0.9849 -0.0198
   67SAPC  C310 5657   3.237   4.208   3.808  0.4103  0.0928  0.1634
   67SAPC  H10X 5658   3.294   4.303   3.794 -0.1557  0.0407 -3.2796
   67SAPC  H10Y 5659   3.308   4.132   3.848  0.1130  0.6253  1.7918
   67SAPC  C311 5660   3.126   4.223   3.910 -0.2256 -0.5891  0.1544
   67SAPC  H11X 5661   3.069   4.128   3.920 -1.0883 -0.0580  0.3927
   67SAPC  H11Y 5662   3.050   4.296   3.874  0.6003  2.0260  3.2685
   67SAPC  C312 5663   3.182   4.264   4.050  0.8117 -0.0801 -0.2526
   67SAPC  H12X 5664   3.230   4.364   4.058  0.0308  0.3013 -0.3572
   67SAPC  H12Y 5665   3.261   4.187   4.068 -0.1041 -0.4556  2.8360
   67SAPC  C313 5666   3.067   4.233   4.160 -0.1873 -0.0005  0.1039
   67SAPC  H13X 5667   3.033   4.128   4.161 -0.3249 -0.0247  3.5774
   67SAPC  H13Y 5668   2.979   4.299   4.143  0.1196  0.4570  0.2615
   67SAPC  C314 5669   3.112   4.251   4.306 -0.0629  0.2803  0.3636
   67SAPC  H14X 5670   3.027   4.281   4.370 -0.4002 -1.3129  0.7067
   67SAPC  H14Y 5671   3.176   4.342   4.298  0.8397 -0.1917  1.8221
   67SAPC  C315 5672   3.195   4.134   4.363  0.4821 -1.3899 -0.6661
   67SAPC  H15X 5673   3.288   4.106   4.310  2.4812  0.0455  1.8491
   67SAPC  H15Y 5674   3.117   4.055   4.362 -2.1703  1.0622 -1.2510
   67SAPC  C316 5675   3.240   4.160   4.507  0.6906 -0.0152  0.8741
   67SAPC  H16X 5676   3.292   4.075   4.555 -1.3440  0.0005  3.3391
   67SAPC  H16Y 5677   3.148   4.180   4.566 -1.9767 -0.8762 -2.6254
   67SAPC  C317 5678   3.318   4.287   4.518 -0.6944 -1.0496 -0.4191
   67SAPC  H17X 5679   3.253   4.376   4.528 -0.7884 -1.0794 -0.7766
   67SAPC  H17Y 5680   3.393   4.303   4.437 -1.9017 -2.5892 -1.9215
   67SAPC  C318 5681   3.387   4.289   4.654  0.4537 -0.1864  0.1094
   67SAPC  H18X 5682   3.462   4.370   4.668  0.3463 -0.1215  0.3178
   67SAPC  H18Y 5683   3.444   4.196   4.673  0.8481  0.2955  1.4074
   67SAPC  H18Z 5684   3.310   4.289   4.734 -0.4121  0.1803 -0.7082
   68SAPC     N 5685   4.151   4.796   2.400  0.9751  0.2178  0.1482
   68SAPC   C12 5686   4.170   4.666   2.483 -0.4098 -0.1224  0.3153
   68SAPC  H12A 5687   4.270   4.660   2.523 -0.0830  1.3070 -0.2236
   68SAPC  H12B 5688   4.156   4.585   2.412 -1.6929  0.5279 -0.2169
   68SAPC   C13 5689   4.165   4.911   2.492 -0.4917  0.0928  0.2963
   68SAPC  H13A 5690   4.267   4.918   2.526 -0.2709 -0.7766 -0.1564
   68SAPC  H13B 5691   4.138   5.003   2.442 -0.1054 -0.4826 -1.0164
   68SAPC  H13C 5692   4.103   4.915   2.581 -0.7722  0.2762  0.0950
   68SAPC   C14 5693   4.257   4.802   2.288 -0.3468 -0.0267 -0.5609
   68SAPC  H14A 5694   4.359   4.788   2.321 -0.3773  1.1182  0.0933
   68SAPC  H14B 5695   4.238   4.722   2.218 -1.1789  0.3355 -0.7625
   68SAPC  H14C 5696   4.248   4.892   2.230 -1.1972 -1.0991 -2.1750
   68SAPC   C15 5697   4.017   4.810   2.333  0.9737  0.3875 -0.2872
   68SAPC  H15A 5698   4.013   4.902   2.276 -1.4818  1.0227  0.7976
   68SAPC  H15B 5699   4.006   4.740   2.252 -0.1727 -1.3396  1.2989
   68SAPC  H15C 5700   3.936   4.821   2.403  1.4729 -0.9786  0.5211
   68SAPC   C11 5701   4.093   4.640   2.618 -0.6173 -0.1627  0.3067
   68SAPC  H11A 5702   4.117   4.729   2.681 -2.9126  0.7360  0.0134
   68SAPC  H11B 5703   4.132   4.550   2.669 -1.1343 -0.5159  0.0905
   68SAPC     P 5704   3.851   4.615   2.706  0.1378 -0.1807  0.0115
   68SAPC   O13 5705   3.804   4.742   2.752 -0.5784 -0.8649 -0.2907
   68SAPC   O14 5706   3.749   4.517   2.666  0.0529 -0.7005  0.9375
   68SAPC   O12 5707   3.949   4.637   2.589 -0.6469  0.1455 -0.4044
   68SAPC   O11 5708   3.930   4.550   2.822  0.2625 -0.5251 -0.3754
   68SAPC    C1 5709   3.997   4.627   2.925 -0.3938 -0.3083  0.3871
   68SAPC    HA 5710   4.104   4.630   2.897 -0.2043  1.9371  1.1434
   68SAPC    HB 5711   3.955   4.730   2.924  3.6536  1.5108  0.0288
   68SAPC    C2 5712   3.989   4.572   3.070 -0.3712  0.8726 -0.0026
   68SAPC    HS 5713   4.049   4.637   3.138  0.0821 -1.3225  1.8253
   68SAPC   O21 5714   4.032   4.428   3.085 -0.2382 -0.3721  0.0675
   68SAPC   C21 5715   4.162   4.412   3.072  0.2042  0.8767  0.3168
   68SAPC   O22 5716   4.247   4.499   3.054  0.0169 -0.1177 -0.0921
   68SAPC   C22 5717   4.199   4.267   3.083 -0.0530  0.0616 -0.8160
   68SAPC   H2R 5718   4.142   4.210   3.006 -1.4841  0.4895 -0.1010
   68SAPC   H2S 5719   4.310   4.263   3.072  0.2224  0.6426  1.3312
   68SAPC    C3 5720   3.842   4.573   3.118  0.2614  0.4596 -0.5076
   68SAPC    HX 5721   3.792   4.484   3.075  1.2701  1.0631 -3.1320
   68SAPC    HY 5722   3.787   4.663   3.080  1.0760  0.8082 -0.8924
   68SAPC   O31 5723   3.830   4.573   3.260  0.1316 -0.3915 -0.0024
   68SAPC   C31 5724   3.804   4.453   3.320  0.5007  0.1257  0.4850
   68SAPC   O32 5725   3.792   4.347   3.264 -0.5902  0.3193  0.6320
   68SAPC   C32 5726   3.777   4.482   3.465  0.2242 -0.8430 -1.0606
   68SAPC   H2X 5727   3.785   4.586   3.502  0.7913 -1.4956  0.7800
   68SAPC   H2Y 5728   3.865   4.442   3.520 -0.1884 -1.3738 -0.7730
   68SAPC   C23 5729   4.176   4.203   3.219 -0.0920 -0.3714  0.6816
   68SAPC   H3R 5730   4.212   4.098   3.218  0.7204 -0.1331 -1.9747
   68SAPC   H3S 5731   4.067   4.194   3.240 -0.1495 -0.8382  0.1740
   68SAPC   C24 5732   4.243   4.266   3.349  0.2386  0.5619 -0.0601
   68SAPC   H4R 5733   4.218   4.198   3.434  2.0546  0.1163  0.1439
   68SAPC   H4S 5734   4.194   4.365   3.364 -1.1896 -0.0916 -0.2757
   68SAPC   C25 5735   4.389   4.256   3.333 -0.5680  0.2651 -0.3960
   68SAPC   H5R 5736   4.423   4.323   3.253 -1.4802  1.1081 -0.0979
   68SAPC   C26 5737   4.479   4.196   3.410 -0.2320  0.1741  0.1716
   68SAPC   H6R 5738   4.587   4.200   3.388 -0.0533 -1.8591  0.4684
   68SAPC   C27 5739   4.433   4.116   3.531 -0.1551  0.3324  0.2981
   68SAPC   H7R 5740   4.363   4.042   3.487 -0.1910  1.3183 -1.4039
   68SAPC   H7S 5741   4.363   4.179   3.589  0.4834  0.4561  0.9500
   68SAPC   C28 5742   4.550   4.061   3.608  0.1113  0.2313  0.6918
   68SAPC   H8R 5743   4.632   4.029   3.542 -0.3046  1.8951 -0.7247
   68SAPC   C29 5744   4.569   4.066   3.738  0.2346  0.1387  0.0732
   68SAPC   H9R 5745   4.665   4.031   3.776 -0.0015  0.0977  0.6387
   68SAPC  C210 5746   4.472   4.124   3.835 -0.0415  0.3322  0.0662
   68SAPC  H10R 5747   4.425   4.040   3.889 -0.1452  0.7907  0.7043
   68SAPC  H10S 5748   4.382   4.173   3.793 -1.4035  0.1001  2.5593
   68SAPC  C211 5749   4.555   4.225   3.918 -0.9455  0.6310 -0.5664
   68SAPC  H11R 5750   4.617   4.294   3.860  1.5982 -0.8379  0.2464
   68SAPC  C212 5751   4.548   4.241   4.052 -0.7070  0.1292  0.6081
   68SAPC  H12R 5752   4.622   4.313   4.091  0.6500 -0.1155 -1.3381
   68SAPC  C213 5753   4.476   4.173   4.163 -0.5674  0.8695  0.3224
   68SAPC  H13R 5754   4.381   4.129   4.127 -0.8987  0.9201  1.1048
   68SAPC  H13S 5755   4.459   4.244   4.247  0.8666 -0.3427  1.7080
   68SAPC  C214 5756   4.564   4.074   4.226  0.1257 -0.0442  0.1933
   68SAPC  H14R 5757   4.666   4.061   4.186  0.1038  0.5231 -0.0540
   68SAPC  C215 5758   4.529   4.010   4.339  0.4452 -0.9719  0.7830
   68SAPC  H15R 5759   4.599   3.939   4.384  2.0593  0.2526  0.2953
   68SAPC  C216 5760   4.396   4.039   4.411 -0.2337 -0.2139  0.6168
   68SAPC  H16R 5761   4.324   3.955   4.416  0.8834 -1.2325 -0.0548
   68SAPC  H16S 5762   4.331   4.117   4.365 -2.6792 -1.6944  1.4029
   68SAPC  C217 5763   4.428   4.085   4.558 -0.3471 -0.3421  0.4500
   68SAPC  H17R 5764   4.505   4.165   4.563  1.6504 -2.1538  0.0822
   68SAPC  H17S 5765   4.473   4.004   4.618 -1.6110 -0.3014  1.5067
   68SAPC  C218 5766   4.293   4.124   4.627  0.6239 -0.2165 -0.9060
   68SAPC  H18R 5767   4.239   4.029   4.646  0.5759 -0.0089  0.0491
   68SAPC  H18S 5768   4.233   4.177   4.549 -2.2792 -1.8447  0.0683
   68SAPC  C219 5769   4.309   4.208   4.755 -0.5601 -0.2663 -0.1350
   68SAPC  H19R 5770   4.363   4.305   4.746  0.8603 -0.6701  2.9239
   68SAPC  H19S 5771   4.377   4.159   4.828 -0.4029  2.1322  1.4435
   68SAPC  C220 5772   4.176   4.247   4.815  0.2742  0.5846  0.1176
   68SAPC  H20R 5773   4.189   4.301   4.911  0.4367  0.2210  0.3018
   68SAPC  H20S 5774   4.122   4.153   4.842  0.6824  0.1471 -0.5477
   68SAPC  H20T 5775   4.110   4.310   4.751  0.2586 -0.0662 -0.5193
   68SAPC   C33 5776   3.646   4.415   3.524  0.5816 -0.0783  0.0908
   68SAPC   H3X 5777   3.632   4.323   3.463 -1.5008 -0.1685  0.6322
   68SAPC   H3Y 5778   3.567   4.488   3.495  2.2144  2.2136  1.1246
   68SAPC   C34 5779   3.641   4.380   3.673 -0.3250  0.8012  0.0518
   68SAPC   H4X 5780   3.741   4.337   3.697 -0.4415 -1.2029 -2.5839
   68SAPC   H4Y 5781   3.581   4.287   3.676  0.9417 -0.1892 -2.5491
   68SAPC   C35 5782   3.599   4.493   3.767 -0.2094 -0.2025 -0.2187
   68SAPC   H5X 5783   3.509   4.549   3.733  1.1063  3.8593  2.3435
   68SAPC   H5Y 5784   3.681   4.565   3.785 -0.2846 -0.1962  0.1063
   68SAPC   C36 5785   3.562   4.442   3.906  0.1366  0.5249 -0.4946
   68SAPC   H6X 5786   3.657   4.399   3.944 -0.0070  0.3999 -0.2730
   68SAPC   H6Y 5787   3.484   4.363   3.909 -0.6779  1.3205 -0.2289
   68SAPC   C37 5788   3.519   4.562   3.981  0.6003  0.7623 -0.2398
   68SAPC   H7X 5789   3.419   4.590   3.941  0.5079  0.0298 -0.5289
   68SAPC   H7Y 5790   3.593   4.644   3.974  1.6590  0.1849  2.6452
   68SAPC   C38 5791   3.499   4.539   4.132  0.5109  0.1328  0.4161
   68SAPC   H8X 5792   3.600   4.511   4.169  0.4487  0.0823  0.5494
   68SAPC   H8Y 5793   3.438   4.447   4.147  1.8737 -0.6413  1.3817
   68SAPC   C39 5794   3.446   4.656   4.215  0.1517  0.2305  0.2178
   68SAPC   H9X 5795   3.339   4.671   4.190  0.6488  0.9696 -1.6889
   68SAPC   H9Y 5796   3.498   4.752   4.192  0.5060  0.7476  2.8655
   68SAPC  C310 5797   3.465   4.633   4.366 -0.3282 -0.2808 -0.4414
   68SAPC  H10X 5798   3.559   4.583   4.397 -0.0070 -0.5732 -1.8288
   68SAPC  H10Y 5799   3.383   4.573   4.410 -0.7677 -0.8869 -2.0113
   68SAPC  C311 5800   3.448   4.774   4.431  0.3400 -0.4072  0.3420
   68SAPC  H11X 5801   3.342   4.808   4.418 -0.6282 -1.6560  3.9939
   68SAPC  H11Y 5802   3.523   4.844   4.387 -0.9070  1.6105  1.2544
   68SAPC  C312 5803   3.470   4.770   4.583 -0.5710  0.1196  0.1450
   68SAPC  H12X 5804   3.540   4.688   4.608  3.6538  2.6720 -2.1180
   68SAPC  H12Y 5805   3.374   4.753   4.636 -0.2042  1.6083  1.3551
   68SAPC  C313 5806   3.528   4.904   4.642 -0.4816  0.2905  0.1003
   68SAPC  H13X 5807   3.458   4.990   4.627  0.3689  0.5783 -2.6877
   68SAPC  H13Y 5808   3.622   4.935   4.593 -0.6148  0.0509 -0.3075
   68SAPC  C314 5809   3.568   4.870   4.784 -0.1236 -0.6192  0.4181
   68SAPC  H14X 5810   3.667   4.819   4.783  0.6445  0.8006  0.5225
   68SAPC  H14Y 5811   3.494   4.803   4.833 -1.1663 -0.1133 -0.4365
   68SAPC  C315 5812   3.579   4.995   4.881 -0.0981 -0.1485 -0.5630
   68SAPC  H15X 5813   3.474   5.013   4.911 -0.5361 -0.2612 -1.9672
   68SAPC  H15Y 5814   3.623   5.086   4.834 -1.3077  1.0232  0.4919
   68SAPC  C316 5815   3.655   4.974   5.010 -1.4552 -0.0845  0.5907
   68SAPC  H16X 5816   3.765   4.965   4.991 -1.8179 -1.1203 -1.3433
   68SAPC  H16Y 5817   3.620   4.884   5.064 -0.8117 -0.4723  0.3829
   68SAPC  C317 5818   3.636   5.095   5.111 -0.2386 -0.1801  0.0676
   68SAPC  H17X 5819   3.533   5.100   5.151  0.6447  1.5241  2.3609
   68SAPC  H17Y 5820   3.658   5.188   5.055  0.8913  0.7154  1.8910
   68SAPC  C318 5821   3.721   5.101   5.236  0.0888  0.6036  0.3559
   68SAPC  H18X 5822   3.716   5.010   5.299 -0.1183  1.3944  1.5245
   68SAPC  H18Y 5823   3.687   5.184   5.302  1.2249 -0.5000  2.4308
   68SAPC  H18Z 5824   3.828   5.116   5.211 -0.0903 -0.5710 -1.2126
   69SAPC     N 5825   2.769   2.316   2.870  0.2629 -0.7968  0.3347
   69SAPC   C12 5826   2.873   2.436   2.851  0.2635 -0.1169  0.6681
   69SAPC  H12A 5827   2.834   2.492   2.767  1.1022 -1.3729 -0.6005
   69SAPC  H12B 5828   2.968   2.398   2.816  0.9046  0.8216  1.3285
   69SAPC   C13 5829   2.725   2.274   2.733 -0.4089  0.0043 -0.4760
   69SAPC  H13A 5830   2.811   2.234   2.682 -0.5267  0.5637 -1.1250
   69SAPC  H13B 5831   2.656   2.191   2.738 -0.2981 -0.0062  1.1800
   69SAPC  H13C 5832   2.672   2.354   2.684 -0.2467  1.2834  1.3483
   69SAPC   C14 5833   2.846   2.212   2.944 -0.4128 -0.3012 -0.1095
   69SAPC  H14A 5834   2.869   2.249   3.043  2.0285 -0.6392 -0.4825
   69SAPC  H14B 5835   2.787   2.122   2.945 -2.3181  0.8816 -1.0119
   69SAPC  H14C 5836   2.933   2.170   2.895  1.2384  0.0030  2.3657
   69SAPC   C15 5837   2.653   2.364   2.952 -0.1625  0.0633  0.3336
   69SAPC  H15A 5838   2.585   2.284   2.975 -0.5226  0.4786  0.7448
   69SAPC  H15B 5839   2.683   2.404   3.048  1.2369 -0.2435  0.0402
   69SAPC  H15C 5840   2.604   2.448   2.905 -1.6259 -0.8189  0.2387
   69SAPC   C11 5841   2.898   2.536   2.968 -0.2208 -0.1341  0.5074
   69SAPC  H11A 5842   2.995   2.587   2.950  0.6208 -2.2962 -1.5431
   69SAPC  H11B 5843   2.910   2.469   3.056 -0.2404 -0.6565  0.1133
   69SAPC     P 5844   2.790   2.762   2.927 -0.2187  0.2083  0.1825
   69SAPC   O13 5845   2.772   2.752   2.778  0.5640  0.2909  0.2639
   69SAPC   O14 5846   2.697   2.856   3.000  0.5296 -0.1321 -0.3860
   69SAPC   O12 5847   2.786   2.619   2.993  0.2213 -0.0227 -0.1575
   69SAPC   O11 5848   2.938   2.810   2.952 -0.0228 -0.9194  0.3767
   69SAPC    C1 5849   2.994   2.931   2.913  0.2343  0.1536  0.5274
   69SAPC    HA 5850   3.086   2.911   2.856  0.1776  0.1790  0.4270
   69SAPC    HB 5851   2.926   2.989   2.847 -0.7244 -1.8648 -0.3563
   69SAPC    C2 5852   3.034   3.022   3.044  0.2673  0.6116 -0.6144
   69SAPC    HS 5853   3.145   3.020   3.040  0.3178  1.7278 -0.1698
   69SAPC   O21 5854   2.982   2.966   3.166  1.4197  0.2215  0.2938
   69SAPC   C21 5855   3.037   2.866   3.215 -0.2460 -0.1571 -0.0942
   69SAPC   O22 5856   3.142   2.811   3.177 -0.2348 -0.0892  0.2005
   69SAPC   C22 5857   2.963   2.818   3.339  0.4891  0.0757 -0.5143
   69SAPC   H2R 5858   2.856   2.848   3.344  0.5615  0.0943  1.3010
   69SAPC   H2S 5859   2.965   2.707   3.330  1.1373  0.1265 -1.0561
   69SAPC    C3 5860   2.970   3.163   3.025 -0.9925  0.0913 -0.3456
   69SAPC    HX 5861   2.859   3.161   3.021 -0.9755  1.4546 -2.2285
   69SAPC    HY 5862   3.003   3.201   2.926  3.1089  0.6516  1.0457
   69SAPC   O31 5863   3.026   3.254   3.122 -0.0070  0.1950  0.0554
   69SAPC   C31 5864   2.938   3.315   3.207 -0.3596  1.2709  0.2627
   69SAPC   O32 5865   2.819   3.289   3.218  0.7246 -0.4716  0.1902
   69SAPC   C32 5866   3.018   3.418   3.295 -0.3223  0.0106  0.0372
   69SAPC   H2X 5867   2.998   3.517   3.247  0.2980  0.5143  0.8034
   69SAPC   H2Y 5868   3.126   3.393   3.283 -0.4014  0.1519 -1.1524
   69SAPC   C23 5869   3.027   2.873   3.468  0.4094  0.0041  0.3177
   69SAPC   H3R 5870   3.136   2.869   3.447  0.2237  1.3877 -1.1504
   69SAPC   H3S 5871   3.007   2.812   3.558 -1.1711  1.2682  0.8664
   69SAPC   C24 5872   2.990   3.027   3.485 -0.7857 -0.2916  0.3067
   69SAPC   H4R 5873   2.994   3.086   3.391  0.0198 -1.5498 -0.4760
   69SAPC   H4S 5874   3.066   3.066   3.556 -1.1291  0.9030  0.0479
   69SAPC   C25 5875   2.855   3.027   3.558  0.1899 -0.6816  1.0424
   69SAPC   H5R 5876   2.770   3.016   3.490 -0.6240  1.0641  1.7170
   69SAPC   C26 5877   2.839   3.047   3.689 -0.1080  0.9752  0.2972
   69SAPC   H6R 5878   2.733   3.047   3.717  0.0933  1.2027  1.0655
   69SAPC   C27 5879   2.941   3.078   3.791 -0.8275  0.1214 -0.3893
   69SAPC   H7R 5880   2.904   3.168   3.844  0.2390  1.7708 -2.3098
   69SAPC   H7S 5881   3.037   3.106   3.745 -0.8634  1.0479  0.0848
   69SAPC   C28 5882   2.964   2.960   3.884  0.0470  0.6274 -0.2374
   69SAPC   H8R 5883   3.025   2.884   3.833  0.9404  2.2926 -1.7867
   69SAPC   C29 5884   2.926   2.940   4.011 -0.0504 -0.6054  0.3816
   69SAPC   H9R 5885   2.968   2.852   4.061  1.4219 -1.3208 -1.9545
   69SAPC  C210 5886   2.846   3.039   4.094  0.8250 -0.7409  0.6436
   69SAPC  H10R 5887   2.789   3.100   4.020  2.0784 -0.5785 -0.2252
   69SAPC  H10S 5888   2.910   3.116   4.142  0.1705  0.4982 -0.3895
   69SAPC  C211 5889   2.740   2.968   4.173 -0.2198 -0.5807  0.2547
   69SAPC  H11R 5890   2.642   2.961   4.124 -0.0914 -2.0005  0.1794
   69SAPC  C212 5891   2.744   2.938   4.311 -0.2677  0.6396  0.8006
   69SAPC  H12R 5892   2.657   2.885   4.353  0.7070 -3.0738 -1.3591
   69SAPC  C213 5893   2.872   2.957   4.399 -0.1443 -0.2158  0.0799
   69SAPC  H13R 5894   2.951   2.998   4.333  1.5559 -3.9066 -0.4460
   69SAPC  H13S 5895   2.893   2.856   4.440 -1.0293 -0.6235 -0.4373
   69SAPC  C214 5896   2.855   3.053   4.512  0.3701 -0.8816 -0.0457
   69SAPC  H14R 5897   2.776   3.129   4.512  1.4652  0.3336  1.9067
   69SAPC  C215 5898   2.933   3.050   4.621  0.0244 -0.6267  0.4816
   69SAPC  H15R 5899   2.915   3.128   4.696  1.4677 -0.0621  0.2675
   69SAPC  C216 5900   3.055   2.963   4.642  0.0646  0.0621  0.0262
   69SAPC  H16R 5901   3.141   3.031   4.656  0.8864 -1.3406  2.3559
   69SAPC  H16S 5902   3.079   2.903   4.552  1.6427 -0.8972  1.0398
   69SAPC  C217 5903   3.051   2.867   4.762 -0.9303  0.8132 -0.7074
   69SAPC  H17R 5904   3.141   2.803   4.759 -2.6053 -1.8082  0.8488
   69SAPC  H17S 5905   2.962   2.803   4.747 -0.4856 -0.0449  0.2355
   69SAPC  C218 5906   3.045   2.942   4.899 -0.4531 -0.1215  0.4126
   69SAPC  H18R 5907   2.944   2.983   4.917  0.4302  2.5698 -0.2146
   69SAPC  H18S 5908   3.108   3.034   4.902 -0.0509 -0.4116  2.3136
   69SAPC  C219 5909   3.100   2.846   5.011  0.0312  0.0848  0.1685
   69SAPC  H19R 5910   3.097   2.913   5.100  1.6760  0.0417  0.2870
   69SAPC  H19S 5911   3.205   2.814   4.992 -0.3955 -1.9171  0.9599
   69SAPC  C220 5912   3.000   2.722   5.030 -0.6851 -0.5603 -0.2741
   69SAPC  H20R 5913   2.970   2.680   4.932  0.7173 -1.0406 -0.5237
   69SAPC  H20S 5914   2.917   2.769   5.087  0.3657  0.0318  0.8142
   69SAPC  H20T 5915   3.056   2.652   5.096 -0.7395  0.3482  0.7670
   69SAPC   C33 5916   2.977   3.420   3.444 -0.1724  0.1375 -0.6089
   69SAPC   H3X 5917   3.053   3.471   3.507  0.6185  1.2644 -2.3689
   69SAPC   H3Y 5918   2.981   3.316   3.481 -0.0564 -0.2050 -1.5487
   69SAPC   C34 5919   2.839   3.490   3.465 -0.4035  1.0414  0.1507
   69SAPC   H4X 5920   2.770   3.446   3.390  2.0979 -0.0974 -1.6027
   69SAPC   H4Y 5921   2.851   3.599   3.448  1.7057  1.0460  1.3347
   69SAPC   C35 5922   2.777   3.456   3.599  0.1806 -0.7329  0.9427
   69SAPC   H5X 5923   2.729   3.356   3.610 -0.4345 -0.6929 -1.0033
   69SAPC   H5Y 5924   2.688   3.522   3.609  1.1191  0.7117  0.1351
   69SAPC   C36 5925   2.875   3.467   3.717  0.1085 -0.6216 -0.0601
   69SAPC   H6X 5926   2.936   3.560   3.721 -0.3158 -0.3783  1.2941
   69SAPC   H6Y 5927   2.945   3.381   3.717  1.5947  0.4862 -2.1502
   69SAPC   C37 5928   2.806   3.442   3.854 -0.1283 -0.0089  0.0003
   69SAPC   H7X 5929   2.760   3.341   3.843  1.7681 -0.8569 -0.6071
   69SAPC   H7Y 5930   2.718   3.509   3.863  0.1620  0.4445 -0.4642
   69SAPC   C38 5931   2.896   3.445   3.983 -0.0033  0.1837  0.6736
   69SAPC   H8X 5932   2.955   3.539   3.992 -0.1085  0.0701  3.3767
   69SAPC   H8Y 5933   2.967   3.360   3.977 -2.3677 -1.8601  0.1083
   69SAPC   C39 5934   2.814   3.435   4.108 -0.1285  0.3607 -0.1794
   69SAPC   H9X 5935   2.763   3.336   4.103  0.0283  0.1924  1.0764
   69SAPC   H9Y 5936   2.740   3.518   4.111  2.0297  2.3788 -0.0885
   69SAPC  C310 5937   2.895   3.448   4.241 -0.4035  0.4126 -0.3938
   69SAPC  H10X 5938   2.949   3.544   4.256 -2.0259  1.2500  0.3640
   69SAPC  H10Y 5939   2.971   3.367   4.238 -0.1807  0.5796  0.3983
   69SAPC  C311 5940   2.800   3.421   4.366 -0.1674 -0.2953  0.1829
   69SAPC  H11X 5941   2.771   3.314   4.353  0.7539 -0.2996 -2.3956
   69SAPC  H11Y 5942   2.712   3.487   4.352 -0.0808 -0.6715 -2.5983
   69SAPC  C312 5943   2.865   3.446   4.502 -0.2638  0.1440  0.3309
   69SAPC  H12X 5944   2.906   3.548   4.512 -0.8933  0.4818 -0.3913
   69SAPC  H12Y 5945   2.949   3.375   4.515 -2.4052 -2.6872 -0.2703
   69SAPC  C313 5946   2.751   3.428   4.599  0.2934 -0.3047 -0.4466
   69SAPC  H13X 5947   2.716   3.323   4.595  1.2868 -0.6611 -0.1589
   69SAPC  H13Y 5948   2.664   3.491   4.573 -0.1763 -0.8927 -0.3248
   69SAPC  C314 5949   2.794   3.456   4.747  0.4831 -0.1969 -0.0982
   69SAPC  H14X 5950   2.836   3.559   4.749  2.6165 -0.9917 -0.8306
   69SAPC  H14Y 5951   2.884   3.395   4.770  0.6552  0.8503  2.2672
   69SAPC  C315 5952   2.684   3.445   4.853 -0.0785 -0.2987  0.9000
   69SAPC  H15X 5953   2.663   3.339   4.879  1.2715 -0.3898  1.7026
   69SAPC  H15Y 5954   2.599   3.496   4.802 -0.4994 -1.8927 -0.0840
   69SAPC  C316 5955   2.706   3.537   4.980 -0.0707  0.4799 -0.1895
   69SAPC  H16X 5956   2.703   3.644   4.950  1.4472  1.0400  1.4513
   69SAPC  H16Y 5957   2.808   3.520   5.021  0.2773  0.9906 -0.8177
   69SAPC  C317 5958   2.600   3.521   5.085  0.2748 -0.0947  0.4953
   69SAPC  H17X 5959   2.512   3.571   5.040  0.5190  0.5257  0.6936
   69SAPC  H17Y 5960   2.627   3.580   5.176 -2.4190 -0.1920  1.4478
   69SAPC  C318 5961   2.576   3.381   5.130 -0.9726  0.0147  0.4362
   69SAPC  H18X 5962   2.552   3.322   5.039 -0.5555 -1.6025  1.3462
   69SAPC  H18Y 5963   2.490   3.366   5.199 -0.7257  0.2409  0.7982
   69SAPC  H18Z 5964   2.675   3.343   5.161  0.2398  1.4231 -1.4840
   70SAPC     N 5965   5.246   0.761   2.890  0.3639  0.2560 -0.4895
   70SAPC   C12 5966   5.344   0.713   2.989 -0.1161 -0.2933 -0.7100
   70SAPC  H12A 5967   5.440   0.692   2.944  0.6308  0.4822  0.4849
   70SAPC  H12B 5968   5.302   0.621   3.028 -0.3058  0.5470  1.1631
   70SAPC   C13 5969   5.118   0.800   2.956  0.2747 -0.2610 -0.1441
   70SAPC  H13A 5970   5.061   0.841   2.874  0.4760  0.6202  0.1424
   70SAPC  H13B 5971   5.067   0.714   2.996  0.0995 -0.2206 -0.2838
   70SAPC  H13C 5972   5.124   0.870   3.039 -1.7265  0.1153 -0.2709
   70SAPC   C14 5973   5.305   0.876   2.824 -1.3517 -0.0912  0.5678
   70SAPC  H14A 5974   5.319   0.961   2.889  0.3980  0.1782 -0.1098
   70SAPC  H14B 5975   5.401   0.862   2.778 -1.6254 -0.0553 -0.0157
   70SAPC  H14C 5976   5.241   0.900   2.741  1.3289  0.9128 -1.3266
   70SAPC   C15 5977   5.226   0.655   2.783 -0.3406  0.0449 -0.0257
   70SAPC  H15A 5978   5.315   0.597   2.762 -1.4648 -2.5105  1.7154
   70SAPC  H15B 5979   5.153   0.588   2.827  0.8106 -0.2066  1.6256
   70SAPC  H15C 5980   5.174   0.689   2.696 -1.2322 -1.5764 -0.1687
   70SAPC   C11 5981   5.363   0.790   3.120  0.1168 -0.7240  0.5947
   70SAPC  H11A 5982   5.372   0.900   3.106  0.9160 -0.9970 -1.3813
   70SAPC  H11B 5983   5.462   0.763   3.162  1.5947  0.0878 -2.1145
   70SAPC     P 5984   5.230   0.634   3.279  0.3341  0.6175  0.0147
   70SAPC   O13 5985   5.176   0.534   3.181 -0.3676 -0.4637  0.8388
   70SAPC   O14 5986   5.353   0.601   3.354 -0.3082  0.3888  0.0452
   70SAPC   O12 5987   5.249   0.769   3.205 -0.5910 -0.4346 -0.5267
   70SAPC   O11 5988   5.099   0.661   3.374  0.6897 -0.0990  0.3486
   70SAPC    C1 5989   4.969   0.647   3.316 -0.0263  0.1722  0.1684
   70SAPC    HA 5990   4.981   0.650   3.205 -0.8951  0.2047  0.0716
   70SAPC    HB 5991   4.927   0.549   3.345 -0.3846  0.8067  1.8814
   70SAPC    C2 5992   4.882   0.759   3.370  0.8560  0.4621 -0.0124
   70SAPC    HS 5993   4.938   0.852   3.348  0.9874 -0.1942 -2.9736
   70SAPC   O21 5994   4.839   0.714   3.502 -0.3428  0.0943 -0.0386
   70SAPC   C21 5995   4.883   0.795   3.596 -0.1583 -0.1928 -0.7937
   70SAPC   O22 5996   4.944   0.898   3.578  0.4958 -0.1803 -0.1747
   70SAPC   C22 5997   4.845   0.754   3.729 -0.1490 -0.0881 -1.1633
   70SAPC   H2R 5998   4.740   0.789   3.738 -0.2232 -0.3969 -0.8445
   70SAPC   H2S 5999   4.858   0.644   3.733 -1.7249 -0.2680 -0.0454
   70SAPC    C3 6000   4.755   0.760   3.284  0.0287  0.2431  0.3503
   70SAPC    HX 6001   4.693   0.668   3.297  0.7302 -0.6412 -1.9320
   70SAPC    HY 6002   4.794   0.775   3.181 -1.8462  2.6580 -0.0970
   70SAPC   O31 6003   4.674   0.869   3.332  0.2335  0.3396 -0.4399
   70SAPC   C31 6004   4.594   0.933   3.237 -0.2236 -0.0069  0.4551
   70SAPC   O32 6005   4.572   0.886   3.123  0.3940  0.2198  0.1761
   70SAPC   C32 6006   4.538   1.062   3.303 -1.0881 -0.3974 -0.0483
   70SAPC   H2X 6007   4.468   1.108   3.231  1.6144  1.2048 -1.8397
   70SAPC   H2Y 6008   4.618   1.139   3.306 -0.1769 -1.3619  1.9892
   70SAPC   C23 6009   4.940   0.798   3.849 -0.0344  0.2659  0.5947
   70SAPC   H3R 6010   4.937   0.909   3.860  0.5939  0.1298  2.4696
   70SAPC   H3S 6011   5.045   0.773   3.823 -0.3953 -1.2684  0.5716
   70SAPC   C24 6012   4.902   0.746   3.982 -0.1977  0.3202  0.2437
   70SAPC   H4R 6013   4.793   0.723   3.974  0.2565 -1.6375 -1.1318
   70SAPC   H4S 6014   4.917   0.807   4.073  0.0590 -0.2829  0.6094
   70SAPC   C25 6015   4.954   0.606   4.003 -0.1706  0.2946  0.4484
   70SAPC   H5R 6016   4.880   0.540   3.955  1.6121 -1.8101  0.4832
   70SAPC   C26 6017   5.054   0.552   4.069 -1.0069 -0.6785  0.2374
   70SAPC   H6R 6018   5.069   0.443   4.063 -1.3818 -0.6583 -2.6293
   70SAPC   C27 6019   5.160   0.621   4.150  0.4782 -0.4844  0.0036
   70SAPC   H7R 6020   5.125   0.620   4.256 -0.6119  0.2554 -0.3286
   70SAPC   H7S 6021   5.172   0.726   4.116  2.7289 -0.8701 -0.5395
   70SAPC   C28 6022   5.290   0.549   4.118  0.4626  0.4850 -0.6715
   70SAPC   H8R 6023   5.328   0.566   4.016  0.9674 -2.0520 -0.9596
   70SAPC   C29 6024   5.377   0.494   4.208 -0.5607  0.2011  0.0353
   70SAPC   H9R 6025   5.474   0.461   4.168  0.4287  4.3099 -1.5489
   70SAPC  C210 6026   5.343   0.480   4.353 -0.1856  0.5373  0.4781
   70SAPC  H10R 6027   5.344   0.370   4.369  1.6064  0.4097 -0.2909
   70SAPC  H10S 6028   5.243   0.520   4.382 -1.7501 -1.6865 -1.4477
   70SAPC  C211 6029   5.431   0.566   4.441 -0.4707  0.1188  0.1161
   70SAPC  H11R 6030   5.447   0.666   4.400 -1.4493  0.1879 -0.1219
   70SAPC  C212 6031   5.489   0.520   4.555  0.2927  0.4658 -0.5916
   70SAPC  H12R 6032   5.556   0.591   4.606  1.9032 -1.6095  0.3547
   70SAPC  C213 6033   5.485   0.381   4.633 -0.5942 -0.4578  0.2495
   70SAPC  H13R 6034   5.571   0.321   4.597 -0.7612  0.8887 -2.6532
   70SAPC  H13S 6035   5.391   0.329   4.606 -1.0510  0.4915 -0.0387
   70SAPC  C214 6036   5.502   0.410   4.787 -0.0137 -0.5180  0.0529
   70SAPC  H14R 6037   5.599   0.455   4.814 -0.2217  0.1991 -0.3744
   70SAPC  C215 6038   5.423   0.383   4.888  0.7730 -0.5177 -0.7626
   70SAPC  H15R 6039   5.454   0.417   4.988 -2.3103  5.1984 -1.3299
   70SAPC  C216 6040   5.291   0.305   4.871 -0.0626  0.5190 -0.3270
   70SAPC  H16R 6041   5.305   0.211   4.928  1.0163 -0.2516 -1.7869
   70SAPC  H16S 6042   5.264   0.269   4.769 -0.7847 -0.7214  0.2885
   70SAPC  C217 6043   5.164   0.363   4.936 -0.5969  1.2032 -0.0097
   70SAPC  H17R 6044   5.179   0.387   5.044  2.6346 -1.0279  0.1968
   70SAPC  H17S 6045   5.084   0.285   4.940 -0.0488  0.6412  0.2642
   70SAPC  C218 6046   5.112   0.484   4.852  0.0802 -0.6105 -0.1840
   70SAPC  H18R 6047   5.107   0.451   4.746 -0.3103  0.0774 -0.3915
   70SAPC  H18S 6048   5.176   0.574   4.860 -2.6634  1.4307  0.4816
   70SAPC  C219 6049   4.963   0.517   4.900  0.7965 -0.1370  0.2186
   70SAPC  H19R 6050   4.950   0.536   5.009  0.2095  1.4598 -0.1021
   70SAPC  H19S 6051   4.909   0.429   4.861  2.5283 -0.9807 -0.3585
   70SAPC  C220 6052   4.901   0.643   4.828  0.4964  0.4243  0.3460
   70SAPC  H20R 6053   4.914   0.629   4.719  0.8316 -1.1280  0.5562
   70SAPC  H20S 6054   4.949   0.740   4.854  1.8419 -0.7791  2.6946
   70SAPC  H20T 6055   4.794   0.652   4.854  0.2939 -0.0523 -0.3016
   70SAPC   C33 6056   4.480   1.040   3.441  0.0897  0.6662 -0.8142
   70SAPC   H3X 6057   4.430   0.941   3.447  3.4490 -1.1430  3.3775
   70SAPC   H3Y 6058   4.405   1.120   3.457 -0.4810 -0.0301  0.1244
   70SAPC   C34 6059   4.583   1.051   3.562  0.1474  0.0524 -0.5431
   70SAPC   H4X 6060   4.629   1.152   3.561 -1.7014  0.9464  0.8286
   70SAPC   H4Y 6061   4.668   0.982   3.541  0.3209 -0.0906  0.5881
   70SAPC   C35 6062   4.525   1.016   3.695 -0.4782 -0.3367 -0.4083
   70SAPC   H5X 6063   4.515   0.906   3.699 -0.3355 -0.3470 -0.3225
   70SAPC   H5Y 6064   4.422   1.054   3.717 -0.4997 -1.0816  0.8627
   70SAPC   C36 6065   4.603   1.070   3.822  0.1809  0.4624 -0.3169
   70SAPC   H6X 6066   4.602   1.181   3.810 -4.4119  0.9175  1.8127
   70SAPC   H6Y 6067   4.709   1.037   3.829  0.1507  0.3881 -0.1968
   70SAPC   C37 6068   4.538   1.032   3.953 -0.2830 -0.2904 -1.0220
   70SAPC   H7X 6069   4.431   1.064   3.958  0.4686  2.2508  2.2141
   70SAPC   H7Y 6070   4.543   0.921   3.955  1.0300 -0.2334  0.7026
   70SAPC   C38 6071   4.612   1.071   4.082  0.2366 -0.3758  0.1945
   70SAPC   H8X 6072   4.613   1.182   4.092  2.2907 -0.1692 -1.4441
   70SAPC   H8Y 6073   4.719   1.043   4.067 -0.2209 -2.0961 -0.0192
   70SAPC   C39 6074   4.554   1.021   4.214  0.2637 -0.1902 -0.4897
   70SAPC   H9X 6075   4.546   0.911   4.227 -0.2439  0.1396  2.6214
   70SAPC   H9Y 6076   4.449   1.053   4.228  0.0482 -0.6695 -0.9489
   70SAPC  C310 6077   4.642   1.064   4.329 -0.0633 -0.3473 -0.8298
   70SAPC  H10X 6078   4.656   1.174   4.334 -2.3818 -0.0319 -0.2663
   70SAPC  H10Y 6079   4.739   1.013   4.310  0.2551 -0.2102  0.3406
   70SAPC  C311 6080   4.586   1.023   4.463 -0.7517 -0.2985  0.0605
   70SAPC  H11X 6081   4.594   0.913   4.467 -2.2160 -0.5303 -1.8837
   70SAPC  H11Y 6082   4.478   1.047   4.467 -0.2712  2.2859 -0.1407
   70SAPC  C312 6083   4.657   1.103   4.567  0.2550  0.1441 -1.3871
   70SAPC  H12X 6084   4.669   1.213   4.552  1.6500 -0.2267 -3.3458
   70SAPC  H12Y 6085   4.762   1.065   4.567 -0.5305 -2.1915 -1.2728
   70SAPC  C313 6086   4.607   1.069   4.710  0.3727  0.1966  0.0643
   70SAPC  H13X 6087   4.641   0.964   4.729  0.2582 -0.2993 -2.2154
   70SAPC  H13Y 6088   4.498   1.082   4.724  0.5528  0.8727  0.9167
   70SAPC  C314 6089   4.666   1.161   4.823  0.0542 -0.0150 -0.0542
   70SAPC  H14X 6090   4.777   1.154   4.815  0.0086 -2.0388  0.6150
   70SAPC  H14Y 6091   4.643   1.119   4.923  0.4926 -1.5083 -0.5517
   70SAPC  C315 6092   4.620   1.311   4.819  0.6002 -0.8212  0.3390
   70SAPC  H15X 6093   4.520   1.315   4.771  0.4693 -0.9711  0.5954
   70SAPC  H15Y 6094   4.695   1.363   4.755 -0.6845 -0.1621 -0.6677
   70SAPC  C316 6095   4.619   1.368   4.965  0.1873 -0.3417  0.4950
   70SAPC  H16X 6096   4.724   1.351   4.996  0.7514  2.4007  0.2649
   70SAPC  H16Y 6097   4.552   1.311   5.033  0.5542 -0.4844  0.7414
   70SAPC  C317 6098   4.603   1.522   4.970  0.1912 -0.2425 -0.0645
   70SAPC  H17X 6099   4.500   1.547   4.937  0.3698  1.0618  0.3289
   70SAPC  H17Y 6100   4.674   1.569   4.899  0.1082  0.7052  0.4622
   70SAPC  C318 6101   4.631   1.584   5.104 -0.2374 -0.0346  0.6108
   70SAPC  H18X 6102   4.568   1.532   5.180  0.8044 -0.7111  1.0280
   70SAPC  H18Y 6103   4.593   1.689   5.103  0.7962  0.3646  1.4171
   70SAPC  H18Z 6104   4.741   1.582   5.120 -0.2316  0.5668  0.6877
   71SAPC     N 6105   5.314   0.122   3.368 -0.6108 -0.4697  0.3043
   71SAPC   C12 6106   5.232  -0.003   3.350  0.6173  0.2023  0.6139
   71SAPC  H12A 6107   5.155  -0.009   3.426  0.0390  2.6515  0.3109
   71SAPC  H12B 6108   5.293  -0.091   3.360 -2.4861 -2.4852 -1.9370
   71SAPC   C13 6109   5.410   0.142   3.258 -0.4972 -0.4444 -0.5686
   71SAPC  H13A 6110   5.490   0.071   3.252  0.7912  0.9995 -1.2307
   71SAPC  H13B 6111   5.353   0.140   3.166 -1.9176  1.8046  0.1769
   71SAPC  H13C 6112   5.451   0.242   3.265 -0.3344 -0.4582 -1.3033
   71SAPC   C14 6113   5.230   0.244   3.381 -0.3319  0.6724  0.6367
   71SAPC  H14A 6114   5.160   0.219   3.460 -0.4722 -0.4039  0.1909
   71SAPC  H14B 6115   5.290   0.330   3.405  0.0937  0.4381  0.4308
   71SAPC  H14C 6116   5.162   0.257   3.298 -3.1186 -1.9230  2.3033
   71SAPC   C15 6117   5.392   0.101   3.492  0.9363 -0.3122 -0.9526
   71SAPC  H15A 6118   5.328   0.101   3.578 -1.7460  4.7134 -2.5229
   71SAPC  H15B 6119   5.459   0.016   3.487  0.6030 -0.5984 -0.5675
   71SAPC  H15C 6120   5.458   0.185   3.511  0.5497  0.2220 -1.8603
   71SAPC   C11 6121   5.155  -0.026   3.219 -0.1276  0.9328  0.3568
   71SAPC  H11A 6122   5.230  -0.059   3.145  0.0337 -1.3226  1.4276
   71SAPC  H11B 6123   5.119   0.065   3.166  2.8074  0.8469 -2.0303
   71SAPC     P 6124   4.893  -0.089   3.216  0.2391 -0.5967 -0.2400
   71SAPC   O13 6125   4.878   0.000   3.095  0.6538  0.1706  0.2063
   71SAPC   O14 6126   4.810  -0.214   3.220 -0.7677  0.4771 -0.4796
   71SAPC   O12 6127   5.046  -0.123   3.230 -0.1116 -0.1534  0.2697
   71SAPC   O11 6128   4.857  -0.002   3.342  0.0715 -0.2991 -0.7562
   71SAPC    C1 6129   4.752   0.099   3.338  0.0135 -0.1954 -0.5686
   71SAPC    HA 6130   4.736   0.150   3.240  0.4741 -0.9786 -1.0664
   71SAPC    HB 6131   4.655   0.050   3.363  0.6804 -0.9986  0.5224
   71SAPC    C2 6132   4.793   0.212   3.428 -0.4017  0.0097  0.4359
   71SAPC    HS 6133   4.882   0.260   3.383 -1.0731 -0.0428 -0.9866
   71SAPC   O21 6134   4.821   0.158   3.553  0.0209  0.2504  0.1353
   71SAPC   C21 6135   4.909   0.224   3.632  0.0911 -0.4077  0.5239
   71SAPC   O22 6136   4.971   0.324   3.595  0.4463 -0.0170 -1.0218
   71SAPC   C22 6137   4.922   0.138   3.761  0.1426  0.0075  0.0932
   71SAPC   H2R 6138   4.901   0.031   3.739 -2.8510  0.0226  2.3173
   71SAPC   H2S 6139   5.030   0.146   3.788  0.1005  1.4600 -0.0857
   71SAPC    C3 6140   4.679   0.324   3.434 -0.0114 -0.3254 -0.0695
   71SAPC    HX 6141   4.651   0.366   3.335 -0.6111 -1.3636 -0.3515
   71SAPC    HY 6142   4.717   0.413   3.490 -2.1168 -0.7117  2.1346
   71SAPC   O31 6143   4.570   0.272   3.507  0.0968 -0.1950 -0.1115
   71SAPC   C31 6144   4.459   0.241   3.447  0.5090  0.4286  0.1833
   71SAPC   O32 6145   4.434   0.247   3.332 -0.2373  0.1394  0.8797
   71SAPC   C32 6146   4.361   0.194   3.555 -0.4777  0.1430 -0.9999
   71SAPC   H2X 6147   4.396   0.218   3.657  0.6618 -1.0958 -1.0661
   71SAPC   H2Y 6148   4.369   0.083   3.560 -0.1479  0.2168  1.1569
   71SAPC   C23 6149   4.842   0.186   3.886 -0.4554 -0.0308 -0.8245
   71SAPC   H3R 6150   4.905   0.259   3.941 -0.3455  0.4762 -1.6097
   71SAPC   H3S 6151   4.821   0.101   3.954 -3.8084 -0.2616 -1.9393
   71SAPC   C24 6152   4.704   0.244   3.854 -0.2676 -0.7930 -0.3472
   71SAPC   H4R 6153   4.720   0.324   3.778 -0.4718  0.0217  0.4539
   71SAPC   H4S 6154   4.661   0.295   3.942 -1.5105 -1.6266 -0.4370
   71SAPC   C25 6155   4.615   0.139   3.789  1.1050  0.1846  0.5104
   71SAPC   H5R 6156   4.627   0.120   3.682 -1.8727  1.7491 -0.2178
   71SAPC   C26 6157   4.506   0.078   3.848  0.1291 -0.2056  0.5347
   71SAPC   H6R 6158   4.450   0.006   3.788  0.8793 -0.8956  0.6393
   71SAPC   C27 6159   4.459   0.078   3.994 -0.1706 -0.1169 -0.0231
   71SAPC   H7R 6160   4.372   0.011   4.010  0.2181 -0.0107  3.0768
   71SAPC   H7S 6161   4.434   0.182   4.020  0.1705  0.2328 -1.0417
   71SAPC   C28 6162   4.569   0.031   4.086  0.1328 -0.1983  0.4694
   71SAPC   H8R 6163   4.662   0.007   4.033 -0.0319  1.3588 -0.6139
   71SAPC   C29 6164   4.559   0.019   4.217  0.7682  0.0661 -0.6603
   71SAPC   H9R 6165   4.649  -0.015   4.271 -0.6489  1.0326  2.5501
   71SAPC  C210 6166   4.444   0.037   4.314  0.2969  0.6281  0.3998
   71SAPC  H10R 6167   4.420   0.145   4.312  0.7319  0.7243 -0.9690
   71SAPC  H10S 6168   4.464   0.004   4.418 -1.5486 -2.0155  0.0051
   71SAPC  C211 6169   4.314  -0.033   4.269 -0.4873 -0.5509 -0.6358
   71SAPC  H11R 6170   4.295  -0.043   4.162 -2.5477  1.7111 -0.5560
   71SAPC  C212 6171   4.215  -0.056   4.355  0.1626 -0.9268 -0.0931
   71SAPC  H12R 6172   4.130  -0.117   4.321  0.2971 -0.9206 -0.4382
   71SAPC  C213 6173   4.197  -0.031   4.506  0.2951 -0.6091 -0.0348
   71SAPC  H13R 6174   4.175   0.075   4.530 -1.1394 -1.0484  0.6454
   71SAPC  H13S 6175   4.297  -0.056   4.548  0.7035  0.4306 -0.3599
   71SAPC  C214 6176   4.098  -0.126   4.572 -0.1964  0.0689  0.1561
   71SAPC  H14R 6177   4.048  -0.196   4.505  0.6300 -1.6341  1.2482
   71SAPC  C215 6178   4.068  -0.126   4.706  0.3376 -0.3228 -0.0177
   71SAPC  H15R 6179   3.998  -0.202   4.742 -0.5249  0.1677 -0.6235
   71SAPC  C216 6180   4.129  -0.046   4.816 -0.0051 -0.0735  0.0399
   71SAPC  H16R 6181   4.062   0.039   4.842  0.2041 -0.1261  0.7804
   71SAPC  H16S 6182   4.229  -0.001   4.797  0.3382 -0.2849  1.2569
   71SAPC  C217 6183   4.152  -0.126   4.946  0.7155  0.2806 -0.6101
   71SAPC  H17R 6184   4.192  -0.044   5.010  0.3378  1.1661 -1.4809
   71SAPC  H17S 6185   4.219  -0.212   4.927  0.2960  0.3012 -2.3578
   71SAPC  C218 6186   4.019  -0.172   5.006  0.5619 -0.0999 -0.0138
   71SAPC  H18R 6187   3.977  -0.267   4.967  1.2213  0.0398 -1.0972
   71SAPC  H18S 6188   3.947  -0.089   4.994  1.9020  0.9155 -1.2876
   71SAPC  C219 6189   4.029  -0.186   5.153  1.0605  0.2237  0.4395
   71SAPC  H19R 6190   4.060  -0.084   5.187 -1.2562  1.3512 -0.6116
   71SAPC  H19S 6191   4.103  -0.260   5.190  0.0181  0.1556  2.6031
   71SAPC  C220 6192   3.886  -0.202   5.212 -0.2103 -0.1015 -0.3619
   71SAPC  H20R 6193   3.840  -0.301   5.192 -0.6415 -0.3332  1.5314
   71SAPC  H20S 6194   3.812  -0.121   5.192 -2.9537 -2.2256  0.5319
   71SAPC  H20T 6195   3.903  -0.204   5.322  1.0554 -3.3251 -0.5122
   71SAPC   C33 6196   4.214   0.246   3.548  0.0514 -0.0882 -0.9326
   71SAPC   H3X 6197   4.166   0.227   3.449 -1.1982 -1.8474 -0.0472
   71SAPC   H3Y 6198   4.201   0.356   3.556  3.0700  0.2215  1.2997
   71SAPC   C34 6199   4.136   0.169   3.654 -0.1149 -0.5582  0.0345
   71SAPC   H4X 6200   4.181   0.070   3.678  1.2578  0.1262  0.3930
   71SAPC   H4Y 6201   4.030   0.153   3.623 -0.3205 -0.9495  0.8960
   71SAPC   C35 6202   4.135   0.245   3.793 -0.2318 -0.1388 -0.3328
   71SAPC   H5X 6203   4.138   0.352   3.764 -1.6416 -0.3501 -1.3793
   71SAPC   H5Y 6204   4.221   0.229   3.861  1.2155  0.7487 -1.8599
   71SAPC   C36 6205   4.013   0.230   3.874 -0.6205  0.1744  0.1805
   71SAPC   H6X 6206   4.011   0.123   3.906  1.5035  0.8863  3.1410
   71SAPC   H6Y 6207   3.918   0.248   3.819 -0.9088 -2.2702 -0.2290
   71SAPC   C37 6208   4.008   0.316   4.005  0.5540 -0.4788 -0.1024
   71SAPC   H7X 6209   4.011   0.424   3.980  0.9085  0.0428  2.0343
   71SAPC   H7Y 6210   4.097   0.297   4.069  1.7022 -1.2265 -1.8152
   71SAPC   C38 6211   3.874   0.295   4.073 -0.7390  0.4629  0.1148
   71SAPC   H8X 6212   3.789   0.332   4.011 -0.8104  2.0049  1.0723
   71SAPC   H8Y 6213   3.875   0.361   4.162 -0.5169  1.1909 -0.4222
   71SAPC   C39 6214   3.840   0.153   4.126  0.3992 -0.1483 -0.4517
   71SAPC   H9X 6215   3.932   0.101   4.160  0.7668  0.0175 -1.1726
   71SAPC   H9Y 6216   3.791   0.089   4.050  0.0707 -2.0699  1.3075
   71SAPC  C310 6217   3.730   0.161   4.235 -0.2497 -0.7219  0.0354
   71SAPC  H10X 6218   3.641   0.195   4.179  1.0375  0.3513 -1.4316
   71SAPC  H10Y 6219   3.741   0.238   4.314  0.0154 -0.4627 -0.2532
   71SAPC  C311 6220   3.705   0.025   4.299 -0.1794  0.3927  0.5910
   71SAPC  H11X 6221   3.792   0.006   4.366  1.2097  0.2232 -1.1874
   71SAPC  H11Y 6222   3.705  -0.053   4.220 -2.4275  1.3188 -0.3990
   71SAPC  C312 6223   3.573   0.011   4.375 -0.1508  0.5330 -0.2530
   71SAPC  H12X 6224   3.556  -0.094   4.407 -2.1644  0.6721 -0.7168
   71SAPC  H12Y 6225   3.484   0.051   4.321 -1.0948 -0.4063  0.5482
   71SAPC  C313 6226   3.555   0.086   4.505  0.7362  0.3495 -0.3640
   71SAPC  H13X 6227   3.451   0.075   4.545  1.2699 -2.2727  0.4674
   71SAPC  H13Y 6228   3.574   0.195   4.493 -1.8008  0.9524  0.3384
   71SAPC  C314 6229   3.644   0.035   4.620  1.0683 -0.2372 -0.1202
   71SAPC  H14X 6230   3.749   0.016   4.587  1.5653 -0.6310  1.5920
   71SAPC  H14Y 6231   3.616  -0.068   4.650  0.3502  0.6224  2.4036
   71SAPC  C315 6232   3.659   0.133   4.741 -0.3018  0.4356 -0.2829
   71SAPC  H15X 6233   3.560   0.170   4.776 -0.6320  1.6575 -2.3567
   71SAPC  H15Y 6234   3.695   0.225   4.691  0.3263 -0.1159 -0.8658
   71SAPC  C316 6235   3.745   0.091   4.869  1.4140  0.1523 -1.0176
   71SAPC  H16X 6236   3.846   0.060   4.833  1.9108  0.1245  0.3432
   71SAPC  H16Y 6237   3.698   0.003   4.918  1.3654  0.4403 -0.5408
   71SAPC  C317 6238   3.762   0.207   4.971  0.6446  0.3629 -0.5577
   71SAPC  H17X 6239   3.665   0.243   5.012  0.1596  1.5991 -2.6206
   71SAPC  H17Y 6240   3.797   0.294   4.912 -1.5723  0.7541 -1.3939
   71SAPC  C318 6241   3.860   0.172   5.084 -0.6645  0.9136 -0.3424
   71SAPC  H18X 6242   3.953   0.143   5.030  0.2859  1.2907  1.0340
   71SAPC  H18Y 6243   3.829   0.090   5.152  0.3966  0.4701 -0.3697
   71SAPC  H18Z 6244   3.884   0.259   5.148  0.1636  0.3729  0.0983
   72SAPC     N 6245   5.731   4.807   2.839  0.0582 -0.0080  0.7518
   72SAPC   C12 6246   5.731   4.743   2.974  0.4306 -0.2381 -0.7242
   72SAPC  H12A 6247   5.768   4.642   2.982  0.2957 -0.1236  2.0453
   72SAPC  H12B 6248   5.627   4.728   2.998  0.3911  2.1351  0.8565
   72SAPC   C13 6249   5.864   4.817   2.775 -1.1466 -0.6724  1.2140
   72SAPC  H13A 6250   5.840   4.828   2.670 -1.8186  2.4790  1.6256
   72SAPC  H13B 6251   5.932   4.891   2.814 -1.1106 -1.1477  2.0693
   72SAPC  H13C 6252   5.909   4.719   2.790  0.7586  0.4602  3.3892
   72SAPC   C14 6253   5.643   4.717   2.749  0.0282 -0.5790  0.0750
   72SAPC  H14A 6254   5.698   4.628   2.721  1.6937  0.4318 -0.0149
   72SAPC  H14B 6255   5.559   4.684   2.809  0.4023 -1.0771  0.3272
   72SAPC  H14C 6256   5.608   4.767   2.659 -1.0246 -0.0261  0.7743
   72SAPC   C15 6257   5.663   4.944   2.843 -0.1974 -0.0253  0.1927
   72SAPC  H15A 6258   5.561   4.930   2.874 -0.8231 -0.0642 -1.7856
   72SAPC  H15B 6259   5.726   4.998   2.913 -2.5572 -0.1359  2.5557
   72SAPC  H15C 6260   5.670   5.000   2.751  1.8686  1.8235  1.3585
   72SAPC   C11 6261   5.780   4.828   3.101  0.4324 -0.2443  0.5191
   72SAPC  H11A 6262   5.883   4.859   3.076  0.6735 -0.0552  1.6768
   72SAPC  H11B 6263   5.794   4.757   3.186  2.4851 -1.5219 -0.7862
   72SAPC     P 6264   5.553   4.935   3.172  0.0741  0.1486  0.2126
   72SAPC   O13 6265   5.475   5.051   3.122 -0.2838 -0.2097  0.3001
   72SAPC   O14 6266   5.503   4.798   3.134 -0.0821 -0.3802  0.1398
   72SAPC   O12 6267   5.704   4.947   3.131 -0.2250 -0.0971 -0.2654
   72SAPC   O11 6268   5.557   4.939   3.334 -0.0253  0.1638 -0.2281
   72SAPC    C1 6269   5.635   4.832   3.393 -0.5195 -0.4709  1.0866
   72SAPC    HA 6270   5.617   4.731   3.351  1.5767 -1.2630  1.9583
   72SAPC    HB 6271   5.744   4.852   3.386 -0.7883  0.6546 -0.2428
   72SAPC    C2 6272   5.611   4.829   3.547 -0.2799  1.5091 -0.1015
   72SAPC    HS 6273   5.677   4.754   3.595 -2.2504  0.7560  1.5714
   72SAPC   O21 6274   5.471   4.792   3.571 -0.3697 -0.3413 -0.2756
   72SAPC   C21 6275   5.457   4.665   3.596  0.2280 -0.0255  0.5083
   72SAPC   O22 6276   5.537   4.576   3.573 -0.0818 -0.0556 -0.7408
   72SAPC   C22 6277   5.309   4.650   3.640  0.4238  0.0669 -0.0788
   72SAPC   H2R 6278   5.266   4.733   3.700  2.0384 -0.0436  1.3008
   72SAPC   H2S 6279   5.250   4.644   3.547 -0.0026  0.7682  0.1415
   72SAPC    C3 6280   5.632   4.970   3.602  0.3327 -0.0002  0.3038
   72SAPC    HX 6281   5.566   5.045   3.553 -1.0717 -0.7029  1.0610
   72SAPC    HY 6282   5.737   4.997   3.575 -0.4709  1.1639 -1.8995
   72SAPC   O31 6283   5.614   4.963   3.741  0.5275  0.4287 -0.6519
   72SAPC   C31 6284   5.677   5.060   3.804 -0.2190  0.7630 -0.0432
   72SAPC   O32 6285   5.738   5.149   3.753 -0.1864 -1.0316  0.5808
   72SAPC   C32 6286   5.688   5.032   3.955  0.3080  0.3293 -0.3450
   72SAPC   H2X 6287   5.743   4.935   3.960 -1.5097 -0.7992 -1.2890
   72SAPC   H2Y 6288   5.582   5.024   3.988  0.3345 -3.3348 -0.7152
   72SAPC   C23 6289   5.262   4.513   3.707 -0.0927  0.3327 -0.1451
   72SAPC   H3R 6290   5.274   4.432   3.632  0.2403  0.5915 -0.3780
   72SAPC   H3S 6291   5.157   4.528   3.738 -0.9645 -1.6689 -1.8985
   72SAPC   C24 6292   5.352   4.474   3.825  0.3540 -0.1047 -0.4410
   72SAPC   H4R 6293   5.457   4.474   3.788  0.9488  0.0002  1.1647
   72SAPC   H4S 6294   5.341   4.372   3.866 -0.0188  0.2209  0.2833
   72SAPC   C25 6295   5.332   4.569   3.948 -0.1710  0.8476  1.1211
   72SAPC   H5R 6296   5.237   4.548   4.000  1.0883  0.7587  3.4998
   72SAPC   C26 6297   5.426   4.649   4.011 -0.3208  0.7459  0.5434
   72SAPC   H6R 6298   5.387   4.690   4.106  1.2330  0.2906  1.4103
   72SAPC   C27 6299   5.567   4.707   3.959  0.7514 -1.1644 -0.1449
   72SAPC   H7R 6300   5.615   4.752   4.048 -1.0380  0.9685 -0.1666
   72SAPC   H7S 6301   5.537   4.782   3.883 -1.0315 -1.7165 -0.0395
   72SAPC   C28 6302   5.670   4.619   3.888  0.6346 -0.5867 -0.2704
   72SAPC   H8R 6303   5.680   4.621   3.778  2.6618 -0.7022 -0.1256
   72SAPC   C29 6304   5.754   4.537   3.944 -0.2716  0.0742 -0.5255
   72SAPC   H9R 6305   5.821   4.479   3.879  1.1650  1.9324 -0.7960
   72SAPC  C210 6306   5.769   4.514   4.090 -0.1973  0.0978 -0.3623
   72SAPC  H10R 6307   5.756   4.407   4.118 -0.2620  0.4254  0.9255
   72SAPC  H10S 6308   5.699   4.564   4.160  1.6601  1.7450  0.4269
   72SAPC  C211 6309   5.905   4.558   4.130 -0.7796 -0.2016  0.4790
   72SAPC  H11R 6310   5.954   4.615   4.049  0.4651 -1.0866  0.5915
   72SAPC  C212 6311   5.962   4.555   4.248 -0.4959  0.4571  0.3425
   72SAPC  H12R 6312   6.062   4.602   4.252  0.9543 -2.2093 -1.5301
   72SAPC  C213 6313   5.906   4.489   4.374 -0.2407 -0.0681 -0.8864
   72SAPC  H13R 6314   5.988   4.432   4.423 -1.8045 -1.2626  0.4479
   72SAPC  H13S 6315   5.836   4.414   4.331  0.9432  0.3466 -3.7713
   72SAPC  C214 6316   5.835   4.578   4.478 -0.2687  0.0439  0.6174
   72SAPC  H14R 6317   5.775   4.658   4.432  1.8468  2.0837  1.1561
   72SAPC  C215 6318   5.845   4.573   4.613 -0.4423  0.3266  0.6327
   72SAPC  H15R 6319   5.786   4.639   4.678 -0.8923 -1.5267  2.1922
   72SAPC  C216 6320   5.919   4.459   4.682 -0.3656  0.0043 -1.1705
   72SAPC  H16R 6321   6.010   4.435   4.622 -0.7295 -3.6754 -0.5148
   72SAPC  H16S 6322   5.858   4.367   4.696 -0.7854  0.6811  2.2428
   72SAPC  C217 6323   5.970   4.512   4.815  0.0064 -0.1270  0.3839
   72SAPC  H17R 6324   6.021   4.610   4.800 -1.0929  0.1387 -2.1025
   72SAPC  H17S 6325   6.047   4.443   4.857  0.8770 -0.0444 -1.0070
   72SAPC  C218 6326   5.858   4.515   4.928 -0.5202  0.1236 -0.3116
   72SAPC  H18R 6327   5.772   4.580   4.901 -0.1089 -0.0299 -2.1524
   72SAPC  H18S 6328   5.906   4.563   5.016 -1.1427 -0.1397  0.1779
   72SAPC  C219 6329   5.802   4.374   4.966 -0.3121  0.0497  0.0322
   72SAPC  H19R 6330   5.746   4.310   4.895 -0.6934 -1.7564  1.8675
   72SAPC  H19S 6331   5.718   4.406   5.030  0.0365  0.0112  0.5199
   72SAPC  C220 6332   5.907   4.272   5.025  0.4812 -0.5361  0.6604
   72SAPC  H20R 6333   5.975   4.323   5.098 -0.8923  0.3472  1.3566
   72SAPC  H20S 6334   5.962   4.239   4.935 -0.4464 -0.8844  0.2102
   72SAPC  H20T 6335   5.871   4.180   5.075 -1.1006 -0.0483  0.4535
   72SAPC   C33 6336   5.776   5.141   4.022  0.7981  0.4082 -0.4484
   72SAPC   H3X 6337   5.746   5.239   3.980 -2.6628 -0.4722 -0.2971
   72SAPC   H3Y 6338   5.884   5.126   3.998  0.7459 -0.4332 -0.1838
   72SAPC   C34 6339   5.766   5.152   4.174 -0.1181 -0.1531  0.1030
   72SAPC   H4X 6340   5.672   5.207   4.197 -0.7721 -1.0938 -0.2304
   72SAPC   H4Y 6341   5.855   5.213   4.201 -0.6602  1.9682 -2.4740
   72SAPC   C35 6342   5.784   5.021   4.252  0.6928 -0.0882  0.4583
   72SAPC   H5X 6343   5.833   5.043   4.349  1.3011 -3.5617  1.0739
   72SAPC   H5Y 6344   5.845   4.945   4.198 -0.4559  0.8721 -2.3834
   72SAPC   C36 6345   5.654   4.943   4.283 -0.5300 -0.0598  0.7173
   72SAPC   H6X 6346   5.686   4.846   4.326 -2.9759 -0.8964  0.7748
   72SAPC   H6Y 6347   5.609   4.924   4.183  0.0995  2.6819 -0.1732
   72SAPC   C37 6348   5.558   5.007   4.374  0.0292  0.8479 -0.1398
   72SAPC   H7X 6349   5.482   5.073   4.326 -1.0964 -0.5334 -0.3651
   72SAPC   H7Y 6350   5.620   5.051   4.454  1.7607 -1.0474 -0.3486
   72SAPC   C38 6351   5.472   4.900   4.452  0.1437  0.0765  0.4317
   72SAPC   H8X 6352   5.389   4.961   4.494 -0.1841 -0.1020  0.0519
   72SAPC   H8Y 6353   5.524   4.845   4.533  0.5875 -0.4778 -0.2183
   72SAPC   C39 6354   5.402   4.800   4.353  0.9747  0.0638  0.7533
   72SAPC   H9X 6355   5.468   4.739   4.288  0.0288  1.5342 -1.7456
   72SAPC   H9Y 6356   5.321   4.852   4.297 -0.9084 -2.4802  0.9737
   72SAPC  C310 6357   5.325   4.703   4.452 -0.2426  0.3291  0.2733
   72SAPC  H10X 6358   5.269   4.773   4.518  0.1141  1.8477 -0.9933
   72SAPC  H10Y 6359   5.397   4.643   4.511 -1.6447 -0.6142  1.0985
   72SAPC  C311 6360   5.214   4.622   4.389 -0.2948  0.5432 -0.5731
   72SAPC  H11X 6361   5.196   4.546   4.468 -2.1274 -0.1216 -1.5821
   72SAPC  H11Y 6362   5.255   4.579   4.295 -1.1073  0.1888 -0.7665
   72SAPC  C312 6363   5.081   4.691   4.356 -0.0930 -0.4767 -0.1816
   72SAPC  H12X 6364   5.019   4.623   4.293 -0.7402  0.8220 -0.9927
   72SAPC  H12Y 6365   5.087   4.785   4.296 -0.1216 -0.0508  0.4767
   72SAPC  C313 6366   4.999   4.726   4.478 -0.0747 -0.5386  0.4272
   72SAPC  H13X 6367   5.054   4.797   4.543 -1.0579 -0.0450  0.7420
   72SAPC  H13Y 6368   4.978   4.641   4.546 -1.3569  1.4193  2.6227
   72SAPC  C314 6369   4.864   4.797   4.439  0.7676 -0.8487 -0.1428
   72SAPC  H14X 6370   4.811   4.798   4.536  1.6284  1.2599  0.3635
   72SAPC  H14Y 6371   4.806   4.740   4.363  2.3618 -1.2466 -1.0956
   72SAPC  C315 6372   4.884   4.931   4.372 -0.5534 -0.5183  0.0656
   72SAPC  H15X 6373   4.912   4.901   4.269  1.2862  0.5317  0.2093
   72SAPC  H15Y 6374   4.966   4.984   4.426  0.1385 -2.0877  0.6254
   72SAPC  C316 6375   4.763   5.019   4.362  0.3451  0.1320 -0.5244
   72SAPC  H16X 6376   4.777   5.090   4.447  0.2478 -0.6342  0.1436
   72SAPC  H16Y 6377   4.667   4.965   4.378  0.4130  0.3932  0.9361
   72SAPC  C317 6378   4.765   5.100   4.236 -0.1251 -0.1912  0.1309
   72SAPC  H17X 6379   4.769   5.019   4.159  0.4623 -0.9518  0.9321
   72SAPC  H17Y 6380   4.857   5.161   4.224 -1.7687  2.5150  0.5251
   72SAPC  C318 6381   4.636   5.181   4.222  0.0429 -0.1759  0.0652
   72SAPC  H18X 6382   4.628   5.250   4.135 -0.1886  0.9182  0.9191
   72SAPC  H18Y 6383   4.616   5.246   4.310 -2.3424 -0.3134 -0.3162
   72SAPC  H18Z 6384   4.554   5.107   4.221 -1.0363  0.9597 -1.6748
   73SLPC     N 6385   3.140   4.943   7.436 -0.2766  1.1328 -0.0269
   73SLPC   C13 6386   3.259   4.847   7.445  0.1691 -0.0364 -0.5109
   73SLPC  H13A 6387   3.349   4.904   7.463  0.2833 -0.4674  0.3311
   73SLPC  H13B 6388   3.259   4.770   7.521  0.8226 -0.6980 -1.1625
   73SLPC  H13C 6389   3.274   4.800   7.349 -0.9853  0.0656 -0.7581
   73SLPC   C14 6390   3.188   5.060   7.354  0.1705  0.3557 -0.9831
   73SLPC  H14A 6391   3.249   5.127   7.412  0.1228  0.0131 -0.5293
   73SLPC  H14B 6392   3.226   5.025   7.259 -1.0896  1.3130 -1.8742
   73SLPC  H14C 6393   3.102   5.123   7.335  0.6312  0.6031 -2.4037
   73SLPC   C15 6394   3.098   4.968   7.579 -0.0153 -0.4903 -0.6168
   73SLPC  H15A 6395   3.085   4.880   7.639 -0.0960  0.0347  0.1555
   73SLPC  H15B 6396   3.172   5.024   7.635  2.7807 -2.2176 -2.3639
   73SLPC  H15C 6397   2.999   5.012   7.581  0.2360  0.1873 -1.7447
   73SLPC   C12 6398   3.032   4.873   7.362 -0.3604  0.0730 -0.6124
   73SLPC  H12A 6399   3.002   4.788   7.422 -0.4830 -0.1046 -0.9210
   73SLPC  H12B 6400   3.074   4.838   7.269  0.8256  1.0217 -0.4484
   73SLPC   C11 6401   2.902   4.949   7.322 -0.2294 -0.1192 -0.2456
   73SLPC  H11A 6402   2.844   4.897   7.243  2.6614 -1.8060 -1.4332
   73SLPC  H11B 6403   2.934   5.048   7.281 -0.7933  0.6964  1.2200
   73SLPC     P 6404   2.718   4.875   7.493  0.4237 -0.3903 -0.4621
   73SLPC   O13 6405   2.782   4.742   7.510  0.2077  0.2248 -0.5787
   73SLPC   O14 6406   2.636   4.924   7.606  0.5961 -0.1477 -0.5330
   73SLPC   O12 6407   2.826   4.976   7.444 -0.0341  0.5521 -0.0194
   73SLPC   O11 6408   2.620   4.857   7.365 -1.0961 -0.0436  0.1641
   73SLPC    C1 6409   2.540   4.971   7.333 -0.4861  0.0023  0.1784
   73SLPC    HA 6410   2.455   4.971   7.405  1.4960 -1.0000  2.6663
   73SLPC    HB 6411   2.602   5.063   7.326 -0.4773  0.0182  0.4484
   73SLPC    C2 6412   2.483   4.940   7.197  0.2939 -0.0172  0.4459
   73SLPC    HS 6413   2.453   4.834   7.196 -0.0076  0.0738 -0.1666
   73SLPC   O21 6414   2.587   4.964   7.103  0.1230  0.1304  0.2203
   73SLPC   C21 6415   2.581   4.884   6.994 -0.6202  0.2838 -0.6646
   73SLPC   O22 6416   2.524   4.777   6.990  0.8924  0.1894 -0.1725
   73SLPC   C22 6417   2.682   4.940   6.889  0.2723  0.1989  0.3271
   73SLPC   H2R 6418   2.776   4.966   6.944  0.6375 -2.1948  0.9359
   73SLPC   H2S 6419   2.702   4.859   6.816 -0.6838 -1.1991  1.5542
   73SLPC    C3 6420   2.349   5.017   7.178  0.6912 -0.2375  0.3200
   73SLPC    HX 6421   2.350   5.124   7.207 -1.7583  0.0366 -0.4039
   73SLPC    HY 6422   2.284   4.975   7.258 -1.5663  1.2711 -0.6219
   73SLPC   O31 6423   2.292   4.991   7.048  0.9593  0.0461 -0.4679
   73SLPC   C31 6424   2.160   4.984   7.054 -0.0208  0.3614 -0.2212
   73SLPC   O32 6425   2.084   5.018   7.147  0.4632  0.6214  0.4438
   73SLPC   C32 6426   2.113   4.938   6.913 -0.0539  0.3373 -0.2312
   73SLPC   H2X 6427   2.155   5.003   6.834  1.1330 -0.2160 -0.0774
   73SLPC   H2Y 6428   2.003   4.954   6.912  0.1245  1.6344 -0.2463
   73SLPC   C23 6429   2.628   5.070   6.833 -1.1990  0.4013 -0.3489
   73SLPC   H3R 6430   2.712   5.113   6.774  0.5491  0.1358  1.8005
   73SLPC   H3S 6431   2.606   5.140   6.916  1.3950 -1.0373  1.7482
   73SLPC   C24 6432   2.506   5.050   6.743  0.3693 -0.7228  0.7824
   73SLPC   H4R 6433   2.452   5.148   6.743  0.7801 -0.4714 -0.7396
   73SLPC   H4S 6434   2.436   4.973   6.782  0.2745 -2.1270 -1.9735
   73SLPC   C25 6435   2.539   4.983   6.606  0.0927  0.2235  0.0418
   73SLPC   H5R 6436   2.466   4.902   6.586 -0.5701  0.7721  0.2438
   73SLPC   H5S 6437   2.642   4.947   6.583  0.5319  2.1225 -1.2019
   73SLPC   C26 6438   2.507   5.071   6.494 -0.0740  0.1611  1.0438
   73SLPC   H6R 6439   2.551   5.170   6.517  1.2388 -0.0424 -0.4339
   73SLPC   H6S 6440   2.397   5.074   6.475 -0.4002 -1.0629  2.5621
   73SLPC   C27 6441   2.587   5.033   6.372 -0.2478  0.0856 -0.3162
   73SLPC   H7R 6442   2.560   4.927   6.354 -1.8232  0.3316  0.4411
   73SLPC   H7S 6443   2.696   5.031   6.393 -0.3655 -2.5333  0.3478
   73SLPC   C28 6444   2.555   5.119   6.249  0.0386  0.0378  0.5494
   73SLPC   H8R 6445   2.572   5.226   6.272 -1.6631  0.9812 -2.1354
   73SLPC   H8S 6446   2.446   5.126   6.227  0.2320 -1.1684 -0.9738
   73SLPC   C29 6447   2.638   5.092   6.122 -0.3476  0.5903 -0.4611
   73SLPC   H9R 6448   2.738   5.139   6.120 -0.3192  0.5411 -2.2908
   73SLPC  C210 6449   2.606   5.011   6.019 -0.3263  0.5928 -0.7808
   73SLPC  H10R 6450   2.682   5.003   5.939 -0.1782  0.2710 -0.6096
   73SLPC  C211 6451   2.483   4.933   6.011  0.1641  0.6465 -0.3966
   73SLPC  H11R 6452   2.432   4.975   5.922  0.5081  1.4479 -0.2210
   73SLPC  H11S 6453   2.414   4.952   6.096  2.0754  0.6164  1.2176
   73SLPC  C212 6454   2.502   4.782   5.994 -0.1220  0.0505  0.2010
   73SLPC  H12R 6455   2.524   4.726   6.086 -1.1371  0.2792  0.5962
   73SLPC  C213 6456   2.498   4.712   5.879 -0.3730 -0.2607 -0.4623
   73SLPC  H13R 6457   2.515   4.604   5.888  1.5313 -0.3296 -3.3242
   73SLPC  C214 6458   2.465   4.764   5.742  0.1637 -0.2800  0.3917
   73SLPC  H14R 6459   2.550   4.731   5.678  1.6570 -0.3243  2.3184
   73SLPC  H14S 6460   2.477   4.875   5.749 -0.9978 -0.0392 -0.8666
   73SLPC  C215 6461   2.333   4.722   5.679 -0.8960  0.0471 -0.5612
   73SLPC  H15R 6462   2.251   4.788   5.715 -2.3047 -1.2645 -1.2615
   73SLPC  H15S 6463   2.305   4.617   5.704 -1.6863 -0.2038 -2.3632
   73SLPC  C216 6464   2.332   4.742   5.530  0.2566 -0.3001  0.5822
   73SLPC  H16R 6465   2.230   4.715   5.493 -0.5811  0.7691  1.9840
   73SLPC  H16S 6466   2.410   4.677   5.484 -0.3091  1.7682 -3.7814
   73SLPC  C217 6467   2.368   4.890   5.489  0.4285  0.1225  0.0993
   73SLPC  H17R 6468   2.472   4.920   5.515  0.2989  2.4878 -1.7405
   73SLPC  H17S 6469   2.301   4.969   5.530  1.3372  0.3340  1.2593
   73SLPC  C218 6470   2.357   4.906   5.342 -0.0159  0.0332  0.2059
   73SLPC  H18R 6471   2.286   4.836   5.293  0.5890  0.4325 -1.3100
   73SLPC  H18S 6472   2.457   4.891   5.295 -1.6585 -1.4394 -3.1796
   73SLPC  H18T 6473   2.332   5.010   5.309  1.0817  0.2876  0.1145
   73SLPC   C33 6474   2.131   4.783   6.896  0.2514  0.0821 -0.1465
   73SLPC   H3X 6475   2.074   4.719   6.966  1.7108 -0.2985  0.7252
   73SLPC   H3Y 6476   2.236   4.752   6.908 -0.4357 -2.0397  0.8747
   73SLPC   C34 6477   2.083   4.738   6.755 -0.1546  0.2016  0.8560
   73SLPC   H4X 6478   1.973   4.749   6.745 -0.1708 -1.1869 -1.0490
   73SLPC   H4Y 6479   2.105   4.629   6.745 -0.3892  0.3045 -1.0859
   73SLPC   C35 6480   2.142   4.822   6.643  0.1731  0.5246  0.0788
   73SLPC   H5X 6481   2.250   4.835   6.663  0.0413  1.7978  0.0537
   73SLPC   H5Y 6482   2.096   4.924   6.641 -2.2412 -0.5090 -1.2355
   73SLPC   C36 6483   2.143   4.755   6.501  0.6368  0.2490  0.8532
   73SLPC   H6X 6484   2.036   4.751   6.472  0.3988  0.4982  1.6496
   73SLPC   H6Y 6485   2.171   4.648   6.514 -0.7964 -0.3295 -0.6043
   73SLPC   C37 6486   2.223   4.830   6.391 -0.4123 -0.0735 -0.2075
   73SLPC   H7X 6487   2.327   4.853   6.421 -0.0400  0.7973 -2.0372
   73SLPC   H7Y 6488   2.163   4.922   6.373 -1.1800 -0.5534 -0.1473
   73SLPC   C38 6489   2.235   4.743   6.261 -0.2694 -0.4583 -0.8796
   73SLPC   H8X 6490   2.307   4.661   6.279 -0.5755 -0.1950  2.1186
   73SLPC   H8Y 6491   2.290   4.815   6.197  0.0518 -0.1517 -0.2711
   73SLPC   C39 6492   2.113   4.698   6.190 -0.2100  0.2197 -0.0172
   73SLPC   H9X 6493   2.046   4.784   6.171 -1.2918 -0.4575  0.5668
   73SLPC   H9Y 6494   2.055   4.622   6.248  0.4268 -0.0876  0.2288
   73SLPC  C310 6495   2.141   4.650   6.049  0.3525  0.3550  0.1281
   73SLPC  H10X 6496   2.228   4.581   6.047  1.8266  2.0726  1.2520
   73SLPC  H10Y 6497   2.168   4.740   5.988 -1.3687 -0.0041 -1.2449
   73SLPC  C311 6498   2.024   4.583   5.976  0.0001 -0.0323 -0.1142
   73SLPC  H11X 6499   1.937   4.653   5.975 -0.4473 -0.5530 -1.5441
   73SLPC  H11Y 6500   1.989   4.493   6.030 -1.5993  1.5825  1.7128
   73SLPC  C312 6501   2.062   4.537   5.830  0.5605  0.3399  0.3508
   73SLPC  H12X 6502   2.140   4.459   5.847 -0.3203 -0.7409 -0.4552
   73SLPC  H12Y 6503   2.107   4.618   5.768  2.8920 -1.5190 -0.5505
   73SLPC  C313 6504   1.951   4.470   5.746  0.4568 -0.0259 -0.7573
   73SLPC  H13X 6505   1.860   4.523   5.781  2.7252  3.5227  0.4216
   73SLPC  H13Y 6506   1.967   4.365   5.777 -0.1378  0.4869  1.4651
   73SLPC  C314 6507   1.968   4.493   5.598  0.5514  0.3353  0.4449
   73SLPC  H14X 6508   2.060   4.457   5.548 -0.6074 -0.8200 -0.9443
   73SLPC  H14Y 6509   1.972   4.603   5.580 -0.1475  0.0145 -2.0068
   73SLPC  C315 6510   1.858   4.423   5.508 -0.4229  0.2940 -0.4014
   73SLPC  H15X 6511   1.863   4.474   5.409 -0.9187 -1.1678 -1.2104
   73SLPC  H15Y 6512   1.760   4.455   5.550 -1.2694 -0.8195 -1.4534
   73SLPC  C316 6513   1.871   4.269   5.501  0.1302 -0.0860  0.3756
   73SLPC  H16X 6514   1.832   4.224   5.594 -1.7710 -0.4787 -0.5654
   73SLPC  H16Y 6515   1.974   4.238   5.475 -0.1774 -0.6940 -0.1254
   73SLPC  C317 6516   1.786   4.214   5.381  0.0910  0.4254 -0.3804
   73SLPC  H17X 6517   1.838   4.243   5.288  1.6136  0.7561  0.5497
   73SLPC  H17Y 6518   1.687   4.265   5.379  0.8921  2.0329 -0.0892
   73SLPC  C318 6519   1.770   4.060   5.393  0.3431 -0.7797 -0.1453
   73SLPC  H18X 6520   1.867   4.007   5.386  0.1362 -1.0818 -0.8559
   73SLPC  H18Y 6521   1.694   4.031   5.317 -0.4966 -2.1341  1.1688
   73SLPC  H18Z 6522   1.725   4.041   5.493 -1.1186  1.4829 -0.2890
   74SLPC     N 6523   1.999   4.984   7.598  0.5949 -0.2084  0.1616
   74SLPC   C13 6524   1.925   5.094   7.669 -0.8140 -0.7363  0.2116
   74SLPC  H13A 6525   1.977   5.188   7.663  0.1878 -1.3563 -1.7712
   74SLPC  H13B 6526   1.825   5.095   7.627 -1.2823 -1.7391  1.2583
   74SLPC  H13C 6527   1.916   5.069   7.774  0.7827  0.2779  0.6264
   74SLPC   C14 6528   2.020   5.023   7.453 -0.7805  0.1244  0.3442
   74SLPC  H14A 6529   2.041   4.934   7.395  1.0931  0.5205  0.3291
   74SLPC  H14B 6530   1.935   5.064   7.400 -1.8277 -1.6092  0.6223
   74SLPC  H14C 6531   2.101   5.092   7.432 -1.1769  0.3377 -0.5190
   74SLPC   C15 6532   1.912   4.866   7.611  0.3483  0.8368  0.4308
   74SLPC  H15A 6533   1.962   4.777   7.575 -2.2567 -0.9222  0.9069
   74SLPC  H15B 6534   1.881   4.849   7.713 -1.3816 -0.8668 -0.3132
   74SLPC  H15C 6535   1.819   4.879   7.558 -0.2571 -1.7716  0.6873
   74SLPC   C12 6536   2.130   4.956   7.663  0.3148 -0.0747  0.8240
   74SLPC  H12A 6537   2.110   4.930   7.766 -1.7271  0.2985  0.5672
   74SLPC  H12B 6538   2.190   5.044   7.681 -2.6379  2.2501  0.0741
   74SLPC   C11 6539   2.229   4.862   7.582  0.5344  0.2203 -0.2168
   74SLPC  H11A 6540   2.312   4.851   7.655  0.0511  3.9441  1.0968
   74SLPC  H11B 6541   2.279   4.922   7.504  1.3124  1.0846  0.9034
   74SLPC     P 6542   2.229   4.655   7.428  0.1175 -0.4261  0.0591
   74SLPC   O13 6543   2.231   4.727   7.300 -0.7060  0.4718 -0.2365
   74SLPC   O14 6544   2.361   4.597   7.472 -0.1402 -0.0156  0.1435
   74SLPC   O12 6545   2.165   4.740   7.548 -0.9381  0.0753  0.3649
   74SLPC   O11 6546   2.129   4.535   7.411  0.0169 -0.1218 -0.3392
   74SLPC    C1 6547   1.995   4.556   7.385  0.1534 -0.0399  0.8879
   74SLPC    HA 6548   1.934   4.473   7.426  1.4543 -1.1362  0.6569
   74SLPC    HB 6549   1.955   4.653   7.424 -4.4294 -1.2362 -0.1650
   74SLPC    C2 6550   1.962   4.565   7.236  0.7965 -0.1618  0.0477
   74SLPC    HS 6551   2.009   4.657   7.195 -2.1436  1.7318  0.6189
   74SLPC   O21 6552   1.819   4.563   7.213  0.2236  0.4448 -0.0390
   74SLPC   C21 6553   1.774   4.651   7.122 -0.8784  0.0631 -0.1308
   74SLPC   O22 6554   1.835   4.729   7.056  0.1538 -0.4493  0.5977
   74SLPC   C22 6555   1.619   4.625   7.107  0.3591  0.1345  0.1468
   74SLPC   H2R 6556   1.595   4.516   7.107 -1.1846  0.4305  1.2688
   74SLPC   H2S 6557   1.564   4.667   7.195 -1.5342 -1.4155 -0.2048
   74SLPC    C3 6558   2.025   4.447   7.167  0.0771 -0.3488 -0.3349
   74SLPC    HX 6559   2.007   4.358   7.232 -1.8876  0.6666  0.6059
   74SLPC    HY 6560   2.135   4.462   7.155 -0.0472  1.6790  0.6181
   74SLPC   O31 6561   1.970   4.424   7.040 -0.1029 -0.3641  0.0122
   74SLPC   C31 6562   2.039   4.342   6.962 -0.2501 -0.0427  1.1235
   74SLPC   O32 6563   2.142   4.284   6.981 -0.6196 -0.8402 -0.1761
   74SLPC   C32 6564   1.984   4.364   6.818  0.3725  0.6725 -0.3384
   74SLPC   H2X 6565   1.934   4.462   6.805 -0.6332  0.0072 -1.7333
   74SLPC   H2Y 6566   1.902   4.291   6.801  1.4295 -1.6127  3.3054
   74SLPC   C23 6567   1.556   4.704   6.983  0.4205  0.4781 -0.5615
   74SLPC   H3R 6568   1.605   4.803   6.970  0.8902  0.4123  0.5740
   74SLPC   H3S 6569   1.448   4.712   7.005  0.0289 -0.9294 -1.7677
   74SLPC   C24 6570   1.555   4.619   6.851 -0.2808 -0.5286  0.0959
   74SLPC   H4R 6571   1.456   4.632   6.804  0.7974 -1.7212 -2.6893
   74SLPC   H4S 6572   1.574   4.511   6.868  1.2712 -0.5087 -1.2330
   74SLPC   C25 6573   1.672   4.669   6.755  0.2548 -0.3038 -0.1739
   74SLPC   H5R 6574   1.766   4.640   6.805 -0.6135 -3.6889 -0.2483
   74SLPC   H5S 6575   1.656   4.779   6.753  0.5451 -0.2601 -0.1025
   74SLPC   C26 6576   1.671   4.613   6.616  1.0157  0.4758  0.4656
   74SLPC   H6R 6577   1.569   4.579   6.587  1.2207 -1.1947  1.5342
   74SLPC   H6S 6578   1.729   4.518   6.614  0.5845  0.2188  0.0312
   74SLPC   C27 6579   1.722   4.706   6.505 -0.3417  0.1158  0.0552
   74SLPC   H7R 6580   1.806   4.768   6.543 -0.7075 -0.0858  1.2385
   74SLPC   H7S 6581   1.636   4.774   6.486 -0.1811 -0.2055 -2.0252
   74SLPC   C28 6582   1.768   4.635   6.380 -0.2266  0.3637  0.2769
   74SLPC   H8R 6583   1.844   4.562   6.416 -3.4462 -3.0967  0.7094
   74SLPC   H8S 6584   1.824   4.707   6.317  0.7762  0.1326  0.8879
   74SLPC   C29 6585   1.664   4.549   6.317 -0.3823 -0.0533  0.1358
   74SLPC   H9R 6586   1.614   4.472   6.378 -3.2304 -0.4725 -2.4859
   74SLPC  C210 6587   1.633   4.550   6.185 -0.0175  0.6045  0.4218
   74SLPC  H10R 6588   1.556   4.481   6.147 -1.4558  1.4497  1.6809
   74SLPC  C211 6589   1.679   4.652   6.087 -1.0111 -0.0394 -0.2239
   74SLPC  H11R 6590   1.716   4.597   5.997  1.8337  0.5080  0.4990
   74SLPC  H11S 6591   1.760   4.715   6.129 -1.1291  0.9133 -1.3657
   74SLPC  C212 6592   1.567   4.746   6.058  0.1366 -0.0084 -0.8734
   74SLPC  H12R 6593   1.495   4.766   6.139  1.1806 -1.2614  0.4278
   74SLPC  C213 6594   1.537   4.801   5.939 -0.4439 -0.2887 -0.1544
   74SLPC  H13R 6595   1.448   4.865   5.931 -0.8203 -0.6900  0.7259
   74SLPC  C214 6596   1.619   4.797   5.810  0.5457  0.4783 -0.2141
   74SLPC  H14R 6597   1.727   4.784   5.834  0.7203 -0.8263 -1.5883
   74SLPC  H14S 6598   1.618   4.900   5.766  0.0319 -0.0216 -1.4214
   74SLPC  C215 6599   1.594   4.683   5.710  0.1872  0.1835  0.7174
   74SLPC  H15R 6600   1.578   4.590   5.769  0.4437  0.2153  0.8376
   74SLPC  H15S 6601   1.686   4.674   5.649 -2.0949  1.7516 -3.3684
   74SLPC  C216 6602   1.476   4.704   5.616  0.7253 -0.4648  0.1857
   74SLPC  H16R 6603   1.469   4.814   5.606  1.6034 -0.4511 -0.4781
   74SLPC  H16S 6604   1.381   4.661   5.655  0.2756  0.1034 -0.2636
   74SLPC  C217 6605   1.493   4.653   5.471 -0.9789 -0.5071 -0.3205
   74SLPC  H17R 6606   1.525   4.548   5.487 -3.5758 -1.0448  2.1970
   74SLPC  H17S 6607   1.577   4.706   5.420  0.5893 -0.7054  1.8907
   74SLPC  C218 6608   1.370   4.646   5.388  0.8407 -0.1575  0.1054
   74SLPC  H18R 6609   1.403   4.623   5.285 -0.1627 -1.6732  0.0878
   74SLPC  H18S 6610   1.317   4.743   5.382  2.0294  0.4416 -1.0748
   74SLPC  H18T 6611   1.305   4.556   5.396 -0.0508  0.1989 -2.4728
   74SLPC   C33 6612   2.094   4.343   6.712  0.1479 -0.1294 -0.5540
   74SLPC   H3X 6613   2.156   4.253   6.734 -0.4154 -0.0616  1.5426
   74SLPC   H3Y 6614   2.174   4.419   6.712  0.7095 -0.7070  0.3925
   74SLPC   C34 6615   2.035   4.326   6.574 -0.5091 -0.5053 -0.7377
   74SLPC   H4X 6616   1.955   4.402   6.555 -2.6723 -2.1632  1.1159
   74SLPC   H4Y 6617   1.982   4.229   6.571 -0.8216 -0.3707  0.2823
   74SLPC   C35 6618   2.141   4.330   6.460 -0.2461 -0.3817  0.7234
   74SLPC   H5X 6619   2.228   4.267   6.485 -1.6516 -2.8533 -0.2534
   74SLPC   H5Y 6620   2.179   4.434   6.473 -3.0391  0.9751 -0.9369
   74SLPC   C36 6621   2.068   4.290   6.325 -0.0504 -0.3230  0.2557
   74SLPC   H6X 6622   2.010   4.380   6.298  0.0048 -0.6885 -1.1724
   74SLPC   H6Y 6623   2.000   4.204   6.346 -0.0684 -0.5334 -0.6195
   74SLPC   C37 6624   2.169   4.253   6.209 -0.0171  0.5599 -0.0870
   74SLPC   H7X 6625   2.250   4.183   6.239 -0.7624 -0.2782 -0.0051
   74SLPC   H7Y 6626   2.225   4.341   6.170 -0.2294  1.3809  1.3801
   74SLPC   C38 6627   2.095   4.176   6.090 -1.0570  0.2919 -0.6304
   74SLPC   H8X 6628   2.025   4.251   6.047  0.5542  1.7918 -0.7523
   74SLPC   H8Y 6629   2.041   4.086   6.127  0.9258 -0.1886  1.2750
   74SLPC   C39 6630   2.190   4.128   5.986 -0.5000 -0.5589 -0.0046
   74SLPC   H9X 6631   2.261   4.049   6.019  1.1137  0.7516 -0.1892
   74SLPC   H9Y 6632   2.260   4.207   5.951  0.4947 -1.5647 -0.3398
   74SLPC  C310 6633   2.118   4.072   5.873  0.6628 -0.6858 -0.0990
   74SLPC  H10X 6634   2.041   4.146   5.843  1.7097  0.4427 -0.0792
   74SLPC  H10Y 6635   2.075   3.974   5.903  1.0353 -0.5349  0.9510
   74SLPC  C311 6636   2.191   4.033   5.744 -0.1412  0.9274 -0.3629
   74SLPC  H11X 6637   2.123   3.978   5.676  1.6974  0.2682 -1.7686
   74SLPC  H11Y 6638   2.278   3.968   5.769 -0.1248  0.9321 -0.4077
   74SLPC  C312 6639   2.240   4.151   5.666 -0.0305  0.3613  0.3345
   74SLPC  H12X 6640   2.330   4.202   5.708  0.8051 -1.9048  1.4690
   74SLPC  H12Y 6641   2.168   4.235   5.679  0.6952  0.8794  1.2148
   74SLPC  C313 6642   2.263   4.115   5.522 -0.4527 -0.9467  0.8598
   74SLPC  H13X 6643   2.177   4.052   5.489 -1.5723  1.1570 -0.5096
   74SLPC  H13Y 6644   2.357   4.059   5.504  1.0812  1.7116  0.0572
   74SLPC  C314 6645   2.256   4.241   5.432 -0.3988 -0.5432  0.2212
   74SLPC  H14X 6646   2.179   4.313   5.469 -1.4749 -1.0844 -0.8895
   74SLPC  H14Y 6647   2.222   4.207   5.332 -0.3994 -1.1402  0.4216
   74SLPC  C315 6648   2.390   4.313   5.412  0.4840 -0.6471  0.0082
   74SLPC  H15X 6649   2.457   4.240   5.363  0.2579 -0.7153 -0.2024
   74SLPC  H15Y 6650   2.419   4.340   5.516  0.8504 -0.6947 -0.0803
   74SLPC  C316 6651   2.387   4.439   5.317 -0.0700 -0.4517  0.2608
   74SLPC  H16X 6652   2.304   4.501   5.355  0.2266 -0.4000  0.8399
   74SLPC  H16Y 6653   2.354   4.401   5.218  0.4501  2.0582 -0.9555
   74SLPC  C317 6654   2.528   4.511   5.290  1.3341 -0.4494  0.2503
   74SLPC  H17X 6655   2.563   4.541   5.391 -1.0640  1.0482  0.7128
   74SLPC  H17Y 6656   2.509   4.608   5.239  1.2757  0.5192  2.0283
   74SLPC  C318 6657   2.635   4.430   5.219 -0.2371 -0.5740  0.3216
   74SLPC  H18X 6658   2.654   4.481   5.122 -1.5421  0.0832  0.3921
   74SLPC  H18Y 6659   2.590   4.330   5.202  2.0066 -1.3835 -1.3772
   74SLPC  H18Z 6660   2.730   4.422   5.276  0.1029  2.2600  0.3071
   75SLPC     N 6661   6.753   5.892   7.821 -0.1644 -0.4133 -0.3962
   75SLPC   C13 6662   6.780   5.911   7.966  0.2611  0.2728  0.3933
   75SLPC  H13A 6663   6.824   6.009   7.976  0.7693  0.0459  0.4056
   75SLPC  H13B 6664   6.684   5.900   8.014  0.3657  0.6212  0.6791
   75SLPC  H13C 6665   6.860   5.846   7.998  0.3326  0.5345  0.7523
   75SLPC   C14 6666   6.698   5.752   7.807 -0.1228 -0.4729  0.0429
   75SLPC  H14A 6667   6.700   5.725   7.703  1.2396  1.0007 -0.3564
   75SLPC  H14B 6668   6.760   5.674   7.850  1.9443  0.8364 -0.4115
   75SLPC  H14C 6669   6.594   5.748   7.836 -0.7980 -0.8673 -2.2473
   75SLPC   C15 6670   6.886   5.915   7.751 -0.2212  0.3391 -0.5283
   75SLPC  H15A 6671   6.893   5.882   7.649  1.8826 -2.1752  0.3533
   75SLPC  H15B 6672   6.910   6.019   7.768  0.3885  0.0583  0.4119
   75SLPC  H15C 6673   6.964   5.861   7.801 -1.2004  1.6231  2.6476
   75SLPC   C12 6674   6.637   5.977   7.763 -0.4364  1.0261  0.1363
   75SLPC  H12A 6675   6.654   6.074   7.807 -1.0491  1.4978 -0.6475
   75SLPC  H12B 6676   6.543   5.937   7.801 -0.6916  0.0023 -1.4787
   75SLPC   C11 6677   6.635   5.989   7.611  0.2921  0.3327 -0.3123
   75SLPC  H11A 6678   6.738   5.972   7.574  1.9150  0.0582  3.7477
   75SLPC  H11B 6679   6.612   6.093   7.582  0.2312  0.0057 -1.4618
   75SLPC     P 6680   6.396   5.904   7.591  0.4082  0.0342 -0.0743
   75SLPC   O13 6681   6.332   5.769   7.589  0.3985  0.7565 -0.0764
   75SLPC   O14 6682   6.365   5.996   7.701  0.3907  0.0216  0.5812
   75SLPC   O12 6683   6.552   5.886   7.561 -0.4498  0.0354 -0.0828
   75SLPC   O11 6684   6.348   5.979   7.465 -0.2923 -0.1584  0.4314
   75SLPC    C1 6685   6.316   5.906   7.346  0.0279 -0.4040 -0.5524
   75SLPC    HA 6686   6.249   5.818   7.362  0.6581 -0.9477 -0.8491
   75SLPC    HB 6687   6.248   5.970   7.285 -0.4342 -1.9001 -1.7033
   75SLPC    C2 6688   6.438   5.874   7.253  0.3803  0.1374 -0.2678
   75SLPC    HS 6689   6.506   5.805   7.307 -1.7612 -2.5874 -0.8540
   75SLPC   O21 6690   6.496   5.999   7.242 -0.5020 -0.3229 -0.3706
   75SLPC   C21 6691   6.626   6.002   7.223 -0.1602 -0.2067 -0.4187
   75SLPC   O22 6692   6.699   5.910   7.213 -0.2364  0.1978  0.9149
   75SLPC   C22 6693   6.665   6.145   7.219 -0.2970 -0.3743  0.4849
   75SLPC   H2R 6694   6.572   6.205   7.232 -1.2670 -1.7643  0.2161
   75SLPC   H2S 6695   6.722   6.165   7.312 -1.6021 -0.7681  1.4071
   75SLPC    C3 6696   6.393   5.817   7.120  0.2689  0.0779  0.0761
   75SLPC    HX 6697   6.314   5.891   7.095 -0.3693 -0.5519  0.1923
   75SLPC    HY 6698   6.349   5.716   7.127  0.6556 -0.1661 -0.8019
   75SLPC   O31 6699   6.500   5.834   7.015 -0.1987  0.0381  0.1791
   75SLPC   C31 6700   6.573   5.720   7.005  0.2364  0.9396  0.3578
   75SLPC   O32 6701   6.563   5.617   7.072  0.2601 -0.0266  0.4043
   75SLPC   C32 6702   6.664   5.731   6.885 -0.4424  0.3031  0.7969
   75SLPC   H2X 6703   6.751   5.788   6.925 -1.0671  2.1856 -0.4382
   75SLPC   H2Y 6704   6.621   5.794   6.804 -0.6190 -1.1104 -0.2462
   75SLPC   C23 6705   6.763   6.185   7.101  0.2654 -0.8591  0.2565
   75SLPC   H3R 6706   6.861   6.136   7.115  0.3071 -1.7347 -2.5005
   75SLPC   H3S 6707   6.770   6.295   7.088  0.8728 -1.1385 -2.2286
   75SLPC   C24 6708   6.706   6.139   6.964  0.5534 -0.0437  0.2904
   75SLPC   H4R 6709   6.632   6.215   6.933  0.5134 -0.5697 -0.9224
   75SLPC   H4S 6710   6.647   6.046   6.974  2.8454 -1.4669  1.8325
   75SLPC   C25 6711   6.818   6.111   6.869 -0.6088  0.0081 -0.5931
   75SLPC   H5R 6712   6.876   6.028   6.915  0.4897  0.0804 -1.7990
   75SLPC   H5S 6713   6.899   6.187   6.874  1.5544 -2.2336  0.9433
   75SLPC   C26 6714   6.776   6.077   6.731  0.3291  0.3949  0.2465
   75SLPC   H6R 6715   6.715   6.158   6.686 -0.9117 -0.1893  0.8462
   75SLPC   H6S 6716   6.694   6.003   6.727 -1.4698  2.3616 -1.3587
   75SLPC   C27 6717   6.879   6.037   6.632 -0.4611 -0.2158  0.4218
   75SLPC   H7R 6718   6.951   5.961   6.670 -1.3523 -2.3372 -1.8473
   75SLPC   H7S 6719   6.957   6.111   6.603 -0.3557 -0.0006  1.2190
   75SLPC   C28 6720   6.829   5.968   6.499  0.3874 -0.3466  0.2608
   75SLPC   H8R 6721   6.761   5.887   6.532 -0.1033  0.1070  0.3789
   75SLPC   H8S 6722   6.911   5.920   6.441  0.7169  0.8739 -0.3242
   75SLPC   C29 6723   6.755   6.063   6.410 -0.2508  0.0614 -0.1136
   75SLPC   H9R 6724   6.822   6.107   6.334 -0.2066 -0.8386 -0.6088
   75SLPC  C210 6725   6.618   6.088   6.406 -0.4519  0.5464 -0.5733
   75SLPC  H10R 6726   6.577   6.165   6.339 -1.3450 -0.5102 -1.2688
   75SLPC  C211 6727   6.516   6.049   6.510 -0.5058 -0.6968 -0.7871
   75SLPC  H11R 6728   6.515   6.128   6.589 -0.0154 -1.3614 -0.1006
   75SLPC  H11S 6729   6.547   5.959   6.568  0.9575 -0.5053 -1.2413
   75SLPC  C212 6730   6.377   6.023   6.461  0.1965 -0.1825  0.0745
   75SLPC  H12R 6731   6.310   6.110   6.471 -1.1598 -1.2535  0.6410
   75SLPC  C213 6732   6.313   5.905   6.419 -0.3259  0.1364 -0.5993
   75SLPC  H13R 6733   6.205   5.909   6.398 -0.0970  0.1665 -1.8802
   75SLPC  C214 6734   6.385   5.769   6.412  0.2845  0.2124 -0.2872
   75SLPC  H14R 6735   6.482   5.782   6.466 -1.1098  3.5469  1.7372
   75SLPC  H14S 6736   6.413   5.750   6.306  0.0886 -2.8053  0.1141
   75SLPC  C215 6737   6.295   5.654   6.463  0.3230  0.4641 -0.6970
   75SLPC  H15R 6738   6.361   5.564   6.467  0.3169  0.4164 -1.4665
   75SLPC  H15S 6739   6.221   5.642   6.382  0.1698  1.3669 -0.7019
   75SLPC  C216 6740   6.213   5.668   6.597 -0.8264 -0.7338 -0.2362
   75SLPC  H16R 6741   6.147   5.579   6.603 -0.3578 -1.0846 -0.2251
   75SLPC  H16S 6742   6.164   5.768   6.591  1.5489  0.4511 -3.7492
   75SLPC  C217 6743   6.317   5.660   6.718  0.8386 -0.4836 -0.7987
   75SLPC  H17R 6744   6.394   5.739   6.708  1.9733 -1.6089 -1.2567
   75SLPC  H17S 6745   6.376   5.566   6.707  0.5224 -0.5997 -1.5836
   75SLPC  C218 6746   6.244   5.686   6.856 -0.0475  0.3133 -0.4251
   75SLPC  H18R 6747   6.308   5.628   6.926 -0.2840 -0.8998 -1.1758
   75SLPC  H18S 6748   6.146   5.634   6.846 -0.6577  1.0987  1.1060
   75SLPC  H18T 6749   6.226   5.794   6.874  2.2804  1.0047 -1.8615
   75SLPC   C33 6750   6.713   5.595   6.826 -0.5242  0.0034 -0.5491
   75SLPC   H3X 6751   6.628   5.535   6.788  0.5164 -0.0641 -2.9114
   75SLPC   H3Y 6752   6.756   5.543   6.915  0.8625  0.7486 -0.7494
   75SLPC   C34 6753   6.821   5.602   6.718 -0.6001  0.3417 -0.2719
   75SLPC   H4X 6754   6.901   5.676   6.741  2.3476 -2.7414  0.0843
   75SLPC   H4Y 6755   6.780   5.633   6.619 -2.2420  2.0300  0.8527
   75SLPC   C35 6756   6.904   5.473   6.693 -0.0327 -0.1368 -0.4003
   75SLPC   H5X 6757   6.828   5.395   6.669 -0.8707  0.3005  0.7455
   75SLPC   H5Y 6758   6.943   5.438   6.792 -2.1306  0.4275  0.6821
   75SLPC   C36 6759   7.005   5.468   6.578  0.0430 -0.4743  0.1415
   75SLPC   H6X 6760   7.084   5.546   6.584 -0.7274  0.2228  1.7624
   75SLPC   H6Y 6761   6.953   5.478   6.480 -1.1762 -0.2873  0.7896
   75SLPC   C37 6762   7.073   5.333   6.571 -0.5190  0.0397 -0.4164
   75SLPC   H7X 6763   6.990   5.269   6.533  0.8221 -1.7929 -0.4067
   75SLPC   H7Y 6764   7.114   5.291   6.666  0.7401  0.2611 -0.8402
   75SLPC   C38 6765   7.180   5.316   6.458  0.2029  0.3834 -0.3901
   75SLPC   H8X 6766   7.237   5.221   6.472 -0.3587  0.2123  0.8238
   75SLPC   H8Y 6767   7.254   5.397   6.477  0.2546 -0.4309  3.9839
   75SLPC   C39 6768   7.116   5.316   6.316 -1.6709 -0.0516  1.1941
   75SLPC   H9X 6769   7.032   5.387   6.309 -1.3795  0.3994  2.1861
   75SLPC   H9Y 6770   7.074   5.213   6.306  3.9532 -2.7008  0.5229
   75SLPC  C310 6771   7.218   5.332   6.202 -0.4935 -0.6736 -0.2208
   75SLPC  H10X 6772   7.264   5.231   6.189 -0.9270 -0.8443 -0.4410
   75SLPC  H10Y 6773   7.304   5.400   6.223 -0.9741 -0.4613  1.1225
   75SLPC  C311 6774   7.145   5.378   6.081 -0.0881  0.1681 -0.0966
   75SLPC  H11X 6775   7.093   5.474   6.101  1.7453  0.9472  1.1277
   75SLPC  H11Y 6776   7.063   5.313   6.044 -1.1197  1.6907 -0.6035
   75SLPC  C312 6777   7.240   5.373   5.961 -0.9148 -0.2731  0.3249
   75SLPC  H12X 6778   7.301   5.280   5.965  2.1808  1.6495  2.2091
   75SLPC  H12Y 6779   7.311   5.453   5.989 -1.4178  0.7100 -1.0720
   75SLPC  C313 6780   7.171   5.401   5.819  0.0175  0.3442 -0.9997
   75SLPC  H13X 6781   7.247   5.411   5.739  2.1029  0.1948  0.8420
   75SLPC  H13Y 6782   7.111   5.494   5.824  2.4929  2.1111 -1.7556
   75SLPC  C314 6783   7.075   5.291   5.777 -0.2183  0.4073 -0.0762
   75SLPC  H14X 6784   6.995   5.307   5.852  0.3925  3.4296  0.0653
   75SLPC  H14Y 6785   7.126   5.192   5.768 -0.2804  0.3630  0.0578
   75SLPC  C315 6786   7.010   5.328   5.641 -0.8302 -0.0130 -0.2499
   75SLPC  H15X 6787   7.085   5.314   5.560 -1.6743  0.3417 -1.1114
   75SLPC  H15Y 6788   6.963   5.429   5.638  1.0052  1.0389  2.4991
   75SLPC  C316 6789   6.906   5.225   5.604 -0.2205  0.4622  0.3382
   75SLPC  H16X 6790   6.818   5.211   5.671  0.4503 -1.8010  0.8532
   75SLPC  H16Y 6791   6.954   5.125   5.604 -0.9341  0.0506 -2.1053
   75SLPC  C317 6792   6.848   5.251   5.466  0.0703  0.0894  0.0482
   75SLPC  H17X 6793   6.820   5.154   5.420  0.0667  1.4975 -3.1157
   75SLPC  H17Y 6794   6.919   5.292   5.392 -0.4624  1.5766  0.3225
   75SLPC  C318 6795   6.731   5.349   5.473  0.6465 -0.3849  0.3049
   75SLPC  H18X 6796   6.658   5.309   5.545  1.2901 -0.7403  0.7702
   75SLPC  H18Y 6797   6.667   5.358   5.383 -0.2851  0.2798  1.0161
   75SLPC  H18Z 6798   6.748   5.458   5.491 -2.3221  0.5542 -1.6907
   76SLPC     N 6799   0.257   6.390   7.691  0.1298  0.2743 -0.3954
   76SLPC   C13 6800   0.232   6.538   7.704 -0.2103 -0.6513  0.7979
   76SLPC  H13A 6801   0.168   6.580   7.629 -1.2127 -0.3688  1.7753
   76SLPC  H13B 6802   0.181   6.556   7.798 -0.7223 -1.4528  0.6783
   76SLPC  H13C 6803   0.327   6.588   7.712 -1.0803  0.9987  1.4425
   76SLPC   C14 6804   0.122   6.332   7.697  1.2941  0.1423  0.2798
   76SLPC  H14A 6805   0.128   6.224   7.708  0.7083 -0.2125 -2.2578
   76SLPC  H14B 6806   0.071   6.378   7.780  2.8790  1.0032  0.8312
   76SLPC  H14C 6807   0.078   6.364   7.604  2.0364 -1.3986 -0.6655
   76SLPC   C15 6808   0.346   6.341   7.806  0.2503  0.5047  0.1575
   76SLPC  H15A 6809   0.361   6.236   7.785  1.3235  0.9943 -1.8233
   76SLPC  H15B 6810   0.444   6.387   7.812  0.2587  0.5955 -0.5255
   76SLPC  H15C 6811   0.303   6.348   7.904  0.6831 -0.2868  0.4115
   76SLPC   C12 6812   0.319   6.357   7.557  0.2369  0.6028  0.0045
   76SLPC  H12A 6813   0.412   6.411   7.549 -0.5209  1.7154 -2.6281
   76SLPC  H12B 6814   0.260   6.401   7.477  1.6667  1.9632 -0.3477
   76SLPC   C11 6815   0.350   6.211   7.527 -0.3393 -0.3377 -0.3438
   76SLPC  H11A 6816   0.427   6.175   7.599  1.1482 -0.2082 -1.8084
   76SLPC  H11B 6817   0.393   6.208   7.425  0.9154  1.2874  0.0953
   76SLPC     P 6818   0.142   6.099   7.402 -0.1786 -0.1534  0.1643
   76SLPC   O13 6819   0.045   6.000   7.444  0.2667 -0.0291 -0.7524
   76SLPC   O14 6820   0.094   6.229   7.348 -0.4303 -0.0482  0.2923
   76SLPC   O12 6821   0.231   6.138   7.530  0.7748  0.3795  0.0303
   76SLPC   O11 6822   0.243   6.032   7.307  0.1135 -0.0215  0.4687
   76SLPC    C1 6823   0.335   5.927   7.345 -0.3362 -0.3687  0.4350
   76SLPC    HA 6824   0.387   5.938   7.442  1.1669 -1.5031 -0.2070
   76SLPC    HB 6825   0.270   5.837   7.347 -0.8727 -0.0934 -1.8701
   76SLPC    C2 6826   0.428   5.897   7.219  0.5471  0.2941  1.0302
   76SLPC    HS 6827   0.466   5.795   7.240  0.9614 -0.2630 -2.0310
   76SLPC   O21 6828   0.536   5.991   7.213 -0.5890  0.3284  0.2826
   76SLPC   C21 6829   0.648   5.954   7.157  0.9327  0.0676  0.6391
   76SLPC   O22 6830   0.676   5.838   7.126 -0.2860 -0.0460 -0.2974
   76SLPC   C22 6831   0.734   6.076   7.137 -1.1234  0.1208  0.3171
   76SLPC   H2R 6832   0.784   6.091   7.235 -3.9292  1.7609  1.6258
   76SLPC   H2S 6833   0.818   6.056   7.067  0.7592  1.4991  2.0515
   76SLPC    C3 6834   0.347   5.893   7.085  0.4817 -0.4153 -0.2065
   76SLPC    HX 6835   0.313   5.991   7.044  0.6229  0.0507  0.7673
   76SLPC    HY 6836   0.257   5.833   7.109 -0.5242  1.0705 -0.1269
   76SLPC   O31 6837   0.417   5.829   6.978 -0.4860  0.1069 -0.6280
   76SLPC   C31 6838   0.449   5.696   6.990 -0.7241  0.4343 -0.2351
   76SLPC   O32 6839   0.403   5.625   7.080  0.7768  0.3321  0.4053
   76SLPC   C32 6840   0.539   5.649   6.873 -0.0764  0.0351  0.3433
   76SLPC   H2X 6841   0.614   5.727   6.849  0.1951  0.2007  1.6507
   76SLPC   H2Y 6842   0.471   5.665   6.787  0.5521  3.5433  0.3796
   76SLPC   C23 6843   0.665   6.202   7.089 -0.0208 -0.1997 -0.3759
   76SLPC   H3R 6844   0.746   6.277   7.075 -0.8856  0.4401 -2.3664
   76SLPC   H3S 6845   0.602   6.244   7.170 -0.6891 -1.0422 -0.4480
   76SLPC   C24 6846   0.587   6.173   6.961 -0.8827 -0.1770  0.2142
   76SLPC   H4R 6847   0.555   6.270   6.918  1.3592 -0.2308 -1.7321
   76SLPC   H4S 6848   0.493   6.119   6.986 -2.3651  1.7219 -0.9964
   76SLPC   C25 6849   0.659   6.099   6.841 -0.3841  0.0806 -0.3222
   76SLPC   H5R 6850   0.669   5.991   6.866  0.0501 -0.0699 -1.1165
   76SLPC   H5S 6851   0.763   6.137   6.837 -0.2081 -0.3972 -0.3806
   76SLPC   C26 6852   0.584   6.107   6.712  0.7303  0.1169  0.4331
   76SLPC   H6R 6853   0.645   6.066   6.629 -1.7716 -0.5094 -1.1802
   76SLPC   H6S 6854   0.568   6.216   6.694  2.1132  0.3112  0.2178
   76SLPC   C27 6855   0.441   6.052   6.717 -0.2912  0.1855  0.3923
   76SLPC   H7R 6856   0.382   6.087   6.804 -0.8263 -1.6092  0.7872
   76SLPC   H7S 6857   0.452   5.942   6.728 -0.7533  0.2782  1.9316
   76SLPC   C28 6858   0.365   6.072   6.584  0.2418 -0.2146 -0.1109
   76SLPC   H8R 6859   0.335   6.176   6.561  0.7911 -0.2308 -0.9533
   76SLPC   H8S 6860   0.268   6.017   6.591 -0.2158  0.6785  0.6946
   76SLPC   C29 6861   0.440   6.016   6.466  0.7608 -0.3457  0.2590
   76SLPC   H9R 6862   0.513   5.937   6.490 -2.6986 -3.6096  1.0231
   76SLPC  C210 6863   0.413   6.056   6.339 -0.0812  0.8441 -0.0394
   76SLPC  H10R 6864   0.469   6.008   6.257  1.2148 -0.0029  1.3036
   76SLPC  C211 6865   0.308   6.160   6.303 -0.8940  0.1887  0.3709
   76SLPC  H11R 6866   0.369   6.238   6.253 -1.4637 -0.9441 -2.2093
   76SLPC  H11S 6867   0.257   6.200   6.393 -1.0768 -0.0272  0.3637
   76SLPC  C212 6868   0.206   6.096   6.216  0.8002  0.0572  0.6060
   76SLPC  H12R 6869   0.205   5.986   6.212 -1.9021 -0.0923  2.6138
   76SLPC  C213 6870   0.118   6.163   6.138 -0.1087 -0.4773 -0.0327
   76SLPC  H13R 6871   0.062   6.098   6.069  0.7213  0.5092 -1.6894
   76SLPC  C214 6872   0.106   6.321   6.126  0.1147  0.5889 -0.2035
   76SLPC  H14R 6873   0.146   6.377   6.213 -1.3431 -0.5053  1.2407
   76SLPC  H14S 6874   0.003   6.361   6.124 -0.7734 -1.5542 -0.3826
   76SLPC  C215 6875   0.184   6.368   6.000 -0.5555  0.9951  0.5549
   76SLPC  H15R 6876   0.145   6.323   5.906  0.7660  1.9752 -0.5114
   76SLPC  H15S 6877   0.289   6.334   6.009  0.0799  3.0213  1.6235
   76SLPC  C216 6878   0.186   6.516   5.992  0.3078  0.4664 -0.6449
   76SLPC  H16R 6879   0.282   6.559   5.957  0.8642  1.1630  1.5441
   76SLPC  H16S 6880   0.174   6.560   6.094 -1.0098 -3.1198  0.9061
   76SLPC  C217 6881   0.061   6.567   5.913 -0.3736  0.5686  0.7808
   76SLPC  H17R 6882   0.038   6.673   5.935 -1.1480  0.4765  0.4716
   76SLPC  H17S 6883  -0.026   6.501   5.937  0.1322 -0.7160 -0.7510
   76SLPC  C218 6884   0.073   6.563   5.764  0.1763  0.2599  0.0236
   76SLPC  H18R 6885   0.094   6.457   5.736  1.3305  0.6121 -0.4993
   76SLPC  H18S 6886   0.164   6.620   5.737  2.1129 -2.4265  0.4043
   76SLPC  H18T 6887  -0.017   6.608   5.717  0.8505  1.4858 -0.1332
   76SLPC   C33 6888   0.599   5.506   6.890  0.0887  0.2108 -0.7550
   76SLPC   H3X 6889   0.519   5.435   6.859  0.3302  0.6647 -2.4995
   76SLPC   H3Y 6890   0.624   5.490   6.997  0.4454 -0.6115 -0.9495
   76SLPC   C34 6891   0.732   5.484   6.814 -0.1871  0.6397 -0.2526
   76SLPC   H4X 6892   0.737   5.536   6.716 -1.9391 -1.6816 -1.6688
   76SLPC   H4Y 6893   0.740   5.376   6.789  2.3169 -0.3536  3.8490
   76SLPC   C35 6894   0.853   5.519   6.905  0.2249 -0.0351 -0.5109
   76SLPC   H5X 6895   0.859   5.477   7.008  0.1480  0.7495 -0.1791
   76SLPC   H5Y 6896   0.859   5.627   6.928  0.1718 -0.2268  0.4289
   76SLPC   C36 6897   0.990   5.479   6.842 -0.4797 -0.3728 -1.3273
   76SLPC   H6X 6898   1.070   5.505   6.915  0.8506 -1.6524 -2.2845
   76SLPC   H6Y 6899   1.008   5.533   6.747 -1.8414  1.5991 -0.5368
   76SLPC   C37 6900   1.015   5.331   6.815 -0.0017 -0.2181 -0.2353
   76SLPC   H7X 6901   0.925   5.278   6.778  0.1574 -0.8706  0.2835
   76SLPC   H7Y 6902   1.039   5.274   6.908 -3.7802  0.5461  1.3996
   76SLPC   C38 6903   1.114   5.313   6.702 -0.3070 -0.6769  0.2206
   76SLPC   H8X 6904   1.146   5.206   6.701 -2.2663 -1.3213 -1.5138
   76SLPC   H8Y 6905   1.204   5.377   6.714 -0.3331 -0.5973  0.0054
   76SLPC   C39 6906   1.069   5.337   6.556 -0.6688 -1.0247 -1.5994
   76SLPC   H9X 6907   1.045   5.444   6.535  2.0600 -0.2175 -1.0382
   76SLPC   H9Y 6908   0.976   5.283   6.529 -0.5353 -2.7315  1.0392
   76SLPC  C310 6909   1.177   5.303   6.459  0.3607  0.2517 -0.8128
   76SLPC  H10X 6910   1.205   5.196   6.449 -0.4813  0.0206 -0.7498
   76SLPC  H10Y 6911   1.268   5.363   6.482 -0.2037  1.6422 -2.1170
   76SLPC  C311 6912   1.138   5.333   6.314  0.7546 -0.5759  0.0222
   76SLPC  H11X 6913   1.120   5.442   6.318 -1.5337 -0.8965 -0.3954
   76SLPC  H11Y 6914   1.042   5.279   6.300 -1.3927  2.7243  0.9007
   76SLPC  C312 6915   1.244   5.307   6.204 -0.5006 -0.2416  0.5327
   76SLPC  H12X 6916   1.277   5.204   6.229 -0.0503 -0.6120 -1.4626
   76SLPC  H12Y 6917   1.332   5.371   6.225  1.2430 -2.3946  0.1732
   76SLPC  C313 6918   1.192   5.317   6.063  0.0627  0.2778 -0.0396
   76SLPC  H13X 6919   1.170   5.425   6.048  0.9841  0.5023  0.2029
   76SLPC  H13Y 6920   1.096   5.261   6.052  0.6342 -0.4263 -1.5946
   76SLPC  C314 6921   1.302   5.269   5.964  0.1816 -0.8686 -0.4033
   76SLPC  H14X 6922   1.321   5.160   5.977 -0.1654 -0.7815  1.1034
   76SLPC  H14Y 6923   1.400   5.318   5.979 -0.1644 -0.5047  0.7949
   76SLPC  C315 6924   1.271   5.283   5.815 -0.0057 -0.3734  0.0044
   76SLPC  H15X 6925   1.182   5.217   5.803 -1.6063  1.9599 -1.6136
   76SLPC  H15Y 6926   1.351   5.247   5.747  0.1821  1.7315 -0.9446
   76SLPC  C316 6927   1.243   5.429   5.764  0.0326  0.7015  0.2268
   76SLPC  H16X 6928   1.336   5.490   5.768 -0.8520  2.3697 -2.1241
   76SLPC  H16Y 6929   1.163   5.459   5.834  0.5791 -1.3230  1.8397
   76SLPC  C317 6930   1.181   5.436   5.625  0.0013  0.0536  0.0075
   76SLPC  H17X 6931   1.128   5.533   5.619 -1.0280 -0.4791  0.3148
   76SLPC  H17Y 6932   1.100   5.361   5.612  1.1933 -1.9824  3.0089
   76SLPC  C318 6933   1.282   5.444   5.514 -0.2691 -0.0153  0.4674
   76SLPC  H18X 6934   1.373   5.387   5.545 -0.7828 -2.3063 -1.8391
   76SLPC  H18Y 6935   1.311   5.549   5.493 -3.2192  0.4869 -1.8078
   76SLPC  H18Z 6936   1.232   5.413   5.420 -0.0254 -0.4728  0.4816
   77SLPC     N 6937   5.059   3.961   7.365  0.2481  0.3935 -0.0435
   77SLPC   C13 6938   4.954   3.880   7.439  0.1358  0.7552  0.2169
   77SLPC  H13A 6939   4.876   3.848   7.371  1.1362 -1.5675  0.0915
   77SLPC  H13B 6940   5.007   3.805   7.496 -0.9489 -0.8276 -0.7768
   77SLPC  H13C 6941   4.906   3.939   7.517 -0.8452  1.7678 -1.0959
   77SLPC   C14 6942   5.137   4.027   7.470  0.7354 -1.0199 -0.3155
   77SLPC  H14A 6943   5.178   4.119   7.428 -0.9521  0.3926  0.9896
   77SLPC  H14B 6944   5.079   4.052   7.557 -0.5045 -2.0039 -0.8303
   77SLPC  H14C 6945   5.220   3.970   7.508  1.7983  2.0632  2.4129
   77SLPC   C15 6946   4.977   4.061   7.286  0.3671 -0.3673  0.5263
   77SLPC  H15A 6947   4.901   4.020   7.220 -0.2498 -1.1642  1.6984
   77SLPC  H15B 6948   4.929   4.127   7.357 -0.0620  2.5797 -2.2453
   77SLPC  H15C 6949   5.046   4.116   7.224 -1.1085  0.3847 -0.5077
   77SLPC   C12 6950   5.137   3.869   7.276 -0.0617  0.2304 -0.6118
   77SLPC  H12A 6951   5.060   3.816   7.222 -1.5374 -1.1279  2.5545
   77SLPC  H12B 6952   5.178   3.787   7.334  0.2027  1.3740  0.8681
   77SLPC   C11 6953   5.235   3.938   7.181 -0.1968 -0.2438  0.4491
   77SLPC  H11A 6954   5.170   4.002   7.117  2.2415  0.2060 -1.7599
   77SLPC  H11B 6955   5.268   3.857   7.114 -1.3182 -0.1089 -0.2953
   77SLPC     P 6956   5.389   4.139   7.184 -0.0955  0.2594  0.4419
   77SLPC   O13 6957   5.283   4.241   7.211 -0.0558 -0.2445 -0.0070
   77SLPC   O14 6958   5.524   4.168   7.231 -0.3136  0.3598  0.1744
   77SLPC   O12 6959   5.350   3.996   7.240  0.0165 -0.3836  0.1235
   77SLPC   O11 6960   5.384   4.107   7.028  0.3032  0.4202  0.1784
   77SLPC    C1 6961   5.475   4.008   6.973  0.6235  0.0675  0.2438
   77SLPC    HA 6962   5.512   3.928   7.040 -0.8732  0.0065  1.0275
   77SLPC    HB 6963   5.425   3.956   6.889  0.7609 -1.9956  1.3745
   77SLPC    C2 6964   5.607   4.081   6.934 -0.2929  0.2067  0.5490
   77SLPC    HS 6965   5.653   4.127   7.024 -2.0666  3.1233  0.0970
   77SLPC   O21 6966   5.585   4.186   6.837  0.5173 -0.8731  0.4960
   77SLPC   C21 6967   5.672   4.294   6.832  0.3892  0.3336  0.4594
   77SLPC   O22 6968   5.775   4.299   6.894  0.0487  0.6634  0.6587
   77SLPC   C22 6969   5.616   4.388   6.726  0.1079  0.2058  0.4275
   77SLPC   H2R 6970   5.508   4.410   6.741  0.1004  0.7663 -0.3532
   77SLPC   H2S 6971   5.677   4.479   6.744  2.1526 -0.9075 -0.5623
   77SLPC    C3 6972   5.709   3.979   6.866 -0.7321 -0.5531 -0.1174
   77SLPC    HX 6973   5.761   3.922   6.947  0.1078  0.7461  0.3053
   77SLPC    HY 6974   5.795   4.039   6.829  0.0971 -0.1906  2.1739
   77SLPC   O31 6975   5.657   3.905   6.750 -0.0066  0.0237  0.2416
   77SLPC   C31 6976   5.744   3.840   6.669  0.2907 -0.0726  0.5558
   77SLPC   O32 6977   5.863   3.829   6.692 -0.2486  0.0975  0.3472
   77SLPC   C32 6978   5.671   3.769   6.553  0.2923  0.2089 -0.2114
   77SLPC   H2X 6979   5.570   3.815   6.550  1.4238  2.8350 -1.4684
   77SLPC   H2Y 6980   5.656   3.659   6.551  0.5169  0.1559 -2.6700
   77SLPC   C23 6981   5.653   4.336   6.585 -0.1277  0.1214  0.0952
   77SLPC   H3R 6982   5.647   4.226   6.572  1.8011 -0.0878  0.7205
   77SLPC   H3S 6983   5.759   4.361   6.563 -0.3530  1.4502  0.4233
   77SLPC   C24 6984   5.560   4.386   6.469 -0.5776  0.5344 -0.3974
   77SLPC   H4R 6985   5.571   4.494   6.447  2.4718 -0.0722 -2.5931
   77SLPC   H4S 6986   5.451   4.380   6.488 -1.1810  3.9977 -1.9876
   77SLPC   C25 6987   5.580   4.321   6.325 -1.0936 -0.7678 -0.3129
   77SLPC   H5R 6988   5.572   4.210   6.333  0.3964 -1.0741 -2.2501
   77SLPC   H5S 6989   5.687   4.343   6.305 -1.0055 -3.4473 -3.7909
   77SLPC   C26 6990   5.496   4.394   6.223  0.3139 -0.4769 -0.2247
   77SLPC   H6R 6991   5.519   4.503   6.225  0.9958 -0.5533  3.1924
   77SLPC   H6S 6992   5.392   4.383   6.260  1.0019 -5.7689  0.9048
   77SLPC   C27 6993   5.528   4.334   6.083  0.2964 -0.1059  0.0228
   77SLPC   H7R 6994   5.492   4.229   6.082  0.4694 -0.1653 -0.0024
   77SLPC   H7S 6995   5.635   4.353   6.062  0.2269  0.1147 -0.1457
   77SLPC   C28 6996   5.473   4.414   5.966 -0.4113 -0.3303 -0.1304
   77SLPC   H8R 6997   5.362   4.414   5.968 -0.4560  0.2502 -1.5665
   77SLPC   H8S 6998   5.489   4.357   5.873 -0.8523 -1.0872  0.2510
   77SLPC   C29 6999   5.511   4.562   5.960 -0.2755  0.4257 -0.2041
   77SLPC   H9R 7000   5.436   4.620   6.016  0.0763  0.2269  0.4822
   77SLPC  C210 7001   5.617   4.617   5.903  0.6801 -0.4620 -1.1379
   77SLPC  H10R 7002   5.635   4.722   5.930  1.9699 -1.1575  0.9576
   77SLPC  C211 7003   5.718   4.561   5.815  0.0206 -0.2280  0.1130
   77SLPC  H11R 7004   5.780   4.648   5.782  0.7895 -0.2169  1.5296
   77SLPC  H11S 7005   5.683   4.514   5.720  0.1539  1.4958 -0.8443
   77SLPC  C212 7006   5.812   4.458   5.869 -1.0428 -0.0638  0.0689
   77SLPC  H12R 7007   5.807   4.358   5.823  2.2995 -0.2166 -0.1844
   77SLPC  C213 7008   5.909   4.482   5.961  0.4660 -0.2736  0.3938
   77SLPC  H13R 7009   5.964   4.393   5.994  0.5437 -0.1465  0.6049
   77SLPC  C214 7010   5.936   4.616   6.024 -0.1814  0.3353 -0.5895
   77SLPC  H14R 7011   5.884   4.701   5.976 -0.4263  0.9983  0.7881
   77SLPC  H14S 7012   6.044   4.636   6.008  0.4274 -1.0902  1.3204
   77SLPC  C215 7013   5.908   4.613   6.181  0.1115 -0.2798 -0.1539
   77SLPC  H15R 7014   5.862   4.516   6.211  0.2536  0.1549  1.5514
   77SLPC  H15S 7015   5.830   4.692   6.189 -2.9541 -3.1739  0.8034
   77SLPC  C216 7016   6.034   4.668   6.268 -0.2649 -0.5827  0.1344
   77SLPC  H16R 7017   6.066   4.770   6.237 -0.6509 -0.7501 -0.8391
   77SLPC  H16S 7018   6.119   4.600   6.244  1.2563  1.0692  0.6717
   77SLPC  C217 7019   6.006   4.658   6.419  0.2582 -0.0309  1.2027
   77SLPC  H17R 7020   5.911   4.712   6.439  0.3629  0.7881 -0.3694
   77SLPC  H17S 7021   6.083   4.719   6.471 -0.1203  1.7711 -0.2674
   77SLPC  C218 7022   6.005   4.513   6.473 -0.5477 -0.2923 -0.4693
   77SLPC  H18R 7023   5.985   4.515   6.583 -1.0595 -0.5056 -0.5536
   77SLPC  H18S 7024   6.104   4.463   6.466  0.6905  1.6809  1.5612
   77SLPC  H18T 7025   5.932   4.448   6.420 -0.8909 -0.4705  0.2024
   77SLPC   C33 7026   5.742   3.800   6.420 -0.1341 -0.1515  0.9143
   77SLPC   H3X 7027   5.703   3.729   6.344 -0.7131  0.4514  0.6351
   77SLPC   H3Y 7028   5.853   3.789   6.411 -0.3240 -3.5223  1.5732
   77SLPC   C34 7029   5.712   3.948   6.390 -0.7337  0.3715  0.5091
   77SLPC   H4X 7030   5.755   4.004   6.475 -0.2922 -0.4098  0.8106
   77SLPC   H4Y 7031   5.603   3.968   6.391 -0.6746  0.7822  2.7054
   77SLPC   C35 7032   5.757   3.983   6.247  0.6468  0.7546  0.2145
   77SLPC   H5X 7033   5.864   3.958   6.262  0.8325  1.7882  0.6864
   77SLPC   H5Y 7034   5.753   4.093   6.229 -2.2308  0.5098 -1.3402
   77SLPC   C36 7035   5.684   3.911   6.132  0.0412  0.6239  0.3056
   77SLPC   H6X 7036   5.585   3.959   6.116 -1.8482 -3.4767 -2.2277
   77SLPC   H6Y 7037   5.660   3.805   6.156 -0.9222  1.4386  3.3247
   77SLPC   C37 7038   5.747   3.913   6.000 -0.3475 -0.2665  0.6228
   77SLPC   H7X 7039   5.688   3.846   5.933 -2.3610  0.6436  1.3985
   77SLPC   H7Y 7040   5.849   3.873   6.016  0.3599  1.2207 -0.0201
   77SLPC   C38 7041   5.767   4.051   5.928 -0.6403 -0.7472 -0.7640
   77SLPC   H8X 7042   5.838   4.113   5.988  1.3167 -2.7637 -0.8751
   77SLPC   H8Y 7043   5.666   4.095   5.917  0.2017  1.3065 -0.7839
   77SLPC   C39 7044   5.828   4.033   5.792 -0.2691 -0.0862  0.1381
   77SLPC   H9X 7045   5.907   3.955   5.806  1.6706  1.4078 -1.8321
   77SLPC   H9Y 7046   5.874   4.129   5.762 -1.5358  0.1177 -1.2367
   77SLPC  C310 7047   5.730   4.000   5.680 -0.1024 -0.0055  0.2474
   77SLPC  H10X 7048   5.652   4.079   5.681  1.3479  1.6187 -2.1126
   77SLPC  H10Y 7049   5.684   3.901   5.697 -3.5382  1.6696  1.5401
   77SLPC  C311 7050   5.789   3.995   5.541 -0.5281  0.0213 -0.1852
   77SLPC  H11X 7051   5.850   3.904   5.524 -1.6771 -0.7788 -0.1073
   77SLPC  H11Y 7052   5.866   4.075   5.536 -0.4680  0.1711  2.0494
   77SLPC  C312 7053   5.679   4.003   5.434  0.1843  0.5901  0.8282
   77SLPC  H12X 7054   5.729   4.029   5.338 -0.2866  0.6019  0.5827
   77SLPC  H12Y 7055   5.606   4.082   5.460  0.3372  0.5527  1.3826
   77SLPC  C313 7056   5.606   3.869   5.417  0.3100  0.0380  0.5395
   77SLPC  H13X 7057   5.554   3.854   5.514  0.8164  3.1789  1.3955
   77SLPC  H13Y 7058   5.687   3.793   5.406  0.1853 -0.1234  0.7267
   77SLPC  C314 7059   5.514   3.857   5.293  0.2712 -0.1766  0.6620
   77SLPC  H14X 7060   5.573   3.865   5.199  1.2275 -1.6889  1.0993
   77SLPC  H14Y 7061   5.439   3.938   5.290 -1.1979 -1.4129  1.8794
   77SLPC  C315 7062   5.431   3.723   5.298  0.4641 -0.6396  0.4333
   77SLPC  H15X 7063   5.353   3.730   5.220  0.1817  0.9226  0.8203
   77SLPC  H15Y 7064   5.379   3.703   5.394  0.7372 -1.8175  0.3515
   77SLPC  C316 7065   5.519   3.603   5.275 -0.0517 -0.5045 -0.4540
   77SLPC  H16X 7066   5.577   3.596   5.369 -1.7713  0.6870  0.7531
   77SLPC  H16Y 7067   5.597   3.596   5.195  0.9598 -1.3168  0.5718
   77SLPC  C317 7068   5.432   3.487   5.235 -0.0616 -0.7638 -0.6035
   77SLPC  H17X 7069   5.444   3.458   5.128 -3.2203 -1.3125 -0.9095
   77SLPC  H17Y 7070   5.328   3.519   5.258  0.7521  2.5383 -1.0398
   77SLPC  C318 7071   5.479   3.363   5.311  0.2059 -0.1429 -0.5865
   77SLPC  H18X 7072   5.585   3.382   5.338 -0.8711  1.3887  3.0560
   77SLPC  H18Y 7073   5.477   3.271   5.248  1.1478 -0.0605 -0.7532
   77SLPC  H18Z 7074   5.420   3.348   5.404  0.0666 -1.4988 -0.8643
   78SLPC     N 7075   4.911   2.512   7.348 -0.1323  0.0747 -0.2389
   78SLPC   C13 7076   4.857   2.395   7.417  0.4223  0.4315 -0.4551
   78SLPC  H13A 7077   4.932   2.366   7.489 -1.8626 -0.7877  1.5946
   78SLPC  H13B 7078   4.774   2.426   7.478  0.9427 -2.0338  1.6894
   78SLPC  H13C 7079   4.834   2.326   7.337  3.8597  0.0151 -1.2440
   78SLPC   C14 7080   5.024   2.464   7.262 -0.1791 -0.1322 -0.2579
   78SLPC  H14A 7081   5.008   2.382   7.194  1.4327 -0.5483 -0.1631
   78SLPC  H14B 7082   5.067   2.544   7.204  2.8149 -0.6517  1.0454
   78SLPC  H14C 7083   5.106   2.437   7.326 -0.9474 -1.1440  0.3272
   78SLPC   C15 7084   4.964   2.600   7.458  0.3219 -0.7405 -0.0846
   78SLPC  H15A 7085   5.009   2.688   7.412 -0.4635  0.2433  0.9783
   78SLPC  H15B 7086   4.884   2.631   7.523 -0.4345 -0.1354 -1.2643
   78SLPC  H15C 7087   5.038   2.554   7.522  0.9073  0.6762  0.3134
   78SLPC   C12 7088   4.806   2.587   7.274  0.1166  0.1717 -0.7322
   78SLPC  H12A 7089   4.731   2.625   7.341 -1.5040  1.3777 -3.0777
   78SLPC  H12B 7090   4.753   2.526   7.203 -1.9848 -0.6442  1.4179
   78SLPC   C11 7091   4.849   2.714   7.200  0.6007  0.5122  0.3155
   78SLPC  H11A 7092   4.766   2.718   7.126  0.1615 -0.2830  0.7511
   78SLPC  H11B 7093   4.933   2.714   7.127 -0.2196  1.2325 -0.6635
   78SLPC     P 7094   4.980   2.927   7.273 -0.3981  0.3742 -0.1630
   78SLPC   O13 7095   4.978   3.022   7.383 -0.0880 -0.4635  0.1403
   78SLPC   O14 7096   5.108   2.853   7.254 -0.5571 -0.4355  0.0256
   78SLPC   O12 7097   4.857   2.825   7.291 -0.0946 -0.2050 -0.2190
   78SLPC   O11 7098   4.945   3.010   7.147  0.3682 -0.6326  0.0749
   78SLPC    C1 7099   4.815   3.053   7.113 -0.0177  0.5651 -0.0781
   78SLPC    HA 7100   4.734   2.976   7.116  0.8196 -0.4062 -1.2304
   78SLPC    HB 7101   4.790   3.134   7.184  0.9173  0.6225  0.1982
   78SLPC    C2 7102   4.825   3.120   6.977  0.1946  0.4598  0.2471
   78SLPC    HS 7103   4.733   3.179   6.960 -0.1512  0.6530  2.4164
   78SLPC   O21 7104   4.838   3.031   6.868 -0.9583 -1.1134  0.3028
   78SLPC   C21 7105   4.743   2.948   6.855  0.2901 -0.9484  0.1443
   78SLPC   O22 7106   4.630   2.954   6.898  0.5137  0.4448 -0.6374
   78SLPC   C22 7107   4.782   2.859   6.735  0.1151  1.0150  0.0148
   78SLPC   H2R 7108   4.837   2.913   6.654 -0.5279  1.1120 -0.3645
   78SLPC   H2S 7109   4.854   2.786   6.778 -0.3788  1.0849  0.9657
   78SLPC    C3 7110   4.950   3.218   6.979  0.7020  0.9471  0.5605
   78SLPC    HX 7111   5.041   3.160   7.002 -0.6077 -1.1575  0.7478
   78SLPC    HY 7112   4.929   3.294   7.057  0.4854  0.5458  0.8933
   78SLPC   O31 7113   4.983   3.278   6.846  0.0253 -0.0335  0.5671
   78SLPC   C31 7114   4.891   3.370   6.798  0.3685  0.2773  0.0272
   78SLPC   O32 7115   4.794   3.402   6.861 -1.3432 -0.1599 -0.2642
   78SLPC   C32 7116   4.919   3.416   6.656  0.7731  0.0226 -0.3847
   78SLPC   H2X 7117   5.015   3.472   6.654  1.1263 -0.5809 -0.7827
   78SLPC   H2Y 7118   4.844   3.492   6.625  0.3460 -0.6547 -1.0394
   78SLPC   C23 7119   4.656   2.798   6.663 -0.5234  0.7857  0.1159
   78SLPC   H3R 7120   4.591   2.887   6.644  0.6669  1.3919 -1.2877
   78SLPC   H3S 7121   4.611   2.737   6.745  0.1789  0.6067  0.3727
   78SLPC   C24 7122   4.680   2.722   6.538 -0.2769  0.2636  0.3623
   78SLPC   H4R 7123   4.585   2.706   6.482  1.2873  0.4233 -2.5204
   78SLPC   H4S 7124   4.727   2.625   6.562 -1.2133 -0.3690 -0.3105
   78SLPC   C25 7125   4.764   2.796   6.432  0.3450  0.2537 -0.4718
   78SLPC   H5R 7126   4.871   2.814   6.455 -0.0965  1.8964  0.5044
   78SLPC   H5S 7127   4.714   2.895   6.429 -0.6962 -0.2221  0.6128
   78SLPC   C26 7128   4.762   2.725   6.294  0.1188 -0.4781  0.4335
   78SLPC   H6R 7129   4.661   2.723   6.247  0.2609 -1.8051  0.1575
   78SLPC   H6S 7130   4.788   2.620   6.317 -1.7200 -0.6319  2.0973
   78SLPC   C27 7131   4.874   2.770   6.206  0.1002  0.5599 -0.0565
   78SLPC   H7R 7132   4.966   2.774   6.268  1.0644  4.0155 -1.4607
   78SLPC   H7S 7133   4.854   2.870   6.163 -1.7327  0.3114  0.1524
   78SLPC   C28 7134   4.903   2.676   6.084 -0.6434 -0.8779 -1.0021
   78SLPC   H8R 7135   4.948   2.577   6.106 -1.9303 -1.3910 -0.5983
   78SLPC   H8S 7136   4.982   2.726   6.024 -1.6732 -1.5122 -2.9535
   78SLPC   C29 7137   4.778   2.642   6.007 -0.4894  0.5094 -0.3040
   78SLPC   H9R 7138   4.703   2.584   6.063  0.4176 -0.9608 -0.5430
   78SLPC  C210 7139   4.742   2.688   5.889 -0.1794 -0.3364 -0.5772
   78SLPC  H10R 7140   4.644   2.657   5.849 -1.0844  1.6935 -0.0687
   78SLPC  C211 7141   4.819   2.781   5.801  0.7960  0.3595 -0.3742
   78SLPC  H11R 7142   4.882   2.853   5.858  1.0522  0.9912 -1.4289
   78SLPC  H11S 7143   4.744   2.848   5.754  0.5668 -1.3885 -2.6521
   78SLPC  C212 7144   4.900   2.720   5.699 -0.2321  0.1391 -0.2045
   78SLPC  H12R 7145   4.914   2.611   5.700  1.0574  0.2867  0.7750
   78SLPC  C213 7146   4.989   2.781   5.610  0.4161  1.0114  0.2893
   78SLPC  H13R 7147   5.048   2.721   5.539  0.7181 -1.7754  2.7262
   78SLPC  C214 7148   5.015   2.928   5.611  0.4317  0.2407  0.4623
   78SLPC  H14R 7149   5.116   2.945   5.652  0.8094 -0.3218 -0.2154
   78SLPC  H14S 7150   4.954   2.983   5.686 -2.5192 -0.9089 -0.9307
   78SLPC  C215 7151   5.002   2.995   5.472 -0.2555  0.1853  0.0333
   78SLPC  H15R 7152   5.103   2.987   5.428 -0.8971 -2.5953 -1.1147
   78SLPC  H15S 7153   4.972   3.101   5.488 -2.4802 -0.6614  2.1083
   78SLPC  C216 7154   4.888   2.946   5.385 -0.1771 -0.3500 -0.1338
   78SLPC  H16R 7155   4.798   2.941   5.449  0.6921  1.2811  1.2923
   78SLPC  H16S 7156   4.914   2.844   5.347 -0.8507  0.1451 -2.0630
   78SLPC  C217 7157   4.862   3.051   5.271 -0.7190  0.4701 -0.2592
   78SLPC  H17R 7158   4.843   3.148   5.323  1.1231 -0.1969  1.8316
   78SLPC  H17S 7159   4.766   3.034   5.218 -2.3669  2.3188  1.9283
   78SLPC  C218 7160   4.969   3.075   5.167 -0.7968 -0.3013  0.3791
   78SLPC  H18R 7161   5.064   3.075   5.225 -1.5867  1.1245  1.7456
   78SLPC  H18S 7162   4.959   3.179   5.129 -1.7708  0.6899  3.1061
   78SLPC  H18T 7163   4.973   2.992   5.094 -1.2194 -0.9691  1.1004
   78SLPC   C33 7164   4.923   3.297   6.554 -0.0626  0.4670 -0.1699
   78SLPC   H3X 7165   4.822   3.251   6.550  0.0664  0.2038 -0.4402
   78SLPC   H3Y 7166   4.988   3.214   6.590 -0.6966  0.1817  0.3385
   78SLPC   C34 7167   4.980   3.334   6.420  0.4600  0.0277  0.6322
   78SLPC   H4X 7168   5.090   3.343   6.416  0.4675 -0.1828  0.3338
   78SLPC   H4Y 7169   4.932   3.422   6.371 -0.6457  0.0892  1.7795
   78SLPC   C35 7170   4.945   3.222   6.310  0.8366  0.0909 -0.2735
   78SLPC   H5X 7171   4.834   3.230   6.299  0.6788  0.2416  1.1611
   78SLPC   H5Y 7172   4.968   3.121   6.351  1.5474  0.9151  1.4449
   78SLPC   C36 7173   5.002   3.261   6.178 -0.8597 -0.2030 -0.3569
   78SLPC   H6X 7174   5.113   3.262   6.168 -0.7132 -0.0296  1.1205
   78SLPC   H6Y 7175   4.986   3.368   6.153 -0.4530  0.2281  1.1189
   78SLPC   C37 7176   4.936   3.177   6.069  0.7065  0.5880 -0.7596
   78SLPC   H7X 7177   4.838   3.222   6.042  0.0541  1.2989  2.3488
   78SLPC   H7Y 7178   4.924   3.074   6.109  1.1477  0.3230 -1.2931
   78SLPC   C38 7179   5.026   3.153   5.949 -0.6638 -0.1750  0.1420
   78SLPC   H8X 7180   4.983   3.074   5.884 -0.4270  0.3896 -0.7154
   78SLPC   H8Y 7181   5.120   3.110   5.991 -0.1003  1.5410  0.7303
   78SLPC   C39 7182   5.075   3.277   5.880  0.0172  0.3301  0.5187
   78SLPC   H9X 7183   5.109   3.361   5.945  2.2727  0.3552 -0.5949
   78SLPC   H9Y 7184   4.994   3.313   5.814 -2.2175 -1.7558  1.9899
   78SLPC  C310 7185   5.196   3.239   5.779  0.3554 -0.1182 -0.2652
   78SLPC  H10X 7186   5.164   3.142   5.735 -2.0422 -0.2747  1.6065
   78SLPC  H10Y 7187   5.296   3.223   5.825  0.7396  1.7320 -0.3606
   78SLPC  C311 7188   5.224   3.350   5.673 -0.2891  0.9546  0.1579
   78SLPC  H11X 7189   5.286   3.307   5.591 -0.8315 -1.2412  0.8249
   78SLPC  H11Y 7190   5.297   3.416   5.725  1.5094 -0.8550  0.0465
   78SLPC  C312 7191   5.110   3.428   5.619  0.8258  0.2343 -0.7370
   78SLPC  H12X 7192   5.059   3.486   5.699  1.1949 -1.0422  0.4651
   78SLPC  H12Y 7193   5.038   3.350   5.587 -1.3964  0.7064  2.5853
   78SLPC  C313 7194   5.148   3.522   5.514  0.3418  0.1568 -0.3148
   78SLPC  H13X 7195   5.200   3.476   5.426  0.2929 -0.0414 -0.2397
   78SLPC  H13Y 7196   5.206   3.608   5.552 -1.1321  1.9171 -1.8470
   78SLPC  C314 7197   5.022   3.588   5.451  0.1063 -0.1467 -1.0226
   78SLPC  H14X 7198   4.976   3.643   5.536  1.2544  1.3418 -1.3073
   78SLPC  H14Y 7199   4.955   3.503   5.425 -0.8613  0.4902 -0.6643
   78SLPC  C315 7200   5.045   3.686   5.341 -0.2520  0.3917  0.8880
   78SLPC  H15X 7201   5.090   3.627   5.258  0.1220  3.9331 -1.6906
   78SLPC  H15Y 7202   5.110   3.769   5.377  0.8799  0.0274 -0.2191
   78SLPC  C316 7203   4.913   3.745   5.295 -0.8036 -0.2257 -0.1490
   78SLPC  H16X 7204   4.880   3.810   5.379 -0.9266 -1.1135  0.5012
   78SLPC  H16Y 7205   4.835   3.665   5.286 -1.4921  0.1669  1.7437
   78SLPC  C317 7206   4.911   3.814   5.162  0.2440 -0.0975 -0.0480
   78SLPC  H17X 7207   4.809   3.842   5.127  1.3098  2.0425 -1.6553
   78SLPC  H17Y 7208   4.945   3.740   5.087  2.5046 -0.0430  0.8512
   78SLPC  C318 7209   5.007   3.926   5.148 -0.3392 -0.3067 -0.4984
   78SLPC  H18X 7210   5.095   3.909   5.214 -0.6696 -0.4203 -0.0823
   78SLPC  H18Y 7211   4.954   4.021   5.173  0.0166 -0.7323  2.2146
   78SLPC  H18Z 7212   5.042   3.951   5.046 -0.0212 -1.4492 -0.6780
   79SLPC     N 7213   1.349   0.402   7.691  0.0103 -0.2688  0.0840
   79SLPC   C13 7214   1.204   0.370   7.689 -0.8395 -0.0171  0.3104
   79SLPC  H13A 7215   1.182   0.312   7.601 -1.5236 -1.1410  1.1983
   79SLPC  H13B 7216   1.180   0.325   7.785  1.3629  0.2753  1.0365
   79SLPC  H13C 7217   1.152   0.464   7.672  1.7366  1.3696 -0.3453
   79SLPC   C14 7218   1.383   0.458   7.819 -0.1838 -0.5268 -0.7111
   79SLPC  H14A 7219   1.361   0.382   7.893  0.9403  0.3021  0.5279
   79SLPC  H14B 7220   1.490   0.464   7.826  0.1215 -2.7515 -2.3005
   79SLPC  H14C 7221   1.323   0.545   7.840  1.7264  0.8257 -0.5730
   79SLPC   C15 7222   1.386   0.496   7.581 -0.4140 -0.2273 -0.0330
   79SLPC  H15A 7223   1.478   0.547   7.607 -0.1374 -1.8142  2.3828
   79SLPC  H15B 7224   1.406   0.437   7.493  0.1199 -1.5089  0.9152
   79SLPC  H15C 7225   1.313   0.568   7.548 -0.8092 -0.1427  0.9932
   79SLPC   C12 7226   1.432   0.282   7.659  0.0570  0.3236 -0.4391
   79SLPC  H12A 7227   1.426   0.211   7.740  0.4864 -1.0574 -1.5646
   79SLPC  H12B 7228   1.536   0.310   7.659  0.5009 -1.1130  1.5683
   79SLPC   C11 7229   1.400   0.197   7.532 -0.4327 -0.9632  0.5313
   79SLPC  H11A 7230   1.477   0.122   7.505  0.1206  0.0034 -0.6789
   79SLPC  H11B 7231   1.417   0.266   7.447 -0.0521 -0.8912  0.6637
   79SLPC     P 7232   1.220   0.018   7.602 -0.4407 -0.0078  0.2789
   79SLPC   O13 7233   1.335  -0.054   7.663 -0.4800 -0.3018 -0.1103
   79SLPC   O14 7234   1.102   0.047   7.683  0.4601  0.7218 -0.3278
   79SLPC   O12 7235   1.269   0.157   7.525  0.2998 -0.5156 -0.3781
   79SLPC   O11 7236   1.170  -0.074   7.487 -0.7195  0.7576  0.1518
   79SLPC    C1 7237   1.084  -0.017   7.388 -0.2952  0.2576 -0.3277
   79SLPC    HA 7238   0.984  -0.066   7.399 -0.4736  0.2363 -1.8884
   79SLPC    HB 7239   1.059   0.090   7.405 -2.2694 -0.1181 -0.6291
   79SLPC    C2 7240   1.128  -0.018   7.241  0.2322  0.4170  0.0158
   79SLPC    HS 7241   1.036   0.016   7.188 -0.4909 -2.4609 -0.7453
   79SLPC   O21 7242   1.163  -0.145   7.183  0.0722 -0.5245  0.6463
   79SLPC   C21 7243   1.081  -0.240   7.196 -0.1017  0.1375  0.4432
   79SLPC   O22 7244   0.970  -0.232   7.249 -0.9044 -0.1681  0.2544
   79SLPC   C22 7245   1.150  -0.363   7.146 -0.6825 -0.6137 -0.3971
   79SLPC   H2R 7246   1.218  -0.350   7.059 -1.2200 -1.2295 -0.9150
   79SLPC   H2S 7247   1.201  -0.400   7.237 -0.3350  0.7647 -0.0089
   79SLPC    C3 7248   1.230   0.094   7.226 -0.3925 -0.5392 -0.6232
   79SLPC    HX 7249   1.320   0.055   7.276  0.2527  2.4190  0.7660
   79SLPC    HY 7250   1.197   0.187   7.279  1.5081  0.7539 -1.6080
   79SLPC   O31 7251   1.254   0.117   7.079 -0.3535  0.2757 -0.0090
   79SLPC   C31 7252   1.338   0.223   7.059  0.3799  0.1173  0.7482
   79SLPC   O32 7253   1.399   0.279   7.143 -0.7399 -0.2570 -0.2461
   79SLPC   C32 7254   1.342   0.254   6.910  0.0582 -0.3235 -0.6340
   79SLPC   H2X 7255   1.263   0.328   6.884 -0.0059 -1.8093 -5.6905
   79SLPC   H2Y 7256   1.320   0.164   6.848 -0.1468 -0.9255  0.3045
   79SLPC   C23 7257   1.050  -0.472   7.102  0.5508  0.0979 -0.8149
   79SLPC   H3R 7258   0.985  -0.493   7.190  3.3556 -0.7221  1.1994
   79SLPC   H3S 7259   1.110  -0.565   7.095 -0.8459 -1.0528  1.3434
   79SLPC   C24 7260   0.985  -0.446   6.964 -0.4261 -1.0955  0.4976
   79SLPC   H4R 7261   0.953  -0.340   6.966  0.3694 -0.8409  2.2515
   79SLPC   H4S 7262   0.887  -0.498   6.959 -0.6550 -0.6007 -0.3291
   79SLPC   C25 7263   1.073  -0.473   6.852 -0.6333 -0.2988 -0.7489
   79SLPC   H5R 7264   1.112  -0.577   6.852  2.0446  0.6378 -0.7750
   79SLPC   H5S 7265   1.163  -0.409   6.863  0.3032 -1.9343  2.1264
   79SLPC   C26 7266   1.003  -0.466   6.715  0.1249  0.5571 -0.4344
   79SLPC   H6R 7267   1.078  -0.421   6.647  0.4595 -1.5635 -1.5592
   79SLPC   H6S 7268   0.914  -0.400   6.727  0.6077  2.0971 -3.9758
   79SLPC   C27 7269   0.963  -0.596   6.645  0.3405 -0.0751 -0.3959
   79SLPC   H7R 7270   0.912  -0.659   6.721 -0.6936  0.8963 -0.2524
   79SLPC   H7S 7271   1.055  -0.641   6.602 -0.4962 -1.4412 -0.8087
   79SLPC   C28 7272   0.864  -0.572   6.524  0.5270 -0.1668 -0.6469
   79SLPC   H8R 7273   0.780  -0.509   6.560  1.2649  0.2048  0.4476
   79SLPC   H8S 7274   0.816  -0.668   6.495 -0.3691  0.5924 -1.7849
   79SLPC   C29 7275   0.947  -0.509   6.414 -0.0107 -0.1063  0.8207
   79SLPC   H9R 7276   1.044  -0.461   6.434  2.3996 -2.9190 -2.8639
   79SLPC  C210 7277   0.916  -0.529   6.281 -0.1450 -0.2524  0.7672
   79SLPC  H10R 7278   0.985  -0.490   6.205  0.8754 -2.1957  0.6447
   79SLPC  C211 7279   0.786  -0.590   6.232  0.0772  0.6674 -0.3864
   79SLPC  H11R 7280   0.728  -0.520   6.167 -2.0450  1.5109  2.2311
   79SLPC  H11S 7281   0.715  -0.616   6.313 -0.4746  1.6632 -0.5317
   79SLPC  C212 7282   0.828  -0.710   6.152  0.2701  0.6075  0.6746
   79SLPC  H12R 7283   0.925  -0.757   6.171  0.2012 -1.0725 -2.5462
   79SLPC  C213 7284   0.748  -0.776   6.058 -0.3499 -0.4910 -0.8703
   79SLPC  H13R 7285   0.785  -0.868   6.010 -0.6027 -1.3581  0.5164
   79SLPC  C214 7286   0.610  -0.739   6.012  0.0449 -0.0370 -0.7847
   79SLPC  H14R 7287   0.573  -0.648   6.065  1.9083  0.0627  0.4546
   79SLPC  H14S 7288   0.540  -0.816   6.051  0.4177 -0.7073 -1.4257
   79SLPC  C215 7289   0.605  -0.724   5.859  0.5269  0.1272  0.1441
   79SLPC  H15R 7290   0.605  -0.825   5.812  1.0511  0.2836 -0.1930
   79SLPC  H15S 7291   0.692  -0.682   5.805  0.4645  0.9176  0.6404
   79SLPC  C216 7292   0.489  -0.631   5.811 -0.7149 -0.3686 -0.6986
   79SLPC  H16R 7293   0.490  -0.543   5.880  1.1190 -0.2000 -0.8779
   79SLPC  H16S 7294   0.396  -0.689   5.824 -1.3622  0.3711 -1.8519
   79SLPC  C217 7295   0.496  -0.597   5.661 -0.1965 -0.0684  0.5447
   79SLPC  H17R 7296   0.405  -0.571   5.602  0.0594 -0.5708 -0.0865
   79SLPC  H17S 7297   0.533  -0.687   5.607  1.1742  1.3887 -1.0951
   79SLPC  C218 7298   0.599  -0.487   5.625  0.2460 -0.3213  0.4687
   79SLPC  H18R 7299   0.628  -0.498   5.518 -0.3906 -0.9996  0.3595
   79SLPC  H18S 7300   0.693  -0.486   5.685 -0.1908  1.6385  1.1898
   79SLPC  H18T 7301   0.552  -0.386   5.629  0.1225 -0.3153 -0.6550
   79SLPC   C33 7302   1.484   0.319   6.879 -0.7185  0.4575  0.0816
   79SLPC   H3X 7303   1.571   0.251   6.892  0.6356  2.5001  2.6577
   79SLPC   H3Y 7304   1.502   0.411   6.939 -0.1217 -0.4418  1.3324
   79SLPC   C34 7305   1.499   0.361   6.738  0.3043 -1.2293  0.8200
   79SLPC   H4X 7306   1.594   0.419   6.733 -0.7574  0.8930  3.0399
   79SLPC   H4Y 7307   1.419   0.434   6.715 -1.4072 -2.7261  1.7539
   79SLPC   C35 7308   1.491   0.260   6.624  0.1672  0.0713 -0.1806
   79SLPC   H5X 7309   1.392   0.209   6.620  0.7290 -0.9846 -1.5633
   79SLPC   H5Y 7310   1.554   0.171   6.648 -0.1910 -0.0705  0.2638
   79SLPC   C36 7311   1.519   0.322   6.487  0.2410  0.5839  0.4139
   79SLPC   H6X 7312   1.620   0.369   6.487  0.2840  0.5816 -1.4933
   79SLPC   H6Y 7313   1.439   0.399   6.477 -0.5306 -0.3631 -1.0109
   79SLPC   C37 7314   1.516   0.218   6.369  0.3298 -0.5744 -0.8668
   79SLPC   H7X 7315   1.413   0.177   6.370  0.1493 -0.2824 -2.9769
   79SLPC   H7Y 7316   1.593   0.139   6.381  1.9598  0.7739 -1.9268
   79SLPC   C38 7317   1.543   0.298   6.245 -0.1107 -0.5777 -0.0306
   79SLPC   H8X 7318   1.638   0.355   6.254 -0.1651 -0.5268  0.2257
   79SLPC   H8Y 7319   1.471   0.383   6.234 -0.8998 -1.2763 -0.3913
   79SLPC   C39 7320   1.559   0.212   6.122 -0.1715 -0.5787 -0.2035
   79SLPC   H9X 7321   1.461   0.165   6.101 -1.6039  1.8538  0.6845
   79SLPC   H9Y 7322   1.638   0.142   6.159  0.5572  0.9704  1.3198
   79SLPC  C310 7323   1.612   0.296   5.999 -0.5185 -0.7549 -1.1239
   79SLPC  H10X 7324   1.715   0.331   6.021 -1.1934  0.4736  0.2889
   79SLPC  H10Y 7325   1.543   0.383   5.991  0.5318  0.1009 -1.0453
   79SLPC  C311 7326   1.623   0.210   5.872  0.8670 -0.2770 -0.2984
   79SLPC  H11X 7327   1.526   0.162   5.847  0.5581  0.7433 -1.1027
   79SLPC  H11Y 7328   1.703   0.135   5.890  0.9012  0.4948  3.9417
   79SLPC  C312 7329   1.663   0.290   5.743  0.2637  0.5776 -0.9832
   79SLPC  H12X 7330   1.761   0.335   5.769 -0.1519  1.0687 -0.2058
   79SLPC  H12Y 7331   1.592   0.376   5.746  1.0124  1.2206 -1.3914
   79SLPC  C313 7332   1.671   0.204   5.608 -0.3001  0.0419  0.4924
   79SLPC  H13X 7333   1.571   0.161   5.588 -0.2094  0.1687 -0.2844
   79SLPC  H13Y 7334   1.750   0.127   5.621  0.4767  0.6716 -0.3375
   79SLPC  C314 7335   1.716   0.293   5.492  1.0215  0.0791  0.6295
   79SLPC  H14X 7336   1.783   0.371   5.533 -0.1685  1.6854 -0.3740
   79SLPC  H14Y 7337   1.627   0.347   5.453  1.7812  0.4544 -0.6407
   79SLPC  C315 7338   1.769   0.214   5.372  0.0115  0.1074  0.6691
   79SLPC  H15X 7339   1.703   0.125   5.363  2.2322 -1.9054  2.8223
   79SLPC  H15Y 7340   1.867   0.171   5.399 -0.5275  1.0406  4.8486
   79SLPC  C316 7341   1.790   0.298   5.242 -0.2567  0.0125  0.1102
   79SLPC  H16X 7342   1.687   0.328   5.214 -0.2246  1.2410  1.1985
   79SLPC  H16Y 7343   1.830   0.233   5.161  0.8157  0.3811  0.3302
   79SLPC  C317 7344   1.869   0.428   5.270  0.4510  0.7127 -0.3233
   79SLPC  H17X 7345   1.971   0.409   5.312 -0.2579  0.1324  1.2248
   79SLPC  H17Y 7346   1.819   0.499   5.340  2.0142  1.4236  0.1173
   79SLPC  C318 7347   1.885   0.507   5.139 -0.2582  0.4652  0.5840
   79SLPC  H18X 7348   1.941   0.602   5.157 -0.5462  0.5005  1.3589
   79SLPC  H18Y 7349   1.789   0.533   5.090 -0.3257  2.8751  1.8088
   79SLPC  H18Z 7350   1.933   0.454   5.054 -0.8332  2.3587 -0.9926
   80SLPC     N 7351   0.989   2.124   8.458 -0.1751 -0.7509 -0.3614
   80SLPC   C13 7352   0.993   1.991   8.514 -0.3131 -0.2128 -0.3961
   80SLPC  H13A 7353   0.961   1.985   8.617  0.8838  0.5918  0.0379
   80SLPC  H13B 7354   0.942   1.920   8.451 -0.8568  0.0605 -0.2655
   80SLPC  H13C 7355   1.096   1.959   8.517  0.0151  0.8264  2.5130
   80SLPC   C14 7356   1.045   2.213   8.569  0.5736 -0.3308  0.0038
   80SLPC  H14A 7357   1.061   2.312   8.531  0.5022  0.0878  1.0442
   80SLPC  H14B 7358   0.990   2.216   8.662  1.0577  0.4046  0.2668
   80SLPC  H14C 7359   1.146   2.184   8.594  0.9916  0.7857 -0.3665
   80SLPC   C15 7360   0.854   2.172   8.436 -0.2046 -0.1520  0.1350
   80SLPC  H15A 7361   0.808   2.111   8.360 -0.8108 -0.2048  0.5335
   80SLPC  H15B 7362   0.795   2.177   8.526  1.4587  0.4648  1.2472
   80SLPC  H15C 7363   0.844   2.270   8.392 -0.9786 -0.7196 -1.0078
   80SLPC   C12 7364   1.075   2.138   8.334 -0.1171  0.1372 -0.2180
   80SLPC  H12A 7365   1.177   2.124   8.365 -0.7537 -0.1861  1.8634
   80SLPC  H12B 7366   1.061   2.241   8.305  0.2186  0.0819 -0.5761
   80SLPC   C11 7367   1.040   2.044   8.214  0.3892 -0.2928  0.1196
   80SLPC  H11A 7368   1.095   2.074   8.122 -0.4552  1.4714  0.1459
   80SLPC  H11B 7369   0.932   2.059   8.194  0.0773 -1.0825  1.1641
   80SLPC     P 7370   1.007   1.791   8.177  0.0318  0.5052 -0.0006
   80SLPC   O13 7371   1.061   1.662   8.219  0.4051  0.6100 -0.7158
   80SLPC   O14 7372   0.863   1.813   8.197 -0.0329  0.2956  0.2292
   80SLPC   O12 7373   1.081   1.906   8.254 -0.3941  0.3202  0.1416
   80SLPC   O11 7374   1.036   1.816   8.026  0.2362 -0.0583 -0.4151
   80SLPC    C1 7375   1.168   1.798   7.973  0.0901 -0.2603 -0.2717
   80SLPC    HA 7376   1.242   1.863   8.023  0.5734 -0.1425 -1.1283
   80SLPC    HB 7377   1.203   1.693   7.981  0.0652 -0.2023  0.7272
   80SLPC    C2 7378   1.165   1.855   7.828 -0.6833 -0.3359 -0.0501
   80SLPC    HS 7379   1.127   1.959   7.825  0.3632  0.0817  0.6646
   80SLPC   O21 7380   1.079   1.769   7.743 -0.2539 -0.4298 -0.0307
   80SLPC   C21 7381   1.015   1.827   7.644 -0.2782 -0.1574 -0.4113
   80SLPC   O22 7382   0.998   1.946   7.635  0.5411 -0.9057 -0.0353
   80SLPC   C22 7383   0.959   1.719   7.552 -0.3896  0.3339  0.4050
   80SLPC   H2R 7384   1.047   1.693   7.490 -0.8179  1.2771 -0.6286
   80SLPC   H2S 7385   0.923   1.642   7.624  0.0608  1.2386  1.6435
   80SLPC    C3 7386   1.312   1.868   7.770  0.4198 -1.0016  1.2161
   80SLPC    HX 7387   1.359   1.772   7.801  0.4682 -1.7815 -1.0285
   80SLPC    HY 7388   1.375   1.943   7.821  0.8804 -0.5986  0.0802
   80SLPC   O31 7389   1.327   1.875   7.621 -0.1283 -0.3478 -0.1481
   80SLPC   C31 7390   1.345   1.992   7.568 -0.3779 -0.4944 -0.3051
   80SLPC   O32 7391   1.379   2.093   7.626 -0.3089  1.1472  0.4241
   80SLPC   C32 7392   1.334   1.988   7.411 -0.0809  0.9864 -0.8463
   80SLPC   H2X 7393   1.437   2.004   7.372  0.1948 -0.9529 -1.0042
   80SLPC   H2Y 7394   1.277   2.076   7.374  1.0636  1.0321 -2.5958
   80SLPC   C23 7395   0.838   1.770   7.473 -0.0246  0.2086  0.5600
   80SLPC   H3R 7396   0.877   1.860   7.422 -0.9346  1.3919  1.8589
   80SLPC   H3S 7397   0.760   1.807   7.544 -0.4971 -0.6562  0.5090
   80SLPC   C24 7398   0.779   1.659   7.385 -0.4540 -0.5191  0.0275
   80SLPC   H4R 7399   0.700   1.715   7.329  0.2200  0.9971  0.5315
   80SLPC   H4S 7400   0.730   1.583   7.449 -2.3767  0.4823 -0.1810
   80SLPC   C25 7401   0.872   1.607   7.274 -0.3301  0.1883 -0.3281
   80SLPC   H5R 7402   0.944   1.542   7.329 -1.3053 -1.2701 -0.7095
   80SLPC   H5S 7403   0.919   1.702   7.239 -0.3748  0.6576  0.8424
   80SLPC   C26 7404   0.811   1.522   7.161  0.4195 -0.3601  0.6702
   80SLPC   H6R 7405   0.778   1.432   7.217 -1.1992  0.9048  1.8342
   80SLPC   H6S 7406   0.896   1.491   7.096  0.0274  1.6522 -0.8976
   80SLPC   C27 7407   0.687   1.576   7.085 -0.6632  0.1463 -0.3836
   80SLPC   H7R 7408   0.719   1.679   7.058  1.4445  0.1284  1.7233
   80SLPC   H7S 7409   0.604   1.586   7.158 -1.0499  2.2336 -1.0223
   80SLPC   C28 7410   0.657   1.483   6.968  0.1607 -0.1564  0.6893
   80SLPC   H8R 7411   0.558   1.514   6.927  1.3386  1.5781 -1.0435
   80SLPC   H8S 7412   0.641   1.382   7.011  1.4867 -1.2189 -1.1339
   80SLPC   C29 7413   0.757   1.492   6.859 -0.5257  0.0206 -0.0415
   80SLPC   H9R 7414   0.862   1.505   6.890  0.1166  0.6979 -2.2936
   80SLPC  C210 7415   0.733   1.454   6.729 -0.6814 -0.2330 -0.0412
   80SLPC  H10R 7416   0.816   1.452   6.657 -0.9081  1.9239 -0.4072
   80SLPC  C211 7417   0.599   1.415   6.667 -0.0190  0.2796  1.1496
   80SLPC  H11R 7418   0.546   1.504   6.629 -0.2186 -0.7664 -1.1956
   80SLPC  H11S 7419   0.538   1.362   6.743 -0.2833  0.3198  0.9650
   80SLPC  C212 7420   0.617   1.331   6.544  0.5772 -0.0973  0.1450
   80SLPC  H12R 7421   0.582   1.390   6.458  1.2631 -0.2034 -0.2142
   80SLPC  C213 7422   0.656   1.201   6.534 -0.6038 -0.2454  0.4193
   80SLPC  H13R 7423   0.665   1.148   6.439  1.9734  0.8664 -0.0654
   80SLPC  C214 7424   0.707   1.110   6.640 -0.0550 -0.6991 -0.1748
   80SLPC  H14R 7425   0.684   1.160   6.736  0.3885  0.6248 -0.7319
   80SLPC  H14S 7426   0.818   1.118   6.634  0.1496 -2.4972  0.4895
   80SLPC  C215 7427   0.644   0.971   6.611  0.3849  0.1990  0.0393
   80SLPC  H15R 7428   0.536   0.986   6.588  0.6188  0.1646 -1.1253
   80SLPC  H15S 7429   0.650   0.914   6.706  2.2640  1.7339  0.9094
   80SLPC  C216 7430   0.735   0.899   6.512  0.5554  0.1011  0.0802
   80SLPC  H16R 7431   0.843   0.919   6.530  0.4813  0.5555  0.0255
   80SLPC  H16S 7432   0.713   0.945   6.414  0.2314 -0.7887 -0.2807
   80SLPC  C217 7433   0.733   0.746   6.516  0.1022 -0.0290 -0.5468
   80SLPC  H17R 7434   0.759   0.722   6.622  0.6244 -1.0624 -0.8994
   80SLPC  H17S 7435   0.804   0.711   6.439 -0.6051  1.5424 -1.9929
   80SLPC  C218 7436   0.604   0.676   6.475 -0.4351 -0.5585  0.5424
   80SLPC  H18R 7437   0.564   0.724   6.383  2.8729  0.9100 -0.3172
   80SLPC  H18S 7438   0.529   0.681   6.556 -0.0300 -1.8685  1.0309
   80SLPC  H18T 7439   0.629   0.570   6.455 -1.1139 -0.5932 -0.1457
   80SLPC   C33 7440   1.289   1.861   7.347  0.2020 -0.0562  1.2026
   80SLPC   H3X 7441   1.185   1.838   7.379 -0.4138 -1.4760 -1.5598
   80SLPC   H3Y 7442   1.354   1.778   7.381 -0.5986 -1.7416 -1.1342
   80SLPC   C34 7443   1.296   1.867   7.189  1.2753  0.6403  0.1179
   80SLPC   H4X 7444   1.400   1.884   7.152  1.0718  0.4393 -0.5561
   80SLPC   H4Y 7445   1.234   1.948   7.144 -1.7964 -2.2858 -1.3220
   80SLPC   C35 7446   1.243   1.745   7.115 -0.1497  0.2612 -0.4265
   80SLPC   H5X 7447   1.133   1.745   7.132 -0.0493 -0.7200  0.3296
   80SLPC   H5Y 7448   1.291   1.657   7.163 -1.8741  0.5896  2.0918
   80SLPC   C36 7449   1.271   1.751   6.964 -0.2342  0.7231  0.0177
   80SLPC   H6X 7450   1.381   1.737   6.954 -0.4445 -1.9390  0.5989
   80SLPC   H6Y 7451   1.243   1.851   6.925  0.6012  0.4966 -1.2094
   80SLPC   C37 7452   1.194   1.646   6.881  0.0936  0.1270 -0.3322
   80SLPC   H7X 7453   1.086   1.671   6.891  0.5213  2.6518 -1.3681
   80SLPC   H7Y 7454   1.216   1.550   6.933  0.7327  0.2003 -0.4655
   80SLPC   C38 7455   1.209   1.638   6.731  0.1314 -0.7722  0.7861
   80SLPC   H8X 7456   1.319   1.642   6.717  0.3618 -0.3546  2.5252
   80SLPC   H8Y 7457   1.159   1.724   6.682  2.4860 -0.1109 -0.6081
   80SLPC   C39 7458   1.127   1.524   6.663  0.3146  0.1083  0.2632
   80SLPC   H9X 7459   1.018   1.531   6.685  0.6473  0.3539  2.0150
   80SLPC   H9Y 7460   1.167   1.434   6.715 -0.4935  0.6941  1.9864
   80SLPC  C310 7461   1.150   1.508   6.513 -0.3602 -0.8206  0.1736
   80SLPC  H10X 7462   1.242   1.446   6.503 -1.4663 -2.4372 -0.5053
   80SLPC  H10Y 7463   1.163   1.606   6.462 -0.7814 -2.0488 -2.4636
   80SLPC  C311 7464   1.042   1.423   6.440  0.5297  0.3323 -0.7132
   80SLPC  H11X 7465   0.939   1.456   6.463  0.8081 -0.2848  1.6816
   80SLPC  H11Y 7466   1.042   1.323   6.489 -1.0000  1.0414  0.8212
   80SLPC  C312 7467   1.067   1.408   6.293  0.2381  0.3717  0.2077
   80SLPC  H12X 7468   1.169   1.382   6.259 -0.8683 -0.7042 -2.6253
   80SLPC  H12Y 7469   1.025   1.503   6.251  0.8270  0.4956 -0.1120
   80SLPC  C313 7470   0.986   1.291   6.244  0.3336  0.3514 -0.2663
   80SLPC  H13X 7471   0.884   1.309   6.286  0.8113  1.9163  0.2851
   80SLPC  H13Y 7472   1.022   1.192   6.279 -0.3414  0.6006  1.2243
   80SLPC  C314 7473   0.995   1.293   6.088  0.6806  0.1343  0.1179
   80SLPC  H14X 7474   0.965   1.395   6.057 -0.0783  0.0923  0.6842
   80SLPC  H14Y 7475   0.919   1.225   6.044 -0.1275  2.6983 -2.7913
   80SLPC  C315 7476   1.131   1.250   6.027 -0.0190  0.7206 -0.0819
   80SLPC  H15X 7477   1.164   1.158   6.080 -1.4523  1.3363  2.0138
   80SLPC  H15Y 7478   1.205   1.331   6.042  0.3832  0.3363  0.0048
   80SLPC  C316 7479   1.121   1.224   5.878 -0.6989  0.6226  0.0918
   80SLPC  H16X 7480   1.068   1.130   5.855  1.1261 -0.3133 -0.5024
   80SLPC  H16Y 7481   1.220   1.200   5.834 -0.6252  0.0344  0.5616
   80SLPC  C317 7482   1.068   1.349   5.801  0.2788 -0.5650 -0.3171
   80SLPC  H17X 7483   0.963   1.363   5.833  0.3091 -1.5299  0.2392
   80SLPC  H17Y 7484   1.063   1.328   5.692 -2.1305 -1.0826 -0.1600
   80SLPC  C318 7485   1.149   1.485   5.812  0.3706  0.9895 -0.6395
   80SLPC  H18X 7486   1.254   1.460   5.835 -0.2242  0.0554  1.3037
   80SLPC  H18Y 7487   1.111   1.542   5.900  0.1506  0.6869 -0.5333
   80SLPC  H18Z 7488   1.148   1.553   5.724  0.3510  1.6414 -0.1445
   81SLPC     N 7489   3.761   1.055   2.483 -0.3771  0.1100  0.1060
   81SLPC   C13 7490   3.894   1.123   2.499 -0.8260  0.5940  0.4140
   81SLPC  H13A 7491   3.917   1.129   2.604  1.0305  2.3201 -0.0202
   81SLPC  H13B 7492   3.978   1.078   2.448 -0.0627  0.1711  1.9768
   81SLPC  H13C 7493   3.891   1.226   2.465  0.8970  0.4500 -0.3025
   81SLPC   C14 7494   3.780   0.914   2.510 -0.6310  0.3707  0.2537
   81SLPC  H14A 7495   3.851   0.878   2.438  1.5105  2.6601  1.0999
   81SLPC  H14B 7496   3.825   0.891   2.606 -2.7352 -1.6691  0.8786
   81SLPC  H14C 7497   3.694   0.848   2.508  0.2504 -0.8414  0.9603
   81SLPC   C15 7498   3.733   1.065   2.335  0.7102  0.4150  0.2460
   81SLPC  H15A 7499   3.722   1.166   2.297 -1.3781 -0.2720 -1.1777
   81SLPC  H15B 7500   3.797   1.015   2.264 -1.6791 -0.7185 -1.2343
   81SLPC  H15C 7501   3.637   1.018   2.317  0.4566  1.7011 -2.1910
   81SLPC   C12 7502   3.650   1.122   2.563 -0.4182  0.2936  0.0629
   81SLPC  H12A 7503   3.556   1.076   2.536 -0.3540  1.7144 -2.9713
   81SLPC  H12B 7504   3.649   1.224   2.528  0.1798 -0.2652 -1.7027
   81SLPC   C11 7505   3.663   1.122   2.717 -0.1556  0.0800  0.2629
   81SLPC  H11A 7506   3.706   1.024   2.745 -1.5230 -0.7433 -0.4477
   81SLPC  H11B 7507   3.562   1.130   2.762 -0.9066 -2.9236 -0.6723
   81SLPC     P 7508   3.718   1.362   2.814  0.5791  0.1250  0.1968
   81SLPC   O13 7509   3.843   1.416   2.858  0.1150 -0.0868  0.5066
   81SLPC   O14 7510   3.644   1.441   2.715 -0.2382  0.0231  0.1159
   81SLPC   O12 7511   3.758   1.225   2.755 -0.1956  0.0212 -0.0984
   81SLPC   O11 7512   3.636   1.320   2.940  0.7136  0.3664  0.0006
   81SLPC    C1 7513   3.701   1.263   3.060  0.5029 -0.2207  0.7415
   81SLPC    HA 7514   3.652   1.165   3.078 -0.4134 -0.1031 -0.9023
   81SLPC    HB 7515   3.807   1.234   3.045 -0.1788 -1.9080 -1.4121
   81SLPC    C2 7516   3.684   1.349   3.187 -0.2307  0.3943  0.4443
   81SLPC    HS 7517   3.774   1.337   3.251  0.4595 -0.9715 -0.7113
   81SLPC   O21 7518   3.567   1.310   3.251 -0.2045 -0.6753 -0.1305
   81SLPC   C21 7519   3.583   1.224   3.358 -0.5870  0.4161  0.1848
   81SLPC   O22 7520   3.691   1.184   3.396  0.1170  0.0427 -0.4470
   81SLPC   C22 7521   3.447   1.182   3.408 -0.2871  1.3119  0.3248
   81SLPC   H2R 7522   3.382   1.272   3.406 -0.3192  1.2860  0.2175
   81SLPC   H2S 7523   3.419   1.101   3.338  2.1675 -1.8635  2.6874
   81SLPC    C3 7524   3.665   1.498   3.150  0.6413  0.0963 -0.1436
   81SLPC    HX 7525   3.568   1.518   3.101  1.0972  0.9171 -0.7303
   81SLPC    HY 7526   3.745   1.536   3.083 -0.7894 -0.7463 -2.4383
   81SLPC   O31 7527   3.669   1.577   3.272 -0.3280 -0.3843  0.4959
   81SLPC   C31 7528   3.565   1.607   3.343  0.0309  0.1369 -0.0426
   81SLPC   O32 7529   3.445   1.589   3.311  0.1924 -0.0111  0.4401
   81SLPC   C32 7530   3.599   1.695   3.456  0.3000  0.2273 -0.1468
   81SLPC   H2X 7531   3.504   1.722   3.507  0.2182 -1.3966  0.6341
   81SLPC   H2Y 7532   3.652   1.781   3.409 -1.4583  0.1885 -2.3531
   81SLPC   C23 7533   3.452   1.119   3.548  0.5033  0.3780  0.3330
   81SLPC   H3R 7534   3.532   1.165   3.609  3.6059 -0.4663 -2.8029
   81SLPC   H3S 7535   3.492   1.016   3.546 -0.1036  0.1413 -1.7098
   81SLPC   C24 7536   3.312   1.124   3.612 -0.4487  0.9815  0.6080
   81SLPC   H4R 7537   3.246   1.054   3.557 -2.9232  3.9403 -0.5161
   81SLPC   H4S 7538   3.272   1.227   3.596 -0.2716  0.5541 -4.2579
   81SLPC   C25 7539   3.311   1.066   3.752  0.2061  0.0422  0.0960
   81SLPC   H5R 7540   3.342   0.959   3.749 -0.6624 -0.2112 -0.1993
   81SLPC   H5S 7541   3.204   1.061   3.779  0.4427 -0.4358  0.9871
   81SLPC   C26 7542   3.386   1.146   3.864  0.3831 -0.3467  0.0696
   81SLPC   H6R 7543   3.493   1.150   3.835  0.3200  1.3616 -0.0753
   81SLPC   H6S 7544   3.372   1.096   3.962  0.0930 -0.9369 -0.2668
   81SLPC   C27 7545   3.332   1.292   3.877 -0.4837  0.0125  0.0838
   81SLPC   H7R 7546   3.221   1.289   3.885 -0.3717 -0.1142  2.1704
   81SLPC   H7S 7547   3.344   1.339   3.777 -1.0005 -1.4671 -0.6955
   81SLPC   C28 7548   3.400   1.374   3.989 -0.3056  0.6404 -0.0960
   81SLPC   H8R 7549   3.374   1.479   3.962  0.6980  1.0182  0.3239
   81SLPC   H8S 7550   3.511   1.375   3.988 -0.3086  1.4653 -1.0857
   81SLPC   C29 7551   3.344   1.336   4.128 -0.3375 -0.6102  0.3751
   81SLPC   H9R 7552   3.238   1.362   4.141  0.1158  1.4905  0.1924
   81SLPC  C210 7553   3.411   1.286   4.233 -0.2313  0.0596  0.4723
   81SLPC  H10R 7554   3.356   1.257   4.324 -0.2696 -1.2361  0.0679
   81SLPC  C211 7555   3.560   1.263   4.238 -1.0277 -0.4535  0.2749
   81SLPC  H11R 7556   3.610   1.307   4.327  0.6115  2.3088 -1.8319
   81SLPC  H11S 7557   3.616   1.319   4.159 -0.0723  0.2738  1.4359
   81SLPC  C212 7558   3.593   1.112   4.240  0.2995 -0.5175  0.2734
   81SLPC  H12R 7559   3.536   1.058   4.162 -0.1855  0.6100 -0.1645
   81SLPC  C213 7560   3.650   1.046   4.338 -0.5702  0.3156  0.2256
   81SLPC  H13R 7561   3.664   0.937   4.328  1.1422  0.3525  1.7854
   81SLPC  C214 7562   3.701   1.107   4.466  0.3608  0.1346  0.2361
   81SLPC  H14R 7563   3.638   1.189   4.506 -1.9812 -1.3763 -0.1796
   81SLPC  H14S 7564   3.802   1.148   4.443  0.0822  0.4526 -0.4367
   81SLPC  C215 7565   3.694   0.997   4.580  0.2786  0.1308  0.3094
   81SLPC  H15R 7566   3.750   0.911   4.536  2.0287  1.0170  0.7432
   81SLPC  H15S 7567   3.595   0.958   4.613 -0.1395  0.1854 -0.8286
   81SLPC  C216 7568   3.771   1.019   4.713  0.7139 -0.2610  0.4484
   81SLPC  H16R 7569   3.873   1.054   4.686 -0.0468  0.9052 -1.0525
   81SLPC  H16S 7570   3.777   0.925   4.772  1.3849 -2.1179 -2.3691
   81SLPC  C217 7571   3.712   1.134   4.797  0.3270  0.2489 -0.2378
   81SLPC  H17R 7572   3.610   1.103   4.825  0.2530  1.1482  0.5472
   81SLPC  H17S 7573   3.705   1.224   4.733 -1.4524  0.7044  0.5434
   81SLPC  C218 7574   3.776   1.164   4.936 -0.3413  0.3534 -0.1450
   81SLPC  H18R 7575   3.776   1.070   4.995 -1.8925  0.1861 -0.3628
   81SLPC  H18S 7576   3.717   1.230   5.003  0.1704  1.0232 -0.3438
   81SLPC  H18T 7577   3.885   1.187   4.931 -0.0478 -1.1447 -1.3600
   81SLPC   C33 7578   3.700   1.630   3.549  0.9367 -0.4415  0.0685
   81SLPC   H3X 7579   3.792   1.593   3.499  0.5008 -0.7698 -0.5022
   81SLPC   H3Y 7580   3.660   1.538   3.598 -0.4357 -0.7682 -1.5963
   81SLPC   C34 7581   3.744   1.736   3.655  0.5458 -0.3197 -0.2306
   81SLPC   H4X 7582   3.657   1.779   3.710 -0.8363 -0.2304 -2.3499
   81SLPC   H4Y 7583   3.787   1.820   3.597  0.0693 -0.6143 -1.0179
   81SLPC   C35 7584   3.855   1.699   3.748  0.1854  0.7961  0.3044
   81SLPC   H5X 7585   3.916   1.779   3.796  1.3030  0.9844 -1.3540
   81SLPC   H5Y 7586   3.936   1.642   3.698 -2.5313 -2.4766 -0.7721
   81SLPC   C36 7587   3.800   1.603   3.855 -0.1963 -0.4826  0.1441
   81SLPC   H6X 7588   3.744   1.523   3.802  0.6759 -0.7397 -0.4182
   81SLPC   H6Y 7589   3.724   1.663   3.909  0.1510  1.1299 -1.0494
   81SLPC   C37 7590   3.913   1.544   3.943 -0.7577  0.2731  0.3196
   81SLPC   H7X 7591   3.983   1.628   3.966 -2.8428  2.0702  0.4969
   81SLPC   H7Y 7592   3.973   1.477   3.879 -0.3839  0.0855  0.8550
   81SLPC   C38 7593   3.868   1.485   4.073  0.5941  0.7157 -0.2082
   81SLPC   H8X 7594   3.807   1.393   4.067  1.0618  0.3174  0.8680
   81SLPC   H8Y 7595   3.798   1.555   4.123  1.1415  1.4965 -0.5182
   81SLPC   C39 7596   3.980   1.446   4.170  0.5845 -0.2559  0.1788
   81SLPC   H9X 7597   4.053   1.530   4.165 -0.5346  0.7478  0.2517
   81SLPC   H9Y 7598   4.022   1.348   4.138 -0.2892 -1.2712  1.9665
   81SLPC  C310 7599   3.934   1.413   4.320 -0.2217  0.5203  0.0462
   81SLPC  H10X 7600   3.879   1.317   4.327 -0.1597  0.6222  2.5652
   81SLPC  H10Y 7601   3.867   1.491   4.363 -1.3280 -0.6093  0.4344
   81SLPC  C311 7602   4.059   1.391   4.408  0.1521  0.4275  0.1177
   81SLPC  H11X 7603   4.119   1.484   4.398  1.3282 -0.2466  0.7425
   81SLPC  H11Y 7604   4.120   1.305   4.373  0.9820  0.3771  1.5892
   81SLPC  C312 7605   4.030   1.376   4.557  0.4239  0.6557  0.1951
   81SLPC  H12X 7606   4.000   1.269   4.566 -0.5558  0.7456 -1.5548
   81SLPC  H12Y 7607   3.947   1.443   4.587 -0.1576  0.1623 -0.2885
   81SLPC  C313 7608   4.160   1.397   4.646  0.6108 -0.0797  0.5323
   81SLPC  H13X 7609   4.195   1.502   4.651 -2.2829  0.9420  1.7922
   81SLPC  H13Y 7610   4.242   1.337   4.601  1.4623 -2.7814  5.1132
   81SLPC  C314 7611   4.133   1.351   4.790 -0.0994  0.1609  0.1186
   81SLPC  H14X 7612   4.078   1.255   4.787 -1.4987  0.9454 -0.5881
   81SLPC  H14Y 7613   4.068   1.427   4.839  2.2202  2.6238 -0.3440
   81SLPC  C315 7614   4.257   1.337   4.885 -0.4616 -0.1969 -0.0628
   81SLPC  H15X 7615   4.332   1.419   4.881  0.3795 -0.9712 -3.1455
   81SLPC  H15Y 7616   4.318   1.250   4.849 -2.3299 -1.5843 -0.0227
   81SLPC  C316 7617   4.210   1.309   5.030  0.0779  0.2481 -0.1555
   81SLPC  H16X 7618   4.118   1.246   5.031 -0.2076  0.6691  0.4287
   81SLPC  H16Y 7619   4.173   1.407   5.068  0.1698  1.3180 -2.6526
   81SLPC  C317 7620   4.316   1.260   5.122  0.3778 -0.2618  0.3352
   81SLPC  H17X 7621   4.383   1.346   5.144  0.2870 -0.5606  1.9697
   81SLPC  H17Y 7622   4.377   1.175   5.086 -0.3204 -0.0234 -1.5177
   81SLPC  C318 7623   4.272   1.226   5.265  0.9616  0.4304 -0.4433
   81SLPC  H18X 7624   4.213   1.303   5.319  1.6554  1.0649 -0.5909
   81SLPC  H18Y 7625   4.361   1.211   5.330  1.3336 -1.4072 -1.3027
   81SLPC  H18Z 7626   4.220   1.127   5.267  0.3650  0.7151  1.7261
   82SLPC     N 7627   1.848   1.295   3.131 -0.3160  1.1135 -1.1775
   82SLPC   C13 7628   1.779   1.281   3.270  0.0148 -0.0271  0.5375
   82SLPC  H13A 7629   1.836   1.205   3.321  0.9783 -0.5894 -1.2929
   82SLPC  H13B 7630   1.769   1.367   3.334 -1.4959 -0.6569  1.1871
   82SLPC  H13C 7631   1.678   1.246   3.259 -0.3618  0.2712  2.7486
   82SLPC   C14 7632   1.786   1.410   3.071  0.1421  0.2963 -0.0516
   82SLPC  H14A 7633   1.679   1.404   3.084  0.0296  0.7336 -0.7505
   82SLPC  H14B 7634   1.828   1.499   3.116 -0.0622  0.6428 -0.5419
   82SLPC  H14C 7635   1.815   1.436   2.970  3.5807  3.9386  1.5935
   82SLPC   C15 7636   1.821   1.175   3.046  0.1175  0.0316 -0.6049
   82SLPC  H15A 7637   1.862   1.185   2.947 -2.6457 -1.0052 -1.9423
   82SLPC  H15B 7638   1.873   1.089   3.083 -0.0350 -0.6065 -1.8227
   82SLPC  H15C 7639   1.715   1.153   3.039 -0.0498  1.0411 -1.5641
   82SLPC   C12 7640   1.998   1.322   3.135 -0.0496  0.1411  0.0452
   82SLPC  H12A 7641   2.022   1.421   3.171 -0.5503  0.6207 -0.8912
   82SLPC  H12B 7642   2.032   1.325   3.033 -0.6166  1.5942 -0.1366
   82SLPC   C11 7643   2.076   1.223   3.223 -0.1299 -0.3198 -0.0922
   82SLPC  H11A 7644   2.015   1.166   3.296  2.1604 -0.0423  2.1773
   82SLPC  H11B 7645   2.141   1.287   3.286 -0.9394  1.6141 -1.1375
   82SLPC     P 7646   2.282   1.182   3.073 -0.2596  0.1352  0.3041
   82SLPC   O13 7647   2.338   1.074   2.986  0.5585  0.4842  0.3161
   82SLPC   O14 7648   2.256   1.306   3.002 -0.5081 -0.6888 -0.9237
   82SLPC   O12 7649   2.152   1.128   3.140  1.0965  0.1884  0.0896
   82SLPC   O11 7650   2.386   1.206   3.189  0.4847 -0.2990  0.6961
   82SLPC    C1 7651   2.404   1.330   3.262 -0.6826 -0.1194  0.0852
   82SLPC    HA 7652   2.324   1.406   3.247 -1.0425 -0.2808  1.1092
   82SLPC    HB 7653   2.388   1.317   3.371 -1.7906  1.8193  0.2166
   82SLPC    C2 7654   2.543   1.387   3.250  0.6429 -0.6401  0.0301
   82SLPC    HS 7655   2.576   1.403   3.145  1.6552  0.8661  0.5378
   82SLPC   O21 7656   2.631   1.306   3.323 -0.2609  0.3202 -0.3829
   82SLPC   C21 7657   2.759   1.303   3.298 -0.8404 -1.0719  1.3917
   82SLPC   O22 7658   2.807   1.354   3.195  0.8558  0.3802  0.1163
   82SLPC   C22 7659   2.828   1.234   3.412  0.2020  0.0833  0.4087
   82SLPC   H2R 7660   2.786   1.131   3.412  0.3815 -0.0019  1.4297
   82SLPC   H2S 7661   2.934   1.235   3.381 -0.0282  0.2381 -0.4049
   82SLPC    C3 7662   2.535   1.529   3.306  0.5270 -0.2470 -0.1305
   82SLPC    HX 7663   2.445   1.574   3.259  0.7379 -1.1801 -1.4627
   82SLPC    HY 7664   2.622   1.591   3.274 -0.7742  1.9643  0.3660
   82SLPC   O31 7665   2.501   1.535   3.445  0.5989  0.8393  0.3182
   82SLPC   C31 7666   2.547   1.635   3.520 -0.4201  0.2925  0.5681
   82SLPC   O32 7667   2.616   1.725   3.473  0.0471  0.4450 -0.0468
   82SLPC   C32 7668   2.527   1.615   3.669 -0.3432 -0.0661 -0.3577
   82SLPC   H2X 7669   2.597   1.539   3.709  2.8033  2.0229 -1.5447
   82SLPC   H2Y 7670   2.423   1.580   3.687 -0.7212  0.0083 -2.1756
   82SLPC   C23 7671   2.801   1.305   3.541 -0.3410  0.8387 -0.1402
   82SLPC   H3R 7672   2.694   1.307   3.570  0.1290  3.4763  1.8972
   82SLPC   H3S 7673   2.847   1.406   3.529  0.1103  0.5857 -0.5857
   82SLPC   C24 7674   2.873   1.239   3.655  0.4620 -0.1341 -0.8876
   82SLPC   H4R 7675   2.982   1.224   3.638  0.8630  0.0294  1.2110
   82SLPC   H4S 7676   2.841   1.133   3.646  0.9908 -0.1798 -2.5279
   82SLPC   C25 7677   2.858   1.304   3.793 -0.5156 -0.3288 -0.9826
   82SLPC   H5R 7678   2.750   1.311   3.817 -0.4706  3.4547 -1.2279
   82SLPC   H5S 7679   2.899   1.408   3.787  3.3107 -1.7497 -3.7929
   82SLPC   C26 7680   2.928   1.240   3.913 -0.3945 -0.3010  0.3623
   82SLPC   H6R 7681   2.983   1.318   3.971  0.7610  0.3140 -1.4853
   82SLPC   H6S 7682   3.005   1.167   3.879 -0.8929 -0.8501  0.4056
   82SLPC   C27 7683   2.830   1.182   4.004 -0.0090  0.4968  0.3799
   82SLPC   H7R 7684   2.778   1.098   3.953  0.9497  0.4039 -0.4848
   82SLPC   H7S 7685   2.759   1.259   4.039 -0.6555  0.2975 -0.4760
   82SLPC   C28 7686   2.899   1.137   4.136 -0.1080 -0.6013  0.0325
   82SLPC   H8R 7687   2.939   1.228   4.185 -0.2403 -2.0826  3.0639
   82SLPC   H8S 7688   2.981   1.074   4.096  0.0684  0.1081 -0.7614
   82SLPC   C29 7689   2.809   1.061   4.232 -0.0117  0.1367 -0.0668
   82SLPC   H9R 7690   2.749   0.981   4.185 -0.6420  1.3478 -1.4013
   82SLPC  C210 7691   2.825   1.063   4.367  0.6443 -0.2817 -0.0631
   82SLPC  H10R 7692   2.759   1.004   4.432  0.7581  0.1114  0.4167
   82SLPC  C211 7693   2.928   1.149   4.439  0.4099 -0.2056  0.5929
   82SLPC  H11R 7694   3.025   1.134   4.388 -1.0781 -0.2732 -2.4613
   82SLPC  H11S 7695   2.932   1.103   4.540  0.7050  0.5344  0.9260
   82SLPC  C212 7696   2.893   1.294   4.472  0.2708 -0.3527  0.0474
   82SLPC  H12R 7697   2.872   1.356   4.384  0.2794 -0.3161  0.0712
   82SLPC  C213 7698   2.903   1.354   4.595 -0.2639 -0.9102  0.3579
   82SLPC  H13R 7699   2.869   1.458   4.603  2.1699 -0.1453  1.6143
   82SLPC  C214 7700   2.948   1.305   4.732  0.4008  0.0360 -0.2232
   82SLPC  H14R 7701   3.025   1.367   4.781  0.5247 -0.1888 -0.1314
   82SLPC  H14S 7702   2.971   1.197   4.723 -0.4752 -0.0660 -1.5307
   82SLPC  C215 7703   2.825   1.328   4.830  0.6869  0.0680 -0.0891
   82SLPC  H15R 7704   2.801   1.435   4.842 -1.9378 -0.0332 -2.9567
   82SLPC  H15S 7705   2.869   1.294   4.926 -0.9789 -2.9034 -0.2568
   82SLPC  C216 7706   2.694   1.249   4.796  0.1195  0.1779  0.3779
   82SLPC  H16R 7707   2.726   1.151   4.755  0.3278 -0.2159  1.4415
   82SLPC  H16S 7708   2.642   1.297   4.710  0.1204  2.0637  1.3690
   82SLPC  C217 7709   2.601   1.223   4.913  0.3377 -0.1042  0.2421
   82SLPC  H17R 7710   2.525   1.152   4.875  0.4902 -0.1742  0.0658
   82SLPC  H17S 7711   2.549   1.320   4.928  0.1054 -0.2852  0.6037
   82SLPC  C218 7712   2.657   1.160   5.044  0.6137 -0.6261  1.3576
   82SLPC  H18R 7713   2.707   1.242   5.099  1.9716 -0.1001 -0.5626
   82SLPC  H18S 7714   2.723   1.074   5.020 -0.6567 -1.0320 -1.0536
   82SLPC  H18T 7715   2.571   1.130   5.108 -2.5612  1.2691 -1.6392
   82SLPC   C33 7716   2.522   1.748   3.752  0.0210  0.1604  0.1877
   82SLPC   H3X 7717   2.451   1.812   3.695 -2.1829 -2.0492  0.2870
   82SLPC   H3Y 7718   2.626   1.787   3.758  0.6234 -1.4078  0.4290
   82SLPC   C34 7719   2.479   1.721   3.900  0.0641  0.3119  0.1338
   82SLPC   H4X 7720   2.399   1.645   3.899 -0.1788  0.5526 -1.0239
   82SLPC   H4Y 7721   2.437   1.817   3.938  3.0036  1.3084  1.1083
   82SLPC   C35 7722   2.588   1.669   3.989  0.7567  0.2989  0.1848
   82SLPC   H5X 7723   2.659   1.747   4.024  0.7242 -0.5845  2.3969
   82SLPC   H5Y 7724   2.645   1.593   3.932 -1.9346 -0.5004 -1.5941
   82SLPC   C36 7725   2.526   1.582   4.107 -0.0636  0.5132  0.0392
   82SLPC   H6X 7726   2.470   1.506   4.048  1.0550  0.1049 -0.5204
   82SLPC   H6Y 7727   2.451   1.644   4.161 -4.1725 -1.6072 -2.6726
   82SLPC   C37 7728   2.634   1.527   4.196 -0.8654 -0.0588  0.0720
   82SLPC   H7X 7729   2.699   1.611   4.228 -1.1320  0.4247 -0.6185
   82SLPC   H7Y 7730   2.701   1.455   4.143 -1.0215 -1.0401  1.1818
   82SLPC   C38 7731   2.569   1.461   4.318  0.2638 -0.5961  0.2687
   82SLPC   H8X 7732   2.654   1.405   4.363  1.8520  1.6578  0.2828
   82SLPC   H8Y 7733   2.493   1.387   4.285  0.1914 -0.7163  0.7000
   82SLPC   C39 7734   2.519   1.560   4.419 -0.6964 -0.6831  0.0514
   82SLPC   H9X 7735   2.440   1.626   4.376 -0.4278  0.8274  1.7615
   82SLPC   H9Y 7736   2.601   1.620   4.461 -0.9217 -0.5197  0.2614
   82SLPC  C310 7737   2.442   1.488   4.530  0.3047  0.0746 -0.0292
   82SLPC  H10X 7738   2.515   1.425   4.584  0.2451 -1.3642 -1.5195
   82SLPC  H10Y 7739   2.377   1.415   4.476  1.0745  0.1221 -1.0490
   82SLPC  C311 7740   2.364   1.576   4.622 -0.7148 -0.2161  0.5179
   82SLPC  H11X 7741   2.286   1.639   4.572  1.1836  0.7396 -1.3961
   82SLPC  H11Y 7742   2.435   1.654   4.658  0.8463 -0.5836 -1.6291
   82SLPC  C312 7743   2.318   1.496   4.744  0.3402 -0.2127 -0.1732
   82SLPC  H12X 7744   2.402   1.432   4.779  0.6332  0.4744  0.3893
   82SLPC  H12Y 7745   2.234   1.426   4.722  0.2074 -0.7902  1.8830
   82SLPC  C313 7746   2.264   1.591   4.861 -1.0987  0.3142  0.7298
   82SLPC  H13X 7747   2.191   1.660   4.813  0.2125 -0.1750 -2.1636
   82SLPC  H13Y 7748   2.355   1.648   4.890 -0.1846 -0.7521  0.0204
   82SLPC  C314 7749   2.208   1.520   4.984  0.1594  0.6421  0.2399
   82SLPC  H14X 7750   2.123   1.458   4.949 -1.1766  2.6046 -0.1265
   82SLPC  H14Y 7751   2.158   1.588   5.056  0.2905  0.8588  0.1267
   82SLPC  C315 7752   2.319   1.433   5.054 -0.1875 -0.0705 -0.2079
   82SLPC  H15X 7753   2.417   1.485   5.057  1.5984 -3.0852 -1.3222
   82SLPC  H15Y 7754   2.331   1.341   4.993 -0.3828 -1.7047  2.0873
   82SLPC  C316 7755   2.278   1.382   5.198 -0.1366  0.5282 -0.9124
   82SLPC  H16X 7756   2.284   1.465   5.272  2.0401  0.6708 -1.2005
   82SLPC  H16Y 7757   2.360   1.310   5.220  0.6073  1.5671 -0.1562
   82SLPC  C317 7758   2.154   1.295   5.216 -0.3625 -0.7917 -0.0633
   82SLPC  H17X 7759   2.064   1.355   5.241  0.2820 -0.5756  1.8759
   82SLPC  H17Y 7760   2.180   1.225   5.297  0.0914 -1.2605 -0.6055
   82SLPC  C318 7761   2.135   1.193   5.102 -0.0918  0.3350  0.1019
   82SLPC  H18X 7762   2.231   1.139   5.086  0.0051  0.3587  0.5866
   82SLPC  H18Y 7763   2.115   1.245   5.006 -2.4385 -1.8224 -0.7197
   82SLPC  H18Z 7764   2.049   1.123   5.117  0.7561 -0.7565 -0.0200
   83SLPC     N 7765   3.123   2.683   2.582 -0.6242 -0.8247  0.1632
   83SLPC   C13 7766   3.112   2.635   2.717 -0.0326  0.5796 -0.3893
   83SLPC  H13A 7767   3.021   2.664   2.766  0.8245 -0.4795  2.0317
   83SLPC  H13B 7768   3.095   2.529   2.727  2.7240  0.2791  4.2409
   83SLPC  H13C 7769   3.197   2.665   2.778 -1.1420 -0.5379  1.8070
   83SLPC   C14 7770   3.118   2.835   2.582  0.0812 -0.1309  0.4516
   83SLPC  H14A 7771   3.043   2.859   2.656 -1.7945 -0.8532 -1.1347
   83SLPC  H14B 7772   3.217   2.871   2.603  0.2894 -0.9564  0.9658
   83SLPC  H14C 7773   3.091   2.868   2.483  1.3258  0.9824  0.4636
   83SLPC   C15 7774   2.997   2.638   2.509 -0.0894  0.2255 -0.1830
   83SLPC  H15A 7775   3.000   2.651   2.402 -0.2109 -1.9978 -0.5119
   83SLPC  H15B 7776   2.986   2.531   2.522  0.6583 -0.0650 -1.7205
   83SLPC  H15C 7777   2.915   2.698   2.545  0.2977 -0.6654  2.4372
   83SLPC   C12 7778   3.245   2.640   2.512 -0.1643  0.6009 -0.1084
   83SLPC  H12A 7779   3.334   2.668   2.567  0.4729 -0.1972 -0.7064
   83SLPC  H12B 7780   3.251   2.691   2.417 -0.8949  0.9403  0.0218
   83SLPC   C11 7781   3.267   2.483   2.498  0.2514  0.5110  0.0008
   83SLPC  H11A 7782   3.350   2.470   2.426 -1.2945 -1.4516 -1.5433
   83SLPC  H11B 7783   3.182   2.434   2.446  2.1102 -1.0664 -1.6953
   83SLPC     P 7784   3.227   2.282   2.673  0.4575  0.1424  0.1818
   83SLPC   O13 7785   3.095   2.332   2.701 -0.4422 -0.2529 -0.3947
   83SLPC   O14 7786   3.245   2.171   2.579  0.2010 -0.6046 -0.2846
   83SLPC   O12 7787   3.307   2.409   2.616 -0.0511  0.1280 -0.8138
   83SLPC   O11 7788   3.304   2.246   2.800  0.3547  0.1371  0.0527
   83SLPC    C1 7789   3.380   2.340   2.883 -0.2646  0.1172  1.0325
   83SLPC    HA 7790   3.485   2.303   2.880 -0.7950 -1.3927 -0.6398
   83SLPC    HB 7791   3.377   2.447   2.852  0.7532  0.3809  1.7712
   83SLPC    C2 7792   3.325   2.347   3.027 -0.6206  0.4792  0.4855
   83SLPC    HS 7793   3.379   2.436   3.068 -1.7648  0.9555  1.0051
   83SLPC   O21 7794   3.362   2.227   3.094 -0.0931 -0.4253  0.0014
   83SLPC   C21 7795   3.491   2.199   3.125  0.5383  0.3402  0.6211
   83SLPC   O22 7796   3.587   2.273   3.107 -0.0176 -0.1407  0.0373
   83SLPC   C22 7797   3.505   2.065   3.195  0.2290  0.8637 -0.5159
   83SLPC   H2R 7798   3.439   1.993   3.141  1.5203 -0.4202 -0.4293
   83SLPC   H2S 7799   3.609   2.027   3.189 -0.1805 -0.9011  1.9842
   83SLPC    C3 7800   3.170   2.368   3.037  0.0424 -0.5168  0.2028
   83SLPC    HX 7801   3.114   2.280   2.999 -0.1084  0.1603 -1.2042
   83SLPC    HY 7802   3.163   2.445   2.957 -0.6461 -1.5670 -0.7704
   83SLPC   O31 7803   3.127   2.422   3.169  0.6182  0.0408  0.0391
   83SLPC   C31 7804   3.071   2.341   3.256 -0.1603 -0.7375  0.4839
   83SLPC   O32 7805   3.064   2.221   3.244  0.3774 -0.1922 -0.1662
   83SLPC   C32 7806   3.008   2.426   3.365  0.0047  0.5284  0.4891
   83SLPC   H2X 7807   2.921   2.475   3.317  0.0465  0.9670  0.8500
   83SLPC   H2Y 7808   3.081   2.498   3.408  0.2936  0.2045  0.5540
   83SLPC   C23 7809   3.462   2.070   3.351  0.2349 -0.0724  0.5431
   83SLPC   H3R 7810   3.485   2.168   3.399 -0.2402  0.1603  0.3041
   83SLPC   H3S 7811   3.536   1.999   3.395  0.2381  0.3239  1.1961
   83SLPC   C24 7812   3.319   2.018   3.375 -0.6710  0.2847 -1.1193
   83SLPC   H4R 7813   3.312   1.910   3.349  0.0333 -0.0394 -0.0191
   83SLPC   H4S 7814   3.256   2.077   3.304 -0.7431  2.0529  0.3337
   83SLPC   C25 7815   3.293   2.041   3.530 -0.0836 -0.3409  0.6054
   83SLPC   H5R 7816   3.305   2.149   3.556 -2.8238  0.4033 -0.8833
   83SLPC   H5S 7817   3.373   1.987   3.585  1.1537  1.4969  0.7140
   83SLPC   C26 7818   3.152   1.998   3.576 -0.4781  0.0701  0.3010
   83SLPC   H6R 7819   3.138   1.893   3.542 -1.8888  0.4630 -0.4193
   83SLPC   H6S 7820   3.080   2.055   3.514  0.4725  0.4753 -0.4521
   83SLPC   C27 7821   3.135   2.034   3.727 -0.0045  0.4236  0.0833
   83SLPC   H7R 7822   3.159   2.141   3.742 -1.6033  0.5757  1.9793
   83SLPC   H7S 7823   3.219   1.985   3.781 -0.1823  0.5791  0.5112
   83SLPC   C28 7824   2.994   1.995   3.785 -1.0124 -0.2184  0.6724
   83SLPC   H8R 7825   2.972   1.894   3.744 -1.5758 -0.2953  1.1460
   83SLPC   H8S 7826   2.915   2.063   3.747  1.2705  0.9429 -2.3614
   83SLPC   C29 7827   2.985   2.010   3.937  0.0289 -0.4947 -0.3929
   83SLPC   H9R 7828   2.932   2.100   3.970 -0.1910 -1.2881  1.5433
   83SLPC  C210 7829   3.001   1.912   4.030  0.2529  0.0809 -0.3142
   83SLPC  H10R 7830   2.999   1.938   4.137  2.2918 -0.8914  0.0003
   83SLPC  C211 7831   3.068   1.778   4.011 -0.9391 -0.3283 -0.1356
   83SLPC  H11R 7832   3.142   1.788   4.094  0.1558  0.7808 -1.1964
   83SLPC  H11S 7833   3.136   1.784   3.923  1.1792  1.2442  1.4771
   83SLPC  C212 7834   2.975   1.666   4.025  0.2644 -0.2777 -0.3776
   83SLPC  H12R 7835   2.896   1.660   3.948  0.1845  1.9384 -0.5542
   83SLPC  C213 7836   2.974   1.578   4.125  0.1184  0.1680 -0.0502
   83SLPC  H13R 7837   2.897   1.500   4.127 -1.3773  1.6201  1.0975
   83SLPC  C214 7838   3.075   1.576   4.237  0.9484  0.5167  0.1159
   83SLPC  H14R 7839   3.178   1.604   4.207  1.6880  0.1320  2.2022
   83SLPC  H14S 7840   3.079   1.470   4.269  1.5903  0.0594 -1.3679
   83SLPC  C215 7841   3.035   1.661   4.363  0.0436 -0.1855 -0.1477
   83SLPC  H15R 7842   2.927   1.646   4.383  0.0657  0.8630  0.8975
   83SLPC  H15S 7843   3.046   1.769   4.340  0.9794 -0.3128 -0.3465
   83SLPC  C216 7844   3.126   1.644   4.487 -0.2546 -0.7167 -0.3278
   83SLPC  H16R 7845   3.217   1.708   4.476 -0.3458 -0.1710  1.6089
   83SLPC  H16S 7846   3.153   1.539   4.512 -1.3635 -0.3384  2.9240
   83SLPC  C217 7847   3.052   1.705   4.611  0.4679 -0.1885  0.0483
   83SLPC  H17R 7848   2.953   1.654   4.620 -0.4408  1.6652  1.2483
   83SLPC  H17S 7849   3.036   1.813   4.588 -1.1500  0.0881  2.1267
   83SLPC  C218 7850   3.124   1.696   4.742 -0.0181 -0.2635  0.5716
   83SLPC  H18R 7851   3.072   1.751   4.823 -1.4315 -1.0921  0.2754
   83SLPC  H18S 7852   3.227   1.735   4.730 -0.7926  1.8663  0.4782
   83SLPC  H18T 7853   3.127   1.591   4.778 -1.4145 -0.2285  0.8678
   83SLPC   C33 7854   2.952   2.351   3.486 -0.3167 -0.6327 -0.0169
   83SLPC   H3X 7855   3.036   2.291   3.527 -0.2041 -0.3071  0.2317
   83SLPC   H3Y 7856   2.870   2.284   3.453  0.9853 -1.5546 -1.5074
   83SLPC   C34 7857   2.896   2.442   3.599  0.2268 -0.2269  0.6117
   83SLPC   H4X 7858   2.830   2.374   3.656  0.1751 -2.7581 -2.2233
   83SLPC   H4Y 7859   2.839   2.526   3.554 -0.3305 -0.4796  0.8374
   83SLPC   C35 7860   2.987   2.493   3.716  0.2321  0.2521  0.3186
   83SLPC   H5X 7861   3.055   2.570   3.672 -0.0933  0.4400  0.1441
   83SLPC   H5Y 7862   3.045   2.404   3.747  0.1952  0.7725  1.9736
   83SLPC   C36 7863   2.916   2.567   3.828 -1.1720  0.0782  0.1574
   83SLPC   H6X 7864   2.811   2.601   3.813 -1.2939  0.1844  1.2120
   83SLPC   H6Y 7865   2.977   2.657   3.850 -2.5247  0.8706  0.7806
   83SLPC   C37 7866   2.923   2.484   3.957 -0.4116 -0.2609  0.1325
   83SLPC   H7X 7867   3.030   2.458   3.976  0.2382  1.3279 -1.1179
   83SLPC   H7Y 7868   2.865   2.393   3.930 -0.9143  0.5938 -1.7959
   83SLPC   C38 7869   2.858   2.564   4.071 -0.0241  0.2108  0.5458
   83SLPC   H8X 7870   2.754   2.588   4.038 -0.9424 -2.7581  0.9625
   83SLPC   H8Y 7871   2.915   2.658   4.089 -1.3262  0.9110  1.2014
   83SLPC   C39 7872   2.859   2.485   4.204 -0.6699 -0.0937  0.6292
   83SLPC   H9X 7873   2.960   2.461   4.243  0.3284 -0.2738 -1.9050
   83SLPC   H9Y 7874   2.798   2.395   4.183 -1.1560  0.0099  1.5309
   83SLPC  C310 7875   2.785   2.545   4.324  0.2587 -0.8459 -1.1535
   83SLPC  H10X 7876   2.681   2.507   4.313 -0.3589  0.7504 -1.2050
   83SLPC  H10Y 7877   2.786   2.654   4.301  0.1044 -0.9942 -1.8743
   83SLPC  C311 7878   2.834   2.507   4.466  0.0558  0.3895 -0.4232
   83SLPC  H11X 7879   2.936   2.548   4.483 -0.9547  2.3334  1.3432
   83SLPC  H11Y 7880   2.836   2.396   4.474  0.5444  0.4368  0.1858
   83SLPC  C312 7881   2.746   2.555   4.582  0.1205  0.1856  0.7366
   83SLPC  H12X 7882   2.643   2.558   4.540  0.9895  2.4251 -1.5162
   83SLPC  H12Y 7883   2.758   2.664   4.604 -1.8088 -0.0077  3.1828
   83SLPC  C313 7884   2.755   2.469   4.705  0.2306 -0.3222  0.0305
   83SLPC  H13X 7885   2.860   2.456   4.739  0.7000  0.6200 -0.9823
   83SLPC  H13Y 7886   2.702   2.373   4.688  0.3814 -0.7608  1.8511
   83SLPC  C314 7887   2.684   2.533   4.824  0.0438  0.1639 -0.0665
   83SLPC  H14X 7888   2.581   2.565   4.797 -0.3880  0.8403  2.2099
   83SLPC  H14Y 7889   2.746   2.618   4.860 -0.8272  0.5796  0.4863
   83SLPC  C315 7890   2.682   2.423   4.932 -0.2968  0.3205  0.5593
   83SLPC  H15X 7891   2.792   2.411   4.943 -0.0974  1.4983  0.0951
   83SLPC  H15Y 7892   2.638   2.332   4.887  1.9173 -0.4028 -0.2913
   83SLPC  C316 7893   2.625   2.458   5.069 -0.1979 -0.8295 -0.7192
   83SLPC  H16X 7894   2.522   2.494   5.049  0.8886  2.2147 -1.3692
   83SLPC  H16Y 7895   2.662   2.554   5.112 -4.0343  0.1376  0.8755
   83SLPC  C317 7896   2.643   2.348   5.176  0.4718 -0.4962 -0.4972
   83SLPC  H17X 7897   2.738   2.375   5.228  0.3559 -0.2579 -0.4079
   83SLPC  H17Y 7898   2.656   2.246   5.134 -0.3274  0.4634 -3.2836
   83SLPC  C318 7899   2.536   2.358   5.280  0.3835  0.4526 -0.3508
   83SLPC  H18X 7900   2.560   2.292   5.366  2.3812  1.1302 -0.3217
   83SLPC  H18Y 7901   2.434   2.341   5.241 -0.0799  1.4526  0.3734
   83SLPC  H18Z 7902   2.531   2.458   5.329  1.7177  0.0905  0.5969
   84SLPC     N 7903   3.382   5.237   2.542  0.3663  0.1979  0.0488
   84SLPC   C13 7904   3.414   5.192   2.398 -0.3051  0.1752  0.1864
   84SLPC  H13A 7905   3.499   5.249   2.363  1.4512 -1.7051  1.2087
   84SLPC  H13B 7906   3.456   5.092   2.401  2.4527  1.2193  3.0205
   84SLPC  H13C 7907   3.333   5.211   2.329  0.5004 -1.4178 -1.2858
   84SLPC   C14 7908   3.366   5.387   2.541  0.0511  0.0947  0.1005
   84SLPC  H14A 7909   3.278   5.418   2.487  1.0302  0.8440 -1.1101
   84SLPC  H14B 7910   3.366   5.432   2.639  2.5596  0.5294 -0.0411
   84SLPC  H14C 7911   3.450   5.436   2.494  0.1060  0.7535  0.8582
   84SLPC   C15 7912   3.490   5.197   2.633 -0.4001  0.1086  0.1271
   84SLPC  H15A 7913   3.495   5.090   2.643 -2.4696  0.1162  1.8175
   84SLPC  H15B 7914   3.586   5.240   2.606 -0.3992 -1.3205 -2.4176
   84SLPC  H15C 7915   3.469   5.235   2.732 -1.7941 -1.8320  0.6293
   84SLPC   C12 7916   3.259   5.166   2.573  0.2654 -0.2153  0.1837
   84SLPC  H12A 7917   3.277   5.060   2.563 -2.7048 -0.8762  0.8877
   84SLPC  H12B 7918   3.178   5.197   2.509 -1.8340  0.4003  2.9337
   84SLPC   C11 7919   3.216   5.183   2.726  0.1568 -0.3698 -0.7518
   84SLPC  H11A 7920   3.109   5.160   2.746  0.0421  1.8105  1.7445
   84SLPC  H11B 7921   3.237   5.289   2.752 -2.0268  0.1232 -0.8354
   84SLPC     P 7922   3.268   4.945   2.807  0.3422 -0.1490  0.0501
   84SLPC   O13 7923   3.183   4.911   2.690 -0.0950  0.4799  0.2308
   84SLPC   O14 7924   3.393   4.872   2.804  0.2010 -0.3271 -0.6136
   84SLPC   O12 7925   3.295   5.105   2.808 -0.2265  0.3190 -0.7170
   84SLPC   O11 7926   3.189   4.898   2.941  0.0869  0.1507  0.0680
   84SLPC    C1 7927   3.218   4.960   3.068 -0.1598 -0.5624  0.2073
   84SLPC    HA 7928   3.325   4.986   3.079 -0.6429  1.9765 -0.3342
   84SLPC    HB 7929   3.164   5.057   3.068  0.5210 -0.1374 -1.6433
   84SLPC    C2 7930   3.167   4.880   3.187  0.1098 -0.4870  0.4165
   84SLPC    HS 7931   3.058   4.864   3.168  0.6937 -0.7315 -3.6477
   84SLPC   O21 7932   3.194   4.946   3.313 -0.5561 -0.6805  0.0705
   84SLPC   C21 7933   3.106   5.041   3.353  0.0053  0.1265  0.0840
   84SLPC   O22 7934   3.006   5.068   3.296  0.0969 -0.5636  0.0285
   84SLPC   C22 7935   3.143   5.094   3.502 -0.3919  0.3180  0.7487
   84SLPC   H2R 7936   3.073   5.030   3.558 -2.9454  0.4686 -2.0133
   84SLPC   H2S 7937   3.249   5.069   3.525 -0.3162 -0.7755 -0.6471
   84SLPC    C3 7938   3.216   4.735   3.190  0.3744 -0.0064  0.5620
   84SLPC    HX 7939   3.324   4.751   3.212  0.7561  0.0435 -1.1948
   84SLPC    HY 7940   3.209   4.686   3.090 -3.6238  1.7964 -0.2418
   84SLPC   O31 7941   3.143   4.671   3.297  0.3503  0.0069  0.0738
   84SLPC   C31 7942   3.211   4.601   3.386 -0.2023 -0.0572 -0.5059
   84SLPC   O32 7943   3.332   4.580   3.386 -0.0694  0.4082  0.1428
   84SLPC   C32 7944   3.119   4.541   3.492 -0.1887 -0.8468  0.4499
   84SLPC   H2X 7945   3.103   4.433   3.472 -2.7306 -0.7823  1.7088
   84SLPC   H2Y 7946   3.024   4.598   3.486 -0.6786 -1.7411 -0.7569
   84SLPC   C23 7947   3.120   5.245   3.529  0.0207 -0.0812  0.6206
   84SLPC   H3R 7948   3.020   5.276   3.492 -0.3419 -0.4676  1.2497
   84SLPC   H3S 7949   3.213   5.288   3.485 -0.4770  0.2904 -0.0905
   84SLPC   C24 7950   3.118   5.270   3.684  0.5208  0.1617  0.0931
   84SLPC   H4R 7951   3.212   5.227   3.725 -0.2640 -1.9470 -0.2020
   84SLPC   H4S 7952   3.045   5.193   3.717 -0.4496  0.3063 -1.6010
   84SLPC   C25 7953   3.103   5.415   3.714  0.1397 -0.1370 -0.4337
   84SLPC   H5R 7954   3.002   5.457   3.695  0.2159 -0.2938 -1.1813
   84SLPC   H5S 7955   3.183   5.466   3.658  1.4639 -0.2971  1.2173
   84SLPC   C26 7956   3.123   5.432   3.869 -0.2337  0.2155 -0.6806
   84SLPC   H6R 7957   3.233   5.429   3.887 -0.4530 -2.1509  0.7139
   84SLPC   H6S 7958   3.079   5.352   3.932  0.0380  2.7497  3.0373
   84SLPC   C27 7959   3.079   5.565   3.929  0.3667  0.4019 -0.0722
   84SLPC   H7R 7960   2.970   5.577   3.908 -0.1346 -1.6311  1.1414
   84SLPC   H7S 7961   3.134   5.650   3.882  0.6609 -0.9553 -2.2885
   84SLPC   C28 7962   3.105   5.581   4.076 -0.3961  0.0291 -0.4927
   84SLPC   H8R 7963   3.101   5.691   4.096 -0.3508  0.3906 -2.3623
   84SLPC   H8S 7964   3.207   5.541   4.093 -0.8785 -0.9811  0.1174
   84SLPC   C29 7965   3.007   5.510   4.163  0.7582 -0.5656  0.0300
   84SLPC   H9R 7966   2.985   5.405   4.136 -0.6904  0.1256 -1.6864
   84SLPC  C210 7967   2.943   5.560   4.274  0.3169  0.0067 -0.2651
   84SLPC  H10R 7968   2.884   5.482   4.324 -0.3835 -0.5152 -1.8366
   84SLPC  C211 7969   2.958   5.697   4.336 -0.2812  0.0951 -0.1967
   84SLPC  H11R 7970   2.865   5.733   4.385  0.7350  1.1285  1.0202
   84SLPC  H11S 7971   2.970   5.765   4.249 -3.1937 -0.1801 -0.9112
   84SLPC  C212 7972   3.078   5.720   4.424 -0.3264 -0.1757 -0.3476
   84SLPC  H12R 7973   3.164   5.659   4.392 -1.2160 -0.5989 -2.0813
   84SLPC  C213 7974   3.098   5.796   4.538  0.0437  0.1605  0.0051
   84SLPC  H13R 7975   3.197   5.797   4.585  0.5013 -0.7735 -0.9067
   84SLPC  C214 7976   2.998   5.879   4.606 -0.2541  0.4911 -0.1781
   84SLPC  H14R 7977   2.892   5.864   4.578 -0.2899 -0.6514  0.5036
   84SLPC  H14S 7978   3.026   5.987   4.600  1.9136  0.1801  2.2213
   84SLPC  C215 7979   2.995   5.847   4.759 -0.4079  0.1682  0.8948
   84SLPC  H15R 7980   2.981   5.738   4.773  0.3815  0.2938  2.9980
   84SLPC  H15S 7981   2.901   5.898   4.788 -1.3250  0.6682 -2.5479
   84SLPC  C216 7982   3.119   5.895   4.823 -0.3510 -0.2340 -0.2243
   84SLPC  H16R 7983   3.135   6.005   4.816 -0.2990 -0.2536 -0.4084
   84SLPC  H16S 7984   3.211   5.863   4.772  0.8690 -1.1934  2.3782
   84SLPC  C217 7985   3.153   5.843   4.964 -0.1015 -0.2047 -0.0948
   84SLPC  H17R 7986   3.068   5.878   5.026  0.1897  0.2950  0.0287
   84SLPC  H17S 7987   3.243   5.890   5.007 -0.2800  0.0342  0.0189
   84SLPC  C218 7988   3.173   5.686   4.972  0.5525 -1.1478 -0.2826
   84SLPC  H18R 7989   3.081   5.633   4.939  1.9519 -1.6678 -3.8411
   84SLPC  H18S 7990   3.211   5.652   5.071  2.4317 -0.4958 -0.7237
   84SLPC  H18T 7991   3.240   5.664   4.886 -0.5653  0.7178 -1.7173
   84SLPC   C33 7992   3.177   4.573   3.632  0.1894  0.0240 -0.6265
   84SLPC   H3X 7993   3.227   4.671   3.617 -2.3993  1.3109 -1.4160
   84SLPC   H3Y 7994   3.247   4.497   3.671 -0.3494 -0.2001 -0.0900
   84SLPC   C34 7995   3.058   4.594   3.732 -0.2511 -0.0458  0.3890
   84SLPC   H4X 7996   2.997   4.502   3.744 -2.1845  1.0177 -0.8343
   84SLPC   H4Y 7997   3.004   4.678   3.683  3.0570  1.4472 -1.0210
   84SLPC   C35 7998   3.112   4.645   3.868  0.3388  0.2128  1.2197
   84SLPC   H5X 7999   3.149   4.748   3.851  0.2208 -0.0266 -0.6497
   84SLPC   H5Y 8000   3.205   4.591   3.897 -0.2755 -2.0539 -0.7289
   84SLPC   C36 8001   3.011   4.633   3.984 -0.0944  0.1983 -0.0761
   84SLPC   H6X 8002   2.980   4.527   3.992  1.2687 -0.1712  0.5525
   84SLPC   H6Y 8003   2.917   4.683   3.953 -1.4714 -2.3551 -0.2867
   84SLPC   C37 8004   3.075   4.684   4.114  0.2590  0.2926 -0.3717
   84SLPC   H7X 8005   3.107   4.790   4.106  0.2280  0.4427  1.1607
   84SLPC   H7Y 8006   3.168   4.625   4.132  0.4859  0.2348 -1.6543
   84SLPC   C38 8007   2.990   4.667   4.244  0.2357 -0.1565 -0.0760
   84SLPC   H8X 8008   2.980   4.557   4.255 -1.2219  0.0545  0.8855
   84SLPC   H8Y 8009   2.895   4.723   4.236  0.1644 -0.0648  1.2757
   84SLPC   C39 8010   3.048   4.708   4.371 -0.8619 -0.4951 -0.8898
   84SLPC   H9X 8011   3.052   4.819   4.376 -0.3443 -0.2257 -4.5974
   84SLPC   H9Y 8012   3.156   4.684   4.360 -1.1215 -1.4592 -1.3627
   84SLPC  C310 8013   2.986   4.651   4.499 -0.3860 -0.0358  0.7809
   84SLPC  H10X 8014   2.984   4.540   4.497  0.0039 -0.0744 -2.0409
   84SLPC  H10Y 8015   2.880   4.684   4.497 -0.6518 -0.7474  2.1338
   84SLPC  C311 8016   3.065   4.706   4.618  0.3118 -0.2431  0.2685
   84SLPC  H11X 8017   3.050   4.816   4.615 -0.0519 -0.2648  1.0231
   84SLPC  H11Y 8018   3.173   4.689   4.602  0.8157  0.9002  2.1216
   84SLPC  C312 8019   3.026   4.640   4.749  0.1952  0.0680 -0.0115
   84SLPC  H12X 8020   2.921   4.602   4.748  0.4213 -0.6659  1.2080
   84SLPC  H12Y 8021   3.029   4.714   4.832 -0.1066 -1.0838  1.0650
   84SLPC  C313 8022   3.109   4.516   4.783 -0.1842  0.2028 -0.5367
   84SLPC  H13X 8023   3.219   4.534   4.793 -0.0062 -1.8847  2.7375
   84SLPC  H13Y 8024   3.096   4.441   4.702  0.7449 -0.3684 -0.1764
   84SLPC  C314 8025   3.070   4.439   4.914  0.8936  0.3684  0.2488
   84SLPC  H14X 8026   3.077   4.512   4.997 -0.2612 -0.4241  1.0845
   84SLPC  H14Y 8027   3.146   4.360   4.928  2.7230  1.3948 -2.8897
   84SLPC  C315 8028   2.929   4.374   4.916  0.3737 -0.1379 -0.3926
   84SLPC  H15X 8029   2.862   4.443   4.860 -1.9936 -1.1362  1.0413
   84SLPC  H15Y 8030   2.894   4.352   5.019 -3.2019  0.4888 -1.3174
   84SLPC  C316 8031   2.943   4.237   4.838  0.0406  0.0594 -0.4479
   84SLPC  H16X 8032   2.956   4.258   4.730 -2.6230  1.0627 -0.6526
   84SLPC  H16Y 8033   2.848   4.178   4.837 -0.2388  0.5001 -1.3581
   84SLPC  C317 8034   3.039   4.131   4.880 -0.3522 -0.6299  0.8117
   84SLPC  H17X 8035   3.144   4.153   4.852 -0.5405 -0.8697 -0.1259
   84SLPC  H17Y 8036   2.999   4.039   4.832 -2.3810 -0.2266  1.6054
   84SLPC  C318 8037   3.039   4.113   5.028 -0.2020 -0.2651  0.0903
   84SLPC  H18X 8038   2.935   4.112   5.065  0.7248  3.8545  3.4432
   84SLPC  H18Y 8039   3.092   4.188   5.090 -0.2971 -1.0169  1.1187
   84SLPC  H18Z 8040   3.087   4.016   5.054 -2.2167 -1.9228 -1.8988
   85SLPC     N 8041   0.223   2.101   3.340  0.3278 -0.4754 -0.1318
   85SLPC   C13 8042   0.215   2.040   3.203  0.5292  0.2343  0.2620
   85SLPC  H13A 8043   0.198   1.935   3.222  1.2818  0.4522  2.4843
   85SLPC  H13B 8044   0.126   2.078   3.157  1.7217  2.8422 -0.0937
   85SLPC  H13C 8045   0.301   2.070   3.146  2.3735 -1.2431  2.0780
   85SLPC   C14 8046   0.103   2.069   3.411  0.1008 -0.0023 -0.3108
   85SLPC  H14A 8047   0.018   2.059   3.346  1.0507 -0.5360 -1.5021
   85SLPC  H14B 8048   0.110   1.965   3.441 -1.1490  0.0776  0.3731
   85SLPC  H14C 8049   0.092   2.127   3.502  1.4202 -0.3890  0.1216
   85SLPC   C15 8050   0.221   2.247   3.318  0.4608  0.0918 -0.1496
   85SLPC  H15A 8051   0.263   2.280   3.223 -0.2598  2.2082  0.2161
   85SLPC  H15B 8052   0.125   2.294   3.326 -0.4378 -1.8741  1.3188
   85SLPC  H15C 8053   0.279   2.297   3.395 -0.9606  1.4641  0.0731
   85SLPC   C12 8054   0.353   2.056   3.415  0.4982 -0.8059 -0.1961
   85SLPC  H12A 8055   0.367   2.122   3.499 -1.3360  0.7324 -1.0001
   85SLPC  H12B 8056   0.436   2.087   3.354 -0.1640  1.4735 -0.0350
   85SLPC   C11 8057   0.353   1.906   3.470 -1.0920 -0.2362 -0.4622
   85SLPC  H11A 8058   0.270   1.898   3.544 -1.2259 -0.1002 -0.5948
   85SLPC  H11B 8059   0.441   1.904   3.537 -1.1136 -0.9089 -0.4413
   85SLPC     P 8060   0.488   1.775   3.299 -0.4197 -0.0332 -0.0694
   85SLPC   O13 8061   0.447   1.728   3.167  0.1329 -0.2325  0.4103
   85SLPC   O14 8062   0.572   1.899   3.298  0.4685  0.4320 -0.6481
   85SLPC   O12 8063   0.358   1.803   3.374 -0.1835 -0.3240 -0.1701
   85SLPC   O11 8064   0.561   1.663   3.383 -0.0445 -0.5221 -0.1809
   85SLPC    C1 8065   0.483   1.550   3.428  0.4336  0.3343  0.9111
   85SLPC    HA 8066   0.379   1.581   3.450  0.1701  1.6200 -1.7735
   85SLPC    HB 8067   0.483   1.476   3.345 -0.0292  0.0607  1.1533
   85SLPC    C2 8068   0.538   1.491   3.557 -0.3093  0.2711 -0.1615
   85SLPC    HS 8069   0.476   1.408   3.597  1.7270 -1.2753 -0.0383
   85SLPC   O21 8070   0.580   1.596   3.654  0.2566  0.7375 -0.2939
   85SLPC   C21 8071   0.474   1.648   3.714  0.0051  0.1820 -0.0867
   85SLPC   O22 8072   0.360   1.625   3.685 -0.2312  0.0666  0.0228
   85SLPC   C22 8073   0.511   1.755   3.814 -0.1600 -0.4213  0.0412
   85SLPC   H2R 8074   0.599   1.811   3.775 -0.7915 -0.7894 -1.9964
   85SLPC   H2S 8075   0.433   1.835   3.817 -0.8194 -1.0289 -0.5889
   85SLPC    C3 8076   0.669   1.417   3.517 -0.9932  0.2440 -0.3682
   85SLPC    HX 8077   0.732   1.493   3.467  1.6569 -1.3293  0.3438
   85SLPC    HY 8078   0.651   1.334   3.445 -1.9047  1.4216 -1.5260
   85SLPC   O31 8079   0.733   1.356   3.629 -0.1499 -0.5006  0.8037
   85SLPC   C31 8080   0.827   1.434   3.688  0.5237 -0.5047  0.1834
   85SLPC   O32 8081   0.881   1.537   3.650 -0.2448  0.2462  0.2496
   85SLPC   C32 8082   0.848   1.373   3.832 -0.0145 -0.5456 -0.7074
   85SLPC   H2X 8083   0.950   1.329   3.826 -0.5498 -2.0688  0.7956
   85SLPC   H2Y 8084   0.773   1.294   3.850 -1.9469  1.0912 -1.1794
   85SLPC   C23 8085   0.533   1.706   3.963  0.1853 -0.0487  0.5278
   85SLPC   H3R 8086   0.566   1.600   3.968  2.0220  0.5313  2.0212
   85SLPC   H3S 8087   0.432   1.711   4.010  0.0009  0.8807  0.0555
   85SLPC   C24 8088   0.632   1.798   4.042 -0.0282 -0.1976 -0.1768
   85SLPC   H4R 8089   0.714   1.820   3.971 -2.3000  1.1404 -2.5509
   85SLPC   H4S 8090   0.673   1.744   4.130 -0.3478  1.1506  0.8351
   85SLPC   C25 8091   0.561   1.920   4.109  0.0730  0.4278  0.0894
   85SLPC   H5R 8092   0.530   1.990   4.028  0.1871  0.1237 -0.2224
   85SLPC   H5S 8093   0.471   1.892   4.167  0.3172  0.4371  0.4729
   85SLPC   C26 8094   0.653   1.994   4.204 -0.0863 -0.0203 -0.5559
   85SLPC   H6R 8095   0.605   2.091   4.229 -0.1247  0.3110 -1.8458
   85SLPC   H6S 8096   0.752   2.015   4.158  1.1153 -0.6491  1.6011
   85SLPC   C27 8097   0.681   1.916   4.330  0.2813 -0.5853 -0.3112
   85SLPC   H7R 8098   0.752   1.833   4.309 -0.6271 -1.5926  0.4846
   85SLPC   H7S 8099   0.586   1.876   4.373  0.5467  1.2703  2.2699
   85SLPC   C28 8100   0.753   2.005   4.439  0.1189 -0.1442  0.1484
   85SLPC   H8R 8101   0.836   2.062   4.392  0.4676  0.0271  0.9541
   85SLPC   H8S 8102   0.792   1.930   4.511  0.5103 -0.2775 -0.2034
   85SLPC   C29 8103   0.655   2.104   4.502  0.0307 -0.1903 -0.3093
   85SLPC   H9R 8104   0.600   2.169   4.432 -0.7865 -2.2190 -1.6528
   85SLPC  C210 8105   0.606   2.101   4.632 -0.0445  0.8355 -0.2332
   85SLPC  H10R 8106   0.544   2.187   4.663 -0.7752  0.9759 -1.9705
   85SLPC  C211 8107   0.659   2.016   4.741  0.0062 -0.0788  0.2753
   85SLPC  H11R 8108   0.756   2.056   4.779  0.5490 -1.2972  0.2278
   85SLPC  H11S 8109   0.693   1.921   4.693  3.3713  2.1501 -2.2148
   85SLPC  C212 8110   0.555   2.001   4.851  0.6620 -0.2885  0.0644
   85SLPC  H12R 8111   0.474   1.936   4.818  0.9376 -1.7339  2.0498
   85SLPC  C213 8112   0.552   2.065   4.969  0.1866 -0.2167  0.4156
   85SLPC  H13R 8113   0.466   2.052   5.037  0.1528  0.9133  0.6119
   85SLPC  C214 8114   0.653   2.147   5.038 -0.3748 -0.3260 -0.5615
   85SLPC  H14R 8115   0.600   2.189   5.126  1.6939 -1.1081  1.1421
   85SLPC  H14S 8116   0.695   2.229   4.976 -1.6667  1.6215  1.0017
   85SLPC  C215 8117   0.756   2.056   5.094  0.5482 -0.1346  0.2150
   85SLPC  H15R 8118   0.835   2.026   5.022 -1.0792  0.7198 -2.0413
   85SLPC  H15S 8119   0.717   1.963   5.141 -3.7735  1.7552  0.8375
   85SLPC  C216 8120   0.819   2.134   5.213 -0.5231 -0.0721  0.2697
   85SLPC  H16R 8121   0.750   2.138   5.301  0.8469 -1.8472  1.5088
   85SLPC  H16S 8122   0.836   2.240   5.186 -0.9119  0.5179  2.1408
   85SLPC  C217 8123   0.957   2.085   5.250  0.9758  0.5205  0.0835
   85SLPC  H17R 8124   1.011   2.075   5.153 -0.2735 -1.2849 -0.4891
   85SLPC  H17S 8125   0.938   1.986   5.296  1.0184  1.9672  3.5154
   85SLPC  C218 8126   1.024   2.176   5.352  0.1731  0.9122  0.1615
   85SLPC  H18R 8127   1.129   2.141   5.364 -0.1654  0.0647  0.7098
   85SLPC  H18S 8128   0.972   2.169   5.449  0.9453 -2.1384  0.4700
   85SLPC  H18T 8129   1.024   2.283   5.321 -0.3292  0.4252 -1.6724
   85SLPC   C33 8130   0.862   1.481   3.940  0.6348  0.4690 -0.6152
   85SLPC   H3X 8131   0.760   1.523   3.947  0.5855  0.2540 -0.0317
   85SLPC   H3Y 8132   0.931   1.564   3.913  1.4005  0.6531  1.7673
   85SLPC   C34 8133   0.912   1.412   4.067  0.3789  0.2220 -0.0654
   85SLPC   H4X 8134   1.014   1.368   4.057 -0.5177 -1.8364 -0.6052
   85SLPC   H4Y 8135   0.852   1.327   4.105 -0.6630  0.3326 -1.3791
   85SLPC   C35 8136   0.920   1.522   4.174  0.2981 -0.3935 -0.4421
   85SLPC   H5X 8137   0.828   1.585   4.171 -0.0500 -0.9065 -0.6304
   85SLPC   H5Y 8138   1.006   1.587   4.146  0.6418 -1.3576 -1.7464
   85SLPC   C36 8139   0.942   1.483   4.321 -0.3526  0.0259 -0.1309
   85SLPC   H6X 8140   0.958   1.573   4.384  1.8834 -1.6307  1.8448
   85SLPC   H6Y 8141   1.037   1.430   4.342 -0.0502  0.6238  0.0347
   85SLPC   C37 8142   0.834   1.405   4.392 -0.0045  0.5177  0.9305
   85SLPC   H7X 8143   0.805   1.316   4.332 -0.2189  0.3253  1.3165
   85SLPC   H7Y 8144   0.740   1.464   4.384  0.7343  1.4992 -1.4426
   85SLPC   C38 8145   0.864   1.367   4.533  0.1293  0.4888  0.1267
   85SLPC   H8X 8146   0.957   1.309   4.553  0.5535  1.1631  0.1693
   85SLPC   H8Y 8147   0.779   1.308   4.574 -1.2919  3.0210  1.0583
   85SLPC   C39 8148   0.884   1.496   4.624 -0.1525  0.6077  0.2948
   85SLPC   H9X 8149   0.801   1.569   4.617 -0.0645  0.6581 -0.3122
   85SLPC   H9Y 8150   0.968   1.562   4.595  0.8493  0.5766  2.8385
   85SLPC  C310 8151   0.902   1.463   4.774 -0.1087  0.0427  0.1423
   85SLPC  H10X 8152   0.986   1.393   4.789  0.0847  0.3311  0.4185
   85SLPC  H10Y 8153   0.810   1.420   4.818 -1.5767  2.2428 -0.5768
   85SLPC  C311 8154   0.939   1.588   4.853  0.1687 -0.3346  0.0975
   85SLPC  H11X 8155   0.879   1.671   4.809  1.3953  1.2186  1.2657
   85SLPC  H11Y 8156   1.044   1.613   4.828 -0.2328  1.6620  0.2099
   85SLPC  C312 8157   0.936   1.575   5.007  0.7190 -1.1109  1.2826
   85SLPC  H12X 8158   0.994   1.657   5.054 -2.1653  2.1550 -0.3417
   85SLPC  H12Y 8159   0.975   1.476   5.038 -0.4521 -2.4029 -1.0813
   85SLPC  C313 8160   0.794   1.597   5.067  0.7591 -0.2481 -0.4909
   85SLPC  H13X 8161   0.724   1.541   5.001 -0.1839 -1.0968  1.1595
   85SLPC  H13Y 8162   0.754   1.696   5.037 -0.3999 -1.0174 -1.5421
   85SLPC  C314 8163   0.768   1.558   5.218  0.6415 -0.0373 -0.1060
   85SLPC  H14X 8164   0.679   1.619   5.245  0.3502  0.1593 -1.4581
   85SLPC  H14Y 8165   0.854   1.576   5.285  0.5403 -1.6549  0.5202
   85SLPC  C315 8166   0.714   1.415   5.234  0.1919  0.6480  0.4584
   85SLPC  H15X 8167   0.798   1.344   5.217 -0.3871 -0.2619  1.2931
   85SLPC  H15Y 8168   0.638   1.390   5.157 -1.2576 -1.4754  2.4680
   85SLPC  C316 8169   0.660   1.390   5.377  0.3294 -0.6879 -0.2293
   85SLPC  H16X 8170   0.597   1.298   5.368 -2.5353  0.9814  1.4118
   85SLPC  H16Y 8171   0.591   1.473   5.402  1.5303  0.6122 -1.1153
   85SLPC  C317 8172   0.764   1.374   5.489 -0.1041 -0.3893  0.2761
   85SLPC  H17X 8173   0.802   1.473   5.522  3.9152 -1.8147  0.4785
   85SLPC  H17Y 8174   0.849   1.314   5.449  2.5814  1.2669  3.0331
   85SLPC  C318 8175   0.711   1.288   5.605  0.1245  0.1636  0.6582
   85SLPC  H18X 8176   0.637   1.342   5.667 -0.8409  1.3687 -1.4501
   85SLPC  H18Y 8177   0.796   1.254   5.668  0.1944  0.6521  0.8264
   85SLPC  H18Z 8178   0.664   1.197   5.561 -0.3971  1.3562 -1.3809
   86SLPC     N 8179   0.394   0.556   3.106  0.0752  0.1104  0.6634
   86SLPC   C13 8180   0.491   0.452   3.066  0.1649 -0.0890  0.0404
   86SLPC  H13A 8181   0.585   0.446   3.119  0.9760 -2.2452 -1.5083
   86SLPC  H13B 8182   0.444   0.356   3.083 -0.9064  0.7748  2.4650
   86SLPC  H13C 8183   0.512   0.471   2.962  1.9065  4.6344  0.9725
   86SLPC   C14 8184   0.283   0.546   3.014 -0.3173  0.4200  0.1379
   86SLPC  H14A 8185   0.245   0.445   3.008  0.2280  0.2537 -0.7391
   86SLPC  H14B 8186   0.192   0.595   3.046 -1.3917 -1.8910  0.8179
   86SLPC  H14C 8187   0.312   0.590   2.919  0.2075  0.0607  0.1258
   86SLPC   C15 8188   0.458   0.690   3.086  0.5946  0.5939 -0.2910
   86SLPC  H15A 8189   0.555   0.690   3.134  0.4243  0.6674  0.0587
   86SLPC  H15B 8190   0.464   0.725   2.984  0.2186 -0.8726 -0.8474
   86SLPC  H15C 8191   0.396   0.763   3.134 -0.8521  0.6512 -2.1303
   86SLPC   C12 8192   0.346   0.529   3.243 -0.0755  0.2784 -0.0068
   86SLPC  H12A 8193   0.290   0.437   3.248 -0.0232  0.2420 -0.0953
   86SLPC  H12B 8194   0.283   0.610   3.277  0.1607  0.9353 -1.1004
   86SLPC   C11 8195   0.457   0.510   3.358 -0.8915  0.1090  0.6620
   86SLPC  H11A 8196   0.401   0.495   3.453 -0.6729  0.7528  0.8962
   86SLPC  H11B 8197   0.518   0.602   3.367 -2.7782  1.3880  0.9091
   86SLPC     P 8198   0.681   0.382   3.413  0.0657 -0.5321  0.1931
   86SLPC   O13 8199   0.712   0.249   3.466 -0.9929  0.2276 -0.0379
   86SLPC   O14 8200   0.785   0.440   3.326  0.2409 -0.1602  0.2600
   86SLPC   O12 8201   0.536   0.390   3.338  0.1477  0.1428 -0.1406
   86SLPC   O11 8202   0.662   0.483   3.534  0.2785  0.1309 -0.8115
   86SLPC    C1 8203   0.751   0.501   3.647  0.3514 -0.6290  0.7722
   86SLPC    HA 8204   0.812   0.409   3.661  1.3553 -0.1499 -0.2854
   86SLPC    HB 8205   0.815   0.591   3.637  0.1918 -0.6070 -0.2175
   86SLPC    C2 8206   0.668   0.525   3.774  0.7555  0.8683 -0.6423
   86SLPC    HS 8207   0.617   0.429   3.795  0.3475  0.7170 -2.1802
   86SLPC   O21 8208   0.570   0.632   3.746  0.2864  0.1719  0.3535
   86SLPC   C21 8209   0.448   0.593   3.735 -0.4156  0.5722  0.1520
   86SLPC   O22 8210   0.405   0.480   3.741  0.0343  0.0255  0.0899
   86SLPC   C22 8211   0.356   0.717   3.719  0.0870  0.0743 -0.3904
   86SLPC   H2R 8212   0.380   0.787   3.802  2.2643 -1.0815  0.0380
   86SLPC   H2S 8213   0.381   0.765   3.622  0.8111  1.1655  0.3121
   86SLPC    C3 8214   0.748   0.563   3.905  1.1900  0.3999 -0.2124
   86SLPC    HX 8215   0.764   0.673   3.901  0.8155  0.4425 -0.6460
   86SLPC    HY 8216   0.842   0.503   3.906  1.4699  0.8426  0.3760
   86SLPC   O31 8217   0.662   0.537   4.021 -0.2259 -0.3777  0.7435
   86SLPC   C31 8218   0.664   0.409   4.064 -0.2336 -0.6129 -0.9051
   86SLPC   O32 8219   0.716   0.312   4.011 -0.0749  0.0756  0.4850
   86SLPC   C32 8220   0.589   0.407   4.198  0.0271 -0.8281  0.0775
   86SLPC   H2X 8221   0.488   0.363   4.180  1.5130 -4.0480 -1.3046
   86SLPC   H2Y 8222   0.601   0.510   4.238  1.8381 -0.6877 -0.7177
   86SLPC   C23 8223   0.210   0.664   3.706 -0.1908 -0.4664 -0.3791
   86SLPC   H3R 8224   0.213   0.597   3.618  2.1092  0.2022 -0.8716
   86SLPC   H3S 8225   0.135   0.737   3.668 -0.2098  0.0483  0.5975
   86SLPC   C24 8226   0.145   0.599   3.832 -0.9424  0.4039 -0.0694
   86SLPC   H4R 8227   0.204   0.512   3.866 -0.6721  0.2603 -0.8837
   86SLPC   H4S 8228   0.050   0.559   3.793 -0.5417 -1.6478  0.9322
   86SLPC   C25 8229   0.138   0.695   3.950 -0.1110  0.1422  0.4308
   86SLPC   H5R 8230   0.031   0.709   3.976 -0.9360 -2.5948 -1.1280
   86SLPC   H5S 8231   0.188   0.791   3.925  0.5226 -0.3263 -0.1235
   86SLPC   C26 8232   0.223   0.658   4.080 -0.1555  0.5022  0.5899
   86SLPC   H6R 8233   0.229   0.755   4.133 -1.2492 -0.0128  1.7182
   86SLPC   H6S 8234   0.321   0.618   4.045 -0.4508 -1.0988  1.4826
   86SLPC   C27 8235   0.160   0.565   4.183  0.5830  0.6098  0.0416
   86SLPC   H7R 8236   0.153   0.463   4.139  0.6962  0.8556 -0.5566
   86SLPC   H7S 8237   0.061   0.607   4.208  0.4213  0.3626 -0.1792
   86SLPC   C28 8238   0.232   0.558   4.315  0.1530  0.1083  0.2328
   86SLPC   H8R 8239   0.207   0.650   4.372 -0.1150  2.3454 -3.2437
   86SLPC   H8S 8240   0.339   0.557   4.288  0.3059  0.0832  0.8177
   86SLPC   C29 8241   0.210   0.434   4.395 -0.8355  1.1027 -0.1435
   86SLPC   H9R 8242   0.259   0.344   4.353 -0.0262  0.4078  2.1159
   86SLPC  C210 8243   0.161   0.423   4.521  0.0660 -0.0158  0.2841
   86SLPC  H10R 8244   0.185   0.327   4.570  1.1141 -0.7603 -1.5771
   86SLPC  C211 8245   0.111   0.531   4.607  0.4366 -0.4696  1.0054
   86SLPC  H11R 8246   0.025   0.485   4.662 -1.5421 -0.0655 -1.5541
   86SLPC  H11S 8247   0.055   0.604   4.544 -0.0410  0.1175  2.0723
   86SLPC  C212 8248   0.219   0.600   4.686 -0.0893  0.4996  0.0202
   86SLPC  H12R 8249   0.299   0.536   4.728  0.8168  1.0150 -0.8942
   86SLPC  C213 8250   0.213   0.727   4.723  0.0737 -0.0755 -0.5406
   86SLPC  H13R 8251   0.294   0.775   4.780 -1.2330  1.1832  0.3148
   86SLPC  C214 8252   0.114   0.834   4.683 -0.3243 -0.5069  0.4955
   86SLPC  H14R 8253   0.067   0.875   4.775  0.3717 -1.4153  1.2743
   86SLPC  H14S 8254   0.035   0.794   4.617  0.7201 -3.3857  0.8286
   86SLPC  C215 8255   0.180   0.959   4.603 -0.2235 -0.3630  1.0886
   86SLPC  H15R 8256   0.264   1.002   4.661  0.8915 -0.7480 -0.1940
   86SLPC  H15S 8257   0.102   1.038   4.601 -1.2225 -1.3064 -1.3997
   86SLPC  C216 8258   0.230   0.921   4.462 -0.7056 -0.9253  0.0267
   86SLPC  H16R 8259   0.142   0.902   4.399 -0.7581  2.4494 -1.1220
   86SLPC  H16S 8260   0.290   0.829   4.478 -1.0028 -0.9386  1.1961
   86SLPC  C217 8261   0.320   1.028   4.408  0.0438  0.0517 -0.6258
   86SLPC  H17R 8262   0.414   1.034   4.467 -0.2731 -0.5453 -0.0554
   86SLPC  H17S 8263   0.268   1.127   4.412 -0.2928 -0.1321 -0.3966
   86SLPC  C218 8264   0.376   1.000   4.268  0.0106  0.2145 -0.2986
   86SLPC  H18R 8265   0.407   0.894   4.271  0.1946  0.2903  1.3160
   86SLPC  H18S 8266   0.465   1.060   4.239  0.6726 -1.3908 -1.6986
   86SLPC  H18T 8267   0.302   1.019   4.187 -1.0931  0.2452  0.6747
   86SLPC   C33 8268   0.662   0.311   4.290  0.1227  0.6045 -0.3036
   86SLPC   H3X 8269   0.666   0.212   4.240 -3.1704  0.1832  0.0552
   86SLPC   H3Y 8270   0.597   0.289   4.377  2.4303  0.1392  1.3957
   86SLPC   C34 8271   0.789   0.363   4.354  0.1717 -0.5073 -0.2550
   86SLPC   H4X 8272   0.776   0.472   4.370  0.9615 -0.6452  1.6322
   86SLPC   H4Y 8273   0.872   0.359   4.280 -0.0477  0.4563 -0.5552
   86SLPC   C35 8274   0.820   0.298   4.491 -0.3286 -0.0933  0.1389
   86SLPC   H5X 8275   0.924   0.323   4.521  0.0581  0.0608 -1.2544
   86SLPC   H5Y 8276   0.826   0.187   4.493 -1.3890 -0.1564  1.6962
   86SLPC   C36 8277   0.741   0.357   4.606  0.0653  0.3132 -0.3172
   86SLPC   H6X 8278   0.632   0.340   4.597 -0.2174  2.2682 -1.0573
   86SLPC   H6Y 8279   0.753   0.466   4.620 -0.6602  0.4442 -0.6471
   86SLPC   C37 8280   0.797   0.289   4.733  0.2010  0.2786  0.2918
   86SLPC   H7X 8281   0.906   0.307   4.751  0.2832  1.8033 -1.4413
   86SLPC   H7Y 8282   0.788   0.183   4.703 -1.3415 -0.0479  1.7492
   86SLPC   C38 8283   0.721   0.311   4.873 -0.0017 -0.2204  0.2476
   86SLPC   H8X 8284   0.627   0.252   4.874  0.1042 -0.3770  0.9529
   86SLPC   H8Y 8285   0.701   0.419   4.885 -0.7244 -0.3590  0.3281
   86SLPC   C39 8286   0.810   0.257   4.982 -0.1753  0.0670  0.4462
   86SLPC   H9X 8287   0.913   0.299   4.978 -0.6329  1.1511 -0.4328
   86SLPC   H9Y 8288   0.815   0.148   4.960  0.6178 -0.0970  1.3753
   86SLPC  C310 8289   0.752   0.282   5.116  0.6783  0.1852 -0.6783
   86SLPC  H10X 8290   0.790   0.211   5.192  0.2330  0.2201 -0.4211
   86SLPC  H10Y 8291   0.645   0.252   5.107  0.7547 -0.3931  0.2143
   86SLPC  C311 8292   0.770   0.421   5.183 -0.2867 -0.4293  0.1643
   86SLPC  H11X 8293   0.726   0.503   5.123 -1.1767  0.2819  1.7247
   86SLPC  H11Y 8294   0.875   0.447   5.208 -1.1771  1.5264  2.1616
   86SLPC  C312 8295   0.695   0.421   5.314 -0.1555  0.1325 -0.1357
   86SLPC  H12X 8296   0.714   0.340   5.387 -0.2557  1.5988  1.5784
   86SLPC  H12Y 8297   0.591   0.427   5.276  0.0590  2.5275 -0.5081
   86SLPC  C313 8298   0.707   0.553   5.402 -0.1197  0.7169  0.2231
   86SLPC  H13X 8299   0.809   0.552   5.444 -0.0235  0.3339 -0.0109
   86SLPC  H13Y 8300   0.642   0.542   5.491  0.7242 -2.6328  0.5663
   86SLPC  C314 8301   0.696   0.685   5.338  0.1386 -0.2801 -0.1813
   86SLPC  H14X 8302   0.688   0.756   5.422  2.9833  1.5456 -1.3098
   86SLPC  H14Y 8303   0.605   0.698   5.275 -0.6049 -1.9518  0.4871
   86SLPC  C315 8304   0.821   0.742   5.266  0.3046  0.1749 -0.3805
   86SLPC  H15X 8305   0.825   0.699   5.164 -0.7413 -0.6342 -0.0968
   86SLPC  H15Y 8306   0.911   0.717   5.327  0.7239  0.4365 -0.8806
   86SLPC  C316 8307   0.799   0.895   5.243 -0.0835  0.0491 -0.2390
   86SLPC  H16X 8308   0.826   0.945   5.338  3.5933 -2.4156  0.1984
   86SLPC  H16Y 8309   0.689   0.903   5.224 -0.2741 -0.0621  0.7793
   86SLPC  C317 8310   0.888   0.956   5.139  0.7491  0.0370 -0.3086
   86SLPC  H17X 8311   0.905   0.884   5.057  2.4834 -0.0658  0.0893
   86SLPC  H17Y 8312   0.995   0.964   5.170  1.7639  3.5858 -3.7986
   86SLPC  C318 8313   0.839   1.098   5.096 -0.8674 -0.2371  0.2984
   86SLPC  H18X 8314   0.734   1.109   5.062 -0.8435  1.0995  0.6267
   86SLPC  H18Y 8315   0.903   1.133   5.012 -2.6881  0.4842 -0.8311
   86SLPC  H18Z 8316   0.848   1.150   5.194 -0.5194  0.0827  0.0981
   87SLPC     N 8317   6.414   4.163   2.860 -0.8259  0.0733 -0.2791
   87SLPC   C13 8318   6.530   4.196   2.947 -0.1383 -0.4550 -0.2026
   87SLPC  H13A 8319   6.616   4.234   2.895  0.7418  2.2436  2.8968
   87SLPC  H13B 8320   6.495   4.261   3.026  0.3131  0.3749 -0.6803
   87SLPC  H13C 8321   6.573   4.107   2.992  0.8379  1.0075  1.8766
   87SLPC   C14 8322   6.472   4.105   2.734 -0.0882  0.0249 -0.0581
   87SLPC  H14A 8323   6.533   4.017   2.750  1.2648  0.6130 -1.6529
   87SLPC  H14B 8324   6.395   4.074   2.665 -0.5574  0.0599  0.4538
   87SLPC  H14C 8325   6.531   4.173   2.674 -1.6654  1.0006 -0.5554
   87SLPC   C15 8326   6.337   4.293   2.835  0.1366 -0.8802 -0.3793
   87SLPC  H15A 8327   6.254   4.272   2.768  0.1765 -2.3074 -0.0256
   87SLPC  H15B 8328   6.298   4.340   2.924 -1.1259  0.4497 -1.5760
   87SLPC  H15C 8329   6.401   4.372   2.800  0.3766 -0.4512  0.9880
   87SLPC   C12 8330   6.330   4.059   2.923  0.0364 -0.2019 -0.0068
   87SLPC  H12A 8331   6.388   3.969   2.917  4.4938  2.4960 -5.1625
   87SLPC  H12B 8332   6.246   4.040   2.858 -0.4280 -0.6522  0.7030
   87SLPC   C11 8333   6.274   4.086   3.065  0.0592  0.0466  0.0173
   87SLPC  H11A 8334   6.360   4.115   3.130 -1.9601  2.4273  1.8171
   87SLPC  H11B 8335   6.239   3.991   3.111  0.1965  0.3251  0.7080
   87SLPC     P 8336   6.024   4.163   3.041  0.0380 -0.0413  0.5995
   87SLPC   O13 8337   5.950   4.289   3.031  0.2252 -0.4970  0.1462
   87SLPC   O14 8338   6.014   4.077   2.917  0.5257 -0.0644 -0.2222
   87SLPC   O12 8339   6.174   4.189   3.072  0.0731  0.5874  0.2119
   87SLPC   O11 8340   5.973   4.075   3.153 -0.1093 -0.0023 -0.6006
   87SLPC    C1 8341   5.950   4.123   3.282 -0.5091  0.2420  0.1890
   87SLPC    HA 8342   5.907   4.225   3.286  0.6004  0.7439 -0.2282
   87SLPC    HB 8343   5.879   4.050   3.327 -0.5932  0.1991 -0.0132
   87SLPC    C2 8344   6.077   4.117   3.378  0.5672  0.6659  0.4611
   87SLPC    HS 8345   6.157   4.174   3.328  0.9567  1.8512  2.3334
   87SLPC   O21 8346   6.111   3.978   3.416 -0.2235 -0.1165 -0.0442
   87SLPC   C21 8347   6.238   3.947   3.435 -0.8578  0.5254  0.2740
   87SLPC   O22 8348   6.328   4.029   3.419  0.3469  0.0533  0.2194
   87SLPC   C22 8349   6.254   3.806   3.473  0.3459 -0.4423  0.4465
   87SLPC   H2R 8350   6.276   3.755   3.377  1.2503  1.8961 -0.6592
   87SLPC   H2S 8351   6.343   3.780   3.534 -0.4239 -0.6936  1.4931
   87SLPC    C3 8352   6.034   4.197   3.510  0.1961 -0.1630  0.2800
   87SLPC    HX 8353   5.950   4.137   3.552 -0.9371  0.0254 -1.5828
   87SLPC    HY 8354   5.982   4.291   3.482 -1.5382 -0.7306  1.4436
   87SLPC   O31 8355   6.146   4.207   3.607  0.2700  0.7914  0.5474
   87SLPC   C31 8356   6.219   4.312   3.592  0.3202  0.1540  0.4087
   87SLPC   O32 8357   6.190   4.397   3.512  0.6287 -0.3678  0.2318
   87SLPC   C32 8358   6.349   4.306   3.670 -0.5647 -0.0052 -0.4337
   87SLPC   H2X 8359   6.426   4.349   3.602  1.2227 -1.5559  0.4995
   87SLPC   H2Y 8360   6.389   4.203   3.682 -1.7120 -0.4253 -0.0336
   87SLPC   C23 8361   6.137   3.729   3.549 -1.0247 -0.9149 -0.2785
   87SLPC   H3R 8362   6.167   3.622   3.538  4.1656  0.1261  1.0370
   87SLPC   H3S 8363   6.044   3.751   3.491 -0.4561  1.1014 -0.4904
   87SLPC   C24 8364   6.119   3.756   3.696  0.4127 -0.5753  0.2599
   87SLPC   H4R 8365   6.209   3.725   3.753  0.6953  0.6136  0.4997
   87SLPC   H4S 8366   6.036   3.688   3.725  0.3313  1.2233  5.0536
   87SLPC   C25 8367   6.071   3.897   3.725  0.1423  0.4168 -0.7849
   87SLPC   H5R 8368   5.985   3.909   3.656 -0.2769 -0.6698 -0.4703
   87SLPC   H5S 8369   6.151   3.971   3.705  2.4443 -1.1971  1.7477
   87SLPC   C26 8370   6.018   3.909   3.867  0.2703  0.0299 -0.2601
   87SLPC   H6R 8371   6.086   3.870   3.945 -0.5774  0.5642  0.7694
   87SLPC   H6S 8372   5.922   3.853   3.874  0.9536 -0.9669  1.9856
   87SLPC   C27 8373   5.993   4.062   3.888  0.4030  0.3617 -0.2882
   87SLPC   H7R 8374   5.909   4.097   3.825 -1.7902 -3.2298  0.3547
   87SLPC   H7S 8375   6.087   4.108   3.851  0.4973  0.1673 -0.2918
   87SLPC   C28 8376   5.975   4.104   4.038 -0.3506  0.0579  0.6710
   87SLPC   H8R 8377   5.986   4.214   4.029 -1.5290  0.0925 -0.9397
   87SLPC   H8S 8378   6.052   4.051   4.098  1.0989 -0.7834 -1.7814
   87SLPC   C29 8379   5.846   4.069   4.107  0.2916  0.4951  0.0539
   87SLPC   H9R 8380   5.760   4.091   4.042  0.5353 -1.0253 -0.8232
   87SLPC  C210 8381   5.824   4.038   4.239 -0.3175  0.3463  1.2417
   87SLPC  H10R 8382   5.720   4.024   4.272 -0.6602 -3.3254 -0.8069
   87SLPC  C211 8383   5.927   4.012   4.344  0.2326  0.4063  0.5636
   87SLPC  H11R 8384   5.948   4.111   4.391 -2.2117  0.9878  0.5414
   87SLPC  H11S 8385   6.018   3.974   4.294 -0.3836  0.1769 -0.4066
   87SLPC  C212 8386   5.881   3.904   4.431  0.1491 -0.5777  0.0452
   87SLPC  H12R 8387   5.927   3.805   4.421  2.3679  0.5236 -1.3966
   87SLPC  C213 8388   5.788   3.916   4.527 -0.5390  0.1443  0.7464
   87SLPC  H13R 8389   5.754   3.826   4.581  1.6547 -0.6042  0.9506
   87SLPC  C214 8390   5.705   4.035   4.564  0.5590  0.5304 -0.1471
   87SLPC  H14R 8391   5.597   4.025   4.538  0.4084  1.9731 -0.1411
   87SLPC  H14S 8392   5.730   4.131   4.514  1.5349 -0.0752 -0.8491
   87SLPC  C215 8393   5.703   4.072   4.715  0.7041 -0.3865  0.9770
   87SLPC  H15R 8394   5.645   4.166   4.728  2.0292  0.3381  1.9818
   87SLPC  H15S 8395   5.808   4.104   4.733  0.6210  1.6037 -1.4927
   87SLPC  C216 8396   5.650   3.957   4.795 -0.6717 -0.5464  0.5145
   87SLPC  H16R 8397   5.724   3.875   4.798 -0.6992 -0.6007 -0.1520
   87SLPC  H16S 8398   5.552   3.923   4.754 -0.9474 -2.9005  2.8734
   87SLPC  C217 8399   5.619   3.998   4.935  0.3503 -0.3560 -0.3147
   87SLPC  H17R 8400   5.708   4.052   4.975 -0.7833  1.3374  0.0162
   87SLPC  H17S 8401   5.600   3.905   4.993 -1.3100 -0.8723 -1.6183
   87SLPC  C218 8402   5.483   4.083   4.949 -0.4230  0.1964 -0.2445
   87SLPC  H18R 8403   5.464   4.108   5.056  1.0772  1.7814 -0.2995
   87SLPC  H18S 8404   5.407   4.016   4.905 -1.8487 -0.2179  2.6349
   87SLPC  H18T 8405   5.498   4.177   4.892  2.3657  0.6396  1.0183
   87SLPC   C33 8406   6.356   4.389   3.804  0.3525 -0.5492 -0.2639
   87SLPC   H3X 8407   6.284   4.472   3.787  0.6965  0.1855  1.6265
   87SLPC   H3Y 8408   6.458   4.430   3.823 -0.5171  1.4932  0.2370
   87SLPC   C34 8409   6.301   4.317   3.925 -0.2143  0.1494  0.1675
   87SLPC   H4X 8410   6.360   4.224   3.937  2.9147  2.0143  0.1222
   87SLPC   H4Y 8411   6.198   4.278   3.907  0.2195 -0.8476 -0.2550
   87SLPC   C35 8412   6.315   4.410   4.046 -0.7070  0.0228  0.1913
   87SLPC   H5X 8413   6.261   4.505   4.022  3.2360  2.6148  0.6118
   87SLPC   H5Y 8414   6.421   4.444   4.051 -0.3777 -0.0976 -3.2576
   87SLPC   C36 8415   6.257   4.340   4.173 -0.5545  0.1610  0.2858
   87SLPC   H6X 8416   6.304   4.240   4.172 -2.9590 -1.0465  0.9323
   87SLPC   H6Y 8417   6.146   4.332   4.163 -0.2460 -1.9785 -2.9178
   87SLPC   C37 8418   6.295   4.397   4.309  0.1153  0.1683  0.1651
   87SLPC   H7X 8419   6.230   4.486   4.324 -0.3946 -0.2140  0.2162
   87SLPC   H7Y 8420   6.401   4.430   4.300 -0.3610  1.2407 -2.4635
   87SLPC   C38 8421   6.279   4.301   4.428 -0.3905  0.0285  0.3861
   87SLPC   H8X 8422   6.328   4.202   4.415  1.9583  1.2894 -1.0840
   87SLPC   H8Y 8423   6.169   4.291   4.442 -0.8667  0.6709 -2.3647
   87SLPC   C39 8424   6.337   4.364   4.556  0.1584  0.7436  0.0721
   87SLPC   H9X 8425   6.318   4.473   4.561 -0.1855  0.7793 -1.4213
   87SLPC   H9Y 8426   6.448   4.353   4.555  0.1421 -0.4166  2.6664
   87SLPC  C310 8427   6.284   4.291   4.687  0.0006  0.5323 -0.7923
   87SLPC  H10X 8428   6.319   4.186   4.681  3.1176  1.5519 -3.2253
   87SLPC  H10Y 8429   6.174   4.294   4.699  0.1199  1.3029  0.2545
   87SLPC  C311 8430   6.338   4.357   4.813  0.2197 -0.5574 -0.0551
   87SLPC  H11X 8431   6.298   4.461   4.815 -1.2873 -1.0759 -0.9455
   87SLPC  H11Y 8432   6.449   4.359   4.805  0.3455  2.4856  1.2484
   87SLPC  C312 8433   6.310   4.277   4.937  0.2961 -0.0997 -0.0581
   87SLPC  H12X 8434   6.330   4.169   4.918  0.5246 -0.1465  0.4275
   87SLPC  H12Y 8435   6.202   4.285   4.960  0.4982 -1.6835  1.7108
   87SLPC  C313 8436   6.378   4.328   5.072 -0.1825  0.5215 -0.3635
   87SLPC  H13X 8437   6.348   4.429   5.107  1.5258  0.7682  0.5485
   87SLPC  H13Y 8438   6.486   4.335   5.046  0.0294 -0.9243  0.0138
   87SLPC  C314 8439   6.374   4.216   5.178  0.2631 -0.6613 -0.4941
   87SLPC  H14X 8440   6.279   4.159   5.166 -1.5135  2.1941 -1.0467
   87SLPC  H14Y 8441   6.350   4.252   5.281 -1.0098  0.1774 -1.0564
   87SLPC  C315 8442   6.498   4.129   5.176 -0.5256 -0.1396 -0.9191
   87SLPC  H15X 8443   6.599   4.176   5.182  0.3325 -1.9558 -0.4370
   87SLPC  H15Y 8444   6.502   4.077   5.078  1.1790  0.1554 -1.0323
   87SLPC  C316 8445   6.485   4.027   5.283 -0.3724  0.5263  0.5801
   87SLPC  H16X 8446   6.392   3.972   5.257  1.5521 -1.4489 -2.8815
   87SLPC  H16Y 8447   6.475   4.077   5.382 -0.8256  1.9369 -0.1424
   87SLPC  C317 8448   6.596   3.920   5.280 -0.1754  0.1175 -0.3203
   87SLPC  H17X 8449   6.585   3.859   5.372  1.4011  0.7834  0.3466
   87SLPC  H17Y 8450   6.693   3.970   5.302  0.1495 -1.2044  1.5201
   87SLPC  C318 8451   6.605   3.839   5.156  0.4655  0.3413  0.1138
   87SLPC  H18X 8452   6.501   3.816   5.127  0.4995 -0.2421  0.4338
   87SLPC  H18Y 8453   6.655   3.743   5.179 -1.5975 -0.6993  0.4233
   87SLPC  H18Z 8454   6.654   3.888   5.069 -2.6664  1.4387 -1.1539
   88SLPC     N 8455   0.153   4.301   2.981  0.0927  0.5967  0.6729
   88SLPC   C13 8456   0.264   4.382   3.039  0.1611 -0.1190 -0.8042
   88SLPC  H13A 8457   0.322   4.319   3.105  1.6891  0.7825 -1.2283
   88SLPC  H13B 8458   0.323   4.427   2.960  1.1894 -0.0144  0.0110
   88SLPC  H13C 8459   0.232   4.468   3.094  0.6237 -0.2558 -0.3127
   88SLPC   C14 8460   0.217   4.171   2.925 -0.0536 -0.5689 -0.1689
   88SLPC  H14A 8461   0.287   4.198   2.847  1.5049  0.0096  1.3762
   88SLPC  H14B 8462   0.268   4.124   3.007 -1.2366  0.0507  0.9604
   88SLPC  H14C 8463   0.140   4.108   2.882  0.0317  0.2546 -1.6099
   88SLPC   C15 8464   0.103   4.378   2.861  0.0590  0.0765 -0.1278
   88SLPC  H15A 8465   0.186   4.386   2.793  1.4846 -0.3346  1.5027
   88SLPC  H15B 8466   0.014   4.336   2.815 -1.1384  2.3336 -0.0345
   88SLPC  H15C 8467   0.072   4.480   2.875 -1.9034 -0.1634 -2.1222
   88SLPC   C12 8468   0.054   4.264   3.085  0.1815  0.2025 -0.2165
   88SLPC  H12A 8469  -0.009   4.187   3.043 -0.7225  0.1266  1.2287
   88SLPC  H12B 8470  -0.011   4.346   3.112 -0.0099 -0.7350  2.4885
   88SLPC   C11 8471   0.107   4.202   3.222  0.2113 -0.2279  0.4835
   88SLPC  H11A 8472   0.021   4.168   3.284 -0.2161  0.5645  0.3325
   88SLPC  H11B 8473   0.166   4.286   3.262 -0.5928  2.3372 -3.1980
   88SLPC     P 8474   0.139   3.949   3.183 -0.1184 -0.5971  0.1404
   88SLPC   O13 8475   0.016   3.956   3.097  0.4606 -0.4260  0.0343
   88SLPC   O14 8476   0.246   3.860   3.131  0.0586  0.3290  0.3700
   88SLPC   O12 8477   0.204   4.096   3.195  0.0490 -0.2090  0.3361
   88SLPC   O11 8478   0.110   3.917   3.331 -0.2609 -0.1001  0.4669
   88SLPC    C1 8479   0.077   3.787   3.376 -0.4656  0.5013  0.6139
   88SLPC    HA 8480   0.091   3.708   3.299 -2.9850  3.1975 -2.9396
   88SLPC    HB 8481   0.148   3.764   3.458  0.2373 -0.6582 -0.2914
   88SLPC    C2 8482  -0.063   3.762   3.424 -0.2600 -0.2164 -0.0070
   88SLPC    HS 8483  -0.131   3.778   3.338  0.5010  3.5199 -0.0594
   88SLPC   O21 8484  -0.096   3.850   3.534  0.1813  0.2349  0.1071
   88SLPC   C21 8485  -0.231   3.880   3.536 -1.1890  0.4256 -0.2758
   88SLPC   O22 8486  -0.312   3.832   3.459 -0.1080 -0.0274  0.2398
   88SLPC   C22 8487  -0.269   3.967   3.652  0.6509 -0.3204 -0.0136
   88SLPC   H2R 8488  -0.187   3.971   3.727  2.2308  1.1485 -1.7209
   88SLPC   H2S 8489  -0.286   4.066   3.605 -1.8908 -0.3204  0.7469
   88SLPC    C3 8490  -0.090   3.613   3.462 -0.4526 -0.3362 -0.2760
   88SLPC    HX 8491  -0.077   3.559   3.366 -3.3144  0.8819 -1.4589
   88SLPC    HY 8492  -0.198   3.608   3.490 -0.8458 -1.8933 -1.8857
   88SLPC   O31 8493   0.002   3.558   3.563 -0.4438 -0.1030  0.7471
   88SLPC   C31 8494  -0.025   3.547   3.689  0.4272 -0.5541 -0.2179
   88SLPC   O32 8495  -0.128   3.578   3.742  0.0495 -0.3299 -0.3871
   88SLPC   C32 8496   0.089   3.493   3.771 -0.0707  0.9583 -0.1303
   88SLPC   H2X 8497   0.064   3.487   3.879  1.7765  1.0738  0.3363
   88SLPC   H2Y 8498   0.183   3.553   3.768 -0.0239  0.9710  1.2514
   88SLPC   C23 8499  -0.403   3.922   3.721  1.4368  0.8731 -0.4985
   88SLPC   H3R 8500  -0.408   3.811   3.725  0.7554  0.9421  1.0466
   88SLPC   H3S 8501  -0.491   3.956   3.663  0.1167 -3.2501 -1.2768
   88SLPC   C24 8502  -0.427   3.962   3.863  0.4337  0.1375 -0.1540
   88SLPC   H4R 8503  -0.531   3.954   3.903  0.3727  0.8757 -0.1562
   88SLPC   H4S 8504  -0.390   4.067   3.872  0.1850  0.2400 -0.3181
   88SLPC   C25 8505  -0.339   3.873   3.955  0.6521 -0.2794 -1.1938
   88SLPC   H5R 8506  -0.253   3.930   3.997 -0.1674 -0.2374  0.5253
   88SLPC   H5S 8507  -0.302   3.789   3.893  1.2080 -0.3812 -0.7342
   88SLPC   C26 8508  -0.406   3.818   4.089  0.2831  0.0672 -0.0584
   88SLPC   H6R 8509  -0.334   3.756   4.146  0.6133 -0.4470 -1.0221
   88SLPC   H6S 8510  -0.487   3.752   4.051  0.9540  0.9215 -3.2031
   88SLPC   C27 8511  -0.463   3.927   4.185  0.5217  0.1971 -0.3838
   88SLPC   H7R 8512  -0.547   3.982   4.138  1.1289  0.8286 -0.7510
   88SLPC   H7S 8513  -0.381   4.000   4.198  0.2933  0.4144 -0.1473
   88SLPC   C28 8514  -0.504   3.875   4.324 -0.4380  0.0666  0.0541
   88SLPC   H8R 8515  -0.555   3.779   4.306  0.0481 -0.4344  1.2772
   88SLPC   H8S 8516  -0.570   3.945   4.379 -0.0807 -0.2907  0.9494
   88SLPC   C29 8517  -0.376   3.851   4.402 -0.6569 -0.5968  0.1859
   88SLPC   H9R 8518  -0.289   3.817   4.343 -1.5513 -2.6417 -0.0670
   88SLPC  C210 8519  -0.370   3.847   4.534 -0.5847 -0.1454 -0.2216
   88SLPC  H10R 8520  -0.276   3.845   4.592 -1.9429  0.3233  2.1123
   88SLPC  C211 8521  -0.487   3.885   4.628 -0.6144 -0.0019  0.3153
   88SLPC  H11R 8522  -0.565   3.815   4.589  1.8960 -1.9548 -1.4987
   88SLPC  H11S 8523  -0.520   3.989   4.606 -2.2911 -0.6198 -0.2744
   88SLPC  C212 8524  -0.471   3.859   4.779  0.0538 -0.3483  0.5473
   88SLPC  H12R 8525  -0.374   3.815   4.805  0.3143 -0.3256 -0.3414
   88SLPC  C213 8526  -0.562   3.893   4.869  0.1695 -0.0728 -0.0598
   88SLPC  H13R 8527  -0.552   3.864   4.974  1.0736  1.6372  0.3542
   88SLPC  C214 8528  -0.704   3.956   4.827 -0.4866 -0.3176  0.2947
   88SLPC  H14R 8529  -0.689   4.025   4.741 -0.4956 -0.0426  0.5128
   88SLPC  H14S 8530  -0.745   4.022   4.906 -1.0042 -1.0248  0.6291
   88SLPC  C215 8531  -0.816   3.852   4.793 -0.4089  0.1787 -0.2375
   88SLPC  H15R 8532  -0.756   3.780   4.732  0.9281 -0.6387  1.9178
   88SLPC  H15S 8533  -0.896   3.894   4.730 -2.2120 -1.2777  0.9837
   88SLPC  C216 8534  -0.873   3.776   4.916 -0.3726 -0.2805  0.8908
   88SLPC  H16R 8535  -0.783   3.731   4.964  0.1805  0.7193  0.8131
   88SLPC  H16S 8536  -0.935   3.692   4.879 -0.0070 -0.5083  0.7866
   88SLPC  C217 8537  -0.948   3.867   5.011  0.0335 -0.3590 -0.7207
   88SLPC  H17R 8538  -1.039   3.812   5.042 -0.1322  0.0037 -0.5574
   88SLPC  H17S 8539  -0.981   3.967   4.974 -0.0295 -0.2984 -0.5015
   88SLPC  C218 8540  -0.866   3.893   5.141 -0.2614 -0.0436  0.2630
   88SLPC  H18R 8541  -0.764   3.929   5.115 -0.1847  0.4483  1.2298
   88SLPC  H18S 8542  -0.859   3.802   5.205  0.3918  0.2912  0.6829
   88SLPC  H18T 8543  -0.915   3.970   5.203  1.9275  0.1910  1.7927
   88SLPC   C33 8544   0.127   3.346   3.719 -0.4699  0.1191 -0.5595
   88SLPC   H3X 8545   0.144   3.350   3.610 -0.6455 -0.1373 -0.5959
   88SLPC   H3Y 8546   0.048   3.269   3.728  1.1659 -1.6489 -0.5577
   88SLPC   C34 8547   0.251   3.279   3.791  0.9619  0.1753 -0.2182
   88SLPC   H4X 8548   0.339   3.342   3.767  1.2222 -0.1937 -0.2516
   88SLPC   H4Y 8549   0.267   3.178   3.747 -0.5552  0.0818 -0.6322
   88SLPC   C35 8550   0.235   3.278   3.944  0.4588  0.7319 -0.0930
   88SLPC   H5X 8551   0.250   3.179   3.992 -2.3194 -0.3342 -1.2229
   88SLPC   H5Y 8552   0.132   3.306   3.973  0.1987  0.7331 -1.0008
   88SLPC   C36 8553   0.335   3.368   4.023  0.1077 -0.0227  0.0765
   88SLPC   H6X 8554   0.338   3.471   3.981 -1.1614 -0.6002 -1.5002
   88SLPC   H6Y 8555   0.434   3.321   4.006  0.9073  1.6248 -0.0621
   88SLPC   C37 8556   0.281   3.376   4.173  0.4304 -0.7004  0.6616
   88SLPC   H7X 8557   0.229   3.280   4.191  0.8692 -0.7099  2.0107
   88SLPC   H7Y 8558   0.215   3.465   4.172 -0.6439 -1.4726 -1.2488
   88SLPC   C38 8559   0.392   3.398   4.284 -0.3698 -0.4438  0.0621
   88SLPC   H8X 8560   0.426   3.503   4.275  0.1400 -0.8000 -2.9289
   88SLPC   H8Y 8561   0.482   3.337   4.263 -0.3163 -0.9472  1.6158
   88SLPC   C39 8562   0.351   3.360   4.426  0.5563 -0.0563 -0.5209
   88SLPC   H9X 8563   0.321   3.253   4.412 -3.3771  0.8785 -0.4455
   88SLPC   H9Y 8564   0.256   3.411   4.453 -0.3402 -2.6000  1.6340
   88SLPC  C310 8565   0.462   3.362   4.536 -0.0335  0.1387 -0.0377
   88SLPC  H10X 8566   0.507   3.464   4.538  0.9364 -0.2396 -1.3136
   88SLPC  H10Y 8567   0.543   3.288   4.523 -0.0615  0.0093  0.5097
   88SLPC  C311 8568   0.399   3.330   4.671 -0.4765  0.7882  0.1623
   88SLPC  H11X 8569   0.321   3.405   4.697  0.8697  2.0972  0.6125
   88SLPC  H11Y 8570   0.473   3.356   4.749  1.1628 -0.5326 -0.8835
   88SLPC  C312 8571   0.354   3.182   4.694 -0.9458  0.2261 -0.1329
   88SLPC  H12X 8572   0.444   3.121   4.672  0.0236  1.5068  0.1391
   88SLPC  H12Y 8573   0.277   3.162   4.617 -1.3915 -2.0576  0.8125
   88SLPC  C313 8574   0.300   3.146   4.831 -0.2940 -0.2328  0.1221
   88SLPC  H13X 8575   0.245   3.051   4.824  0.3646 -0.5050 -1.8595
   88SLPC  H13Y 8576   0.228   3.227   4.856  0.9845  1.2242 -0.7011
   88SLPC  C314 8577   0.395   3.144   4.951  0.6489  0.4478 -0.4006
   88SLPC  H14X 8578   0.418   3.251   4.970 -0.5432  0.7632 -0.6885
   88SLPC  H14Y 8579   0.493   3.098   4.925 -0.3094 -1.3099 -1.0441
   88SLPC  C315 8580   0.336   3.089   5.086  0.1983 -0.3052  0.0123
   88SLPC  H15X 8581   0.253   3.022   5.058  0.4990  0.0923 -1.9698
   88SLPC  H15Y 8582   0.302   3.175   5.149 -0.0305 -0.3786 -0.0092
   88SLPC  C316 8583   0.443   3.011   5.165 -0.0928 -0.2964  0.4187
   88SLPC  H16X 8584   0.528   3.080   5.188  0.2625 -0.4401 -0.4249
   88SLPC  H16Y 8585   0.489   2.937   5.096  0.5715  1.1238 -0.7170
   88SLPC  C317 8586   0.377   2.948   5.291 -0.3194  0.5188 -0.1757
   88SLPC  H17X 8587   0.300   2.869   5.274  0.3856 -0.1453 -0.3047
   88SLPC  H17Y 8588   0.316   3.030   5.335 -2.8808  0.0768 -2.5502
   88SLPC  C318 8589   0.478   2.891   5.389 -0.5412 -0.1902 -0.2312
   88SLPC  H18X 8590   0.537   2.811   5.340 -0.5116 -1.7376  2.1286
   88SLPC  H18Y 8591   0.435   2.851   5.484 -0.4132 -1.9320 -0.8774
   88SLPC  H18Z 8592   0.555   2.965   5.419  0.5613 -1.6775  0.7349
   89SAPE     N 8593   2.579   4.593   7.289 -0.0299 -0.0191 -0.7852
   89SAPE   HN1 8594   2.635   4.677   7.313  3.1356 -1.5050 -2.3176
   89SAPE   HN2 8595   2.584   4.576   7.186  1.5802 -0.9731 -0.5906
   89SAPE   HN3 8596   2.484   4.600   7.331 -0.4590  1.2809 -1.8983
   89SAPE   C12 8597   2.624   4.471   7.365 -0.1788 -0.5379  0.3841
   89SAPE  H12A 8598   2.539   4.400   7.365 -1.2262  0.6070  2.5226
   89SAPE  H12B 8599   2.638   4.503   7.471 -2.0620  1.6013  0.0446
   89SAPE   C11 8600   2.746   4.395   7.310  0.1208  1.0181  0.1947
   89SAPE  H11A 8601   2.722   4.360   7.207  1.0712 -1.1739  0.6545
   89SAPE  H11B 8602   2.774   4.305   7.369  0.6203  0.3499 -1.0200
   89SAPE     P 8603   2.933   4.545   7.196  0.4073 -0.1325 -0.0112
   89SAPE   O13 8604   2.831   4.637   7.137 -0.2714 -0.2683  0.3155
   89SAPE   O14 8605   3.063   4.597   7.237  0.8414 -0.0313 -0.8624
   89SAPE   O12 8606   2.860   4.478   7.316  0.3215 -0.9711  0.0427
   89SAPE   O11 8607   2.953   4.427   7.099 -0.1099 -0.0793 -0.1111
   89SAPE    C1 8608   3.045   4.324   7.130 -0.1614  0.4509 -0.0079
   89SAPE    HA 8609   3.078   4.326   7.236  1.6032  2.0934 -0.5385
   89SAPE    HB 8610   3.001   4.225   7.104  0.1420  0.0907  0.8059
   89SAPE    C2 8611   3.179   4.337   7.051  0.3361  0.0949  0.2641
   89SAPE    HS 8612   3.239   4.419   7.097  0.1335  0.1215  0.4824
   89SAPE   O21 8613   3.156   4.357   6.912 -0.7618  0.8054  0.3104
   89SAPE   C21 8614   3.259   4.402   6.845  0.5599  0.3704  0.4867
   89SAPE   O22 8615   3.371   4.429   6.887 -0.5573  0.2217  0.0513
   89SAPE   C22 8616   3.219   4.399   6.695  0.3690 -0.5959 -0.2984
   89SAPE   H2R 8617   3.223   4.293   6.662  0.0320 -1.0445  1.0396
   89SAPE   H2S 8618   3.116   4.438   6.688  0.1545 -1.0660  0.1477
   89SAPE    C3 8619   3.263   4.211   7.075 -0.0431  0.1308  0.2084
   89SAPE    HX 8620   3.297   4.215   7.180  2.1913  2.3415 -0.5040
   89SAPE    HY 8621   3.358   4.222   7.019  0.4950  1.1133  1.2797
   89SAPE   O31 8622   3.192   4.090   7.045 -0.1558 -0.5398 -0.4341
   89SAPE   C31 8623   3.229   4.025   6.936  0.1267 -0.2651  0.1409
   89SAPE   O32 8624   3.304   4.077   6.849 -0.1138  0.1535 -0.2737
   89SAPE   C32 8625   3.166   3.888   6.933  0.0587 -0.5156 -0.6611
   89SAPE   H2X 8626   3.063   3.887   6.973  0.4832  0.4961  0.5344
   89SAPE   H2Y 8627   3.220   3.820   7.003  0.0388 -0.6153 -0.7433
   89SAPE   C23 8628   3.307   4.468   6.586  0.0384  0.4616  0.4642
   89SAPE   H3R 8629   3.407   4.421   6.596 -0.6516 -0.5040  5.0410
   89SAPE   H3S 8630   3.321   4.577   6.603 -2.6952  0.6809  1.8362
   89SAPE   C24 8631   3.254   4.464   6.444  0.2981 -0.2638 -0.0643
   89SAPE   H4R 8632   3.313   4.529   6.375  0.1201 -1.2082 -1.1444
   89SAPE   H4S 8633   3.152   4.507   6.451  1.0123  1.3127  1.2302
   89SAPE   C25 8634   3.238   4.326   6.383  0.0515 -0.6030 -0.8853
   89SAPE   H5R 8635   3.231   4.237   6.448 -1.8859  0.0857 -0.0758
   89SAPE   C26 8636   3.262   4.305   6.255  0.1237 -0.0651  0.4563
   89SAPE   H6R 8637   3.246   4.203   6.218 -0.5264 -0.4253  1.6608
   89SAPE   C27 8638   3.301   4.407   6.155 -0.4149  1.0995  0.7564
   89SAPE   H7R 8639   3.405   4.383   6.125 -0.9979  0.3811 -0.7893
   89SAPE   H7S 8640   3.311   4.512   6.192 -1.0998  0.4307  3.0025
   89SAPE   C28 8641   3.220   4.392   6.028 -0.4776 -0.4767 -0.2770
   89SAPE   H8R 8642   3.121   4.439   6.021  0.6460  1.9735 -0.8271
   89SAPE   C29 8643   3.253   4.320   5.926  0.5262 -0.1186  0.2779
   89SAPE   H9R 8644   3.185   4.322   5.839  0.0744  0.3754  0.6404
   89SAPE  C210 8645   3.376   4.240   5.888 -0.1245 -0.2477 -0.0256
   89SAPE  H10R 8646   3.441   4.206   5.972  0.7784  0.4741 -0.4192
   89SAPE  H10S 8647   3.441   4.314   5.837 -0.1268  0.1485  0.5389
   89SAPE  C211 8648   3.350   4.131   5.789  0.0180 -0.4746 -0.4227
   89SAPE  H11R 8649   3.340   4.030   5.831  2.6598 -0.6083  0.0567
   89SAPE  C212 8650   3.348   4.137   5.656 -0.3712  0.3596  0.2928
   89SAPE  H12R 8651   3.309   4.053   5.597  1.5578  0.7906 -1.7545
   89SAPE  C213 8652   3.369   4.257   5.565 -0.6122  0.0409  0.1060
   89SAPE  H13R 8653   3.373   4.348   5.630  1.7280 -0.0476  0.1969
   89SAPE  H13S 8654   3.290   4.276   5.490 -1.8066  2.0505  1.7352
   89SAPE  C214 8655   3.507   4.251   5.499  0.5989  0.1648 -0.3894
   89SAPE  H14R 8656   3.576   4.182   5.550 -0.2176  1.2981  2.4159
   89SAPE  C215 8657   3.546   4.305   5.379 -0.3280 -0.3252 -0.2615
   89SAPE  H15R 8658   3.649   4.295   5.342 -0.6618  0.9046 -1.5726
   89SAPE  C216 8659   3.469   4.403   5.302  0.4863  0.1685  0.8376
   89SAPE  H16R 8660   3.533   4.476   5.249  1.9425 -2.6471 -1.5641
   89SAPE  H16S 8661   3.389   4.450   5.364  0.4111  1.4483 -0.1733
   89SAPE  C217 8662   3.391   4.328   5.190 -0.1164  0.0773  0.6631
   89SAPE  H17R 8663   3.320   4.401   5.146 -0.8099 -0.6361  0.5612
   89SAPE  H17S 8664   3.325   4.251   5.235  1.0008  0.5944  3.3325
   89SAPE  C218 8665   3.473   4.281   5.068  0.1274  0.2575 -0.5294
   89SAPE  H18R 8666   3.559   4.351   5.057 -1.4157  2.5641  1.2244
   89SAPE  H18S 8667   3.404   4.285   4.981 -2.6094 -3.7814  1.1525
   89SAPE  C219 8668   3.526   4.137   5.073  0.5789  0.0984  0.7445
   89SAPE  H19R 8669   3.605   4.133   5.151  0.8167  0.2027  0.5116
   89SAPE  H19S 8670   3.574   4.130   4.973  2.4077  1.2554  1.4904
   89SAPE  C220 8671   3.415   4.040   5.104  0.2221  0.4957 -0.4125
   89SAPE  H20R 8672   3.386   4.044   5.211  1.0031  0.2283 -0.1810
   89SAPE  H20S 8673   3.433   3.937   5.065  0.5003 -0.0112  0.9850
   89SAPE  H20T 8674   3.320   4.077   5.061  0.0783  0.2461 -0.3114
   89SAPE   C33 8675   3.146   3.832   6.796  0.0848  0.1725  0.2000
   89SAPE   H3X 8676   3.081   3.742   6.794  1.8140 -1.1218 -0.2005
   89SAPE   H3Y 8677   3.242   3.802   6.750  0.5300  0.4254  0.9416
   89SAPE   C34 8678   3.066   3.929   6.703 -0.2347  0.8470 -0.1729
   89SAPE   H4X 8679   3.134   4.016   6.688  0.3016  0.6034  0.7975
   89SAPE   H4Y 8680   2.971   3.967   6.746 -0.6226 -0.4283  0.1352
   89SAPE   C35 8681   3.041   3.857   6.570  0.0123  1.0559  0.7737
   89SAPE   H5X 8682   2.977   3.918   6.504 -1.8498 -1.3867  0.1822
   89SAPE   H5Y 8683   2.987   3.760   6.578  0.8279  0.4790 -0.4972
   89SAPE   C36 8684   3.172   3.841   6.482 -0.0495  0.4882  0.1788
   89SAPE   H6X 8685   3.237   3.770   6.537 -2.4887 -1.3922  0.8321
   89SAPE   H6Y 8686   3.218   3.941   6.467  1.0069 -0.1618 -1.0395
   89SAPE   C37 8687   3.132   3.787   6.343  0.0370 -0.9919  0.2619
   89SAPE   H7X 8688   3.024   3.802   6.323  0.0174 -3.0313 -1.4368
   89SAPE   H7Y 8689   3.147   3.677   6.335 -2.6317 -1.4451  0.6903
   89SAPE   C38 8690   3.200   3.859   6.225 -0.1937 -0.4084 -0.4147
   89SAPE   H8X 8691   3.309   3.850   6.245 -0.3159 -1.8416 -0.2387
   89SAPE   H8Y 8692   3.190   3.969   6.228  2.1635 -0.1464 -0.9318
   89SAPE   C39 8693   3.137   3.801   6.096 -0.2152  0.2420 -0.4193
   89SAPE   H9X 8694   3.033   3.839   6.092 -0.1714  0.2931 -1.2754
   89SAPE   H9Y 8695   3.130   3.690   6.100  1.9946  0.0681  0.1358
   89SAPE  C310 8696   3.206   3.845   5.964 -0.1898 -0.6979  0.0884
   89SAPE  H10X 8697   3.305   3.795   5.959 -0.0499 -0.4965  0.7197
   89SAPE  H10Y 8698   3.229   3.954   5.956  1.2324 -0.9194  0.6896
   89SAPE  C311 8699   3.121   3.804   5.841 -0.0351  0.2042 -0.2714
   89SAPE  H11X 8700   3.074   3.704   5.858 -0.9053  0.6884  0.2983
   89SAPE  H11Y 8701   3.195   3.794   5.759  0.9011 -1.3493  0.7046
   89SAPE  C312 8702   3.009   3.905   5.803  0.3887 -0.3156  0.1648
   89SAPE  H12X 8703   3.057   4.004   5.789 -1.2137  0.7881  1.9263
   89SAPE  H12Y 8704   2.922   3.891   5.871  0.4014  2.1578  0.7891
   89SAPE  C313 8705   2.952   3.858   5.664 -0.6795  0.1865  0.5759
   89SAPE  H13X 8706   2.935   3.750   5.682 -0.1453  0.0714  0.4112
   89SAPE  H13Y 8707   3.028   3.873   5.583 -1.3419  1.6862  0.2021
   89SAPE  C314 8708   2.821   3.933   5.618  0.5158  0.2896 -0.4245
   89SAPE  H14X 8709   2.837   4.043   5.618 -2.3026  0.7757 -1.9499
   89SAPE  H14Y 8710   2.734   3.916   5.685  0.7935 -0.1954 -0.1826
   89SAPE  C315 8711   2.772   3.888   5.480  0.1637 -0.8034  0.5125
   89SAPE  H15X 8712   2.734   3.785   5.498 -0.5056 -0.7219 -0.3629
   89SAPE  H15Y 8713   2.851   3.883   5.402 -0.1466 -0.5171  0.1790
   89SAPE  C316 8714   2.660   3.974   5.425  0.4494 -0.0848 -0.0546
   89SAPE  H16X 8715   2.707   4.069   5.393  2.6414 -0.5791  1.4649
   89SAPE  H16Y 8716   2.592   3.985   5.512 -0.0087  1.3715 -0.5796
   89SAPE  C317 8717   2.593   3.905   5.308  0.6242 -0.6987 -0.6578
   89SAPE  H17X 8718   2.490   3.946   5.296  0.7406 -0.2430 -0.1526
   89SAPE  H17Y 8719   2.569   3.798   5.327 -0.6953 -0.3322 -0.1260
   89SAPE  C318 8720   2.661   3.906   5.174  0.4452  0.5104 -0.0747
   89SAPE  H18X 8721   2.679   4.010   5.139 -3.6845  1.9320  1.4275
   89SAPE  H18Y 8722   2.593   3.861   5.099  0.4682  1.5036 -0.7177
   89SAPE  H18Z 8723   2.754   3.846   5.170 -0.9041 -1.6485 -1.3264
   90SAPE     N 8724   4.176   4.745   7.132 -0.1928 -0.6585 -0.0478
   90SAPE   HN1 8725   4.170   4.848   7.139  1.6450 -0.5377  0.1718
   90SAPE   HN2 8726   4.087   4.695   7.155  1.1873 -2.9374  0.7301
   90SAPE   HN3 8727   4.239   4.715   7.210  1.0785 -0.3287 -0.9286
   90SAPE   C12 8728   4.240   4.710   7.008 -0.6046 -0.3747  0.1324
   90SAPE  H12A 8729   4.306   4.799   6.993 -0.1019 -0.7534  0.0822
   90SAPE  H12B 8730   4.163   4.712   6.927 -0.0837  0.1368 -0.3630
   90SAPE   C11 8731   4.323   4.585   6.997 -0.6684 -0.2823 -0.1030
   90SAPE  H11A 8732   4.365   4.571   6.896  3.9735  2.2459  1.1917
   90SAPE  H11B 8733   4.259   4.496   7.014  0.5854 -1.4843 -1.4760
   90SAPE     P 8734   4.587   4.606   7.065 -0.2760 -0.0219  0.2028
   90SAPE   O13 8735   4.614   4.745   7.020  0.2954 -0.1562 -1.2320
   90SAPE   O14 8736   4.644   4.567   7.191 -0.1914  0.0033  0.4407
   90SAPE   O12 8737   4.431   4.585   7.083  0.1179  0.8615 -0.5527
   90SAPE   O11 8738   4.625   4.493   6.955  0.6170  0.0737  0.6788
   90SAPE    C1 8739   4.766   4.490   6.928  0.0360 -0.2700  0.8385
   90SAPE    HA 8740   4.835   4.568   6.968  0.7396 -0.0371 -0.7416
   90SAPE    HB 8741   4.811   4.393   6.955  0.9751 -0.6812 -1.8459
   90SAPE    C2 8742   4.779   4.487   6.769 -0.0614  0.2419 -0.5419
   90SAPE    HS 8743   4.887   4.472   6.748  0.2964  0.0672  1.2736
   90SAPE   O21 8744   4.731   4.604   6.706 -0.1303 -0.1083 -0.2222
   90SAPE   C21 8745   4.781   4.716   6.756 -0.1479 -0.2066  0.7200
   90SAPE   O22 8746   4.893   4.717   6.811  0.2536 -0.5621  0.2010
   90SAPE   C22 8747   4.693   4.840   6.715 -0.0759 -0.0362 -0.1648
   90SAPE   H2R 8748   4.593   4.824   6.760 -0.2031 -2.8350 -1.2475
   90SAPE   H2S 8749   4.733   4.932   6.764  0.0063 -0.2483  0.1667
   90SAPE    C3 8750   4.695   4.375   6.701 -0.0372 -0.4014  0.3342
   90SAPE    HX 8751   4.589   4.389   6.732  0.2295  0.8432  0.7353
   90SAPE    HY 8752   4.741   4.285   6.747  1.6374  2.8128  5.9189
   90SAPE   O31 8753   4.728   4.379   6.559 -0.1327 -0.5321 -0.4567
   90SAPE   C31 8754   4.656   4.462   6.483  0.2461 -0.0192 -0.3732
   90SAPE   O32 8755   4.545   4.501   6.504 -0.1033  0.1951 -0.4340
   90SAPE   C32 8756   4.723   4.477   6.345  0.3657  0.7951 -0.3926
   90SAPE   H2X 8757   4.730   4.370   6.316 -1.8418 -0.2996  2.6147
   90SAPE   H2Y 8758   4.821   4.527   6.357  0.6929  0.3676 -1.2056
   90SAPE   C23 8759   4.689   4.862   6.563  0.8982 -0.6777 -0.8304
   90SAPE   H3R 8760   4.687   4.772   6.498 -0.2642 -1.4444  0.2199
   90SAPE   H3S 8761   4.785   4.915   6.546 -0.1793  1.6755 -0.1244
   90SAPE   C24 8762   4.568   4.957   6.533  0.5824 -0.1083  0.3518
   90SAPE   H4R 8763   4.559   5.031   6.615  0.3720 -0.0913  0.3137
   90SAPE   H4S 8764   4.476   4.896   6.545 -0.4820  0.7719 -2.4654
   90SAPE   C25 8765   4.586   5.014   6.397  0.5790 -1.2862  0.1057
   90SAPE   H5R 8766   4.658   5.096   6.401 -0.5105 -0.3265  1.2762
   90SAPE   C26 8767   4.522   4.984   6.282 -0.0159 -0.6339 -0.6052
   90SAPE   H6R 8768   4.554   5.026   6.185 -1.1121  0.1831 -0.6341
   90SAPE   C27 8769   4.409   4.882   6.273  0.3291 -0.6815  0.1141
   90SAPE   H7R 8770   4.439   4.785   6.318  1.9372  0.6245  1.9781
   90SAPE   H7S 8771   4.406   4.858   6.164  1.8215 -0.8101  0.0733
   90SAPE   C28 8772   4.285   4.935   6.336  0.1031 -0.0301  0.3439
   90SAPE   H8R 8773   4.287   4.959   6.443  1.4577 -2.7138  1.0030
   90SAPE   C29 8774   4.168   4.934   6.268 -0.2974 -0.2431  0.8240
   90SAPE   H9R 8775   4.082   4.983   6.316 -0.0453  0.9200  0.1145
   90SAPE  C210 8776   4.158   4.913   6.116 -0.2104  0.0134 -0.0443
   90SAPE  H10R 8777   4.053   4.880   6.097 -0.8652  1.9480 -0.0416
   90SAPE  H10S 8778   4.227   4.831   6.088  0.0450 -0.6757  2.3617
   90SAPE  C211 8779   4.185   5.022   6.022 -0.0980  0.1570  0.7487
   90SAPE  H11R 8780   4.197   5.116   6.077  0.5751  0.2972  0.3615
   90SAPE  C212 8781   4.181   5.021   5.883  0.3840  0.5296 -0.3868
   90SAPE  H12R 8782   4.222   5.102   5.821  1.0392 -0.3996 -1.2126
   90SAPE  C213 8783   4.150   4.904   5.802 -0.0078 -0.2301 -0.2524
   90SAPE  H13R 8784   4.143   4.816   5.869 -1.3738  0.9520  1.2441
   90SAPE  H13S 8785   4.238   4.885   5.737  0.2782 -0.4772  0.2020
   90SAPE  C214 8786   4.022   4.927   5.721 -0.6299  0.5188  0.2000
   90SAPE  H14R 8787   3.938   4.946   5.789 -1.3371 -3.6632  0.7618
   90SAPE  C215 8788   4.012   4.937   5.590 -0.0413  0.5527  0.1300
   90SAPE  H15R 8789   3.914   4.965   5.548  1.2908  2.0695 -2.1954
   90SAPE  C216 8790   4.122   4.912   5.491  0.4939  0.2126  0.2323
   90SAPE  H16R 8791   4.089   4.820   5.440  0.5730  0.5136 -0.3709
   90SAPE  H16S 8792   4.222   4.898   5.536  0.2190 -2.2648  0.2072
   90SAPE  C217 8793   4.128   5.036   5.401 -0.3179  0.6221  0.1535
   90SAPE  H17R 8794   4.156   5.127   5.458 -1.6483  1.1307  0.0262
   90SAPE  H17S 8795   4.029   5.061   5.358 -1.0111 -0.8686  0.7917
   90SAPE  C218 8796   4.220   5.010   5.280 -0.0788 -0.0021 -0.3324
   90SAPE  H18R 8797   4.182   4.930   5.214 -1.1450  0.2001  0.0125
   90SAPE  H18S 8798   4.316   4.987   5.331  0.4108 -0.0032 -1.2334
   90SAPE  C219 8799   4.241   5.134   5.190 -0.1664  0.0203 -0.2944
   90SAPE  H19R 8800   4.299   5.212   5.243  0.4694 -1.1280  0.7319
   90SAPE  H19S 8801   4.141   5.182   5.185  0.0635  0.4833 -0.5455
   90SAPE  C220 8802   4.311   5.103   5.053 -0.5353  0.3457  0.4803
   90SAPE  H20R 8803   4.306   5.195   4.990 -0.0137  1.3306  1.8274
   90SAPE  H20S 8804   4.267   5.014   5.003  0.4178 -0.7976  1.6097
   90SAPE  H20T 8805   4.420   5.087   5.070 -0.1611  1.5179 -0.6229
   90SAPE   C33 8806   4.640   4.563   6.257  0.3825 -0.2333  0.1525
   90SAPE   H3X 8807   4.644   4.669   6.288  1.0611 -0.7248  1.8774
   90SAPE   H3Y 8808   4.535   4.526   6.261  0.4546 -0.5815 -0.9755
   90SAPE   C34 8809   4.673   4.549   6.110 -0.2682 -0.0088 -0.1478
   90SAPE   H4X 8810   4.675   4.446   6.069 -0.3349  0.6258 -1.8282
   90SAPE   H4Y 8811   4.780   4.580   6.105 -0.3393  0.3202  0.3016
   90SAPE   C35 8812   4.580   4.651   6.034  0.6403  0.5555 -0.2787
   90SAPE   H5X 8813   4.583   4.744   6.094 -1.5608  0.0055  0.7710
   90SAPE   H5Y 8814   4.481   4.603   6.048 -0.7385  2.7558 -1.8099
   90SAPE   C36 8815   4.613   4.671   5.893  0.3931  0.0273 -0.0922
   90SAPE   H6X 8816   4.644   4.578   5.842  2.5067  1.0417 -0.7541
   90SAPE   H6Y 8817   4.703   4.734   5.878  0.0555  0.0837 -2.1581
   90SAPE   C37 8818   4.483   4.717   5.816 -0.8032 -0.5933 -0.5407
   90SAPE   H7X 8819   4.451   4.818   5.850  0.2096 -0.6077  0.5250
   90SAPE   H7Y 8820   4.402   4.645   5.839 -1.7964  1.0849  1.5879
   90SAPE   C38 8821   4.509   4.723   5.670  0.3764 -0.1974  0.3640
   90SAPE   H8X 8822   4.413   4.732   5.615 -0.3865  0.6026  1.7469
   90SAPE   H8Y 8823   4.564   4.632   5.638  1.8548  1.2354 -1.3836
   90SAPE   C39 8824   4.585   4.850   5.616 -0.3562 -0.4343  0.6023
   90SAPE   H9X 8825   4.691   4.826   5.637  0.4035  0.4810 -1.7497
   90SAPE   H9Y 8826   4.550   4.941   5.669 -2.0199 -0.7269  0.0597
   90SAPE  C310 8827   4.578   4.880   5.461  0.0017 -0.5992 -0.4333
   90SAPE  H10X 8828   4.476   4.913   5.432  1.3811  2.0624 -2.8785
   90SAPE  H10Y 8829   4.592   4.781   5.413 -0.0849 -1.6960  1.6861
   90SAPE  C311 8830   4.679   4.981   5.411 -0.7919  0.6401  0.7310
   90SAPE  H11X 8831   4.782   4.939   5.414 -1.7577 -2.6119 -2.9678
   90SAPE  H11Y 8832   4.683   5.074   5.471  2.1221  1.8190 -1.0903
   90SAPE  C312 8833   4.646   5.030   5.268  0.3581 -0.5536  0.4784
   90SAPE  H12X 8834   4.557   5.095   5.281  0.4623 -0.3131  0.0174
   90SAPE  H12Y 8835   4.624   4.945   5.201  1.2410 -0.0320 -0.5044
   90SAPE  C313 8836   4.769   5.117   5.218  0.2558 -0.2959  0.1425
   90SAPE  H13X 8837   4.797   5.195   5.293  2.0921 -0.9256  0.1727
   90SAPE  H13Y 8838   4.735   5.178   5.133  1.6719  0.0096 -0.2364
   90SAPE  C314 8839   4.902   5.045   5.189  0.1859 -0.2327  0.3684
   90SAPE  H14X 8840   4.949   5.014   5.284  0.8953  1.8956  0.7557
   90SAPE  H14Y 8841   4.970   5.120   5.144  1.3456 -1.1169  0.6074
   90SAPE  C315 8842   4.884   4.932   5.080 -0.0405  0.0455 -0.9272
   90SAPE  H15X 8843   4.821   4.971   4.997 -0.3064  0.9035 -0.3276
   90SAPE  H15Y 8844   4.837   4.842   5.124  2.7007 -0.9232  0.2341
   90SAPE  C316 8845   5.025   4.885   5.016  0.1859  0.4191 -0.6534
   90SAPE  H16X 8846   5.082   4.812   5.077 -0.4980  1.3817  1.1989
   90SAPE  H16Y 8847   5.087   4.975   4.999 -1.1286  1.2794 -1.0471
   90SAPE  C317 8848   5.002   4.818   4.875 -0.1231  0.7030  0.2964
   90SAPE  H17X 8849   5.100   4.778   4.840 -1.1108 -1.8796  0.2414
   90SAPE  H17Y 8850   4.953   4.893   4.810 -0.1859  0.3331 -0.0932
   90SAPE  C318 8851   4.916   4.696   4.891  0.2301  0.4258  0.1977
   90SAPE  H18X 8852   4.937   4.628   4.805  0.3833  0.4801  0.1935
   90SAPE  H18Y 8853   4.807   4.716   4.883  0.1480  0.1916  0.6778
   90SAPE  H18Z 8854   4.931   4.636   4.983 -1.1217 -0.4372 -0.1087
   91SAPE     N 8855   2.291   5.842   7.627  0.1091 -0.2727 -0.3361
   91SAPE   HN1 8856   2.329   5.788   7.708  0.6005 -1.9833 -1.6447
   91SAPE   HN2 8857   2.354   5.924   7.615  1.5885 -1.3529 -0.3080
   91SAPE   HN3 8858   2.200   5.884   7.653  0.5143  1.8993 -2.1358
   91SAPE   C12 8859   2.275   5.755   7.507 -0.2089  0.7733 -0.2508
   91SAPE  H12A 8860   2.365   5.767   7.443 -0.0953  1.3377  0.0072
   91SAPE  H12B 8861   2.193   5.802   7.449 -1.1035 -0.9851 -0.4664
   91SAPE   C11 8862   2.243   5.609   7.547 -0.0062  0.2866 -0.8885
   91SAPE  H11A 8863   2.324   5.569   7.611 -2.5572 -3.6896  0.2202
   91SAPE  H11B 8864   2.244   5.545   7.456 -3.6164 -3.0630  1.0938
   91SAPE     P 8865   2.037   5.477   7.620 -0.0694 -0.3776  0.2236
   91SAPE   O13 8866   2.134   5.368   7.603 -0.0050  0.2601  0.2663
   91SAPE   O14 8867   1.952   5.464   7.741  0.1101 -0.2247 -0.0690
   91SAPE   O12 8868   2.127   5.611   7.628 -0.7056 -0.6760  0.0256
   91SAPE   O11 8869   1.960   5.482   7.485 -0.5599 -0.2083 -0.1585
   91SAPE    C1 8870   1.906   5.609   7.449  1.0991  0.2849 -0.0606
   91SAPE    HA 8871   1.810   5.639   7.495  0.2442 -0.4102 -1.3387
   91SAPE    HB 8872   1.976   5.691   7.474  0.1776  2.2750 -3.3832
   91SAPE    C2 8873   1.885   5.621   7.295 -0.3650  0.2343  0.1532
   91SAPE    HS 8874   1.810   5.548   7.258  0.3134 -0.9704  1.0840
   91SAPE   O21 8875   2.002   5.581   7.226 -0.3053 -0.4165 -0.4933
   91SAPE   C21 8876   2.010   5.446   7.199  0.1604 -0.2916  0.1871
   91SAPE   O22 8877   1.933   5.361   7.236 -0.4951  0.0686 -0.0638
   91SAPE   C22 8878   2.126   5.416   7.111 -0.1234 -0.4831  0.6324
   91SAPE   H2R 8879   2.207   5.411   7.187  1.0074  1.0323 -0.4114
   91SAPE   H2S 8880   2.109   5.318   7.061  0.3706 -0.3632  0.2110
   91SAPE    C3 8881   1.855   5.761   7.247 -0.3565 -1.0937  0.5974
   91SAPE    HX 8882   1.941   5.828   7.270 -1.3072  0.5061 -0.3192
   91SAPE    HY 8883   1.763   5.787   7.302 -0.6594 -0.2688 -0.2572
   91SAPE   O31 8884   1.822   5.753   7.105  0.4631  0.0078 -0.7244
   91SAPE   C31 8885   1.905   5.817   7.020 -0.0108  0.4628 -0.6001
   91SAPE   O32 8886   2.006   5.875   7.051 -0.1316  0.5865 -0.4685
   91SAPE   C32 8887   1.859   5.800   6.879 -0.4065  0.0513 -0.1122
   91SAPE   H2X 8888   1.772   5.870   6.872  0.0400  0.5872 -0.4111
   91SAPE   H2Y 8889   1.821   5.696   6.866  0.4151 -0.4148  1.0635
   91SAPE   C23 8890   2.179   5.520   7.010 -0.0445  0.0051 -0.2816
   91SAPE   H3R 8891   2.216   5.612   7.062 -1.0769  0.6262 -0.6074
   91SAPE   H3S 8892   2.090   5.534   6.945 -0.1489  0.9205  0.0341
   91SAPE   C24 8893   2.294   5.462   6.933  0.2427 -0.2870 -0.1088
   91SAPE   H4R 8894   2.368   5.428   7.009 -0.9124  0.7869  1.5448
   91SAPE   H4S 8895   2.356   5.541   6.886 -0.5618 -0.8832 -2.2627
   91SAPE   C25 8896   2.261   5.355   6.840  0.3727 -0.1076 -0.6062
   91SAPE   H5R 8897   2.229   5.267   6.899 -1.3818  1.0199  0.2007
   91SAPE   C26 8898   2.250   5.351   6.705  0.5925 -1.0715 -0.1302
   91SAPE   H6R 8899   2.209   5.257   6.665 -2.8066  0.1853  0.0100
   91SAPE   C27 8900   2.275   5.462   6.607  0.6943  0.7604  0.5352
   91SAPE   H7R 8901   2.348   5.534   6.651  1.3408  0.3957  0.0750
   91SAPE   H7S 8902   2.183   5.521   6.586 -0.9358 -1.9187 -0.2310
   91SAPE   C28 8903   2.335   5.420   6.482 -0.0284  0.5705  0.8815
   91SAPE   H8R 8904   2.421   5.354   6.497 -0.1077  0.2548 -0.0006
   91SAPE   C29 8905   2.298   5.459   6.353  0.0734 -0.1539  0.0108
   91SAPE   H9R 8906   2.352   5.405   6.275  0.8666  1.4645 -0.6003
   91SAPE  C210 8907   2.195   5.563   6.314 -0.4212  0.1138 -0.9026
   91SAPE  H10R 8908   2.099   5.553   6.370  0.7218  3.4841  2.0850
   91SAPE  H10S 8909   2.158   5.561   6.209 -1.8568  3.0978 -0.5787
   91SAPE  C211 8910   2.253   5.695   6.346 -0.3234  0.0032  0.1707
   91SAPE  H11R 8911   2.296   5.699   6.447 -2.4214 -1.1580  1.1722
   91SAPE  C212 8912   2.260   5.807   6.266  0.2221 -0.4371  0.0737
   91SAPE  H12R 8913   2.306   5.901   6.299 -0.7998  0.2121 -0.3388
   91SAPE  C213 8914   2.193   5.812   6.129 -0.1909 -0.7063 -0.6861
   91SAPE  H13R 8915   2.109   5.884   6.145  0.1390 -0.9998  3.6234
   91SAPE  H13S 8916   2.143   5.716   6.106  1.5735 -1.6919 -0.5804
   91SAPE  C214 8917   2.294   5.851   6.019 -0.2727 -1.0457 -0.1361
   91SAPE  H14R 8918   2.364   5.934   6.039  0.3487 -1.5507 -0.1629
   91SAPE  C215 8919   2.272   5.812   5.893  0.0493 -0.2147  0.6340
   91SAPE  H15R 8920   2.346   5.840   5.816  1.1979 -1.0361  1.4082
   91SAPE  C216 8921   2.169   5.707   5.849 -0.4056 -0.6504  0.5356
   91SAPE  H16R 8922   2.147   5.707   5.740  3.4389 -1.1076 -0.3807
   91SAPE  H16S 8923   2.070   5.733   5.892 -1.9914 -2.5297 -1.7268
   91SAPE  C217 8924   2.206   5.561   5.886  0.2390 -0.4212  0.1719
   91SAPE  H17R 8925   2.115   5.509   5.848 -1.3822  0.4296  2.6549
   91SAPE  H17S 8926   2.211   5.544   5.995  1.5215  0.1409  0.2211
   91SAPE  C218 8927   2.324   5.494   5.818  0.3303 -0.5794 -0.5947
   91SAPE  H18R 8928   2.425   5.524   5.854  0.2653 -0.1734 -0.7415
   91SAPE  H18S 8929   2.316   5.514   5.709 -1.1270  0.8664 -0.2615
   91SAPE  C219 8930   2.319   5.341   5.829 -0.4308  0.3324  0.0179
   91SAPE  H19R 8931   2.371   5.292   5.744 -0.8419 -0.3621  0.1570
   91SAPE  H19S 8932   2.213   5.309   5.818  0.6828 -3.0003 -3.0680
   91SAPE  C220 8933   2.363   5.273   5.965 -0.1820 -0.1007 -0.0329
   91SAPE  H20R 8934   2.310   5.322   6.050  0.7116 -0.3233  0.6592
   91SAPE  H20S 8935   2.473   5.282   5.977 -0.2457 -0.5972  0.9811
   91SAPE  H20T 8936   2.324   5.169   5.966  3.3788 -1.5746 -0.6018
   91SAPE   C33 8937   1.958   5.850   6.772  0.5771 -0.2293  0.1792
   91SAPE   H3X 8938   2.032   5.774   6.739  1.0010  0.0253  0.5390
   91SAPE   H3Y 8939   2.004   5.943   6.812 -3.1852  1.3068  1.3618
   91SAPE   C34 8940   1.888   5.887   6.634 -0.5709 -0.3585  0.2983
   91SAPE   H4X 8941   1.946   5.963   6.577  1.4351 -2.9318 -1.3620
   91SAPE   H4Y 8942   1.791   5.933   6.661 -0.6563 -0.4050  0.0724
   91SAPE   C35 8943   1.858   5.771   6.537  0.3327  0.1974  0.3608
   91SAPE   H5X 8944   1.763   5.719   6.564  0.4139  0.8144  1.9478
   91SAPE   H5Y 8945   1.939   5.696   6.546  1.3529  1.1523 -0.6102
   91SAPE   C36 8946   1.839   5.824   6.398 -0.4673  0.5426  0.2842
   91SAPE   H6X 8947   1.931   5.878   6.365 -0.7356  1.6059  1.2158
   91SAPE   H6Y 8948   1.753   5.894   6.397 -0.3529  0.7059 -1.4512
   91SAPE   C37 8949   1.793   5.716   6.298 -0.5359  0.4523  0.1074
   91SAPE   H7X 8950   1.712   5.653   6.341  0.8281 -1.0086  0.6199
   91SAPE   H7Y 8951   1.870   5.637   6.293 -1.3238 -0.4109  1.0653
   91SAPE   C38 8952   1.752   5.763   6.162 -0.0267  0.0755 -0.2715
   91SAPE   H8X 8953   1.824   5.834   6.115 -1.0813  2.4212  1.4704
   91SAPE   H8Y 8954   1.658   5.821   6.176 -0.1770  0.3408 -2.1012
   91SAPE   C39 8955   1.735   5.649   6.057  0.0049 -0.1065 -0.0944
   91SAPE   H9X 8956   1.666   5.579   6.107  1.0996  0.1374  1.8927
   91SAPE   H9Y 8957   1.835   5.600   6.050 -0.2225 -0.3650 -2.2898
   91SAPE  C310 8958   1.687   5.702   5.924  0.2130  0.7638 -0.2178
   91SAPE  H10X 8959   1.755   5.782   5.890  1.5389 -0.1979  0.0831
   91SAPE  H10Y 8960   1.596   5.763   5.943  0.5871  0.6669  2.1877
   91SAPE  C311 8961   1.660   5.598   5.813  0.4208 -0.4523 -0.4777
   91SAPE  H11X 8962   1.595   5.650   5.740  1.1860 -0.7155 -1.3777
   91SAPE  H11Y 8963   1.593   5.517   5.850 -0.5253  0.2809 -0.5672
   91SAPE  C312 8964   1.786   5.546   5.752  0.9304  0.7978 -0.2436
   91SAPE  H12X 8965   1.843   5.490   5.829 -0.0259  0.0065 -0.0875
   91SAPE  H12Y 8966   1.861   5.626   5.737  2.0769  0.3955  2.6977
   91SAPE  C313 8967   1.778   5.482   5.617  0.2858 -0.1773 -0.3837
   91SAPE  H13X 8968   1.730   5.382   5.621  2.3011 -1.2248 -0.9558
   91SAPE  H13Y 8969   1.883   5.461   5.587  1.1442  0.7311  1.7737
   91SAPE  C314 8970   1.719   5.566   5.505 -0.1015  0.2288 -0.0899
   91SAPE  H14X 8971   1.772   5.663   5.494 -0.0809  0.2887  0.4826
   91SAPE  H14Y 8972   1.610   5.581   5.522 -0.4819 -1.3343 -0.9700
   91SAPE  C315 8973   1.727   5.496   5.363 -0.1416  0.1095  0.2601
   91SAPE  H15X 8974   1.682   5.396   5.380  1.8821 -1.0618 -0.9537
   91SAPE  H15Y 8975   1.833   5.478   5.336  1.0548  2.3935  2.9055
   91SAPE  C316 8976   1.649   5.571   5.259  0.4598 -0.6407 -0.8670
   91SAPE  H16X 8977   1.670   5.679   5.250  0.5002 -0.5252  0.4067
   91SAPE  H16Y 8978   1.541   5.562   5.285  0.3736  2.9638  0.6263
   91SAPE  C317 8979   1.656   5.514   5.113  0.2540  0.1957  0.3448
   91SAPE  H17X 8980   1.764   5.529   5.089  0.3672  0.0473  0.7563
   91SAPE  H17Y 8981   1.583   5.562   5.045 -0.8499  0.2772  1.5416
   91SAPE  C318 8982   1.622   5.359   5.098 -0.5810 -0.0490  0.1804
   91SAPE  H18X 8983   1.523   5.355   5.148 -1.0966  0.8800 -0.7153
   91SAPE  H18Y 8984   1.689   5.281   5.141  0.3366  0.5473 -0.1304
   91SAPE  H18Z 8985   1.600   5.328   4.993 -1.4082 -1.6861  0.8114
   92SAPE     N 8986   4.416   6.611   7.219 -0.0194  0.0926  0.5472
   92SAPE   HN1 8987   4.342   6.655   7.161  0.1386  0.6163  0.7375
   92SAPE   HN2 8988   4.399   6.626   7.321  0.6194 -1.6505  0.9581
   92SAPE   HN3 8989   4.504   6.660   7.193 -1.3340  2.1779 -0.1784
   92SAPE   C12 8990   4.429   6.460   7.203 -0.3927 -0.3670 -0.3494
   92SAPE  H12A 8991   4.494   6.440   7.292  0.6030  0.7601 -0.7976
   92SAPE  H12B 8992   4.478   6.441   7.105  1.3683  0.3493  0.3370
   92SAPE   C11 8993   4.293   6.388   7.226 -0.0183 -0.1077  0.5601
   92SAPE  H11A 8994   4.264   6.389   7.333 -0.9653 -1.5575  0.3463
   92SAPE  H11B 8995   4.315   6.280   7.210 -1.6616 -0.5228  0.9088
   92SAPE     P 8996   4.063   6.498   7.210 -0.4332  0.5579 -0.1306
   92SAPE   O13 8997   4.001   6.388   7.293  0.3818  0.1714  0.5781
   92SAPE   O14 8998   4.124   6.606   7.289 -0.0111 -0.4724  0.7232
   92SAPE   O12 8999   4.188   6.428   7.138  0.5417  0.9421  0.6988
   92SAPE   O11 9000   3.955   6.542   7.103  0.1734  0.5002  0.1220
   92SAPE    C1 9001   3.989   6.535   6.964 -0.1258  0.9496 -0.2812
   92SAPE    HA 9002   3.941   6.617   6.906  0.5799 -0.0052 -2.2920
   92SAPE    HB 9003   4.094   6.549   6.932 -0.3475  0.4312 -1.2851
   92SAPE    C2 9004   3.946   6.402   6.890 -0.0396 -0.5992  1.0739
   92SAPE    HS 9005   4.013   6.319   6.920 -0.0803 -0.9818  0.1455
   92SAPE   O21 9006   3.951   6.433   6.746 -0.3882 -0.5020 -0.9500
   92SAPE   C21 9007   3.986   6.331   6.672 -0.3654 -0.3068  0.3332
   92SAPE   O22 9008   4.024   6.224   6.706  0.5000  0.1495  0.0932
   92SAPE   C22 9009   3.987   6.380   6.529  1.0077  0.2555 -0.1674
   92SAPE   H2R 9010   3.907   6.457   6.523  1.6166  1.2469  2.6995
   92SAPE   H2S 9011   4.086   6.424   6.503  0.5966  2.4090  1.5688
   92SAPE    C3 9012   3.798   6.369   6.920  0.0568  0.5154  0.8740
   92SAPE    HX 9013   3.732   6.442   6.867  1.0256 -0.7874 -2.3543
   92SAPE    HY 9014   3.782   6.384   7.029 -0.3058 -0.8454  1.0282
   92SAPE   O31 9015   3.765   6.232   6.880 -0.1170 -0.3390  0.0704
   92SAPE   C31 9016   3.757   6.141   6.971 -0.2178 -0.1421 -0.3313
   92SAPE   O32 9017   3.782   6.148   7.093 -0.1266 -0.6867  0.9360
   92SAPE   C32 9018   3.715   6.012   6.903  0.2531 -0.2924 -0.8342
   92SAPE   H2X 9019   3.665   6.041   6.808 -1.1085 -1.0020 -0.3626
   92SAPE   H2Y 9020   3.628   5.972   6.959  0.6964 -0.5248 -0.3111
   92SAPE   C23 9021   3.966   6.269   6.415  0.7003 -0.0704  0.5094
   92SAPE   H3R 9022   3.862   6.231   6.426  0.6499  0.0243  0.3681
   92SAPE   H3S 9023   4.027   6.177   6.419 -2.8960 -2.9792 -2.8315
   92SAPE   C24 9024   3.989   6.324   6.274  0.5012  0.3381  0.2016
   92SAPE   H4R 9025   4.096   6.349   6.261 -0.0148  3.6427  1.2865
   92SAPE   H4S 9026   3.949   6.427   6.282 -2.0263 -0.6195  1.3094
   92SAPE   C25 9027   3.913   6.244   6.171  0.0902  0.5756  0.4150
   92SAPE   H5R 9028   3.804   6.242   6.183 -0.0275 -1.2297 -0.5992
   92SAPE   C26 9029   3.977   6.171   6.079 -0.2792 -0.8465  0.0595
   92SAPE   H6R 9030   3.916   6.117   6.005  1.1251  2.1047 -3.5439
   92SAPE   C27 9031   4.126   6.190   6.049 -0.2113  0.0752 -0.1286
   92SAPE   H7R 9032   4.191   6.166   6.136 -1.5356  2.0291  1.4933
   92SAPE   H7S 9033   4.136   6.299   6.028  0.4069 -0.1397 -0.9935
   92SAPE   C28 9034   4.190   6.115   5.940 -1.2670 -0.2799  0.1848
   92SAPE   H8R 9035   4.281   6.063   5.975  0.4511  1.9329 -0.7475
   92SAPE   C29 9036   4.183   6.144   5.810 -0.0824 -0.2644 -0.2970
   92SAPE   H9R 9037   4.244   6.082   5.742  1.2034 -0.4953  1.0054
   92SAPE  C210 9038   4.087   6.246   5.754 -0.2545 -0.1100 -0.5802
   92SAPE  H10R 9039   4.045   6.302   5.840  0.0295  1.0994 -1.2190
   92SAPE  H10S 9040   4.001   6.190   5.712 -0.6306  0.3660 -0.4459
   92SAPE  C211 9041   4.140   6.350   5.656 -0.2891 -0.6482  1.0703
   92SAPE  H11R 9042   4.241   6.327   5.620 -0.2447 -1.2256  1.5387
   92SAPE  C212 9043   4.062   6.436   5.589  0.8352 -0.5429 -0.0265
   92SAPE  H12R 9044   4.115   6.506   5.522  0.3943 -0.3808 -0.2096
   92SAPE  C213 9045   3.917   6.462   5.609  0.0815  0.6400  1.3245
   92SAPE  H13R 9046   3.886   6.559   5.565 -2.2448  0.3943  2.2516
   92SAPE  H13S 9047   3.903   6.461   5.719  2.0213 -0.3919  1.6031
   92SAPE  C214 9048   3.825   6.357   5.543 -0.7008  0.5663  0.2493
   92SAPE  H14R 9049   3.878   6.264   5.519 -2.3524 -0.1821 -0.5968
   92SAPE  C215 9050   3.692   6.367   5.549  0.0509 -0.2192  0.0429
   92SAPE  H15R 9051   3.630   6.299   5.488  0.3730  1.0726 -1.7963
   92SAPE  C216 9052   3.616   6.482   5.599  0.8667 -0.5387  0.3823
   92SAPE  H16R 9053   3.678   6.572   5.619 -0.1102  0.2018  0.1879
   92SAPE  H16S 9054   3.559   6.451   5.689 -0.5328 -0.4029 -0.4275
   92SAPE  C217 9055   3.510   6.517   5.482 -0.5373 -0.3312 -0.3545
   92SAPE  H17R 9056   3.553   6.496   5.382  0.5282  0.1769 -0.0106
   92SAPE  H17S 9057   3.494   6.627   5.483 -0.1580 -0.2737 -0.4731
   92SAPE  C218 9058   3.371   6.440   5.493  0.1989 -0.1590  0.4060
   92SAPE  H18R 9059   3.359   6.428   5.603 -0.5351 -2.6357  0.1064
   92SAPE  H18S 9060   3.383   6.334   5.461  0.8588 -0.2138  0.8267
   92SAPE  C219 9061   3.248   6.498   5.417 -0.3623 -0.1354 -0.0379
   92SAPE  H19R 9062   3.156   6.450   5.455  0.6789 -1.3057  1.1285
   92SAPE  H19S 9063   3.264   6.466   5.311 -0.0412  2.6423 -0.9080
   92SAPE  C220 9064   3.239   6.649   5.399  0.0722 -0.2202  0.3733
   92SAPE  H20R 9065   3.140   6.678   5.359  0.6242  4.7651  1.8677
   92SAPE  H20S 9066   3.331   6.685   5.349  0.2660 -1.6017 -0.3235
   92SAPE  H20T 9067   3.226   6.697   5.499 -0.6879  0.5116 -0.0637
   92SAPE   C33 9068   3.835   5.921   6.893  0.7676  0.3350  0.0800
   92SAPE   H3X 9069   3.850   5.877   6.994 -1.9372  0.2323  0.5015
   92SAPE   H3Y 9070   3.921   5.985   6.863  2.8731 -2.3345 -0.0182
   92SAPE   C34 9071   3.817   5.815   6.786  0.0197 -0.0986  0.0929
   92SAPE   H4X 9072   3.712   5.783   6.804  0.2127 -0.4398  0.6475
   92SAPE   H4Y 9073   3.884   5.727   6.797  1.5322  1.0998  0.8029
   92SAPE   C35 9074   3.843   5.882   6.647  0.3382 -0.4882  0.2054
   92SAPE   H5X 9075   3.951   5.901   6.628  0.4124 -1.0000  0.0875
   92SAPE   H5Y 9076   3.790   5.979   6.637  1.0008 -0.1717 -0.3967
   92SAPE   C36 9077   3.797   5.794   6.530 -0.3130  0.7123 -0.2602
   92SAPE   H6X 9078   3.687   5.781   6.524 -0.6134  2.8194 -0.2077
   92SAPE   H6Y 9079   3.855   5.700   6.537  0.9473  1.3739 -1.4517
   92SAPE   C37 9080   3.854   5.841   6.393  0.1206  1.1868  0.4044
   92SAPE   H7X 9081   3.960   5.810   6.397 -0.3475 -0.7188 -0.5296
   92SAPE   H7Y 9082   3.837   5.950   6.387 -2.1161  0.8248 -1.2429
   92SAPE   C38 9083   3.779   5.758   6.279 -0.3163 -0.5195 -0.3912
   92SAPE   H8X 9084   3.671   5.785   6.276 -0.4128 -0.6591  1.0124
   92SAPE   H8Y 9085   3.783   5.653   6.315 -2.6515 -0.4332  0.3127
   92SAPE   C39 9086   3.829   5.783   6.132  0.3409  0.2929 -0.0897
   92SAPE   H9X 9087   3.823   5.893   6.114 -1.0296  0.4325  0.9961
   92SAPE   H9Y 9088   3.756   5.726   6.072  0.6962 -0.2078 -0.0559
   92SAPE  C310 9089   3.970   5.726   6.106 -0.6584  0.1642 -0.7880
   92SAPE  H10X 9090   3.986   5.629   6.158 -1.0707 -0.1643 -1.2648
   92SAPE  H10Y 9091   4.037   5.805   6.146 -1.6219  1.2975 -1.3467
   92SAPE  C311 9092   4.013   5.693   5.961 -0.1017  0.5209  0.3782
   92SAPE  H11X 9093   3.958   5.601   5.932  1.3961 -1.0098  2.1812
   92SAPE  H11Y 9094   4.119   5.662   5.956 -0.1299  0.5783 -2.5524
   92SAPE  C312 9095   3.966   5.804   5.862  0.3096  0.2201 -1.2410
   92SAPE  H12X 9096   4.025   5.898   5.874 -2.4273  1.8715  0.4523
   92SAPE  H12Y 9097   3.857   5.815   5.881  0.0663 -1.4149 -1.6187
   92SAPE  C313 9098   3.981   5.760   5.718  0.3162 -0.2999 -0.2081
   92SAPE  H13X 9099   3.911   5.682   5.681 -1.0702  1.1507 -0.7884
   92SAPE  H13Y 9100   4.086   5.734   5.695  0.8578  2.1570 -0.7925
   92SAPE  C314 9101   3.944   5.875   5.620 -0.8485  1.0178 -1.0147
   92SAPE  H14X 9102   3.988   5.965   5.668 -0.4268 -0.2897  1.1722
   92SAPE  H14Y 9103   3.833   5.880   5.619 -0.8474  0.9796 -1.4788
   92SAPE  C315 9104   3.993   5.874   5.478  0.1690  0.0679 -0.8717
   92SAPE  H15X 9105   3.919   5.824   5.413  1.5051 -0.8691 -1.7116
   92SAPE  H15Y 9106   4.092   5.825   5.464 -0.8894 -1.4514 -4.1825
   92SAPE  C316 9107   4.011   6.009   5.417 -0.4824  0.4541  0.6979
   92SAPE  H16X 9108   4.091   6.066   5.469  1.5561  1.5303 -3.2578
   92SAPE  H16Y 9109   3.914   6.063   5.412 -0.7302 -0.0735 -2.2997
   92SAPE  C317 9110   4.067   6.004   5.272 -0.0274 -0.7316 -0.1806
   92SAPE  H17X 9111   4.176   5.981   5.276  0.2332  0.5712  0.6485
   92SAPE  H17Y 9112   4.055   6.100   5.217  2.6059 -0.1666  0.0985
   92SAPE  C318 9113   3.993   5.901   5.186  0.5440 -0.5660  0.4655
   92SAPE  H18X 9114   4.016   5.917   5.079 -0.3463 -0.0961  0.3419
   92SAPE  H18Y 9115   3.883   5.914   5.190  0.6717  1.2260 -0.5732
   92SAPE  H18Z 9116   4.020   5.807   5.239 -1.2876  0.3394  3.1885
   93SAPE     N 9117   5.501   4.845   7.678 -0.3431  0.0383  0.8210
   93SAPE   HN1 9118   5.496   4.821   7.779  1.6313  1.3501  1.2957
   93SAPE   HN2 9119   5.421   4.909   7.661 -1.0412 -1.4757 -2.2366
   93SAPE   HN3 9120   5.482   4.754   7.632 -0.8480 -0.3328  1.7387
   93SAPE   C12 9121   5.638   4.899   7.632  0.4153 -0.2874  0.1082
   93SAPE  H12A 9122   5.717   4.824   7.652  0.7066 -0.4894 -1.6265
   93SAPE  H12B 9123   5.651   5.000   7.677 -0.8844  0.7215 -1.6441
   93SAPE   C11 9124   5.638   4.908   7.480  0.0652  0.1547 -0.1961
   93SAPE  H11A 9125   5.713   4.985   7.454  0.9362 -0.5061  0.3227
   93SAPE  H11B 9126   5.538   4.937   7.440  0.5072 -0.8535 -2.1956
   93SAPE     P 9127   5.611   4.652   7.406  0.0748  0.0807  0.0179
   93SAPE   O13 9128   5.704   4.544   7.375 -0.2243  0.4319 -0.0951
   93SAPE   O14 9129   5.508   4.630   7.512 -0.9825  0.0969  0.1035
   93SAPE   O12 9130   5.680   4.787   7.424 -0.4345  0.6870  0.1973
   93SAPE   O11 9131   5.539   4.690   7.269  0.2367  0.3088 -0.0614
   93SAPE    C1 9132   5.619   4.698   7.148  0.8075 -0.2737  0.8465
   93SAPE    HA 9133   5.634   4.806   7.129 -0.9122 -0.1640 -0.0138
   93SAPE    HB 9134   5.722   4.656   7.156  0.4111 -1.3882  0.1977
   93SAPE    C2 9135   5.548   4.640   7.025  0.0297  0.7622  0.0382
   93SAPE    HS 9136   5.611   4.561   6.979  0.7418  0.1120  2.0373
   93SAPE   O21 9137   5.519   4.745   6.936  0.4786  0.1325 -0.0066
   93SAPE   C21 9138   5.614   4.782   6.853 -0.5418  0.6413 -0.3253
   93SAPE   O22 9139   5.723   4.731   6.852  0.2010 -0.1730 -0.4256
   93SAPE   C22 9140   5.558   4.890   6.758  0.4969 -0.5041  0.1978
   93SAPE   H2R 9141   5.452   4.859   6.744  0.7390 -1.3335  0.1484
   93SAPE   H2S 9142   5.553   4.986   6.814  0.6384 -0.7113  0.5721
   93SAPE    C3 9143   5.419   4.559   7.070  0.1960  0.0154 -0.0465
   93SAPE    HX 9144   5.351   4.630   7.121  0.7189  0.9976 -0.6970
   93SAPE    HY 9145   5.439   4.480   7.146 -2.2048  0.5353  1.2132
   93SAPE   O31 9146   5.362   4.494   6.958 -0.5456  0.2202 -0.0784
   93SAPE   C31 9147   5.232   4.497   6.942 -0.4993 -0.0354 -1.1021
   93SAPE   O32 9148   5.154   4.541   7.025  0.0663  0.1834 -0.3904
   93SAPE   C32 9149   5.204   4.428   6.811 -0.8026  0.1533 -0.7087
   93SAPE   H2X 9150   5.106   4.379   6.829  1.0368 -3.3467  0.8058
   93SAPE   H2Y 9151   5.278   4.351   6.782 -0.7830 -0.0334 -0.1852
   93SAPE   C23 9152   5.633   4.907   6.625  0.4600 -0.6094 -0.0761
   93SAPE   H3R 9153   5.737   4.944   6.617  1.5420 -3.6250 -1.5611
   93SAPE   H3S 9154   5.586   4.978   6.554 -3.3241 -2.4117  0.3760
   93SAPE   C24 9155   5.624   4.774   6.545  0.1575  0.0995  0.4896
   93SAPE   H4R 9156   5.662   4.690   6.607  0.9464  0.3383  0.3424
   93SAPE   H4S 9157   5.701   4.789   6.467 -0.1771  1.5787  0.4003
   93SAPE   C25 9158   5.486   4.749   6.499 -0.8071 -0.5091 -0.4086
   93SAPE   H5R 9159   5.428   4.706   6.581  1.2451 -1.1517  0.7945
   93SAPE   C26 9160   5.439   4.767   6.373  0.7062  0.5708  0.1614
   93SAPE   H6R 9161   5.331   4.750   6.361  0.1898  2.6404  1.3640
   93SAPE   C27 9162   5.517   4.803   6.247  1.0653  0.4592 -0.1221
   93SAPE   H7R 9163   5.483   4.741   6.161  0.6531  1.6145 -0.8147
   93SAPE   H7S 9164   5.626   4.785   6.259  1.1443  1.5092  0.9722
   93SAPE   C28 9165   5.496   4.953   6.229  0.1111 -0.2535  0.1004
   93SAPE   H8R 9166   5.535   5.015   6.311  0.0073 -0.4363  0.2876
   93SAPE   C29 9167   5.446   5.013   6.127  1.0069  0.4031  0.7752
   93SAPE   H9R 9168   5.444   5.123   6.119  1.6246  0.4309  0.8933
   93SAPE  C210 9169   5.414   4.946   5.997 -0.0353 -0.0851  0.0647
   93SAPE  H10R 9170   5.494   4.870   5.984  2.1622  2.0486  0.4211
   93SAPE  H10S 9171   5.450   5.022   5.924  4.0477 -0.9814  0.9236
   93SAPE  C211 9172   5.282   4.879   5.965  0.3699 -0.0811  0.5568
   93SAPE  H11R 9173   5.241   4.814   6.044 -0.9983  0.2628  0.1658
   93SAPE  C212 9174   5.224   4.884   5.845  0.9395 -0.1104 -0.5504
   93SAPE  H12R 9175   5.134   4.824   5.826  0.9995 -0.3604 -0.0721
   93SAPE  C213 9176   5.280   4.957   5.731  0.6051 -0.0848  0.0052
   93SAPE  H13R 9177   5.378   4.918   5.697  0.5272  0.4896 -0.9131
   93SAPE  H13S 9178   5.297   5.063   5.762 -0.3244 -0.2185  1.0391
   93SAPE  C214 9179   5.180   4.968   5.619 -0.3040  0.2320  0.4184
   93SAPE  H14R 9180   5.100   5.042   5.633 -1.1439 -1.0073  2.6274
   93SAPE  C215 9181   5.191   4.896   5.502  0.2796 -0.6132 -0.6500
   93SAPE  H15R 9182   5.130   4.931   5.417  0.4620  2.5612  0.3838
   93SAPE  C216 9183   5.293   4.791   5.470  0.6514 -0.2759  0.5706
   93SAPE  H16R 9184   5.240   4.703   5.426 -0.5744 -0.4291  2.2672
   93SAPE  H16S 9185   5.341   4.759   5.565 -1.6441  0.1469  1.9376
   93SAPE  C217 9186   5.398   4.848   5.374  0.1617  0.8725 -0.4783
   93SAPE  H17R 9187   5.465   4.914   5.433 -0.6390  1.5180 -0.2699
   93SAPE  H17S 9188   5.351   4.903   5.290 -0.3516  1.7241  0.3435
   93SAPE  C218 9189   5.488   4.735   5.318  0.3737 -0.6836 -0.0679
   93SAPE  H18R 9190   5.433   4.672   5.245 -0.9296 -0.5541  0.7732
   93SAPE  H18S 9191   5.525   4.665   5.396 -1.9247 -3.6083 -1.4083
   93SAPE  C219 9192   5.606   4.791   5.246 -0.6400 -0.0146  0.3415
   93SAPE  H19R 9193   5.657   4.861   5.315 -0.4603  1.3220 -1.1106
   93SAPE  H19S 9194   5.555   4.856   5.172 -0.4393  1.2948  1.3136
   93SAPE  C220 9195   5.701   4.693   5.182  0.7359  0.0159 -0.0388
   93SAPE  H20R 9196   5.709   4.606   5.250 -1.2894 -0.3305 -0.1842
   93SAPE  H20S 9197   5.798   4.745   5.195 -0.0635  1.1547  1.6287
   93SAPE  H20T 9198   5.686   4.671   5.074  1.6321  0.2443 -0.2199
   93SAPE   C33 9199   5.180   4.518   6.689 -0.2222 -0.4689 -0.0789
   93SAPE   H3X 9200   5.273   4.578   6.678 -2.1779  3.5963  3.1784
   93SAPE   H3Y 9201   5.105   4.595   6.713  0.2469  0.4209 -1.3430
   93SAPE   C34 9202   5.157   4.437   6.562  0.2711  0.0339 -0.1061
   93SAPE   H4X 9203   5.067   4.374   6.576  1.6233 -1.3083  3.8695
   93SAPE   H4Y 9204   5.238   4.363   6.543  1.3711  1.3341 -0.6899
   93SAPE   C35 9205   5.146   4.524   6.434  0.4329 -0.0050 -0.1863
   93SAPE   H5X 9206   5.249   4.559   6.411  0.5300 -0.2285 -0.0933
   93SAPE   H5Y 9207   5.072   4.607   6.445 -2.6047 -2.0913 -2.9241
   93SAPE   C36 9208   5.098   4.436   6.315 -0.0364 -0.0848 -0.5996
   93SAPE   H6X 9209   5.001   4.391   6.345  1.4035 -1.6007  2.3021
   93SAPE   H6Y 9210   5.164   4.348   6.299 -0.1569  0.1478 -2.5928
   93SAPE   C37 9211   5.095   4.514   6.187 -0.5650 -0.3558 -0.2952
   93SAPE   H7X 9212   5.197   4.548   6.161 -0.6557  0.0903 -0.0839
   93SAPE   H7Y 9213   5.038   4.610   6.196 -1.1933 -0.6983 -0.5429
   93SAPE   C38 9214   5.040   4.446   6.063  0.1139  0.1467 -0.1871
   93SAPE   H8X 9215   4.938   4.410   6.088 -1.0438  2.5858 -0.9949
   93SAPE   H8Y 9216   5.088   4.348   6.047 -2.2614 -1.1854  0.4243
   93SAPE   C39 9217   5.029   4.539   5.940  0.0305  0.1249 -0.1375
   93SAPE   H9X 9218   5.129   4.577   5.910 -0.5012  1.4609 -0.3013
   93SAPE   H9Y 9219   4.969   4.626   5.973  0.0243  0.8456 -1.9443
   93SAPE  C310 9220   4.959   4.464   5.828  0.4505 -0.1143  0.5205
   93SAPE  H10X 9221   4.865   4.421   5.870 -0.1137 -0.8141 -1.3703
   93SAPE  H10Y 9222   5.033   4.389   5.793  1.2642  1.3546 -1.0456
   93SAPE  C311 9223   4.926   4.552   5.708  0.0461  0.2036 -0.7030
   93SAPE  H11X 9224   5.020   4.594   5.666  0.9958 -1.9599 -0.8254
   93SAPE  H11Y 9225   4.851   4.630   5.735 -0.9084  0.1512 -2.9713
   93SAPE  C312 9226   4.857   4.483   5.595  0.2529 -0.3734  0.6884
   93SAPE  H12X 9227   4.762   4.434   5.626 -0.6386  0.4988 -0.5453
   93SAPE  H12Y 9228   4.915   4.395   5.561 -0.0546 -1.2093  2.2442
   93SAPE  C313 9229   4.839   4.581   5.475 -0.1008  0.3907  0.0432
   93SAPE  H13X 9230   4.937   4.618   5.437 -0.9033  1.0492 -1.4511
   93SAPE  H13Y 9231   4.783   4.670   5.510 -0.8673 -0.3633  0.7691
   93SAPE  C314 9232   4.762   4.537   5.354  0.3180  0.6482 -0.2657
   93SAPE  H14X 9233   4.704   4.624   5.316  0.2500  0.9552  0.5305
   93SAPE  H14Y 9234   4.680   4.464   5.370  1.4060 -0.5780 -0.1801
   93SAPE  C315 9235   4.847   4.460   5.247 -0.2213 -0.8150 -0.3700
   93SAPE  H15X 9236   4.926   4.394   5.288  0.6580 -0.4628 -1.4632
   93SAPE  H15Y 9237   4.898   4.539   5.189 -1.2493  0.4015  0.3288
   93SAPE  C316 9238   4.754   4.378   5.155 -0.3538  0.8936  0.3981
   93SAPE  H16X 9239   4.671   4.444   5.121 -0.9049 -0.8469 -1.8621
   93SAPE  H16Y 9240   4.704   4.298   5.214 -0.4536  0.6586 -0.0037
   93SAPE  C317 9241   4.832   4.324   5.037  0.4977  0.2439  0.3115
   93SAPE  H17X 9242   4.923   4.267   5.067  1.5656  0.6239 -1.9982
   93SAPE  H17Y 9243   4.878   4.398   4.969  1.0142 -1.3620 -1.1774
   93SAPE  C318 9244   4.748   4.234   4.955  0.4545 -0.0557 -0.0460
   93SAPE  H18X 9245   4.767   4.133   4.997 -3.6441 -0.1495  2.0825
   93SAPE  H18Y 9246   4.775   4.237   4.848  1.5401  0.2718  0.2178
   93SAPE  H18Z 9247   4.640   4.255   4.969  0.2151 -0.2892 -1.4373
   94SAPE     N 9248   4.475   1.871   7.605 -0.4554 -0.5194  0.2844
   94SAPE   HN1 9249   4.508   1.772   7.610  0.3144 -0.2877 -0.0558
   94SAPE   HN2 9250   4.553   1.929   7.567  1.3459 -2.1469  1.3070
   94SAPE   HN3 9251   4.448   1.914   7.696  0.9284  1.8050 -0.3270
   94SAPE   C12 9252   4.349   1.871   7.521 -0.0909  0.2451  0.6545
   94SAPE  H12A 9253   4.299   1.969   7.537 -0.4725 -0.0285  1.1665
   94SAPE  H12B 9254   4.279   1.789   7.547  2.4713 -2.3234 -0.1019
   94SAPE   C11 9255   4.389   1.874   7.376  0.3552 -0.1365 -0.3014
   94SAPE  H11A 9256   4.298   1.868   7.311  0.6094 -0.8786 -0.5930
   94SAPE  H11B 9257   4.455   1.794   7.337 -0.3501  0.3927 -2.7602
   94SAPE     P 9258   4.579   2.051   7.330 -0.4629  0.0620 -0.2614
   94SAPE   O13 9259   4.575   2.192   7.291  0.3792  0.0107  0.4849
   94SAPE   O14 9260   4.658   2.007   7.443  0.2348  0.7301 -0.0475
   94SAPE   O12 9261   4.437   2.000   7.336 -0.3961 -0.0171 -0.8196
   94SAPE   O11 9262   4.619   1.969   7.205  0.2284 -0.0101  0.2850
   94SAPE    C1 9263   4.572   1.982   7.071 -0.4651  0.7890  0.2917
   94SAPE    HA 9264   4.549   2.085   7.040  1.5061  1.4176  0.7652
   94SAPE    HB 9265   4.634   1.932   6.994 -3.0387 -0.1897 -1.2557
   94SAPE    C2 9266   4.433   1.915   7.043  0.3015 -0.2018  0.9093
   94SAPE    HS 9267   4.354   1.974   7.095 -0.7248 -2.4366  2.0332
   94SAPE   O21 9268   4.444   1.780   7.080 -0.4442  0.3234 -0.5397
   94SAPE   C21 9269   4.336   1.695   7.077  0.0147  0.1534  0.0261
   94SAPE   O22 9270   4.223   1.735   7.042 -0.0985 -0.2310 -0.1519
   94SAPE   C22 9271   4.391   1.554   7.121  0.1369  0.1258  0.5119
   94SAPE   H2R 9272   4.489   1.574   7.171  0.7512  0.2957 -0.7201
   94SAPE   H2S 9273   4.326   1.516   7.203 -0.1946 -1.9772 -0.6819
   94SAPE    C3 9274   4.391   1.931   6.895 -0.0828 -0.2209 -0.9385
   94SAPE    HX 9275   4.363   2.037   6.878  2.1827  0.1674 -2.7134
   94SAPE    HY 9276   4.301   1.870   6.874  0.9418 -1.1152 -3.0935
   94SAPE   O31 9277   4.504   1.899   6.799  0.0922 -0.4345 -0.2327
   94SAPE   C31 9278   4.454   1.878   6.673 -0.3096  1.0763 -0.5925
   94SAPE   O32 9279   4.337   1.887   6.638 -0.1242 -0.5240 -0.3042
   94SAPE   C32 9280   4.575   1.826   6.587  0.8108 -0.4318  0.9405
   94SAPE   H2X 9281   4.568   1.716   6.588 -0.4656 -0.3659  1.7002
   94SAPE   H2Y 9282   4.675   1.852   6.628  0.6122  1.9996  0.0776
   94SAPE   C23 9283   4.401   1.442   7.001  0.5270  0.0449  0.3556
   94SAPE   H3R 9284   4.293   1.426   6.981  0.6642 -0.1918 -0.2124
   94SAPE   H3S 9285   4.442   1.349   7.045 -0.9579 -0.4941  0.6619
   94SAPE   C24 9286   4.467   1.497   6.873  0.3277 -0.2951 -0.2471
   94SAPE   H4R 9287   4.447   1.603   6.848  2.2764  0.1707  0.0644
   94SAPE   H4S 9288   4.430   1.430   6.792 -0.1603 -3.1360  2.1482
   94SAPE   C25 9289   4.617   1.487   6.884  0.8216  0.1058  0.1990
   94SAPE   H5R 9290   4.672   1.527   6.970  3.2670 -0.7382 -0.8694
   94SAPE   C26 9291   4.691   1.425   6.793  0.6532  0.4067 -0.4872
   94SAPE   H6R 9292   4.800   1.415   6.803  0.4661  0.1954  1.9765
   94SAPE   C27 9293   4.628   1.331   6.689  0.0494  1.1686 -0.0765
   94SAPE   H7R 9294   4.578   1.389   6.609 -1.5510  1.7665  1.2960
   94SAPE   H7S 9295   4.551   1.270   6.741  1.3761 -0.3279  0.1794
   94SAPE   C28 9296   4.711   1.225   6.620  0.1209 -0.6146 -0.0669
   94SAPE   H8R 9297   4.728   1.131   6.675  0.2091 -0.4067  0.2635
   94SAPE   C29 9298   4.779   1.243   6.503  0.4771 -0.0050 -0.8967
   94SAPE   H9R 9299   4.826   1.155   6.457 -1.0501  0.3300 -3.2489
   94SAPE  C210 9300   4.775   1.368   6.420 -0.3907  0.1342  0.8239
   94SAPE  H10R 9301   4.879   1.405   6.413 -0.6915  0.9531  0.5182
   94SAPE  H10S 9302   4.731   1.455   6.473 -0.0933  0.3145  0.7740
   94SAPE  C211 9303   4.709   1.354   6.288  0.1589 -0.4394 -0.2463
   94SAPE  H11R 9304   4.600   1.365   6.284  0.2106  0.0773 -0.3329
   94SAPE  C212 9305   4.772   1.363   6.172 -0.1771 -0.1889  0.2915
   94SAPE  H12R 9306   4.715   1.349   6.079  0.9326 -1.1729 -0.2601
   94SAPE  C213 9307   4.920   1.366   6.155  0.1178 -1.0348  0.3889
   94SAPE  H13R 9308   4.948   1.260   6.169 -0.7003 -1.5871 -1.7470
   94SAPE  H13S 9309   4.965   1.438   6.226  0.9271  1.3297 -2.3250
   94SAPE  C214 9310   4.956   1.400   6.010  0.0645 -0.2944 -0.3018
   94SAPE  H14R 9311   5.014   1.493   6.003  0.3000 -0.3689  0.5047
   94SAPE  C215 9312   4.952   1.324   5.896  0.3081  0.0318 -0.3124
   94SAPE  H15R 9313   5.000   1.359   5.804  2.1416 -1.2352  0.1190
   94SAPE  C216 9314   4.885   1.181   5.894  0.0956 -0.2960 -0.4722
   94SAPE  H16R 9315   4.799   1.190   5.825  0.2868 -2.7517 -1.1173
   94SAPE  H16S 9316   4.845   1.153   5.994 -1.5854  0.7853 -0.8102
   94SAPE  C217 9317   4.975   1.066   5.845 -0.8006 -0.1055 -0.5189
   94SAPE  H17R 9318   5.074   1.060   5.894 -0.6197 -1.3864 -1.0004
   94SAPE  H17S 9319   5.012   1.084   5.741 -0.0803 -1.2919 -0.4807
   94SAPE  C218 9320   4.924   0.921   5.853 -0.2570  0.0989  0.2387
   94SAPE  H18R 9321   4.890   0.903   5.957 -2.4354  0.3974 -0.3649
   94SAPE  H18S 9322   4.996   0.836   5.846 -1.0831 -0.9922  3.3960
   94SAPE  C219 9323   4.812   0.875   5.760  0.7640 -0.0669 -0.2323
   94SAPE  H19R 9324   4.743   0.961   5.747  1.5228  0.5334 -0.3482
   94SAPE  H19S 9325   4.771   0.784   5.808 -1.0547  1.5987  1.5479
   94SAPE  C220 9326   4.869   0.836   5.621  1.4054  0.2187  0.7038
   94SAPE  H20R 9327   4.784   0.780   5.577  1.9361 -0.4901  0.5686
   94SAPE  H20S 9328   4.955   0.765   5.620 -1.2682 -3.3771  2.8209
   94SAPE  H20T 9329   4.880   0.922   5.551  0.9083 -0.1182  0.2145
   94SAPE   C33 9330   4.553   1.873   6.434 -0.3371  0.1416 -0.1576
   94SAPE   H3X 9331   4.550   1.984   6.433 -0.1739  0.1713  1.0689
   94SAPE   H3Y 9332   4.452   1.838   6.402 -1.0588  2.1852 -0.2876
   94SAPE   C34 9333   4.658   1.804   6.337  0.2558  0.2173  0.1473
   94SAPE   H4X 9334   4.660   1.696   6.364 -1.0406  0.3814  0.9594
   94SAPE   H4Y 9335   4.759   1.843   6.360  0.4981  1.0492 -2.0275
   94SAPE   C35 9336   4.626   1.827   6.197 -0.5870 -0.7383  0.8849
   94SAPE   H5X 9337   4.637   1.936   6.173  1.4569 -1.0587  0.1581
   94SAPE   H5Y 9338   4.519   1.813   6.170 -0.0575 -1.0246 -1.2148
   94SAPE   C36 9339   4.713   1.749   6.091 -0.1716 -0.3218  0.0385
   94SAPE   H6X 9340   4.709   1.646   6.132  0.3097  1.2476  4.5573
   94SAPE   H6Y 9341   4.814   1.795   6.086 -1.0223  1.5024 -2.0741
   94SAPE   C37 9342   4.672   1.772   5.944  0.0952  1.2925  0.0717
   94SAPE   H7X 9343   4.660   1.877   5.910 -2.5920  0.9327 -0.2579
   94SAPE   H7Y 9344   4.572   1.727   5.930 -0.1604  0.9870  2.3853
   94SAPE   C38 9345   4.763   1.703   5.841  0.5905 -0.2355 -0.1168
   94SAPE   H8X 9346   4.779   1.604   5.888  3.9213  0.1122 -0.2253
   94SAPE   H8Y 9347   4.861   1.756   5.841  1.3894 -1.5902  1.8534
   94SAPE   C39 9348   4.706   1.679   5.710 -0.2788  0.7489 -0.1190
   94SAPE   H9X 9349   4.708   1.770   5.647 -0.9593  0.7991 -0.0769
   94SAPE   H9Y 9350   4.607   1.630   5.720  0.4866 -0.7891  0.1504
   94SAPE  C310 9351   4.788   1.567   5.657 -0.0962  0.0513  0.3626
   94SAPE  H10X 9352   4.760   1.472   5.707 -2.8115  0.4923 -0.1833
   94SAPE  H10Y 9353   4.892   1.591   5.687 -1.0332  2.3657  2.0906
   94SAPE  C311 9354   4.765   1.542   5.511  0.7896 -0.6738  0.5117
   94SAPE  H11X 9355   4.792   1.623   5.440 -0.3529 -1.7520 -1.2485
   94SAPE  H11Y 9356   4.656   1.522   5.500  0.8225 -0.4356 -0.3549
   94SAPE  C312 9357   4.834   1.414   5.462 -0.0941 -0.4641  0.3529
   94SAPE  H12X 9358   4.813   1.342   5.544 -0.5683 -0.9373 -0.1741
   94SAPE  H12Y 9359   4.944   1.429   5.457  0.6017 -4.3481  0.2211
   94SAPE  C313 9360   4.771   1.352   5.334 -0.3946  0.5171 -0.4195
   94SAPE  H13X 9361   4.795   1.407   5.241 -2.2786 -0.4994 -1.5478
   94SAPE  H13Y 9362   4.662   1.363   5.346 -0.7957 -0.4949 -2.7287
   94SAPE  C314 9363   4.794   1.200   5.316 -0.5058  0.2711 -0.5105
   94SAPE  H14X 9364   4.822   1.159   5.416  0.3902  0.5574 -0.6402
   94SAPE  H14Y 9365   4.882   1.186   5.250 -1.0105  2.0391 -1.6293
   94SAPE  C315 9366   4.677   1.116   5.263  0.4103  0.3237  0.2387
   94SAPE  H15X 9367   4.665   1.147   5.157  0.4991 -1.4518 -0.3261
   94SAPE  H15Y 9368   4.584   1.130   5.322 -0.0182 -0.7452 -0.1424
   94SAPE  C316 9369   4.715   0.970   5.259  0.2501  0.1736  0.2643
   94SAPE  H16X 9370   4.745   0.926   5.357 -1.1227  0.1447  0.6941
   94SAPE  H16Y 9371   4.806   0.970   5.195 -1.4249 -0.2875 -2.2448
   94SAPE  C317 9372   4.608   0.890   5.184 -0.5652 -1.1246 -0.1667
   94SAPE  H17X 9373   4.617   0.926   5.079 -0.9333  0.3739  0.3035
   94SAPE  H17Y 9374   4.509   0.931   5.210 -0.7569 -1.6897  0.0047
   94SAPE  C318 9375   4.618   0.737   5.198 -0.1820 -0.1571  0.7121
   94SAPE  H18X 9376   4.589   0.695   5.297  2.1423  1.7475  2.3277
   94SAPE  H18Y 9377   4.722   0.700   5.184 -1.2199 -3.1630  0.3548
   94SAPE  H18Z 9378   4.571   0.684   5.113  3.6593 -3.0449  0.1535
   95SAPE     N 9379   0.741   4.620   7.926  0.5199 -0.4325  0.0459
   95SAPE   HN1 9380   0.687   4.647   8.011  0.0644  1.1959 -0.7115
   95SAPE   HN2 9381   0.839   4.622   7.962  0.3599  1.7871  0.5003
   95SAPE   HN3 9382   0.733   4.695   7.855 -0.2161  0.2940  0.8738
   95SAPE   C12 9383   0.709   4.484   7.872  0.4460 -0.1027 -0.3349
   95SAPE  H12A 9384   0.656   4.425   7.951 -1.2995  0.6142 -0.9152
   95SAPE  H12B 9385   0.808   4.438   7.854  2.2048  2.1835  2.5682
   95SAPE   C11 9386   0.622   4.482   7.742  0.1678 -0.1979 -0.8825
   95SAPE  H11A 9387   0.528   4.530   7.776  0.4958 -0.7442  0.9315
   95SAPE  H11B 9388   0.589   4.377   7.729 -0.8561  0.1941 -1.5776
   95SAPE     P 9389   0.657   4.676   7.587 -0.3272  0.2960  0.2478
   95SAPE   O13 9390   0.521   4.670   7.525  0.3918  0.0054  0.4895
   95SAPE   O14 9391   0.680   4.765   7.694  0.1078 -0.3805  0.7694
   95SAPE   O12 9392   0.694   4.524   7.632 -0.0298 -0.5336  0.0244
   95SAPE   O11 9393   0.762   4.698   7.470 -0.7480 -0.2517  0.0657
   95SAPE    C1 9394   0.798   4.605   7.367 -0.5218 -0.2297  0.2422
   95SAPE    HA 9395   0.909   4.607   7.355 -0.4944 -1.8180 -0.0832
   95SAPE    HB 9396   0.760   4.503   7.387 -1.9378  0.0765 -0.7892
   95SAPE    C2 9397   0.743   4.663   7.241  0.6367  0.0116 -0.3713
   95SAPE    HS 9398   0.634   4.674   7.258 -0.2316 -2.2743 -3.4458
   95SAPE   O21 9399   0.769   4.571   7.129  0.4585  0.0943  0.4428
   95SAPE   C21 9400   0.707   4.459   7.123 -0.4080  0.8134 -0.0347
   95SAPE   O22 9401   0.607   4.428   7.187  0.1658  0.2611 -0.0277
   95SAPE   C22 9402   0.755   4.364   7.005  0.6144 -0.4530  0.5487
   95SAPE   H2R 9403   0.863   4.340   7.015  0.6695 -0.2479  0.4645
   95SAPE   H2S 9404   0.700   4.268   7.013  0.7703 -0.4913  1.2313
   95SAPE    C3 9405   0.797   4.800   7.200 -0.0099  0.4651  0.5318
   95SAPE    HX 9406   0.902   4.779   7.168  0.3029  0.2208  1.6572
   95SAPE    HY 9407   0.805   4.870   7.286  2.2271  1.6775 -0.5728
   95SAPE   O31 9408   0.721   4.857   7.097 -0.0547  0.2349  0.1775
   95SAPE   C31 9409   0.796   4.943   7.024  0.1816 -0.1495  0.5304
   95SAPE   O32 9410   0.906   4.982   7.058 -0.3230  0.0983  0.0133
   95SAPE   C32 9411   0.719   4.995   6.904  0.6258  0.0673 -0.4968
   95SAPE   H2X 9412   0.716   5.106   6.914 -2.6957  0.0472  0.0760
   95SAPE   H2Y 9413   0.610   4.974   6.907  0.2653  1.5703 -1.7308
   95SAPE   C23 9414   0.711   4.423   6.864 -0.1718 -0.5425  0.2183
   95SAPE   H3R 9415   0.766   4.367   6.786  2.0576 -0.3463  1.5736
   95SAPE   H3S 9416   0.736   4.531   6.852 -0.5113 -0.6542 -1.7893
   95SAPE   C24 9417   0.558   4.412   6.851 -0.2305 -0.6142 -0.2369
   95SAPE   H4R 9418   0.498   4.472   6.924  1.0026  0.5153 -0.1139
   95SAPE   H4S 9419   0.534   4.309   6.885 -0.7023 -0.7760 -1.0472
   95SAPE   C25 9420   0.503   4.444   6.715  0.2279  0.5630  0.9786
   95SAPE   H5R 9421   0.565   4.521   6.666 -0.5722 -0.4663 -1.8406
   95SAPE   C26 9422   0.401   4.388   6.644 -0.4442 -0.0569 -0.3416
   95SAPE   H6R 9423   0.387   4.438   6.547  1.2012 -0.0767 -0.6082
   95SAPE   C27 9424   0.319   4.268   6.696 -0.6463  0.2157  0.4659
   95SAPE   H7R 9425   0.271   4.291   6.794 -3.2444 -0.5909 -0.5245
   95SAPE   H7S 9426   0.381   4.176   6.701 -0.9484  0.0705  1.8720
   95SAPE   C28 9427   0.199   4.250   6.596  0.2232  0.3913 -0.0858
   95SAPE   H8R 9428   0.202   4.151   6.548  1.5606  0.7296 -0.7540
   95SAPE   C29 9429   0.102   4.341   6.565 -0.3349  0.8340  0.4107
   95SAPE   H9R 9430   0.035   4.312   6.483  0.9234 -1.1483  0.0174
   95SAPE  C210 9431   0.085   4.481   6.616 -0.8391 -0.1156 -0.3018
   95SAPE  H10R 9432   0.159   4.542   6.561 -0.5858 -1.2823 -1.2965
   95SAPE  H10S 9433   0.124   4.495   6.719 -0.4732  1.1774 -0.6018
   95SAPE  C211 9434  -0.055   4.530   6.583 -0.3607 -0.5464  0.2006
   95SAPE  H11R 9435  -0.127   4.484   6.652 -0.5327  0.2858  0.5904
   95SAPE  C212 9436  -0.106   4.620   6.501  0.1044 -0.0534 -0.0304
   95SAPE  H12R 9437  -0.210   4.653   6.516 -0.3392 -1.9599  1.6702
   95SAPE  C213 9438  -0.025   4.702   6.408  0.1375  0.0753 -0.1499
   95SAPE  H13R 9439  -0.072   4.699   6.307 -0.7317  0.2602  0.2400
   95SAPE  H13S 9440   0.080   4.670   6.388 -0.2396 -1.2317 -0.0850
   95SAPE  C214 9441  -0.011   4.846   6.456 -0.0601  0.3708  0.1421
   95SAPE  H14R 9442  -0.038   4.864   6.561  2.6121 -1.9323  1.3685
   95SAPE  C215 9443   0.040   4.956   6.384 -0.0229  0.6619 -0.1251
   95SAPE  H15R 9444   0.067   5.048   6.437  4.0894 -1.2404  1.5400
   95SAPE  C216 9445   0.096   4.947   6.245 -0.1935  0.2517 -0.0612
   95SAPE  H16R 9446   0.145   4.848   6.234  0.7529  0.5063  1.5453
   95SAPE  H16S 9447   0.162   5.026   6.205  0.8412 -1.9421 -3.0325
   95SAPE  C217 9448  -0.025   4.951   6.150  0.1975 -0.2955 -0.2051
   95SAPE  H17R 9449  -0.078   5.047   6.167  2.7368  0.8248  2.1605
   95SAPE  H17S 9450  -0.086   4.861   6.173 -1.1404  0.2835 -1.3775
   95SAPE  C218 9451   0.028   4.933   6.008  0.4130  0.0547  0.6188
   95SAPE  H18R 9452   0.091   4.841   6.006  0.9077  0.4102 -0.6362
   95SAPE  H18S 9453   0.093   5.013   5.968  0.2738 -0.4795 -0.7146
   95SAPE  C219 9454  -0.091   4.891   5.912  0.1225  0.0824 -0.2147
   95SAPE  H19R 9455  -0.173   4.881   5.986  1.4428  1.7818  1.5681
   95SAPE  H19S 9456  -0.085   4.790   5.865 -3.8313  0.3652 -1.7108
   95SAPE  C220 9457  -0.143   4.993   5.813 -0.1003 -0.6561  0.5025
   95SAPE  H20R 9458  -0.238   4.965   5.762 -0.4987 -0.9204  1.3723
   95SAPE  H20S 9459  -0.064   4.993   5.734 -0.7382 -0.2977 -0.1497
   95SAPE  H20T 9460  -0.153   5.091   5.864  0.4716  0.2846 -1.0915
   95SAPE   C33 9461   0.800   4.965   6.779  0.2924  0.5391  0.0536
   95SAPE   H3X 9462   0.906   4.997   6.784  0.3928  0.1995  0.1279
   95SAPE   H3Y 9463   0.743   5.015   6.698 -1.3686 -0.8933  0.2893
   95SAPE   C34 9464   0.797   4.816   6.734 -0.6570 -0.0711  0.4474
   95SAPE   H4X 9465   0.691   4.785   6.726 -0.1225 -2.1057  0.6864
   95SAPE   H4Y 9466   0.838   4.747   6.812 -0.0389 -0.9116 -0.5895
   95SAPE   C35 9467   0.873   4.782   6.602  0.3425 -0.4410  1.2583
   95SAPE   H5X 9468   0.983   4.786   6.619  0.2473  2.5578  1.6877
   95SAPE   H5Y 9469   0.839   4.863   6.535  1.5474 -1.4437 -0.6645
   95SAPE   C36 9470   0.829   4.639   6.551  0.2461 -0.3246 -0.9080
   95SAPE   H6X 9471   0.718   4.638   6.543  0.0330 -1.4493  1.2621
   95SAPE   H6Y 9472   0.849   4.556   6.622 -0.0367 -0.6019 -1.1498
   95SAPE   C37 9473   0.894   4.603   6.425 -0.4507  0.5592  0.0139
   95SAPE   H7X 9474   1.003   4.586   6.439 -0.7849 -1.8463  0.1679
   95SAPE   H7Y 9475   0.878   4.692   6.361  0.9486  0.4233 -0.5573
   95SAPE   C38 9476   0.827   4.479   6.356  0.6436  0.6477  0.2991
   95SAPE   H8X 9477   0.718   4.495   6.342  0.4189  0.7735  2.0263
   95SAPE   H8Y 9478   0.849   4.387   6.414  2.9907  1.5137  0.8948
   95SAPE   C39 9479   0.887   4.460   6.213 -0.0838  0.0109 -0.2041
   95SAPE   H9X 9480   0.887   4.559   6.163  1.4371  0.6871  1.0703
   95SAPE   H9Y 9481   0.822   4.390   6.155  0.3766  0.5650 -1.4225
   95SAPE  C310 9482   1.027   4.399   6.219  0.3864  0.2466 -0.2089
   95SAPE  H10X 9483   1.017   4.293   6.250 -0.2489  0.6669  1.1183
   95SAPE  H10Y 9484   1.085   4.460   6.292 -1.2655  6.1525 -3.2156
   95SAPE  C311 9485   1.097   4.409   6.079  0.3026  0.1583  0.1591
   95SAPE  H11X 9486   1.064   4.510   6.046  0.2463  0.8955  2.3180
   95SAPE  H11Y 9487   1.047   4.334   6.014 -0.9536 -0.0203  1.2919
   95SAPE  C312 9488   1.252   4.389   6.088  0.8692 -0.2287  0.5762
   95SAPE  H12X 9489   1.268   4.291   6.138  0.1795  0.5646  2.4642
   95SAPE  H12Y 9490   1.291   4.466   6.158 -0.1359  3.2814 -2.3948
   95SAPE  C313 9491   1.320   4.404   5.952 -1.0736 -0.2576  0.6471
   95SAPE  H13X 9492   1.428   4.378   5.964 -0.8046 -1.5897 -3.3514
   95SAPE  H13Y 9493   1.341   4.508   5.917  2.8681 -0.7986  0.8835
   95SAPE  C314 9494   1.257   4.320   5.848  0.6646 -0.6043  0.5882
   95SAPE  H14X 9495   1.161   4.362   5.811  1.7138  0.8473 -0.5923
   95SAPE  H14Y 9496   1.232   4.221   5.892  0.4204 -0.1223  1.5511
   95SAPE  C315 9497   1.343   4.316   5.721  0.3293  0.3252  0.3452
   95SAPE  H15X 9498   1.431   4.251   5.741 -1.1629 -1.2974  2.0737
   95SAPE  H15Y 9499   1.376   4.421   5.702 -1.3158  0.8843  0.4477
   95SAPE  C316 9500   1.258   4.263   5.604 -0.1634 -0.2091  0.3798
   95SAPE  H16X 9501   1.327   4.270   5.516  1.1314 -0.2519  1.3653
   95SAPE  H16Y 9502   1.170   4.332   5.601 -0.0452  0.1031  2.6520
   95SAPE  C317 9503   1.203   4.119   5.615 -0.3044  0.3218  0.7837
   95SAPE  H17X 9504   1.100   4.133   5.654 -1.9022 -0.0895 -2.8560
   95SAPE  H17Y 9505   1.265   4.070   5.694 -1.8164 -2.2493  0.4966
   95SAPE  C318 9506   1.201   4.034   5.482 -0.1319 -0.3609 -0.4319
   95SAPE  H18X 9507   1.145   4.088   5.403 -0.3993 -1.2076 -0.8271
   95SAPE  H18Y 9508   1.133   3.948   5.498  0.6584 -0.9988 -0.4094
   95SAPE  H18Z 9509   1.301   3.990   5.463  1.7024  2.4226  1.8883
   96SAPE     N 9510   6.546   0.450   7.573  0.0917 -0.2786 -0.1886
   96SAPE   HN1 9511   6.500   0.513   7.504 -0.2620  1.3174  1.4062
   96SAPE   HN2 9512   6.478   0.378   7.603  0.4605 -0.7537 -0.4826
   96SAPE   HN3 9513   6.555   0.516   7.653 -2.7042 -1.1493  1.0006
   96SAPE   C12 9514   6.679   0.399   7.524 -0.3190  0.2634  0.2656
   96SAPE  H12A 9515   6.660   0.329   7.439  0.6282  1.1323 -0.6946
   96SAPE  H12B 9516   6.720   0.341   7.609 -1.3103 -0.5758  0.2044
   96SAPE   C11 9517   6.774   0.515   7.479 -0.3092  0.2660  0.3252
   96SAPE  H11A 9518   6.727   0.572   7.397  2.2163 -0.6519 -1.8997
   96SAPE  H11B 9519   6.873   0.474   7.449  0.0657  1.3894 -0.0200
   96SAPE     P 9520   6.930   0.679   7.615 -0.1260 -0.0660  0.2943
   96SAPE   O13 9521   6.910   0.805   7.692  0.3016  0.0753  0.6317
   96SAPE   O14 9522   7.025   0.585   7.681 -0.0413  0.0439 -0.5475
   96SAPE   O12 9523   6.794   0.599   7.591  0.1946  0.1072  0.5193
   96SAPE   O11 9524   6.980   0.710   7.470  0.5977  0.1161  0.2019
   96SAPE    C1 9525   6.916   0.810   7.390  0.0870  0.1961  0.0406
   96SAPE    HA 9526   6.806   0.793   7.385  0.3467 -1.4520 -0.2908
   96SAPE    HB 9527   6.931   0.913   7.430  3.1756  0.1407 -0.7216
   96SAPE    C2 9528   6.967   0.799   7.244 -0.0423 -0.1706  0.0634
   96SAPE    HS 9529   7.074   0.821   7.263 -0.4904  0.1307  2.7063
   96SAPE   O21 9530   6.908   0.892   7.151 -0.3801 -0.1601 -0.3891
   96SAPE   C21 9531   6.959   1.020   7.162 -0.6048  0.4780  0.9072
   96SAPE   O22 9532   7.052   1.049   7.236 -0.5661  0.3939 -0.1261
   96SAPE   C22 9533   6.885   1.115   7.069 -0.5119  0.1857  0.5392
   96SAPE   H2R 9534   6.860   1.208   7.125  2.4483  1.7562 -0.5455
   96SAPE   H2S 9535   6.955   1.143   6.987 -0.6425  0.3313  0.4765
   96SAPE    C3 9536   6.961   0.654   7.186  0.4223 -0.3264  0.0840
   96SAPE    HX 9537   6.857   0.617   7.171  0.5639 -0.6890 -0.0062
   96SAPE    HY 9538   7.006   0.593   7.267  0.3287  1.6671  1.7389
   96SAPE   O31 9539   7.037   0.633   7.066 -0.3785  0.2537 -0.2584
   96SAPE   C31 9540   6.982   0.622   6.948  0.1205 -0.3359  0.2814
   96SAPE   O32 9541   6.860   0.611   6.926 -0.9166 -0.1718 -0.1057
   96SAPE   C32 9542   7.089   0.612   6.833  0.3435 -0.2831  0.1293
   96SAPE   H2X 9543   7.073   0.519   6.774  0.6889 -0.5056  0.3762
   96SAPE   H2Y 9544   7.193   0.621   6.873  0.5250  1.5014 -0.6606
   96SAPE   C23 9545   6.752   1.059   7.013  0.5346  0.1922 -0.1970
   96SAPE   H3R 9546   6.705   1.006   7.098 -0.5165  1.2578 -0.0984
   96SAPE   H3S 9547   6.770   0.980   6.937 -0.8145  1.0384 -1.4379
   96SAPE   C24 9548   6.667   1.172   6.948  0.5942  0.2964  0.0279
   96SAPE   H4R 9549   6.638   1.244   7.028 -1.3012  1.1416 -1.3470
   96SAPE   H4S 9550   6.577   1.119   6.909  2.7843 -1.5372 -2.9584
   96SAPE   C25 9551   6.732   1.237   6.831 -0.3073 -0.7170 -0.4616
   96SAPE   H5R 9552   6.801   1.316   6.866 -0.0328 -2.2435  2.7370
   96SAPE   C26 9553   6.735   1.206   6.698 -0.4036 -0.9137 -0.1164
   96SAPE   H6R 9554   6.776   1.284   6.632 -0.3505  0.5217  1.5489
   96SAPE   C27 9555   6.650   1.097   6.632  0.0444  1.1477 -0.1197
   96SAPE   H7R 9556   6.568   1.135   6.569 -0.3986  1.6923  0.7635
   96SAPE   H7S 9557   6.593   1.040   6.708  0.5052  0.1513 -0.5032
   96SAPE   C28 9558   6.743   0.994   6.571 -0.4539 -0.6812  0.2901
   96SAPE   H8R 9559   6.760   0.902   6.629  0.6315 -1.4134 -1.1201
   96SAPE   C29 9560   6.806   1.007   6.451 -0.4593 -0.3673 -0.5758
   96SAPE   H9R 9561   6.871   0.929   6.409  1.2466  0.1981  0.8948
   96SAPE  C210 9562   6.789   1.133   6.364 -0.6432  0.0554  0.4840
   96SAPE  H10R 9563   6.881   1.154   6.305  0.1983 -0.7143  1.4857
   96SAPE  H10S 9564   6.773   1.227   6.421 -0.6521 -0.5495  1.5026
   96SAPE  C211 9565   6.676   1.116   6.269  0.5642 -0.8215 -0.0918
   96SAPE  H11R 9566   6.576   1.118   6.315  0.3588 -1.6766 -0.4788
   96SAPE  C212 9567   6.679   1.112   6.132  0.0891 -0.4204 -0.2346
   96SAPE  H12R 9568   6.578   1.094   6.092  0.3469  1.9215 -2.2027
   96SAPE  C213 9569   6.798   1.122   6.043  0.1612  0.1032  0.4703
   96SAPE  H13R 9570   6.780   1.063   5.950  2.1311 -1.5735  1.0526
   96SAPE  H13S 9571   6.892   1.092   6.095  1.1123  2.1153  0.0087
   96SAPE  C214 9572   6.817   1.262   6.002  0.3095 -0.6207  0.7174
   96SAPE  H14R 9573   6.736   1.334   6.020  0.5064  0.8011 -3.1616
   96SAPE  C215 9574   6.917   1.313   5.923 -0.3477  0.0102 -0.9452
   96SAPE  H15R 9575   6.925   1.419   5.895 -0.9262  0.9709  2.1973
   96SAPE  C216 9576   7.034   1.226   5.879  0.2658  0.1570 -0.4525
   96SAPE  H16R 9577   7.047   1.133   5.939  2.4448 -0.2213 -1.4219
   96SAPE  H16S 9578   7.125   1.288   5.888  0.7889 -0.8684  2.1967
   96SAPE  C217 9579   7.024   1.173   5.733  0.4100  0.6731  0.2048
   96SAPE  H17R 9580   6.920   1.133   5.734  0.7740 -0.3697 -0.9484
   96SAPE  H17S 9581   7.096   1.098   5.694 -0.4951 -0.1793  0.1148
   96SAPE  C218 9582   7.017   1.288   5.633  0.5330 -0.2483 -0.1201
   96SAPE  H18R 9583   7.098   1.361   5.656 -1.5959  2.3261 -0.3745
   96SAPE  H18S 9584   6.915   1.331   5.638  0.5891  0.1092 -1.6701
   96SAPE  C219 9585   7.023   1.241   5.492 -0.2535 -0.4386  0.0085
   96SAPE  H19R 9586   7.045   1.132   5.491 -0.7183 -0.5944 -3.2510
   96SAPE  H19S 9587   7.109   1.286   5.439 -0.4653 -0.6326 -0.5053
   96SAPE  C220 9588   6.896   1.265   5.414  0.6292 -0.8093  0.0234
   96SAPE  H20R 9589   6.900   1.233   5.307  0.4242  1.7874 -0.8346
   96SAPE  H20S 9590   6.867   1.372   5.420  0.8935 -0.7849  1.0414
   96SAPE  H20T 9591   6.816   1.201   5.458 -0.0637 -0.4808 -0.7225
   96SAPE   C33 9592   7.060   0.728   6.735  0.2105 -0.7578  0.1516
   96SAPE   H3X 9593   6.955   0.763   6.743  0.1869 -0.8547  0.2679
   96SAPE   H3Y 9594   7.070   0.697   6.629  2.3484  1.9092 -0.5460
   96SAPE   C34 9595   7.147   0.855   6.750 -0.3511  0.1963 -0.0200
   96SAPE   H4X 9596   7.253   0.820   6.747  0.0744  1.3677  0.7679
   96SAPE   H4Y 9597   7.130   0.905   6.848  0.8297  2.0042 -0.6876
   96SAPE   C35 9598   7.133   0.974   6.655 -0.0155 -0.1321  0.3759
   96SAPE   H5X 9599   7.216   1.039   6.689  0.0223 -2.0229  4.6268
   96SAPE   H5Y 9600   7.031   1.018   6.668 -1.0851 -1.4961 -2.6988
   96SAPE   C36 9601   7.156   0.941   6.508 -0.3624 -0.0550  0.1936
   96SAPE   H6X 9602   7.070   0.886   6.464 -2.2247  1.0882  2.1871
   96SAPE   H6Y 9603   7.240   0.868   6.502 -2.3703 -2.5288  0.4105
   96SAPE   C37 9604   7.178   1.063   6.425  0.6871  0.3265  0.3867
   96SAPE   H7X 9605   7.247   1.125   6.486  0.9002  0.0178  0.4632
   96SAPE   H7Y 9606   7.085   1.123   6.417  1.1925  1.2245  1.1304
   96SAPE   C38 9607   7.249   1.035   6.290 -0.6584  0.6943 -0.0379
   96SAPE   H8X 9608   7.180   0.966   6.236 -1.8747  0.8291  1.2668
   96SAPE   H8Y 9609   7.338   0.970   6.304 -1.4748 -0.5867 -0.5182
   96SAPE   C39 9610   7.294   1.166   6.221 -0.6700  0.2402  0.1213
   96SAPE   H9X 9611   7.371   1.221   6.279  0.2893  0.6094 -1.4494
   96SAPE   H9Y 9612   7.207   1.236   6.221 -3.1927 -2.6386  1.8081
   96SAPE  C310 9613   7.345   1.151   6.075  0.2598 -0.0071  0.2509
   96SAPE  H10X 9614   7.387   1.245   6.035 -0.7124 -0.9845 -3.5160
   96SAPE  H10Y 9615   7.272   1.105   6.004 -0.2622  1.0758  0.0686
   96SAPE  C311 9616   7.464   1.059   6.066  0.3588  0.4061  0.5009
   96SAPE  H11X 9617   7.418   0.961   6.092 -1.6095  1.4204  1.0270
   96SAPE  H11Y 9618   7.539   1.091   6.142  2.6629  0.5772 -1.7352
   96SAPE  C312 9619   7.524   1.044   5.923 -0.4332 -0.8304 -0.2332
   96SAPE  H12X 9620   7.568   1.142   5.894 -0.9226 -0.0215  1.6155
   96SAPE  H12Y 9621   7.440   1.030   5.852 -0.2231 -1.1986 -0.4046
   96SAPE  C313 9622   7.633   0.932   5.908 -0.3368  0.4637 -0.0330
   96SAPE  H13X 9623   7.588   0.835   5.939 -0.9796  0.1314 -1.8207
   96SAPE  H13Y 9624   7.710   0.947   5.986  0.3130  0.9888 -0.7571
   96SAPE  C314 9625   7.696   0.933   5.766  0.3661 -0.6583  0.3294
   96SAPE  H14X 9626   7.736   1.033   5.742 -0.2315 -0.3660  0.5355
   96SAPE  H14Y 9627   7.621   0.896   5.692  0.1972 -0.2837  0.3124
   96SAPE  C315 9628   7.813   0.838   5.755  0.0886 -0.3073 -0.6156
   96SAPE  H15X 9629   7.794   0.732   5.784  1.5232 -0.4891 -0.2811
   96SAPE  H15Y 9630   7.895   0.870   5.822 -1.2102  0.8827  0.4824
   96SAPE  C316 9631   7.879   0.838   5.617 -0.2936  0.3363  0.4704
   96SAPE  H16X 9632   7.792   0.823   5.549  1.2520 -1.3471 -1.2440
   96SAPE  H16Y 9633   7.951   0.755   5.600 -1.5258 -0.5124 -0.9188
   96SAPE  C317 9634   7.950   0.967   5.573 -0.0124 -0.7136  0.0093
   96SAPE  H17X 9635   8.015   0.999   5.657 -0.2869 -2.1105  0.7787
   96SAPE  H17Y 9636   7.873   1.046   5.561 -0.5492 -1.4509 -1.7692
   96SAPE  C318 9637   8.015   0.969   5.437 -0.9365 -0.0473 -0.3635
   96SAPE  H18X 9638   8.104   1.035   5.443  0.6312 -2.0483 -0.5960
   96SAPE  H18Y 9639   7.947   1.007   5.357 -0.6944 -0.9159 -1.0024
   96SAPE  H18Z 9640   8.041   0.862   5.417  0.2943  0.3669 -1.0878
   97SAPE     N 9641   5.585   3.897   7.373 -0.2963  0.2415  0.3549
   97SAPE   HN1 9642   5.497   3.952   7.376 -0.8651 -0.6758  0.8105
   97SAPE   HN2 9643   5.604   3.872   7.472 -1.3539 -1.7586  0.0916
   97SAPE   HN3 9644   5.664   3.959   7.344  0.3147 -0.4923  0.4043
   97SAPE   C12 9645   5.573   3.769   7.296 -0.2056 -0.3227 -0.1939
   97SAPE  H12A 9646   5.512   3.784   7.205 -0.6632 -2.1747 -0.2398
   97SAPE  H12B 9647   5.525   3.693   7.362  0.0395  0.4046  0.8503
   97SAPE   C11 9648   5.715   3.720   7.264 -0.1813 -0.6006 -0.0107
   97SAPE  H11A 9649   5.692   3.633   7.199 -2.4435  1.1041 -1.6655
   97SAPE  H11B 9650   5.768   3.698   7.359  1.2711  2.2891 -0.0503
   97SAPE     P 9651   5.947   3.843   7.227  0.4277  0.3373  0.1795
   97SAPE   O13 9652   5.992   3.956   7.139 -0.5041 -0.0366  0.2833
   97SAPE   O14 9653   5.967   3.859   7.375  0.4409  0.5640 -0.0747
   97SAPE   O12 9654   5.790   3.824   7.198  0.1528  0.7703  0.1763
   97SAPE   O11 9655   6.006   3.705   7.168 -0.4577  0.4672  0.7158
   97SAPE    C1 9656   5.999   3.691   7.023 -0.2068 -0.0304 -0.0462
   97SAPE    HA 9657   5.907   3.738   6.980 -0.2963 -1.2879 -1.2923
   97SAPE    HB 9658   6.081   3.751   6.977  0.6370 -2.6905 -2.2813
   97SAPE    C2 9659   6.022   3.543   6.984 -0.0910 -1.3053 -0.4230
   97SAPE    HS 9660   6.113   3.500   7.032 -0.5312 -1.8685 -0.0796
   97SAPE   O21 9661   6.039   3.538   6.837 -0.1219 -0.4705 -0.1979
   97SAPE   C21 9662   6.165   3.558   6.798  0.7990 -0.2795  0.1009
   97SAPE   O22 9663   6.255   3.590   6.869  0.3845 -0.0330 -0.1734
   97SAPE   C22 9664   6.151   3.541   6.648  0.1911  0.0521 -0.2049
   97SAPE   H2R 9665   6.107   3.447   6.610 -3.6017  2.1015 -1.3919
   97SAPE   H2S 9666   6.079   3.620   6.616  1.6337  0.3827 -2.9725
   97SAPE    C3 9667   5.908   3.458   7.036  0.1539  0.1764 -0.8551
   97SAPE    HX 9668   5.812   3.492   6.992  1.0971  3.8625 -0.4170
   97SAPE    HY 9669   5.892   3.469   7.146  2.4826  1.0770 -0.5461
   97SAPE   O31 9670   5.928   3.324   7.007  0.2945 -0.3452  0.9182
   97SAPE   C31 9671   5.998   3.248   7.090  0.4945  0.1743  0.1619
   97SAPE   O32 9672   6.057   3.291   7.190  0.3709 -0.4881 -0.1256
   97SAPE   C32 9673   6.013   3.105   7.030 -0.4697  0.0016 -0.2947
   97SAPE   H2X 9674   5.915   3.061   7.000  0.1770 -2.0144  0.3576
   97SAPE   H2Y 9675   6.037   3.052   7.125  1.1370  1.9261  0.4496
   97SAPE   C23 9676   6.280   3.578   6.572  0.1315  0.2616 -0.9232
   97SAPE   H3R 9677   6.360   3.503   6.589  0.9468  1.3934  0.4926
   97SAPE   H3S 9678   6.311   3.681   6.601 -1.7473  0.3309  1.0867
   97SAPE   C24 9679   6.276   3.569   6.416 -0.4733  0.5514 -0.0248
   97SAPE   H4R 9680   6.217   3.480   6.387 -1.3305  1.1058 -0.0331
   97SAPE   H4S 9681   6.382   3.554   6.388 -0.8895  1.4514 -2.3030
   97SAPE   C25 9682   6.236   3.694   6.343 -0.1402  0.1615 -0.4237
   97SAPE   H5R 9683   6.274   3.786   6.390 -1.2504  1.1772 -1.4438
   97SAPE   C26 9684   6.167   3.706   6.230 -0.4030 -0.7950 -1.0116
   97SAPE   H6R 9685   6.142   3.804   6.187  1.1722 -0.1075 -0.4174
   97SAPE   C27 9686   6.104   3.589   6.160  0.2568 -0.3524 -0.4481
   97SAPE   H7R 9687   6.069   3.520   6.239  2.5433 -0.9144  0.1521
   97SAPE   H7S 9688   6.181   3.533   6.103  0.9164 -1.1366  1.1490
   97SAPE   C28 9689   5.985   3.615   6.063 -1.0142 -0.4317  0.3019
   97SAPE   H8R 9690   5.885   3.594   6.103 -2.0104  0.6935 -1.4800
   97SAPE   C29 9691   5.994   3.660   5.938 -0.1118  0.1906  0.4498
   97SAPE   H9R 9692   5.900   3.657   5.881 -0.5533  1.0665  1.1069
   97SAPE  C210 9693   6.114   3.699   5.850 -0.3663  0.3300 -0.6489
   97SAPE  H10R 9694   6.197   3.717   5.921 -0.4962 -1.1384 -0.0920
   97SAPE  H10S 9695   6.096   3.799   5.805  0.5628  1.4694  1.4048
   97SAPE  C211 9696   6.149   3.599   5.748 -0.3757  0.1381  0.2269
   97SAPE  H11R 9697   6.137   3.494   5.779  1.3979 -0.2162 -0.1568
   97SAPE  C212 9698   6.198   3.616   5.620  0.1992  0.2091 -0.7095
   97SAPE  H12R 9699   6.217   3.525   5.561  0.7104 -0.4716  0.4727
   97SAPE  C213 9700   6.229   3.744   5.548 -0.6911 -0.1861  0.2585
   97SAPE  H13R 9701   6.222   3.828   5.621 -2.2853 -1.2101  1.3522
   97SAPE  H13S 9702   6.159   3.749   5.462 -0.1512  1.4672 -0.1321
   97SAPE  C214 9703   6.375   3.737   5.505  0.3075 -0.0189 -0.2576
   97SAPE  H14R 9704   6.440   3.800   5.567 -2.4054  2.4236  0.3219
   97SAPE  C215 9705   6.429   3.652   5.420 -0.3386 -0.1051 -1.0431
   97SAPE  H15R 9706   6.536   3.679   5.413 -1.1383  4.3167  0.1276
   97SAPE  C216 9707   6.363   3.561   5.325  0.6001  0.9352  0.2506
   97SAPE  H16R 9708   6.357   3.609   5.225  1.1846 -0.5569 -0.5338
   97SAPE  H16S 9709   6.256   3.536   5.345  0.6117 -0.0009 -0.7955
   97SAPE  C217 9710   6.446   3.427   5.302  0.1734 -0.1295 -0.6597
   97SAPE  H17R 9711   6.458   3.383   5.404  0.5914 -0.7816 -0.9844
   97SAPE  H17S 9712   6.550   3.458   5.278 -0.3099  1.3159 -0.9714
   97SAPE  C218 9713   6.378   3.336   5.210 -0.3438 -0.2448 -0.5093
   97SAPE  H18R 9714   6.371   3.395   5.115  1.3175 -1.2005 -1.2699
   97SAPE  H18S 9715   6.271   3.310   5.229 -1.3443  3.7942  0.3689
   97SAPE  C219 9716   6.457   3.215   5.169 -0.4691 -0.1677 -0.3193
   97SAPE  H19R 9717   6.558   3.235   5.126 -1.4097 -1.2549 -3.1990
   97SAPE  H19S 9718   6.412   3.173   5.077  0.8982 -2.3198 -0.0722
   97SAPE  C220 9719   6.462   3.098   5.279  1.0735  0.6516  0.1134
   97SAPE  H20R 9720   6.493   2.994   5.255  0.7260  0.0106  2.2608
   97SAPE  H20S 9721   6.359   3.091   5.320  1.2927  1.8570  0.9373
   97SAPE  H20T 9722   6.534   3.127   5.358 -0.3823 -0.7127  2.0333
   97SAPE   C33 9723   6.128   3.109   6.926  0.2197 -0.8255  0.7272
   97SAPE   H3X 9724   6.197   3.022   6.937 -1.2710 -2.2701 -0.8198
   97SAPE   H3Y 9725   6.199   3.194   6.937  1.6963 -1.7578 -1.0178
   97SAPE   C34 9726   6.079   3.120   6.781 -0.5662  0.0366 -0.1551
   97SAPE   H4X 9727   6.005   3.204   6.781  2.1204  2.5884  0.6352
   97SAPE   H4Y 9728   6.027   3.031   6.740  0.7004 -0.7547 -0.0914
   97SAPE   C35 9729   6.203   3.138   6.688  0.6864 -0.2936 -0.0326
   97SAPE   H5X 9730   6.264   3.050   6.717  1.2122 -0.2361 -0.9415
   97SAPE   H5Y 9731   6.262   3.228   6.718  1.5740 -1.6347  2.5916
   97SAPE   C36 9732   6.178   3.151   6.543 -0.1584 -0.2432 -0.3222
   97SAPE   H6X 9733   6.109   3.236   6.527 -0.8807 -0.4350  1.5333
   97SAPE   H6Y 9734   6.135   3.058   6.500 -1.8379  0.5807 -0.4993
   97SAPE   C37 9735   6.302   3.187   6.460 -0.1914  0.4322 -0.4239
   97SAPE   H7X 9736   6.392   3.128   6.486 -1.3892 -0.9199  0.8453
   97SAPE   H7Y 9737   6.321   3.294   6.485  2.1472  0.4968 -2.1314
   97SAPE   C38 9738   6.280   3.175   6.306  0.5555  0.1959  0.3090
   97SAPE   H8X 9739   6.193   3.238   6.277  1.6771  2.3077  1.2888
   97SAPE   H8Y 9740   6.256   3.067   6.292  2.7094 -0.3981  0.7975
   97SAPE   C39 9741   6.398   3.206   6.213  0.4300 -0.4774 -0.5721
   97SAPE   H9X 9742   6.451   3.112   6.185  0.0726 -1.4627  1.8171
   97SAPE   H9Y 9743   6.475   3.260   6.272  0.4078 -0.0953 -0.8878
   97SAPE  C310 9744   6.362   3.287   6.090  0.4205 -0.6648 -0.5573
   97SAPE  H10X 9745   6.313   3.380   6.127 -1.3103 -2.4996  2.0847
   97SAPE  H10Y 9746   6.282   3.235   6.033 -0.7170  1.7070 -1.2657
   97SAPE  C311 9747   6.480   3.321   5.988  0.3873  0.4875  0.7178
   97SAPE  H11X 9748   6.530   3.231   5.948 -2.2937 -0.0566 -1.7679
   97SAPE  H11Y 9749   6.557   3.387   6.033  0.4873  1.1129 -0.3310
   97SAPE  C312 9750   6.435   3.396   5.865  0.3247  0.4815 -0.5389
   97SAPE  H12X 9751   6.387   3.496   5.874  0.5589  0.6305 -0.9335
   97SAPE  H12Y 9752   6.368   3.344   5.795  2.3400  0.0292 -2.2294
   97SAPE  C313 9753   6.556   3.436   5.779  0.5515  0.4926  0.2349
   97SAPE  H13X 9754   6.644   3.461   5.842  1.0200  0.9803 -0.5948
   97SAPE  H13Y 9755   6.524   3.518   5.712 -0.5474  0.4710  0.7069
   97SAPE  C314 9756   6.609   3.334   5.678  0.0871 -0.4485 -0.4208
   97SAPE  H14X 9757   6.527   3.283   5.621 -0.0447 -2.2881  1.3080
   97SAPE  H14Y 9758   6.665   3.256   5.734 -0.2483 -1.0278 -0.8744
   97SAPE  C315 9759   6.711   3.395   5.584 -0.3720 -1.1836  0.4822
   97SAPE  H15X 9760   6.789   3.427   5.657 -1.3465 -0.4899  1.2412
   97SAPE  H15Y 9761   6.663   3.486   5.541 -0.5478 -0.3844  2.2967
   97SAPE  C316 9762   6.762   3.311   5.474 -0.4988 -0.8700 -0.4875
   97SAPE  H16X 9763   6.681   3.270   5.410 -1.9702  0.9373  0.1076
   97SAPE  H16Y 9764   6.816   3.229   5.527  1.0871  1.0898  1.1334
   97SAPE  C317 9765   6.862   3.380   5.384  0.0761  0.0313 -0.0324
   97SAPE  H17X 9766   6.964   3.367   5.426  0.0993 -2.3575 -0.6654
   97SAPE  H17Y 9767   6.822   3.483   5.375 -3.1397 -1.1605 -0.7944
   97SAPE  C318 9768   6.871   3.328   5.243  0.4174  0.3544 -0.2042
   97SAPE  H18X 9769   6.926   3.390   5.169  0.7577  0.7623  0.3771
   97SAPE  H18Y 9770   6.773   3.333   5.192 -1.1459  2.8484  2.6916
   97SAPE  H18Z 9771   6.897   3.220   5.239 -1.0703 -0.1699  2.2492
   98SAPE     N 9772   5.449   1.444   7.290 -0.3455  0.2902 -0.2515
   98SAPE   HN1 9773   5.516   1.518   7.319 -2.1697  1.0892  2.2598
   98SAPE   HN2 9774   5.374   1.461   7.359  1.3760  2.0536  1.3033
   98SAPE   HN3 9775   5.496   1.355   7.316  1.0533  1.7281  2.6436
   98SAPE   C12 9776   5.370   1.472   7.158  0.0479 -0.1384  0.0596
   98SAPE  H12A 9777   5.442   1.453   7.077  0.0599  0.1127  0.0118
   98SAPE  H12B 9778   5.345   1.581   7.154  1.7202  0.2253 -3.4920
   98SAPE   C11 9779   5.249   1.379   7.158 -0.1065  0.4693  0.6185
   98SAPE  H11A 9780   5.298   1.280   7.158 -0.0499  0.4911  1.1859
   98SAPE  H11B 9781   5.192   1.397   7.064  1.0963 -0.2928 -0.2836
   98SAPE     P 9782   5.046   1.284   7.298 -0.5137 -0.1190 -0.0663
   98SAPE   O13 9783   5.079   1.222   7.429  0.0680 -0.2422 -0.4611
   98SAPE   O14 9784   4.917   1.353   7.303  0.1517 -0.6159  0.0500
   98SAPE   O12 9785   5.161   1.402   7.272  0.7267 -0.1170  0.8147
   98SAPE   O11 9786   5.048   1.178   7.179  0.6933 -0.2962  0.5661
   98SAPE    C1 9787   4.956   1.215   7.073 -0.2469  0.6729 -0.3164
   98SAPE    HA 9788   4.851   1.229   7.108 -0.4897  0.9030 -1.1202
   98SAPE    HB 9789   4.984   1.311   7.025 -0.1723  1.4466  1.2215
   98SAPE    C2 9790   4.969   1.111   6.963  0.4821  0.4171 -1.1763
   98SAPE    HS 9791   5.021   1.019   6.998 -1.1084  0.8611  2.7650
   98SAPE   O21 9792   5.027   1.166   6.848 -0.0443 -0.7837 -0.1030
   98SAPE   C21 9793   5.163   1.178   6.853  0.3922 -0.1117 -0.1182
   98SAPE   O22 9794   5.237   1.142   6.942  0.1872  0.0195  0.4134
   98SAPE   C22 9795   5.190   1.273   6.737  0.0016 -0.0056  0.9698
   98SAPE   H2R 9796   5.112   1.250   6.662 -2.6441  0.3488  3.4674
   98SAPE   H2S 9797   5.187   1.380   6.766  0.0588 -0.0918  1.2983
   98SAPE    C3 9798   4.824   1.063   6.930 -0.2648  0.9389  0.9188
   98SAPE    HX 9799   4.774   1.151   6.884  0.0120 -0.2281 -1.8118
   98SAPE    HY 9800   4.772   1.038   7.025  1.6441 -1.0453  1.5207
   98SAPE   O31 9801   4.814   0.957   6.823 -0.6460  0.6990  0.1395
   98SAPE   C31 9802   4.847   0.832   6.864  0.7440  0.5437  0.4255
   98SAPE   O32 9803   4.840   0.792   6.978  0.2980 -0.0275 -0.0665
   98SAPE   C32 9804   4.881   0.736   6.752 -0.3733  0.4815  0.6059
   98SAPE   H2X 9805   4.829   0.638   6.764  1.4969 -0.6025  0.2510
   98SAPE   H2Y 9806   4.989   0.714   6.767 -0.0288 -0.2396 -2.3393
   98SAPE   C23 9807   5.330   1.258   6.678 -0.4800  0.8941  0.6419
   98SAPE   H3R 9808   5.370   1.155   6.665 -1.8464  0.6397 -2.6500
   98SAPE   H3S 9809   5.400   1.314   6.744 -0.0193  0.6434  0.3778
   98SAPE   C24 9810   5.355   1.338   6.550  0.7399  0.7789 -0.4948
   98SAPE   H4R 9811   5.380   1.445   6.568  0.1293  1.0355 -1.1336
   98SAPE   H4S 9812   5.256   1.335   6.500  1.3103 -2.3918 -1.6637
   98SAPE   C25 9813   5.463   1.293   6.452  0.7964 -0.2130  0.0115
   98SAPE   H5R 9814   5.564   1.320   6.486 -0.5151  0.6538  3.6536
   98SAPE   C26 9815   5.447   1.219   6.339  0.3214 -0.4662 -0.8571
   98SAPE   H6R 9816   5.535   1.187   6.282  2.2957  2.4237  0.3255
   98SAPE   C27 9817   5.313   1.163   6.298 -0.3885 -0.7891 -0.1749
   98SAPE   H7R 9818   5.248   1.249   6.269  1.1380  1.0712  1.5694
   98SAPE   H7S 9819   5.257   1.108   6.377  0.2615  1.3899  1.9358
   98SAPE   C28 9820   5.336   1.071   6.184 -0.9736 -0.3561  0.0024
   98SAPE   H8R 9821   5.357   0.965   6.205 -0.6702 -0.8750 -2.6216
   98SAPE   C29 9822   5.362   1.112   6.058 -0.3273  0.0852 -0.1346
   98SAPE   H9R 9823   5.384   1.037   5.981 -1.4735 -0.6181  0.1866
   98SAPE  C210 9824   5.342   1.254   6.007  0.3078 -0.5496  0.1752
   98SAPE  H10R 9825   5.320   1.329   6.086  2.0680 -1.0101  1.1545
   98SAPE  H10S 9826   5.249   1.252   5.945 -0.0822 -1.0892  0.7669
   98SAPE  C211 9827   5.452   1.313   5.920  0.1169  0.1349 -0.6926
   98SAPE  H11R 9828   5.529   1.366   5.979 -1.2445 -0.0941  1.4105
   98SAPE  C212 9829   5.462   1.300   5.785 -0.2834 -0.0981 -0.4322
   98SAPE  H12R 9830   5.557   1.329   5.739  2.0015 -2.0756  2.6615
   98SAPE  C213 9831   5.365   1.240   5.690  0.3143  1.3123 -0.0021
   98SAPE  H13R 9832   5.263   1.256   5.732 -0.3548  0.1775 -1.1157
   98SAPE  H13S 9833   5.388   1.132   5.700 -0.3463  1.0123 -1.4308
   98SAPE  C214 9834   5.379   1.284   5.547  0.4590  0.3966 -0.0575
   98SAPE  H14R 9835   5.441   1.373   5.528 -2.9873  2.7452 -1.1965
   98SAPE  C215 9836   5.302   1.241   5.442  0.0330 -0.1383 -0.7273
   98SAPE  H15R 9837   5.301   1.296   5.348 -1.5670  0.8719 -0.1545
   98SAPE  C216 9838   5.204   1.129   5.444 -0.6524 -0.3755 -1.0773
   98SAPE  H16R 9839   5.114   1.156   5.385 -1.2376  3.2467  1.1517
   98SAPE  H16S 9840   5.163   1.121   5.548  3.1026 -0.0791  0.5826
   98SAPE  C217 9841   5.275   1.001   5.382 -0.0792 -0.0708  0.1137
   98SAPE  H17R 9842   5.329   0.932   5.450 -0.2455  1.2767  1.6723
   98SAPE  H17S 9843   5.343   1.028   5.298 -0.9088  1.9709  0.0410
   98SAPE  C218 9844   5.168   0.909   5.308  0.9824  0.1099 -0.0312
   98SAPE  H18R 9845   5.105   0.958   5.231  2.0203 -1.5830 -2.0498
   98SAPE  H18S 9846   5.099   0.869   5.385 -0.3887 -0.4597 -1.5158
   98SAPE  C219 9847   5.240   0.797   5.239  0.1712  0.6935  0.0828
   98SAPE  H19R 9848   5.323   0.758   5.301 -0.8713 -1.1344  0.3972
   98SAPE  H19S 9849   5.291   0.824   5.143  1.4742  2.2002  1.1386
   98SAPE  C220 9850   5.143   0.675   5.215  0.0533  0.0122 -0.2449
   98SAPE  H20R 9851   5.058   0.710   5.152  0.3585 -3.6547 -3.0633
   98SAPE  H20S 9852   5.113   0.644   5.317  0.0020 -0.8947 -0.5282
   98SAPE  H20T 9853   5.183   0.594   5.150  0.7407  1.2897 -1.4822
   98SAPE   C33 9854   4.865   0.790   6.608  0.1582 -0.4721 -0.4158
   98SAPE   H3X 9855   4.904   0.894   6.595  1.5594 -1.0494 -1.0099
   98SAPE   H3Y 9856   4.755   0.801   6.598  0.1449  0.8887  0.9233
   98SAPE   C34 9857   4.925   0.703   6.498 -1.0841  0.3900 -1.1423
   98SAPE   H4X 9858   4.874   0.604   6.503  2.3570 -1.5081  3.1573
   98SAPE   H4Y 9859   5.033   0.688   6.519 -1.3579  1.3913  1.3143
   98SAPE   C35 9860   4.919   0.765   6.359  0.4016  0.3905  0.6511
   98SAPE   H5X 9861   4.996   0.843   6.344  2.5033 -1.7877 -0.6199
   98SAPE   H5Y 9862   4.822   0.816   6.342  1.5493  2.0975 -1.1089
   98SAPE   C36 9863   4.907   0.662   6.240  0.2180  0.6459  0.4097
   98SAPE   H6X 9864   4.874   0.731   6.159 -1.3148  0.7163  1.0539
   98SAPE   H6Y 9865   4.831   0.584   6.262  0.1005  1.0055  1.2918
   98SAPE   C37 9866   5.041   0.584   6.209 -0.2555 -0.2250 -0.0132
   98SAPE   H7X 9867   5.092   0.541   6.298  1.5961  1.6766 -0.0667
   98SAPE   H7Y 9868   5.110   0.662   6.171 -0.2404  0.2139  0.8766
   98SAPE   C38 9869   5.038   0.482   6.093  0.2991 -0.2257 -0.3743
   98SAPE   H8X 9870   4.942   0.470   6.038 -0.0696  2.2883 -0.3976
   98SAPE   H8Y 9871   5.082   0.388   6.131  2.4260  0.0785 -1.8997
   98SAPE   C39 9872   5.145   0.514   5.987  0.4573  0.7394 -0.4729
   98SAPE   H9X 9873   5.241   0.497   6.041 -0.4132 -0.1706  0.8401
   98SAPE   H9Y 9874   5.143   0.621   5.954 -3.8597  0.7598 -0.7232
   98SAPE  C310 9875   5.150   0.416   5.873 -0.3113  0.1617 -0.6489
   98SAPE  H10X 9876   5.167   0.317   5.920 -0.7487  0.0992 -0.6207
   98SAPE  H10Y 9877   5.235   0.448   5.810 -1.7631  1.7907 -1.8927
   98SAPE  C311 9878   5.018   0.417   5.790  0.1782  0.2514  0.3238
   98SAPE  H11X 9879   4.987   0.524   5.778  0.4957  0.1069 -2.7291
   98SAPE  H11Y 9880   4.951   0.363   5.860  1.1753 -1.7330 -0.1991
   98SAPE  C312 9881   5.037   0.338   5.658  0.0917  0.2279 -0.1876
   98SAPE  H12X 9882   5.049   0.228   5.671 -0.5212  0.2548  0.6470
   98SAPE  H12Y 9883   5.130   0.376   5.609 -0.1961 -1.7938 -2.4831
   98SAPE  C313 9884   4.917   0.367   5.569 -0.5780  0.1492  0.1419
   98SAPE  H13X 9885   4.891   0.475   5.563 -1.1733  0.0328  0.4853
   98SAPE  H13Y 9886   4.831   0.323   5.623 -1.3845  0.0715 -1.1604
   98SAPE  C314 9887   4.944   0.314   5.422  0.3341  0.0376  0.5322
   98SAPE  H14X 9888   4.970   0.206   5.411 -0.6203 -0.1943  0.4374
   98SAPE  H14Y 9889   5.027   0.380   5.388 -2.0867  2.5392 -0.9328
   98SAPE  C315 9890   4.819   0.337   5.337  0.0792  0.3824 -0.8394
   98SAPE  H15X 9891   4.794   0.445   5.339  0.0519  0.3675 -0.2481
   98SAPE  H15Y 9892   4.732   0.284   5.381  2.3267 -2.1308  0.8639
   98SAPE  C316 9893   4.847   0.311   5.190 -0.2828 -0.0483 -0.1533
   98SAPE  H16X 9894   4.876   0.205   5.171  0.3653  0.2196 -0.7402
   98SAPE  H16Y 9895   4.931   0.379   5.164 -0.2612 -0.1654 -0.3979
   98SAPE  C317 9896   4.727   0.350   5.099  0.5728 -0.2027  0.1259
   98SAPE  H17X 9897   4.763   0.327   4.996 -1.3477  2.2962 -1.2186
   98SAPE  H17Y 9898   4.725   0.461   5.097 -3.1866 -0.1514 -1.3569
   98SAPE  C318 9899   4.591   0.286   5.119  0.4680 -0.0199  0.1240
   98SAPE  H18X 9900   4.598   0.177   5.138 -2.6307  0.0342  2.3795
   98SAPE  H18Y 9901   4.519   0.297   5.034 -0.2627  0.0125  0.7402
   98SAPE  H18Z 9902   4.547   0.327   5.212 -0.8654 -1.1025 -0.0009
   99SAPE     N 9903   6.340   1.955   7.635 -0.0716 -0.6920  0.0204
   99SAPE   HN1 9904   6.423   1.967   7.697 -0.1561  1.8129 -0.2568
   99SAPE   HN2 9905   6.329   2.025   7.560 -3.9187 -1.5140 -0.4064
   99SAPE   HN3 9906   6.256   1.965   7.695 -1.2432 -0.0138 -1.6614
   99SAPE   C12 9907   6.326   1.812   7.593 -0.1141  0.3965 -0.1839
   99SAPE  H12A 9908   6.232   1.816   7.534 -0.1984  0.9983 -0.0082
   99SAPE  H12B 9909   6.318   1.753   7.687  0.7451 -1.2703 -1.1080
   99SAPE   C11 9910   6.444   1.758   7.501 -0.1050 -0.0029  0.1696
   99SAPE  H11A 9911   6.425   1.650   7.482 -1.4818  0.6295 -2.5016
   99SAPE  H11B 9912   6.543   1.770   7.550  1.5562 -1.8985 -2.4250
   99SAPE     P 9913   6.372   1.777   7.249  0.2903  0.0331  0.1602
   99SAPE   O13 9914   6.417   1.867   7.142  0.2449 -0.0367 -0.2474
   99SAPE   O14 9915   6.393   1.633   7.233  0.2020 -0.1555 -0.5124
   99SAPE   O12 9916   6.443   1.827   7.379 -0.1813  0.0674  0.0631
   99SAPE   O11 9917   6.221   1.804   7.285  0.6869  0.1689  0.0433
   99SAPE    C1 9918   6.121   1.702   7.304  0.3759 -0.1543  0.5069
   99SAPE    HA 9919   6.160   1.598   7.314  1.2788  0.0642 -0.5878
   99SAPE    HB 9920   6.055   1.711   7.393  0.4613 -2.2049  0.8478
   99SAPE    C2 9921   6.038   1.693   7.172 -0.2253  0.2592 -0.6435
   99SAPE    HS 9922   5.964   1.611   7.185 -0.3149  0.6030  1.3411
   99SAPE   O21 9923   6.124   1.669   7.058  0.4943  0.0118  0.6813
   99SAPE   C21 9924   6.172   1.541   7.045 -0.0985 -0.1527 -0.3272
   99SAPE   O22 9925   6.131   1.453   7.117  0.4537  0.1179  0.3246
   99SAPE   C22 9926   6.271   1.528   6.928  0.6181  0.2569  0.7830
   99SAPE   H2R 9927   6.222   1.571   6.838  0.7578 -1.8583 -0.3669
   99SAPE   H2S 9928   6.363   1.585   6.953 -1.6092  3.8660  1.3715
   99SAPE    C3 9929   5.956   1.817   7.155  0.0488  0.4004  0.1548
   99SAPE    HX 9930   6.016   1.909   7.175 -0.4496  0.4323  1.6167
   99SAPE    HY 9931   5.876   1.828   7.232  0.0470  3.1188 -0.1220
   99SAPE   O31 9932   5.903   1.829   7.018  0.0706  0.3394  0.4710
   99SAPE   C31 9933   5.788   1.764   6.992 -0.0307  0.5552  0.2540
   99SAPE   O32 9934   5.720   1.701   7.075 -0.2088  0.1621 -0.1076
   99SAPE   C32 9935   5.755   1.780   6.846  0.1705 -0.8488  0.8249
   99SAPE   H2X 9936   5.837   1.792   6.772 -0.0455 -0.1517  0.6919
   99SAPE   H2Y 9937   5.704   1.879   6.841  2.0218  0.0995 -2.3304
   99SAPE   C23 9938   6.299   1.382   6.898  0.6188 -0.0188 -0.4063
   99SAPE   H3R 9939   6.286   1.310   6.981 -1.8988 -1.8014 -2.2079
   99SAPE   H3S 9940   6.405   1.380   6.863  0.7971  3.0770 -0.3364
   99SAPE   C24 9941   6.207   1.336   6.773  0.6314 -0.0144 -0.3418
   99SAPE   H4R 9942   6.233   1.232   6.745  0.0728 -0.2533  0.0354
   99SAPE   H4S 9943   6.222   1.404   6.686 -0.0108  0.3207 -0.2000
   99SAPE   C25 9944   6.066   1.337   6.817  0.4276 -0.0599  0.3868
   99SAPE   H5R 9945   6.038   1.337   6.923  1.3964  0.3246  0.6584
   99SAPE   C26 9946   5.970   1.348   6.721 -0.5558  0.4535  0.0071
   99SAPE   H6R 9947   5.868   1.333   6.759 -1.2451 -0.7463 -2.1284
   99SAPE   C27 9948   5.995   1.358   6.572 -0.1069 -0.4784 -1.2082
   99SAPE   H7R 9949   6.095   1.395   6.541  0.2242 -0.5860 -0.2964
   99SAPE   H7S 9950   5.925   1.430   6.525  2.7414  2.1492 -1.7391
   99SAPE   C28 9951   5.983   1.226   6.496  0.1453 -0.7518 -0.2394
   99SAPE   H8R 9952   6.028   1.141   6.550 -1.3588 -2.1545 -1.0918
   99SAPE   C29 9953   5.915   1.212   6.382 -0.1459  0.3948 -1.0250
   99SAPE   H9R 9954   5.917   1.112   6.335  0.6190 -0.8941  1.5656
   99SAPE  C210 9955   5.857   1.310   6.283  0.1625 -0.6052 -0.5652
   99SAPE  H10R 9956   5.823   1.402   6.334 -1.1503 -1.3200 -0.1174
   99SAPE  H10S 9957   5.769   1.265   6.232 -0.4747  0.0639 -0.0705
   99SAPE  C211 9958   5.947   1.360   6.178 -0.0247  0.1323  0.1613
   99SAPE  H11R 9959   5.990   1.459   6.201 -0.6834  0.0838  1.7650
   99SAPE  C212 9960   5.969   1.302   6.057  0.2391  0.0902  0.2516
   99SAPE  H12R 9961   6.045   1.359   6.001 -0.5756  2.0153  1.0092
   99SAPE  C213 9962   5.927   1.164   6.011 -0.2728  0.2904  0.5177
   99SAPE  H13R 9963   5.938   1.105   6.105 -0.6513  1.0433  1.0393
   99SAPE  H13S 9964   6.002   1.122   5.940 -0.0417  0.3236  0.7435
   99SAPE  C214 9965   5.798   1.148   5.939  0.4776 -0.3342  0.1479
   99SAPE  H14R 9966   5.707   1.147   6.001  0.8414 -0.1743  0.6910
   99SAPE  C215 9967   5.783   1.159   5.804  0.1141  0.2536 -0.5298
   99SAPE  H15R 9968   5.680   1.140   5.771 -0.8560 -1.3364  2.9566
   99SAPE  C216 9969   5.888   1.175   5.703  0.7286 -0.1582  0.8181
   99SAPE  H16R 9970   5.937   1.076   5.691  2.2841  0.5218  1.2226
   99SAPE  H16S 9971   5.958   1.255   5.736 -0.9840  1.5514  0.4417
   99SAPE  C217 9972   5.842   1.218   5.563 -0.9786 -0.0511 -0.0414
   99SAPE  H17R 9973   5.788   1.315   5.559 -1.0861 -0.1469 -1.4141
   99SAPE  H17S 9974   5.770   1.143   5.525 -0.8684 -0.7532  1.0919
   99SAPE  C218 9975   5.961   1.224   5.463  0.1324 -0.7823 -0.0805
   99SAPE  H18R 9976   5.999   1.123   5.437  1.0558 -0.6751  0.7918
   99SAPE  H18S 9977   6.042   1.281   5.514  0.2763 -2.4456  1.6741
   99SAPE  C219 9978   5.937   1.296   5.328  0.0175 -0.6770  1.1338
   99SAPE  H19R 9979   5.904   1.397   5.360 -0.8853 -0.5423 -0.1646
   99SAPE  H19S 9980   5.853   1.244   5.278 -0.7115  1.0609  0.4772
   99SAPE  C220 9981   6.063   1.303   5.243  0.0166  0.1267 -0.6190
   99SAPE  H20R 9982   6.042   1.315   5.135 -1.3395  2.1376 -0.1894
   99SAPE  H20S 9983   6.129   1.217   5.266 -0.4869 -0.6455 -1.9582
   99SAPE  H20T 9984   6.119   1.395   5.270  0.0288  0.1691 -0.7859
   99SAPE   C33 9985   5.660   1.673   6.796  0.5446 -0.0030  0.0137
   99SAPE   H3X 9986   5.566   1.678   6.855 -0.4941 -2.6470 -1.2235
   99SAPE   H3Y 9987   5.709   1.573   6.803 -0.1240 -0.3997 -0.7568
   99SAPE   C34 9988   5.615   1.688   6.650  0.1079 -0.6232  0.1820
   99SAPE   H4X 9989   5.540   1.609   6.629 -1.5677  0.9774 -0.1731
   99SAPE   H4Y 9990   5.702   1.671   6.583 -0.5271 -0.7407 -0.6324
   99SAPE   C35 9991   5.565   1.828   6.631 -0.1268  0.2582 -0.1605
   99SAPE   H5X 9992   5.647   1.903   6.643 -2.1699  2.5286  0.4963
   99SAPE   H5Y 9993   5.496   1.852   6.715 -0.3932  1.4155 -0.6911
   99SAPE   C36 9994   5.495   1.842   6.496  0.0050  0.2781  0.5647
   99SAPE   H6X 9995   5.414   1.917   6.510 -1.7265 -1.5594  0.8587
   99SAPE   H6Y 9996   5.433   1.754   6.468  1.6849 -1.2702  1.5201
   99SAPE   C37 9997   5.596   1.890   6.391 -0.4579  0.3278  0.0420
   99SAPE   H7X 9998   5.659   1.971   6.433  0.5620 -1.5230  2.3160
   99SAPE   H7Y 9999   5.535   1.949   6.319  1.7235  1.3368 -1.0772
   99SAPE   C3810000   5.681   1.777   6.332  0.4211 -0.2040 -0.2244
   99SAPE   H8X10001   5.636   1.684   6.372 -2.9560  1.7629  0.9406
   99SAPE   H8Y10002   5.787   1.787   6.364  0.2393  1.0787  0.0388
   99SAPE   C3910003   5.660   1.780   6.183 -0.7264 -0.6331  0.4620
   99SAPE   H9X10004   5.699   1.876   6.143 -2.2867  0.3083  1.1225
   99SAPE   H9Y10005   5.553   1.774   6.154 -1.3151 -2.0782  2.6408
   99SAPE  C31010006   5.724   1.659   6.104 -0.6211 -1.0523 -1.1202
   99SAPE  H10X10007   5.668   1.565   6.123 -1.3484  0.0603  3.7504
   99SAPE  H10Y10008   5.826   1.645   6.148 -0.3324  0.8664 -1.0683
   99SAPE  C31110009   5.731   1.676   5.955  0.1866  0.5987  0.1512
   99SAPE  H11X10010   5.785   1.771   5.933  0.1607  0.8418  1.0736
   99SAPE  H11Y10011   5.629   1.668   5.914  0.9907 -2.9315 -1.5191
   99SAPE  C31210012   5.798   1.563   5.882  0.2010  1.1276  0.6237
   99SAPE  H12X10013   5.763   1.463   5.914  4.0878 -1.3773 -2.0209
   99SAPE  H12Y10014   5.907   1.564   5.902 -0.0369  1.8767  1.9833
   99SAPE  C31310015   5.790   1.566   5.728  0.9291  0.5934 -0.0253
   99SAPE  H13X10016   5.689   1.532   5.698  1.9383 -3.4406  0.5850
   99SAPE  H13Y10017   5.860   1.490   5.687  0.3922  0.7271 -1.2513
   99SAPE  C31410018   5.819   1.704   5.657 -0.6413 -0.2605 -1.1448
   99SAPE  H14X10019   5.923   1.735   5.679 -0.1158 -1.7018 -1.4814
   99SAPE  H14Y10020   5.756   1.778   5.712 -0.9477 -2.2484  1.3614
   99SAPE  C31510021   5.808   1.677   5.512  0.1867 -0.1744 -0.0180
   99SAPE  H15X10022   5.701   1.685   5.481  0.6986  0.2660 -1.7796
   99SAPE  H15Y10023   5.851   1.576   5.495  1.4273  0.2186  0.6366
   99SAPE  C31610024   5.887   1.781   5.431 -0.1099  0.0724 -0.3918
   99SAPE  H16X10025   5.990   1.792   5.472  0.0748 -1.6377 -0.3275
   99SAPE  H16Y10026   5.845   1.883   5.443  0.8965  0.1980  3.2925
   99SAPE  C31710027   5.902   1.728   5.287 -0.4974 -0.3462 -0.0201
   99SAPE  H17X10028   5.800   1.716   5.244 -0.7560 -0.4414  0.6139
   99SAPE  H17Y10029   5.950   1.628   5.292  0.1105 -0.1200 -1.0739
   99SAPE  C31810030   5.998   1.818   5.205  0.5311  0.3416 -0.0714
   99SAPE  H18X10031   6.080   1.861   5.267 -0.6791  0.8485  1.2244
   99SAPE  H18Y10032   5.949   1.911   5.169  0.6632 -0.1184 -1.5201
   99SAPE  H18Z10033   6.042   1.766   5.117  0.5280 -0.1240  0.2048
  100SAPE     N10034   2.766   1.349   7.529 -0.0746  0.1493 -0.0423
  100SAPE   HN110035   2.668   1.329   7.501 -1.1387 -0.3523  3.4626
  100SAPE   HN210036   2.771   1.321   7.629 -0.7465 -1.5673 -0.4558
  100SAPE   HN310037   2.774   1.453   7.532 -0.4773  0.1817  2.3408
  100SAPE   C1210038   2.859   1.285   7.432  0.1678  0.9636 -0.1186
  100SAPE  H12A10039   2.963   1.287   7.472  0.2438 -0.8026 -0.1534
  100SAPE  H12B10040   2.856   1.349   7.341  0.6968  2.4848  0.8889
  100SAPE   C1110041   2.810   1.141   7.400  0.1388 -0.0126 -0.2904
  100SAPE  H11A10042   2.864   1.099   7.313 -0.1349 -0.0598 -0.4413
  100SAPE  H11B10043   2.706   1.151   7.360 -1.0276 -0.0725  2.4986
  100SAPE     P10044   2.932   0.979   7.564 -0.1091  0.4168 -0.3419
  100SAPE   O1310045   3.052   1.068   7.572  0.6638 -0.2142  0.1717
  100SAPE   O1410046   2.893   0.916   7.692 -0.2607  0.7479  0.7751
  100SAPE   O1210047   2.803   1.050   7.510 -0.2630 -0.2396 -0.1733
  100SAPE   O1110048   2.962   0.859   7.460  0.1183  0.5441 -0.5822
  100SAPE    C110049   2.855   0.768   7.419  0.3010  0.2097 -0.6287
  100SAPE    HA10050   2.854   0.676   7.481 -0.9854 -0.1392 -1.1338
  100SAPE    HB10051   2.753   0.809   7.433  0.4256  0.4892 -0.5400
  100SAPE    C210052   2.888   0.718   7.276  0.1196  0.0017  0.7306
  100SAPE    HS10053   2.972   0.645   7.275  0.4260  0.2669 -2.1222
  100SAPE   O2110054   2.910   0.837   7.199 -0.2203 -0.0903 -0.2646
  100SAPE   C2110055   2.993   0.822   7.097 -0.8654 -0.2600 -0.5618
  100SAPE   O2210056   3.075   0.734   7.080  0.2261  0.7630  0.5028
  100SAPE   C2210057   2.979   0.945   6.999  0.2205  0.2138 -0.2122
  100SAPE   H2R10058   2.899   1.012   7.037 -0.0320 -0.4061  0.3717
  100SAPE   H2S10059   3.077   0.998   6.999  1.1758 -1.4405 -1.5615
  100SAPE    C310060   2.763   0.644   7.214 -0.2644  0.4966 -0.3548
  100SAPE    HX10061   2.681   0.719   7.204 -1.3272 -0.5833 -0.0203
  100SAPE    HY10062   2.731   0.562   7.283  1.1421  1.6084  1.7389
  100SAPE   O3110063   2.793   0.585   7.081 -0.5251 -0.1268 -0.2199
  100SAPE   C3110064   2.866   0.470   7.096  0.0952 -0.0521 -0.0789
  100SAPE   O3210065   2.892   0.407   7.199  0.2603 -0.7445 -0.1033
  100SAPE   C3210066   2.918   0.437   6.957  0.3493  0.3188  0.0449
  100SAPE   H2X10067   3.015   0.489   6.944 -0.0090  0.7054 -1.2500
  100SAPE   H2Y10068   2.843   0.468   6.881 -0.5756 -1.1831  0.3177
  100SAPE   C2310069   2.935   0.892   6.856 -0.6835  0.4839  0.2429
  100SAPE   H3R10070   3.016   0.824   6.821  0.7504  0.3169  3.5137
  100SAPE   H3S10071   2.933   0.975   6.783 -2.2381  0.1249 -0.1634
  100SAPE   C2410072   2.796   0.831   6.844  0.8981  0.3070 -0.2139
  100SAPE   H4R10073   2.796   0.730   6.890  2.1510  0.3423 -0.0857
  100SAPE   H4S10074   2.776   0.816   6.736  0.1898 -3.1245  0.2713
  100SAPE   C2510075   2.682   0.914   6.896  0.6910 -0.2801  0.4130
  100SAPE   H5R10076   2.675   0.916   7.006  1.6376 -0.0076  0.4813
  100SAPE   C2610077   2.592   0.971   6.819 -0.3521 -0.4717  0.4038
  100SAPE   H6R10078   2.509   1.029   6.861  0.0710  1.4900 -1.2872
  100SAPE   C2710079   2.596   0.980   6.672  0.7100  0.2740 -0.0585
  100SAPE   H7R10080   2.698   1.016   6.644  0.9198 -0.2526  0.0093
  100SAPE   H7S10081   2.523   1.060   6.650 -0.2897 -0.3446  0.9143
  100SAPE   C2810082   2.568   0.851   6.596  0.0144  0.0642 -0.2080
  100SAPE   H8R10083   2.626   0.761   6.620  0.2362 -0.3185 -2.0212
  100SAPE   C2910084   2.483   0.839   6.493 -0.6721 -0.2216  0.9948
  100SAPE   H9R10085   2.449   0.740   6.458 -0.1625 -0.4193  1.0558
  100SAPE  C21010086   2.400   0.945   6.428 -0.3643  0.2494 -0.0329
  100SAPE  H10R10087   2.389   1.025   6.504  1.0106  0.5473 -0.1203
  100SAPE  H10S10088   2.299   0.899   6.418 -0.0355 -0.9393  1.6002
  100SAPE  C21110089   2.452   0.983   6.287 -0.3319 -0.2254 -0.6286
  100SAPE  H11R10090   2.500   1.082   6.291 -1.8842  0.5616  3.3045
  100SAPE  C21210091   2.457   0.914   6.174  0.0530  0.5090  0.0909
  100SAPE  H12R10092   2.511   0.965   6.092 -0.3137 -0.2941 -0.6660
  100SAPE  C21310093   2.428   0.769   6.140  0.3278 -0.4207  0.3184
  100SAPE  H13R10094   2.341   0.776   6.070  2.1373 -0.0231 -2.0115
  100SAPE  H13S10095   2.405   0.705   6.227  1.3561 -3.0874 -1.2582
  100SAPE  C21410096   2.535   0.696   6.071  0.2939  0.2261  0.3002
  100SAPE  H14R10097   2.623   0.676   6.134 -0.7281 -1.0811  1.3797
  100SAPE  C21510098   2.537   0.648   5.944  0.0091  0.8722  0.5019
  100SAPE  H15R10099   2.612   0.576   5.908 -1.4652 -2.0995  2.8443
  100SAPE  C21610100   2.423   0.658   5.843  0.3840  0.1675  0.3917
  100SAPE  H16R10101   2.465   0.698   5.749 -1.7090  1.4736 -0.0712
  100SAPE  H16S10102   2.349   0.737   5.871  1.2131  2.1063 -2.4725
  100SAPE  C21710103   2.342   0.525   5.836  0.2721 -0.0791 -0.6235
  100SAPE  H17R10104   2.312   0.484   5.934  2.7100 -0.8822 -0.1282
  100SAPE  H17S10105   2.403   0.446   5.788 -2.6558 -2.7397 -0.2576
  100SAPE  C21810106   2.222   0.531   5.749 -0.0234  0.2337 -0.3678
  100SAPE  H18R10107   2.241   0.597   5.662  1.1679  0.7008  0.2291
  100SAPE  H18S10108   2.132   0.568   5.802 -0.0095  0.6245 -0.6094
  100SAPE  C21910109   2.156   0.402   5.695 -0.8508 -0.0508  0.0244
  100SAPE  H19R10110   2.045   0.416   5.696 -1.4319 -3.5813 -1.0727
  100SAPE  H19S10111   2.164   0.313   5.762 -2.1125 -2.0436 -2.3268
  100SAPE  C22010112   2.200   0.351   5.563 -0.7026 -0.0313 -0.7112
  100SAPE  H20R10113   2.303   0.311   5.570 -1.5182 -2.1097  0.1204
  100SAPE  H20S10114   2.201   0.432   5.487  0.5127 -1.6880 -2.5414
  100SAPE  H20T10115   2.144   0.265   5.521  0.7117 -1.4649  0.2345
  100SAPE   C3310116   2.946   0.284   6.948 -0.5081 -0.3510 -0.4052
  100SAPE   H3X10117   2.849   0.230   6.944 -0.8597  0.1588  0.7763
  100SAPE   H3Y10118   3.003   0.245   7.034 -1.9501 -1.1467  0.2228
  100SAPE   C3410119   3.024   0.241   6.826 -0.5605  0.4356 -0.7271
  100SAPE   H4X10120   3.010   0.132   6.807 -1.3390  1.0976 -4.7236
  100SAPE   H4Y10121   3.131   0.268   6.828 -0.8196  1.7983 -2.6410
  100SAPE   C3510122   2.954   0.301   6.698 -0.6738  0.5735  0.7066
  100SAPE   H5X10123   2.977   0.406   6.669  2.0693 -0.0541  0.3039
  100SAPE   H5Y10124   2.844   0.291   6.703 -0.7899 -0.1974 -1.9610
  100SAPE   C3610125   3.002   0.228   6.571  0.0021 -0.5916 -0.0651
  100SAPE   H6X10126   2.946   0.257   6.480 -1.0250 -2.0117  0.0926
  100SAPE   H6Y10127   2.973   0.121   6.576 -0.5548 -0.3943  1.5867
  100SAPE   C3710128   3.152   0.245   6.543 -0.0412 -0.2941  0.1521
  100SAPE   H7X10129   3.222   0.217   6.625 -1.4531  0.8481  1.8153
  100SAPE   H7Y10130   3.172   0.354   6.537 -0.4716 -0.1071  1.6075
  100SAPE   C3810131   3.200   0.187   6.407 -0.2158 -0.5342  0.0652
  100SAPE   H8X10132   3.202   0.076   6.412  2.1798 -0.6154 -1.3040
  100SAPE   H8Y10133   3.302   0.226   6.390  1.0996 -2.3087  3.1423
  100SAPE   C3910134   3.114   0.222   6.285  0.3467  0.4300  0.3302
  100SAPE   H9X10135   3.080   0.327   6.304 -0.2300  0.4753 -0.8654
  100SAPE   H9Y10136   3.030   0.152   6.267 -2.0216  3.1044  0.2830
  100SAPE  C31010137   3.182   0.230   6.149 -0.5343 -0.1308 -0.1908
  100SAPE  H10X10138   3.256   0.147   6.144 -1.6117 -1.1327  0.0498
  100SAPE  H10Y10139   3.252   0.316   6.145  1.7313 -1.9266 -1.2566
  100SAPE  C31110140   3.080   0.240   6.036  0.6255  0.1494  0.2493
  100SAPE  H11X10141   3.007   0.323   6.046  2.5735  2.1522 -1.2719
  100SAPE  H11Y10142   3.017   0.149   6.044  0.1989  0.4717  0.5986
  100SAPE  C31210143   3.146   0.250   5.893 -0.1995 -0.3468 -0.5091
  100SAPE  H12X10144   3.220   0.167   5.884  2.6855  2.1040 -1.3536
  100SAPE  H12Y10145   3.217   0.336   5.894 -2.6231  1.7838 -1.6896
  100SAPE  C31310146   3.060   0.287   5.779 -0.0024  0.1274 -0.4738
  100SAPE  H13X10147   3.009   0.383   5.800  0.5562  0.1490  0.8597
  100SAPE  H13Y10148   2.987   0.208   5.752 -0.4017  0.0467  0.8107
  100SAPE  C31410149   3.152   0.320   5.657  0.6340 -0.0109  0.2067
  100SAPE  H14X10150   3.214   0.229   5.644 -0.8414 -1.3880  2.1420
  100SAPE  H14Y10151   3.214   0.411   5.677 -1.3850  2.0736 -2.3269
  100SAPE  C31510152   3.064   0.350   5.540  0.4281 -0.1549 -1.0319
  100SAPE  H15X10153   2.996   0.434   5.564  0.7321 -0.1510 -0.1328
  100SAPE  H15Y10154   2.994   0.267   5.517  0.1179  0.3918 -2.1206
  100SAPE  C31610155   3.136   0.374   5.410 -0.2569 -0.2226 -0.0408
  100SAPE  H16X10156   3.197   0.287   5.376  0.4805  0.3765 -0.2677
  100SAPE  H16Y10157   3.216   0.450   5.423 -0.8912  0.6025 -0.8339
  100SAPE  C31710158   3.056   0.424   5.294 -0.1054  0.4760 -0.0503
  100SAPE  H17X10159   2.984   0.501   5.329  2.4633  2.5815  1.0270
  100SAPE  H17Y10160   3.006   0.337   5.248  1.4364 -1.1947  1.2922
  100SAPE  C31810161   3.148   0.487   5.188 -0.4763 -0.1615  0.1386
  100SAPE  H18X10162   3.183   0.589   5.216  0.5011 -0.5479  0.3861
  100SAPE  H18Y10163   3.102   0.480   5.087  0.1531 -2.2944 -0.0514
  100SAPE  H18Z10164   3.240   0.425   5.185 -2.0683 -2.6993 -3.1216
  101SAPE     N10165   0.379   4.506   7.350  0.0901  0.1207  0.1224
  101SAPE   HN110166   0.280   4.536   7.354 -0.5948 -1.7033 -1.5973
  101SAPE   HN210167   0.427   4.577   7.410 -0.0383  1.7003 -1.5701
  101SAPE   HN310168   0.407   4.507   7.250  0.6278  1.0759  0.2589
  101SAPE   C1210169   0.400   4.372   7.417 -0.2043 -0.6694 -0.3136
  101SAPE  H12A10170   0.502   4.386   7.458 -0.4061  0.9065 -0.2963
  101SAPE  H12B10171   0.406   4.283   7.350  0.6380 -0.1045 -1.0050
  101SAPE   C1110172   0.301   4.337   7.533  0.2614 -0.3026  0.2083
  101SAPE  H11A10173   0.207   4.288   7.502 -1.5752  2.3961  1.1441
  101SAPE  H11B10174   0.260   4.427   7.584 -0.0317 -0.0673 -0.4370
  101SAPE     P10175   0.409   4.103   7.623  0.1945 -0.2104 -0.4710
  101SAPE   O1310176   0.527   4.077   7.704  0.6545 -0.4282  0.3239
  101SAPE   O1410177   0.281   4.028   7.664 -0.1343  0.2588  0.5987
  101SAPE   O1210178   0.380   4.258   7.628 -0.4152  0.1173 -0.3049
  101SAPE   O1110179   0.453   4.076   7.473 -0.4446  0.3429 -0.0172
  101SAPE    C110180   0.356   4.026   7.372  0.3623 -0.4878 -0.2490
  101SAPE    HA10181   0.308   3.933   7.407 -2.5625 -0.0268 -2.6181
  101SAPE    HB10182   0.273   4.099   7.365 -0.7098 -1.4368  1.8943
  101SAPE    C210183   0.410   4.022   7.232 -0.3563 -0.1064  0.5394
  101SAPE    HS10184   0.451   4.123   7.212 -0.1806 -0.2102  0.3704
  101SAPE   O2110185   0.313   3.983   7.143 -0.5129  0.1395 -0.6300
  101SAPE   C2110186   0.320   4.036   7.024 -0.0841 -0.3445 -0.4469
  101SAPE   O2210187   0.404   4.123   6.995  0.2977 -0.0594  0.4956
  101SAPE   C2210188   0.208   3.974   6.933  0.5965  0.1134  0.5876
  101SAPE   H2R10189   0.125   3.931   6.993 -2.7300  1.6696 -2.4977
  101SAPE   H2S10190   0.171   4.062   6.877  0.0384 -0.1412  0.5543
  101SAPE    C310191   0.525   3.920   7.233 -0.3804 -0.2523  0.4431
  101SAPE    HX10192   0.483   3.822   7.263  1.6111 -0.9232  1.1973
  101SAPE    HY10193   0.599   3.939   7.314 -0.7997  0.0093  0.7735
  101SAPE   O3110194   0.598   3.916   7.106  0.7207  0.0604  0.4631
  101SAPE   C3110195   0.709   3.987   7.102 -0.3035  0.8285 -0.0725
  101SAPE   O3210196   0.753   4.059   7.193  0.1887 -0.0814 -0.1274
  101SAPE   C3210197   0.778   3.973   6.964 -0.6495  0.0397  0.4656
  101SAPE   H2X10198   0.829   3.875   6.968  1.9114  1.3000  0.5351
  101SAPE   H2Y10199   0.857   4.051   6.972  0.8814 -1.5418  1.4486
  101SAPE   C2310200   0.271   3.873   6.840 -0.4947 -0.7951  0.7673
  101SAPE   H3R10201   0.282   3.781   6.901 -1.3687 -1.4751 -0.0540
  101SAPE   H3S10202   0.371   3.910   6.808 -1.8082  1.0662 -1.5563
  101SAPE   C2410203   0.193   3.857   6.711  0.1117  0.0354 -0.7202
  101SAPE   H4R10204   0.196   3.958   6.667  3.8698  0.9647  1.3268
  101SAPE   H4S10205   0.085   3.833   6.727  0.5822 -1.8781 -0.1150
  101SAPE   C2510206   0.220   3.749   6.607  0.1190 -0.0786 -0.3369
  101SAPE   H5R10207   0.224   3.645   6.644  1.1755 -0.8132 -2.2960
  101SAPE   C2610208   0.232   3.768   6.472  0.3028  0.3533 -1.0839
  101SAPE   H6R10209   0.251   3.674   6.418 -2.8704  0.5284 -2.7631
  101SAPE   C2710210   0.241   3.898   6.403  0.0858  0.1278  0.1249
  101SAPE   H7R10211   0.339   3.949   6.392  0.5408 -0.6548  0.5078
  101SAPE   H7S10212   0.182   3.978   6.454 -0.4863 -0.2530  0.0721
  101SAPE   C2810213   0.193   3.882   6.262  0.4468 -0.4407 -0.2969
  101SAPE   H8R10214   0.152   3.783   6.240  2.2514 -1.8535  2.1226
  101SAPE   C2910215   0.169   3.980   6.176  0.0025  0.8604  0.2039
  101SAPE   H9R10216   0.115   3.951   6.085 -2.0856  2.0132  0.9941
  101SAPE  C21010217   0.195   4.124   6.204 -0.0821 -0.4476  0.1402
  101SAPE  H10R10218   0.303   4.128   6.232  0.7747 -1.6668 -2.6416
  101SAPE  H10S10219   0.132   4.155   6.290 -3.3337  1.2825 -2.5985
  101SAPE  C21110220   0.171   4.219   6.086 -0.0165 -0.3668  0.3176
  101SAPE  H11R10221   0.096   4.181   6.015 -1.9269 -0.3143  2.1981
  101SAPE  C21210222   0.248   4.322   6.040  0.0105 -0.0519  0.0046
  101SAPE  H12R10223   0.208   4.385   5.959  0.4485  0.8064  0.4443
  101SAPE  C21310224   0.383   4.366   6.094  0.0973  0.1570  0.1155
  101SAPE  H13R10225   0.463   4.337   6.023 -1.1571  0.6659 -1.5725
  101SAPE  H13S10226   0.408   4.313   6.189  1.6272  0.2515 -0.2147
  101SAPE  C21410227   0.390   4.514   6.132  0.5300  0.4489  0.0325
  101SAPE  H14R10228   0.303   4.553   6.187  0.0946  0.1702 -0.4502
  101SAPE  C21510229   0.477   4.608   6.088 -0.1585 -0.0157  0.6884
  101SAPE  H15R10230   0.467   4.711   6.125 -1.6082  0.5350 -1.0456
  101SAPE  C21610231   0.591   4.576   5.995 -0.5212 -0.0846 -0.5922
  101SAPE  H16R10232   0.640   4.485   6.036 -0.9480  0.4548  1.2001
  101SAPE  H16S10233   0.673   4.650   6.003 -0.4119 -0.0306 -1.9722
  101SAPE  C21710234   0.577   4.567   5.843  0.5736 -0.2923 -0.3076
  101SAPE  H17R10235   0.542   4.665   5.805  1.5156 -0.8996 -2.9702
  101SAPE  H17S10236   0.494   4.498   5.816 -0.6701  1.1795 -0.3769
  101SAPE  C21810237   0.696   4.522   5.753  0.2205  0.9841  0.4624
  101SAPE  H18R10238   0.780   4.594   5.768  2.6460 -1.5682 -0.0287
  101SAPE  H18S10239   0.673   4.528   5.645  0.2232 -1.5732  0.2657
  101SAPE  C21910240   0.753   4.379   5.792  0.0533 -0.7012 -0.3470
  101SAPE  H19R10241   0.665   4.312   5.783 -1.1699  0.8181 -0.2796
  101SAPE  H19S10242   0.771   4.362   5.900  1.3337  0.1193 -0.4108
  101SAPE  C22010243   0.873   4.329   5.710 -0.3037  0.4337 -0.1725
  101SAPE  H20R10244   0.961   4.396   5.709 -0.1285  0.5654 -5.4888
  101SAPE  H20S10245   0.832   4.305   5.610 -4.2877  2.3983  0.7512
  101SAPE  H20T10246   0.901   4.233   5.758 -1.0496  0.9243  1.3052
  101SAPE   C3310247   0.699   4.008   6.841 -0.0042 -0.4294 -0.0962
  101SAPE   H3X10248   0.675   4.114   6.861  0.8267 -0.1401 -0.5756
  101SAPE   H3Y10249   0.609   3.944   6.831 -0.4445  0.1125  0.3332
  101SAPE   C3410250   0.790   3.983   6.717 -1.0096 -1.3868 -0.7863
  101SAPE   H4X10251   0.838   3.883   6.715  0.3963 -0.7621 -0.2009
  101SAPE   H4Y10252   0.874   4.055   6.712 -1.2635 -1.1188 -1.2245
  101SAPE   C3510253   0.702   3.982   6.596  0.5449  0.4844  0.0201
  101SAPE   H5X10254   0.605   3.928   6.603  0.5230 -0.1168 -3.1891
  101SAPE   H5Y10255   0.755   3.919   6.521  2.4303  1.1463  0.7371
  101SAPE   C3610256   0.684   4.127   6.545  0.1679 -0.1300 -0.1030
  101SAPE   H6X10257   0.787   4.167   6.531  0.1091 -0.7291 -2.7023
  101SAPE   H6Y10258   0.632   4.187   6.622  2.7935  1.4047  0.5984
  101SAPE   C3710259   0.619   4.135   6.406 -0.2261 -0.1345 -0.6712
  101SAPE   H7X10260   0.583   4.239   6.388  2.0070  0.7163 -0.6222
  101SAPE   H7Y10261   0.533   4.066   6.407 -0.0221 -0.3872 -0.2925
  101SAPE   C3810262   0.716   4.098   6.293 -0.7483  0.3396 -0.6320
  101SAPE   H8X10263   0.749   3.994   6.315  0.3167  1.0609  1.4489
  101SAPE   H8Y10264   0.804   4.165   6.293 -1.5640  1.4994  1.1645
  101SAPE   C3910265   0.655   4.102   6.155 -0.0146 -0.1633  0.2665
  101SAPE   H9X10266   0.728   4.094   6.072  0.4734  0.1512  0.6567
  101SAPE   H9Y10267   0.596   4.195   6.146 -0.0664 -0.2249 -0.0484
  101SAPE  C31010268   0.569   3.980   6.126  0.0684  0.5117 -0.2062
  101SAPE  H10X10269   0.501   3.976   6.213  0.1282  1.4572 -0.1097
  101SAPE  H10Y10270   0.627   3.886   6.118 -2.1193 -0.8329 -1.2088
  101SAPE  C31110271   0.480   3.972   5.999 -0.0725 -0.0663 -0.4700
  101SAPE  H11X10272   0.418   4.064   6.002 -0.3977 -0.3012  0.0698
  101SAPE  H11Y10273   0.407   3.889   6.013 -1.8331  1.7318  1.7013
  101SAPE  C31210274   0.551   3.964   5.859 -0.1450  0.1871 -0.2341
  101SAPE  H12X10275   0.576   3.856   5.846  0.6393  0.4281 -0.8025
  101SAPE  H12Y10276   0.642   4.026   5.858  0.4519 -0.5412  2.0258
  101SAPE  C31310277   0.458   4.014   5.743  0.8145 -0.5284 -0.3172
  101SAPE  H13X10278   0.425   4.117   5.768 -0.4579 -1.4199  2.0019
  101SAPE  H13Y10279   0.364   3.955   5.753  0.9447 -0.6065  0.5747
  101SAPE  C31410280   0.528   4.011   5.603  0.2156 -0.2242  0.1950
  101SAPE  H14X10281   0.579   3.914   5.589  0.6250  0.0729 -0.4027
  101SAPE  H14Y10282   0.609   4.088   5.608  0.5847 -0.6354  0.7134
  101SAPE  C31510283   0.444   4.034   5.480  0.3093  0.6607 -0.2398
  101SAPE  H15X10284   0.368   3.952   5.477  0.3624  0.5161  1.5676
  101SAPE  H15Y10285   0.513   4.022   5.394 -0.0416  0.5704 -0.5138
  101SAPE  C31610286   0.372   4.165   5.475  0.2931 -0.1296 -0.5511
  101SAPE  H16X10287   0.297   4.172   5.556 -0.3861 -3.6400 -0.7320
  101SAPE  H16Y10288   0.312   4.173   5.382 -0.2411 -0.9947 -0.2918
  101SAPE  C31710289   0.465   4.282   5.477  0.2653 -0.1427 -0.1030
  101SAPE  H17X10290   0.551   4.248   5.416  1.3831  1.9210  0.2280
  101SAPE  H17Y10291   0.504   4.293   5.581  0.5951 -3.9198  0.3306
  101SAPE  C31810292   0.416   4.409   5.407 -0.6113 -0.1472 -0.3345
  101SAPE  H18X10293   0.483   4.494   5.430  0.8936 -1.6052  0.8965
  101SAPE  H18Y10294   0.323   4.445   5.457  0.0962  0.3228  0.6794
  101SAPE  H18Z10295   0.395   4.396   5.298  2.2715  0.7559 -1.0833
  102SAPE     N10296   1.768   1.515   7.971  0.5513 -0.1439  0.0344
  102SAPE   HN110297   1.865   1.485   7.953  0.5766 -1.4174  2.0409
  102SAPE   HN210298   1.765   1.519   8.075  1.3633 -2.3078  0.1920
  102SAPE   HN310299   1.700   1.442   7.942 -0.1258  0.7941 -0.8368
  102SAPE   C1210300   1.752   1.652   7.909  0.2932 -0.1581  0.2909
  102SAPE  H12A10301   1.666   1.706   7.955 -1.6263  0.5401 -3.6975
  102SAPE  H12B10302   1.728   1.645   7.801  0.5371  1.3672  0.1216
  102SAPE   C1110303   1.885   1.736   7.899  0.3286 -0.2008  0.5875
  102SAPE  H11A10304   1.967   1.662   7.886 -0.2157 -0.7985  0.5192
  102SAPE  H11B10305   1.889   1.784   7.999 -0.0800 -1.6700  1.3339
  102SAPE     P10306   1.903   1.990   7.817 -0.1610  0.4430  0.6044
  102SAPE   O1310307   1.825   2.024   7.935  0.3553 -0.2399  0.2093
  102SAPE   O1410308   2.045   2.039   7.818  0.1998  0.1303 -0.0092
  102SAPE   O1210309   1.897   1.838   7.794  0.1537  0.1641 -0.4218
  102SAPE   O1110310   1.841   2.045   7.684 -0.7713 -0.1274  0.0071
  102SAPE    C110311   1.728   1.989   7.622 -0.1052 -0.5873 -0.0069
  102SAPE    HA10312   1.660   1.937   7.693 -0.8387  0.7236  0.2899
  102SAPE    HB10313   1.682   2.070   7.561 -1.1203 -0.9748  0.2311
  102SAPE    C210314   1.771   1.882   7.516 -0.2003 -0.2969  0.0951
  102SAPE    HS10315   1.842   1.816   7.569 -2.2256 -0.6985  2.5207
  102SAPE   O2110316   1.814   1.954   7.397 -0.3327  0.3582 -0.1796
  102SAPE   C2110317   1.950   1.962   7.384 -0.4118  0.2288 -0.0587
  102SAPE   O2210318   2.030   1.910   7.457 -0.1388  0.1563 -0.3302
  102SAPE   C2210319   1.986   2.044   7.258  0.6458  0.3187  0.3280
  102SAPE   H2R10320   1.913   2.127   7.247 -1.2904 -0.9935  2.1695
  102SAPE   H2S10321   2.090   2.083   7.260  1.6235 -2.0219 -0.6742
  102SAPE    C310322   1.657   1.788   7.475 -0.3831  0.5579  0.1809
  102SAPE    HX10323   1.562   1.842   7.459 -1.5995 -2.0484 -2.3190
  102SAPE    HY10324   1.630   1.722   7.561 -1.4025  2.6623  1.5443
  102SAPE   O3110325   1.681   1.716   7.356 -0.4241 -0.4602 -0.2417
  102SAPE   C3110326   1.768   1.608   7.370  0.3432 -1.2147  0.2431
  102SAPE   O3210327   1.807   1.566   7.474 -0.0972  0.1894  0.1278
  102SAPE   C3210328   1.818   1.562   7.228  0.2104  0.4075  0.3228
  102SAPE   H2X10329   1.805   1.452   7.232 -2.2024  0.6620  1.6851
  102SAPE   H2Y10330   1.925   1.589   7.213 -0.5884  3.7474 -0.3192
  102SAPE   C2310331   1.991   1.950   7.127  0.5982  0.1238 -0.6809
  102SAPE   H3R10332   1.978   2.006   7.032  0.9348 -0.9238 -1.3738
  102SAPE   H3S10333   1.904   1.881   7.128  0.1863  0.6230  1.2168
  102SAPE   C2410334   2.119   1.863   7.108 -0.1737  0.2647 -0.4195
  102SAPE   H4R10335   2.082   1.785   7.038 -0.7553  1.0029 -0.9710
  102SAPE   H4S10336   2.153   1.811   7.199 -0.2335  1.1437  0.1159
  102SAPE   C2510337   2.228   1.951   7.051  0.0735 -0.5650  0.1040
  102SAPE   H5R10338   2.244   2.046   7.104  1.0098  0.4848 -1.9140
  102SAPE   C2610339   2.315   1.914   6.953  0.3830  0.5320  0.5513
  102SAPE   H6R10340   2.382   1.993   6.915  1.1912 -0.5099 -0.2425
  102SAPE   C2710341   2.318   1.794   6.870 -0.0249 -1.2120 -0.0298
  102SAPE   H7R10342   2.216   1.754   6.854  0.0866 -1.5420  0.0747
  102SAPE   H7S10343   2.357   1.711   6.933 -1.7923 -0.8292  1.6436
  102SAPE   C2810344   2.409   1.796   6.751 -0.3445  0.0320  0.2220
  102SAPE   H8R10345   2.471   1.887   6.740  1.3852 -1.0957  0.2462
  102SAPE   C2910346   2.415   1.703   6.651  0.1419 -0.6224  0.2144
  102SAPE   H9R10347   2.498   1.714   6.580 -0.3093 -4.5947 -1.1815
  102SAPE  C21010348   2.323   1.577   6.631 -0.9048 -0.5176 -0.3286
  102SAPE  H10R10349   2.256   1.588   6.543 -1.8274 -1.2833  0.2579
  102SAPE  H10S10350   2.250   1.583   6.715  0.6319  0.8887  0.9781
  102SAPE  C21110351   2.407   1.451   6.641 -0.3567  0.7775  0.8958
  102SAPE  H11R10352   2.450   1.428   6.740 -0.6340 -0.5195  0.7334
  102SAPE  C21210353   2.430   1.369   6.531 -0.2547 -0.4763  0.0944
  102SAPE  H12R10354   2.510   1.294   6.539 -0.2209 -0.3284  1.5806
  102SAPE  C21310355   2.373   1.388   6.392  1.1209  0.2549 -0.4087
  102SAPE  H13R10356   2.270   1.429   6.399  1.2080  0.3679  0.2871
  102SAPE  H13S10357   2.365   1.286   6.348  1.0981 -0.2205  0.6684
  102SAPE  C21410358   2.472   1.466   6.315 -0.4206 -0.1856  0.5981
  102SAPE  H14R10359   2.566   1.489   6.367 -0.1733  2.6308 -0.8979
  102SAPE  C21510360   2.478   1.476   6.182 -0.4111  0.5361 -0.6272
  102SAPE  H15R10361   2.546   1.548   6.135  1.0026 -1.1736 -1.3123
  102SAPE  C21610362   2.372   1.417   6.094 -0.1600  0.2353 -0.0630
  102SAPE  H16R10363   2.314   1.492   6.036 -1.0105 -0.9321 -0.7761
  102SAPE  H16S10364   2.300   1.344   6.137 -0.3048  0.3523 -0.1067
  102SAPE  C21710365   2.432   1.335   5.978  0.2448  0.3810 -0.3812
  102SAPE  H17R10366   2.454   1.238   6.027  0.5837 -0.3220 -1.8490
  102SAPE  H17S10367   2.521   1.384   5.932 -0.0307 -0.6705 -2.1319
  102SAPE  C21810368   2.333   1.288   5.865 -0.7033  0.1010  0.3068
  102SAPE  H18R10369   2.273   1.205   5.907  1.5218 -1.4330  0.6443
  102SAPE  H18S10370   2.394   1.249   5.782 -1.2776  1.3704 -0.7513
  102SAPE  C21910371   2.250   1.406   5.811 -0.1641  0.2510  0.2764
  102SAPE  H19R10372   2.311   1.495   5.787 -0.0420  0.0657 -0.1059
  102SAPE  H19S10373   2.181   1.444   5.890 -2.1533 -2.7203  0.1465
  102SAPE  C22010374   2.162   1.391   5.688  0.4279  0.2704 -0.0617
  102SAPE  H20R10375   2.102   1.483   5.672 -1.7165 -1.0455  0.0485
  102SAPE  H20S10376   2.099   1.299   5.687  0.0142  0.4928 -3.1579
  102SAPE  H20T10377   2.222   1.370   5.596 -0.9854 -1.7565 -0.5845
  102SAPE   C3310378   1.742   1.616   7.111  0.7625 -0.4366  0.0292
  102SAPE   H3X10379   1.739   1.727   7.114  0.9541 -0.2797 -2.8768
  102SAPE   H3Y10380   1.636   1.582   7.108  1.0444 -1.3527  0.0630
  102SAPE   C3410381   1.806   1.591   6.972  0.1917 -0.1046 -0.1085
  102SAPE   H4X10382   1.798   1.490   6.926  0.0959  0.9618 -2.6201
  102SAPE   H4Y10383   1.912   1.624   6.972 -0.3435  1.7426 -0.4345
  102SAPE   C3510384   1.724   1.672   6.864  0.4982 -0.3203 -0.2714
  102SAPE   H5X10385   1.721   1.781   6.882 -0.9804 -0.0380 -1.8728
  102SAPE   H5Y10386   1.617   1.642   6.876  0.3491  1.1111  2.7519
  102SAPE   C3610387   1.780   1.656   6.726  0.6619 -0.1198 -0.2817
  102SAPE   H6X10388   1.709   1.697   6.651  1.6106 -1.7252 -2.1478
  102SAPE   H6Y10389   1.788   1.549   6.696 -0.4425 -0.1826 -0.3799
  102SAPE   C3710390   1.917   1.719   6.702 -0.5988  0.0074 -1.3921
  102SAPE   H7X10391   1.999   1.672   6.759 -0.4772  2.2202  0.3779
  102SAPE   H7Y10392   1.907   1.824   6.739 -1.5308  0.1051 -1.8621
  102SAPE   C3810393   1.953   1.734   6.553 -0.0600  0.1675 -0.0605
  102SAPE   H8X10394   2.052   1.784   6.547  0.3527 -0.2760  2.2665
  102SAPE   H8Y10395   1.874   1.795   6.505 -0.2683 -0.0117  0.0552
  102SAPE   C3910396   1.954   1.604   6.474  0.4200 -0.4319 -0.6186
  102SAPE   H9X10397   1.857   1.551   6.488 -0.1622  1.0745  1.4514
  102SAPE   H9Y10398   2.037   1.539   6.509  0.9023  1.0578  1.1164
  102SAPE  C31010399   1.971   1.629   6.328  0.1309  0.2745  0.3789
  102SAPE  H10X10400   2.055   1.695   6.298  0.1759 -0.3474 -0.9147
  102SAPE  H10Y10401   1.880   1.680   6.290  0.4928  0.9338  0.3881
  102SAPE  C31110402   1.980   1.493   6.246 -0.4271 -0.6704  0.4521
  102SAPE  H11X10403   1.899   1.433   6.294 -1.4296  0.1367 -0.1796
  102SAPE  H11Y10404   2.081   1.449   6.252  0.8499  2.0830  0.9724
  102SAPE  C31210405   1.937   1.504   6.092  0.8820 -0.2073  0.2452
  102SAPE  H12X10406   2.004   1.569   6.032 -1.6694  0.9511 -1.5475
  102SAPE  H12Y10407   1.835   1.549   6.100  0.6299 -0.6695 -0.3441
  102SAPE  C31310408   1.924   1.366   6.017 -0.3497  0.1393 -0.3237
  102SAPE  H13X10409   1.878   1.299   6.093 -3.1732  2.2409 -0.0122
  102SAPE  H13Y10410   2.025   1.324   6.001 -0.0530  0.9806 -0.6772
  102SAPE  C31410411   1.843   1.378   5.887  0.3068  0.2505  0.0468
  102SAPE  H14X10412   1.903   1.441   5.818  0.9713 -0.2516  0.1533
  102SAPE  H14Y10413   1.747   1.429   5.909 -0.4161 -0.7199 -0.7455
  102SAPE  C31510414   1.811   1.249   5.808 -0.0744 -0.0196  0.4517
  102SAPE  H15X10415   1.741   1.184   5.866 -1.3743 -0.3636 -1.4025
  102SAPE  H15Y10416   1.901   1.185   5.800 -0.7199 -0.9404  0.3526
  102SAPE  C31610417   1.751   1.283   5.672  0.3943 -0.2710  0.2792
  102SAPE  H16X10418   1.803   1.220   5.596 -0.7020 -1.3320  0.3839
  102SAPE  H16Y10419   1.791   1.383   5.644 -0.3256 -0.0500  0.0258
  102SAPE  C31710420   1.598   1.252   5.673  0.1991 -0.1494 -0.0064
  102SAPE  H17X10421   1.581   1.146   5.700 -0.1746  0.5665  2.8960
  102SAPE  H17Y10422   1.563   1.269   5.569 -0.8921 -1.0626  0.1932
  102SAPE  C31810423   1.519   1.355   5.752  0.4041 -0.2533  0.2547
  102SAPE  H18X10424   1.409   1.348   5.747  0.4961 -1.2184 -0.7246
  102SAPE  H18Y10425   1.532   1.460   5.717 -4.3483 -1.0196 -5.1346
  102SAPE  H18Z10426   1.551   1.342   5.858 -0.8304 -1.5987  0.4814
  103SAPE     N10427   4.684   1.730   2.775 -0.4405  0.0878 -0.6695
  103SAPE   HN110428   4.705   1.776   2.684 -0.1891 -0.4884 -0.9053
  103SAPE   HN210429   4.631   1.803   2.828  0.4771 -0.0461  0.4589
  103SAPE   HN310430   4.779   1.709   2.811  0.0746  0.6087 -1.6542
  103SAPE   C1210431   4.601   1.602   2.781 -0.1709  0.4716  0.0754
  103SAPE  H12A10432   4.591   1.572   2.887  0.5665 -0.7190 -0.1785
  103SAPE  H12B10433   4.643   1.522   2.717 -1.9715  0.1482 -0.7359
  103SAPE   C1110434   4.463   1.619   2.728  0.3550  0.0492 -0.0923
  103SAPE  H11A10435   4.425   1.514   2.728  1.0347 -0.2181  0.9862
  103SAPE  H11B10436   4.474   1.655   2.624 -0.3042  0.4266 -0.0345
  103SAPE     P10437   4.243   1.713   2.836  0.0288  0.3350 -0.3616
  103SAPE   O1310438   4.177   1.791   2.730 -0.7188  0.3657 -0.4681
  103SAPE   O1410439   4.193   1.578   2.870 -0.1417  0.2914 -0.4365
  103SAPE   O1210440   4.389   1.707   2.805 -0.0981 -0.5417  0.0439
  103SAPE   O1110441   4.233   1.795   2.975  0.2621 -0.4730  0.4816
  103SAPE    C110442   4.349   1.876   3.024 -0.2237  1.3753  0.9285
  103SAPE    HA10443   4.432   1.813   3.065 -1.4387 -0.3244  0.8859
  103SAPE    HB10444   4.397   1.921   2.935  5.4615 -2.3440  1.5775
  103SAPE    C210445   4.306   1.987   3.118 -0.7897 -0.3790  0.4425
  103SAPE    HS10446   4.395   2.051   3.135  0.9092 -2.8846  1.5383
  103SAPE   O2110447   4.247   1.935   3.241  0.1736 -0.2687  0.0862
  103SAPE   C2110448   4.343   1.887   3.316 -0.3288 -0.2492  0.3321
  103SAPE   O2210449   4.462   1.900   3.292 -0.1927  0.5033  0.4755
  103SAPE   C2210450   4.285   1.831   3.445  0.1981 -0.4406 -1.0656
  103SAPE   H2R10451   4.188   1.884   3.455  1.0864  1.0811 -0.2521
  103SAPE   H2S10452   4.279   1.721   3.430  2.7683 -0.4760 -2.4518
  103SAPE    C310453   4.195   2.073   3.050 -0.0577 -0.2109 -0.8941
  103SAPE    HX10454   4.123   2.003   3.002 -0.2091 -1.6194  1.2174
  103SAPE    HY10455   4.232   2.130   2.963 -0.6402 -0.3876 -1.2595
  103SAPE   O3110456   4.135   2.167   3.142 -0.1226 -0.1884  0.0073
  103SAPE   C3110457   4.031   2.119   3.206 -1.0722  0.0849 -0.3248
  103SAPE   O3210458   3.963   2.026   3.177  0.6062 -0.7583  0.5382
  103SAPE   C3210459   4.021   2.202   3.329 -0.1918  0.9468  0.0748
  103SAPE   H2X10460   4.059   2.306   3.319  1.2698  0.4956  0.6493
  103SAPE   H2Y10461   4.072   2.152   3.415 -0.5365  1.1325  0.3904
  103SAPE   C2310462   4.365   1.845   3.583  1.0097  0.2138  0.2182
  103SAPE   H3R10463   4.392   1.953   3.588 -0.1197  0.6619 -2.1410
  103SAPE   H3S10464   4.463   1.793   3.574  0.5107 -0.2825 -3.5637
  103SAPE   C2410465   4.289   1.782   3.698  1.4545  0.7138  1.0496
  103SAPE   H4R10466   4.258   1.679   3.670 -2.0529  1.4723  1.5670
  103SAPE   H4S10467   4.188   1.830   3.701  1.3740  0.5020  1.9495
  103SAPE   C2510468   4.362   1.793   3.831  0.6571 -0.2209  0.3264
  103SAPE   H5R10469   4.468   1.764   3.826  0.9696  0.8779  0.3525
  103SAPE   C2610470   4.313   1.840   3.946  0.7156 -0.3309 -0.0430
  103SAPE   H6R10471   4.376   1.841   4.036  0.5313 -2.1246  0.1488
  103SAPE   C2710472   4.166   1.879   3.976  0.1366  0.3895 -0.4277
  103SAPE   H7R10473   4.134   1.850   4.079 -0.6591 -0.1434 -0.8172
  103SAPE   H7S10474   4.103   1.817   3.909  0.5441  0.8955 -1.3016
  103SAPE   C2810475   4.138   2.031   3.955 -0.3087  0.5161  0.3060
  103SAPE   H8R10476   4.204   2.068   3.875  0.2898 -1.4306 -0.1317
  103SAPE   C2910477   4.068   2.119   4.031 -0.2173  0.3287  1.0280
  103SAPE   H9R10478   4.071   2.222   3.993 -0.0772 -0.6373 -1.8523
  103SAPE  C21010479   3.984   2.101   4.161 -0.1601 -0.0550 -0.1558
  103SAPE  H10R10480   4.009   2.180   4.234 -0.7337  1.3603 -1.4355
  103SAPE  H10S10481   4.016   2.005   4.207 -1.6075 -1.5363 -2.1021
  103SAPE  C21110482   3.835   2.095   4.137 -0.4859  0.2654  0.6207
  103SAPE  H11R10483   3.797   2.034   4.053 -4.3611  0.9196  1.7095
  103SAPE  C21210484   3.737   2.122   4.226  0.2361  0.6107  0.1228
  103SAPE  H12R10485   3.632   2.117   4.193 -0.4024 -1.4276  2.2054
  103SAPE  C21310486   3.748   2.164   4.367  0.1314  0.0801  0.9860
  103SAPE  H13R10487   3.759   2.274   4.360  1.6769 -0.1428 -0.7714
  103SAPE  H13S10488   3.849   2.149   4.411 -0.3943  1.5249  2.8383
  103SAPE  C21410489   3.638   2.120   4.453 -0.2507 -0.0005 -0.6071
  103SAPE  H14R10490   3.535   2.117   4.415 -0.5475  0.1824  0.1668
  103SAPE  C21510491   3.650   2.110   4.588  0.2808 -0.0373  0.3966
  103SAPE  H15R10492   3.560   2.087   4.647  1.1771  0.2621  1.9215
  103SAPE  C21610493   3.759   2.145   4.684 -0.2386  0.4853  0.2808
  103SAPE  H16R10494   3.854   2.100   4.649  0.0061 -0.7924  2.4093
  103SAPE  H16S10495   3.733   2.105   4.784 -0.1554  0.8843  0.4635
  103SAPE  C21710496   3.789   2.293   4.693  0.1929 -0.7006 -0.3058
  103SAPE  H17R10497   3.710   2.349   4.746  1.3340  0.7791 -0.1215
  103SAPE  H17S10498   3.820   2.335   4.595 -1.2195  1.8745  0.2822
  103SAPE  C21810499   3.921   2.322   4.776  0.8090 -0.2436 -0.1359
  103SAPE  H18R10500   3.955   2.426   4.762 -0.1385 -0.0499 -1.1960
  103SAPE  H18S10501   4.003   2.260   4.734  0.2252 -0.4169 -1.0704
  103SAPE  C21910502   3.899   2.286   4.919 -0.3245 -0.5486  0.0784
  103SAPE  H19R10503   3.999   2.308   4.962 -0.0202 -0.6034 -0.5926
  103SAPE  H19S10504   3.889   2.176   4.937  1.0562 -0.4043  2.0233
  103SAPE  C22010505   3.794   2.368   4.997 -0.1957 -0.0387  0.1304
  103SAPE  H20R10506   3.698   2.321   4.967  0.0297 -1.2535  1.2467
  103SAPE  H20S10507   3.797   2.478   4.984  3.1120  0.7282  4.9080
  103SAPE  H20T10508   3.816   2.355   5.105  0.8024  1.8351  0.2038
  103SAPE   C3310509   3.872   2.211   3.374 -0.1237  0.4412  0.2550
  103SAPE   H3X10510   3.812   2.119   3.356 -0.7146  0.6809  0.9891
  103SAPE   H3Y10511   3.835   2.301   3.320  1.4094  1.9235  1.5444
  103SAPE   C3410512   3.849   2.235   3.530  0.8992  0.3953  0.6398
  103SAPE   H4X10513   3.753   2.290   3.543  1.1257  1.2720 -1.1402
  103SAPE   H4Y10514   3.934   2.287   3.578  0.6187  0.9427  0.5516
  103SAPE   C3510515   3.824   2.097   3.599 -0.1249 -0.5039 -0.8252
  103SAPE   H5X10516   3.906   2.029   3.568  0.9380  0.6238 -0.5898
  103SAPE   H5Y10517   3.724   2.068   3.560 -0.1169  0.4263 -1.6028
  103SAPE   C3610518   3.814   2.097   3.753  0.5927 -0.4986  0.0314
  103SAPE   H6X10519   3.904   2.146   3.797 -0.2375 -0.2232  1.5023
  103SAPE   H6Y10520   3.817   1.994   3.793  0.3058 -0.7003 -0.4506
  103SAPE   C3710521   3.679   2.162   3.792 -0.1863 -0.0271  0.3263
  103SAPE   H7X10522   3.664   2.256   3.735  1.0486 -1.0880 -1.8953
  103SAPE   H7Y10523   3.689   2.198   3.897 -1.1169  2.1659 -0.2848
  103SAPE   C3810524   3.554   2.071   3.789 -0.2800  0.7933 -0.1995
  103SAPE   H8X10525   3.537   2.031   3.686 -1.6999 -3.7270  1.5427
  103SAPE   H8Y10526   3.469   2.140   3.807 -0.9282  0.8567 -3.0491
  103SAPE   C3910527   3.546   1.965   3.893 -1.0215 -0.0180 -0.3941
  103SAPE   H9X10528   3.551   2.016   3.992  0.0805  2.0696 -1.4557
  103SAPE   H9Y10529   3.640   1.909   3.877 -0.4994  0.9362 -0.7283
  103SAPE  C31010530   3.433   1.864   3.897 -0.2326 -0.1692 -0.1918
  103SAPE  H10X10531   3.414   1.844   3.789  0.7378 -1.3179 -0.1714
  103SAPE  H10Y10532   3.346   1.920   3.938 -0.8802 -0.7476 -0.7520
  103SAPE  C31110533   3.454   1.736   3.976  0.1244  0.1512  0.2977
  103SAPE  H11X10534   3.513   1.666   3.913  1.7766  1.5785  0.2126
  103SAPE  H11Y10535   3.349   1.699   3.975  0.1000  0.2268 -0.8134
  103SAPE  C31210536   3.493   1.760   4.119 -0.0480  0.4386  0.3350
  103SAPE  H12X10537   3.422   1.840   4.150  0.0302  0.7375 -0.2348
  103SAPE  H12Y10538   3.595   1.803   4.125 -0.0099  0.1263  2.9179
  103SAPE  C31310539   3.481   1.639   4.216 -0.0370  0.0183  0.3866
  103SAPE  H13X10540   3.549   1.557   4.185 -0.3438  0.5897 -2.0104
  103SAPE  H13Y10541   3.376   1.603   4.218 -0.2035  0.4578  2.7002
  103SAPE  C31410542   3.506   1.659   4.360  0.2007  0.0318  0.0947
  103SAPE  H14X10543   3.508   1.561   4.412  3.6986 -0.5212 -0.8526
  103SAPE  H14Y10544   3.421   1.713   4.406  1.1216  1.3866  0.2510
  103SAPE  C31510545   3.642   1.727   4.391 -1.1921  0.0823  0.0201
  103SAPE  H15X10546   3.658   1.822   4.335 -0.4317 -0.5671 -0.8995
  103SAPE  H15Y10547   3.716   1.661   4.341 -1.1156  2.3308 -3.1755
  103SAPE  C31610548   3.672   1.729   4.539 -0.9662  0.3800  0.2096
  103SAPE  H16X10549   3.654   1.632   4.590 -1.0097  0.6839  0.7814
  103SAPE  H16Y10550   3.617   1.812   4.589  0.0768  1.4007 -0.2838
  103SAPE  C31710551   3.817   1.766   4.561  0.6326  0.4385  0.1262
  103SAPE  H17X10552   3.832   1.868   4.521 -2.4365  1.1044  0.4063
  103SAPE  H17Y10553   3.873   1.700   4.491  0.4423  0.4768 -0.0633
  103SAPE  C31810554   3.890   1.762   4.697  0.5567 -0.0652  0.1180
  103SAPE  H18X10555   3.933   1.661   4.713  1.9534  0.5722  0.5737
  103SAPE  H18Y10556   3.815   1.777   4.777 -0.9335  1.2734 -1.4395
  103SAPE  H18Z10557   3.967   1.842   4.701  2.1939 -1.6105  1.0227
  104SAPE     N10558   2.416   0.764   3.306  0.3694 -0.0307 -0.0004
  104SAPE   HN110559   2.423   0.683   3.241 -0.5166  0.7337 -1.0799
  104SAPE   HN210560   2.320   0.802   3.316  0.4180 -0.4094  2.6174
  104SAPE   HN310561   2.481   0.839   3.273  1.1452  0.0968  1.7112
  104SAPE   C1210562   2.477   0.709   3.434  0.1667  0.5954 -0.5292
  104SAPE  H12A10563   2.402   0.719   3.515 -0.0495 -2.7413 -0.1932
  104SAPE  H12B10564   2.569   0.767   3.457  0.9332 -0.8679  0.2559
  104SAPE   C1110565   2.519   0.565   3.406 -0.4308  0.2356  0.1950
  104SAPE  H11A10566   2.586   0.521   3.484  0.0127 -0.0796 -0.3551
  104SAPE  H11B10567   2.580   0.562   3.313  0.3779  0.1202  0.7191
  104SAPE     P10568   2.405   0.333   3.337  0.3377  0.0630 -0.2315
  104SAPE   O1310569   2.353   0.255   3.454 -0.0033  0.5928 -0.0938
  104SAPE   O1410570   2.327   0.330   3.211 -0.4158  0.3272 -0.3179
  104SAPE   O1210571   2.404   0.483   3.384 -0.4925 -0.6738  0.1054
  104SAPE   O1110572   2.555   0.310   3.303 -0.5886 -0.1251  0.0752
  104SAPE    C110573   2.622   0.185   3.307 -0.2771 -0.1155  0.5761
  104SAPE    HA10574   2.568   0.108   3.248  1.8728 -1.7771  0.6356
  104SAPE    HB10575   2.718   0.199   3.252 -1.1873 -1.9693 -1.6468
  104SAPE    C210576   2.653   0.128   3.454  0.0413 -0.6900  0.0758
  104SAPE    HS10577   2.550   0.114   3.492 -0.6403 -1.6301 -1.9776
  104SAPE   O2110578   2.722   0.233   3.537 -0.0376  0.1933  0.2641
  104SAPE   C2110579   2.685   0.248   3.661  1.0013  0.0973  0.0254
  104SAPE   O2210580   2.589   0.193   3.709 -0.0475  0.1503  0.7087
  104SAPE   C2210581   2.770   0.368   3.720 -0.0693 -0.1533 -0.6124
  104SAPE   H2R10582   2.870   0.364   3.671  0.8300 -0.2490  1.1423
  104SAPE   H2S10583   2.716   0.464   3.713 -0.2352  0.2489  3.5382
  104SAPE    C310584   2.727  -0.011   3.464 -0.4116 -0.2679  0.2922
  104SAPE    HX10585   2.836   0.000   3.445 -0.5282 -0.3570 -0.4699
  104SAPE    HY10586   2.691  -0.067   3.375  1.0423 -0.2594 -0.3196
  104SAPE   O3110587   2.709  -0.079   3.585  0.8159 -0.1127 -0.4457
  104SAPE   C3110588   2.604  -0.153   3.593  0.1126  0.8487  0.7331
  104SAPE   O3210589   2.518  -0.174   3.507  0.0320 -0.4258 -0.2503
  104SAPE   C3210590   2.603  -0.224   3.728 -0.1700  0.5827  0.4386
  104SAPE   H2X10591   2.500  -0.224   3.768  0.5251 -1.6228  2.4516
  104SAPE   H2Y10592   2.667  -0.181   3.809  1.2853 -0.8432  0.0922
  104SAPE   C2310593   2.799   0.351   3.872 -0.5283  0.5971  0.6355
  104SAPE   H3R10594   2.702   0.311   3.909 -2.3641  0.5794 -3.5878
  104SAPE   H3S10595   2.832   0.446   3.919  1.2805  0.1008  0.4145
  104SAPE   C2410596   2.924   0.263   3.910 -0.2020 -0.3108  1.3152
  104SAPE   H4R10597   2.941   0.263   4.019 -0.3761 -1.4008  1.3535
  104SAPE   H4S10598   3.017   0.295   3.858 -0.6959 -2.9892 -1.5666
  104SAPE   C2510599   2.901   0.117   3.870 -0.3008 -0.4167  0.3342
  104SAPE   H5R10600   2.907   0.098   3.762  0.9762  0.7473  0.1821
  104SAPE   C2610601   2.865   0.019   3.951 -0.9515  0.3519  0.1993
  104SAPE   H6R10602   2.849  -0.080   3.904  2.0868 -0.3507  0.4399
  104SAPE   C2710603   2.838   0.019   4.103 -0.2926 -0.2058  0.7415
  104SAPE   H7R10604   2.906   0.090   4.155 -0.2344  1.0514 -0.9836
  104SAPE   H7S10605   2.872  -0.080   4.143 -1.4005 -0.7192  0.4364
  104SAPE   C2810606   2.695   0.053   4.134 -0.5119  0.2350  0.0839
  104SAPE   H8R10607   2.637   0.101   4.053  1.9944 -0.5859 -2.3594
  104SAPE   C2910608   2.633   0.008   4.242 -0.8604  0.2356 -0.0371
  104SAPE   H9R10609   2.524   0.011   4.258 -1.2068 -3.0543 -1.1291
  104SAPE  C21010610   2.718  -0.051   4.353  0.0857 -0.2686  0.0960
  104SAPE  H10R10611   2.792   0.020   4.395 -0.3888  0.1953  0.1497
  104SAPE  H10S10612   2.785  -0.134   4.319  0.6069  0.2759 -0.2163
  104SAPE  C21110613   2.643  -0.122   4.461  0.1563 -0.8225  0.4502
  104SAPE  H11R10614   2.576  -0.195   4.412 -1.2163  1.1122 -0.7014
  104SAPE  C21210615   2.643  -0.086   4.592 -0.1084  0.6244  0.1149
  104SAPE  H12R10616   2.575  -0.136   4.663 -1.4082  1.7118 -0.3283
  104SAPE  C21310617   2.741   0.010   4.649  1.1175  0.4273 -0.7112
  104SAPE  H13R10618   2.837  -0.005   4.596  2.7840  2.1670  1.5927
  104SAPE  H13S10619   2.771  -0.008   4.755  3.7356 -0.7772 -1.5876
  104SAPE  C21410620   2.706   0.157   4.629  0.3109  0.6905  0.4195
  104SAPE  H14R10621   2.642   0.178   4.542  0.6136 -1.2597 -0.3211
  104SAPE  C21510622   2.746   0.259   4.708 -0.1167  0.2703 -0.0329
  104SAPE  H15R10623   2.731   0.363   4.676  0.7126  0.6884  0.8867
  104SAPE  C21610624   2.839   0.246   4.826  0.2793  0.0666 -0.1831
  104SAPE  H16R10625   2.916   0.325   4.831  0.6265 -0.3544  1.7346
  104SAPE  H16S10626   2.895   0.150   4.825 -1.4732 -1.0115 -0.7116
  104SAPE  C21710627   2.764   0.239   4.959  0.1005  0.1384  0.8252
  104SAPE  H17R10628   2.833   0.212   5.042  1.7763 -0.5004 -0.7035
  104SAPE  H17S10629   2.676   0.171   4.956 -0.9000  1.4111 -1.0296
  104SAPE  C21810630   2.699   0.376   5.010  0.2502  0.2329 -1.2329
  104SAPE  H18R10631   2.614   0.412   4.948 -1.0571  0.1978  0.4445
  104SAPE  H18S10632   2.786   0.444   4.997  0.2674  0.2319 -1.1253
  104SAPE  C21910633   2.669   0.363   5.162 -1.0300 -0.0591  0.0544
  104SAPE  H19R10634   2.754   0.311   5.209 -0.8370 -0.7571 -1.0252
  104SAPE  H19S10635   2.585   0.292   5.177 -0.9479 -0.2554 -0.4057
  104SAPE  C22010636   2.636   0.495   5.227 -0.2775  0.1786  0.7067
  104SAPE  H20R10637   2.620   0.483   5.336  0.0254 -0.9151  0.6372
  104SAPE  H20S10638   2.545   0.535   5.177 -0.0996 -1.4102 -1.0042
  104SAPE  H20T10639   2.721   0.565   5.212 -0.6831  0.3490 -1.0916
  104SAPE   C3310640   2.634  -0.373   3.710 -0.3763 -0.1240  0.3116
  104SAPE   H3X10641   2.724  -0.383   3.646 -2.5037  0.0088 -2.9374
  104SAPE   H3Y10642   2.564  -0.416   3.635 -0.5917 -0.0016  0.4394
  104SAPE   C3410643   2.632  -0.447   3.844  0.2041  0.0081  0.0498
  104SAPE   H4X10644   2.689  -0.542   3.846  0.3934  0.1098  2.2542
  104SAPE   H4Y10645   2.526  -0.475   3.865  0.5729 -1.1958  0.4217
  104SAPE   C3510646   2.687  -0.367   3.969 -0.7851  0.3191 -0.0586
  104SAPE   H5X10647   2.625  -0.277   3.988  0.8063  1.4438  0.0160
  104SAPE   H5Y10648   2.785  -0.330   3.933 -1.3532  1.3336 -0.6020
  104SAPE   C3610649   2.707  -0.461   4.085  0.6001  0.1394 -0.7964
  104SAPE   H6X10650   2.789  -0.535   4.072 -0.3117 -0.7968 -1.4082
  104SAPE   H6Y10651   2.617  -0.525   4.093  1.0299 -0.3092  0.6790
  104SAPE   C3710652   2.713  -0.390   4.220 -0.3351  0.1940 -0.8106
  104SAPE   H7X10653   2.651  -0.298   4.216  1.3922  1.3725 -1.4875
  104SAPE   H7Y10654   2.817  -0.358   4.246 -0.8587  1.1111  0.2430
  104SAPE   C3810655   2.665  -0.481   4.337 -0.6073 -0.2902  0.1354
  104SAPE   H8X10656   2.572  -0.534   4.307 -0.6481 -1.1140  1.5952
  104SAPE   H8Y10657   2.635  -0.415   4.421 -2.0030 -0.4416 -0.2187
  104SAPE   C3910658   2.758  -0.594   4.372 -0.6517  0.7607  1.1352
  104SAPE   H9X10659   2.773  -0.658   4.282 -1.4066 -0.2973  1.7316
  104SAPE   H9Y10660   2.695  -0.655   4.440 -1.8021 -2.5115 -2.4945
  104SAPE  C31010661   2.881  -0.546   4.451  0.2045  0.3102 -0.0069
  104SAPE  H10X10662   2.924  -0.482   4.372  0.1876 -1.1172 -1.2264
  104SAPE  H10Y10663   2.941  -0.639   4.466 -1.2214 -0.8733 -1.2803
  104SAPE  C31110664   2.851  -0.486   4.588  0.3948 -0.5128 -0.0991
  104SAPE  H11X10665   2.780  -0.553   4.640  0.8722 -1.3217 -0.4681
  104SAPE  H11Y10666   2.799  -0.388   4.582  0.8585 -0.1705  1.2289
  104SAPE  C31210667   2.978  -0.473   4.679  0.3008 -0.3903  0.4006
  104SAPE  H12X10668   3.068  -0.426   4.635  0.1314 -0.4823 -0.0511
  104SAPE  H12Y10669   3.005  -0.579   4.702  0.6253 -0.2111  0.8430
  104SAPE  C31310670   2.938  -0.404   4.819 -0.0486  0.2355  0.2070
  104SAPE  H13X10671   2.847  -0.451   4.861 -1.4483  2.9614  0.3927
  104SAPE  H13Y10672   2.921  -0.296   4.804 -0.1120  0.2400  0.3166
  104SAPE  C31410673   3.042  -0.424   4.933  0.0894  0.0904  0.2278
  104SAPE  H14X10674   3.053  -0.532   4.954  0.9519  0.3642  1.2397
  104SAPE  H14Y10675   3.009  -0.367   5.022  3.4461  3.5038 -0.4442
  104SAPE  C31510676   3.183  -0.354   4.904  0.2625 -0.4761 -0.1362
  104SAPE  H15X10677   3.165  -0.252   4.866 -2.9013 -1.1856 -0.8744
  104SAPE  H15Y10678   3.231  -0.421   4.830 -0.4000 -1.3099  0.1619
  104SAPE  C31610679   3.274  -0.349   5.028  0.8138  0.9597 -0.2118
  104SAPE  H16X10680   3.255  -0.449   5.072 -3.7779  1.8596  0.2820
  104SAPE  H16Y10681   3.234  -0.279   5.104 -1.8303 -0.6716  0.0273
  104SAPE  C31710682   3.419  -0.324   4.978  0.0686  0.2756 -0.0756
  104SAPE  H17X10683   3.432  -0.223   4.933  0.6089  0.3168  0.1693
  104SAPE  H17Y10684   3.443  -0.396   4.897 -0.4135 -0.8242  0.7294
  104SAPE  C31810685   3.526  -0.346   5.084 -0.0863 -0.6046 -0.3232
  104SAPE  H18X10686   3.537  -0.267   5.162  0.4959  0.5456 -1.5359
  104SAPE  H18Y10687   3.626  -0.342   5.036 -0.6308  1.6887 -1.3669
  104SAPE  H18Z10688   3.511  -0.440   5.142  1.7672 -0.0074  1.2286
  105SAPE     N10689   6.139   5.027   3.531  0.0839 -0.5485 -0.0617
  105SAPE   HN110690   6.227   5.076   3.506 -0.0568 -0.7449 -0.9750
  105SAPE   HN210691   6.102   5.048   3.626  0.3592 -0.1959 -0.0303
  105SAPE   HN310692   6.162   4.925   3.532 -2.0581 -1.1164  2.1202
  105SAPE   C1210693   6.025   5.033   3.433  0.0825  0.6898 -0.4913
  105SAPE  H12A10694   5.942   4.973   3.475 -1.4269  1.3619 -2.3529
  105SAPE  H12B10695   6.064   5.007   3.332 -1.7385  2.5687 -1.7456
  105SAPE   C1110696   5.970   5.175   3.429 -0.1233 -0.9952 -0.3566
  105SAPE  H11A10697   5.925   5.204   3.527  2.8505 -0.0901  0.8573
  105SAPE  H11B10698   5.895   5.170   3.347 -1.0505  2.6360  0.1067
  105SAPE     P10699   6.054   5.404   3.333 -0.1139  0.3438  0.3802
  105SAPE   O1310700   6.160   5.501   3.344 -0.8406 -0.0082  0.3124
  105SAPE   O1410701   6.006   5.372   3.198 -0.2710 -0.2622 -0.7572
  105SAPE   O1210702   6.077   5.268   3.411  0.2219 -0.6966  0.3446
  105SAPE   O1110703   5.931   5.466   3.408 -0.2627  0.0174 -0.4997
  105SAPE    C110704   5.928   5.605   3.451 -0.5348  0.1408  1.0257
  105SAPE    HA10705   5.973   5.671   3.374 -1.0139  0.3006  0.8808
  105SAPE    HB10706   5.822   5.637   3.457 -1.0560 -0.5360 -2.4681
  105SAPE    C210707   5.966   5.614   3.599 -0.0925 -0.3508  0.0217
  105SAPE    HS10708   5.946   5.716   3.638  0.9038 -0.7459  1.6271
  105SAPE   O2110709   6.108   5.593   3.626  0.4316 -0.4431  0.0280
  105SAPE   C2110710   6.188   5.694   3.584  0.4597  0.4095 -0.1184
  105SAPE   O2210711   6.148   5.796   3.535 -0.9413  0.2670  0.0962
  105SAPE   C2210712   6.333   5.651   3.607  0.6045 -0.3966  0.0743
  105SAPE   H2R10713   6.353   5.558   3.549 -1.6728 -0.2252 -1.1218
  105SAPE   H2S10714   6.395   5.732   3.563  1.5092 -1.9341 -1.5957
  105SAPE    C310715   5.896   5.520   3.702  0.6049 -0.5472  0.0666
  105SAPE    HX10716   5.927   5.418   3.669  1.6105  0.8644 -4.0125
  105SAPE    HY10717   5.788   5.513   3.677  1.1561 -4.1301 -2.1570
  105SAPE   O3110718   5.915   5.556   3.846  0.2446 -0.4017  0.1255
  105SAPE   C3110719   5.985   5.460   3.912 -0.5330 -0.1485  0.7553
  105SAPE   O3210720   6.044   5.365   3.857  0.0368  0.1070 -0.1502
  105SAPE   C3210721   5.971   5.490   4.064  0.0093  0.3290  0.1158
  105SAPE   H2X10722   5.873   5.450   4.098  0.1769 -0.1906 -0.0086
  105SAPE   H2Y10723   5.986   5.597   4.091  1.2629  0.4103 -0.8300
  105SAPE   C2310724   6.370   5.667   3.756 -0.1430  0.2879  0.0016
  105SAPE   H3R10725   6.441   5.588   3.789  0.7569  1.3760  0.7793
  105SAPE   H3S10726   6.279   5.648   3.817  0.7445  0.0910  1.3039
  105SAPE   C2410727   6.447   5.796   3.795  0.5636  0.0945 -0.2508
  105SAPE   H4R10728   6.529   5.811   3.721  1.0982 -1.5974 -0.0381
  105SAPE   H4S10729   6.487   5.791   3.898  0.1830 -0.2926 -0.1190
  105SAPE   C2510730   6.347   5.915   3.785 -1.2521 -0.3692 -0.0575
  105SAPE   H5R10731   6.340   5.957   3.683 -1.2776 -1.4748 -0.5226
  105SAPE   C2610732   6.272   5.974   3.884 -0.5141  0.4478 -0.4804
  105SAPE   H6R10733   6.188   6.035   3.850 -0.1701  1.5474  0.5710
  105SAPE   C2710734   6.267   5.918   4.019  0.3449 -0.1316  0.4581
  105SAPE   H7R10735   6.357   5.860   4.050 -1.0780 -2.4596  0.4990
  105SAPE   H7S10736   6.182   5.847   4.006  0.1960 -0.0087  0.7460
  105SAPE   C2810737   6.230   6.011   4.122 -0.2546  0.6905 -0.3886
  105SAPE   H8R10738   6.295   6.100   4.117 -0.0868  0.5273 -1.1859
  105SAPE   C2910739   6.117   6.006   4.206 -0.0772 -0.0033 -0.4962
  105SAPE   H9R10740   6.087   6.091   4.268 -0.1212  0.2244 -0.8243
  105SAPE  C21010741   6.026   5.883   4.215  0.6353  0.0296 -0.2565
  105SAPE  H10R10742   5.992   5.879   4.320 -0.0292  0.7102 -0.4344
  105SAPE  H10S10743   6.075   5.783   4.210  0.2747 -0.2850  1.7183
  105SAPE  C21110744   5.903   5.881   4.117 -0.1165 -0.7453  0.1480
  105SAPE  H11R10745   5.936   5.855   4.016  1.7273 -0.8688  0.7375
  105SAPE  C21210746   5.777   5.918   4.150  0.6228  0.2082  0.0796
  105SAPE  H12R10747   5.703   5.930   4.070  1.2809 -0.3763 -0.6289
  105SAPE  C21310748   5.717   5.937   4.287 -0.9056  0.0525 -0.9836
  105SAPE  H13R10749   5.788   6.002   4.343 -0.3268 -2.5032  1.4584
  105SAPE  H13S10750   5.725   5.838   4.337  1.3253  0.0650 -1.2101
  105SAPE  C21410751   5.577   5.991   4.281  0.4093 -0.0030  0.3884
  105SAPE  H14R10752   5.558   6.073   4.210 -0.2572 -0.5961 -0.1380
  105SAPE  C21510753   5.479   5.976   4.375 -0.0549 -0.7550  1.1729
  105SAPE  H15R10754   5.387   6.037   4.363  1.4173  1.4205  0.2877
  105SAPE  C21610755   5.495   5.896   4.503  0.5672 -0.4532 -0.6666
  105SAPE  H16R10756   5.558   5.806   4.485 -0.4153 -2.1965  3.4643
  105SAPE  H16S10757   5.401   5.851   4.542 -0.7795 -0.2561 -3.4007
  105SAPE  C21710758   5.554   5.971   4.614 -0.8722 -0.0853 -0.4336
  105SAPE  H17R10759   5.648   6.021   4.579 -1.4654  1.8625  0.5781
  105SAPE  H17S10760   5.576   5.909   4.703 -1.1860 -0.7814 -0.8346
  105SAPE  C21810761   5.460   6.075   4.667 -0.9467 -0.1522 -0.0338
  105SAPE  H18R10762   5.364   6.038   4.709 -0.3460  1.1776  2.6479
  105SAPE  H18S10763   5.428   6.143   4.585 -0.3816 -0.6850 -0.7155
  105SAPE  C21910764   5.533   6.166   4.769 -0.8848 -0.1407 -0.4402
  105SAPE  H19R10765   5.627   6.191   4.717 -0.8594  0.6835 -0.0006
  105SAPE  H19S10766   5.553   6.104   4.859  0.8677 -0.9293 -1.3410
  105SAPE  C22010767   5.460   6.297   4.816  0.1319 -0.1577  0.6298
  105SAPE  H20R10768   5.352   6.286   4.841 -0.0011 -0.5922 -0.1002
  105SAPE  H20S10769   5.453   6.356   4.722 -1.3907  0.7635  1.2941
  105SAPE  H20T10770   5.515   6.362   4.887 -0.4966  1.8502 -0.6349
  105SAPE   C3310771   6.078   5.411   4.146 -0.2814 -0.5203  0.3994
  105SAPE   H3X10772   6.173   5.466   4.127  0.5781 -2.5845 -1.8626
  105SAPE   H3Y10773   6.081   5.305   4.112 -0.1286 -0.7397  1.0674
  105SAPE   C3410774   6.051   5.418   4.298 -0.2398  0.0875 -0.3147
  105SAPE   H4X10775   5.952   5.382   4.333 -0.0522  0.0339  0.1784
  105SAPE   H4Y10776   6.052   5.527   4.320 -1.7773  0.6050 -2.5081
  105SAPE   C3510777   6.155   5.356   4.399 -0.7762  0.4114  0.1101
  105SAPE   H5X10778   6.245   5.417   4.421  0.1235 -1.1606  0.9746
  105SAPE   H5Y10779   6.188   5.261   4.353 -1.4756 -0.4363  1.3023
  105SAPE   C3610780   6.091   5.313   4.530 -0.5330 -0.4242  0.9346
  105SAPE   H6X10781   6.056   5.208   4.516 -0.0847 -0.3207 -1.3399
  105SAPE   H6Y10782   6.003   5.380   4.539  0.1114  0.5636  0.0782
  105SAPE   C3710783   6.187   5.315   4.645  0.0919 -0.5959  0.4481
  105SAPE   H7X10784   6.228   5.417   4.665 -1.3819  0.6107 -2.1791
  105SAPE   H7Y10785   6.273   5.254   4.610  0.5316  0.9010 -1.2442
  105SAPE   C3810786   6.117   5.257   4.771 -0.1150  0.0683 -0.4874
  105SAPE   H8X10787   6.096   5.150   4.750 -1.3997 -0.3881  2.5177
  105SAPE   H8Y10788   6.020   5.310   4.776 -0.5386 -0.7990  1.7635
  105SAPE   C3910789   6.189   5.258   4.908 -0.4590 -0.5756 -0.3589
  105SAPE   H9X10790   6.207   5.366   4.930  1.3746 -0.3243 -2.7239
  105SAPE   H9Y10791   6.284   5.201   4.901 -0.9588 -1.6499  1.1424
  105SAPE  C31010792   6.113   5.182   5.019 -0.0923 -0.1806  0.2029
  105SAPE  H10X10793   6.181   5.188   5.107  0.8248 -1.0881 -0.4301
  105SAPE  H10Y10794   6.107   5.075   4.991  0.8653  0.0966 -1.1222
  105SAPE  C31110795   5.992   5.253   5.061  0.0773 -0.4734  0.1214
  105SAPE  H11X10796   5.924   5.276   4.976 -1.1903 -1.4547  0.8386
  105SAPE  H11Y10797   6.028   5.345   5.111  0.0310 -0.4184  0.0556
  105SAPE  C31210798   5.908   5.175   5.166 -0.1234  1.2150 -0.3201
  105SAPE  H12X10799   5.984   5.138   5.239 -0.8386 -0.6354 -0.4499
  105SAPE  H12Y10800   5.853   5.088   5.125 -0.5000  0.5549  1.4636
  105SAPE  C31310801   5.821   5.268   5.248  0.1651  0.8240 -0.1512
  105SAPE  H13X10802   5.749   5.316   5.179 -0.4037 -0.3804 -0.4275
  105SAPE  H13Y10803   5.882   5.349   5.294 -0.3840 -0.2542  2.7457
  105SAPE  C31410804   5.736   5.202   5.359  0.3008  0.4748 -0.0559
  105SAPE  H14X10805   5.658   5.136   5.317  1.4714 -0.4420 -0.8639
  105SAPE  H14Y10806   5.680   5.285   5.406 -0.5051  0.7655 -1.4541
  105SAPE  C31510807   5.816   5.124   5.460 -0.5120  0.2364 -0.4474
  105SAPE  H15X10808   5.895   5.182   5.512 -1.7387 -0.3178  2.1935
  105SAPE  H15Y10809   5.878   5.044   5.414  1.1613  1.2939 -0.1269
  105SAPE  C31610810   5.734   5.075   5.576  0.6935  1.0426 -0.3695
  105SAPE  H16X10811   5.650   5.007   5.547  2.1976 -0.5583 -1.1286
  105SAPE  H16Y10812   5.689   5.169   5.617 -0.9418  0.2930 -0.3747
  105SAPE  C31710813   5.817   5.014   5.695  0.3952 -0.5446  0.4186
  105SAPE  H17X10814   5.887   5.092   5.733 -0.5409 -0.2487  1.5994
  105SAPE  H17Y10815   5.876   4.925   5.665  1.4541 -0.5980  2.4811
  105SAPE  C31810816   5.723   4.989   5.817  0.1016  0.1458 -0.6527
  105SAPE  H18X10817   5.650   4.915   5.776  0.6967 -1.4910  1.0702
  105SAPE  H18Y10818   5.681   5.083   5.857  0.9571 -0.3046  1.4286
  105SAPE  H18Z10819   5.780   4.926   5.889  1.0761 -2.0489 -3.1448
  106SAPE     N10820   5.406   6.055   3.139  0.1463 -0.2800 -0.0769
  106SAPE   HN110821   5.362   6.052   3.045  0.7089  2.0997 -0.4801
  106SAPE   HN210822   5.483   5.985   3.142  1.0128  0.6832  0.5959
  106SAPE   HN310823   5.337   6.026   3.211 -0.0720 -0.2369 -0.2666
  106SAPE   C1210824   5.458   6.195   3.156 -1.0282  0.6785 -0.4388
  106SAPE  H12A10825   5.493   6.210   3.260  0.4812 -2.5882 -0.3384
  106SAPE  H12B10826   5.381   6.267   3.121 -0.0423  2.2290  0.4491
  106SAPE   C1110827   5.588   6.213   3.079 -0.1499 -0.9967  0.1836
  106SAPE  H11A10828   5.608   6.323   3.081 -0.3965 -0.9634  1.5750
  106SAPE  H11B10829   5.560   6.185   2.976 -0.0858 -1.0079  0.1693
  106SAPE     P10830   5.814   6.206   3.216 -0.5518  0.1321  0.1978
  106SAPE   O1310831   5.937   6.212   3.133  0.1119  0.0436  0.4181
  106SAPE   O1410832   5.767   6.330   3.281 -0.0003  0.1920  0.8776
  106SAPE   O1210833   5.703   6.136   3.119  0.3567 -0.0470 -0.1420
  106SAPE   O1110834   5.846   6.100   3.327  0.2576  0.3659 -0.5685
  106SAPE    C110835   5.765   5.988   3.351 -0.5345  0.2076 -0.2238
  106SAPE    HA10836   5.707   5.951   3.263 -0.3947 -0.7313  0.0679
  106SAPE    HB10837   5.831   5.905   3.382 -1.5428 -1.6849 -2.7341
  106SAPE    C210838   5.671   6.015   3.467 -0.3344  0.6717 -1.2054
  106SAPE    HS10839   5.625   6.114   3.445 -0.6302  0.4250 -1.6977
  106SAPE   O2110840   5.751   6.012   3.586 -0.1073  0.7124 -0.7096
  106SAPE   C2110841   5.782   6.132   3.640 -0.0357  0.4043 -0.5505
  106SAPE   O2210842   5.747   6.239   3.601 -0.5525 -1.1669 -0.1837
  106SAPE   C2210843   5.865   6.107   3.766 -0.1723  0.3437  0.7099
  106SAPE   H2R10844   5.807   6.038   3.831 -1.1330  0.7874  0.3407
  106SAPE   H2S10845   5.954   6.047   3.737 -2.8705 -2.3419 -2.9511
  106SAPE    C310846   5.575   5.895   3.483  0.0979 -0.9248 -0.2411
  106SAPE    HX10847   5.629   5.798   3.489  2.1632  0.1467 -0.2811
  106SAPE    HY10848   5.518   5.892   3.388 -1.7720  2.1651  0.6275
  106SAPE   O3110849   5.492   5.898   3.600 -0.3486 -0.0586 -0.5059
  106SAPE   C3110850   5.380   5.966   3.589 -0.3747 -0.4116 -0.0656
  106SAPE   O3210851   5.343   6.025   3.494 -0.2812 -0.0449 -0.0472
  106SAPE   C3210852   5.304   5.960   3.725 -0.6474 -0.3893  0.1124
  106SAPE   H2X10853   5.284   5.852   3.744 -1.1113 -0.0685  1.5255
  106SAPE   H2Y10854   5.207   6.013   3.710 -0.6064  0.0786  1.4017
  106SAPE   C2310855   5.889   6.240   3.839  0.4801  0.0149 -0.7736
  106SAPE   H3R10856   5.791   6.291   3.855  0.2959 -0.8467  1.0541
  106SAPE   H3S10857   5.950   6.314   3.783  0.2753  1.3528  0.7206
  106SAPE   C2410858   5.952   6.225   3.980 -1.0211  0.5144 -0.1310
  106SAPE   H4R10859   6.057   6.203   3.953 -1.0348 -1.3070  1.1513
  106SAPE   H4S10860   5.900   6.135   4.019 -0.8063  0.0702 -0.8392
  106SAPE   C2510861   5.952   6.347   4.065 -0.2851  0.3241 -0.0674
  106SAPE   H5R10862   6.032   6.416   4.035 -0.0364 -0.5043 -1.3804
  106SAPE   C2610863   5.884   6.378   4.178 -1.2790 -0.4957  0.2055
  106SAPE   H6R10864   5.895   6.485   4.203  1.9653 -0.5082 -0.7272
  106SAPE   C2710865   5.774   6.297   4.237  0.4228  0.0672 -0.7722
  106SAPE   H7R10866   5.809   6.193   4.221  1.1048  0.4777 -2.1182
  106SAPE   H7S10867   5.683   6.303   4.174 -1.3276 -2.5241  1.2789
  106SAPE   C2810868   5.740   6.326   4.389  0.1736 -0.1702  0.0714
  106SAPE   H8R10869   5.644   6.379   4.395 -0.5565 -1.4605  0.0403
  106SAPE   C2910870   5.801   6.294   4.503 -0.5493 -0.5629  0.0953
  106SAPE   H9R10871   5.765   6.325   4.602  1.8812 -2.4066  1.6462
  106SAPE  C21010872   5.942   6.219   4.502  0.5471 -0.5233  0.1381
  106SAPE  H10R10873   6.018   6.293   4.469 -1.2877  2.4442  2.1488
  106SAPE  H10S10874   5.944   6.139   4.425 -0.4893 -1.3215  0.9185
  106SAPE  C21110875   5.975   6.165   4.636  0.0669 -0.3530  0.4594
  106SAPE  H11R10876   6.026   6.238   4.702  1.4719 -0.9277  0.0524
  106SAPE  C21210877   5.965   6.042   4.689 -0.6376 -0.0987 -0.0157
  106SAPE  H12R10878   5.996   6.019   4.792  0.0831 -2.1879 -0.6437
  106SAPE  C21310879   5.905   5.920   4.629 -0.6195  0.1319  0.0317
  106SAPE  H13R10880   5.870   5.945   4.527  0.2763 -1.6808 -0.7652
  106SAPE  H13S10881   5.812   5.884   4.678 -2.0291  0.6223 -2.1471
  106SAPE  C21410882   6.005   5.805   4.618  1.3131 -1.0771 -0.0532
  106SAPE  H14R10883   6.053   5.796   4.520  0.4624  0.1532 -0.6156
  106SAPE  C21510884   6.043   5.725   4.718  0.8716 -0.3470  0.3610
  106SAPE  H15R10885   6.118   5.647   4.695  0.7164 -0.5968  0.6891
  106SAPE  C21610886   5.997   5.723   4.864  0.0578  0.1105  0.0711
  106SAPE  H16R10887   5.925   5.640   4.883 -0.3518 -0.1284 -2.2491
  106SAPE  H16S10888   5.944   5.818   4.888 -2.2053 -1.0185 -0.2575
  106SAPE  C21710889   6.109   5.699   4.965  0.0155  0.2616 -0.2967
  106SAPE  H17R10890   6.200   5.762   4.954  0.7657 -0.8322 -0.4265
  106SAPE  H17S10891   6.151   5.599   4.945 -1.1256  0.3000 -3.3602
  106SAPE  C21810892   6.060   5.700   5.116 -0.7705 -0.3785 -0.3594
  106SAPE  H18R10893   5.996   5.611   5.135 -0.9117  0.3827  3.3055
  106SAPE  H18S10894   6.004   5.792   5.141  0.1246 -0.3408  1.6283
  106SAPE  C21910895   6.175   5.685   5.212  0.1039 -0.4730  0.7958
  106SAPE  H19R10896   6.244   5.771   5.195 -1.2624  0.3024 -1.1777
  106SAPE  H19S10897   6.238   5.596   5.193 -0.4218 -0.4026 -1.5493
  106SAPE  C22010898   6.131   5.682   5.358  0.0418 -0.1149 -0.2371
  106SAPE  H20R10899   6.215   5.679   5.431 -0.9727 -0.6367  0.9503
  106SAPE  H20S10900   6.073   5.587   5.362  2.2957 -1.7023 -2.3886
  106SAPE  H20T10901   6.062   5.765   5.386 -0.3815 -0.2024 -0.9945
  106SAPE   C3310902   5.374   6.024   3.840 -0.0662 -0.1754 -0.2606
  106SAPE   H3X10903   5.483   6.003   3.833  0.2727  1.1487  0.7822
  106SAPE   H3Y10904   5.332   5.988   3.936  0.6719  2.0243  0.9509
  106SAPE   C3410905   5.348   6.171   3.839 -0.4378 -0.4529 -0.2969
  106SAPE   H4X10906   5.247   6.199   3.800  0.3460 -1.3704 -3.2672
  106SAPE   H4Y10907   5.412   6.199   3.753 -0.8348 -0.7262 -0.6907
  106SAPE   C3510908   5.397   6.259   3.955 -0.2864 -1.0310  0.3467
  106SAPE   H5X10909   5.440   6.350   3.909 -0.9327 -0.1873  1.3477
  106SAPE   H5Y10910   5.476   6.200   4.008 -0.4239 -1.3632  0.1840
  106SAPE   C3610911   5.289   6.301   4.054 -0.6430 -0.0409  0.4257
  106SAPE   H6X10912   5.236   6.211   4.090  2.1071 -0.9988  2.4311
  106SAPE   H6Y10913   5.214   6.360   3.998 -0.7950 -0.9270 -0.3183
  106SAPE   C3710914   5.337   6.378   4.186 -0.1426  0.3382 -0.2545
  106SAPE   H7X10915   5.402   6.312   4.248  0.5510 -0.2829 -1.6091
  106SAPE   H7Y10916   5.242   6.409   4.235  0.0905  3.5823 -1.6022
  106SAPE   C3810917   5.427   6.500   4.161  0.1798 -0.1844 -0.1288
  106SAPE   H8X10918   5.378   6.559   4.081  2.2735 -1.0265 -2.1765
  106SAPE   H8Y10919   5.524   6.462   4.121  0.2855 -0.2342  0.1734
  106SAPE   C3910920   5.457   6.579   4.286 -0.5100  0.0330 -0.6275
  106SAPE   H9X10921   5.501   6.516   4.366  0.9144  0.2022 -1.2341
  106SAPE   H9Y10922   5.364   6.628   4.320  0.3249  0.9705  0.4138
  106SAPE  C31010923   5.564   6.689   4.266 -0.0248  0.0199 -0.1205
  106SAPE  H10X10924   5.543   6.752   4.177  1.0624 -0.3770 -0.6888
  106SAPE  H10Y10925   5.656   6.642   4.224  2.0969  1.6539  2.3978
  106SAPE  C31110926   5.603   6.776   4.389 -0.1103  0.1294 -0.2619
  106SAPE  H11X10927   5.640   6.874   4.353  1.5176  0.2985  1.6324
  106SAPE  H11Y10928   5.690   6.733   4.444  1.2339  3.5455  0.5139
  106SAPE  C31210929   5.499   6.813   4.500 -0.1278  0.1693 -0.4529
  106SAPE  H12X10930   5.479   6.715   4.547  0.8199 -0.5428 -1.4803
  106SAPE  H12Y10931   5.406   6.860   4.462  0.9233  3.6400  0.8999
  106SAPE  C31310932   5.553   6.903   4.615 -0.1581 -0.0445 -0.0660
  106SAPE  H13X10933   5.470   6.925   4.686 -0.1497 -0.9481  0.2393
  106SAPE  H13Y10934   5.598   6.988   4.561  1.0695 -0.5936  0.0549
  106SAPE  C31410935   5.659   6.837   4.701 -0.3814  0.3399 -0.3030
  106SAPE  H14X10936   5.705   6.918   4.761 -0.9543  1.9974 -1.9913
  106SAPE  H14Y10937   5.730   6.771   4.647 -2.5689 -2.1934 -0.2534
  106SAPE  C31510938   5.600   6.740   4.812  0.4300  0.4515 -0.2725
  106SAPE  H15X10939   5.511   6.693   4.766 -0.7493  0.2887  1.9880
  106SAPE  H15Y10940   5.559   6.799   4.898  0.3009  0.5299 -0.3880
  106SAPE  C31610941   5.708   6.652   4.867  0.8406 -1.0067  0.3109
  106SAPE  H16X10942   5.810   6.695   4.872 -0.4296  2.3474 -0.1656
  106SAPE  H16Y10943   5.706   6.561   4.803 -1.5354 -0.3736 -0.6330
  106SAPE  C31710944   5.670   6.615   5.014  0.1779 -0.9452 -0.6595
  106SAPE  H17X10945   5.588   6.540   5.019 -1.9746  1.3041  0.1519
  106SAPE  H17Y10946   5.645   6.705   5.074  1.0372 -1.1428  0.0253
  106SAPE  C31810947   5.789   6.549   5.076 -0.1786  0.5168 -0.3578
  106SAPE  H18X10948   5.868   6.621   5.105  0.8345 -0.2308 -1.2062
  106SAPE  H18Y10949   5.836   6.463   5.024  0.2062  0.0328  0.7607
  106SAPE  H18Z10950   5.748   6.507   5.170 -2.6960  1.3308 -1.0101
  107SAPE     N10951   2.427   6.165   3.015  0.4210  0.1596  0.1023
  107SAPE   HN110952   2.458   6.164   2.915  1.2772  1.1921  0.3439
  107SAPE   HN210953   2.334   6.120   3.022  0.0099  0.7565 -1.1342
  107SAPE   HN310954   2.411   6.264   3.040 -1.7923 -0.1391  0.0817
  107SAPE   C1210955   2.525   6.101   3.110  0.3795  0.2526  0.0850
  107SAPE  H12A10956   2.592   6.184   3.144 -1.2504  2.9646 -2.7534
  107SAPE  H12B10957   2.587   6.027   3.055  0.0362  0.7210 -0.9651
  107SAPE   C1110958   2.446   6.011   3.215 -0.1400 -0.4130 -0.2833
  107SAPE  H11A10959   2.379   6.080   3.270  1.2380  1.7136 -1.1603
  107SAPE  H11B10960   2.517   5.965   3.287  1.0124  0.1072 -1.0766
  107SAPE     P10961   2.219   5.899   3.126 -0.0672  0.3879  0.0963
  107SAPE   O1310962   2.171   6.026   3.074  0.3309  0.2061  0.3153
  107SAPE   O1410963   2.191   5.781   3.043 -0.2039  0.0795 -0.1046
  107SAPE   O1210964   2.373   5.911   3.146  0.3224 -0.1391  0.0746
  107SAPE   O1110965   2.163   5.878   3.270  0.0728  0.0629  0.2623
  107SAPE    C110966   2.159   5.974   3.375  0.6031  0.1413 -0.1116
  107SAPE    HA10967   2.170   6.080   3.345 -0.7254  0.8209  1.6506
  107SAPE    HB10968   2.062   5.965   3.427  0.5523 -1.2112 -0.4024
  107SAPE    C210969   2.248   5.957   3.496 -0.3586  0.5058  0.2992
  107SAPE    HS10970   2.342   6.014   3.476  0.4914 -0.4484  1.4435
  107SAPE   O2110971   2.279   5.816   3.525 -0.0481  0.0080 -0.1804
  107SAPE   C2110972   2.371   5.789   3.610 -0.1293  0.7672  0.8585
  107SAPE   O2210973   2.435   5.875   3.667 -0.1020 -0.4946  0.2525
  107SAPE   C2210974   2.411   5.645   3.606 -0.6857 -0.0226  0.0840
  107SAPE   H2R10975   2.341   5.581   3.664  0.7599 -1.4871  0.2775
  107SAPE   H2S10976   2.407   5.605   3.502 -1.7183 -1.0812  0.5037
  107SAPE    C310977   2.180   6.023   3.619 -0.4482 -0.6437  0.8385
  107SAPE    HX10978   2.252   6.014   3.703  1.4084 -0.0194 -0.6179
  107SAPE    HY10979   2.097   5.953   3.647 -1.1397  1.0036  3.1902
  107SAPE   O3110980   2.125   6.160   3.619 -0.7216  0.4581 -0.0829
  107SAPE   C3110981   2.217   6.261   3.626 -0.4146  0.4730 -0.2044
  107SAPE   O3210982   2.338   6.251   3.621  0.3829  0.5046 -0.1428
  107SAPE   C3210983   2.143   6.390   3.618  0.3572 -0.5317 -1.0250
  107SAPE   H2X10984   2.043   6.369   3.574  1.0006 -1.5349 -2.0532
  107SAPE   H2Y10985   2.187   6.460   3.545 -2.8018  2.2969 -0.4767
  107SAPE   C2310986   2.553   5.621   3.674  0.6637  0.3404  0.0043
  107SAPE   H3R10987   2.552   5.669   3.775 -1.6798  0.7203 -0.1515
  107SAPE   H3S10988   2.616   5.684   3.608 -0.2104 -0.8636 -2.0803
  107SAPE   C2410989   2.597   5.474   3.674 -0.1907  0.4119  0.6058
  107SAPE   H4R10990   2.517   5.422   3.731 -1.2443 -1.0298 -2.0127
  107SAPE   H4S10991   2.695   5.472   3.725 -0.1269  1.1513  0.5341
  107SAPE   C2510992   2.623   5.414   3.539 -0.3418 -0.5121 -0.1402
  107SAPE   H5R10993   2.601   5.482   3.456 -0.3576 -0.1015  0.1939
  107SAPE   C2610994   2.684   5.297   3.502 -0.1603 -0.3517 -0.1453
  107SAPE   H6R10995   2.681   5.270   3.396 -2.8303 -0.5056 -0.0760
  107SAPE   C2710996   2.719   5.183   3.596 -0.3308  0.7253 -1.0045
  107SAPE   H7R10997   2.663   5.205   3.689 -0.6840  3.8995 -1.8304
  107SAPE   H7S10998   2.826   5.191   3.626 -0.3116  1.0158 -1.1490
  107SAPE   C2810999   2.673   5.047   3.548 -0.3974 -0.2632  0.0881
  107SAPE   H8R11000   2.601   5.042   3.465 -0.4305 -4.1339  0.1643
  107SAPE   C2911001   2.706   4.931   3.607 -0.5000 -0.2809  0.7832
  107SAPE   H9R11002   2.661   4.843   3.558  3.5794 -0.8421 -2.5394
  107SAPE  C21011003   2.802   4.920   3.723  0.6555  0.0222 -0.1781
  107SAPE  H10R11004   2.875   5.003   3.732 -0.4406  0.8003  2.3083
  107SAPE  H10S11005   2.866   4.829   3.714 -0.3717 -1.0941  2.5965
  107SAPE  C21111006   2.727   4.906   3.855 -0.4773  0.3681  0.0038
  107SAPE  H11R11007   2.662   4.817   3.851  0.6151 -0.4037 -1.5133
  107SAPE  C21211008   2.728   5.000   3.951  0.4494  0.7999 -0.2427
  107SAPE  H12R11009   2.655   4.976   4.031  3.4777 -1.0189  2.1994
  107SAPE  C21311010   2.794   5.132   3.970  0.9088  0.0501 -0.4584
  107SAPE  H13R11011   2.809   5.182   3.872  0.3387 -1.8380 -1.5613
  107SAPE  H13S11012   2.890   5.130   4.027 -0.1241  2.2909  1.5358
  107SAPE  C21411013   2.702   5.213   4.058 -0.2019 -0.0972  0.1991
  107SAPE  H14R11014   2.632   5.270   3.995 -0.0234  1.1148  1.0689
  107SAPE  C21511015   2.704   5.248   4.188  0.4599 -0.0240  0.0297
  107SAPE  H15R11016   2.622   5.311   4.225  0.2109  0.6668 -1.5974
  107SAPE  C21611017   2.807   5.191   4.284  0.5548 -0.4255  0.3677
  107SAPE  H16R11018   2.879   5.268   4.319  0.1132  0.5196 -0.7008
  107SAPE  H16S11019   2.879   5.134   4.221 -0.1042 -1.2395  0.3283
  107SAPE  C21711020   2.760   5.106   4.400 -0.2984 -0.1865  0.9477
  107SAPE  H17R11021   2.696   5.171   4.465  1.4513  0.2475  2.3178
  107SAPE  H17S11022   2.845   5.071   4.462 -0.6891 -2.4390  0.3233
  107SAPE  C21811023   2.679   4.971   4.371 -0.3412 -0.4294  0.4919
  107SAPE  H18R11024   2.745   4.910   4.307 -0.5900 -0.4235  0.2268
  107SAPE  H18S11025   2.598   5.000   4.300  0.4577 -0.4783 -0.4496
  107SAPE  C21911026   2.620   4.903   4.494 -0.6556  0.7571 -0.1218
  107SAPE  H19R11027   2.538   4.964   4.538 -2.1240 -2.0275  1.3037
  107SAPE  H19S11028   2.692   4.896   4.578  0.2960  1.0304 -0.9082
  107SAPE  C22011029   2.565   4.759   4.452 -0.0337  0.3749  0.6215
  107SAPE  H20R11030   2.654   4.703   4.416 -0.7831  0.3241 -1.2009
  107SAPE  H20S11031   2.478   4.771   4.385  0.0782 -1.0417  0.2056
  107SAPE  H20T11032   2.519   4.706   4.538 -2.1192 -2.4642 -2.0309
  107SAPE   C3311033   2.125   6.460   3.759  0.1835  0.3094 -0.0256
  107SAPE   H3X11034   2.089   6.388   3.836  0.5838  0.2823  0.1376
  107SAPE   H3Y11035   2.042   6.533   3.745  0.4988  1.1657  2.2367
  107SAPE   C3411036   2.256   6.541   3.799 -0.2200  0.3853  0.0975
  107SAPE   H4X11037   2.252   6.621   3.722 -0.7028 -0.0148 -0.2989
  107SAPE   H4Y11038   2.343   6.474   3.782 -0.0140  0.2586  1.5440
  107SAPE   C3511039   2.259   6.602   3.942  0.2047  0.6509 -0.6260
  107SAPE   H5X11040   2.165   6.658   3.960  0.8041  2.1442 -1.9911
  107SAPE   H5Y11041   2.339   6.675   3.964 -0.2575  0.7480  0.8769
  107SAPE   C3611042   2.283   6.494   4.054 -0.4126 -0.8485 -0.2009
  107SAPE   H6X11043   2.382   6.444   4.043 -1.0752 -2.7830  1.8462
  107SAPE   H6Y11044   2.212   6.413   4.028  0.3596 -1.5914 -0.0457
  107SAPE   C3711045   2.245   6.532   4.194 -0.7737 -0.2626  0.7677
  107SAPE   H7X11046   2.249   6.443   4.260  1.9064 -0.0299  1.0207
  107SAPE   H7Y11047   2.137   6.557   4.195 -0.1349  3.0690  2.7492
  107SAPE   C3811048   2.330   6.635   4.260  1.0364 -0.2187 -0.1479
  107SAPE   H8X11049   2.334   6.724   4.194 -0.5592 -0.1886 -0.2504
  107SAPE   H8Y11050   2.428   6.591   4.287  1.1839  0.8079  1.1169
  107SAPE   C3911051   2.250   6.689   4.385  0.1428 -0.3315  0.3944
  107SAPE   H9X11052   2.152   6.721   4.342 -0.0164 -0.8568  0.3620
  107SAPE   H9Y11053   2.305   6.777   4.424 -0.7578  0.3929  0.0629
  107SAPE  C31011054   2.234   6.591   4.505 -0.4696  0.4439  0.5914
  107SAPE  H10X11055   2.333   6.544   4.522 -0.8530 -0.6584 -0.0966
  107SAPE  H10Y11056   2.166   6.504   4.492 -0.4660  0.6880 -1.3548
  107SAPE  C31111057   2.185   6.671   4.627 -0.5197 -0.5926  0.0302
  107SAPE  H11X11058   2.084   6.712   4.608 -0.2863  0.5048  1.0277
  107SAPE  H11Y11059   2.251   6.759   4.646 -2.3381  0.4743  1.6798
  107SAPE  C31211060   2.181   6.593   4.756  0.1213  0.2920 -0.5363
  107SAPE  H12X11061   2.136   6.493   4.735  0.2610  0.4158 -1.4525
  107SAPE  H12Y11062   2.128   6.643   4.840  2.1360 -1.0841  1.6979
  107SAPE  C31311063   2.318   6.554   4.810 -0.3713  0.3073  0.2552
  107SAPE  H13X11064   2.376   6.489   4.740  0.3358  0.3675  0.7834
  107SAPE  H13Y11065   2.293   6.487   4.895 -0.5387 -2.9003 -2.1178
  107SAPE  C31411066   2.410   6.659   4.859  0.9048 -0.5103  0.8953
  107SAPE  H14X11067   2.417   6.750   4.796 -0.7062 -0.9148  0.0857
  107SAPE  H14Y11068   2.511   6.614   4.869  1.3006  0.4663  1.4979
  107SAPE  C31511069   2.372   6.704   5.005 -0.2463  0.4831  0.4038
  107SAPE  H15X11070   2.355   6.610   5.062 -0.2723  0.9797  1.2288
  107SAPE  H15Y11071   2.273   6.754   4.996 -0.1063  0.4248 -2.2658
  107SAPE  C31611072   2.480   6.789   5.066  0.7415 -0.2938  0.2181
  107SAPE  H16X11073   2.441   6.832   5.160  1.5676  0.9360  0.0294
  107SAPE  H16Y11074   2.508   6.875   5.000 -0.3327 -0.4296 -0.4325
  107SAPE  C31711075   2.598   6.706   5.105 -0.0575 -0.1081 -0.0890
  107SAPE  H17X11076   2.665   6.679   5.021  0.8513  0.4519  0.4411
  107SAPE  H17Y11077   2.565   6.610   5.151 -2.2205 -0.3620 -2.0207
  107SAPE  C31811078   2.684   6.782   5.208 -0.0125 -0.4595 -0.3172
  107SAPE  H18X11079   2.760   6.713   5.251  0.0602  0.4607  1.0930
  107SAPE  H18Y11080   2.626   6.819   5.295  3.3422 -0.6695  2.2403
  107SAPE  H18Z11081   2.740   6.862   5.155 -1.3813  2.0265  1.7650
  108SAPE     N11082   0.792   6.590   3.445  0.4539  0.2715 -0.3820
  108SAPE   HN111083   0.694   6.599   3.479  0.3019 -3.4210  0.6053
  108SAPE   HN211084   0.851   6.554   3.523 -0.8318 -2.0393 -0.3889
  108SAPE   HN311085   0.820   6.689   3.432 -0.0489  0.3778 -0.6733
  108SAPE   C1211086   0.807   6.502   3.325 -0.1161  0.4738  0.0397
  108SAPE  H12A11087   0.914   6.486   3.300 -0.3335  1.9510 -2.2137
  108SAPE  H12B11088   0.769   6.560   3.237 -0.1322 -0.8181 -0.8345
  108SAPE   C1111089   0.726   6.367   3.338  0.6781 -0.2468 -0.6559
  108SAPE  H11A11090   0.770   6.292   3.407  0.5594  0.0344 -0.2720
  108SAPE  H11B11091   0.730   6.325   3.235 -0.8597 -0.5369 -0.6197
  108SAPE     P11092   0.513   6.389   3.499  0.2934  0.3426 -0.0571
  108SAPE   O1311093   0.541   6.502   3.585  0.5428 -0.0505 -0.1272
  108SAPE   O1411094   0.374   6.355   3.457 -0.4200 -0.2719  0.0281
  108SAPE   O1211095   0.590   6.398   3.366  0.0855 -0.1621 -0.1324
  108SAPE   O1111096   0.586   6.263   3.560  0.0185 -0.4926 -0.0132
  108SAPE    C111097   0.645   6.281   3.691 -0.2605 -0.7516 -0.7110
  108SAPE    HA11098   0.727   6.356   3.685 -0.0641 -0.9828 -0.9339
  108SAPE    HB11099   0.569   6.314   3.765 -0.1678 -1.1460 -0.4408
  108SAPE    C211100   0.711   6.151   3.741 -0.9138 -0.2520  0.1238
  108SAPE    HS11101   0.777   6.127   3.655 -0.3394  0.5362  0.3320
  108SAPE   O2111102   0.619   6.045   3.760  0.2627 -0.0914  0.3844
  108SAPE   C2111103   0.659   5.922   3.734 -0.0691 -0.1695 -0.7341
  108SAPE   O2211104   0.775   5.892   3.702  0.0708 -0.1020 -1.0175
  108SAPE   C2211105   0.552   5.813   3.766  0.1136  0.2033  0.2005
  108SAPE   H2R11106   0.496   5.802   3.671  0.2213  1.0051  0.0342
  108SAPE   H2S11107   0.604   5.718   3.790  0.2161  0.2459  0.1517
  108SAPE    C311108   0.805   6.169   3.862 -0.3736 -0.1585 -0.1227
  108SAPE    HX11109   0.881   6.241   3.824 -0.6842  0.8836  1.1616
  108SAPE    HY11110   0.858   6.078   3.899 -1.2271 -1.1243 -1.2141
  108SAPE   O3111111   0.738   6.223   3.973 -0.4377  0.1435 -0.1872
  108SAPE   C3111112   0.680   6.143   4.071  0.2372 -0.3450 -0.7175
  108SAPE   O3211113   0.693   6.026   4.073  0.0517  0.1785 -0.2311
  108SAPE   C3211114   0.619   6.232   4.180 -0.0153  0.0764  0.1443
  108SAPE   H2X11115   0.522   6.259   4.131 -0.2580 -1.3640 -0.2215
  108SAPE   H2Y11116   0.683   6.321   4.195 -0.6839  0.1640  3.1607
  108SAPE   C2311117   0.459   5.846   3.890 -0.0392  0.9959  0.1492
  108SAPE   H3R11118   0.406   5.942   3.876  0.3409  1.7230  3.0890
  108SAPE   H3S11119   0.503   5.845   3.992 -0.0922 -2.2326  0.2720
  108SAPE   C2411120   0.349   5.736   3.903 -0.0227 -0.2994 -0.3162
  108SAPE   H4R11121   0.390   5.664   3.978 -1.3512  0.0748  0.7952
  108SAPE   H4S11122   0.336   5.692   3.802  3.7284 -1.3845 -0.5074
  108SAPE   C2511123   0.224   5.786   3.968 -0.0611 -0.6770  0.3658
  108SAPE   H5R11124   0.157   5.829   3.892 -0.2297 -0.2579  0.7499
  108SAPE   C2611125   0.178   5.760   4.091  0.7221 -0.8683  0.1164
  108SAPE   H6R11126   0.083   5.802   4.128  1.1880 -0.5131  0.9285
  108SAPE   C2711127   0.260   5.693   4.198 -0.1588  0.7062 -1.0967
  108SAPE   H7R11128   0.299   5.770   4.268 -2.3370 -0.0504  1.1116
  108SAPE   H7S11129   0.349   5.633   4.169  0.4789  1.1902 -0.1858
  108SAPE   C2811130   0.167   5.595   4.272 -0.0945 -0.0412 -0.0656
  108SAPE   H8R11131   0.097   5.531   4.215 -0.0671  0.0263 -0.1740
  108SAPE   C2911132   0.165   5.577   4.407 -0.1760  0.0567 -0.3208
  108SAPE   H9R11133   0.100   5.508   4.462 -0.7338  1.5851  1.0302
  108SAPE  C21011134   0.257   5.652   4.506  0.8604  0.1458  0.5294
  108SAPE  H10R11135   0.210   5.747   4.539  2.0379  1.4894 -1.4845
  108SAPE  H10S11136   0.347   5.688   4.451 -0.3514 -0.0701 -1.7080
  108SAPE  C21111137   0.289   5.574   4.630 -0.1658  0.2574 -0.0713
  108SAPE  H11R11138   0.376   5.507   4.623 -0.7075 -0.6028  1.0834
  108SAPE  C21211139   0.217   5.574   4.742 -0.1499  0.2817 -0.6072
  108SAPE  H12R11140   0.259   5.526   4.832 -1.0797  0.2952 -0.1577
  108SAPE  C21311141   0.091   5.645   4.775 -1.2695  0.4093 -0.6283
  108SAPE  H13R11142   0.018   5.570   4.813 -3.0820  0.4755 -3.6359
  108SAPE  H13S11143   0.046   5.687   4.682 -0.2363  0.8629 -0.9384
  108SAPE  C21411144   0.120   5.748   4.886 -0.0149 -0.1363  0.1169
  108SAPE  H14R11145   0.160   5.847   4.859 -1.5817  0.2520 -0.8937
  108SAPE  C21511146   0.113   5.731   5.019 -0.1383  0.0938 -0.3357
  108SAPE  H15R11147   0.110   5.824   5.078 -0.1732  0.9568 -1.6451
  108SAPE  C21611148   0.071   5.606   5.091  0.0510 -0.4565  0.6365
  108SAPE  H16R11149   0.047   5.518   5.027  0.1326 -0.3106  0.4046
  108SAPE  H16S11150  -0.022   5.633   5.146  0.6436 -0.9013  1.8869
  108SAPE  C21711151   0.159   5.561   5.205  0.0966  0.4701 -0.2743
  108SAPE  H17R11152   0.259   5.526   5.172 -1.2402 -3.3794 -0.8465
  108SAPE  H17S11153   0.104   5.471   5.242 -2.9340  0.5950 -3.8488
  108SAPE  C21811154   0.183   5.660   5.315  0.0827  0.1152  0.7501
  108SAPE  H18R11155   0.089   5.700   5.359 -0.3580  0.8032 -0.7406
  108SAPE  H18S11156   0.234   5.740   5.258  0.9571 -1.1311 -0.2502
  108SAPE  C21911157   0.280   5.606   5.419  0.1329  0.9014 -0.3459
  108SAPE  H19R11158   0.361   5.553   5.365 -2.2068 -1.6184 -1.6596
  108SAPE  H19S11159   0.226   5.523   5.469 -1.2640  1.0535 -1.5197
  108SAPE  C22011160   0.326   5.693   5.532 -0.5338  0.2626 -0.1874
  108SAPE  H20R11161   0.252   5.769   5.566 -0.9095  0.4311 -1.3512
  108SAPE  H20S11162   0.416   5.752   5.503 -0.2770 -0.5346 -1.0518
  108SAPE  H20T11163   0.361   5.626   5.614 -0.0777  2.3944  1.4551
  108SAPE   C3311164   0.591   6.176   4.315  0.6926  0.2533 -0.0413
  108SAPE   H3X11165   0.588   6.255   4.392  1.6861  0.9311 -0.6764
  108SAPE   H3Y11166   0.681   6.115   4.336  0.1103 -0.9345 -0.8193
  108SAPE   C3411167   0.453   6.110   4.324 -0.9264 -1.0377 -0.3659
  108SAPE   H4X11168   0.466   6.038   4.241  3.6488 -0.9954  0.0648
  108SAPE   H4Y11169   0.373   6.182   4.297  0.0114 -0.4080 -1.5548
  108SAPE   C3511170   0.431   6.059   4.464  0.6169 -0.6361  0.7726
  108SAPE   H5X11171   0.440   6.150   4.528  3.4267 -0.0939 -0.2416
  108SAPE   H5Y11172   0.323   6.035   4.476  0.1146  1.5164  1.0816
  108SAPE   C3611173   0.517   5.938   4.498  0.3324 -0.8273  0.3753
  108SAPE   H6X11174   0.622   5.971   4.481  0.1113  0.5379  1.5006
  108SAPE   H6Y11175   0.489   5.854   4.431 -0.5076  0.3314 -0.7788
  108SAPE   C3711176   0.491   5.896   4.642  0.6101 -0.1097 -0.2198
  108SAPE   H7X11177   0.387   5.860   4.647  1.0420 -1.6375 -1.5069
  108SAPE   H7Y11178   0.501   5.985   4.709 -0.0159  0.8270 -1.3288
  108SAPE   C3811179   0.575   5.787   4.699 -0.1854 -0.6308  0.4804
  108SAPE   H8X11180   0.679   5.824   4.697 -1.1881  2.4103 -1.1887
  108SAPE   H8Y11181   0.564   5.695   4.637 -0.2373  0.4705 -1.2101
  108SAPE   C3911182   0.526   5.758   4.835 -0.6149 -0.3606 -1.1394
  108SAPE   H9X11183   0.426   5.711   4.833 -0.8759  0.0636  0.4175
  108SAPE   H9Y11184   0.525   5.855   4.890  0.7946 -0.5677 -0.7081
  108SAPE  C31011185   0.636   5.679   4.917 -0.2409  0.2063  0.4353
  108SAPE  H10X11186   0.731   5.737   4.914 -0.1255  0.0015 -1.5757
  108SAPE  H10Y11187   0.649   5.584   4.861  0.1065  1.0784 -1.0392
  108SAPE  C31111188   0.596   5.671   5.068 -0.1335 -0.3756 -0.4401
  108SAPE  H11X11189   0.502   5.617   5.090 -0.8767  1.1070  0.1892
  108SAPE  H11Y11190   0.566   5.772   5.103  1.0052  0.4084 -1.6319
  108SAPE  C31211191   0.704   5.627   5.158  0.1767 -0.1097  0.1485
  108SAPE  H12X11192   0.740   5.523   5.138  0.9848 -0.4601  2.9258
  108SAPE  H12Y11193   0.659   5.631   5.260  1.1828 -1.6421  0.6954
  108SAPE  C31311194   0.842   5.705   5.163  0.3190  0.2534 -0.9341
  108SAPE  H13X11195   0.808   5.810   5.178 -0.5661 -0.0923 -0.4467
  108SAPE  H13Y11196   0.889   5.688   5.064  2.6970  0.0972  0.1598
  108SAPE  C31411197   0.935   5.663   5.277  0.3395  0.1953 -0.1331
  108SAPE  H14X11198   0.953   5.556   5.252  0.6579 -0.6903  3.3226
  108SAPE  H14Y11199   0.902   5.672   5.383 -2.0830  1.9051 -0.9485
  108SAPE  C31511200   1.066   5.743   5.284 -0.4673 -0.7293 -0.3212
  108SAPE  H15X11201   1.120   5.711   5.375  0.2335  2.2047  0.3939
  108SAPE  H15Y11202   1.037   5.851   5.291 -2.6385 -1.2009 -1.2032
  108SAPE  C31611203   1.144   5.732   5.152  0.3789  0.3216  0.1578
  108SAPE  H16X11204   1.094   5.788   5.070 -1.4291 -1.0311  0.2756
  108SAPE  H16Y11205   1.144   5.625   5.123  0.8865  0.3781 -0.0824
  108SAPE  C31711206   1.292   5.781   5.171  0.4537 -0.2530 -0.3178
  108SAPE  H17X11207   1.335   5.763   5.070 -1.1466  2.3407 -1.5794
  108SAPE  H17Y11208   1.335   5.730   5.259 -0.2265  0.7428  0.6180
  108SAPE  C31811209   1.291   5.933   5.191 -0.7053  0.7849 -0.3204
  108SAPE  H18X11210   1.212   5.989   5.136 -0.6646  2.0375  0.8308
  108SAPE  H18Y11211   1.388   5.971   5.154 -0.5426  0.1982 -0.5085
  108SAPE  H18Z11212   1.270   5.945   5.300 -0.6234  3.8036 -0.5665
  109SAPE     N11213   4.721   5.085   2.787  0.6344  0.0468  0.3863
  109SAPE   HN111214   4.722   5.188   2.774  1.0562 -0.2553 -2.7501
  109SAPE   HN211215   4.638   5.066   2.848 -0.6789 -1.4638 -1.7182
  109SAPE   HN311216   4.807   5.042   2.827  0.7385  2.0877  2.5563
  109SAPE   C1211217   4.694   5.005   2.662 -0.3667  0.4855 -0.8902
  109SAPE  H12A11218   4.692   4.897   2.687  3.5786  0.8380  1.8929
  109SAPE  H12B11219   4.785   5.020   2.602  0.2822 -1.1960 -0.3845
  109SAPE   C1111220   4.582   5.055   2.571  0.1892  0.4895 -0.7711
  109SAPE  H11A11221   4.486   5.052   2.627 -0.3328 -0.5210 -1.6793
  109SAPE  H11B11222   4.576   4.981   2.488  0.1993  2.8026 -2.9587
  109SAPE     P11223   4.558   5.318   2.545  0.2034 -0.0722  0.6493
  109SAPE   O1311224   4.632   5.415   2.464  0.0696  0.0162 -0.4481
  109SAPE   O1411225   4.416   5.308   2.535  0.1032  0.0543  0.7373
  109SAPE   O1211226   4.619   5.177   2.505  0.1879 -0.0606 -0.0223
  109SAPE   O1111227   4.595   5.328   2.696  0.4438  0.6501  0.3627
  109SAPE    C111228   4.580   5.450   2.771  0.0596  0.6783  0.2577
  109SAPE    HA11229   4.683   5.490   2.788  0.5824 -0.5276 -0.0265
  109SAPE    HB11230   4.518   5.532   2.730 -0.0523 -0.5960 -2.2832
  109SAPE    C211231   4.524   5.420   2.912 -0.2182  1.2048 -0.2583
  109SAPE    HS11232   4.519   5.514   2.970 -3.0281  0.2060  1.3237
  109SAPE   O2111233   4.602   5.316   2.987 -0.2978  1.4110  0.2093
  109SAPE   C2111234   4.712   5.356   3.051 -0.8680 -0.4560 -0.2181
  109SAPE   O2211235   4.748   5.477   3.055 -0.0718 -0.2511 -0.2036
  109SAPE   C2211236   4.779   5.243   3.109  0.3155  0.0415 -0.3202
  109SAPE   H2R11237   4.777   5.152   3.046 -1.2501 -1.0226  1.1825
  109SAPE   H2S11238   4.884   5.258   3.144 -0.1399  0.1010  1.0660
  109SAPE    C311239   4.378   5.367   2.896  0.2864 -0.0038  0.3493
  109SAPE    HX11240   4.363   5.264   2.857 -3.7891  0.9651 -1.1309
  109SAPE    HY11241   4.335   5.426   2.812  1.2138 -1.5599 -1.2887
  109SAPE   O3111242   4.306   5.392   3.018 -0.9516 -0.3332  0.3645
  109SAPE   C3111243   4.260   5.290   3.092 -0.7565 -0.6331 -0.0241
  109SAPE   O3211244   4.264   5.172   3.071  0.4537  0.7584  0.7247
  109SAPE   C3211245   4.192   5.353   3.219  0.4017  0.3560  0.3843
  109SAPE   H2X11246   4.089   5.384   3.191  0.1603 -0.6227  0.1595
  109SAPE   H2Y11247   4.253   5.438   3.258  1.0179 -1.1773  3.0513
  109SAPE   C2311248   4.703   5.199   3.242  0.0664 -0.0871  0.8909
  109SAPE   H3R11249   4.742   5.101   3.278  2.1394  0.7967  1.1688
  109SAPE   H3S11250   4.597   5.178   3.215 -0.0420  0.6494  0.7400
  109SAPE   C2411251   4.714   5.304   3.351  0.0288 -0.5542 -0.2221
  109SAPE   H4R11252   4.733   5.401   3.301 -1.4235 -0.3160 -0.3717
  109SAPE   H4S11253   4.796   5.284   3.423 -0.2904 -1.4375 -0.0777
  109SAPE   C2511254   4.588   5.317   3.433  0.3166  0.4439 -0.4853
  109SAPE   H5R11255   4.499   5.321   3.369 -0.6400 -1.1907  0.6733
  109SAPE   C2611256   4.571   5.317   3.571 -0.0708 -0.5559 -0.2345
  109SAPE   H6R11257   4.467   5.316   3.608  0.5009 -0.0464  1.5058
  109SAPE   C2711258   4.675   5.306   3.675  0.3295  0.1323  0.1223
  109SAPE   H7R11259   4.681   5.406   3.724  2.5948 -0.4462  1.1978
  109SAPE   H7S11260   4.775   5.289   3.629 -0.6511  0.9044 -2.4842
  109SAPE   C2811261   4.648   5.215   3.785  0.3372  0.1365  0.1378
  109SAPE   H8R11262   4.649   5.265   3.883  1.3500  0.3901  0.0120
  109SAPE   C2911263   4.622   5.079   3.775 -0.4221 -0.4272  0.4139
  109SAPE   H9R11264   4.602   5.025   3.868 -0.7217  1.0411  1.2306
  109SAPE  C21011265   4.614   4.996   3.651 -0.2602  0.5631 -0.2047
  109SAPE  H10R11266   4.540   5.047   3.584 -0.4957  0.4026 -0.0695
  109SAPE  H10S11267   4.571   4.902   3.690 -0.1972  0.2607 -0.8514
  109SAPE  C21111268   4.750   4.979   3.578 -0.6093 -0.0765 -0.8909
  109SAPE  H11R11269   4.799   5.069   3.538  0.6834  0.1027  1.0066
  109SAPE  C21211270   4.814   4.856   3.565  0.0714 -0.3848 -0.9641
  109SAPE  H12R11271   4.913   4.867   3.517  0.1041  3.6880 -0.3693
  109SAPE  C21311272   4.777   4.729   3.640 -0.7396 -0.2419  0.3937
  109SAPE  H13R11273   4.749   4.643   3.577 -2.1704 -0.1745  0.8998
  109SAPE  H13S11274   4.679   4.737   3.692 -1.8852 -2.1428 -1.3328
  109SAPE  C21411275   4.884   4.698   3.739  0.1684  0.4518  0.7551
  109SAPE  H14R11276   4.968   4.652   3.685  1.5250  1.4015  1.9805
  109SAPE  C21511277   4.887   4.713   3.872 -0.2286  0.6210 -0.0276
  109SAPE  H15R11278   4.980   4.685   3.923  0.0504 -1.8888 -1.6983
  109SAPE  C21611279   4.775   4.773   3.951 -0.2931 -0.1411  0.4611
  109SAPE  H16R11280   4.683   4.801   3.895  0.8617  0.9760 -0.9332
  109SAPE  H16S11281   4.805   4.868   4.000  1.3214 -0.0838 -0.5726
  109SAPE  C21711282   4.718   4.671   4.055 -0.0573  0.7252 -0.1101
  109SAPE  H17R11283   4.809   4.621   4.096 -1.5331 -0.6707  1.6633
  109SAPE  H17S11284   4.668   4.596   3.991  2.3193 -1.4419  0.3870
  109SAPE  C21811285   4.635   4.727   4.163  0.5391 -0.4947  0.7949
  109SAPE  H18R11286   4.669   4.829   4.191 -3.2125  0.8034  1.0740
  109SAPE  H18S11287   4.630   4.654   4.247 -1.7893  0.7143  1.7903
  109SAPE  C21911288   4.480   4.749   4.132 -0.5108 -0.2667 -0.0172
  109SAPE  H19R11289   4.436   4.788   4.226  0.1562  0.3796  0.0370
  109SAPE  H19S11290   4.446   4.648   4.099 -1.2358 -0.2805  0.7440
  109SAPE  C22011291   4.447   4.854   4.027  0.2795 -0.2999  0.5839
  109SAPE  H20R11292   4.486   4.953   4.059  0.9663 -0.8215  1.3953
  109SAPE  H20S11293   4.339   4.872   4.010  0.4780  1.4645  1.0143
  109SAPE  H20T11294   4.495   4.829   3.930 -0.0606 -0.5627  0.4827
  109SAPE   C3311295   4.194   5.247   3.332  0.6077  0.3481 -0.2543
  109SAPE   H3X11296   4.287   5.188   3.346 -0.8469 -1.5905  1.9502
  109SAPE   H3Y11297   4.114   5.180   3.293 -0.7433  1.3941  0.6441
  109SAPE   C3411298   4.155   5.294   3.466 -0.1316 -0.0629 -0.7619
  109SAPE   H4X11299   4.052   5.335   3.458 -0.4415 -0.3116  1.5097
  109SAPE   H4Y11300   4.222   5.380   3.490 -1.0139  0.3736  0.1838
  109SAPE   C3511301   4.164   5.189   3.578 -0.0047  0.2950  0.0490
  109SAPE   H5X11302   4.269   5.157   3.592 -0.0584  0.4972  0.9802
  109SAPE   H5Y11303   4.100   5.102   3.554 -1.0428  0.3384  2.3452
  109SAPE   C3611304   4.103   5.241   3.708  0.0795  0.1524 -0.0056
  109SAPE   H6X11305   3.999   5.268   3.680 -0.5020 -1.3871  0.5618
  109SAPE   H6Y11306   4.157   5.334   3.738 -0.9149  0.1333  2.0521
  109SAPE   C3711307   4.116   5.130   3.815 -0.1863  0.3826 -0.2299
  109SAPE   H7X11308   4.221   5.108   3.843 -1.1239 -1.6331  2.0254
  109SAPE   H7Y11309   4.079   5.032   3.778 -0.3715 -0.5949  2.3425
  109SAPE   C3811310   4.029   5.182   3.932 -0.4074 -0.1511  0.6223
  109SAPE   H8X11311   3.926   5.178   3.891 -0.3083 -0.3588  0.3932
  109SAPE   H8Y11312   4.061   5.288   3.950  0.4741 -0.1507 -0.7690
  109SAPE   C3911313   4.022   5.098   4.059  0.0301  0.3711 -0.3907
  109SAPE   H9X11314   4.028   4.991   4.031 -1.4353 -0.3710  1.9085
  109SAPE   H9Y11315   3.920   5.111   4.100  0.0047 -0.6844 -0.0935
  109SAPE  C31011316   4.142   5.115   4.156  0.3596 -0.3732 -0.7840
  109SAPE  H10X11317   4.119   5.208   4.212  0.6284  1.3948 -3.4177
  109SAPE  H10Y11318   4.235   5.138   4.099  0.1920  1.1215 -0.4933
  109SAPE  C31111319   4.149   4.996   4.259 -0.1113 -0.2132  0.0415
  109SAPE  H11X11320   4.197   4.910   4.208 -0.1056 -1.0228  1.3676
  109SAPE  H11Y11321   4.049   4.968   4.299 -0.6527 -0.2819 -1.3180
  109SAPE  C31211322   4.234   5.029   4.385 -0.1822  0.5069  1.2527
  109SAPE  H12X11323   4.221   5.131   4.428  0.8726  0.1583  2.4531
  109SAPE  H12Y11324   4.340   5.018   4.353 -0.9370 -0.2411 -1.2443
  109SAPE  C31311325   4.216   4.942   4.503 -0.1565  1.0898  0.1715
  109SAPE  H13X11326   4.243   4.842   4.462 -1.0108 -0.0680  2.3145
  109SAPE  H13Y11327   4.109   4.944   4.534 -0.2028  2.7565 -0.0162
  109SAPE  C31411328   4.311   4.958   4.616  0.0695  0.0052  0.0394
  109SAPE  H14X11329   4.305   5.061   4.655  1.7087  0.3003 -0.4185
  109SAPE  H14Y11330   4.411   4.934   4.574 -0.4917 -1.0028 -0.7684
  109SAPE  C31511331   4.306   4.857   4.738  0.3098  0.2371 -0.3484
  109SAPE  H15X11332   4.284   4.752   4.709  0.3820 -0.5940  2.2970
  109SAPE  H15Y11333   4.233   4.891   4.814 -0.2545 -2.5434  0.4842
  109SAPE  C31611334   4.437   4.838   4.814 -0.4956  0.2007 -0.4236
  109SAPE  H16X11335   4.480   4.933   4.855 -0.8058  0.7125 -1.2551
  109SAPE  H16Y11336   4.519   4.816   4.741  2.0600  1.6211  1.8030
  109SAPE  C31711337   4.439   4.732   4.917  0.0340  0.1526  0.2333
  109SAPE  H17X11338   4.472   4.639   4.867 -1.0445 -0.2469  0.2268
  109SAPE  H17Y11339   4.338   4.714   4.961  0.3005 -2.6971 -0.1342
  109SAPE  C31811340   4.533   4.757   5.030  0.3659 -0.4625 -0.0464
  109SAPE  H18X11341   4.539   4.667   5.094  0.4976  0.3995  1.1896
  109SAPE  H18Y11342   4.479   4.831   5.092 -0.2462 -0.7771 -0.2048
  109SAPE  H18Z11343   4.634   4.799   5.007  0.2563 -0.2154 -0.0854
  110SAPE     N11344   3.724   2.421   2.902 -0.5163 -0.0214 -0.2829
  110SAPE   HN111345   3.708   2.479   2.818 -0.1411  1.0884  0.3913
  110SAPE   HN211346   3.693   2.324   2.882  1.7183 -0.7511 -0.5061
  110SAPE   HN311347   3.671   2.453   2.986  0.6143 -0.8320  0.7994
  110SAPE   C1211348   3.868   2.443   2.950  0.1744 -0.6384 -0.1962
  110SAPE  H12A11349   3.869   2.400   3.053  0.8809  0.2513  0.1812
  110SAPE  H12B11350   3.893   2.551   2.959  1.5847 -0.9404 -0.2796
  110SAPE   C1111351   3.962   2.377   2.860 -0.3916  0.5725  0.2745
  110SAPE  H11A11352   3.947   2.268   2.849  1.7396  0.2443  0.0699
  110SAPE  H11B11353   4.064   2.390   2.903  0.0725 -2.0580  0.1124
  110SAPE     P11354   4.054   2.452   2.624 -0.2606  0.3178 -0.5581
  110SAPE   O1311355   4.169   2.385   2.674  0.3075 -0.5864  0.3433
  110SAPE   O1411356   3.994   2.405   2.495 -0.4428  0.2631  0.2175
  110SAPE   O1211357   3.935   2.429   2.724  0.1734  0.3756 -0.1041
  110SAPE   O1111358   4.078   2.606   2.624  0.2259  0.0968  0.3543
  110SAPE    C111359   3.975   2.693   2.670  0.0507  0.2183  0.5300
  110SAPE    HA11360   3.901   2.698   2.588  1.1221 -2.4114 -0.7162
  110SAPE    HB11361   3.919   2.651   2.757  0.2263 -0.2053  0.4401
  110SAPE    C211362   4.025   2.838   2.706  0.1759  0.0527 -0.0683
  110SAPE    HS11363   4.047   2.886   2.608 -0.1650  1.1506  0.3817
  110SAPE   O2111364   4.148   2.846   2.783  0.0214 -0.3979 -0.6060
  110SAPE   C2111365   4.213   2.955   2.806  0.1677  0.2408 -0.5280
  110SAPE   O2211366   4.178   3.064   2.765  0.7897  0.1528 -0.2653
  110SAPE   C2211367   4.344   2.935   2.888 -0.0973  0.2406  0.2939
  110SAPE   H2R11368   4.345   2.838   2.941  0.8401 -0.0423 -0.2206
  110SAPE   H2S11369   4.422   2.929   2.810 -1.2678  1.0673 -0.9865
  110SAPE    C311370   3.901   2.920   2.759 -0.0299 -0.0507 -0.3725
  110SAPE    HX11371   3.915   3.030   2.749  0.4069  0.2302  2.5158
  110SAPE    HY11372   3.816   2.895   2.692  0.8503 -2.9503 -0.5459
  110SAPE   O3111373   3.854   2.897   2.898 -0.2498 -0.1974  0.5771
  110SAPE   C3111374   3.890   2.983   2.992 -0.3227 -0.9807  0.6506
  110SAPE   O3211375   3.932   3.094   2.970 -0.0084  0.1699 -0.3787
  110SAPE   C3211376   3.855   2.922   3.130  0.2080 -0.0888  0.5900
  110SAPE   H2X11377   3.942   2.872   3.179  0.5851 -1.1804 -1.1245
  110SAPE   H2Y11378   3.781   2.842   3.112  2.4530 -2.0099 -0.7800
  110SAPE   C2311379   4.388   3.051   2.977 -0.1429 -0.3204  0.6615
  110SAPE   H3R11380   4.372   3.144   2.919 -3.0416 -1.8653 -1.2896
  110SAPE   H3S11381   4.498   3.047   2.994  0.0038  1.3273  0.1934
  110SAPE   C2411382   4.302   3.058   3.107  0.2337  0.4244 -0.1540
  110SAPE   H4R11383   4.304   2.960   3.159 -0.2237  0.0409 -0.8377
  110SAPE   H4S11384   4.196   3.073   3.077  0.2117  1.7293  0.5139
  110SAPE   C2511385   4.351   3.174   3.182  0.0773 -0.2851 -1.2633
  110SAPE   H5R11386   4.434   3.231   3.138  0.4724 -0.8329 -1.2351
  110SAPE   C2611387   4.281   3.230   3.283  0.1282 -0.3439  0.4231
  110SAPE   H6R11388   4.318   3.317   3.338  1.1130  0.7883 -1.8937
  110SAPE   C2711389   4.169   3.153   3.344  0.1815  0.3338 -0.6545
  110SAPE   H7R11390   4.217   3.073   3.403 -1.9896 -1.7769 -1.6070
  110SAPE   H7S11391   4.101   3.112   3.266  0.3288  0.3559 -0.7961
  110SAPE   C2811392   4.099   3.237   3.452 -0.6959 -0.0784 -0.6840
  110SAPE   H8R11393   4.026   3.315   3.426 -1.0258  0.2285  1.0417
  110SAPE   C2911394   4.116   3.230   3.585 -0.0393  0.1474  0.3828
  110SAPE   H9R11395   4.064   3.305   3.647 -3.4007 -0.2912 -1.6083
  110SAPE  C21011396   4.200   3.129   3.660  0.2066 -0.5209  0.2720
  110SAPE  H10R11397   4.265   3.062   3.599  0.7935 -0.4298  0.7780
  110SAPE  H10S11398   4.124   3.058   3.699  0.6729 -0.9403  0.4352
  110SAPE  C21111399   4.284   3.196   3.770 -0.3132  0.1868  0.2863
  110SAPE  H11R11400   4.355   3.266   3.724  1.2217 -2.1263 -1.0528
  110SAPE  C21211401   4.253   3.196   3.902  0.2994 -0.0269  0.5094
  110SAPE  H12R11402   4.319   3.257   3.965  0.2921  0.3854  0.1283
  110SAPE  C21311403   4.143   3.117   3.972 -0.3463 -0.2470 -0.2627
  110SAPE  H13R11404   4.198   3.042   4.032 -1.2978 -1.3262 -0.6922
  110SAPE  H13S11405   4.085   3.057   3.898 -2.5070  0.1040  1.0756
  110SAPE  C21411406   4.065   3.197   4.066  0.3772  0.4656 -0.5767
  110SAPE  H14R11407   3.979   3.252   4.025  0.1161  2.9501  2.8651
  110SAPE  C21511408   4.067   3.196   4.201 -0.4057  0.1803 -0.4187
  110SAPE  H15R11409   3.997   3.269   4.245 -0.6939  0.5934 -1.5201
  110SAPE  C21611410   4.157   3.120   4.297  0.7302 -0.1223  0.3168
  110SAPE  H16R11411   4.239   3.189   4.326  1.0923  0.8163 -2.5866
  110SAPE  H16S11412   4.214   3.038   4.248 -1.8376 -1.0446 -1.3346
  110SAPE  C21711413   4.094   3.074   4.430  0.4239 -0.5530  0.3445
  110SAPE  H17R11414   4.163   3.009   4.486 -0.2813 -0.2199  1.6348
  110SAPE  H17S11415   3.997   3.020   4.424  1.0663 -1.8185  0.9899
  110SAPE  C21811416   4.078   3.192   4.534  0.0103 -0.6571 -0.1311
  110SAPE  H18R11417   4.024   3.273   4.480  1.4796  0.3268 -0.1877
  110SAPE  H18S11418   4.176   3.236   4.561 -1.1978  0.9170  1.9644
  110SAPE  C21911419   4.003   3.146   4.654  0.5176 -0.1905  0.0137
  110SAPE  H19R11420   4.068   3.092   4.725  0.6142  0.0438  0.1047
  110SAPE  H19S11421   3.930   3.066   4.625 -0.2088  1.4510 -3.2225
  110SAPE  C22011422   3.914   3.250   4.724  0.0672 -0.5723  0.2135
  110SAPE  H20R11423   3.968   3.337   4.765  0.7057 -0.9101  0.1013
  110SAPE  H20S11424   3.860   3.192   4.802 -0.7222  0.3067  0.3285
  110SAPE  H20T11425   3.837   3.285   4.652  0.5382  0.3103  0.1328
  110SAPE   C3311426   3.795   3.026   3.224 -0.0706  0.3874  0.0546
  110SAPE   H3X11427   3.695   3.058   3.187 -1.2808 -1.4350  1.5399
  110SAPE   H3Y11428   3.857   3.118   3.229  0.4182  0.0156  0.9377
  110SAPE   C3411429   3.759   2.986   3.364 -0.6954  1.1643 -0.3814
  110SAPE   H4X11430   3.853   2.943   3.405  0.8965  2.9890 -1.9247
  110SAPE   H4Y11431   3.684   2.904   3.366 -1.2506  1.6765  1.2093
  110SAPE   C3511432   3.719   3.102   3.455 -0.2251 -0.5215  0.0740
  110SAPE   H5X11433   3.616   3.136   3.429 -0.1596  0.0172  0.4958
  110SAPE   H5Y11434   3.773   3.194   3.425 -0.0926 -1.0070 -1.2518
  110SAPE   C3611435   3.739   3.082   3.612 -1.0177 -0.1227  0.3508
  110SAPE   H6X11436   3.732   3.174   3.674 -0.3182 -1.6085  2.7717
  110SAPE   H6Y11437   3.842   3.047   3.631 -1.0644  0.9139  2.9437
  110SAPE   C3711438   3.644   2.973   3.669  0.3226  0.5065  0.1719
  110SAPE   H7X11439   3.647   2.880   3.609  1.0178  0.1252  0.7787
  110SAPE   H7Y11440   3.536   2.999   3.675 -0.7971 -3.5056  0.0061
  110SAPE   C3811441   3.677   2.935   3.813 -0.3101 -0.2758  0.7681
  110SAPE   H8X11442   3.780   2.896   3.827 -0.1686  0.9546  4.2740
  110SAPE   H8Y11443   3.599   2.869   3.856 -0.2846  1.0620  3.0539
  110SAPE   C3911444   3.691   3.057   3.910 -0.2143 -0.2651 -0.0978
  110SAPE   H9X11445   3.591   3.105   3.916 -0.4553 -0.6067 -1.1362
  110SAPE   H9Y11446   3.754   3.141   3.873  1.3929 -1.7918 -0.9959
  110SAPE  C31011447   3.750   3.017   4.050 -0.0093 -0.2532  0.5344
  110SAPE  H10X11448   3.755   3.109   4.114 -2.2568 -0.9984  1.9104
  110SAPE  H10Y11449   3.851   2.973   4.040  1.0196  2.2306 -0.8654
  110SAPE  C31111450   3.657   2.923   4.131  0.6673 -0.2018 -0.4755
  110SAPE  H11X11451   3.658   2.827   4.076  0.7204  1.7164 -4.1265
  110SAPE  H11Y11452   3.551   2.956   4.138 -0.1960 -2.9860  1.2339
  110SAPE  C31211453   3.690   2.905   4.284  0.2549 -0.1379  0.5699
  110SAPE  H12X11454   3.680   3.000   4.340  1.7486 -0.8462  2.1324
  110SAPE  H12Y11455   3.798   2.882   4.294  0.5947  0.9916 -0.3530
  110SAPE  C31311456   3.604   2.810   4.362  0.0526 -0.0256 -0.4587
  110SAPE  H13X11457   3.599   2.707   4.320  0.5972  0.3170 -1.3861
  110SAPE  H13Y11458   3.501   2.850   4.345  0.6749  1.2045 -1.4417
  110SAPE  C31411459   3.644   2.815   4.507  0.3014 -0.6776  0.4160
  110SAPE  H14X11460   3.646   2.917   4.550 -0.9789 -0.2843 -0.3935
  110SAPE  H14Y11461   3.748   2.776   4.515  1.1985  1.3724 -0.5234
  110SAPE  C31511462   3.551   2.734   4.597 -0.1811 -0.9387 -0.0755
  110SAPE  H15X11463   3.553   2.637   4.544 -1.0066 -1.1489  0.2627
  110SAPE  H15Y11464   3.446   2.771   4.591 -0.1627 -0.9680 -0.5667
  110SAPE  C31611465   3.604   2.724   4.741  0.3670 -0.2356  0.3723
  110SAPE  H16X11466   3.599   2.826   4.783 -0.0145  1.4286 -3.3301
  110SAPE  H16Y11467   3.713   2.700   4.739  0.0163 -2.1142 -2.0817
  110SAPE  C31711468   3.541   2.610   4.824  0.2052  0.6000 -0.2167
  110SAPE  H17X11469   3.601   2.594   4.916  0.7281 -2.9594 -1.0117
  110SAPE  H17Y11470   3.555   2.519   4.761 -1.3981  1.1234 -1.3763
  110SAPE  C31811471   3.399   2.637   4.857  0.2056  0.0416  0.0932
  110SAPE  H18X11472   3.358   2.549   4.911  1.1417  0.4800  1.5827
  110SAPE  H18Y11473   3.349   2.667   4.763  1.2981 -2.4019 -1.3596
  110SAPE  H18Z11474   3.397   2.721   4.930 -1.3868 -1.1551  1.5042
  111SAPE     N11475   1.335   3.414   3.089  0.3955  0.5919 -0.2906
  111SAPE   HN111476   1.244   3.367   3.106  0.3001  0.7962 -0.2306
  111SAPE   HN211477   1.365   3.436   3.187 -1.7423 -0.7666  0.7345
  111SAPE   HN311478   1.325   3.509   3.049  3.3217  1.6139  1.0731
  111SAPE   C1211479   1.425   3.333   3.003 -0.3922  0.4519 -0.1943
  111SAPE  H12A11480   1.509   3.392   2.961 -1.7306  2.1614 -0.5662
  111SAPE  H12B11481   1.358   3.303   2.919  1.3342  0.7300 -1.7303
  111SAPE   C1111482   1.486   3.209   3.084  0.2301  0.2401 -0.1574
  111SAPE  H11A11483   1.552   3.143   3.022  2.2957 -0.4280  2.5723
  111SAPE  H11B11484   1.402   3.158   3.135  2.8179 -1.5223  2.6965
  111SAPE     P11485   1.703   3.181   3.244 -0.4014  0.3438  0.1322
  111SAPE   O1311486   1.681   3.033   3.230  0.0658  0.1824 -0.3017
  111SAPE   O1411487   1.820   3.248   3.173  0.3201 -0.0144  0.3201
  111SAPE   O1211488   1.572   3.251   3.192 -0.4680 -0.9475  0.1724
  111SAPE   O1111489   1.708   3.216   3.404 -0.3764  0.3898  0.4161
  111SAPE    C111490   1.629   3.318   3.456  0.0184  0.4352 -0.1601
  111SAPE    HA11491   1.527   3.319   3.412 -0.0652  1.3047  0.0499
  111SAPE    HB11492   1.590   3.299   3.558 -3.0410 -3.6358 -1.7723
  111SAPE    C211493   1.703   3.456   3.451  0.2499  0.0443 -0.3434
  111SAPE    HS11494   1.759   3.463   3.356  0.3028 -0.0859 -0.3228
  111SAPE   O2111495   1.786   3.472   3.571  0.2873  0.3537  0.1817
  111SAPE   C2111496   1.890   3.390   3.569  0.1414 -0.8318 -0.6417
  111SAPE   O2211497   1.958   3.363   3.470  0.2883 -0.1893 -0.8456
  111SAPE   C2211498   1.922   3.346   3.713 -0.0351  0.0002  0.7806
  111SAPE   H2R11499   1.944   3.238   3.705  2.0368  0.4893 -2.6250
  111SAPE   H2S11500   2.024   3.389   3.728  0.4681  0.1932 -2.4513
  111SAPE    C311501   1.596   3.574   3.453  0.2245 -0.1742 -0.0384
  111SAPE    HX11502   1.565   3.589   3.347 -1.1646 -0.3135  0.3200
  111SAPE    HY11503   1.644   3.669   3.483 -3.0205  1.1152  1.6176
  111SAPE   O3111504   1.476   3.542   3.535  0.2022  0.3627 -0.1872
  111SAPE   C3111505   1.366   3.514   3.479  1.0970 -0.0201  0.0168
  111SAPE   O3211506   1.348   3.503   3.357  0.3489 -0.1781 -0.0512
  111SAPE   C3211507   1.252   3.497   3.569  0.0733  0.0665 -0.8512
  111SAPE   H2X11508   1.176   3.441   3.511  0.0076  0.4710 -1.1634
  111SAPE   H2Y11509   1.205   3.596   3.587 -0.4744 -0.5837  1.6490
  111SAPE   C2311510   1.816   3.390   3.811 -0.1960  0.4140 -0.3819
  111SAPE   H3R11511   1.715   3.356   3.778 -0.0601  0.6001 -0.9870
  111SAPE   H3S11512   1.813   3.501   3.808  2.0376  0.4971 -3.3136
  111SAPE   C2411513   1.851   3.335   3.953  0.6424 -0.2959 -0.1482
  111SAPE   H4R11514   1.937   3.396   3.989  0.7469  0.8235 -2.1845
  111SAPE   H4S11515   1.874   3.227   3.943  0.5127 -0.6582  2.6388
  111SAPE   C2511516   1.744   3.358   4.049  0.6484 -0.7769 -0.2617
  111SAPE   H5R11517   1.644   3.351   4.005 -0.1270  3.0351  0.5789
  111SAPE   C2611518   1.743   3.403   4.176  0.2604 -0.6020 -0.5441
  111SAPE   H6R11519   1.644   3.415   4.221 -0.4825  0.1823 -2.3179
  111SAPE   C2711520   1.860   3.417   4.270 -0.6148  0.4723 -0.0719
  111SAPE   H7R11521   1.916   3.322   4.270  0.6682  1.1959  0.8151
  111SAPE   H7S11522   1.811   3.438   4.368 -2.6797  0.9104 -1.1387
  111SAPE   C2811523   1.967   3.514   4.239  0.2701 -0.8476  0.1456
  111SAPE   H8R11524   2.026   3.495   4.148  2.2944 -0.5637  1.3232
  111SAPE   C2911525   2.009   3.611   4.319 -0.2616 -0.8907 -0.1060
  111SAPE   H9R11526   2.100   3.665   4.289 -1.0025 -0.7356 -2.2704
  111SAPE  C21011527   1.961   3.647   4.462  0.2245 -0.0825 -0.2650
  111SAPE  H10R11528   2.014   3.582   4.535  2.5954 -0.7218 -2.4003
  111SAPE  H10S11529   1.852   3.632   4.479  0.2142  0.1216 -0.1450
  111SAPE  C21111530   1.993   3.785   4.507 -0.8288  0.0794 -0.2266
  111SAPE  H11R11531   2.091   3.805   4.554 -1.8927 -0.0612  2.2144
  111SAPE  C21211532   1.918   3.895   4.474 -0.4490 -0.3854  0.2151
  111SAPE  H12R11533   1.949   3.993   4.514  0.7583 -0.3514 -0.7537
  111SAPE  C21311534   1.801   3.898   4.388 -0.4412  0.2797  0.1939
  111SAPE  H13R11535   1.721   3.956   4.438 -2.4092  0.6996 -3.1522
  111SAPE  H13S11536   1.773   3.794   4.361  0.6819  0.2414 -0.9216
  111SAPE  C21411537   1.818   3.979   4.262 -0.1940  0.0476 -0.1604
  111SAPE  H14R11538   1.843   3.920   4.172 -0.8201  0.8658 -0.8819
  111SAPE  C21511539   1.808   4.118   4.242 -0.4058  0.0765 -0.2156
  111SAPE  H15R11540   1.819   4.156   4.139 -4.1139 -1.1304 -1.2354
  111SAPE  C21611541   1.757   4.219   4.346 -0.0178  0.8636  0.3539
  111SAPE  H16R11542   1.818   4.311   4.355 -1.5913  1.9117  0.7000
  111SAPE  H16S11543   1.760   4.166   4.444 -1.7348 -2.4014 -1.1926
  111SAPE  C21711544   1.610   4.261   4.326 -0.9127  0.3287 -0.1666
  111SAPE  H17R11545   1.595   4.343   4.399 -0.7196 -0.0299  0.2823
  111SAPE  H17S11546   1.535   4.186   4.359 -0.3570  0.6792  2.0693
  111SAPE  C21811547   1.572   4.314   4.185  0.2891  0.7215 -0.2108
  111SAPE  H18R11548   1.472   4.359   4.201  0.3940  0.0060  3.4146
  111SAPE  H18S11549   1.577   4.240   4.102  0.4676  0.8065 -0.2773
  111SAPE  C21911550   1.656   4.431   4.140  0.2184 -0.1268 -0.3330
  111SAPE  H19R11551   1.764   4.412   4.125  0.2027 -1.9186  1.4092
  111SAPE  H19S11552   1.659   4.519   4.209  0.0471  0.9946 -1.6986
  111SAPE  C22011553   1.596   4.471   4.008  0.4707 -0.0474 -0.6221
  111SAPE  H20R11554   1.650   4.562   3.972  1.8193 -0.4703  0.2358
  111SAPE  H20S11555   1.487   4.493   4.006  0.1930 -1.4365 -1.3051
  111SAPE  H20T11556   1.608   4.389   3.935 -0.7911 -1.9548  1.1771
  111SAPE   C3311557   1.284   3.437   3.705 -0.3435 -0.4894 -0.5366
  111SAPE   H3X11558   1.295   3.513   3.785  0.0140  0.2930 -1.3107
  111SAPE   H3Y11559   1.374   3.371   3.704 -1.5424 -2.2117 -2.5395
  111SAPE   C3411560   1.165   3.356   3.756 -0.2111 -0.0555  0.5593
  111SAPE   H4X11561   1.127   3.286   3.678  0.2864 -2.7976  2.6303
  111SAPE   H4Y11562   1.080   3.419   3.789 -0.7320 -1.3850  1.8737
  111SAPE   C3511563   1.194   3.277   3.870  0.1121  0.4391  0.0649
  111SAPE   H5X11564   1.259   3.193   3.838 -0.1399  0.7307 -1.2964
  111SAPE   H5Y11565   1.102   3.227   3.907 -0.1400 -1.8526 -3.1925
  111SAPE   C3611566   1.281   3.330   3.989 -0.4518 -0.5082 -0.0407
  111SAPE   H6X11567   1.372   3.383   3.955  0.1030 -1.8433 -0.7168
  111SAPE   H6Y11568   1.311   3.236   4.039 -1.5158 -0.7464  0.1763
  111SAPE   C3711569   1.200   3.417   4.088 -0.2973  0.3207  0.7130
  111SAPE   H7X11570   1.097   3.427   4.047 -1.0986  0.4738  2.6511
  111SAPE   H7Y11571   1.237   3.521   4.089 -1.1006  0.6116  0.9769
  111SAPE   C3811572   1.199   3.360   4.231 -0.1855 -0.3851  0.1241
  111SAPE   H8X11573   1.162   3.256   4.226  0.4872 -0.6540  0.5609
  111SAPE   H8Y11574   1.129   3.422   4.290  1.2902  0.3590  1.1686
  111SAPE   C3911575   1.339   3.369   4.297 -0.1721  0.4182  0.8102
  111SAPE   H9X11576   1.381   3.472   4.288  1.4125 -0.2656 -0.0112
  111SAPE   H9Y11577   1.404   3.297   4.242 -0.1432 -0.6497  2.1852
  111SAPE  C31011578   1.337   3.302   4.440 -0.0421 -0.2161  0.0767
  111SAPE  H10X11579   1.442   3.288   4.474 -0.2442  0.5497  1.0508
  111SAPE  H10Y11580   1.284   3.204   4.433 -2.6033  1.1286 -0.4647
  111SAPE  C31111581   1.251   3.386   4.540  0.1474  0.0323  1.0177
  111SAPE  H11X11582   1.147   3.348   4.540  0.3276 -0.4678  1.0179
  111SAPE  H11Y11583   1.263   3.492   4.507 -0.8759  0.2222  1.2298
  111SAPE  C31211584   1.298   3.378   4.679 -0.4180  0.3835  0.1860
  111SAPE  H12X11585   1.407   3.391   4.697 -0.6002 -0.8275  2.4886
  111SAPE  H12Y11586   1.270   3.278   4.718 -2.2490  1.2115  1.1406
  111SAPE  C31311587   1.234   3.494   4.770 -0.1532  0.4738  0.5628
  111SAPE  H13X11588   1.124   3.480   4.763  0.0794 -0.9657 -0.6454
  111SAPE  H13Y11589   1.246   3.587   4.712 -4.4238 -0.3451 -2.0603
  111SAPE  C31411590   1.273   3.498   4.924 -0.2820  0.2365 -0.5631
  111SAPE  H14X11591   1.219   3.583   4.971  0.8800 -0.7589  2.8072
  111SAPE  H14Y11592   1.382   3.522   4.925 -0.7252  2.4836  0.8938
  111SAPE  C31511593   1.241   3.362   4.995 -0.1004  0.6116  0.0239
  111SAPE  H15X11594   1.293   3.284   4.935  0.4247  0.2276  0.9682
  111SAPE  H15Y11595   1.131   3.347   5.001 -0.6979  3.3444 -2.0145
  111SAPE  C31611596   1.300   3.354   5.141 -0.0232 -0.0503  0.3742
  111SAPE  H16X11597   1.284   3.265   5.204  1.6993 -1.6777 -1.3232
  111SAPE  H16Y11598   1.274   3.444   5.200 -0.2805 -0.1806  0.4606
  111SAPE  C31711599   1.454   3.348   5.123 -0.1511 -0.2201  0.4678
  111SAPE  H17X11600   1.493   3.450   5.104  0.6786 -0.4729  0.7258
  111SAPE  H17Y11601   1.484   3.281   5.040 -0.3615  0.0877  0.1411
  111SAPE  C31811602   1.532   3.310   5.238  0.2238  0.4929 -0.9996
  111SAPE  H18X11603   1.505   3.208   5.273  2.3286  1.0212  2.7978
  111SAPE  H18Y11604   1.517   3.390   5.315  0.7696  2.2349 -2.6166
  111SAPE  H18Z11605   1.640   3.299   5.214  0.2399 -1.5765 -0.1562
  112SAPE     N11606   5.922   1.788   3.074  0.2946  0.8391 -0.0201
  112SAPE   HN111607   5.848   1.853   3.038 -1.8465 -1.2239  0.4022
  112SAPE   HN211608   6.019   1.824   3.066  1.0197 -1.0077  0.1719
  112SAPE   HN311609   5.903   1.714   3.003 -1.0424  2.4414 -1.4469
  112SAPE   C1211610   5.888   1.730   3.208 -0.9185  0.2194  0.6854
  112SAPE  H12A11611   5.786   1.686   3.210 -1.1207  0.6954  1.2509
  112SAPE  H12B11612   5.892   1.813   3.281 -1.2574  0.9265 -0.0865
  112SAPE   C1111613   5.994   1.619   3.254 -0.6647  0.1294 -1.1065
  112SAPE  H11A11614   5.957   1.577   3.350  1.1111  0.4516 -0.2428
  112SAPE  H11B11615   6.086   1.673   3.287 -1.2207  1.2007 -1.2773
  112SAPE     P11616   6.139   1.417   3.163  0.1277  0.0064 -0.0153
  112SAPE   O1311617   6.098   1.286   3.101 -0.3969  0.2190  0.2072
  112SAPE   O1411618   6.263   1.477   3.113 -0.1990 -0.0615  0.1291
  112SAPE   O1211619   6.015   1.514   3.160 -0.6315  0.1098 -0.0281
  112SAPE   O1111620   6.164   1.392   3.312 -0.3510 -0.0876 -0.3545
  112SAPE    C111621   6.261   1.295   3.359 -0.0944  0.0729  0.1337
  112SAPE    HA11622   6.276   1.204   3.296  0.4026 -0.8906  1.5731
  112SAPE    HB11623   6.363   1.339   3.351 -1.0161  2.2936 -0.1437
  112SAPE    C211624   6.242   1.267   3.510  0.4806 -0.8483 -0.6742
  112SAPE    HS11625   6.307   1.182   3.540  1.1981  0.0367  0.3922
  112SAPE   O2111626   6.113   1.242   3.567  0.1038 -0.0361 -0.9618
  112SAPE   C2111627   6.047   1.150   3.507 -0.0655 -0.8292 -0.1209
  112SAPE   O2211628   6.084   1.088   3.409 -0.7706 -0.1738  0.2561
  112SAPE   C2211629   5.904   1.153   3.570 -0.4668  0.5440 -0.6654
  112SAPE   H2R11630   5.898   1.188   3.675 -1.9427 -1.6242  0.0360
  112SAPE   H2S11631   5.854   1.238   3.519 -1.8505  0.1349 -0.0182
  112SAPE    C311632   6.284   1.393   3.585  0.5986  0.2012 -0.3095
  112SAPE    HX11633   6.207   1.469   3.560  0.1556  0.1101  0.7555
  112SAPE    HY11634   6.380   1.434   3.549  0.5194  0.7148  0.0643
  112SAPE   O3111635   6.293   1.363   3.730 -0.1461  0.0073  0.1605
  112SAPE   C3111636   6.273   1.474   3.801 -0.4123 -0.3016 -0.0617
  112SAPE   O3211637   6.286   1.587   3.757  0.1517  0.2025  0.5347
  112SAPE   C3211638   6.227   1.450   3.945  0.2025 -0.2164 -0.1478
  112SAPE   H2X11639   6.161   1.361   3.933  2.5220 -1.9690 -0.6953
  112SAPE   H2Y11640   6.155   1.532   3.963 -0.9384 -1.2646  0.2547
  112SAPE   C2311641   5.835   1.015   3.568  0.5292 -0.4621 -0.6327
  112SAPE   H3R11642   5.847   0.960   3.473  0.4580  0.5869 -1.2619
  112SAPE   H3S11643   5.725   1.034   3.575  0.4739 -0.1447 -2.1663
  112SAPE   C2411644   5.876   0.926   3.682 -0.3066  0.3351  0.0331
  112SAPE   H4R11645   5.808   0.840   3.668  0.2116  0.2372 -2.1988
  112SAPE   H4S11646   5.844   0.971   3.779 -1.9157 -1.3081  0.3213
  112SAPE   C2511647   6.018   0.882   3.701  0.0911 -0.2217  0.2006
  112SAPE   H5R11648   6.051   0.788   3.654 -0.6325  0.1967 -1.1895
  112SAPE   C2611649   6.108   0.935   3.788  0.3233 -0.0108 -0.3601
  112SAPE   H6R11650   6.206   0.884   3.792 -1.6773 -4.1963  0.2438
  112SAPE   C2711651   6.091   1.057   3.869 -0.3534  0.4478  0.2862
  112SAPE   H7R11652   5.997   1.114   3.859  0.6431  2.4046  1.4444
  112SAPE   H7S11653   6.170   1.133   3.850 -0.0337 -0.0827 -0.5739
  112SAPE   C2811654   6.107   1.046   4.019 -0.4156  0.1224 -0.1925
  112SAPE   H8R11655   6.205   1.004   4.046 -0.1837  0.8779  0.1615
  112SAPE   C2911656   6.017   1.062   4.122 -0.0701 -0.2212  0.6164
  112SAPE   H9R11657   6.041   1.045   4.228  1.6915  1.3957  0.5376
  112SAPE  C21011658   5.875   1.102   4.098  0.0992  0.3782 -0.0212
  112SAPE  H10R11659   5.818   1.041   4.171  0.3589 -1.1845 -1.0639
  112SAPE  H10S11660   5.845   1.067   3.997  1.9213 -0.6156 -0.2677
  112SAPE  C21111661   5.833   1.243   4.104  0.7223  0.7229 -0.8293
  112SAPE  H11R11662   5.788   1.282   4.011  0.1546  3.1564  0.3851
  112SAPE  C21211663   5.818   1.321   4.216  0.1412  0.1510 -0.8526
  112SAPE  H12R11664   5.755   1.411   4.213 -0.8495 -0.4979 -0.2546
  112SAPE  C21311665   5.870   1.299   4.355 -0.0681 -0.6308  0.5274
  112SAPE  H13R11666   5.817   1.371   4.420 -1.9226 -2.2810  0.9714
  112SAPE  H13S11667   5.976   1.329   4.366  0.0753 -0.7560 -0.4433
  112SAPE  C21411668   5.833   1.169   4.419  0.3384 -0.6010  0.2134
  112SAPE  H14R11669   5.762   1.104   4.366  0.8477 -0.8627 -0.1539
  112SAPE  C21511670   5.858   1.122   4.545  0.6736 -0.1065 -0.4927
  112SAPE  H15R11671   5.825   1.024   4.583 -2.3551  0.6637 -0.9160
  112SAPE  C21611672   5.957   1.188   4.641  0.6034 -0.5547  0.3935
  112SAPE  H16R11673   6.052   1.214   4.590 -1.1678  0.7512 -2.4988
  112SAPE  H16S11674   5.979   1.116   4.723  1.4155 -0.1702  0.5310
  112SAPE  C21711675   5.910   1.319   4.714  0.4783 -0.1046 -0.3480
  112SAPE  H17R11676   5.826   1.295   4.783  0.6657 -0.4841 -0.2470
  112SAPE  H17S11677   5.884   1.400   4.644  2.2942  2.2776  1.5373
  112SAPE  C21811678   6.029   1.376   4.784 -0.3374  0.2400 -0.6006
  112SAPE  H18R11679   6.101   1.411   4.707 -0.0404 -0.6229 -0.7209
  112SAPE  H18S11680   6.080   1.292   4.836  0.4393 -0.8055 -2.9240
  112SAPE  C21911681   5.991   1.498   4.874  0.2445  0.4248  0.8775
  112SAPE  H19R11682   5.896   1.478   4.928  0.0118  1.3168  0.8231
  112SAPE  H19S11683   5.953   1.574   4.802  0.1581  1.1018  1.6166
  112SAPE  C22011684   6.097   1.549   4.968 -0.1233 -0.5135 -0.0004
  112SAPE  H20R11685   6.119   1.657   4.960 -1.1563 -0.3619 -0.9404
  112SAPE  H20S11686   6.185   1.491   4.934  0.3803 -0.3672  1.0015
  112SAPE  H20T11687   6.053   1.526   5.068 -2.0409  0.2707 -0.6318
  112SAPE   C3311688   6.330   1.426   4.049 -0.4365 -0.2160 -0.8610
  112SAPE   H3X11689   6.410   1.503   4.050 -0.3718 -0.2810 -0.0017
  112SAPE   H3Y11690   6.380   1.329   4.028 -0.7691  0.1659 -3.8032
  112SAPE   C3411691   6.264   1.419   4.189 -0.0422 -0.3156 -0.1147
  112SAPE   H4X11692   6.176   1.352   4.176 -0.3014  0.0821 -0.4073
  112SAPE   H4Y11693   6.242   1.524   4.216  2.4295  0.6939 -1.6452
  112SAPE   C3511694   6.352   1.350   4.295 -0.4428  0.5887  0.3095
  112SAPE   H5X11695   6.449   1.399   4.274 -0.3859  0.6273  0.6652
  112SAPE   H5Y11696   6.355   1.247   4.256 -0.1224  0.6609  0.1453
  112SAPE   C3611697   6.301   1.344   4.438 -0.9841  0.0288 -0.1756
  112SAPE   H6X11698   6.202   1.293   4.438 -1.0117  0.0685  0.8365
  112SAPE   H6Y11699   6.285   1.444   4.482  0.5170  0.3304 -0.2433
  112SAPE   C3711700   6.398   1.256   4.520  0.3536 -0.0920  0.2462
  112SAPE   H7X11701   6.500   1.295   4.499 -1.0516  2.3361 -2.8963
  112SAPE   H7Y11702   6.394   1.157   4.468 -0.7579  0.5631 -0.9916
  112SAPE   C3811703   6.381   1.247   4.665 -0.0734  0.5499 -0.3614
  112SAPE   H8X11704   6.281   1.226   4.709 -0.1802 -0.2990 -0.9772
  112SAPE   H8Y11705   6.429   1.336   4.709 -0.7060  1.8388 -2.1570
  112SAPE   C3911706   6.476   1.134   4.717 -0.2214 -0.5993 -0.0774
  112SAPE   H9X11707   6.575   1.155   4.673  0.9738 -0.0807  2.6810
  112SAPE   H9Y11708   6.445   1.034   4.679  0.8442 -2.5724  3.6662
  112SAPE  C31011709   6.482   1.133   4.872 -0.7353 -0.4703 -0.1829
  112SAPE  H10X11710   6.382   1.113   4.915 -1.0591  1.3637 -0.0151
  112SAPE  H10Y11711   6.486   1.238   4.908 -1.9545 -0.5363  0.1875
  112SAPE  C31111712   6.590   1.047   4.946 -0.2036 -0.2030  0.1987
  112SAPE  H11X11713   6.684   1.085   4.900  0.5409 -2.2292 -0.0340
  112SAPE  H11Y11714   6.580   0.939   4.924 -2.4403 -0.1450  0.6471
  112SAPE  C31211715   6.585   1.061   5.092 -0.5027  0.5259  0.4837
  112SAPE  H12X11716   6.485   1.025   5.125 -1.4121  0.4271 -2.0861
  112SAPE  H12Y11717   6.577   1.170   5.110  2.4309  1.4594 -2.6961
  112SAPE  C31311718   6.712   1.019   5.161  0.2525 -0.1091  0.5127
  112SAPE  H13X11719   6.695   1.009   5.270  1.7346 -1.2217  0.6858
  112SAPE  H13Y11720   6.781   1.105   5.148 -0.6313  0.4961 -0.2819
  112SAPE  C31411721   6.786   0.895   5.108  0.0282 -0.6555 -0.4286
  112SAPE  H14X11722   6.818   0.910   5.002  0.3266  1.9317 -0.0420
  112SAPE  H14Y11723   6.715   0.810   5.112  0.1540 -0.7824 -0.8500
  112SAPE  C31511724   6.916   0.860   5.188 -0.5896 -0.0325 -0.0074
  112SAPE  H15X11725   6.910   0.840   5.297  1.9544  2.1296  0.6282
  112SAPE  H15Y11726   6.980   0.951   5.182  0.4757 -0.7050  0.7508
  112SAPE  C31611727   6.984   0.738   5.116  0.4493  0.0551 -0.4222
  112SAPE  H16X11728   7.019   0.766   5.015  0.2727  0.6844 -0.3102
  112SAPE  H16Y11729   6.906   0.664   5.088  0.3497  0.5179 -1.3859
  112SAPE  C31711730   7.099   0.672   5.184 -0.1259 -0.5625  0.1442
  112SAPE  H17X11731   7.131   0.581   5.129 -0.1273  0.4093 -1.5634
  112SAPE  H17Y11732   7.073   0.641   5.287 -0.1285  0.5156  0.4884
  112SAPE  C31811733   7.225   0.763   5.181 -0.2388  0.2893 -0.3579
  112SAPE  H18X11734   7.313   0.706   5.217 -0.2173 -0.9934 -2.3390
  112SAPE  H18Y11735   7.215   0.848   5.253  1.3459 -0.8122  1.2591
  112SAPE  H18Z11736   7.246   0.824   5.091 -0.8112 -1.1215 -1.4837
  113SAPE     N11737   0.382   6.444   3.145  0.3674  0.0808  0.4938
  113SAPE   HN111738   0.313   6.367   3.154  1.7118 -1.4985 -1.8624
  113SAPE   HN211739   0.445   6.419   3.067 -0.8640  0.0377 -0.5197
  113SAPE   HN311740   0.443   6.450   3.229  2.2547 -2.0461 -0.6378
  113SAPE   C1211741   0.309   6.569   3.109 -0.7561 -0.5120  0.4556
  113SAPE  H12A11742   0.224   6.579   3.181 -0.6100 -1.1022  0.7110
  113SAPE  H12B11743   0.268   6.559   3.007 -0.6219  1.0566  0.2136
  113SAPE   C1111744   0.406   6.684   3.116 -1.1997 -0.2719 -0.0518
  113SAPE  H11A11745   0.354   6.780   3.099 -1.5487 -0.1845  1.3980
  113SAPE  H11B11746   0.482   6.669   3.036 -0.8127  2.3102 -0.2420
  113SAPE     P11747   0.518   6.818   3.313 -0.0310 -0.3176  0.2478
  113SAPE   O1311748   0.621   6.792   3.418  0.5772 -0.6229 -0.7850
  113SAPE   O1411749   0.544   6.922   3.210 -0.1815  0.1253  0.6704
  113SAPE   O1211750   0.487   6.682   3.237 -0.7411 -0.2650  0.6383
  113SAPE   O1111751   0.387   6.859   3.388  0.6821 -0.5425  0.0476
  113SAPE    C111752   0.302   6.751   3.442 -0.0533  0.2600  0.1782
  113SAPE    HA11753   0.240   6.709   3.360  1.2365 -0.9962 -0.1992
  113SAPE    HB11754   0.363   6.664   3.473  2.0436  1.8269  0.7093
  113SAPE    C211755   0.203   6.782   3.560  0.6309  0.4246 -0.0938
  113SAPE    HS11756   0.117   6.713   3.545 -1.3036  2.7059 -0.0863
  113SAPE   O2111757   0.158   6.922   3.574 -0.5923 -0.0898  0.0235
  113SAPE   C2111758   0.029   6.938   3.540  0.1049 -0.1493  0.7662
  113SAPE   O2211759  -0.035   6.847   3.483  0.2286 -0.5800  0.1756
  113SAPE   C2211760  -0.036   7.070   3.575 -0.0278 -0.1777 -0.4480
  113SAPE   H2R11761   0.035   7.136   3.629 -0.7112  0.2062 -0.0117
  113SAPE   H2S11762  -0.069   7.119   3.481 -1.4443  1.6393  0.9315
  113SAPE    C311763   0.278   6.744   3.693 -0.1811 -0.4646  0.5621
  113SAPE    HX11764   0.378   6.793   3.693 -0.4014  0.0626  2.2524
  113SAPE    HY11765   0.295   6.635   3.687  1.3442 -0.2209 -0.1346
  113SAPE   O3111766   0.196   6.765   3.815  0.0215 -0.2484  0.5796
  113SAPE   C3111767   0.194   6.884   3.874  0.0725  0.1761 -0.0237
  113SAPE   O3211768   0.277   6.973   3.853  0.9833 -0.0608 -0.2004
  113SAPE   C3211769   0.072   6.896   3.966 -1.0022  0.0160  0.5390
  113SAPE   H2X11770   0.027   6.795   3.979 -0.8215  0.0278  1.3217
  113SAPE   H2Y11771  -0.009   6.955   3.918 -0.1426  3.4771  2.9614
  113SAPE   C2311772  -0.179   7.062   3.645 -0.3390 -0.0111 -0.0130
  113SAPE   H3R11773  -0.163   7.044   3.753  0.2238 -3.8496 -0.5923
  113SAPE   H3S11774  -0.236   6.977   3.603 -2.3595  1.2461  0.0604
  113SAPE   C2411775  -0.260   7.190   3.621  0.3506  0.0866  0.1969
  113SAPE   H4R11776  -0.358   7.188   3.672  1.7484  3.8211  3.5827
  113SAPE   H4S11777  -0.268   7.198   3.510  0.7360 -0.8597  0.0881
  113SAPE   C2511778  -0.196   7.314   3.669  0.9779 -0.4871 -0.2686
  113SAPE   H5R11779  -0.147   7.376   3.592 -0.5061  0.3196 -0.5965
  113SAPE   C2611780  -0.198   7.350   3.797  0.4148 -0.4703 -0.2913
  113SAPE   H6R11781  -0.132   7.435   3.823  1.2736 -1.1057 -0.3444
  113SAPE   C2711782  -0.253   7.269   3.914 -0.0204  0.5553  0.2548
  113SAPE   H7R11783  -0.308   7.175   3.892 -0.2629  1.1271 -1.7876
  113SAPE   H7S11784  -0.332   7.318   3.976 -2.4030  0.8749 -2.7849
  113SAPE   C2811785  -0.134   7.241   4.005 -0.8397 -0.2627 -0.1007
  113SAPE   H8R11786  -0.033   7.234   3.963 -0.6393  1.5298 -0.0062
  113SAPE   C2911787  -0.136   7.219   4.137  0.4024  0.6508  0.2662
  113SAPE   H9R11788  -0.042   7.224   4.194  0.8612  2.2244 -0.5801
  113SAPE  C21011789  -0.259   7.214   4.222  0.7161  0.1915  0.0500
  113SAPE  H10R11790  -0.349   7.246   4.165 -0.1903 -0.1199  1.2819
  113SAPE  H10S11791  -0.243   7.282   4.309  1.7191 -0.9471  0.7863
  113SAPE  C21111792  -0.300   7.079   4.273 -0.1621  0.3517  0.5327
  113SAPE  H11R11793  -0.359   7.011   4.210 -0.1321  1.7046 -1.0372
  113SAPE  C21211794  -0.271   7.032   4.398  0.6917  0.1096 -0.0721
  113SAPE  H12R11795  -0.304   6.929   4.421 -0.4871  0.6036  0.5640
  113SAPE  C21311796  -0.180   7.106   4.493 -0.3208 -0.4958  0.1348
  113SAPE  H13R11797  -0.247   7.158   4.566  0.6874  0.8810  0.1176
  113SAPE  H13S11798  -0.113   7.176   4.439 -1.3147 -0.1908 -0.7435
  113SAPE  C21411799  -0.092   7.005   4.561 -0.2203 -0.4665 -0.4191
  113SAPE  H14R11800  -0.032   6.940   4.495  1.1785  0.4993 -0.1377
  113SAPE  C21511801  -0.059   7.005   4.692  0.0288  0.2948 -0.8799
  113SAPE  H15R11802   0.004   6.924   4.732 -0.8323 -0.9656 -1.9792
  113SAPE  C21611803  -0.115   7.096   4.791 -0.3148 -0.2172  0.0594
  113SAPE  H16R11804  -0.218   7.064   4.818 -1.0965  1.0832 -1.2618
  113SAPE  H16S11805  -0.121   7.195   4.742 -0.3610 -1.4003 -2.5084
  113SAPE  C21711806  -0.021   7.102   4.911  0.1102  0.1581  0.2631
  113SAPE  H17R11807  -0.008   6.994   4.936  0.3372  0.4913  1.6579
  113SAPE  H17S11808  -0.067   7.142   5.004 -0.4957 -0.3619  0.1950
  113SAPE  C21811809   0.113   7.173   4.895  0.0945  0.5470 -0.4391
  113SAPE  H18R11810   0.100   7.280   4.867 -2.1205  0.5161  0.2467
  113SAPE  H18S11811   0.155   7.122   4.805  0.5399  0.7228 -0.3326
  113SAPE  C21911812   0.202   7.167   5.023  0.4863  0.7829  0.1204
  113SAPE  H19R11813   0.206   7.063   5.061  0.5738  0.9462  0.5705
  113SAPE  H19S11814   0.145   7.222   5.101  1.5294 -1.6321  2.7860
  113SAPE  C22011815   0.346   7.226   5.013  0.1587 -0.9016 -0.6674
  113SAPE  H20R11816   0.393   7.170   4.929 -3.0126 -2.0048 -1.8869
  113SAPE  H20S11817   0.407   7.205   5.104  1.9319 -0.4801 -1.7080
  113SAPE  H20T11818   0.345   7.337   5.001 -1.0054 -0.9213 -0.8979
  113SAPE   C3311819   0.103   6.944   4.116 -0.0300  0.6611  0.2612
  113SAPE   H3X11820   0.004   6.976   4.155  0.4781  2.2031  0.3558
  113SAPE   H3Y11821   0.170   7.032   4.105  0.5073  0.2590  0.2936
  113SAPE   C3411822   0.150   6.830   4.208  0.1557 -0.4138 -0.1480
  113SAPE   H4X11823   0.228   6.774   4.152  1.1186  0.7825 -0.0464
  113SAPE   H4Y11824   0.063   6.764   4.227  0.6098 -1.0354 -0.1698
  113SAPE   C3511825   0.200   6.884   4.341 -0.5543 -0.2348 -1.3664
  113SAPE   H5X11826   0.123   6.957   4.372  2.1839  2.8579 -1.2175
  113SAPE   H5Y11827   0.297   6.939   4.340  0.0961 -1.2842  0.1350
  113SAPE   C3611828   0.214   6.777   4.454 -0.0958 -0.4036 -0.4077
  113SAPE   H6X11829   0.291   6.703   4.425 -2.1950 -3.2534  0.8168
  113SAPE   H6Y11830   0.115   6.728   4.466  0.1146 -0.3800  1.8576
  113SAPE   C3711831   0.251   6.831   4.592  0.1479 -0.0751  0.8630
  113SAPE   H7X11832   0.194   6.922   4.622 -0.6368 -0.4075  0.4209
  113SAPE   H7Y11833   0.359   6.853   4.588  0.4193 -1.4465 -1.1813
  113SAPE   C3811834   0.238   6.722   4.691  0.4570 -0.6016 -0.3933
  113SAPE   H8X11835   0.143   6.668   4.669 -1.1236  1.4658  0.8959
  113SAPE   H8Y11836   0.312   6.640   4.681  1.9318  0.5240  0.9096
  113SAPE   C3911837   0.240   6.772   4.833 -0.4763 -0.6789  0.0631
  113SAPE   H9X11838   0.167   6.855   4.853 -0.6590 -0.8330  0.0399
  113SAPE   H9Y11839   0.338   6.815   4.862 -0.1002 -1.0554 -0.6550
  113SAPE  C31011840   0.211   6.659   4.936  0.1503  0.2158 -0.4666
  113SAPE  H10X11841   0.277   6.574   4.907  0.2116  0.8142 -2.1834
  113SAPE  H10Y11842   0.110   6.619   4.913 -1.2565  1.4726  2.8886
  113SAPE  C31111843   0.205   6.711   5.083 -0.1068 -0.8986 -0.4290
  113SAPE  H11X11844   0.171   6.620   5.138  0.9781 -1.1302 -0.1225
  113SAPE  H11Y11845   0.120   6.783   5.088 -0.0430 -0.8823  0.5730
  113SAPE  C31211846   0.341   6.760   5.127 -0.5128 -0.0154 -0.5881
  113SAPE  H12X11847   0.389   6.841   5.067  0.0882 -0.8189 -1.2235
  113SAPE  H12Y11848   0.410   6.673   5.122  1.2737  1.2105  1.1982
  113SAPE  C31311849   0.334   6.801   5.274 -0.0694  0.5752  0.0475
  113SAPE  H13X11850   0.274   6.723   5.325  0.1646 -1.2989 -2.3469
  113SAPE  H13Y11851   0.301   6.906   5.288  0.9018  0.7527  1.2064
  113SAPE  C31411852   0.484   6.799   5.329  0.1390  0.3611  0.1288
  113SAPE  H14X11853   0.558   6.851   5.265  0.7341  0.4285  0.8520
  113SAPE  H14Y11854   0.510   6.691   5.332 -2.1836 -0.2101  1.3454
  113SAPE  C31511855   0.501   6.859   5.468  0.5351  0.3630  0.0381
  113SAPE  H15X11856   0.446   6.796   5.541  0.3879 -1.4553 -1.5687
  113SAPE  H15Y11857   0.452   6.959   5.477  0.3373  0.3474 -0.7538
  113SAPE  C31611858   0.653   6.872   5.501 -0.6007  0.2634 -0.8086
  113SAPE  H16X11859   0.692   6.939   5.421 -1.2475  1.1871 -0.3780
  113SAPE  H16Y11860   0.694   6.770   5.491 -1.2049 -0.2055  1.0470
  113SAPE  C31711861   0.674   6.925   5.643 -0.4587 -0.1012  0.8000
  113SAPE  H17X11862   0.775   6.904   5.685  0.2551 -1.0627 -1.2953
  113SAPE  H17Y11863   0.605   6.874   5.713 -0.0720 -2.4578 -0.4518
  113SAPE  C31811864   0.651   7.074   5.656 -0.1972 -0.7724  0.2495
  113SAPE  H18X11865   0.675   7.111   5.757 -0.4447  0.5087 -0.1484
  113SAPE  H18Y11866   0.543   7.092   5.637  0.0865  2.1185  1.0247
  113SAPE  H18Z11867   0.705   7.122   5.572  0.3433 -0.6671  0.6512
  114SAPE     N11868   1.491   2.654   2.967 -0.4476  0.2223 -0.2805
  114SAPE   HN111869   1.420   2.712   2.919  0.3273  2.3029  0.9693
  114SAPE   HN211870   1.584   2.701   2.965 -0.9304  1.1958 -0.3755
  114SAPE   HN311871   1.501   2.561   2.921 -0.6910  0.3538 -0.6005
  114SAPE   C1211872   1.448   2.620   3.110 -0.8181  0.4524 -0.4855
  114SAPE  H12A11873   1.543   2.596   3.162 -1.0345 -3.3162 -1.5575
  114SAPE  H12B11874   1.385   2.529   3.104 -0.4498  0.2083 -0.6736
  114SAPE   C1111875   1.385   2.738   3.185 -0.2277 -0.2663  0.4949
  114SAPE  H11A11876   1.468   2.794   3.233 -0.2327 -1.3348  1.8162
  114SAPE  H11B11877   1.333   2.702   3.277 -0.5070 -1.0713  0.0348
  114SAPE     P11878   1.146   2.841   3.133  0.0280  0.4129  0.3559
  114SAPE   O1311879   1.087   2.970   3.082  0.0422  0.0965  0.0676
  114SAPE   O1411880   1.068   2.721   3.097  0.0721 -0.2583  0.0329
  114SAPE   O1211881   1.299   2.822   3.108  0.0064  0.1572 -0.8189
  114SAPE   O1111882   1.145   2.859   3.295  0.7309 -0.4783 -0.3245
  114SAPE    C111883   1.207   2.976   3.358 -0.6761 -0.4731 -0.0763
  114SAPE    HA11884   1.285   3.019   3.290 -0.0388  0.4538  1.2056
  114SAPE    HB11885   1.136   3.058   3.382  1.5643  1.5999 -0.1592
  114SAPE    C211886   1.296   2.943   3.487  0.1876  0.2108  0.0435
  114SAPE    HS11887   1.342   2.843   3.471 -0.3787  0.0375 -0.5323
  114SAPE   O2111888   1.218   2.965   3.604 -0.5089 -0.0898 -0.4486
  114SAPE   C2111889   1.193   2.861   3.674 -0.2721  0.2180  0.5924
  114SAPE   O2211890   1.218   2.746   3.644 -0.5463  0.6724 -0.0787
  114SAPE   C2211891   1.123   2.913   3.804  0.6952 -0.1979  0.3467
  114SAPE   H2R11892   1.182   2.999   3.844 -0.9104  0.7832  0.7081
  114SAPE   H2S11893   1.023   2.953   3.777  0.8959 -1.4540 -2.5659
  114SAPE    C311894   1.416   3.048   3.493 -0.7789  0.0775 -0.5984
  114SAPE    HX11895   1.364   3.145   3.479  0.1184  0.4173 -1.7616
  114SAPE    HY11896   1.483   3.033   3.406 -0.0773 -0.0389 -0.0405
  114SAPE   O3111897   1.481   3.071   3.621 -0.4491  0.3068 -0.6245
  114SAPE   C3111898   1.572   2.977   3.649  0.0142  0.6126  0.0883
  114SAPE   O3211899   1.612   2.890   3.574 -0.5701  0.5441  0.3998
  114SAPE   C3211900   1.624   2.990   3.792 -0.0658 -0.6853  0.2721
  114SAPE   H2X11901   1.538   3.016   3.857  0.7376 -3.0069  2.3698
  114SAPE   H2Y11902   1.697   3.074   3.785 -0.3069 -0.5092 -0.1673
  114SAPE   C2311903   1.115   2.814   3.916 -0.0886  0.0241  0.1135
  114SAPE   H3R11904   1.066   2.721   3.879  0.3660  0.3907 -1.5212
  114SAPE   H3S11905   1.041   2.854   3.989  2.0450 -0.3250  2.5850
  114SAPE   C2411906   1.250   2.782   3.979 -0.8613  0.0121  0.2903
  114SAPE   H4R11907   1.314   2.871   3.996  1.9562 -1.4559 -1.7184
  114SAPE   H4S11908   1.307   2.720   3.907  0.1439 -0.2891  1.3114
  114SAPE   C2511909   1.229   2.705   4.106 -0.3219 -0.2503  0.4013
  114SAPE   H5R11910   1.212   2.597   4.103  1.0915 -0.4706 -0.0944
  114SAPE   C2611911   1.222   2.757   4.230  1.2818  0.5220  0.5537
  114SAPE   H6R11912   1.205   2.685   4.310  3.2334 -0.9955 -0.3251
  114SAPE   C2711913   1.217   2.907   4.266  0.2752 -0.5833 -0.4933
  114SAPE   H7R11914   1.134   2.911   4.341 -1.5701  1.3832 -2.4902
  114SAPE   H7S11915   1.187   2.953   4.169  1.8777 -0.1983 -0.8295
  114SAPE   C2811916   1.349   2.956   4.324 -0.3327 -0.3712  0.3899
  114SAPE   H8R11917   1.417   3.007   4.254  0.1352  0.4134  1.3824
  114SAPE   C2911918   1.377   2.949   4.457  0.0133 -0.0109  0.8712
  114SAPE   H9R11919   1.474   2.977   4.501  1.3804 -0.2665 -1.7868
  114SAPE  C21011920   1.290   2.884   4.562  0.5550 -0.2843  0.6498
  114SAPE  H10R11921   1.350   2.795   4.590  0.8793 -0.2447  0.1141
  114SAPE  H10S11922   1.193   2.849   4.522  1.4728 -0.7936 -1.2565
  114SAPE  C21111923   1.255   2.969   4.680  0.2032 -0.1334  0.5227
  114SAPE  H11R11924   1.236   3.075   4.658  1.9233 -0.0177 -0.5692
  114SAPE  C21211925   1.239   2.923   4.809  0.5665 -0.4362  0.5106
  114SAPE  H12R11926   1.219   2.996   4.888  2.0191  1.9696 -1.2035
  114SAPE  C21311927   1.251   2.781   4.850 -0.1433  0.0505 -0.2984
  114SAPE  H13R11928   1.225   2.717   4.763 -0.2284 -0.1549 -0.1231
  114SAPE  H13S11929   1.182   2.749   4.932  0.3442  0.4846  0.2931
  114SAPE  C21411930   1.387   2.737   4.888 -0.2607  0.5474 -0.4247
  114SAPE  H14R11931   1.457   2.717   4.805 -0.3062 -1.7071  0.0404
  114SAPE  C21511932   1.446   2.746   5.008 -0.2880 -0.5794 -0.9418
  114SAPE  H15R11933   1.552   2.720   5.019  0.3205  2.5001  2.5920
  114SAPE  C21611934   1.380   2.779   5.143  0.3238  0.6160  0.5255
  114SAPE  H16R11935   1.372   2.697   5.217 -1.7638 -1.2631 -1.6414
  114SAPE  H16S11936   1.271   2.792   5.130  0.0385  0.7125  2.6962
  114SAPE  C21711937   1.446   2.900   5.211  0.3804  0.5844  0.2913
  114SAPE  H17R11938   1.392   2.932   5.302 -2.5350  1.7523 -1.6992
  114SAPE  H17S11939   1.435   2.987   5.143  2.5433  1.6154  1.1538
  114SAPE  C21811940   1.598   2.890   5.242  0.6198  0.8420 -0.3697
  114SAPE  H18R11941   1.632   2.991   5.274  0.7553  0.3258  1.1948
  114SAPE  H18S11942   1.648   2.850   5.151 -0.7450 -2.4655  0.2074
  114SAPE  C21911943   1.623   2.784   5.352 -0.6587 -0.0658  0.1867
  114SAPE  H19R11944   1.597   2.685   5.309  1.5372 -0.7379  0.2664
  114SAPE  H19S11945   1.560   2.802   5.441 -1.0710 -1.2621  0.1536
  114SAPE  C22011946   1.778   2.778   5.376 -0.7135  0.3275  0.6466
  114SAPE  H20R11947   1.823   2.680   5.401  0.2721  0.7399  0.5418
  114SAPE  H20S11948   1.801   2.858   5.449 -0.3921  1.3036 -0.5037
  114SAPE  H20T11949   1.830   2.816   5.286 -2.9838  2.7977  0.2614
  114SAPE   C3311950   1.693   2.860   3.838 -0.2579  0.5315  0.2925
  114SAPE   H3X11951   1.761   2.808   3.767  0.1942 -0.6400  1.5605
  114SAPE   H3Y11952   1.617   2.783   3.865 -2.0448  2.9944  2.8796
  114SAPE   C3411953   1.774   2.886   3.969  0.5202  0.7556 -0.1245
  114SAPE   H4X11954   1.847   2.967   3.946  1.5556  0.3439  1.5478
  114SAPE   H4Y11955   1.834   2.801   4.007  0.1124  1.7449  3.0913
  114SAPE   C3511956   1.692   2.936   4.090 -0.0221 -0.3254  0.5979
  114SAPE   H5X11957   1.603   2.871   4.106 -2.2786  1.9155 -1.7846
  114SAPE   H5Y11958   1.653   3.035   4.057  0.1243 -0.5291 -0.1967
  114SAPE   C3611959   1.794   2.935   4.205  0.0787  0.1193  0.5182
  114SAPE   H6X11960   1.882   2.993   4.170  1.6060 -2.4804 -0.1743
  114SAPE   H6Y11961   1.823   2.828   4.210  1.2991  0.3893 -0.3646
  114SAPE   C3711962   1.732   2.979   4.337  0.4307 -0.1938 -0.4230
  114SAPE   H7X11963   1.667   2.891   4.358 -0.3957  0.7256  1.0336
  114SAPE   H7Y11964   1.673   3.072   4.320  0.8358  0.0700 -0.3806
  114SAPE   C3811965   1.843   2.996   4.447  0.3171  0.4999  0.1205
  114SAPE   H8X11966   1.926   3.055   4.403 -1.1191  2.8957  0.4605
  114SAPE   H8Y11967   1.873   2.891   4.471  0.6000  0.4778 -0.3103
  114SAPE   C3911968   1.795   3.062   4.572  0.5356  0.0555  0.4063
  114SAPE   H9X11969   1.881   3.049   4.642  2.0156  0.2351 -1.3054
  114SAPE   H9Y11970   1.695   3.032   4.610  0.0427  1.1104 -0.0342
  114SAPE  C31011971   1.770   3.210   4.547  0.1805 -0.4450  0.5483
  114SAPE  H10X11972   1.686   3.213   4.474  0.0801 -0.5969  0.6576
  114SAPE  H10Y11973   1.859   3.253   4.494 -1.4297  0.5161 -1.5427
  114SAPE  C31111974   1.739   3.287   4.677 -0.5369  0.4155 -0.0655
  114SAPE  H11X11975   1.812   3.242   4.747  0.4790  0.8579 -0.8215
  114SAPE  H11Y11976   1.638   3.261   4.715 -0.3179 -1.7346 -0.8621
  114SAPE  C31211977   1.759   3.441   4.665 -0.5191 -0.2514 -0.2239
  114SAPE  H12X11978   1.696   3.484   4.585 -2.0179  0.5826  1.3506
  114SAPE  H12Y11979   1.866   3.456   4.636  0.2744 -0.7866  2.1657
  114SAPE  C31311980   1.739   3.512   4.802  0.7652  1.0630 -0.5909
  114SAPE  H13X11981   1.804   3.470   4.881 -1.0583  0.8747  0.8649
  114SAPE  H13Y11982   1.632   3.501   4.832  1.5665 -0.0936  2.1009
  114SAPE  C31411983   1.778   3.657   4.806 -0.1298 -0.0701  0.0977
  114SAPE  H14X11984   1.695   3.712   4.755 -1.6721 -0.6056  1.9228
  114SAPE  H14Y11985   1.871   3.674   4.746  0.3237  0.5027  0.9447
  114SAPE  C31511986   1.806   3.714   4.954 -0.4712 -0.1795  0.1595
  114SAPE  H15X11987   1.855   3.813   4.952 -1.8909  0.5458 -0.4924
  114SAPE  H15Y11988   1.876   3.641   4.998 -0.5870 -1.2530 -1.3466
  114SAPE  C31611989   1.683   3.723   5.037 -0.1134  0.8460  0.3755
  114SAPE  H16X11990   1.628   3.627   5.032 -0.0805  0.7435  1.6123
  114SAPE  H16Y11991   1.618   3.806   5.000 -0.7339 -0.6858 -2.1887
  114SAPE  C31711992   1.715   3.754   5.186 -0.3618 -0.3883 -1.2518
  114SAPE  H17X11993   1.623   3.772   5.245  0.7540 -0.3191  0.5527
  114SAPE  H17Y11994   1.771   3.850   5.179  1.0555 -1.1276 -0.4517
  114SAPE  C31811995   1.811   3.656   5.268  0.3544  0.0675 -0.1338
  114SAPE  H18X11996   1.752   3.566   5.298 -0.4409  0.4567 -0.5137
  114SAPE  H18Y11997   1.847   3.702   5.362  1.5125  0.8047 -0.9085
  114SAPE  H18Z11998   1.898   3.622   5.208 -0.9050 -3.9324 -0.0183
  115SAPE     N11999   6.221   2.881   2.535 -0.8777  0.6046  0.3962
  115SAPE   HN112000   6.247   2.820   2.615  0.9426 -0.8171 -1.1861
  115SAPE   HN212001   6.186   2.971   2.575  0.0805  1.0257  0.3034
  115SAPE   HN312002   6.152   2.825   2.480  1.6710 -2.4390  0.0124
  115SAPE   C1212003   6.343   2.924   2.459  0.2072 -0.1842 -0.5017
  115SAPE  H12A12004   6.306   3.007   2.395 -2.0475 -1.6207 -1.2144
  115SAPE  H12B12005   6.383   2.840   2.400  1.6027 -1.0944  1.6143
  115SAPE   C1112006   6.458   2.955   2.561 -0.0974 -0.6695 -0.6029
  115SAPE  H11A12007   6.448   3.045   2.625  1.2122 -2.6465  2.6538
  115SAPE  H11B12008   6.543   2.985   2.496 -0.6580  2.2139 -0.1349
  115SAPE     P12009   6.614   2.762   2.654 -0.0222  0.5385 -0.3088
  115SAPE   O1312010   6.593   2.614   2.643  0.5296 -0.6795  0.4281
  115SAPE   O1412011   6.711   2.820   2.562  0.1969 -0.5996  0.5424
  115SAPE   O1212012   6.483   2.837   2.639 -0.0991 -0.0930  0.1536
  115SAPE   O1112013   6.646   2.806   2.802 -0.4273  0.4872 -1.0497
  115SAPE    C112014   6.698   2.939   2.824 -0.1466 -0.3308  0.2672
  115SAPE    HA12015   6.808   2.936   2.809 -0.1566  2.0351 -0.6995
  115SAPE    HB12016   6.653   3.000   2.744 -0.4039 -1.7316 -0.7007
  115SAPE    C212017   6.662   2.999   2.958 -0.2936  0.2538 -0.0794
  115SAPE    HS12018   6.718   3.094   2.972  0.2700 -0.3633  2.1389
  115SAPE   O2112019   6.696   2.917   3.067 -0.3544  0.1736 -0.1856
  115SAPE   C2112020   6.818   2.890   3.099 -0.1348 -0.3246  0.1616
  115SAPE   O2212021   6.915   2.922   3.035 -0.5849  0.0951 -0.0884
  115SAPE   C2212022   6.820   2.787   3.211 -0.4395 -0.0586 -0.3655
  115SAPE   H2R12023   6.784   2.843   3.299  3.3539  1.3644  0.4648
  115SAPE   H2S12024   6.753   2.705   3.175  1.1884 -1.3887 -0.4830
  115SAPE    C312025   6.510   3.028   2.974 -0.0707 -0.3423 -0.1179
  115SAPE    HX12026   6.461   2.929   2.981  3.2150 -2.0230  1.3748
  115SAPE    HY12027   6.477   3.098   2.894  0.1441  3.2408  2.6802
  115SAPE   O3112028   6.493   3.087   3.108  0.4072  0.2040 -0.5547
  115SAPE   C3112029   6.493   3.222   3.112  0.8464  0.1935  0.4697
  115SAPE   O3212030   6.512   3.290   3.011 -0.7752 -0.3584 -0.6167
  115SAPE   C3212031   6.455   3.264   3.248 -0.6752  0.5187 -0.4332
  115SAPE   H2X12032   6.518   3.216   3.325 -0.9235 -0.3804 -0.7788
  115SAPE   H2Y12033   6.347   3.241   3.266 -0.5250 -0.6539 -0.9324
  115SAPE   C2312034   6.961   2.730   3.247 -0.5300  0.5866 -0.0251
  115SAPE   H3R12035   7.028   2.812   3.282  0.4689 -0.0895 -0.3176
  115SAPE   H3S12036   7.011   2.684   3.159 -2.6989 -2.2854  0.1163
  115SAPE   C2412037   6.959   2.617   3.352 -0.3160  0.4747  0.2019
  115SAPE   H4R12038   6.924   2.526   3.299  0.0207  0.6536 -0.3356
  115SAPE   H4S12039   6.888   2.644   3.433  0.6832 -1.2966  1.7243
  115SAPE   C2512040   7.093   2.587   3.410 -0.1251 -0.6183 -0.3818
  115SAPE   H5R12041   7.153   2.508   3.362  2.4254 -0.6967  2.5751
  115SAPE   C2612042   7.153   2.651   3.516 -0.7738  0.2339 -0.4376
  115SAPE   H6R12043   7.257   2.620   3.532 -0.5908  0.0957 -1.7856
  115SAPE   C2712044   7.091   2.763   3.588  0.5930  0.2022  0.2605
  115SAPE   H7R12045   7.062   2.838   3.511  1.7730  0.5912  0.1609
  115SAPE   H7S12046   7.166   2.824   3.643  1.4087 -0.5703  0.0366
  115SAPE   C2812047   6.976   2.729   3.675 -0.4339  0.2595 -0.3352
  115SAPE   H8R12048   6.968   2.621   3.690 -0.0709 -0.3053 -3.5060
  115SAPE   C2912049   6.896   2.813   3.730  0.3801 -0.0275 -0.3485
  115SAPE   H9R12050   6.807   2.776   3.784 -0.2443  2.2399  0.2777
  115SAPE  C21012051   6.897   2.957   3.698 -0.2849  0.2411 -0.2764
  115SAPE  H10R12052   6.945   2.983   3.602  1.1854  2.0696  0.8789
  115SAPE  H10S12053   6.963   2.997   3.778 -0.0275 -1.7913  0.5687
  115SAPE  C21112054   6.761   3.026   3.710  0.6521  0.0440  0.9036
  115SAPE  H11R12055   6.702   2.994   3.623  0.7312  0.4879  0.6817
  115SAPE  C21212056   6.698   3.097   3.807  0.3314  1.2875  0.0674
  115SAPE  H12R12057   6.594   3.130   3.789 -0.4338 -0.9049  0.2506
  115SAPE  C21312058   6.765   3.131   3.938 -0.1546  0.6318 -0.8791
  115SAPE  H13R12059   6.754   3.241   3.950 -2.2942  0.4325 -0.6366
  115SAPE  H13S12060   6.874   3.116   3.924 -0.3734  0.5181 -2.6908
  115SAPE  C21412061   6.704   3.073   4.063  0.1825 -0.5523  0.6507
  115SAPE  H14R12062   6.627   2.998   4.041  0.8935 -0.7442 -1.3056
  115SAPE  C21512063   6.718   3.122   4.188 -0.0588  0.1234  1.1196
  115SAPE  H15R12064   6.654   3.069   4.260 -0.8671 -0.6252 -0.1273
  115SAPE  C21612065   6.803   3.234   4.232  0.2619  0.6024  0.4299
  115SAPE  H16R12066   6.744   3.328   4.223  1.0224  0.9515 -1.3358
  115SAPE  H16S12067   6.894   3.246   4.170 -0.3946  1.0585 -0.4659
  115SAPE  C21712068   6.854   3.224   4.384 -0.8736 -0.1879  0.5151
  115SAPE  H17R12069   6.917   3.312   4.411 -0.3054 -0.7313  0.9955
  115SAPE  H17S12070   6.923   3.137   4.380 -0.0226  0.5102 -0.7699
  115SAPE  C21812071   6.751   3.196   4.496 -0.1098 -0.4488  0.4941
  115SAPE  H18R12072   6.715   3.091   4.483  2.0689 -1.1375 -0.2865
  115SAPE  H18S12073   6.660   3.258   4.483  0.5891  0.7139  1.0275
  115SAPE  C21912074   6.823   3.208   4.633  0.2174  0.5484  0.4056
  115SAPE  H19R12075   6.892   3.295   4.635  0.4107  0.4096 -0.0877
  115SAPE  H19S12076   6.888   3.118   4.642 -0.1231  0.4015  1.5945
  115SAPE  C22012077   6.733   3.204   4.755 -0.3443  0.3622  0.6067
  115SAPE  H20R12078   6.791   3.160   4.839 -1.3245 -2.1291  0.0765
  115SAPE  H20S12079   6.639   3.149   4.732 -0.7505  1.3631 -0.1986
  115SAPE  H20T12080   6.696   3.305   4.781 -0.9354  0.1991  0.4150
  115SAPE   C3312081   6.476   3.421   3.256 -0.3875  0.4404  0.0264
  115SAPE   H3X12082   6.419   3.463   3.170  1.0718 -1.0260 -1.7632
  115SAPE   H3Y12083   6.584   3.443   3.240  1.0807 -4.3343  1.5725
  115SAPE   C3412084   6.444   3.487   3.396  0.3494 -0.5515  0.2046
  115SAPE   H4X12085   6.334   3.496   3.388  0.3836 -0.8606 -0.8524
  115SAPE   H4Y12086   6.492   3.587   3.401  0.2665 -0.4964 -0.0693
  115SAPE   C3512087   6.496   3.411   3.511  0.9425  0.2783 -0.1903
  115SAPE   H5X12088   6.607   3.403   3.503  0.9535 -0.4703  0.5612
  115SAPE   H5Y12089   6.456   3.309   3.526  1.2010 -0.0737 -1.7638
  115SAPE   C3612090   6.469   3.482   3.646 -0.2486 -0.1976  0.0423
  115SAPE   H6X12091   6.361   3.508   3.643 -0.1517  0.6457  1.9867
  115SAPE   H6Y12092   6.526   3.577   3.653 -1.0452  0.5525 -2.5441
  115SAPE   C3712093   6.510   3.400   3.773  0.4273 -1.0015  0.4710
  115SAPE   H7X12094   6.619   3.379   3.774  0.5794 -0.2356  0.2700
  115SAPE   H7Y12095   6.470   3.296   3.766 -0.2675 -0.7239  0.3150
  115SAPE   C3812096   6.462   3.476   3.900  0.2476 -0.4871  0.0165
  115SAPE   H8X12097   6.364   3.529   3.887  0.7345  0.4489  0.0603
  115SAPE   H8Y12098   6.539   3.553   3.920  1.2378 -0.4460 -3.3333
  115SAPE   C3912099   6.457   3.385   4.025  0.4270  0.1613  0.1277
  115SAPE   H9X12100   6.549   3.323   4.022 -1.4069 -2.7530 -1.9784
  115SAPE   H9Y12101   6.359   3.334   4.022  0.0933  0.7173  1.1014
  115SAPE  C31012102   6.465   3.470   4.144 -0.7775 -1.0167 -0.6851
  115SAPE  H10X12103   6.393   3.554   4.133 -0.8360 -0.9833 -0.0964
  115SAPE  H10Y12104   6.563   3.515   4.169 -0.4460 -2.0795  0.0300
  115SAPE  C31112105   6.426   3.386   4.267 -0.0383 -0.7348 -0.4150
  115SAPE  H11X12106   6.469   3.286   4.245  2.6671  0.3195 -0.2929
  115SAPE  H11Y12107   6.315   3.382   4.265 -0.0853  0.1722 -0.2152
  115SAPE  C31212108   6.476   3.451   4.394  0.7196 -0.2187  0.1468
  115SAPE  H12X12109   6.461   3.560   4.382  0.9610 -0.3797 -2.0287
  115SAPE  H12Y12110   6.586   3.454   4.409  0.8042  2.2868 -0.4739
  115SAPE  C31312111   6.406   3.408   4.520  0.1163 -0.5760  0.5489
  115SAPE  H13X12112   6.445   3.309   4.552  0.6817  0.2142  2.4639
  115SAPE  H13Y12113   6.297   3.405   4.500 -0.0589  2.7638  0.5286
  115SAPE  C31412114   6.421   3.498   4.640  0.1024 -0.3345 -0.4648
  115SAPE  H14X12115   6.353   3.584   4.617  1.9663  0.8796 -1.7893
  115SAPE  H14Y12116   6.524   3.539   4.633  0.1088 -0.2375  0.2119
  115SAPE  C31512117   6.366   3.452   4.774  0.2262 -0.0603  0.0853
  115SAPE  H15X12118   6.365   3.542   4.839 -0.3871  0.1156 -0.1623
  115SAPE  H15Y12119   6.436   3.372   4.806  1.8770  1.3546  0.1967
  115SAPE  C31612120   6.218   3.394   4.776  0.3051  0.1726 -0.0515
  115SAPE  H16X12121   6.198   3.324   4.693 -2.6163  2.0827 -1.0945
  115SAPE  H16Y12122   6.150   3.482   4.779  0.2915  0.1491  0.4438
  115SAPE  C31712123   6.185   3.314   4.903 -0.9248  0.5476 -0.0183
  115SAPE  H17X12124   6.202   3.370   4.998 -0.5547 -2.1526  1.6046
  115SAPE  H17Y12125   6.252   3.226   4.901  0.7171  1.7069  1.0522
  115SAPE  C31812126   6.046   3.245   4.901  0.3265 -0.8260 -0.0993
  115SAPE  H18X12127   6.048   3.169   4.819 -0.9859 -0.6061 -0.3499
  115SAPE  H18Y12128   5.970   3.319   4.869  0.3022 -0.1622  1.4325
  115SAPE  H18Z12129   6.024   3.196   4.998  2.4184 -0.7133  0.4852
  116SAPE     N12130   0.811   5.228   3.083  0.2702 -0.2637 -0.2609
  116SAPE   HN112131   0.811   5.332   3.077 -3.1000 -0.2197 -4.4269
  116SAPE   HN212132   0.891   5.168   3.111 -0.5414 -0.1445  2.6547
  116SAPE   HN312133   0.787   5.212   2.983 -1.8385  1.7871 -0.1596
  116SAPE   C1212134   0.688   5.187   3.152  0.6307 -0.3917 -0.3057
  116SAPE  H12A12135   0.715   5.180   3.260 -1.0944  1.9069  0.3472
  116SAPE  H12B12136   0.648   5.090   3.115  2.4950 -0.5739 -1.9852
  116SAPE   C1112137   0.572   5.292   3.154  1.1924  0.7926 -0.0864
  116SAPE  H11A12138   0.512   5.246   3.236 -0.7875  1.1682 -1.2555
  116SAPE  H11B12139   0.520   5.293   3.056  0.3179 -1.7366  0.2797
  116SAPE     P12140   0.499   5.524   3.241 -0.5058 -0.2675 -0.3767
  116SAPE   O1312141   0.559   5.658   3.225 -0.2875 -0.3703 -0.1769
  116SAPE   O1412142   0.376   5.507   3.162  0.1629  0.3523 -0.5651
  116SAPE   O1212143   0.606   5.420   3.193 -0.3002  0.5802 -0.4930
  116SAPE   O1112144   0.476   5.492   3.390  0.4069  0.4183  0.0079
  116SAPE    C112145   0.563   5.435   3.483  0.5786  0.5682 -0.1944
  116SAPE    HA12146   0.642   5.376   3.432 -0.5279 -0.6250 -0.5755
  116SAPE    HB12147   0.624   5.508   3.542 -0.0956 -0.6689  2.1430
  116SAPE    C212148   0.494   5.360   3.602 -0.5661  0.2743  0.7561
  116SAPE    HS12149   0.576   5.307   3.656  0.4626 -0.0208 -1.0144
  116SAPE   O2112150   0.404   5.262   3.544  0.6869 -0.3713  0.4166
  116SAPE   C2112151   0.458   5.154   3.496  0.3663  0.7230 -0.6893
  116SAPE   O2212152   0.573   5.127   3.481 -0.0598  0.0188 -0.1441
  116SAPE   C2212153   0.345   5.066   3.452 -0.0459  0.3655 -0.1825
  116SAPE   H2R12154   0.242   5.108   3.455 -1.1929 -2.2489  0.0173
  116SAPE   H2S12155   0.354   5.044   3.343  3.6135 -0.1127  0.0850
  116SAPE    C312156   0.409   5.458   3.695  0.1987  1.1532 -0.6601
  116SAPE    HX12157   0.321   5.490   3.635  1.1031  1.6147 -1.7740
  116SAPE    HY12158   0.470   5.549   3.711  2.5251 -0.6596  1.9069
  116SAPE   O3112159   0.375   5.391   3.821 -0.7565 -0.6990  0.0955
  116SAPE   C3112160   0.468   5.398   3.912 -0.5600 -0.2641  0.1691
  116SAPE   O3212161   0.583   5.436   3.897 -0.0580  0.5259  0.2086
  116SAPE   C3212162   0.405   5.353   4.047  0.5949  0.1270 -0.1566
  116SAPE   H2X12163   0.321   5.281   4.031 -0.1678  0.4636  2.0785
  116SAPE   H2Y12164   0.358   5.438   4.100  1.5749  0.5089  0.0998
  116SAPE   C2312165   0.356   4.934   3.533 -0.5416  0.2941  0.6793
  116SAPE   H3R12166   0.446   4.883   3.492 -0.8681 -0.6707  1.1400
  116SAPE   H3S12167   0.266   4.876   3.503 -1.7991  2.4809 -0.0337
  116SAPE   C2412168   0.370   4.939   3.687  0.3985  0.1027  0.2794
  116SAPE   H4R12169   0.476   4.969   3.704  0.5679  1.8389 -2.9705
  116SAPE   H4S12170   0.352   4.835   3.721 -0.6355  0.3000  0.3543
  116SAPE   C2512171   0.272   5.029   3.757 -0.1378 -0.1618  1.0549
  116SAPE   H5R12172   0.230   5.107   3.692  0.5217 -2.1702 -1.9768
  116SAPE   C2612173   0.234   5.018   3.886 -0.7014  0.0240 -0.9258
  116SAPE   H6R12174   0.168   5.094   3.931 -0.5442  0.0816 -0.7917
  116SAPE   C2712175   0.310   4.937   3.982 -0.1318  0.1737  0.1072
  116SAPE   H7R12176   0.353   5.012   4.052 -1.2750 -2.4934  3.9583
  116SAPE   H7S12177   0.398   4.886   3.936 -1.1459 -1.9972  0.4529
  116SAPE   C2812178   0.233   4.845   4.066  0.2437 -0.0409 -0.7371
  116SAPE   H8R12179   0.147   4.799   4.015 -0.6881  1.2271 -0.3738
  116SAPE   C2912180   0.245   4.816   4.199  0.1514  0.3386 -0.2795
  116SAPE   H9R12181   0.179   4.735   4.231  1.0644 -1.1469 -1.9484
  116SAPE  C21012182   0.347   4.875   4.293 -0.3200  0.3494 -0.3745
  116SAPE  H10R12183   0.293   4.952   4.352  1.1244  1.2678 -0.2010
  116SAPE  H10S12184   0.421   4.936   4.237  0.7854 -0.4232  0.2233
  116SAPE  C21112185   0.425   4.781   4.377 -0.1282  0.7095  0.0021
  116SAPE  H11R12186   0.522   4.761   4.329 -0.3655  0.5102 -0.3970
  116SAPE  C21212187   0.393   4.731   4.497  0.2855 -0.3701 -0.4566
  116SAPE  H12R12188   0.467   4.663   4.541  1.2300  1.8297  1.5751
  116SAPE  C21312189   0.268   4.750   4.574  0.8195 -0.0402 -0.1430
  116SAPE  H13R12190   0.185   4.771   4.502  0.5122 -1.5045 -0.2383
  116SAPE  H13S12191   0.272   4.829   4.652 -2.7017  0.3654 -0.2210
  116SAPE  C21412192   0.235   4.622   4.642 -0.1281 -1.1881  0.2774
  116SAPE  H14R12193   0.192   4.544   4.578 -1.5390  0.6614 -1.1462
  116SAPE  C21512194   0.257   4.593   4.774  0.6660  0.4350  0.9159
  116SAPE  H15R12195   0.227   4.491   4.803 -0.3301  0.9815  1.8758
  116SAPE  C21612196   0.315   4.678   4.883 -0.0434 -0.3481  0.0391
  116SAPE  H16R12197   0.239   4.706   4.959 -0.1023 -3.2590  1.2076
  116SAPE  H16S12198   0.344   4.781   4.855 -0.9421  0.5303  2.1779
  116SAPE  C21712199   0.435   4.594   4.948 -0.3085 -0.3367 -0.0449
  116SAPE  H17R12200   0.474   4.667   5.022 -0.4058  1.2764 -1.5204
  116SAPE  H17S12201   0.518   4.580   4.876  0.8421 -0.9876  1.3702
  116SAPE  C21812202   0.409   4.452   5.000 -0.5615  1.1552  0.3448
  116SAPE  H18R12203   0.382   4.379   4.922  0.3435 -0.1462  1.2123
  116SAPE  H18S12204   0.327   4.450   5.075  1.0074  0.5433  2.1418
  116SAPE  C21912205   0.531   4.382   5.062  0.2648 -0.4208  0.2506
  116SAPE  H19R12206   0.507   4.283   5.108 -2.5818 -0.2499 -0.6772
  116SAPE  H19S12207   0.555   4.444   5.151 -0.0439 -1.0264  0.7634
  116SAPE  C22012208   0.654   4.388   4.971  0.0906 -0.6675  0.0916
  116SAPE  H20R12209   0.737   4.324   5.006 -0.8627 -0.9619  1.9855
  116SAPE  H20S12210   0.692   4.492   4.974 -1.8967  0.1179  0.0014
  116SAPE  H20T12211   0.635   4.373   4.863 -0.3501  3.2883 -0.5381
  116SAPE   C3312212   0.506   5.286   4.148  0.2953 -0.5873 -0.4750
  116SAPE   H3X12213   0.601   5.341   4.170 -0.0596  0.1450 -0.7239
  116SAPE   H3Y12214   0.548   5.198   4.096  0.6179  0.4965 -2.1394
  116SAPE   C3412215   0.431   5.262   4.279 -0.0411 -0.4791 -0.2217
  116SAPE   H4X12216   0.370   5.171   4.257  2.5701 -2.5030  0.4275
  116SAPE   H4Y12217   0.353   5.334   4.313  0.4717  0.7333 -1.5243
  116SAPE   C3512218   0.532   5.210   4.384 -0.0959 -0.1744  0.4957
  116SAPE   H5X12219   0.635   5.246   4.364 -0.9074  0.9252 -2.3061
  116SAPE   H5Y12220   0.524   5.100   4.388 -3.4431 -0.0525  0.1904
  116SAPE   C3612221   0.477   5.264   4.514  0.6609 -0.3433 -0.3798
  116SAPE   H6X12222   0.375   5.223   4.527  1.4415 -2.4661 -0.6912
  116SAPE   H6Y12223   0.471   5.375   4.508 -0.4350 -0.2076  1.9619
  116SAPE   C3712224   0.567   5.234   4.634  0.0695  0.7944  0.9379
  116SAPE   H7X12225   0.523   5.300   4.711 -2.8332  1.0074 -0.7265
  116SAPE   H7Y12226   0.674   5.250   4.609  0.1632  0.5588  1.1872
  116SAPE   C3812227   0.556   5.090   4.678  0.2500  0.2268 -0.8067
  116SAPE   H8X12228   0.609   5.026   4.604  0.5112 -0.0640 -0.3695
  116SAPE   H8Y12229   0.449   5.061   4.689  0.0108  0.5199 -2.1634
  116SAPE   C3912230   0.602   5.053   4.824 -0.6150  0.2699 -0.1450
  116SAPE   H9X12231   0.535   5.111   4.892 -2.5059  1.0088 -2.4890
  116SAPE   H9Y12232   0.709   5.079   4.835 -0.6174  0.7993 -1.2944
  116SAPE  C31012233   0.581   4.909   4.869  0.5072  0.1126 -0.2518
  116SAPE  H10X12234   0.546   4.838   4.791 -0.1168  0.8621 -0.6782
  116SAPE  H10Y12235   0.497   4.903   4.942  0.7660  1.6240  0.2040
  116SAPE  C31112236   0.703   4.861   4.943 -0.6837  0.5685  0.7284
  116SAPE  H11X12237   0.781   4.845   4.866 -2.7620 -1.4990 -1.0753
  116SAPE  H11Y12238   0.665   4.763   4.980 -0.3849 -0.0955 -0.6842
  116SAPE  C31212239   0.748   4.957   5.056 -0.0450 -0.2103 -0.1123
  116SAPE  H12X12240   0.656   5.010   5.091  0.1420  0.3448 -0.4549
  116SAPE  H12Y12241   0.827   5.028   5.024 -0.9298  0.2962 -1.2195
  116SAPE  C31312242   0.810   4.879   5.177  0.2143 -0.1172 -0.8040
  116SAPE  H13X12243   0.821   4.956   5.256 -0.4601 -0.3437 -0.4803
  116SAPE  H13Y12244   0.913   4.845   5.152  0.1949  0.5741 -1.9034
  116SAPE  C31412245   0.722   4.772   5.237 -0.1661  0.9731 -0.1978
  116SAPE  H14X12246   0.721   4.683   5.170 -0.6686  0.9195 -0.1222
  116SAPE  H14Y12247   0.624   4.812   5.271 -0.7845  0.6898 -1.5760
  116SAPE  C31512248   0.763   4.710   5.381 -1.1310  0.0819  0.1779
  116SAPE  H15X12249   0.674   4.662   5.428 -0.9809  1.1198  1.5663
  116SAPE  H15Y12250   0.801   4.797   5.438 -1.2686 -0.3685  0.9738
  116SAPE  C31612251   0.887   4.615   5.370 -0.2028  0.3964  0.5377
  116SAPE  H16X12252   0.940   4.593   5.465  1.1120  0.6576 -0.1107
  116SAPE  H16Y12253   0.954   4.639   5.285 -1.7143  1.0368 -0.5157
  116SAPE  C31712254   0.833   4.475   5.328 -0.6809 -0.2739 -0.1595
  116SAPE  H17X12255   0.779   4.486   5.232  1.1655  3.8190 -0.9308
  116SAPE  H17Y12256   0.756   4.442   5.400 -0.7467  0.1374 -0.0367
  116SAPE  C31812257   0.944   4.366   5.313  0.1252 -0.2252  0.0206
  116SAPE  H18X12258   1.030   4.416   5.264 -0.0100  0.4264  0.4304
  116SAPE  H18Y12259   0.912   4.284   5.246 -1.2875  1.2463 -1.1910
  116SAPE  H18Z12260   0.985   4.326   5.408  3.2753  0.4316 -0.9378
  117SOPE     N12261   4.054   6.121   7.247 -0.2806  0.6236 -0.2023
  117SOPE   HN112262   4.155   6.101   7.263 -0.2106  0.4693 -0.7942
  117SOPE   HN212263   4.048   6.115   7.143 -1.6365  0.0188 -0.1142
  117SOPE   HN312264   4.028   6.219   7.267 -1.1958  0.1885  0.7951
  117SOPE   C1212265   3.974   6.021   7.321 -0.4120 -0.3852 -0.0252
  117SOPE  H12A12266   3.870   6.034   7.284 -0.3220  2.0090  0.4444
  117SOPE  H12B12267   3.992   6.037   7.430  2.2379 -2.1978 -0.0923
  117SOPE   C1112268   4.025   5.878   7.288  0.4010  0.1941  0.0222
  117SOPE  H11A12269   4.001   5.856   7.182 -0.1354  3.0140 -0.5348
  117SOPE  H11B12270   3.962   5.807   7.346  0.7123 -0.7694 -0.7996
  117SOPE     P12271   4.289   5.886   7.246  0.1171 -0.5309 -0.3916
  117SOPE   O1312272   4.394   5.785   7.267  0.3137 -0.4464 -0.2766
  117SOPE   O1412273   4.311   6.027   7.281  0.0451 -0.1555 -0.1096
  117SOPE   O1212274   4.159   5.850   7.323  0.3042 -0.0676 -0.7910
  117SOPE   O1112275   4.240   5.894   7.099  0.0317  0.0667  0.6537
  117SOPE    C112276   4.266   5.803   6.989  0.3918 -0.4215 -0.4618
  117SOPE    HA12277   4.179   5.764   6.932  1.1699 -1.1429 -1.1814
  117SOPE    HB12278   4.316   5.708   7.019  0.1986 -0.9184 -1.6632
  117SOPE    C212279   4.351   5.862   6.869  0.2937  0.0682  0.0101
  117SOPE    HS12280   4.455   5.851   6.906  0.6899 -1.8086 -1.5404
  117SOPE   O2112281   4.322   6.003   6.854  0.4549  0.2567  0.7549
  117SOPE   C2112282   4.413   6.079   6.815 -0.3413 -0.6433  0.1404
  117SOPE   O2212283   4.531   6.057   6.799  0.2303 -0.4049  0.1574
  117SOPE   C2212284   4.344   6.213   6.786 -0.6442 -0.2326  0.1065
  117SOPE   H2R12285   4.294   6.253   6.877 -0.5930  1.1132 -0.4302
  117SOPE   H2S12286   4.273   6.191   6.704 -1.0455  2.9079 -0.5140
  117SOPE    C312287   4.336   5.785   6.737  0.3796  0.3542  0.0608
  117SOPE    HX12288   4.407   5.841   6.673  2.0204 -0.6949  0.8753
  117SOPE    HY12289   4.230   5.791   6.704  0.1314 -1.1247  0.4962
  117SOPE   O3112290   4.363   5.642   6.744 -0.0580 -0.3139 -0.4625
  117SOPE   C3112291   4.486   5.609   6.758  0.1820  0.1096 -0.0462
  117SOPE   O3212292   4.578   5.687   6.761  0.5459 -0.5700 -0.2643
  117SOPE   C3212293   4.499   5.458   6.774 -0.1330 -0.6037 -0.7467
  117SOPE   H2X12294   4.409   5.403   6.740 -0.4890 -0.9956  0.7630
  117SOPE   H2Y12295   4.513   5.442   6.883  2.5869 -1.9076 -1.2046
  117SOPE   C2312296   4.435   6.326   6.738 -0.7255  0.0104 -0.5108
  117SOPE   H3R12297   4.511   6.274   6.677 -1.2095 -1.5292  0.1422
  117SOPE   H3S12298   4.486   6.368   6.828 -0.0033 -2.0054  0.0656
  117SOPE   C2412299   4.362   6.426   6.651 -0.3172  0.5322 -0.2166
  117SOPE   H4R12300   4.301   6.376   6.572  0.1555 -1.5868  0.7073
  117SOPE   H4S12301   4.282   6.474   6.710 -1.7421 -1.1732 -0.6537
  117SOPE   C2512302   4.455   6.525   6.582  0.3613  0.0035 -0.3328
  117SOPE   H5R12303   4.516   6.576   6.658 -2.2816  0.1257  1.8547
  117SOPE   H5S12304   4.531   6.478   6.516 -0.3285 -0.5660 -0.7375
  117SOPE   C2612305   4.382   6.627   6.496 -0.7638  0.2449  0.4340
  117SOPE   H6R12306   4.288   6.647   6.552  0.0761 -1.2384  2.5097
  117SOPE   H6S12307   4.446   6.718   6.492 -2.1936  1.4569  2.8733
  117SOPE   C2712308   4.351   6.574   6.356  0.1629 -0.2151  0.5510
  117SOPE   H7R12309   4.311   6.470   6.360  2.6706 -1.2132  2.9029
  117SOPE   H7S12310   4.271   6.622   6.296 -0.0043 -1.6595 -0.4584
  117SOPE   C2812311   4.472   6.573   6.268 -0.2471 -0.8390 -0.5541
  117SOPE   H8R12312   4.480   6.679   6.234 -0.0459  0.5065  3.1700
  117SOPE   H8S12313   4.559   6.553   6.334 -2.2463 -1.2398  2.1454
  117SOPE   C2912314   4.473   6.467   6.161  0.2567 -0.9640  0.0387
  117SOPE   H9112315   4.542   6.383   6.176  1.0240 -0.3349  0.0772
  117SOPE  C21012316   4.404   6.488   6.040  0.7999  0.8822  0.1621
  117SOPE  H10112317   4.397   6.402   5.971 -1.2393  1.3767 -0.3247
  117SOPE  C21112318   4.324   6.603   6.003 -0.6520 -0.7655  0.5799
  117SOPE  H11R12319   4.390   6.692   6.007  0.3049 -1.3155 -1.2960
  117SOPE  H11S12320   4.244   6.629   6.076  2.0114  1.5357  2.9020
  117SOPE  C21212321   4.279   6.593   5.856 -0.4803  0.8593 -0.5632
  117SOPE  H12R12322   4.206   6.674   5.841 -0.8196  0.3382 -1.8502
  117SOPE  H12S12323   4.221   6.498   5.853  1.4296 -0.5905  2.7406
  117SOPE  C21312324   4.399   6.604   5.756  0.4869  0.2260  0.3034
  117SOPE  H13R12325   4.420   6.501   5.719  3.4515  0.7485  0.2505
  117SOPE  H13S12326   4.492   6.640   5.805  1.6004 -0.9239 -0.8672
  117SOPE  C21412327   4.359   6.690   5.642 -0.1195 -0.3553 -0.0817
  117SOPE  H14R12328   4.297   6.777   5.671 -0.9835 -0.8731 -0.3420
  117SOPE  H14S12329   4.290   6.633   5.576  1.0581 -1.3985 -0.4542
  117SOPE  C21512330   4.476   6.760   5.564 -0.3084 -0.8259 -0.3523
  117SOPE  H15R12331   4.553   6.682   5.544 -0.9965 -1.5842 -0.1466
  117SOPE  H15S12332   4.516   6.839   5.630 -1.8655  0.8895 -1.3575
  117SOPE  C21612333   4.431   6.826   5.430 -0.0200 -0.6923  0.2354
  117SOPE  H16R12334   4.353   6.898   5.461  1.7182  0.9631  0.9055
  117SOPE  H16S12335   4.396   6.752   5.354  0.8982 -0.6350 -0.2635
  117SOPE  C21712336   4.541   6.908   5.357 -0.5002 -0.7809 -0.2387
  117SOPE  H17R12337   4.574   6.993   5.419 -0.5516 -0.5547 -0.5175
  117SOPE  H17S12338   4.492   6.967   5.277 -0.2815  1.2521  1.0580
  117SOPE  C21812339   4.657   6.824   5.320 -0.3457 -0.4525  0.3634
  117SOPE  H18R12340   4.727   6.881   5.256 -1.3718  0.3927 -0.0465
  117SOPE  H18S12341   4.627   6.736   5.259 -1.1613 -0.8647  1.3255
  117SOPE  H18T12342   4.717   6.789   5.406 -1.4320  0.8528  1.7104
  117SOPE   C3312343   4.628   5.419   6.696  0.0243 -0.6313  0.1137
  117SOPE   H3X12344   4.657   5.319   6.734  2.2310 -0.1837 -0.2081
  117SOPE   H3Y12345   4.712   5.488   6.722 -1.1712  1.0982 -0.4527
  117SOPE   C3412346   4.607   5.395   6.546 -0.2669 -0.0365  0.1116
  117SOPE   H4X12347   4.551   5.482   6.505 -0.3805  0.8553  2.0260
  117SOPE   H4Y12348   4.554   5.300   6.527 -1.0164  0.3770  0.0843
  117SOPE   C3512349   4.746   5.383   6.476  0.3673  0.0778 -0.1830
  117SOPE   H5X12350   4.806   5.299   6.516 -0.5228 -0.9535 -0.9452
  117SOPE   H5Y12351   4.797   5.478   6.502  3.0829 -0.9294 -1.4446
  117SOPE   C3612352   4.734   5.377   6.322  0.2006 -0.5172 -0.3948
  117SOPE   H6X12353   4.673   5.462   6.285 -1.2928 -2.8191 -3.6727
  117SOPE   H6Y12354   4.677   5.286   6.294 -1.5251  0.8480 -1.5861
  117SOPE   C3712355   4.874   5.392   6.257 -0.1013 -0.2130  0.2500
  117SOPE   H7X12356   4.932   5.303   6.290  0.7559 -0.4988 -1.8831
  117SOPE   H7Y12357   4.931   5.481   6.291 -0.2882  0.1814 -0.4602
  117SOPE   C3812358   4.866   5.383   6.109  0.0127 -0.4153  0.1105
  117SOPE   H8X12359   4.784   5.316   6.076 -0.4572 -0.3589  1.1504
  117SOPE   H8Y12360   4.963   5.338   6.079 -0.0091 -0.4311  0.0622
  117SOPE   C3912361   4.847   5.513   6.033 -0.0403 -0.6412  0.4776
  117SOPE   H9X12362   4.918   5.588   6.074  0.5923 -0.6974 -0.5055
  117SOPE   H9Y12363   4.742   5.547   6.048 -0.0787  0.2862 -1.5557
  117SOPE  C31012364   4.873   5.493   5.887  0.2167 -0.2484 -0.3375
  117SOPE  H10X12365   4.842   5.393   5.851 -1.2014  1.0663 -3.0821
  117SOPE  H10Y12366   4.983   5.504   5.877  0.5206 -0.8924  1.7800
  117SOPE  C31112367   4.803   5.599   5.791  0.4884 -0.0914 -0.1855
  117SOPE  H11X12368   4.816   5.699   5.837 -3.9424  1.1982 -1.2819
  117SOPE  H11Y12369   4.693   5.585   5.786  0.4432  0.1369  0.1888
  117SOPE  C31212370   4.860   5.606   5.646 -0.5914 -0.8424  0.1152
  117SOPE  H12X12371   4.843   5.507   5.599  1.2236 -0.4463 -1.4699
  117SOPE  H12Y12372   4.970   5.609   5.652 -0.5798 -0.7369 -0.1499
  117SOPE  C31312373   4.805   5.720   5.561 -0.2704 -0.0863  0.5849
  117SOPE  H13X12374   4.821   5.808   5.626 -1.3969  0.6236 -0.0511
  117SOPE  H13Y12375   4.696   5.709   5.542  0.0797 -0.7953 -1.2886
  117SOPE  C31412376   4.867   5.720   5.421 -0.3797  0.2945  0.1824
  117SOPE  H14X12377   4.976   5.739   5.419  0.0011 -1.5717  0.8005
  117SOPE  H14Y12378   4.823   5.807   5.368 -0.9878  1.0748  1.9078
  117SOPE  C31512379   4.849   5.596   5.330  0.2190 -0.0776 -0.4591
  117SOPE  H15X12380   4.740   5.584   5.310  0.1059  1.6145 -1.0555
  117SOPE  H15Y12381   4.882   5.506   5.385 -1.1264 -0.8857 -0.9244
  117SOPE  C31612382   4.916   5.605   5.191 -1.0226  0.0402 -0.2173
  117SOPE  H16X12383   5.024   5.630   5.191 -0.8583 -0.6182  0.9266
  117SOPE  H16Y12384   4.878   5.691   5.131  1.5714  0.6480 -1.1121
  117SOPE  C31712385   4.900   5.468   5.125  0.0637  0.5417  0.2108
  117SOPE  H17X12386   4.792   5.460   5.099  0.4005 -0.9554 -0.8347
  117SOPE  H17Y12387   4.921   5.393   5.204 -0.7822  1.7057  1.6040
  117SOPE  C31812388   4.979   5.440   4.996  0.2674 -0.8063  0.4988
  117SOPE  H18X12389   4.946   5.510   4.915  0.3598  2.5898  3.1613
  117SOPE  H18Y12390   4.967   5.335   4.964  1.1911 -0.0636 -2.6776
  117SOPE  H18Z12391   5.084   5.468   5.021  0.2084  0.7876 -0.8719
  118SOPE     N12392   5.989   0.391   7.234  0.5483  0.0694 -0.2513
  118SOPE   HN112393   6.083   0.404   7.190  0.7037  0.3582  0.1585
  118SOPE   HN212394   5.997   0.463   7.310  1.2780 -2.0637  1.8138
  118SOPE   HN312395   5.980   0.297   7.276 -1.5067  0.7800  1.0532
  118SOPE   C1212396   5.898   0.422   7.120  0.5197 -0.6928  0.5217
  118SOPE  H12A12397   5.878   0.330   7.061  3.0971  0.1096 -1.8111
  118SOPE  H12B12398   5.949   0.496   7.055  0.1102 -0.0771  0.8931
  118SOPE   C1112399   5.758   0.478   7.158 -0.7585  0.4731  0.2056
  118SOPE  H11A12400   5.698   0.499   7.067  3.7297  1.7986 -2.8367
  118SOPE  H11B12401   5.778   0.574   7.211  0.0817  0.1878  0.4255
  118SOPE     P12402   5.584   0.287   7.212 -0.4440  0.3931 -0.6954
  118SOPE   O1312403   5.461   0.371   7.192 -0.5396  0.5146  0.6551
  118SOPE   O1412404   5.572   0.183   7.313 -0.1618  0.3508 -0.0405
  118SOPE   O1212405   5.704   0.387   7.257 -0.0750 -0.0473 -0.5744
  118SOPE   O1112406   5.642   0.243   7.067 -0.0601 -0.3532 -0.3074
  118SOPE    C112407   5.704   0.118   7.050  0.9894 -0.3487  0.3711
  118SOPE    HA12408   5.642   0.029   7.076  0.5050 -0.2860 -0.5139
  118SOPE    HB12409   5.796   0.110   7.111  0.8649  0.8948  0.7327
  118SOPE    C212410   5.748   0.092   6.901 -0.5103 -0.3919  0.0877
  118SOPE    HS12411   5.832   0.161   6.878 -1.0750  0.2422 -0.1127
  118SOPE   O2112412   5.643   0.108   6.803 -0.3898  0.7339  0.0062
  118SOPE   C2112413   5.621   0.226   6.759  0.3144  0.2876  0.6804
  118SOPE   O2212414   5.687   0.328   6.767 -0.0605 -0.1997 -0.2479
  118SOPE   C2212415   5.489   0.217   6.681  0.1327 -0.2429 -0.7234
  118SOPE   H2R12416   5.435   0.311   6.705 -0.1750 -0.7605  0.6930
  118SOPE   H2S12417   5.425   0.138   6.726  0.7611 -0.9727 -1.0898
  118SOPE    C312418   5.806  -0.053   6.888 -0.3028 -0.5927  0.3604
  118SOPE    HX12419   5.723  -0.125   6.903 -1.0915  0.4297  1.1068
  118SOPE    HY12420   5.871  -0.056   6.978 -0.5621  1.8719  0.7176
  118SOPE   O3112421   5.885  -0.068   6.767 -0.2003 -0.1913  0.1706
  118SOPE   C3112422   5.964  -0.170   6.757 -0.0438 -0.3315 -0.3186
  118SOPE   O3212423   5.981  -0.254   6.841 -0.5477 -0.3604  0.0105
  118SOPE   C3212424   6.040  -0.161   6.624 -0.4465  0.1462  0.1712
  118SOPE   H2X12425   6.103  -0.249   6.602 -0.1371 -0.1370  2.0505
  118SOPE   H2Y12426   6.115  -0.079   6.632 -0.3807  0.1948 -0.7970
  118SOPE   C2312427   5.512   0.198   6.530  0.8397  0.2066  0.2769
  118SOPE   H3R12428   5.415   0.185   6.479  1.1385  0.1060 -0.2665
  118SOPE   H3S12429   5.562   0.100   6.517  0.4421  0.0830 -0.3680
  118SOPE   C2412430   5.581   0.311   6.460 -0.4577  0.2854  0.4484
  118SOPE   H4R12431   5.508   0.395   6.449 -0.1974  0.4722  0.1206
  118SOPE   H4S12432   5.677   0.331   6.512  0.2032 -3.1926  0.8191
  118SOPE   C2512433   5.622   0.284   6.313 -0.5548  0.1643  0.1971
  118SOPE   H5R12434   5.668   0.376   6.272 -0.3117  0.6386  1.4769
  118SOPE   H5S12435   5.699   0.204   6.321 -0.3051  0.5342  1.7734
  118SOPE   C2612436   5.499   0.256   6.224 -0.8147  0.1305  0.5591
  118SOPE   H6R12437   5.429   0.184   6.271  2.5437 -2.7116  1.6553
  118SOPE   H6S12438   5.453   0.354   6.199  0.3235  1.2508  2.5523
  118SOPE   C2712439   5.544   0.203   6.092 -0.3071 -0.1349 -0.7444
  118SOPE   H7R12440   5.611   0.271   6.035  0.8317 -0.4435  0.1803
  118SOPE   H7S12441   5.600   0.108   6.105 -1.2516 -0.6671 -0.5104
  118SOPE   C2812442   5.422   0.184   5.996  0.2749  0.4816  0.7664
  118SOPE   H8R12443   5.349   0.117   6.045 -0.2427  1.4961  1.4151
  118SOPE   H8S12444   5.370   0.279   5.971 -1.8159 -1.2818 -2.1143
  118SOPE   C2912445   5.459   0.111   5.869 -0.0122  1.1259 -0.1043
  118SOPE   H9112446   5.461   0.001   5.869 -0.6481  1.1056 -0.9206
  118SOPE  C21012447   5.491   0.173   5.757 -0.2681  0.3459  0.2611
  118SOPE  H10112448   5.508   0.110   5.668  5.7133  2.3499 -0.4872
  118SOPE  C21112449   5.499   0.318   5.738 -0.0397  0.1621  0.5725
  118SOPE  H11R12450   5.525   0.376   5.829 -2.0384  2.9215 -0.4756
  118SOPE  H11S12451   5.400   0.359   5.708  0.8403  2.1161  0.1541
  118SOPE  C21212452   5.612   0.360   5.639  0.2848 -0.0198  0.3519
  118SOPE  H12R12453   5.608   0.469   5.616 -0.8564 -0.4872 -1.9697
  118SOPE  H12S12454   5.595   0.319   5.537  2.1958 -1.2460  0.4781
  118SOPE  C21312455   5.748   0.317   5.684 -0.0422  0.0691 -0.1711
  118SOPE  H13R12456   5.762   0.208   5.671  3.4734 -0.0107  2.7121
  118SOPE  H13S12457   5.770   0.358   5.785  0.9374  1.6194 -0.9727
  118SOPE  C21412458   5.855   0.377   5.589 -0.7891  0.0900 -0.0522
  118SOPE  H14R12459   5.823   0.347   5.487 -0.3159 -0.6886  0.0192
  118SOPE  H14S12460   5.948   0.321   5.616 -0.7481 -0.3664 -1.1130
  118SOPE  C21512461   5.873   0.524   5.608  0.0502  0.3870 -0.9184
  118SOPE  H15R12462   5.882   0.539   5.718 -0.5485 -2.6823 -0.3692
  118SOPE  H15S12463   5.789   0.590   5.575 -0.4087 -0.8183 -2.2891
  118SOPE  C21612464   5.994   0.589   5.547 -0.1346 -0.4182  0.5614
  118SOPE  H16R12465   5.969   0.646   5.455  1.9432  0.5929  0.5581
  118SOPE  H16S12466   6.063   0.507   5.519  2.0653  2.3753 -3.1099
  118SOPE  C21712467   6.095   0.667   5.640  0.1176 -0.0405 -0.2862
  118SOPE  H17R12468   6.180   0.703   5.577  0.4598  1.1878  0.8170
  118SOPE  H17S12469   6.135   0.602   5.720 -1.5752 -0.9385 -0.1342
  118SOPE  C21812470   6.039   0.789   5.715 -0.0235 -0.0813 -0.6885
  118SOPE  H18R12471   5.963   0.755   5.788  2.2907 -1.8592  1.0268
  118SOPE  H18S12472   5.994   0.866   5.648  0.5261  1.6898  0.8736
  118SOPE  H18T12473   6.131   0.837   5.756  0.0667 -1.1751  0.4428
  118SOPE   C3312474   5.945  -0.135   6.503 -0.5321 -0.5176 -0.2049
  118SOPE   H3X12475   5.882  -0.044   6.510  0.3738  0.4970 -3.4507
  118SOPE   H3Y12476   5.885  -0.228   6.489 -1.2669  0.0840 -1.1416
  118SOPE   C3412477   6.012  -0.098   6.374 -0.0754  0.2638  0.7809
  118SOPE   H4X12478   6.077  -0.182   6.341 -2.4883 -0.8339 -1.5569
  118SOPE   H4Y12479   6.069  -0.005   6.397  0.3556  0.6169 -1.4467
  118SOPE   C3512480   5.910  -0.062   6.269 -0.4569 -0.1112  0.5207
  118SOPE   H5X12481   5.914   0.049   6.263 -0.0565 -0.1657 -0.2844
  118SOPE   H5Y12482   5.809  -0.081   6.312 -0.2773  0.2428  1.1068
  118SOPE   C3612483   5.936  -0.127   6.135  0.6049  0.3476  0.5725
  118SOPE   H6X12484   5.877  -0.221   6.131  0.4640  0.4442 -2.8073
  118SOPE   H6Y12485   6.041  -0.162   6.119  0.9204  2.0213 -1.3664
  118SOPE   C3712486   5.902  -0.050   6.009  0.6980 -0.5908  0.0935
  118SOPE   H7X12487   5.975   0.035   6.013 -1.4361  1.2941  1.9224
  118SOPE   H7Y12488   5.800  -0.008   6.021  1.2169  1.4872 -1.9924
  118SOPE   C3812489   5.898  -0.123   5.877 -0.0683  0.1549  0.2498
  118SOPE   H8X12490   5.815  -0.196   5.874 -0.3467  0.4702  0.2712
  118SOPE   H8Y12491   5.988  -0.187   5.870 -0.6221 -0.5306 -0.9110
  118SOPE   C3912492   5.885  -0.031   5.760 -0.6396  0.3013  0.4132
  118SOPE   H9X12493   5.972   0.037   5.756 -1.3745  1.4025  2.1316
  118SOPE   H9Y12494   5.794   0.032   5.776  1.0912  3.1963 -0.4124
  118SOPE  C31012495   5.861  -0.110   5.627 -0.0798  0.1150  0.1514
  118SOPE  H10X12496   5.754  -0.137   5.641 -0.5281  0.2775 -2.4311
  118SOPE  H10Y12497   5.928  -0.198   5.622 -2.7855 -2.0045 -2.9525
  118SOPE  C31112498   5.872  -0.018   5.502  0.4754 -0.7731  0.2527
  118SOPE  H11X12499   5.940  -0.066   5.427 -0.6608 -1.0893 -0.5962
  118SOPE  H11Y12500   5.899   0.084   5.537  2.8899 -0.8121 -1.1987
  118SOPE  C31212501   5.736  -0.021   5.426  0.3553 -0.2505 -0.2340
  118SOPE  H12X12502   5.655   0.034   5.479 -0.0347 -2.4277  1.5983
  118SOPE  H12Y12503   5.729  -0.131   5.409 -0.0670 -0.0462 -1.5086
  118SOPE  C31312504   5.737   0.051   5.286  0.4791  0.3706 -0.6760
  118SOPE  H13X12505   5.815   0.028   5.211 -0.9861 -0.2879 -2.0774
  118SOPE  H13Y12506   5.747   0.159   5.310  0.7899  0.5597 -1.6119
  118SOPE  C31412507   5.588   0.047   5.227 -0.5144  0.1324 -0.4215
  118SOPE  H14X12508   5.560  -0.061   5.228  2.8795 -0.8941  0.7884
  118SOPE  H14Y12509   5.580   0.088   5.124 -1.9078  2.4754  0.5504
  118SOPE  C31512510   5.486   0.130   5.307 -0.2913  0.2515  0.0623
  118SOPE  H15X12511   5.534   0.228   5.330  2.2950 -0.8731 -0.2425
  118SOPE  H15Y12512   5.466   0.077   5.402 -0.5040 -1.5291 -0.9389
  118SOPE  C31612513   5.353   0.146   5.237  0.0627 -0.2586 -0.2851
  118SOPE  H16X12514   5.305   0.047   5.223 -0.7001  0.0646  0.0008
  118SOPE  H16Y12515   5.374   0.180   5.134 -0.4012  0.2288 -0.2200
  118SOPE  C31712516   5.253   0.231   5.318  0.0359  0.3997 -0.1659
  118SOPE  H17X12517   5.230   0.182   5.415  0.8268 -2.1230 -1.1678
  118SOPE  H17Y12518   5.158   0.237   5.261 -0.0250 -1.1164 -0.2564
  118SOPE  C31812519   5.306   0.377   5.346 -0.1382 -0.2263 -0.9801
  118SOPE  H18X12520   5.228   0.433   5.401  3.2597  0.6177  3.6264
  118SOPE  H18Y12521   5.331   0.413   5.244 -0.1912  1.0487 -0.5558
  118SOPE  H18Z12522   5.388   0.378   5.421 -0.1330 -1.1629 -0.9576
  119SOPE     N12523   0.739   0.276   7.825 -0.8074  0.1042 -0.0139
  119SOPE   HN112524   0.760   0.187   7.774 -1.1561  0.0250 -0.0222
  119SOPE   HN212525   0.800   0.351   7.787 -1.5811  1.4893  1.3721
  119SOPE   HN312526   0.767   0.261   7.924 -0.4204  0.6985 -0.0320
  119SOPE   C1212527   0.595   0.297   7.785 -0.2124 -0.1251  1.0425
  119SOPE  H12A12528   0.594   0.304   7.674  0.5413  0.4019  1.0640
  119SOPE  H12B12529   0.563   0.399   7.815  1.0255  2.4396 -4.8188
  119SOPE   C1112530   0.497   0.190   7.819  0.3035 -0.0064 -0.5743
  119SOPE  H11A12531   0.394   0.201   7.777  0.4599 -2.0505 -1.6139
  119SOPE  H11B12532   0.491   0.200   7.929 -1.0488 -0.3210 -0.5936
  119SOPE     P12533   0.460  -0.060   7.713 -0.1826 -0.1162  0.0574
  119SOPE   O1312534   0.331  -0.064   7.784 -0.6976 -0.3359 -0.3930
  119SOPE   O1412535   0.544  -0.185   7.715  0.5816 -0.4631  0.2736
  119SOPE   O1212536   0.544   0.062   7.772  0.5730 -0.0563 -0.2500
  119SOPE   O1112537   0.435  -0.025   7.567 -0.3549  0.2255  0.0421
  119SOPE    C112538   0.513  -0.063   7.455 -0.3070 -0.0591 -0.4863
  119SOPE    HA12539   0.436  -0.088   7.379  0.1589 -0.8273 -0.7148
  119SOPE    HB12540   0.577  -0.153   7.470 -2.6615 -1.4660  2.1953
  119SOPE    C212541   0.593   0.055   7.389  0.0242 -1.0551  0.0456
  119SOPE    HS12542   0.668   0.088   7.463 -0.8001  2.0207 -0.3562
  119SOPE   O2112543   0.496   0.158   7.378 -0.3118 -0.0202  0.0076
  119SOPE   C2112544   0.537   0.269   7.321  1.0672 -0.3863  0.3878
  119SOPE   O2212545   0.653   0.305   7.315 -0.1285 -0.2734  0.4331
  119SOPE   C2212546   0.413   0.320   7.249 -0.1973  0.4043 -0.2201
  119SOPE   H2R12547   0.446   0.410   7.194  1.8987 -1.0910 -1.5368
  119SOPE   H2S12548   0.340   0.356   7.325 -0.4986 -1.7806  0.6074
  119SOPE    C312549   0.671   0.010   7.264 -0.5748  0.3348 -0.0569
  119SOPE    HX12550   0.747  -0.067   7.290  1.0543  1.5579 -0.9425
  119SOPE    HY12551   0.741   0.092   7.236  0.2828 -0.6427 -0.8533
  119SOPE   O3112552   0.596  -0.035   7.149  0.6138  0.0851 -0.0347
  119SOPE   C3112553   0.588  -0.165   7.121 -0.3571 -0.2219  0.3077
  119SOPE   O3212554   0.624  -0.250   7.200  1.0420  0.0870 -0.2140
  119SOPE   C3212555   0.563  -0.186   6.968  0.2359 -0.1906 -0.5783
  119SOPE   H2X12556   0.523  -0.089   6.929 -1.9557 -0.1843  1.4509
  119SOPE   H2Y12557   0.484  -0.263   6.958  2.1472 -2.0737 -2.2199
  119SOPE   C2312558   0.350   0.222   7.151 -0.9797  0.5350  0.0464
  119SOPE   H3R12559   0.286   0.151   7.207 -1.3249  0.3276 -0.5912
  119SOPE   H3S12560   0.428   0.163   7.098 -2.0534  0.2892 -1.3213
  119SOPE   C2412561   0.269   0.292   7.041  0.0681 -0.3363 -0.2267
  119SOPE   H4R12562   0.189   0.355   7.087 -0.0002  0.4439 -1.3642
  119SOPE   H4S12563   0.335   0.358   6.981 -1.2218  1.7080  0.4780
  119SOPE   C2512564   0.207   0.196   6.939  0.0555 -0.0365 -0.0823
  119SOPE   H5R12565   0.280   0.112   6.934 -1.9824 -1.8327 -1.9843
  119SOPE   H5S12566   0.121   0.151   6.993 -0.3768 -0.0881 -0.8056
  119SOPE   C2612567   0.174   0.251   6.798 -0.0298 -0.1137  0.2449
  119SOPE   H6R12568   0.096   0.330   6.806  0.5742  0.7093 -1.3808
  119SOPE   H6S12569   0.262   0.296   6.747  0.6171  0.7017  1.9899
  119SOPE   C2712570   0.107   0.149   6.701  0.0139 -0.1898  0.2455
  119SOPE   H7R12571   0.159   0.051   6.700 -0.1346 -0.2702  0.3373
  119SOPE   H7S12572   0.010   0.131   6.752  0.6412 -1.9600  0.8712
  119SOPE   C2812573   0.084   0.199   6.563  0.7221  0.6779  0.4201
  119SOPE   H8R12574   0.182   0.212   6.513  0.8956  1.5495  0.9662
  119SOPE   H8S12575   0.029   0.124   6.503  1.6195 -0.9322  1.5110
  119SOPE   C2912576   0.013   0.333   6.564 -0.8269 -0.2340 -0.6913
  119SOPE   H9112577  -0.080   0.325   6.622 -1.7978  0.2126 -2.1198
  119SOPE  C21012578   0.069   0.454   6.524  0.6444 -0.2742 -0.7053
  119SOPE  H10112579  -0.001   0.539   6.527 -1.3128 -1.8586  1.6292
  119SOPE  C21112580   0.197   0.488   6.452  0.0997  0.0621 -0.1499
  119SOPE  H11R12581   0.240   0.393   6.413 -1.0033 -0.4878 -0.0610
  119SOPE  H11S12582   0.278   0.529   6.516  0.5569 -1.4038  0.2426
  119SOPE  C21212583   0.169   0.572   6.324  0.2445 -0.2466 -0.3570
  119SOPE  H12R12584   0.084   0.641   6.342 -1.1084 -1.8513 -0.2540
  119SOPE  H12S12585   0.135   0.502   6.244  0.9529 -0.6475 -0.3150
  119SOPE  C21312586   0.297   0.620   6.264  0.3594  0.0750 -0.1750
  119SOPE  H13R12587   0.373   0.539   6.265 -1.7986 -2.0597  0.0517
  119SOPE  H13S12588   0.338   0.706   6.321  1.9000 -1.1362  0.6326
  119SOPE  C21412589   0.287   0.660   6.111 -0.0833 -0.3224 -0.3796
  119SOPE  H14R12590   0.230   0.755   6.110 -0.2418 -0.4208 -0.5267
  119SOPE  H14S12591   0.237   0.575   6.060  0.1178 -0.1798 -0.8220
  119SOPE  C21512592   0.421   0.670   6.028  0.2920 -0.1119  0.1383
  119SOPE  H15R12593   0.503   0.716   6.087  1.6350  0.7111 -2.2287
  119SOPE  H15S12594   0.399   0.740   5.944  1.0052 -2.5621 -2.2692
  119SOPE  C21612595   0.456   0.524   5.981 -0.7293  0.1805 -0.3552
  119SOPE  H16R12596   0.382   0.484   5.909 -0.6783 -0.4436 -0.0643
  119SOPE  H16S12597   0.450   0.463   6.073  0.3463 -2.0348 -1.6710
  119SOPE  C21712598   0.607   0.518   5.928  0.1341 -0.3334 -0.4664
  119SOPE  H17R12599   0.633   0.410   5.937 -0.0189 -0.2644  1.2343
  119SOPE  H17S12600   0.674   0.568   6.001 -2.0084  1.1358  0.6166
  119SOPE  C21812601   0.622   0.584   5.787 -0.6467 -0.2864  1.0482
  119SOPE  H18R12602   0.577   0.685   5.778 -2.6734 -1.3307 -2.2715
  119SOPE  H18S12603   0.564   0.523   5.714 -0.4614  0.9203 -0.1317
  119SOPE  H18T12604   0.727   0.581   5.751 -0.0663  1.7423  2.4478
  119SOPE   C3312605   0.687  -0.226   6.878 -0.0674 -0.7614  0.4162
  119SOPE   H3X12606   0.713  -0.331   6.905 -1.1251 -1.5756 -1.5044
  119SOPE   H3Y12607   0.770  -0.156   6.905 -0.9243  0.3612  0.1835
  119SOPE   C3412608   0.664  -0.208   6.729  0.2721  0.3129 -0.8997
  119SOPE   H4X12609   0.753  -0.217   6.664 -0.4551 -1.9238 -1.6561
  119SOPE   H4Y12610   0.616  -0.113   6.697  0.9237  0.2006 -2.2696
  119SOPE   C3512611   0.565  -0.318   6.676 -0.4032 -0.0189  0.1019
  119SOPE   H5X12612   0.480  -0.326   6.747  0.9920  0.5517  1.9052
  119SOPE   H5Y12613   0.615  -0.417   6.682  2.4354  1.2727 -0.6251
  119SOPE   C3612614   0.509  -0.311   6.535 -0.4978  0.3159  0.3526
  119SOPE   H6X12615   0.441  -0.399   6.531  0.4049 -0.4956  1.9223
  119SOPE   H6Y12616   0.590  -0.316   6.460 -0.6883  1.3722  0.0723
  119SOPE   C3712617   0.428  -0.185   6.511 -0.5425 -0.6817  0.1852
  119SOPE   H7X12618   0.483  -0.094   6.543 -0.8285 -0.4733  0.0874
  119SOPE   H7Y12619   0.338  -0.200   6.575 -0.3236  0.3493  0.7721
  119SOPE   C3812620   0.365  -0.160   6.375 -0.7709 -0.0264  0.0235
  119SOPE   H8X12621   0.319  -0.256   6.346  0.6993 -0.6751 -0.2394
  119SOPE   H8Y12622   0.452  -0.143   6.308  0.0112  0.7677  1.1882
  119SOPE   C3912623   0.256  -0.047   6.373 -1.2243 -0.2205  0.1574
  119SOPE   H9X12624   0.291   0.044   6.427  2.1949 -0.5199 -1.2979
  119SOPE   H9Y12625   0.168  -0.088   6.426 -1.4137 -0.1937 -0.1352
  119SOPE  C31012626   0.213  -0.015   6.237 -0.4469 -0.6472  0.6434
  119SOPE  H10X12627   0.119   0.044   6.231  0.6387  1.1149  0.2406
  119SOPE  H10Y12628   0.203  -0.107   6.176  0.8480 -0.3793 -0.0089
  119SOPE  C31112629   0.318   0.083   6.175 -0.3156  0.5573 -0.0862
  119SOPE  H11X12630   0.421   0.046   6.192 -0.0781 -0.2338 -2.7759
  119SOPE  H11Y12631   0.315   0.184   6.221  2.6213  0.1985  1.0900
  119SOPE  C31212632   0.314   0.080   6.020 -0.2021  0.2600  0.3615
  119SOPE  H12X12633   0.329  -0.027   5.994  4.3094  0.8482 -0.1868
  119SOPE  H12Y12634   0.393   0.136   5.965 -0.5740  1.2453  0.8080
  119SOPE  C31312635   0.176   0.144   5.976  0.4553  0.3024  0.0866
  119SOPE  H13X12636   0.175   0.246   6.019  1.0193  0.1943  0.3685
  119SOPE  H13Y12637   0.088   0.085   6.011  0.5234 -0.3791 -0.8434
  119SOPE  C31412638   0.157   0.151   5.823  0.1409 -0.6434 -0.2974
  119SOPE  H14X12639   0.059   0.189   5.786  0.8991 -0.6757 -2.5158
  119SOPE  H14Y12640   0.175   0.048   5.784  1.0781 -1.2487  1.5841
  119SOPE  C31512641   0.257   0.260   5.768  0.1842 -0.6473 -0.5612
  119SOPE  H15X12642   0.362   0.235   5.792 -0.1924 -1.7174  0.0383
  119SOPE  H15Y12643   0.228   0.360   5.808 -0.7904 -1.2656  0.3506
  119SOPE  C31612644   0.252   0.266   5.612  0.8102 -0.4177  1.1056
  119SOPE  H16X12645   0.144   0.280   5.587  1.4108 -1.1363 -2.3978
  119SOPE  H16Y12646   0.295   0.171   5.573 -1.3465 -1.3290  0.8018
  119SOPE  C31712647   0.322   0.384   5.548 -0.1715  0.0324  0.2204
  119SOPE  H17X12648   0.430   0.373   5.572  0.2970 -0.7095 -1.9365
  119SOPE  H17Y12649   0.294   0.486   5.581  0.4661 -0.0555  1.0593
  119SOPE  C31812650   0.305   0.387   5.396 -0.0662  0.0267 -0.0855
  119SOPE  H18X12651   0.287   0.280   5.371  0.1826 -0.1275  0.3894
  119SOPE  H18Y12652   0.384   0.437   5.336  0.2340  0.6346  0.7959
  119SOPE  H18Z12653   0.210   0.430   5.357  0.3126  0.7795 -0.2017
  120SOPE     N12654   1.158   3.572   7.662  0.1215  0.1076  0.3821
  120SOPE   HN112655   1.163   3.468   7.667  3.1674  0.1187 -0.1550
  120SOPE   HN212656   1.059   3.602   7.658 -0.0849 -0.4352  1.2521
  120SOPE   HN312657   1.201   3.599   7.571  0.8680  2.2557  1.3005
  120SOPE   C1212658   1.211   3.634   7.785 -0.1026  0.0637  0.3576
  120SOPE  H12A12659   1.322   3.639   7.788 -0.0911  0.3367 -0.1930
  120SOPE  H12B12660   1.182   3.572   7.872 -0.4868  1.0487  0.9507
  120SOPE   C1112661   1.143   3.775   7.792  0.6994  0.1177 -0.4051
  120SOPE  H11A12662   1.169   3.814   7.892 -0.2065  1.2270 -0.5848
  120SOPE  H11B12663   1.032   3.783   7.786  0.8639  3.9075 -0.4466
  120SOPE     P12664   1.140   4.014   7.691  0.1817  0.0681  0.4555
  120SOPE   O1312665   1.245   4.118   7.691 -0.6761 -0.1626  0.0655
  120SOPE   O1412666   1.041   4.034   7.799  0.8518 -0.3359 -0.1516
  120SOPE   O1212667   1.205   3.865   7.700  0.1954  0.1578  0.4106
  120SOPE   O1112668   1.071   4.043   7.550 -0.0875 -0.4639  0.4796
  120SOPE    C112669   0.995   3.952   7.474 -0.1766 -0.1174 -0.1611
  120SOPE    HA12670   0.912   3.994   7.413 -0.6964 -4.0963 -2.6084
  120SOPE    HB12671   0.962   3.868   7.539  1.5015  0.8578  2.0915
  120SOPE    C212672   1.077   3.883   7.362 -0.2674  0.4790 -0.5396
  120SOPE    HS12673   1.166   3.851   7.422 -1.0950 -0.4519  0.2346
  120SOPE   O2112674   1.117   3.981   7.269 -0.4732 -0.3589  0.0410
  120SOPE   C2112675   1.236   3.970   7.211  0.4575 -0.4669 -0.1248
  120SOPE   O2212676   1.309   3.875   7.231 -0.5780 -0.6246 -0.2410
  120SOPE   C2212677   1.264   4.103   7.145  0.7217 -0.3009  0.7901
  120SOPE   H2R12678   1.374   4.107   7.139  0.6797  0.6846  0.5256
  120SOPE   H2S12679   1.229   4.192   7.202  1.2731 -0.0480  0.7339
  120SOPE    C312680   0.996   3.764   7.300  0.0401  0.2044  0.1072
  120SOPE    HX12681   0.918   3.810   7.235 -0.1446  0.0219  0.1995
  120SOPE    HY12682   0.956   3.708   7.388  1.3908  0.1190  0.6865
  120SOPE   O3112683   1.082   3.683   7.209 -0.4076  0.4013 -0.6244
  120SOPE   C3112684   1.174   3.615   7.281 -0.6686  0.6323  0.9067
  120SOPE   O3212685   1.180   3.599   7.401  0.2910 -0.5256 -0.6779
  120SOPE   C3212686   1.280   3.566   7.176  0.1817 -0.3456 -0.1768
  120SOPE   H2X12687   1.365   3.524   7.235  1.3253  1.3184 -0.5791
  120SOPE   H2Y12688   1.330   3.653   7.129  2.8786 -0.9507  1.3675
  120SOPE   C2312689   1.208   4.134   7.000  0.5827 -0.1769 -0.5934
  120SOPE   H3R12690   1.238   4.240   6.987 -1.8384  0.7534  0.8307
  120SOPE   H3S12691   1.097   4.137   7.003  0.6191  0.9994  1.6086
  120SOPE   C2412692   1.265   4.052   6.879 -0.2718  0.3152 -0.2359
  120SOPE   H4R12693   1.236   4.103   6.785 -0.3813  1.0436  0.1851
  120SOPE   H4S12694   1.374   4.061   6.896 -0.3213  1.6910 -0.5094
  120SOPE   C2512695   1.236   3.902   6.873  0.4740 -0.5330 -0.2434
  120SOPE   H5R12696   1.268   3.844   6.962 -0.1964 -1.3593 -0.5240
  120SOPE   H5S12697   1.126   3.899   6.854  0.1429  0.5921  1.3299
  120SOPE   C2612698   1.302   3.851   6.753 -0.0232  0.0371 -0.3301
  120SOPE   H6R12699   1.266   3.911   6.666 -1.0491  1.5661  1.0993
  120SOPE   H6S12700   1.413   3.850   6.752  0.0079 -1.4123  0.8429
  120SOPE   C2712701   1.270   3.700   6.726 -0.0404  0.4050 -0.2867
  120SOPE   H7R12702   1.326   3.640   6.800 -1.0613  0.6239  0.6910
  120SOPE   H7S12703   1.159   3.697   6.731 -0.0880 -1.5825 -1.5754
  120SOPE   C2812704   1.312   3.659   6.581 -0.2340  0.4045 -0.6780
  120SOPE   H8R12705   1.296   3.747   6.515  0.6011  0.4304 -0.8537
  120SOPE   H8S12706   1.422   3.648   6.577 -0.0961  0.0721  2.3475
  120SOPE   C2912707   1.247   3.532   6.535  0.5152  0.0572 -0.1049
  120SOPE   H9112708   1.175   3.487   6.605 -1.6741 -1.4578 -3.1231
  120SOPE  C21012709   1.271   3.468   6.422 -0.2358  0.1314  0.2506
  120SOPE  H10112710   1.240   3.365   6.399  0.5450  0.1081 -0.7758
  120SOPE  C21112711   1.370   3.529   6.321  0.4289  0.0057  0.5899
  120SOPE  H11R12712   1.469   3.555   6.364 -0.3459  0.2843  2.3090
  120SOPE  H11S12713   1.341   3.628   6.279  2.0354 -0.6407 -2.2848
  120SOPE  C21212714   1.407   3.430   6.207  0.0644 -0.5070 -0.5843
  120SOPE  H12R12715   1.428   3.337   6.263 -1.4346 -1.0470 -0.8848
  120SOPE  H12S12716   1.493   3.455   6.140 -1.4878 -0.2176 -2.5897
  120SOPE  C21312717   1.286   3.400   6.120 -0.2152 -0.0296 -0.1416
  120SOPE  H13R12718   1.192   3.393   6.179  1.3026 -1.2411  2.2540
  120SOPE  H13S12719   1.308   3.309   6.061  1.6368 -0.7451  1.5598
  120SOPE  C21412720   1.269   3.508   6.016 -0.3971  0.0776 -0.0200
  120SOPE  H14R12721   1.272   3.613   6.055  1.4397 -1.1380  3.5345
  120SOPE  H14S12722   1.173   3.497   5.961  0.4184 -0.0884 -1.4261
  120SOPE  C21512723   1.370   3.512   5.904 -0.7473  0.1942 -0.0777
  120SOPE  H15R12724   1.387   3.410   5.862 -0.9430  0.9853 -2.2033
  120SOPE  H15S12725   1.463   3.562   5.939 -0.4264  0.0231 -0.6680
  120SOPE  C21612726   1.328   3.598   5.786  0.2340 -0.0768  0.9409
  120SOPE  H16R12727   1.294   3.699   5.816 -1.8282 -0.9865  1.8519
  120SOPE  H16S12728   1.239   3.551   5.740 -1.1162 -0.1616  3.4514
  120SOPE  C21712729   1.443   3.604   5.683  0.2833 -0.9416  0.3673
  120SOPE  H17R12730   1.465   3.498   5.659  0.7422 -0.7591 -0.0510
  120SOPE  H17S12731   1.534   3.654   5.722 -0.0283 -0.5977  0.6554
  120SOPE  C21812732   1.405   3.669   5.545 -0.0526 -0.0449 -0.2433
  120SOPE  H18R12733   1.492   3.652   5.478  0.3977  1.1804  0.0019
  120SOPE  H18S12734   1.392   3.778   5.563  0.5659  0.2460 -1.4421
  120SOPE  H18T12735   1.311   3.626   5.504  0.0459  0.4732 -1.0297
  120SOPE   C3312736   1.223   3.466   7.079 -0.7579  0.8419 -0.1412
  120SOPE   H3X12737   1.161   3.525   7.007  0.3575  0.4159 -1.5082
  120SOPE   H3Y12738   1.162   3.389   7.130 -0.2904 -0.6744 -1.7474
  120SOPE   C3412739   1.333   3.388   6.999 -0.3737 -0.2720 -0.3830
  120SOPE   H4X12740   1.387   3.308   7.055 -0.9285 -1.2775 -1.2440
  120SOPE   H4Y12741   1.409   3.462   6.965 -1.2641 -0.2182 -2.4202
  120SOPE   C3512742   1.272   3.335   6.868 -0.2579 -0.2769  0.5562
  120SOPE   H5X12743   1.223   3.428   6.830  1.6699  1.0959  1.2571
  120SOPE   H5Y12744   1.199   3.255   6.893  0.0584 -1.2109 -1.3700
  120SOPE   C3612745   1.380   3.286   6.768 -0.5108 -0.5304 -0.2390
  120SOPE   H6X12746   1.433   3.372   6.723 -1.4246  0.0209 -0.2736
  120SOPE   H6Y12747   1.335   3.232   6.682 -1.2227 -0.1594 -0.1036
  120SOPE   C3712748   1.482   3.184   6.815 -1.0346  0.5322 -0.2109
  120SOPE   H7X12749   1.439   3.096   6.867  3.4461 -1.7676  0.1671
  120SOPE   H7Y12750   1.547   3.230   6.893  1.2657 -0.1042 -1.6304
  120SOPE   C3812751   1.580   3.143   6.699  0.7896  0.6904  0.7816
  120SOPE   H8X12752   1.661   3.076   6.732 -1.3525 -1.9111  1.0602
  120SOPE   H8Y12753   1.618   3.238   6.654  3.3315  0.2744  1.8922
  120SOPE   C3912754   1.510   3.066   6.588  0.1324  0.8757 -0.5414
  120SOPE   H9X12755   1.446   3.129   6.522 -4.4255 -1.3331  1.2618
  120SOPE   H9Y12756   1.442   3.005   6.651  1.2416  0.2659  0.0861
  120SOPE  C31012757   1.601   2.968   6.517  0.4428 -0.2958 -0.8599
  120SOPE  H10X12758   1.534   2.904   6.456 -0.0333  0.3847 -1.0659
  120SOPE  H10Y12759   1.651   2.907   6.595 -2.0953  0.6814  1.7096
  120SOPE  C31112760   1.697   3.037   6.420 -0.2230 -0.3976 -0.0384
  120SOPE  H11X12761   1.773   3.073   6.492 -0.1553  2.0363 -1.2013
  120SOPE  H11Y12762   1.654   3.129   6.374 -1.3685 -0.3356  1.0975
  120SOPE  C31212763   1.765   2.946   6.319 -0.3434 -0.3324 -0.0414
  120SOPE  H12X12764   1.794   2.843   6.350  0.0128 -1.1304 -2.7403
  120SOPE  H12Y12765   1.850   3.005   6.280 -1.7310  1.0106 -1.1930
  120SOPE  C31312766   1.672   2.932   6.192 -1.1049  0.6184 -0.0402
  120SOPE  H13X12767   1.647   3.035   6.159  3.5574  2.3179  0.9540
  120SOPE  H13Y12768   1.583   2.869   6.211 -0.3293 -0.8882 -1.1636
  120SOPE  C31412769   1.740   2.854   6.082  0.2209 -0.4926  0.1762
  120SOPE  H14X12770   1.756   2.748   6.109  2.3156 -0.4885 -0.8189
  120SOPE  H14Y12771   1.842   2.889   6.055  1.2448 -3.3319  0.0664
  120SOPE  C31512772   1.644   2.853   5.957  0.3848  0.0539 -0.0882
  120SOPE  H15X12773   1.630   2.961   5.934 -0.2322  0.1680  0.7834
  120SOPE  H15Y12774   1.549   2.807   5.992  0.8312 -0.6495  0.2175
  120SOPE  C31612775   1.689   2.775   5.832  0.6949  0.3159 -0.3688
  120SOPE  H16X12776   1.684   2.666   5.855  0.0680  0.5659  0.7069
  120SOPE  H16Y12777   1.791   2.811   5.808  0.8226  0.1139 -0.1359
  120SOPE  C31712778   1.592   2.778   5.711  0.4122  0.6739 -0.2676
  120SOPE  H17X12779   1.617   2.701   5.635 -0.6689 -1.7477  1.6802
  120SOPE  H17Y12780   1.600   2.878   5.663  0.1399  0.3584 -0.9820
  120SOPE  C31812781   1.446   2.757   5.752 -0.1377  0.0251 -0.4050
  120SOPE  H18X12782   1.400   2.833   5.817  0.2823 -1.2496  1.4648
  120SOPE  H18Y12783   1.433   2.664   5.811 -1.7859  0.5119  0.0565
  120SOPE  H18Z12784   1.380   2.744   5.664  0.0042 -1.7720 -0.2875
  121SOPE     N12785   2.092   0.464   7.648 -0.1163 -1.0240  0.0195
  121SOPE   HN112786   2.155   0.524   7.591 -0.9244  0.2308  0.4026
  121SOPE   HN212787   1.994   0.475   7.614  0.2579  3.6291 -0.2030
  121SOPE   HN312788   2.094   0.497   7.747  0.0369  0.6105 -0.4902
  121SOPE   C1212789   2.147   0.321   7.634 -0.3689 -0.6652  0.7215
  121SOPE  H12A12790   2.234   0.303   7.701  1.0368 -0.5814 -1.0029
  121SOPE  H12B12791   2.175   0.302   7.528 -0.6768 -2.0726  0.8753
  121SOPE   C1112792   2.043   0.220   7.675  0.5012 -0.0879  0.1158
  121SOPE  H11A12793   2.009   0.237   7.779  0.1000  1.4798 -0.2425
  121SOPE  H11B12794   2.077   0.115   7.672  0.6017 -0.0386 -0.7392
  121SOPE     P12795   1.785   0.209   7.620  0.1543  0.8161 -0.3453
  121SOPE   O1312796   1.726   0.327   7.690 -0.4955 -1.0394 -0.4047
  121SOPE   O1412797   1.770   0.075   7.688  0.1664  0.0689 -0.1342
  121SOPE   O1212798   1.936   0.245   7.592  0.8597  0.3339 -0.3156
  121SOPE   O1112799   1.720   0.208   7.482  0.0090 -0.1809 -0.0610
  121SOPE    C112800   1.741   0.103   7.383 -0.4003  1.0087 -0.5402
  121SOPE    HA12801   1.655   0.098   7.313 -1.1465  0.1417  0.4162
  121SOPE    HB12802   1.737   0.006   7.437 -0.9271 -0.5103 -3.1080
  121SOPE    C212803   1.869   0.112   7.299 -0.0292  1.3410  0.1926
  121SOPE    HS12804   1.957   0.101   7.365 -1.0166 -0.9589  1.2671
  121SOPE   O2112805   1.870   0.247   7.241 -0.0416  0.0151 -0.2326
  121SOPE   C2112806   1.990   0.285   7.192  0.3452  0.1304  0.1390
  121SOPE   O2212807   2.093   0.218   7.205  0.1134  0.5014  0.0097
  121SOPE   C2212808   1.966   0.406   7.107  0.4707 -0.3605  0.3435
  121SOPE   H2R12809   2.066   0.446   7.077  1.0490 -2.3917 -0.5995
  121SOPE   H2S12810   1.912   0.487   7.162 -0.4150 -0.8217  0.1709
  121SOPE    C312811   1.869  -0.002   7.187  0.2048  0.2781 -0.4163
  121SOPE    HX12812   1.837  -0.093   7.242 -0.8455  0.3503 -0.8660
  121SOPE    HY12813   1.975  -0.005   7.154  0.0686  2.8859 -1.2832
  121SOPE   O3112814   1.785   0.025   7.081 -0.0711 -0.0768  0.0281
  121SOPE   C3112815   1.795  -0.069   6.987 -0.1333  0.6771 -0.6214
  121SOPE   O3212816   1.878  -0.158   6.986 -0.3139  0.0779 -0.7056
  121SOPE   C3212817   1.689  -0.051   6.880 -0.6661 -0.6332  0.6512
  121SOPE   H2X12818   1.710   0.049   6.835 -2.2763 -0.0051  1.2145
  121SOPE   H2Y12819   1.588  -0.037   6.923 -2.3127 -0.7382 -2.8162
  121SOPE   C2312820   1.890   0.381   6.970 -0.8421  0.4098 -0.5322
  121SOPE   H3R12821   1.869   0.471   6.909  1.9417  0.3924 -1.6914
  121SOPE   H3S12822   1.788   0.339   6.980 -0.0766 -1.4659  0.0147
  121SOPE   C2412823   1.968   0.281   6.879 -0.2203 -0.2288  1.1042
  121SOPE   H4R12824   2.067   0.326   6.860 -0.1541 -0.8215 -0.0712
  121SOPE   H4S12825   1.980   0.188   6.938 -1.7467 -0.8718  0.4508
  121SOPE   C2512826   1.892   0.270   6.746 -0.0870 -0.4278 -0.4104
  121SOPE   H5R12827   1.782   0.256   6.752 -0.3742  0.1477 -2.9936
  121SOPE   H5S12828   1.909   0.355   6.676  0.3005 -0.5802 -0.5004
  121SOPE   C2612829   1.945   0.152   6.662  0.3205 -0.4968 -0.9265
  121SOPE   H6R12830   2.051   0.186   6.660 -0.3784  2.0676  0.6652
  121SOPE   H6S12831   1.931   0.060   6.724 -1.1732  0.1652 -0.2321
  121SOPE   C2712832   1.884   0.150   6.523 -0.2556  0.3449  0.0550
  121SOPE   H7R12833   1.779   0.116   6.532  0.3493 -1.6695  0.1883
  121SOPE   H7S12834   1.887   0.257   6.494  0.2371  0.2888 -0.1143
  121SOPE   C2812835   1.957   0.064   6.412  0.1208  0.2450 -0.1791
  121SOPE   H8R12836   1.906   0.073   6.314 -0.4928 -2.5660 -0.2141
  121SOPE   H8S12837   2.059   0.107   6.412 -0.1069  0.8456  1.2860
  121SOPE   C2912838   1.971  -0.085   6.435  0.0005  0.0539  0.0608
  121SOPE   H9112839   2.035  -0.111   6.521 -0.1120 -0.4549 -0.0079
  121SOPE  C21012840   1.912  -0.178   6.362 -0.5850 -0.5893  0.3298
  121SOPE  H10112841   1.944  -0.279   6.390  0.7944  0.2552  1.9683
  121SOPE  C21112842   1.823  -0.159   6.246  1.0000  0.0031 -0.0082
  121SOPE  H11R12843   1.815  -0.054   6.211 -0.5395 -0.1552 -0.2063
  121SOPE  H11S12844   1.724  -0.199   6.275  0.7570  1.3483  1.0901
  121SOPE  C21212845   1.859  -0.248   6.131 -0.0528  0.5043  0.4788
  121SOPE  H12R12846   1.907  -0.343   6.165  1.8161  0.9985 -0.6469
  121SOPE  H12S12847   1.948  -0.202   6.083 -0.7873  1.0023 -0.4207
  121SOPE  C21312848   1.744  -0.279   6.031  0.2000 -0.3569 -0.4119
  121SOPE  H13R12849   1.700  -0.180   6.004  1.0774  1.1016  3.0700
  121SOPE  H13S12850   1.659  -0.337   6.073 -0.5372  0.8167 -0.2461
  121SOPE  C21412851   1.792  -0.358   5.903 -0.4465 -0.5044 -0.7100
  121SOPE  H14R12852   1.841  -0.448   5.944 -1.4383 -1.5143 -1.6351
  121SOPE  H14S12853   1.871  -0.301   5.849  1.2910 -2.1690 -0.0271
  121SOPE  C21512854   1.682  -0.395   5.807  0.3626 -0.7800  0.0027
  121SOPE  H15R12855   1.609  -0.445   5.874 -1.2222 -1.0102 -1.8444
  121SOPE  H15S12856   1.730  -0.470   5.741 -1.2939 -1.8090 -0.0682
  121SOPE  C21612857   1.617  -0.283   5.721  0.0531 -0.0032 -0.0109
  121SOPE  H16R12858   1.695  -0.226   5.667  1.5454 -1.1682  0.8196
  121SOPE  H16S12859   1.567  -0.205   5.782 -0.1027  1.4184 -1.8786
  121SOPE  C21712860   1.520  -0.340   5.623  0.1950  1.1107 -0.0801
  121SOPE  H17R12861   1.442  -0.397   5.678 -0.6680  3.3703  1.1453
  121SOPE  H17S12862   1.572  -0.416   5.561 -1.2680  0.3971 -0.4781
  121SOPE  C21812863   1.456  -0.247   5.524 -0.4379  0.3118  0.1695
  121SOPE  H18R12864   1.385  -0.180   5.577  0.8260  1.6215  0.2736
  121SOPE  H18S12865   1.388  -0.301   5.455  0.1368  2.2192 -2.0103
  121SOPE  H18T12866   1.527  -0.193   5.457  0.4001 -1.6940 -0.6324
  121SOPE   C3312867   1.697  -0.156   6.767 -0.2167  0.1717 -0.2123
  121SOPE   H3X12868   1.698  -0.257   6.813  0.6020 -0.0906 -0.7827
  121SOPE   H3Y12869   1.789  -0.147   6.706 -0.2549 -0.9969 -0.4566
  121SOPE   C3412870   1.583  -0.150   6.663 -0.1190  0.3363  0.0355
  121SOPE   H4X12871   1.582  -0.055   6.605  1.0492  0.0866 -0.4299
  121SOPE   H4Y12872   1.488  -0.155   6.720 -0.2407  0.4029 -0.1601
  121SOPE   C3512873   1.587  -0.275   6.565 -0.3348  0.1300 -0.2620
  121SOPE   H5X12874   1.612  -0.365   6.624 -0.2173  0.4356  0.1583
  121SOPE   H5Y12875   1.677  -0.259   6.501  1.4570 -1.2396  1.7577
  121SOPE   C3612876   1.454  -0.298   6.492 -0.0283  0.0592 -0.3006
  121SOPE   H6X12877   1.375  -0.287   6.570 -1.1908  0.5629 -1.5029
  121SOPE   H6Y12878   1.446  -0.401   6.453 -2.3647 -0.9551  2.4194
  121SOPE   C3712879   1.426  -0.196   6.381  0.2086 -0.0333 -0.5544
  121SOPE   H7X12880   1.527  -0.166   6.346  0.7389  0.1175  1.0560
  121SOPE   H7Y12881   1.370  -0.108   6.419  1.3961  0.4502  0.1321
  121SOPE   C3812882   1.361  -0.247   6.246  0.6353 -0.2794  0.0686
  121SOPE   H8X12883   1.257  -0.283   6.263  0.6606  0.0672  1.0398
  121SOPE   H8Y12884   1.423  -0.331   6.209 -0.0992 -1.2434  0.9941
  121SOPE   C3912885   1.357  -0.126   6.157 -0.3862  0.0867  0.0925
  121SOPE   H9X12886   1.458  -0.106   6.115 -1.1108 -0.6831 -2.2206
  121SOPE   H9Y12887   1.314  -0.040   6.212 -3.6372 -2.1592  1.3397
  121SOPE  C31012888   1.263  -0.147   6.032 -0.3056  1.0358  0.1554
  121SOPE  H10X12889   1.170  -0.201   6.060  1.3581 -2.9105 -1.2269
  121SOPE  H10Y12890   1.323  -0.208   5.962 -0.7669  3.2486 -2.3291
  121SOPE  C31112891   1.241  -0.029   5.941  0.6800 -0.1633  0.5632
  121SOPE  H11X12892   1.338   0.013   5.908  0.1413  0.6551 -0.0292
  121SOPE  H11Y12893   1.196   0.056   5.998 -0.3952  0.6642 -1.4038
  121SOPE  C31212894   1.156  -0.066   5.811 -0.5155 -0.3429  0.1267
  121SOPE  H12X12895   1.058  -0.101   5.851 -0.1957  0.3805  1.5930
  121SOPE  H12Y12896   1.209  -0.145   5.753  0.1642  0.7768 -0.8102
  121SOPE  C31312897   1.140   0.054   5.717  0.0013 -0.0395  0.7040
  121SOPE  H13X12898   1.142   0.149   5.774  3.7313  0.1414  0.5526
  121SOPE  H13Y12899   1.054   0.028   5.652  1.7123 -1.8975 -0.9680
  121SOPE  C31412900   1.262   0.078   5.620 -0.6729 -0.5215  0.0142
  121SOPE  H14X12901   1.274  -0.012   5.556  0.6015 -0.4497  0.1292
  121SOPE  H14Y12902   1.360   0.100   5.668  0.4388 -1.0709 -1.9162
  121SOPE  C31512903   1.226   0.202   5.530  0.8716  0.6546 -0.1882
  121SOPE  H15X12904   1.202   0.284   5.601 -1.3517  0.5686 -0.7649
  121SOPE  H15Y12905   1.144   0.175   5.459  0.4673  0.6692  0.2664
  121SOPE  C31612906   1.339   0.251   5.442 -0.9429 -1.0064 -0.0519
  121SOPE  H16X12907   1.388   0.169   5.386 -0.3005 -0.2182 -0.6570
  121SOPE  H16Y12908   1.418   0.295   5.506 -2.1419 -0.0020  0.7912
  121SOPE  C31712909   1.291   0.365   5.345  0.2819  0.7452  0.6303
  121SOPE  H17X12910   1.213   0.325   5.277 -1.4736  2.0350  1.8109
  121SOPE  H17Y12911   1.383   0.381   5.284  1.5579 -2.1749  1.5923
  121SOPE  C31812912   1.242   0.498   5.407  0.3612  0.3060 -0.0750
  121SOPE  H18X12913   1.329   0.544   5.459 -0.1991  1.2541  0.0604
  121SOPE  H18Y12914   1.158   0.470   5.474 -0.3005 -1.5555 -1.6007
  121SOPE  H18Z12915   1.210   0.564   5.323  1.6964  2.6442  1.1278
  122SOPE     N12916   0.553   1.429   7.856 -0.0069 -0.7136 -0.2460
  122SOPE   HN112917   0.639   1.408   7.911  0.9296  2.1877 -0.4068
  122SOPE   HN212918   0.470   1.443   7.916  1.4652 -1.9636  2.2489
  122SOPE   HN312919   0.531   1.355   7.786 -0.1161  0.4380 -1.4713
  122SOPE   C1212920   0.584   1.551   7.767  0.6232  0.5131 -0.5484
  122SOPE  H12A12921   0.691   1.554   7.736  0.6913 -0.2481 -0.3938
  122SOPE  H12B12922   0.574   1.636   7.839  1.1359 -0.1177  0.2887
  122SOPE   C1112923   0.490   1.572   7.644 -0.3913  0.1733 -0.3606
  122SOPE  H11A12924   0.525   1.496   7.570 -0.3929 -0.4813  0.3049
  122SOPE  H11B12925   0.514   1.670   7.596  3.9098 -0.9078 -0.8945
  122SOPE     P12926   0.231   1.624   7.625 -0.3348 -0.0409 -0.5443
  122SOPE   O1312927   0.229   1.752   7.697 -0.1019 -0.6740 -0.0511
  122SOPE   O1412928   0.105   1.541   7.637 -0.1642  0.1464 -0.2309
  122SOPE   O1212929   0.352   1.540   7.677 -0.4695 -0.8551  0.3421
  122SOPE   O1112930   0.253   1.643   7.470 -0.2883  0.0032 -0.3746
  122SOPE    C112931   0.291   1.545   7.377  0.2436  0.2770  0.4357
  122SOPE    HA12932   0.282   1.439   7.410 -0.2544  0.4178  0.7555
  122SOPE    HB12933   0.395   1.561   7.341  0.5241 -1.0846  0.5837
  122SOPE    C212934   0.200   1.549   7.253 -0.2545  0.2932 -0.4737
  122SOPE    HS12935   0.114   1.486   7.283 -0.0706 -1.2426 -2.8429
  122SOPE   O2112936   0.264   1.497   7.132  0.0190 -0.1888 -0.3861
  122SOPE   C2112937   0.179   1.467   7.032 -0.4856 -0.0740  0.2895
  122SOPE   O2212938   0.062   1.465   7.042 -0.0972  0.3613  0.1905
  122SOPE   C2212939   0.261   1.439   6.906  0.1089 -0.6151 -1.0475
  122SOPE   H2R12940   0.314   1.345   6.932  0.3691 -0.1974 -0.0442
  122SOPE   H2S12941   0.342   1.513   6.887 -1.2903  1.7374  1.3892
  122SOPE    C312942   0.152   1.700   7.241  0.3451  0.3402  0.0828
  122SOPE    HX12943   0.248   1.756   7.239  0.5060  0.0491 -0.5261
  122SOPE    HY12944   0.095   1.731   7.331  2.2853 -0.3667  1.6016
  122SOPE   O3112945   0.091   1.727   7.114  0.2525 -0.5337  0.5359
  122SOPE   C3112946  -0.042   1.761   7.107  0.0168  0.2657 -0.2233
  122SOPE   O3212947  -0.119   1.759   7.201  0.3408  0.6693  0.4895
  122SOPE   C3212948  -0.079   1.790   6.963  0.0488  0.2331  0.8177
  122SOPE   H2X12949   0.002   1.743   6.902  0.3783 -0.1470  1.5325
  122SOPE   H2Y12950  -0.077   1.899   6.945 -0.8940  0.1810  0.3341
  122SOPE   C2312951   0.161   1.428   6.792 -0.2411  0.4304  0.2036
  122SOPE   H3R12952   0.103   1.523   6.793 -0.6603  0.1762  1.0413
  122SOPE   H3S12953   0.100   1.335   6.798  0.0990  0.0986 -1.2161
  122SOPE   C2412954   0.243   1.416   6.658 -0.1157 -0.5842 -0.8486
  122SOPE   H4R12955   0.317   1.498   6.662  0.1784 -0.7639 -2.1555
  122SOPE   H4S12956   0.303   1.322   6.663  1.7532  0.5975 -0.4201
  122SOPE   C2512957   0.151   1.424   6.535 -0.4375 -0.2840  0.8369
  122SOPE   H5R12958   0.089   1.333   6.548 -0.3359 -0.6911 -1.1993
  122SOPE   H5S12959   0.081   1.507   6.555 -1.6844 -1.4516  1.5038
  122SOPE   C2612960   0.222   1.430   6.398 -0.4959 -0.1244 -1.2488
  122SOPE   H6R12961   0.277   1.335   6.386  0.2311 -0.2315  2.0411
  122SOPE   H6S12962   0.145   1.425   6.318 -1.0084  0.2149 -0.7854
  122SOPE   C2712963   0.313   1.548   6.378 -0.0434  0.0735  0.0593
  122SOPE   H7R12964   0.252   1.638   6.358 -1.1399 -1.0657 -2.0780
  122SOPE   H7S12965   0.369   1.558   6.473 -0.8046 -0.8566  0.6248
  122SOPE   C2812966   0.409   1.528   6.260  0.6175  0.3068 -0.4945
  122SOPE   H8R12967   0.483   1.449   6.286  0.0425  0.1465  0.7444
  122SOPE   H8S12968   0.344   1.498   6.175 -2.9206 -0.0698  2.1011
  122SOPE   C2912969   0.460   1.661   6.220 -0.2954  0.0313  0.6414
  122SOPE   H9112970   0.389   1.745   6.226  0.2325  0.4755  0.7542
  122SOPE  C21012971   0.586   1.695   6.180  0.0932  0.1891 -0.4931
  122SOPE  H10112972   0.609   1.799   6.151 -0.9959  0.8165  0.8048
  122SOPE  C21112973   0.698   1.600   6.165 -0.2569  0.0626 -0.0117
  122SOPE  H11R12974   0.680   1.513   6.231 -0.3801  0.2523  0.2056
  122SOPE  H11S12975   0.791   1.651   6.197 -1.1238  1.2456  0.7365
  122SOPE  C21212976   0.703   1.560   6.013  0.0568 -0.6091 -0.0455
  122SOPE  H12R12977   0.600   1.550   5.973  0.1339  0.0699 -0.4331
  122SOPE  H12S12978   0.748   1.458   6.012 -2.5554 -1.8396  0.9359
  122SOPE  C21312979   0.773   1.670   5.928  0.1244 -0.1518  1.0185
  122SOPE  H13R12980   0.876   1.637   5.951  0.6629  0.2631 -0.6569
  122SOPE  H13S12981   0.743   1.773   5.957 -1.1576  0.2499 -1.4020
  122SOPE  C21412982   0.754   1.645   5.775  0.2469  0.2291 -0.4015
  122SOPE  H14R12983   0.645   1.654   5.757  0.2459  1.1826  0.0058
  122SOPE  H14S12984   0.778   1.539   5.751  0.0740  0.3916 -1.3294
  122SOPE  C21512985   0.805   1.754   5.687  0.2281  0.3335  0.2501
  122SOPE  H15R12986   0.775   1.856   5.718 -0.2717  1.5044 -3.4829
  122SOPE  H15S12987   0.759   1.740   5.586  1.2350 -0.5706 -0.1022
  122SOPE  C21612988   0.952   1.740   5.664 -0.7330  0.0557  0.2901
  122SOPE  H16R12989   0.975   1.635   5.634 -1.4459 -0.2934  0.9501
  122SOPE  H16S12990   0.997   1.759   5.763 -1.6298  1.2444  0.4784
  122SOPE  C21712991   1.009   1.836   5.564 -0.0017 -0.0072  0.6955
  122SOPE  H17R12992   0.992   1.942   5.590 -0.4665 -0.2667  1.4717
  122SOPE  H17S12993   0.952   1.827   5.468  0.7913 -1.1635  0.3051
  122SOPE  C21812994   1.154   1.801   5.525  0.0902  0.5788  0.0864
  122SOPE  H18R12995   1.181   1.832   5.422  1.7116 -1.5396 -0.1989
  122SOPE  H18S12996   1.171   1.691   5.532 -0.6416  0.5388  2.2845
  122SOPE  H18T12997   1.224   1.851   5.595 -0.0810  0.6635  0.2001
  122SOPE   C3312998  -0.220   1.730   6.929 -0.7314  0.5015  0.7124
  122SOPE   H3X12999  -0.291   1.796   6.985 -1.2532  0.5675 -0.0165
  122SOPE   H3Y13000  -0.231   1.633   6.983  0.5176 -0.4764 -0.7440
  122SOPE   C3413001  -0.251   1.725   6.775 -0.3917 -0.4051 -0.5550
  122SOPE   H4X13002  -0.200   1.811   6.728  0.1064 -0.1488  0.4331
  122SOPE   H4Y13003  -0.361   1.735   6.763 -0.8449 -1.8654  1.6508
  122SOPE   C3513004  -0.209   1.601   6.705 -0.2984 -0.2445  0.5038
  122SOPE   H5X13005  -0.228   1.499   6.745  1.2029 -1.9545 -2.6661
  122SOPE   H5Y13006  -0.098   1.592   6.700 -0.1842 -0.2986  2.5652
  122SOPE   C3613007  -0.279   1.591   6.564 -0.8592  0.1289 -0.4774
  122SOPE   H6X13008  -0.217   1.509   6.522 -1.1232 -1.7109  2.4480
  122SOPE   H6Y13009  -0.279   1.687   6.508  0.0670  0.3121 -0.1875
  122SOPE   C3713010  -0.422   1.532   6.571  0.6065  0.7886 -0.0112
  122SOPE   H7X13011  -0.483   1.610   6.622  0.5811  0.8461 -0.1282
  122SOPE   H7Y13012  -0.423   1.439   6.633 -1.5062  0.5393 -0.3365
  122SOPE   C3813013  -0.475   1.521   6.421  0.4722 -0.3136 -0.4093
  122SOPE   H8X13014  -0.425   1.601   6.362  2.1034 -0.8379  0.2112
  122SOPE   H8Y13015  -0.586   1.525   6.429  0.1678 -2.9715 -2.0975
  122SOPE   C3913016  -0.443   1.388   6.347 -0.1668 -0.4844  0.1840
  122SOPE   H9X13017  -0.489   1.302   6.400 -0.1783  0.2338  1.3756
  122SOPE   H9Y13018  -0.334   1.378   6.369 -0.3169 -0.7599  0.8398
  122SOPE  C31013019  -0.475   1.369   6.201  0.1310 -0.1026  0.1124
  122SOPE  H10X13020  -0.585   1.367   6.185  0.1783 -2.5679 -0.3336
  122SOPE  H10Y13021  -0.442   1.278   6.147 -0.3231 -0.5742  0.6128
  122SOPE  C31113022  -0.416   1.491   6.111  0.1946  0.8610 -0.4943
  122SOPE  H11X13023  -0.306   1.495   6.123  0.1513 -1.8579  2.0778
  122SOPE  H11Y13024  -0.469   1.577   6.156 -2.4769 -1.6065  1.4517
  122SOPE  C31213025  -0.455   1.473   5.965  0.4792  0.1395  0.3280
  122SOPE  H12X13026  -0.428   1.370   5.933  1.4413  0.6300 -0.5018
  122SOPE  H12Y13027  -0.391   1.535   5.899 -2.6978  0.4444 -2.8009
  122SOPE  C31313028  -0.603   1.514   5.943 -0.8338 -0.1620  0.2370
  122SOPE  H13X13029  -0.602   1.625   5.955  0.8257  0.0226 -1.1604
  122SOPE  H13Y13030  -0.678   1.474   6.014  1.2497 -1.5539  1.7609
  122SOPE  C31413031  -0.666   1.493   5.811  0.6610 -0.0217 -0.2250
  122SOPE  H14X13032  -0.766   1.539   5.795  0.3978  0.6567  2.7698
  122SOPE  H14Y13033  -0.674   1.383   5.795  3.3732 -0.2586 -0.4302
  122SOPE  C31513034  -0.579   1.559   5.703 -0.0894  0.4128 -0.1739
  122SOPE  H15X13035  -0.474   1.523   5.709  0.3104  1.7266  1.3323
  122SOPE  H15Y13036  -0.577   1.670   5.710  0.6144  0.7145 -3.5937
  122SOPE  C31613037  -0.653   1.541   5.567  0.4864 -0.0880  0.3606
  122SOPE  H16X13038  -0.743   1.606   5.572  0.0519 -0.7783  2.1060
  122SOPE  H16Y13039  -0.678   1.435   5.544 -2.0098  1.2411 -4.4782
  122SOPE  C31713040  -0.576   1.594   5.448 -0.4905  0.0983  0.2281
  122SOPE  H17X13041  -0.618   1.553   5.353  0.1575  1.7863 -0.8292
  122SOPE  H17Y13042  -0.472   1.555   5.443 -0.5822 -0.1401  0.1394
  122SOPE  C31813043  -0.581   1.748   5.437 -0.0867  0.0726 -0.1865
  122SOPE  H18X13044  -0.546   1.800   5.528 -0.5192 -0.1554  0.1117
  122SOPE  H18Y13045  -0.688   1.771   5.424 -0.6126 -3.1548 -3.1125
  122SOPE  H18Z13046  -0.519   1.770   5.347  1.7792 -3.9474 -0.1159
  123SOPE     N13047   5.315   5.436   2.944  0.2296  0.4109  0.0544
  123SOPE   HN113048   5.262   5.347   2.939  1.3050 -0.1886 -1.5115
  123SOPE   HN213049   5.296   5.502   2.866  1.3253  0.2565 -0.3621
  123SOPE   HN313050   5.418   5.426   2.958  0.4888  2.6029 -0.0478
  123SOPE   C1213051   5.275   5.502   3.073 -0.5093 -0.3410  0.5597
  123SOPE  H12A13052   5.291   5.431   3.157  2.3879  1.8776  2.0849
  123SOPE  H12B13053   5.165   5.519   3.071 -0.7463 -1.8123 -1.0329
  123SOPE   C1113054   5.366   5.618   3.096  0.0178  0.1689 -0.2780
  123SOPE  H11A13055   5.343   5.652   3.199 -0.2927  0.3558 -0.4077
  123SOPE  H11B13056   5.346   5.702   3.026  1.5238  0.1382 -0.7883
  123SOPE     P13057   5.609   5.684   3.152  0.3209  0.0525 -0.0551
  123SOPE   O1313058   5.568   5.827   3.135 -0.4505 -0.0518  0.1998
  123SOPE   O1413059   5.743   5.643   3.102  0.3505  0.0020  0.2354
  123SOPE   O1213060   5.508   5.591   3.075 -0.1886 -0.2984  0.0473
  123SOPE   O1113061   5.580   5.624   3.299  0.6645  0.1059  0.3810
  123SOPE    C113062   5.577   5.483   3.318 -0.1931  0.0289 -0.0019
  123SOPE    HA13063   5.681   5.456   3.345  0.4162  0.6566 -1.5830
  123SOPE    HB13064   5.538   5.424   3.232 -2.0633 -3.0860  2.7690
  123SOPE    C213065   5.481   5.430   3.436  0.1828  0.2707  0.0245
  123SOPE    HS13066   5.382   5.465   3.402  1.1277  1.1721 -2.0238
  123SOPE   O2113067   5.523   5.496   3.559  0.2810  0.8104  0.0062
  123SOPE   C2113068   5.431   5.529   3.654  0.0475 -0.2589  0.1927
  123SOPE   O2213069   5.319   5.489   3.647 -0.4955 -0.2784 -1.2221
  123SOPE   C2213070   5.491   5.602   3.769  0.4480 -0.1763  0.3518
  123SOPE   H2R13071   5.419   5.671   3.817 -0.3834 -0.3105 -0.6497
  123SOPE   H2S13072   5.581   5.651   3.725  0.5497 -2.7654 -2.6851
  123SOPE    C313073   5.484   5.274   3.453  0.4674  0.0850 -0.4779
  123SOPE    HX13074   5.586   5.243   3.481  0.0243 -1.0267 -0.0411
  123SOPE    HY13075   5.459   5.236   3.351 -0.2208 -0.9010  0.0471
  123SOPE   O3113076   5.376   5.226   3.541  0.4155 -0.1325 -0.3833
  123SOPE   C3113077   5.256   5.206   3.495 -0.4018 -0.8631  0.0140
  123SOPE   O3213078   5.228   5.217   3.376  0.3788 -0.5998 -0.0800
  123SOPE   C3213079   5.157   5.185   3.610 -0.1033 -0.4858  0.2348
  123SOPE   H2X13080   5.053   5.203   3.575 -0.1979 -0.0500  0.7217
  123SOPE   H2Y13081   5.178   5.255   3.694 -0.9328 -0.4790  0.4477
  123SOPE   C2313082   5.545   5.509   3.880  0.1079  0.8186 -0.4515
  123SOPE   H3R13083   5.640   5.468   3.840  0.0722 -0.4923  0.7492
  123SOPE   H3S13084   5.467   5.435   3.906  0.5220 -0.7626 -3.2892
  123SOPE   C2413085   5.585   5.583   4.005  0.2213 -0.0873 -0.6228
  123SOPE   H4R13086   5.669   5.653   3.990 -0.6053  1.2194  0.5692
  123SOPE   H4S13087   5.494   5.646   4.017  0.2371 -0.5280  2.8145
  123SOPE   C2513088   5.584   5.500   4.130 -0.0375 -0.2184  0.3911
  123SOPE   H5R13089   5.513   5.416   4.114 -1.0305  0.5703  0.6036
  123SOPE   H5S13090   5.686   5.456   4.137  0.4333  0.4109 -1.8361
  123SOPE   C2613091   5.556   5.579   4.264 -0.5629  0.2200  0.5259
  123SOPE   H6R13092   5.624   5.668   4.267  1.1530 -1.0575  1.4973
  123SOPE   H6S13093   5.455   5.621   4.243  0.3434  1.1365 -2.6125
  123SOPE   C2713094   5.555   5.503   4.398  0.2423  0.2060 -0.1744
  123SOPE   H7R13095   5.529   5.576   4.478 -2.3221  1.4561 -2.0173
  123SOPE   H7S13096   5.473   5.429   4.393 -0.9730  1.4448  0.5174
  123SOPE   C2813097   5.685   5.430   4.442  0.6234  0.2396  0.1551
  123SOPE   H8R13098   5.728   5.370   4.360  0.8928  1.3998 -0.5831
  123SOPE   H8S13099   5.758   5.511   4.468 -0.7904  0.9113  2.3286
  123SOPE   C2913100   5.662   5.343   4.559 -0.6450  0.0129 -0.1175
  123SOPE   H9113101   5.613   5.248   4.534 -1.9203  0.2057  1.4763
  123SOPE  C21013102   5.681   5.385   4.686  0.1892  0.4655 -0.6226
  123SOPE  H10113103   5.654   5.321   4.771  1.9491 -0.7684 -0.9366
  123SOPE  C21113104   5.738   5.513   4.737  0.2959 -0.2983 -0.3619
  123SOPE  H11R13105   5.751   5.587   4.654 -2.1410 -0.4550 -0.9650
  123SOPE  H11S13106   5.835   5.498   4.788  1.1940  3.5831 -0.5841
  123SOPE  C21213107   5.645   5.586   4.840  0.1531  0.2088 -0.4115
  123SOPE  H12R13108   5.543   5.601   4.799 -0.0083 -1.6670 -0.7568
  123SOPE  H12S13109   5.693   5.682   4.868 -0.4267 -0.0286  1.5791
  123SOPE  C21313110   5.630   5.509   4.977 -0.1990 -0.5131 -0.1806
  123SOPE  H13R13111   5.731   5.479   5.014 -0.7757  0.3080  2.2319
  123SOPE  H13S13112   5.572   5.417   4.953 -1.4226  0.4728 -1.1742
  123SOPE  C21413113   5.556   5.579   5.087  0.0335  0.5430 -0.5334
  123SOPE  H14R13114   5.554   5.520   5.181  1.8908  0.1605 -0.7086
  123SOPE  H14S13115   5.451   5.573   5.049 -0.6078 -0.8981  1.3107
  123SOPE  C21513116   5.592   5.723   5.128 -0.3723 -0.1167  0.2801
  123SOPE  H15R13117   5.536   5.774   5.210 -1.0299  1.6829 -1.2068
  123SOPE  H15S13118   5.559   5.783   5.041 -2.0797 -1.1971  0.1306
  123SOPE  C21613119   5.740   5.746   5.163  0.3329  0.0583 -0.1496
  123SOPE  H16R13120   5.812   5.717   5.083 -3.3327 -0.4425 -3.5828
  123SOPE  H16S13121   5.762   5.681   5.251  1.7005  0.5035 -0.1352
  123SOPE  C21713122   5.770   5.887   5.204 -0.1464  0.4424  0.3574
  123SOPE  H17R13123   5.870   5.896   5.251 -0.0831  0.7056  0.1763
  123SOPE  H17S13124   5.698   5.921   5.281 -1.4431  0.7335 -0.9351
  123SOPE  C21813125   5.768   5.980   5.084  0.1952  1.2499  0.4677
  123SOPE  H18R13126   5.795   6.083   5.114 -1.6467  1.2569  2.4088
  123SOPE  H18S13127   5.664   5.992   5.047  0.5145  1.1369 -0.4911
  123SOPE  H18T13128   5.830   5.954   4.996 -1.7656  0.6915 -0.8197
  123SOPE   C3313129   5.194   5.043   3.662  0.1507  0.4665  0.3509
  123SOPE   H3X13130   5.301   5.029   3.685  0.1580  1.1831  0.7585
  123SOPE   H3Y13131   5.168   4.963   3.589 -1.6068  2.0565 -0.8558
  123SOPE   C3413132   5.131   5.016   3.812  0.0555 -0.4069  0.0210
  123SOPE   H4X13133   5.121   4.909   3.839 -1.4762  0.4609  3.3600
  123SOPE   H4Y13134   5.031   5.063   3.805  0.3719  0.4152  0.8774
  123SOPE   C3513135   5.223   5.076   3.913  0.5262 -0.2467  0.1083
  123SOPE   H5X13136   5.260   5.179   3.895 -0.1477  0.2289  1.3283
  123SOPE   H5Y13137   5.312   5.009   3.915  0.0557 -0.8807  0.3480
  123SOPE   C3613138   5.150   5.079   4.049 -0.1778  0.3922  0.2633
  123SOPE   H6X13139   5.123   4.982   4.096 -0.6134  0.8474  0.9877
  123SOPE   H6Y13140   5.050   5.118   4.018  0.6354  0.2825 -2.7278
  123SOPE   C3713141   5.215   5.183   4.145 -0.3247  0.0531 -0.0271
  123SOPE   H7X13142   5.234   5.273   4.083  3.0908 -0.2348  0.4260
  123SOPE   H7Y13143   5.314   5.137   4.169  1.0643 -0.4486 -5.3429
  123SOPE   C3813144   5.134   5.203   4.270 -1.0487  0.1957  0.5632
  123SOPE   H8X13145   5.113   5.105   4.318  0.5023 -0.7002 -0.4786
  123SOPE   H8Y13146   5.041   5.248   4.230 -0.7636  0.3042  0.0018
  123SOPE   C3913147   5.205   5.292   4.378  0.0263 -0.4677 -0.2129
  123SOPE   H9X13148   5.219   5.396   4.339  2.8095  0.4780  2.9057
  123SOPE   H9Y13149   5.304   5.251   4.405  0.4195  1.9351  2.4138
  123SOPE  C31013150   5.130   5.297   4.510  0.1239 -0.5418 -0.1244
  123SOPE  H10X13151   5.102   5.199   4.555 -0.6830  0.1594  0.9525
  123SOPE  H10Y13152   5.040   5.362   4.501  0.9409  0.5659 -0.4222
  123SOPE  C31113153   5.223   5.374   4.606 -0.1981  0.9512 -0.1726
  123SOPE  H11X13154   5.167   5.412   4.694 -2.1059 -0.4220 -0.7178
  123SOPE  H11Y13155   5.263   5.463   4.554 -0.7324  0.0409 -2.2779
  123SOPE  C31213156   5.345   5.298   4.659 -0.5739  0.1042 -0.0390
  123SOPE  H12X13157   5.411   5.370   4.711  0.2345 -1.3965  1.0835
  123SOPE  H12Y13158   5.403   5.259   4.573  0.9505  0.0838  0.9638
  123SOPE  C31313159   5.314   5.171   4.742  0.0892 -0.4463 -0.3567
  123SOPE  H13X13160   5.238   5.113   4.685 -1.7955  1.2482  0.3285
  123SOPE  H13Y13161   5.262   5.204   4.834  1.6683 -0.7261  0.6868
  123SOPE  C31413162   5.447   5.104   4.779 -0.4541  0.0780  0.1267
  123SOPE  H14X13163   5.506   5.174   4.841 -2.4378  0.3199  1.8671
  123SOPE  H14Y13164   5.510   5.094   4.689  2.3243 -0.1716  1.9878
  123SOPE  C31513165   5.449   4.970   4.852  0.6510  0.2912  0.0299
  123SOPE  H15X13166   5.412   4.890   4.784  0.4595 -1.7344  2.3700
  123SOPE  H15Y13167   5.378   4.973   4.938  1.6921 -1.5573  1.0230
  123SOPE  C31613168   5.590   4.919   4.898 -0.0422  0.2495  0.3281
  123SOPE  H16X13169   5.585   4.817   4.941 -1.4784  0.0885 -0.1864
  123SOPE  H16Y13170   5.620   4.984   4.983 -0.1092  0.8515 -0.0972
  123SOPE  C31713171   5.699   4.933   4.791 -0.0034 -0.6049  0.0409
  123SOPE  H17X13172   5.693   5.039   4.759  1.3409 -0.6548 -0.4516
  123SOPE  H17Y13173   5.665   4.878   4.700 -0.7083  0.7139 -0.5091
  123SOPE  C31813174   5.844   4.897   4.826  1.3593 -0.4044  0.4821
  123SOPE  H18X13175   5.882   4.974   4.895 -0.2112  1.0171 -0.1550
  123SOPE  H18Y13176   5.903   4.907   4.732  2.6867 -0.0551  1.3346
  123SOPE  H18Z13177   5.846   4.800   4.880 -0.6497  0.3430  2.0264
  124SOPE     N13178   5.779   0.379   3.075 -0.3464  0.1716  0.2033
  124SOPE   HN113179   5.698   0.409   3.133  0.2847  1.4152  0.4720
  124SOPE   HN213180   5.859   0.437   3.108 -1.0774  0.6558  1.2117
  124SOPE   HN313181   5.778   0.400   2.973  0.6276  1.4563  0.4342
  124SOPE   C1213182   5.816   0.237   3.099 -0.5293  0.8316  0.0661
  124SOPE  H12A13183   5.843   0.184   3.005  0.4049  2.6963 -0.7764
  124SOPE  H12B13184   5.734   0.185   3.152  1.1800 -2.6947 -0.5011
  124SOPE   C1113185   5.940   0.213   3.192  0.7473  0.0907  0.0889
  124SOPE  H11A13186   5.952   0.105   3.214  0.3433  0.0666  0.2018
  124SOPE  H11B13187   5.915   0.264   3.287 -1.4836 -0.0173 -0.3688
  124SOPE     P13188   6.200   0.206   3.160 -0.1459 -0.3745 -0.2936
  124SOPE   O1313189   6.306   0.308   3.131 -0.4919 -0.6619  0.3874
  124SOPE   O1413190   6.209   0.080   3.089  0.7804  0.3428  0.2214
  124SOPE   O1213191   6.052   0.273   3.125 -0.6159 -0.2875 -0.1864
  124SOPE   O1113192   6.188   0.174   3.313 -0.1445 -0.0570 -0.3018
  124SOPE    C113193   6.202   0.269   3.422 -0.2790 -0.2781  0.7664
  124SOPE    HA13194   6.193   0.375   3.393 -0.7130 -0.4159  0.3981
  124SOPE    HB13195   6.300   0.258   3.475 -0.1222  1.7013  0.9562
  124SOPE    C213196   6.095   0.250   3.523 -1.5033 -0.7120  0.2418
  124SOPE    HS13197   6.013   0.320   3.496  0.7611  1.7968 -0.6093
  124SOPE   O2113198   6.156   0.277   3.656  0.4779 -0.3724 -0.4213
  124SOPE   C2113199   6.135   0.396   3.702 -0.2525  0.0745  0.2802
  124SOPE   O2213200   6.072   0.481   3.639 -0.0600 -0.1817  0.1174
  124SOPE   C2213201   6.211   0.405   3.829  0.2285  0.1202 -0.1448
  124SOPE   H2R13202   6.185   0.503   3.875 -0.3407  0.5518 -1.3392
  124SOPE   H2S13203   6.320   0.417   3.817 -0.0148  1.6734 -1.1043
  124SOPE    C313204   6.045   0.099   3.544  0.2206 -0.0418  0.1595
  124SOPE    HX13205   6.134   0.033   3.536 -0.1192 -0.4586 -0.2256
  124SOPE    HY13206   5.976   0.075   3.460  1.8832 -0.2600 -1.2041
  124SOPE   O3113207   5.972   0.076   3.672  0.5846 -0.8571 -0.7467
  124SOPE   C3113208   6.009  -0.019   3.750  0.8316  0.7269 -0.1269
  124SOPE   O3213209   6.102  -0.093   3.726 -0.0035 -0.4154 -0.5407
  124SOPE   C3213210   5.933  -0.023   3.884  0.0396  0.1622 -0.4174
  124SOPE   H2X13211   5.840  -0.081   3.868 -0.3539  0.8912 -0.8489
  124SOPE   H2Y13212   5.904   0.080   3.916 -0.7598 -0.2153  0.1048
  124SOPE   C2313213   6.165   0.299   3.931 -0.1281 -0.1654  0.4099
  124SOPE   H3R13214   6.188   0.192   3.913  0.1438  0.2410 -1.9627
  124SOPE   H3S13215   6.058   0.322   3.951 -0.0865  1.0269 -0.5728
  124SOPE   C2413216   6.228   0.327   4.069 -0.2129  0.8691 -0.2988
  124SOPE   H4R13217   6.338   0.335   4.056  0.2661 -1.7180  1.2709
  124SOPE   H4S13218   6.189   0.419   4.116  0.2711  0.2165  1.4710
  124SOPE   C2513219   6.201   0.219   4.176  0.6558  0.2723  0.0511
  124SOPE   H5R13220   6.099   0.175   4.169  0.1815  1.4576 -0.6205
  124SOPE   H5S13221   6.272   0.135   4.156  1.6720  0.1759  3.4462
  124SOPE   C2613222   6.244   0.261   4.318  0.3951  0.3356 -0.3560
  124SOPE   H6R13223   6.349   0.296   4.326  0.3907 -0.1110  2.3769
  124SOPE   H6S13224   6.180   0.348   4.344  0.4796  0.2075  0.2984
  124SOPE   C2713225   6.231   0.142   4.417 -0.5656 -0.5749 -0.1449
  124SOPE   H7R13226   6.122   0.124   4.422 -0.7480  0.2275 -0.8502
  124SOPE   H7S13227   6.283   0.046   4.398  0.7053 -0.3630  2.0103
  124SOPE   C2813228   6.286   0.180   4.556 -0.4330  0.5346  0.1900
  124SOPE   H8R13229   6.396   0.186   4.545 -0.1364  0.9394  2.8405
  124SOPE   H8S13230   6.253   0.282   4.585 -0.9161  0.2423  0.6845
  124SOPE   C2913231   6.244   0.074   4.654 -0.2537 -0.2730  0.2597
  124SOPE   H9113232   6.308  -0.015   4.647 -0.4051 -0.2813 -1.4425
  124SOPE  C21013233   6.151   0.088   4.753  0.0551  0.4625 -0.2276
  124SOPE  H10113234   6.123  -0.001   4.812 -0.7535  0.3799 -0.7229
  124SOPE  C21113235   6.063   0.203   4.775  0.4281  0.2563 -0.5795
  124SOPE  H11R13236   5.964   0.187   4.727 -0.7163  1.4268  1.2715
  124SOPE  H11S13237   6.107   0.296   4.735  0.0669  0.2052 -1.1067
  124SOPE  C21213238   6.019   0.210   4.925  0.5959 -0.5619  0.0310
  124SOPE  H12R13239   6.111   0.213   4.986  0.1629 -2.6106  0.8485
  124SOPE  H12S13240   5.959   0.122   4.956 -1.1098  0.2469 -0.7966
  124SOPE  C21313241   5.923   0.331   4.964  0.1937 -0.0767 -0.1931
  124SOPE  H13R13242   5.833   0.336   4.899 -0.3204  0.1487  0.5095
  124SOPE  H13S13243   5.995   0.414   4.945  0.8080  0.3337  3.2085
  124SOPE  C21413244   5.867   0.342   5.107 -0.0382 -0.3175 -0.1934
  124SOPE  H14R13245   5.942   0.357   5.187 -1.6339  2.1664  0.9732
  124SOPE  H14S13246   5.825   0.243   5.134 -0.8111  0.4416  1.5348
  124SOPE  C21513247   5.746   0.441   5.113  0.4106 -0.9117  0.3868
  124SOPE  H15R13248   5.658   0.389   5.070  0.8899 -0.7410 -0.8308
  124SOPE  H15S13249   5.771   0.529   5.050  0.0652 -0.1634  1.2628
  124SOPE  C21613250   5.724   0.500   5.247  0.0967 -0.7242  0.1235
  124SOPE  H16R13251   5.804   0.559   5.296 -1.0726  1.4578 -0.4621
  124SOPE  H16S13252   5.688   0.425   5.321  0.6845  0.0288  1.1925
  124SOPE  C21713253   5.611   0.612   5.244 -0.7107  0.0056 -0.1194
  124SOPE  H17R13254   5.507   0.574   5.233 -0.3379 -1.9201  2.2718
  124SOPE  H17S13255   5.636   0.679   5.159  0.7364 -1.2536 -0.7379
  124SOPE  C21813256   5.601   0.686   5.377 -0.0540  0.1535 -0.4424
  124SOPE  H18R13257   5.675   0.767   5.392  0.6287 -0.3340 -1.1471
  124SOPE  H18S13258   5.629   0.619   5.461  1.5797 -0.6330 -1.5582
  124SOPE  H18T13259   5.500   0.728   5.395 -0.3484 -0.7494  0.0986
  124SOPE   C3313260   6.017  -0.090   3.995  0.6322  0.3126 -0.6141
  124SOPE   H3X13261   6.116  -0.040   3.982  1.2131 -1.3361 -3.4806
  124SOPE   H3Y13262   6.038  -0.196   3.967  1.2202 -0.5979  2.7550
  124SOPE   C3413263   5.955  -0.105   4.133 -0.4787  0.2573 -0.4949
  124SOPE   H4X13264   5.866  -0.172   4.128  1.2103 -2.0724 -1.0246
  124SOPE   H4Y13265   5.917  -0.007   4.168 -0.6685  0.0395 -0.0822
  124SOPE   C3513266   6.046  -0.167   4.242 -0.3267 -0.0778 -0.1723
  124SOPE   H5X13267   6.143  -0.112   4.253 -1.4563  2.0709 -0.4606
  124SOPE   H5Y13268   6.077  -0.267   4.205  0.5569  0.9085 -2.2383
  124SOPE   C3613269   5.974  -0.182   4.378 -0.1650  0.9107 -0.2099
  124SOPE   H6X13270   5.876  -0.232   4.362  0.0812  0.4826 -0.3844
  124SOPE   H6Y13271   5.953  -0.078   4.412  0.7106  0.7497  0.8817
  124SOPE   C3713272   6.074  -0.245   4.474  0.4339  0.4072 -0.3746
  124SOPE   H7X13273   6.170  -0.189   4.471 -0.0974  1.2935 -2.0376
  124SOPE   H7Y13274   6.087  -0.341   4.419 -0.8125 -0.0622  0.1200
  124SOPE   C3813275   6.035  -0.263   4.626  0.0497  0.5100 -0.4843
  124SOPE   H8X13276   5.937  -0.315   4.626  0.5483 -0.4736 -1.6047
  124SOPE   H8Y13277   6.016  -0.163   4.671 -1.6515  0.6135 -1.3101
  124SOPE   C3913278   6.139  -0.337   4.703 -0.5156 -0.0749  0.1676
  124SOPE   H9X13279   6.231  -0.288   4.665  0.3804 -2.0824 -0.4005
  124SOPE   H9Y13280   6.130  -0.438   4.658  1.7052 -0.2949  0.0886
  124SOPE  C31013281   6.104  -0.341   4.854  0.1394  0.2673 -0.1323
  124SOPE  H10X13282   5.994  -0.334   4.871  0.1288  0.4693 -0.2748
  124SOPE  H10Y13283   6.149  -0.253   4.904 -1.3189  0.1755  1.4551
  124SOPE  C31113284   6.151  -0.469   4.924 -0.4131 -0.3931 -0.2266
  124SOPE  H11X13285   6.250  -0.500   4.884 -0.3760  1.8057 -2.0627
  124SOPE  H11Y13286   6.079  -0.548   4.894  0.6702 -1.0785 -1.1444
  124SOPE  C31213287   6.164  -0.449   5.070 -0.3403  0.1959 -0.5294
  124SOPE  H12X13288   6.073  -0.408   5.118 -1.1669 -3.4192  1.2877
  124SOPE  H12Y13289   6.248  -0.379   5.094 -0.5940  0.1631  0.4831
  124SOPE  C31313290   6.201  -0.583   5.140 -0.2848 -0.9015  0.1871
  124SOPE  H13X13291   6.284  -0.630   5.083  0.4258 -0.0243  0.4876
  124SOPE  H13Y13292   6.110  -0.647   5.139 -2.3371  1.8281  0.1900
  124SOPE  C31413293   6.237  -0.557   5.287 -0.1875  0.1130 -0.2462
  124SOPE  H14X13294   6.145  -0.542   5.346 -0.0350  0.5458 -0.1157
  124SOPE  H14Y13295   6.300  -0.465   5.288  0.2538 -0.1841 -0.2641
  124SOPE  C31513296   6.316  -0.676   5.348 -0.1088 -0.2081 -0.2471
  124SOPE  H15X13297   6.427  -0.669   5.340  0.1548  0.1104  2.8266
  124SOPE  H15Y13298   6.284  -0.770   5.298 -1.2150 -0.0058  0.0641
  124SOPE  C31613299   6.281  -0.700   5.494  0.3348  0.0442 -0.2050
  124SOPE  H16X13300   6.172  -0.678   5.506  0.0134 -1.2205 -0.5877
  124SOPE  H16Y13301   6.334  -0.628   5.559 -2.6214  0.6508  1.7635
  124SOPE  C31713302   6.312  -0.841   5.544  0.2159  1.0869 -0.0986
  124SOPE  H17X13303   6.423  -0.844   5.550  0.1904 -1.5007  0.2573
  124SOPE  H17Y13304   6.276  -0.921   5.476 -0.2416  1.3897 -0.2211
  124SOPE  C31813305   6.255  -0.874   5.678  0.4945 -0.0030 -0.1095
  124SOPE  H18X13306   6.267  -0.787   5.746  1.0608 -0.3602  0.2531
  124SOPE  H18Y13307   6.283  -0.967   5.730 -3.0411 -1.3157 -0.2697
  124SOPE  H18Z13308   6.144  -0.878   5.674  0.4414  0.5927  0.6317
  125SOPE     N13309   1.198   1.659   2.831 -0.1212 -0.0106 -0.0426
  125SOPE   HN113310   1.110   1.634   2.880 -0.5292 -0.6965 -1.0866
  125SOPE   HN213311   1.192   1.753   2.787 -0.2052 -0.1533 -0.3415
  125SOPE   HN313312   1.208   1.586   2.757 -2.0096 -0.8884  0.5165
  125SOPE   C1213313   1.317   1.660   2.923 -0.0811  0.1629  0.0792
  125SOPE  H12A13314   1.311   1.754   2.982 -3.6058 -0.0149  0.2367
  125SOPE  H12B13315   1.408   1.659   2.860  0.3867 -1.7827  0.7011
  125SOPE   C1113316   1.318   1.543   3.017 -0.4719 -0.0600  1.0735
  125SOPE  H11A13317   1.229   1.547   3.084  0.1298 -0.9578  1.9634
  125SOPE  H11B13318   1.404   1.553   3.087  0.8810  0.1972 -0.5690
  125SOPE     P13319   1.453   1.355   2.893  0.4623 -0.5092 -0.1525
  125SOPE   O1313320   1.547   1.460   2.832  0.6084 -0.5371  0.5463
  125SOPE   O1413321   1.426   1.229   2.819 -0.2252 -0.3375  0.3913
  125SOPE   O1213322   1.315   1.423   2.941  0.0664 -0.4289 -0.1013
  125SOPE   O1113323   1.513   1.316   3.034 -0.5079 -1.0239  0.4461
  125SOPE    C113324   1.485   1.200   3.106 -0.1847  0.2505 -0.3727
  125SOPE    HA13325   1.577   1.160   3.153 -0.4906 -0.4464 -0.3540
  125SOPE    HB13326   1.434   1.122   3.047  0.1677 -0.4451  0.2275
  125SOPE    C213327   1.385   1.226   3.222  0.8442 -0.2752  0.2798
  125SOPE    HS13328   1.289   1.258   3.176  1.3464  1.8403  0.5969
  125SOPE   O2113329   1.438   1.327   3.311 -0.0141 -0.3135  0.4693
  125SOPE   C2113330   1.343   1.411   3.362  0.3729  0.2577 -0.4907
  125SOPE   O2213331   1.232   1.428   3.315  0.4501  0.0391 -0.2011
  125SOPE   C2213332   1.395   1.485   3.482  0.5301  0.5323  0.5967
  125SOPE   H2R13333   1.466   1.554   3.432  2.4342 -1.4805  0.3619
  125SOPE   H2S13334   1.448   1.423   3.558  1.0504 -0.4921 -0.5752
  125SOPE    C313335   1.364   1.104   3.315 -0.2538 -0.6247 -0.1329
  125SOPE    HX13336   1.466   1.078   3.350 -0.6259 -0.1356  1.3892
  125SOPE    HY13337   1.332   1.022   3.247  2.1921 -0.2015 -1.9139
  125SOPE   O3113338   1.260   1.137   3.419 -0.0667  0.3323  0.2623
  125SOPE   C3113339   1.137   1.125   3.369  1.0784 -0.9849  1.1369
  125SOPE   O3213340   1.112   1.097   3.251 -0.1922 -0.1594  0.1387
  125SOPE   C3213341   1.028   1.138   3.477 -0.6241 -0.6924 -0.7862
  125SOPE   H2X13342   0.937   1.079   3.453 -2.1749  1.1768  0.1695
  125SOPE   H2Y13343   0.993   1.243   3.471 -0.2254 -0.4269  0.9971
  125SOPE   C2313344   1.280   1.565   3.559 -0.0670  0.3046 -0.1286
  125SOPE   H3R13345   1.214   1.625   3.493 -1.0473  2.0530  2.3256
  125SOPE   H3S13346   1.341   1.633   3.622  1.9016 -1.5001  0.0469
  125SOPE   C2413347   1.203   1.468   3.653 -0.5130 -0.9531  0.6531
  125SOPE   H4R13348   1.125   1.524   3.709  0.2321 -0.1754  0.9432
  125SOPE   H4S13349   1.157   1.392   3.587 -0.2580 -0.4881 -0.0690
  125SOPE   C2513350   1.298   1.410   3.761  0.3096 -0.7075  0.2244
  125SOPE   H5R13351   1.349   1.319   3.723 -1.3981 -1.3843 -0.5416
  125SOPE   H5S13352   1.381   1.483   3.767 -0.3836  0.0295  1.5104
  125SOPE   C2613353   1.235   1.403   3.898  0.1201  0.1835  0.6467
  125SOPE   H6R13354   1.158   1.483   3.905 -1.4530 -1.0676 -1.2432
  125SOPE   H6S13355   1.174   1.311   3.912  0.5585 -0.1465  0.4027
  125SOPE   C2713356   1.327   1.411   4.020 -0.5021  0.1843 -0.2892
  125SOPE   H7R13357   1.282   1.361   4.109 -0.1067  0.6916  0.2115
  125SOPE   H7S13358   1.421   1.367   3.981  0.0077  1.3956 -0.4741
  125SOPE   C2813359   1.350   1.559   4.062  0.6471 -0.5529  0.0855
  125SOPE   H8R13360   1.401   1.627   3.990 -0.9946  2.2087  1.3528
  125SOPE   H8S13361   1.254   1.614   4.071 -0.3374 -2.4009  1.6602
  125SOPE   C2913362   1.432   1.562   4.185 -0.1797  0.1502  0.2965
  125SOPE   H9113363   1.539   1.546   4.170 -0.2609 -0.0209 -0.1097
  125SOPE  C21013364   1.395   1.598   4.306 -0.0743  0.0369 -0.3059
  125SOPE  H10113365   1.480   1.584   4.374  1.0574 -1.0231 -1.8689
  125SOPE  C21113366   1.260   1.639   4.360  0.1190  0.4688  0.3666
  125SOPE  H11R13367   1.221   1.561   4.428 -1.9829  0.2144 -1.0500
  125SOPE  H11S13368   1.189   1.661   4.277  0.1512  1.8433  0.6767
  125SOPE  C21213369   1.272   1.768   4.440 -0.1935  0.1766  0.1391
  125SOPE  H12R13370   1.169   1.799   4.466  0.0946  3.2970 -1.9370
  125SOPE  H12S13371   1.316   1.846   4.374  0.8177 -1.6323 -1.4376
  125SOPE  C21313372   1.342   1.760   4.579 -0.5532 -0.2336 -0.5566
  125SOPE  H13R13373   1.322   1.859   4.625 -0.7556 -0.8517  0.7242
  125SOPE  H13S13374   1.453   1.754   4.571 -0.3049  1.2424  1.1526
  125SOPE  C21413375   1.303   1.648   4.673  0.1589  0.2239 -0.0032
  125SOPE  H14R13376   1.327   1.556   4.616 -1.2382  0.6352 -1.3271
  125SOPE  H14S13377   1.194   1.640   4.694  0.1624 -4.6950 -0.5942
  125SOPE  C21513378   1.379   1.645   4.811  0.7577  0.1965  1.2791
  125SOPE  H15R13379   1.486   1.661   4.783  0.4871  1.4597  0.9056
  125SOPE  H15S13380   1.362   1.547   4.859  0.7418  0.6182  2.1489
  125SOPE  C21613381   1.308   1.747   4.909 -0.0255 -0.3272 -0.4910
  125SOPE  H16R13382   1.200   1.721   4.913 -0.5585  1.8851  1.3385
  125SOPE  H16S13383   1.335   1.851   4.880 -1.4773  0.3704  0.5471
  125SOPE  C21713384   1.376   1.750   5.047 -1.0771  0.4518 -0.4687
  125SOPE  H17R13385   1.487   1.743   5.039 -0.9132 -2.5181  2.1986
  125SOPE  H17S13386   1.349   1.651   5.089 -0.5896  0.3458 -0.3938
  125SOPE  C21813387   1.337   1.858   5.150  0.0772 -0.2810  0.0012
  125SOPE  H18R13388   1.387   1.845   5.248  2.0015 -1.5934 -1.1013
  125SOPE  H18S13389   1.228   1.855   5.174  0.4217  0.4247  1.8142
  125SOPE  H18T13390   1.362   1.955   5.102 -0.3275  0.5635  1.4320
  125SOPE   C3313391   1.067   1.112   3.622 -0.5937 -0.0936  0.3231
  125SOPE   H3X13392   0.979   1.145   3.681 -1.1030 -0.3494 -0.2743
  125SOPE   H3Y13393   1.145   1.182   3.658 -0.9059  0.2879  0.2624
  125SOPE   C3413394   1.109   0.962   3.653  0.0621  0.0613 -0.4013
  125SOPE   H4X13395   1.207   0.953   3.602 -0.9750  0.0771 -2.4956
  125SOPE   H4Y13396   1.039   0.894   3.600  0.5523 -0.7950  0.0334
  125SOPE   C3513397   1.115   0.932   3.804  0.1843  0.9397 -0.5992
  125SOPE   H5X13398   1.110   0.822   3.821 -0.8070  0.8935 -1.1058
  125SOPE   H5Y13399   1.021   0.976   3.844 -0.0394 -0.5450  0.6162
  125SOPE   C3613400   1.241   0.978   3.880 -0.0364  0.4520  0.0448
  125SOPE   H6X13401   1.267   1.085   3.865 -0.2765  0.7646  1.6725
  125SOPE   H6Y13402   1.328   0.921   3.842  0.1026  0.3015  0.5776
  125SOPE   C3713403   1.235   0.952   4.031  0.0088  0.5167  0.1709
  125SOPE   H7X13404   1.210   0.844   4.041  2.0026 -0.0778 -0.7973
  125SOPE   H7Y13405   1.159   1.007   4.092  0.8042  1.0468  0.7066
  125SOPE   C3813406   1.367   0.980   4.099  0.3784 -0.1270  0.1970
  125SOPE   H8X13407   1.402   1.086   4.096  0.7176 -0.2243  0.5388
  125SOPE   H8Y13408   1.452   0.925   4.054  0.8631  0.1423  0.7674
  125SOPE   C3913409   1.343   0.928   4.248  0.0992 -0.3715  0.3296
  125SOPE   H9X13410   1.448   0.912   4.282  0.6184  0.2164 -0.9040
  125SOPE   H9Y13411   1.283   0.837   4.266 -1.4633  0.3293 -1.0413
  125SOPE  C31013412   1.284   1.035   4.345 -0.1516  0.6763  0.1186
  125SOPE  H10X13413   1.183   1.067   4.312 -0.2726  1.2106  0.9828
  125SOPE  H10Y13414   1.351   1.122   4.364  0.1485  0.2500  1.0794
  125SOPE  C31113415   1.266   0.965   4.482  0.7249  0.4107 -0.4308
  125SOPE  H11X13416   1.367   0.922   4.500  0.5967 -0.3985 -1.5531
  125SOPE  H11Y13417   1.209   0.871   4.462  0.6315 -0.0550  1.7714
  125SOPE  C31213418   1.196   1.043   4.590 -0.0146  0.6372 -0.1660
  125SOPE  H12X13419   1.108   1.101   4.553  0.1500  1.0823  0.1242
  125SOPE  H12Y13420   1.266   1.127   4.612 -0.4734  1.5355 -1.9665
  125SOPE  C31313421   1.183   0.982   4.732  0.0446  0.2269 -0.6003
  125SOPE  H13X13422   1.276   0.931   4.766 -0.4237  0.2143  0.7534
  125SOPE  H13Y13423   1.112   0.896   4.732  1.3486 -0.9441  1.5868
  125SOPE  C31413424   1.135   1.078   4.843  0.0485  0.7033 -0.4875
  125SOPE  H14X13425   1.107   1.018   4.932  0.4328  0.3508 -0.6058
  125SOPE  H14Y13426   1.048   1.134   4.801  0.1280  0.1967 -1.3464
  125SOPE  C31513427   1.244   1.185   4.872  0.3431 -0.0196 -0.2419
  125SOPE  H15X13428   1.257   1.251   4.784 -0.4100  0.6436  0.1259
  125SOPE  H15Y13429   1.342   1.144   4.905  0.5266  1.1551  0.7702
  125SOPE  C31613430   1.212   1.285   4.985  0.0828 -0.0198 -0.4732
  125SOPE  H16X13431   1.107   1.319   4.971 -0.1044 -0.3983 -0.0123
  125SOPE  H16Y13432   1.279   1.371   4.960 -0.2965  0.1705 -0.8594
  125SOPE  C31713433   1.226   1.227   5.127  0.0058 -0.2926  0.3088
  125SOPE  H17X13434   1.335   1.211   5.143  0.1600 -0.0101 -0.3990
  125SOPE  H17Y13435   1.194   1.121   5.124  4.0488 -1.7131  0.2731
  125SOPE  C31813436   1.169   1.316   5.230 -0.6460  0.5465 -0.7379
  125SOPE  H18X13437   1.184   1.283   5.335 -0.1385  0.2699 -0.8950
  125SOPE  H18Y13438   1.058   1.309   5.224 -0.6190 -2.0882  0.3474
  125SOPE  H18Z13439   1.205   1.421   5.228 -2.5534  1.2481 -3.2653
  126SOPE     N13440   1.381   4.958   3.350 -0.4848  0.0765 -0.1633
  126SOPE   HN113441   1.435   4.893   3.411 -1.4291 -1.9177 -1.3342
  126SOPE   HN213442   1.357   5.040   3.408  1.6276  1.8912 -1.6890
  126SOPE   HN313443   1.308   4.888   3.325 -0.6893  0.1909  0.1109
  126SOPE   C1213444   1.478   4.990   3.246  0.3277 -0.0078  0.4322
  126SOPE  H12A13445   1.543   5.072   3.284 -0.6176  0.5723  0.8344
  126SOPE  H12B13446   1.424   5.036   3.161  1.3277 -0.7176 -0.6017
  126SOPE   C1113447   1.555   4.870   3.198 -0.9502 -0.6420  0.1727
  126SOPE  H11A13448   1.608   4.896   3.104 -0.4631 -2.1364  0.0101
  126SOPE  H11B13449   1.489   4.789   3.162 -1.8054 -0.0572  0.3898
  126SOPE     P13450   1.642   4.739   3.410 -0.0611  0.2979  0.0099
  126SOPE   O1313451   1.693   4.603   3.377  0.1271  0.1524  0.5501
  126SOPE   O1413452   1.505   4.757   3.464 -0.2987  0.9940 -0.8478
  126SOPE   O1213453   1.658   4.831   3.288  0.7080  0.5531  0.8128
  126SOPE   O1113454   1.737   4.815   3.517 -0.0879  0.0230  0.2018
  126SOPE    C113455   1.821   4.925   3.472  0.5740 -0.7194  0.2359
  126SOPE    HA13456   1.767   5.007   3.420  1.0847 -0.0118  0.7964
  126SOPE    HB13457   1.893   4.884   3.398  0.7346 -0.4967  0.2690
  126SOPE    C213458   1.913   4.990   3.591  0.2800  0.1181 -0.4619
  126SOPE    HS13459   1.976   4.912   3.638  1.6754  1.2067 -0.4405
  126SOPE   O2113460   1.820   5.045   3.679  0.2402 -0.0814  0.1494
  126SOPE   C2113461   1.778   4.971   3.783  0.1452 -0.1147 -0.8686
  126SOPE   O2213462   1.818   4.861   3.811  0.8191  0.3689 -0.0774
  126SOPE   C2213463   1.652   5.034   3.851  0.4551 -0.7317  0.0311
  126SOPE   H2R13464   1.573   5.020   3.774  1.8883  0.5144 -1.7330
  126SOPE   H2S13465   1.672   5.143   3.852  0.1603 -0.6555 -0.9899
  126SOPE    C313466   1.999   5.109   3.530 -0.3927  0.1114 -0.9112
  126SOPE    HX13467   1.926   5.187   3.501 -0.5707  0.7268  1.0854
  126SOPE    HY13468   2.062   5.076   3.445  2.6727 -0.7704  1.5278
  126SOPE   O3113469   2.087   5.177   3.626  0.2059 -0.2706  0.7860
  126SOPE   C3113470   2.209   5.128   3.630 -1.5384  0.1017  0.2892
  126SOPE   O3213471   2.261   5.043   3.556 -0.2981  0.4863  0.0110
  126SOPE   C3213472   2.289   5.183   3.752  0.5003  0.2503  0.2117
  126SOPE   H2X13473   2.307   5.287   3.717 -1.1407  0.2574 -0.7276
  126SOPE   H2Y13474   2.384   5.128   3.765 -0.2012 -1.0751  0.0158
  126SOPE   C2313475   1.620   4.985   3.996  0.4069  0.2242 -0.5709
  126SOPE   H3R13476   1.633   4.875   4.000  3.0970  0.4190 -1.9821
  126SOPE   H3S13477   1.512   5.009   4.011  0.2870  0.3830 -1.5788
  126SOPE   C2413478   1.687   5.063   4.113  0.4627  0.1950  0.7815
  126SOPE   H4R13479   1.794   5.083   4.090  0.1068  2.5566  0.9359
  126SOPE   H4S13480   1.634   5.160   4.113 -0.0662 -0.0766 -0.0293
  126SOPE   C2513481   1.686   4.977   4.237  0.3565  0.8401 -0.7415
  126SOPE   H5R13482   1.583   4.978   4.280  0.4091 -2.6009 -0.2994
  126SOPE   H5S13483   1.718   4.872   4.221 -1.8735  0.0173 -0.2207
  126SOPE   C2613484   1.781   5.037   4.342 -0.4729 -0.1762 -0.0655
  126SOPE   H6R13485   1.881   5.056   4.298  1.1272 -0.0836  3.2873
  126SOPE   H6S13486   1.743   5.137   4.373 -0.4071 -0.5900  1.3982
  126SOPE   C2713487   1.807   4.936   4.459 -0.2943  0.8003 -0.2362
  126SOPE   H7R13488   1.710   4.926   4.513 -0.9558  1.5459 -1.2708
  126SOPE   H7S13489   1.839   4.838   4.419 -0.2536  1.4920 -1.9471
  126SOPE   C2813490   1.901   4.987   4.570 -0.0321 -0.1973  0.4111
  126SOPE   H8R13491   1.904   4.917   4.655  1.9928 -1.4895 -0.6382
  126SOPE   H8S13492   2.003   4.973   4.526 -0.6263  0.3181 -1.2292
  126SOPE   C2913493   1.900   5.133   4.608 -0.1989  0.5741 -0.0373
  126SOPE   H9113494   1.918   5.206   4.528 -3.4024 -0.8017 -2.2011
  126SOPE  C21013495   1.887   5.181   4.741 -0.5567  0.4033  0.4465
  126SOPE  H10113496   1.895   5.288   4.762  0.4609  0.0943  1.8317
  126SOPE  C21113497   1.854   5.098   4.855  0.2150 -0.2591  0.5095
  126SOPE  H11R13498   1.828   4.993   4.829 -3.0333  0.6321 -0.2327
  126SOPE  H11S13499   1.761   5.133   4.905  0.3724  0.7390  0.1335
  126SOPE  C21213500   1.976   5.080   4.958 -0.4907 -0.3541  0.4488
  126SOPE  H12R13501   2.065   5.053   4.899  0.8965  0.9199  1.8612
  126SOPE  H12S13502   1.962   5.011   5.044 -0.1553  0.3724  1.1070
  126SOPE  C21313503   2.008   5.217   5.012 -0.3595  0.1241  0.1717
  126SOPE  H13R13504   1.918   5.251   5.067  1.3201  1.9779  1.8943
  126SOPE  H13S13505   2.034   5.291   4.933  0.3033 -0.6705 -0.3771
  126SOPE  C21413506   2.116   5.222   5.124  0.3919 -0.0221  0.1062
  126SOPE  H14R13507   2.214   5.195   5.079  1.4484 -0.1487  2.3395
  126SOPE  H14S13508   2.098   5.149   5.206  0.0623  2.3393  2.2860
  126SOPE  C21513509   2.126   5.356   5.190 -0.0073  0.1280  0.1341
  126SOPE  H15R13510   2.033   5.378   5.247  0.3666 -0.6476  1.0718
  126SOPE  H15S13511   2.134   5.436   5.113 -0.8504  0.3525  0.2628
  126SOPE  C21613512   2.235   5.358   5.299  0.2742  0.2308  0.6631
  126SOPE  H16R13513   2.334   5.351   5.249 -0.5613  2.5526 -1.5197
  126SOPE  H16S13514   2.221   5.276   5.372  0.8060 -1.7332 -1.3139
  126SOPE  C21713515   2.231   5.493   5.379 -0.0802  0.7187  0.6885
  126SOPE  H17R13516   2.228   5.580   5.310 -1.0253  2.0101  2.2796
  126SOPE  H17S13517   2.315   5.493   5.451  1.0211 -1.1457 -0.5160
  126SOPE  C21813518   2.106   5.513   5.463  0.6367  0.0894  0.3834
  126SOPE  H18R13519   2.118   5.592   5.540 -2.9177  0.2031  0.9685
  126SOPE  H18S13520   2.080   5.418   5.514  0.0285  0.6054  1.0558
  126SOPE  H18T13521   2.021   5.548   5.401  0.7069  2.5998  1.5736
  126SOPE   C3313522   2.217   5.177   3.885 -0.2610 -0.0881 -0.8866
  126SOPE   H3X13523   2.127   5.241   3.877  0.0671  0.5987  0.6311
  126SOPE   H3Y13524   2.282   5.224   3.962  0.2354 -1.8148 -0.2179
  126SOPE   C3413525   2.161   5.049   3.936 -0.2614 -0.3323  0.0507
  126SOPE   H4X13526   2.232   4.963   3.934  0.7685  0.4274  1.5795
  126SOPE   H4Y13527   2.075   5.008   3.880  1.0414 -0.5125 -1.9037
  126SOPE   C3513528   2.114   5.051   4.084 -0.4096 -0.1120  0.1786
  126SOPE   H5X13529   2.062   4.953   4.094  2.5279 -1.8745 -0.5620
  126SOPE   H5Y13530   2.040   5.132   4.102 -3.9879 -2.5698 -2.1369
  126SOPE   C3613531   2.214   5.063   4.198  0.4632  0.5884  0.2347
  126SOPE   H6X13532   2.293   5.138   4.177  2.4231 -1.5268 -0.3283
  126SOPE   H6Y13533   2.269   4.967   4.215  1.3712  0.6637 -1.9543
  126SOPE   C3713534   2.153   5.094   4.335  0.1743 -0.0774 -0.4583
  126SOPE   H7X13535   2.091   5.002   4.345  0.0281 -0.1034 -1.4545
  126SOPE   H7Y13536   2.091   5.186   4.330  1.6943  1.0308  0.3605
  126SOPE   C3813537   2.259   5.103   4.448  0.8477 -0.1425 -0.2600
  126SOPE   H8X13538   2.335   5.022   4.442  2.0213  0.8985  0.2300
  126SOPE   H8Y13539   2.207   5.088   4.545 -1.1225  0.7177 -1.1164
  126SOPE   C3913540   2.343   5.235   4.447 -0.0547  0.8246 -0.0938
  126SOPE   H9X13541   2.270   5.319   4.454 -1.7249 -0.5565 -0.1655
  126SOPE   H9Y13542   2.392   5.256   4.350  0.6726  0.5538  0.2110
  126SOPE  C31013543   2.438   5.268   4.559 -0.0870 -0.3356  0.9003
  126SOPE  H10X13544   2.492   5.361   4.530  0.2965 -0.0723  2.3476
  126SOPE  H10Y13545   2.517   5.190   4.564  1.1516  0.6906 -1.4041
  126SOPE  C31113546   2.384   5.283   4.705 -0.0967 -0.2330 -0.4061
  126SOPE  H11X13547   2.354   5.185   4.749 -1.0942  0.3975  0.3754
  126SOPE  H11Y13548   2.296   5.351   4.711 -1.4193 -1.8653 -0.5061
  126SOPE  C31213549   2.487   5.358   4.798 -0.0087 -0.0130 -0.9235
  126SOPE  H12X13550   2.526   5.448   4.745  1.8331 -0.2878 -0.1281
  126SOPE  H12Y13551   2.573   5.294   4.826  0.2468  0.0646 -1.4948
  126SOPE  C31313552   2.417   5.405   4.928 -0.9846 -0.1770  0.4787
  126SOPE  H13X13553   2.390   5.309   4.975 -1.4059 -0.6347 -0.6662
  126SOPE  H13Y13554   2.329   5.466   4.900  0.7107  1.7472 -1.0076
  126SOPE  C31413555   2.508   5.496   5.017  0.3810  0.1939  0.4966
  126SOPE  H14X13556   2.610   5.456   5.034  1.2105  0.0326 -3.8281
  126SOPE  H14Y13557   2.453   5.514   5.112  1.5029  0.7791  1.0523
  126SOPE  C31513558   2.541   5.630   4.957 -0.1922 -0.2225  0.5097
  126SOPE  H15X13559   2.452   5.696   4.945 -0.2155 -0.4688 -0.7948
  126SOPE  H15Y13560   2.578   5.616   4.853  2.5839 -1.3965  1.5642
  126SOPE  C31613561   2.650   5.699   5.037 -0.7637  0.4751  0.1631
  126SOPE  H16X13562   2.739   5.633   5.039 -1.4549 -0.4528  0.5585
  126SOPE  H16Y13563   2.617   5.714   5.142  1.0607  6.1175  0.3021
  126SOPE  C31713564   2.699   5.839   4.994 -0.2453  0.4184  0.2862
  126SOPE  H17X13565   2.612   5.908   4.995  0.4444  1.3032  2.0749
  126SOPE  H17Y13566   2.746   5.828   4.894 -1.2898 -0.0732 -0.1708
  126SOPE  C31813567   2.796   5.903   5.093  0.2162 -0.2956 -0.2330
  126SOPE  H18X13568   2.745   5.920   5.190 -0.5961 -1.0098 -0.5280
  126SOPE  H18Y13569   2.834   5.998   5.050 -0.5105  1.5463  2.8515
  126SOPE  H18Z13570   2.883   5.835   5.111  0.0423 -0.4102  0.1871
  127SOPE     N13571   2.285   4.104   3.117 -0.3517 -0.0020  0.2683
  127SOPE   HN113572   2.385   4.085   3.097 -0.7272 -0.8005 -0.9593
  127SOPE   HN213573   2.260   4.202   3.091  0.3283 -0.1042 -0.8008
  127SOPE   HN313574   2.264   4.095   3.219  0.3564  1.1449  0.5360
  127SOPE   C1213575   2.210   4.009   3.027 -0.1275 -0.2137 -0.8365
  127SOPE  H12A13576   2.240   4.031   2.922  0.7724 -1.0284 -0.7657
  127SOPE  H12B13577   2.103   4.035   3.041 -0.0668  0.0867 -0.9139
  127SOPE   C1113578   2.248   3.868   3.060 -0.0458  0.2001  0.0469
  127SOPE  H11A13579   2.204   3.800   2.984  1.9468  1.6673 -2.6004
  127SOPE  H11B13580   2.200   3.838   3.156  3.3649  2.4388  2.7040
  127SOPE     P13581   2.475   3.779   2.962 -0.0744 -0.4350 -0.2799
  127SOPE   O1313582   2.547   3.876   2.879 -0.2418  0.3101  0.4110
  127SOPE   O1413583   2.395   3.681   2.890  0.1078 -0.5953 -0.1754
  127SOPE   O1213584   2.387   3.855   3.066 -0.0341  0.0720  0.3511
  127SOPE   O1113585   2.584   3.696   3.048  0.4034 -0.4134  0.4644
  127SOPE    C113586   2.536   3.645   3.170 -0.6390 -0.1019 -0.2983
  127SOPE    HA13587   2.590   3.551   3.195  4.6410  1.9547 -2.4537
  127SOPE    HB13588   2.427   3.623   3.169 -0.5429 -0.5557 -0.6178
  127SOPE    C213589   2.570   3.737   3.293  0.8829  0.6590 -0.2978
  127SOPE    HS13590   2.502   3.824   3.299  0.3845  0.2429  0.2818
  127SOPE   O2113591   2.711   3.785   3.314  0.5383 -0.6474  0.0258
  127SOPE   C2113592   2.728   3.915   3.316  0.0451 -0.1331 -0.2477
  127SOPE   O2213593   2.645   4.004   3.288 -0.3859  0.1697  0.4383
  127SOPE   C2213594   2.874   3.939   3.360  0.4222 -0.2458  0.0547
  127SOPE   H2R13595   2.909   4.011   3.283 -2.2965 -0.0186 -1.0725
  127SOPE   H2S13596   2.927   3.842   3.348 -1.3492 -1.3130  0.4837
  127SOPE    C313597   2.530   3.667   3.423 -0.2214  0.5799  0.0034
  127SOPE    HX13598   2.564   3.740   3.500  4.1400 -2.5069  1.3610
  127SOPE    HY13599   2.583   3.570   3.417 -2.2452 -0.6854  1.3344
  127SOPE   O3113600   2.389   3.629   3.425 -0.4082  0.3562 -0.1069
  127SOPE   C3113601   2.313   3.703   3.498  0.6789  0.0138 -0.2642
  127SOPE   O3213602   2.350   3.796   3.574  0.4877  0.1853 -0.0368
  127SOPE   C3213603   2.165   3.657   3.466 -0.2137  0.4886  0.5397
  127SOPE   H2X13604   2.145   3.547   3.461  2.6056 -0.1649  1.7622
  127SOPE   H2Y13605   2.155   3.701   3.365 -2.1143 -0.6698  0.1633
  127SOPE   C2313606   2.873   3.980   3.507 -0.0427 -0.3686 -0.2606
  127SOPE   H3R13607   2.819   4.076   3.521  2.4244  1.0686 -0.1036
  127SOPE   H3S13608   2.980   4.005   3.522 -0.0894 -0.9271  1.2206
  127SOPE   C2413609   2.837   3.881   3.615  0.2387  0.7936  0.4093
  127SOPE   H4R13610   2.733   3.844   3.616  0.0385  1.2257 -1.0815
  127SOPE   H4S13611   2.894   3.790   3.587 -1.4084 -0.3674  0.6702
  127SOPE   C2513612   2.863   3.932   3.758 -0.3611 -0.6397  0.5923
  127SOPE   H5R13613   2.934   4.017   3.768 -0.4405 -0.3114 -1.2625
  127SOPE   H5S13614   2.767   3.981   3.785 -0.2562  0.4407 -0.8910
  127SOPE   C2613615   2.894   3.822   3.854 -0.1541  0.6703 -0.3495
  127SOPE   H6R13616   2.845   3.723   3.839  2.1834 -0.6221 -0.0570
  127SOPE   H6S13617   2.995   3.789   3.820 -0.0614  1.2715 -0.6630
  127SOPE   C2713618   2.917   3.861   4.002 -0.1799 -0.7173  0.3493
  127SOPE   H7R13619   2.970   3.782   4.059  2.1892 -1.1692 -2.2499
  127SOPE   H7S13620   2.978   3.953   3.992  0.4613 -0.6749  3.5478
  127SOPE   C2813621   2.778   3.886   4.071  0.2766  0.3737 -0.5759
  127SOPE   H8R13622   2.698   3.912   3.999 -0.6088 -1.5172 -0.3415
  127SOPE   H8S13623   2.739   3.789   4.109 -1.9925  1.5003  0.1260
  127SOPE   C2913624   2.799   3.992   4.174  0.4153  0.5360 -0.2622
  127SOPE   H9113625   2.755   4.085   4.136 -0.8051  0.1583  0.1666
  127SOPE  C21013626   2.827   3.990   4.305  0.1555  0.5071 -0.3720
  127SOPE  H10113627   2.833   4.088   4.353 -0.2248 -0.2676  1.3226
  127SOPE  C21113628   2.874   3.879   4.398 -0.5768 -0.9632 -0.1412
  127SOPE  H11R13629   2.977   3.894   4.438 -0.5133 -1.1047 -0.2510
  127SOPE  H11S13630   2.884   3.786   4.339  3.0721 -0.7558 -0.0647
  127SOPE  C21213631   2.788   3.850   4.525  0.3157 -0.2402  0.4403
  127SOPE  H12R13632   2.787   3.944   4.585  1.6661  2.4659 -3.3592
  127SOPE  H12S13633   2.826   3.770   4.592 -1.6110 -1.6994 -0.1273
  127SOPE  C21313634   2.645   3.784   4.490 -0.0330  0.1339  0.7139
  127SOPE  H13R13635   2.659   3.685   4.441 -0.7394  0.3781 -0.0012
  127SOPE  H13S13636   2.593   3.849   4.416  1.8910 -0.0401 -0.8890
  127SOPE  C21413637   2.559   3.739   4.607  0.7357  0.0295  0.3425
  127SOPE  H14R13638   2.617   3.693   4.689  1.4129 -0.4985 -0.4191
  127SOPE  H14S13639   2.475   3.671   4.579  2.2400 -1.2340 -1.3506
  127SOPE  C21513640   2.499   3.861   4.677 -0.5115 -0.2499  0.4409
  127SOPE  H15R13641   2.428   3.918   4.613  1.9549  1.3512 -1.0361
  127SOPE  H15S13642   2.584   3.930   4.698  0.4325 -1.2739  0.0928
  127SOPE  C21613643   2.428   3.824   4.810  0.3763 -0.7524 -0.0162
  127SOPE  H16R13644   2.369   3.909   4.850 -0.1304 -0.4030 -1.4168
  127SOPE  H16S13645   2.506   3.802   4.886  0.6971 -1.4451 -0.5264
  127SOPE  C21713646   2.333   3.711   4.781 -0.2799  0.1769 -0.4134
  127SOPE  H17R13647   2.392   3.618   4.769 -1.7075 -0.5407 -2.2063
  127SOPE  H17S13648   2.279   3.725   4.685  1.2521 -0.7770 -1.4581
  127SOPE  C21813649   2.229   3.686   4.891  0.0796 -0.2803 -0.9739
  127SOPE  H18R13650   2.209   3.784   4.940  1.6943  0.0140 -0.8586
  127SOPE  H18S13651   2.276   3.621   4.968 -0.2425 -0.7986 -1.2102
  127SOPE  H18T13652   2.140   3.632   4.852 -1.0186  0.4182  0.4563
  127SOPE   C3313653   2.056   3.740   3.536 -0.1630 -0.7105 -0.4657
  127SOPE   H3X13654   1.961   3.727   3.481 -0.8632  0.3889  0.4455
  127SOPE   H3Y13655   2.074   3.850   3.538 -1.2316 -0.5368  0.2943
  127SOPE   C3413656   2.017   3.717   3.688  0.0196 -0.3682  0.1589
  127SOPE   H4X13657   2.008   3.609   3.713  0.4845 -0.4032  0.1880
  127SOPE   H4Y13658   1.911   3.748   3.700 -0.4777 -1.7525 -0.4391
  127SOPE   C3513659   2.100   3.802   3.786  1.1189  0.4005  0.7914
  127SOPE   H5X13660   2.100   3.910   3.761  0.9831  0.2579  0.1519
  127SOPE   H5Y13661   2.206   3.781   3.760  0.5746  0.2749 -1.5651
  127SOPE   C3613662   2.056   3.777   3.927  0.1336 -0.0328 -0.0149
  127SOPE   H6X13663   2.038   3.668   3.940 -0.6230 -0.4661 -3.6434
  127SOPE   H6Y13664   1.953   3.820   3.931  0.1228  0.1359 -1.6808
  127SOPE   C3713665   2.135   3.850   4.037 -0.4866  0.3120 -0.5796
  127SOPE   H7X13666   2.244   3.833   4.033 -0.3676  0.8515  0.2014
  127SOPE   H7Y13667   2.091   3.815   4.133  0.2570  0.2866 -0.2412
  127SOPE   C3813668   2.133   4.005   4.034  0.5375  0.2433  0.6813
  127SOPE   H8X13669   2.024   4.017   4.014  0.2721 -2.0223  0.5554
  127SOPE   H8Y13670   2.186   4.026   3.939 -1.4783 -1.2771 -0.8722
  127SOPE   C3913671   2.193   4.088   4.144  0.1249 -0.5157 -0.4621
  127SOPE   H9X13672   2.111   4.104   4.217 -0.6716 -0.4329 -1.3602
  127SOPE   H9Y13673   2.221   4.188   4.106 -0.3494 -0.8795 -1.7924
  127SOPE  C31013674   2.309   4.025   4.228 -1.3344 -0.6960  0.6457
  127SOPE  H10X13675   2.395   4.015   4.159 -2.2702  0.0646 -0.6659
  127SOPE  H10Y13676   2.278   3.919   4.241  0.2521 -1.3259 -0.4577
  127SOPE  C31113677   2.342   4.098   4.359  0.2992  1.3489  1.1387
  127SOPE  H11X13678   2.377   4.201   4.338  1.9191  0.2200 -2.6107
  127SOPE  H11Y13679   2.428   4.041   4.402 -1.9581 -2.4105  1.1836
  127SOPE  C31213680   2.229   4.092   4.464  0.3344 -0.0058  0.3412
  127SOPE  H12X13681   2.186   3.991   4.477 -0.3703  0.0614 -1.2625
  127SOPE  H12Y13682   2.144   4.149   4.420  1.0558  1.3309  0.6013
  127SOPE  C31313683   2.256   4.154   4.602  0.1446  0.3066  0.5434
  127SOPE  H13X13684   2.276   4.260   4.577  0.3828  0.0869 -0.2250
  127SOPE  H13Y13685   2.338   4.120   4.668  0.1497 -2.4776 -0.7722
  127SOPE  C31413686   2.127   4.155   4.695  0.0738  0.0927  0.1312
  127SOPE  H14X13687   2.158   4.163   4.801 -1.7309 -2.5682  0.9500
  127SOPE  H14Y13688   2.085   4.053   4.685 -0.2706  0.1213  1.1160
  127SOPE  C31513689   2.018   4.258   4.662  0.6345  0.2730 -0.0437
  127SOPE  H15X13690   1.999   4.241   4.554  0.2650 -1.1563  0.2196
  127SOPE  H15Y13691   2.066   4.357   4.676 -0.5215  0.4920  3.3900
  127SOPE  C31613692   1.897   4.263   4.746  0.0203 -0.1634 -0.6305
  127SOPE  H16X13693   1.816   4.312   4.688 -0.5527 -2.5157 -1.9038
  127SOPE  H16Y13694   1.903   4.311   4.846 -1.0207  0.7890 -0.9992
  127SOPE  C31713695   1.831   4.121   4.773  0.2640  0.1961 -0.2397
  127SOPE  H17X13696   1.902   4.073   4.844  2.0947  2.0065 -0.7420
  127SOPE  H17Y13697   1.838   4.063   4.679 -0.8446  2.9683 -2.1734
  127SOPE  C31813698   1.690   4.135   4.828 -0.6909  0.5570 -0.5945
  127SOPE  H18X13699   1.668   4.047   4.892  1.5818  0.7496  0.5419
  127SOPE  H18Y13700   1.610   4.160   4.754 -1.9963  0.1329  0.6275
  127SOPE  H18Z13701   1.687   4.215   4.905 -0.5085 -0.2867  0.3003
  128SOPE     N13702   0.860   0.116   3.271 -0.2085  0.1984  0.0616
  128SOPE   HN113703   0.875   0.025   3.319 -1.1707 -0.8826 -1.5737
  128SOPE   HN213704   0.805   0.176   3.335  0.9341  1.5170 -0.1408
  128SOPE   HN313705   0.827   0.091   3.175  0.8918 -3.3998  0.4769
  128SOPE   C1213706   0.997   0.181   3.261 -0.1752 -0.3163 -0.2702
  128SOPE  H12A13707   0.977   0.281   3.219 -3.0526 -0.4294  0.6009
  128SOPE  H12B13708   1.057   0.107   3.205  2.0893 -0.7990  2.5696
  128SOPE   C1113709   1.064   0.204   3.400  0.6266 -0.3824 -0.0197
  128SOPE  H11A13710   0.987   0.242   3.471  1.6240  1.6456  0.0508
  128SOPE  H11B13711   1.148   0.274   3.385  0.9858 -0.2428  2.2209
  128SOPE     P13712   1.044  -0.009   3.566  0.0140 -0.0865  0.0798
  128SOPE   O1313713   1.119  -0.135   3.587 -0.8406 -0.7538 -0.1139
  128SOPE   O1413714   0.904  -0.020   3.524  1.2911 -0.0028 -0.6408
  128SOPE   O1213715   1.118   0.082   3.450 -0.0689 -0.1064 -0.4342
  128SOPE   O1113716   1.063   0.082   3.693  0.9452 -0.0682  0.2416
  128SOPE    C113717   1.205   0.118   3.717  0.0766 -0.0921  0.2667
  128SOPE    HA13718   1.201   0.228   3.729  1.1684  0.0216 -0.2881
  128SOPE    HB13719   1.279   0.113   3.635 -0.4048  2.2581 -0.3781
  128SOPE    C213720   1.263   0.076   3.851  0.3286  0.1445  0.1797
  128SOPE    HS13721   1.283  -0.033   3.851  1.1959  0.3021 -0.0229
  128SOPE   O2113722   1.159   0.108   3.954  0.0588  0.4550  0.3470
  128SOPE   C2113723   1.114   0.008   4.020 -0.0927  0.1628  0.1037
  128SOPE   O2213724   1.144  -0.110   4.001  0.0879  0.5162  0.3664
  128SOPE   C2213725   1.019   0.060   4.117  0.4564  0.4411  0.1937
  128SOPE   H2R13726   0.964  -0.032   4.148  0.3591  0.2497 -0.5231
  128SOPE   H2S13727   0.943   0.128   4.073  0.5786  0.1346 -0.5155
  128SOPE    C313728   1.394   0.155   3.880 -0.1805 -0.3465 -0.5172
  128SOPE    HX13729   1.378   0.264   3.896  2.0692  0.0012 -0.3337
  128SOPE    HY13730   1.451   0.151   3.785 -1.0606 -0.2683 -1.0661
  128SOPE   O3113731   1.464   0.095   3.993  0.1876 -0.0294  0.1160
  128SOPE   C3113732   1.541  -0.011   3.971  0.0258  0.3658  0.2162
  128SOPE   O3213733   1.549  -0.073   3.864 -0.1938  0.2359  0.1892
  128SOPE   C3213734   1.638  -0.040   4.095  0.1045 -0.1414 -0.2432
  128SOPE   H2X13735   1.722   0.032   4.089 -0.8575  1.0615  0.2128
  128SOPE   H2Y13736   1.672  -0.142   4.069 -1.1336 -0.6460  0.0392
  128SOPE   C2313737   1.080   0.125   4.244  0.1404 -0.0862  1.0938
  128SOPE   H3R13738   1.009   0.203   4.279  1.4354  0.9857  1.4217
  128SOPE   H3S13739   1.177   0.170   4.214  0.9855 -1.7799  1.2361
  128SOPE   C2413740   1.085   0.027   4.365  0.3460 -0.4758  0.1812
  128SOPE   H4R13741   0.981   0.004   4.394 -0.4579  2.0699 -0.4236
  128SOPE   H4S13742   1.129  -0.068   4.327 -0.6739 -0.1410 -1.9272
  128SOPE   C2513743   1.165   0.075   4.485 -0.9683 -0.9093  0.6428
  128SOPE   H5R13744   1.266   0.098   4.445 -0.8625 -1.3431  0.6541
  128SOPE   H5S13745   1.118   0.171   4.515  1.7007  0.6370  0.1471
  128SOPE   C2613746   1.175  -0.006   4.611  0.3032  0.4068  0.2492
  128SOPE   H6R13747   1.077  -0.042   4.649  0.0876 -0.7278 -1.2652
  128SOPE   H6S13748   1.240  -0.093   4.588 -0.7339 -0.2204 -0.4442
  128SOPE   C2713749   1.235   0.088   4.715  0.5653  0.6985 -0.0357
  128SOPE   H7R13750   1.334   0.125   4.681  1.5684 -1.1415  0.7492
  128SOPE   H7S13751   1.176   0.182   4.724 -0.4190  0.1002 -0.2231
  128SOPE   C2813752   1.252   0.013   4.851  0.5711  0.1119 -0.0720
  128SOPE   H8R13753   1.161  -0.050   4.861  0.3040  0.7641  2.0092
  128SOPE   H8S13754   1.331  -0.064   4.850 -0.1960 -0.7000  0.3886
  128SOPE   C2913755   1.272   0.095   4.976 -0.1916 -0.3223 -0.6119
  128SOPE   H9113756   1.219   0.191   4.969 -2.1076 -1.0495  2.1587
  128SOPE  C21013757   1.336   0.065   5.092 -0.1355 -0.8150  0.1384
  128SOPE  H10113758   1.344   0.151   5.161 -0.1188  1.0459 -2.0567
  128SOPE  C21113759   1.410  -0.063   5.140 -0.0784  0.6521  0.7706
  128SOPE  H11R13760   1.367  -0.157   5.099  0.9569  0.2495  0.5836
  128SOPE  H11S13761   1.405  -0.076   5.250 -0.1650  0.0719  0.7023
  128SOPE  C21213762   1.563  -0.060   5.100 -0.0733  0.4280 -0.6192
  128SOPE  H12R13763   1.620   0.001   5.173 -0.1794 -0.4682  0.2318
  128SOPE  H12S13764   1.574  -0.016   4.999  2.2173 -0.4004 -0.7765
  128SOPE  C21313765   1.630  -0.204   5.109  0.2580  0.0924  0.0402
  128SOPE  H13R13766   1.582  -0.260   5.026  1.4509  0.9586 -1.2851
  128SOPE  H13S13767   1.604  -0.243   5.210 -0.7567 -2.4008 -1.0980
  128SOPE  C21413768   1.781  -0.196   5.088 -0.1490 -0.4217  0.9404
  128SOPE  H14R13769   1.803  -0.159   4.985  1.5843 -1.4618  0.8930
  128SOPE  H14S13770   1.819  -0.300   5.091 -1.3481 -0.8561  1.8965
  128SOPE  C21513771   1.860  -0.119   5.190 -0.1859 -0.0366 -0.0844
  128SOPE  H15R13772   1.854  -0.163   5.292  0.0252  0.6903  0.2436
  128SOPE  H15S13773   1.818  -0.017   5.202  3.6462  1.4922  2.0895
  128SOPE  C21613774   2.009  -0.126   5.151 -0.3289  0.1220  0.0324
  128SOPE  H16R13775   2.040  -0.098   5.047 -0.3698  1.0129  0.2508
  128SOPE  H16S13776   2.027  -0.233   5.175 -2.6300 -0.0954  1.0263
  128SOPE  C21713777   2.098  -0.046   5.248 -0.3300 -0.8447  0.5191
  128SOPE  H17R13778   2.197  -0.096   5.254 -1.1453 -2.9465 -1.8299
  128SOPE  H17S13779   2.064  -0.061   5.353 -1.8660  1.3085  0.3916
  128SOPE  C21813780   2.114   0.100   5.219  0.2400  0.0084  0.0134
  128SOPE  H18R13781   2.180   0.137   5.300 -0.5897  1.4288  0.0788
  128SOPE  H18S13782   2.028   0.167   5.242  0.1110 -0.0643 -0.2570
  128SOPE  H18T13783   2.156   0.118   5.118 -0.4035  1.8363  0.0343
  128SOPE   C3313784   1.560  -0.046   4.226 -0.7953  0.4762 -0.2729
  128SOPE   H3X13785   1.474  -0.116   4.225  0.3534 -0.9734 -0.2835
  128SOPE   H3Y13786   1.511   0.053   4.243 -0.9778  0.4649 -0.7239
  128SOPE   C3413787   1.659  -0.089   4.339 -0.2254  0.3356  0.0463
  128SOPE   H4X13788   1.729  -0.008   4.370  1.0793 -0.6428 -0.2561
  128SOPE   H4Y13789   1.718  -0.170   4.291  0.3953  1.4292 -1.1175
  128SOPE   C3513790   1.583  -0.141   4.459  0.1666  0.4464 -0.0022
  128SOPE   H5X13791   1.534  -0.236   4.427  0.1857 -0.3061  2.0902
  128SOPE   H5Y13792   1.500  -0.082   4.503 -0.3854  0.2805 -0.7887
  128SOPE   C3613793   1.679  -0.193   4.578 -0.2196 -0.6453  0.1749
  128SOPE   H6X13794   1.627  -0.207   4.675  0.3215 -1.0546  0.4101
  128SOPE   H6Y13795   1.747  -0.108   4.602 -1.3683 -0.0702  1.6104
  128SOPE   C3713796   1.756  -0.325   4.547 -0.0220 -0.3141  0.5118
  128SOPE   H7X13797   1.811  -0.309   4.452 -0.7728  1.2102  0.3117
  128SOPE   H7Y13798   1.667  -0.391   4.531 -0.6176  0.4829  0.5022
  128SOPE   C3813799   1.847  -0.381   4.655 -0.1763  0.3853 -0.0128
  128SOPE   H8X13800   1.879  -0.298   4.722  0.3122  0.8487 -0.8074
  128SOPE   H8Y13801   1.926  -0.440   4.604 -0.9564  0.1474 -0.9568
  128SOPE   C3913802   1.766  -0.490   4.738 -0.8236  0.1389  0.3199
  128SOPE   H9X13803   1.726  -0.576   4.682 -0.4759 -1.1255  1.9246
  128SOPE   H9Y13804   1.678  -0.439   4.783 -1.0875 -1.1007  1.2566
  128SOPE  C31013805   1.847  -0.543   4.851  0.3801 -0.5448 -0.2779
  128SOPE  H10X13806   1.784  -0.579   4.935  0.8680 -1.4782 -0.2963
  128SOPE  H10Y13807   1.915  -0.461   4.883  0.4705 -1.1028  1.0215
  128SOPE  C31113808   1.929  -0.665   4.818 -0.6200 -0.3972 -0.6158
  128SOPE  H11X13809   2.008  -0.646   4.743 -0.3228  1.7599  0.1589
  128SOPE  H11Y13810   1.868  -0.751   4.784 -1.1511  1.3104 -4.5344
  128SOPE  C31213811   2.007  -0.730   4.936  0.1820 -0.6115 -0.8434
  128SOPE  H12X13812   2.022  -0.837   4.910 -1.5304 -1.4284  1.2655
  128SOPE  H12Y13813   1.949  -0.726   5.030 -1.9948 -3.8711 -1.8878
  128SOPE  C31313814   2.144  -0.661   4.956 -0.3429  1.0896  0.3113
  128SOPE  H13X13815   2.128  -0.560   4.999 -0.8026  1.2296 -0.1798
  128SOPE  H13Y13816   2.196  -0.651   4.858  0.7265  0.6245  0.8157
  128SOPE  C31413817   2.235  -0.739   5.061 -0.2461 -0.4537  0.8517
  128SOPE  H14X13818   2.273  -0.834   5.017 -0.4419  0.4695 -1.4424
  128SOPE  H14Y13819   2.168  -0.772   5.144 -0.7875 -1.1620  0.1542
  128SOPE  C31513820   2.356  -0.658   5.117 -0.7745  0.1957 -0.8189
  128SOPE  H15X13821   2.316  -0.561   5.154 -0.2692 -0.0253  0.3649
  128SOPE  H15Y13822   2.414  -0.641   5.024 -1.9280 -0.1482 -1.6161
  128SOPE  C31613823   2.443  -0.733   5.222  0.1145 -0.0330 -0.1129
  128SOPE  H16X13824   2.443  -0.841   5.197  1.1004  0.1838 -1.0938
  128SOPE  H16Y13825   2.420  -0.713   5.329 -0.2598  1.2527 -0.4066
  128SOPE  C31713826   2.593  -0.689   5.211  0.4579 -0.2086 -0.4293
  128SOPE  H17X13827   2.614  -0.690   5.102 -0.5952 -0.7353 -0.6481
  128SOPE  H17Y13828   2.657  -0.758   5.270  0.8231  0.4507 -0.0473
  128SOPE  C31813829   2.603  -0.545   5.266 -0.4645  0.1710 -0.1139
  128SOPE  H18X13830   2.705  -0.507   5.244 -0.3812  0.5792  0.9141
  128SOPE  H18Y13831   2.568  -0.540   5.372  1.8149 -0.1265  0.7141
  128SOPE  H18Z13832   2.525  -0.485   5.214 -0.2317 -0.8286 -1.6721
  129OSM      N13833   5.253   6.216   7.303  0.4613 -0.1767  0.3014
  129OSM    C1513834   5.293   6.310   7.413  0.2986  0.2000 -0.3101
  129OSM   H15A13835   5.205   6.335   7.470 -0.9720 -0.2105 -2.0119
  129OSM   H15B13836   5.349   6.400   7.394  0.4890  0.3149  0.7553
  129OSM   H15C13837   5.345   6.258   7.492 -0.7020 -0.4678 -0.0703
  129OSM    C1413838   5.137   6.276   7.228  0.3175  0.8889  0.4633
  129OSM   H14A13839   5.096   6.212   7.151 -0.7559  1.0129  0.9189
  129OSM   H14B13840   5.160   6.366   7.172  1.6187 -0.6842 -1.7410
  129OSM   H14C13841   5.057   6.297   7.297  0.9403  0.2042  1.4046
  129OSM    C1313842   5.371   6.195   7.209 -0.2874  0.6488 -0.6565
  129OSM   H13A13843   5.352   6.148   7.114  1.1260 -1.0669 -0.1438
  129OSM   H13B13844   5.446   6.134   7.257 -0.9995 -0.8620 -1.3748
  129OSM   H13C13845   5.414   6.290   7.182  1.6342 -0.3761 -1.3654
  129OSM    C1213846   5.205   6.083   7.373 -0.6421  0.9581  0.3281
  129OSM   H12A13847   5.127   6.100   7.446  0.2969  0.7346  1.4241
  129OSM   H12B13848   5.295   6.045   7.419  0.5567  1.8582 -1.1868
  129OSM    C1113849   5.159   5.968   7.282  0.9400  0.2962  0.2271
  129OSM   H11A13850   5.132   5.871   7.327 -0.3071  0.3193 -0.4218
  129OSM   H11B13851   5.246   5.945   7.217  1.1123  0.6115  0.3445
  129OSM      P13852   4.897   6.017   7.277  0.3845  0.0118 -0.1582
  129OSM    O1313853   4.913   5.983   7.423  0.2244 -1.0238 -0.9903
  129OSM    O1413854   4.836   6.149   7.248 -0.7237 -0.0685  0.7428
  129OSM    O1113855   4.803   5.897   7.213  0.1841 -0.0557 -0.1796
  129OSM    O1213856   5.038   6.005   7.208 -0.2418 -0.4069 -0.0285
  129OSM    C1S13857   4.788   5.897   7.069 -0.9148 -0.2107 -0.3431
  129OSM    H1S13858   4.819   5.995   7.026  0.5751 -0.3105  0.4035
  129OSM    H1T13859   4.686   5.872   7.034 -0.2751 -1.6716 -1.2627
  129OSM     NF13860   4.837   5.773   6.865  0.4083 -0.4771  0.2478
  129OSM    HNF13861   4.750   5.731   6.838  1.2620 -2.1796  0.0281
  129OSM    C2S13862   4.874   5.788   7.000 -0.4776 -0.3639  0.4188
  129OSM    H2S13863   4.978   5.828   6.994 -1.9794  3.7805 -1.6258
  129OSM    C3S13864   4.854   5.647   7.072  0.4580  0.1268  0.5364
  129OSM    H3S13865   4.747   5.623   7.054  0.1827  0.9991  0.9367
  129OSM     O313866   4.873   5.650   7.212  0.1029 -0.2496 -0.3180
  129OSM    HO313867   4.855   5.741   7.235 -1.0309 -0.5902  0.2405
  129OSM    C4S13868   4.939   5.527   7.020  0.8158 -0.2297 -0.1967
  129OSM    H4S13869   5.047   5.536   7.039  1.3227 -0.6332 -2.5532
  129OSM    C5S13870   4.895   5.414   6.960  0.3493  0.6412 -0.2013
  129OSM    H5S13871   4.790   5.404   6.931  0.4027 -1.2804  0.1588
  129OSM    C6S13872   4.974   5.295   6.922  0.0787 -0.2436  0.3486
  129OSM    H6S13873   4.966   5.227   7.009  2.0546 -0.5946  0.3201
  129OSM    H6T13874   5.082   5.317   6.906 -0.2443  0.9646 -0.3491
  129OSM    C7S13875   4.923   5.230   6.794  0.2561  0.6936 -0.5698
  129OSM    H7S13876   4.932   5.291   6.702 -2.7158  2.2995  0.0685
  129OSM    H7T13877   4.816   5.210   6.815  0.6310 -1.4653 -0.5385
  129OSM    C8S13878   4.983   5.086   6.763 -0.1696  0.4128  0.1894
  129OSM    H8S13879   4.944   5.050   6.665  0.0022  1.1203 -0.1470
  129OSM    H8T13880   4.950   5.026   6.851  2.2127 -0.0659  0.8269
  129OSM    C9S13881   5.132   5.076   6.747  0.2236 -0.3033 -0.4575
  129OSM    H9S13882   5.186   5.094   6.843  2.3675  0.4114 -1.7187
  129OSM    H9T13883   5.155   5.161   6.680 -1.2331  0.5648  0.1050
  129OSM   C10S13884   5.187   4.949   6.668 -0.5216  0.0982 -0.0904
  129OSM   H10S13885   5.170   4.866   6.741 -1.6342 -1.2796 -1.8406
  129OSM   H10T13886   5.297   4.953   6.653 -0.3089  2.2063  1.5772
  129OSM   C11S13887   5.114   4.929   6.535 -0.2879 -0.1700 -0.3698
  129OSM   H11S13888   5.010   4.895   6.555  0.0684  0.0442  2.1620
  129OSM   H11T13889   5.168   4.852   6.476 -0.6238  0.9802 -2.2388
  129OSM   C12S13890   5.118   5.058   6.447  0.4309  0.5370  0.0303
  129OSM   H12S13891   5.225   5.088   6.444  0.3387  0.9949  1.1451
  129OSM   H12T13892   5.049   5.139   6.480 -2.4204 -1.6382 -0.1762
  129OSM   C13S13893   5.088   5.018   6.300  0.2185  0.2829  0.3775
  129OSM   H13S13894   5.157   4.940   6.259 -1.8825 -0.7536 -1.3667
  129OSM   H13T13895   5.109   5.110   6.241 -0.6275  0.5760  0.5177
  129OSM   C14S13896   4.950   4.962   6.280 -0.2556 -0.0999 -0.3896
  129OSM   H14S13897   4.865   5.028   6.304 -0.5749 -0.7019  0.1650
  129OSM   H14T13898   4.941   4.868   6.340 -0.0453 -1.2591 -2.1138
  129OSM   C15S13899   4.938   4.915   6.130 -0.3257 -0.6740  0.3063
  129OSM   H15S13900   4.845   4.854   6.132 -0.6899 -0.1402  0.0473
  129OSM   H15T13901   5.017   4.842   6.103  1.0759  1.3402 -1.3842
  129OSM   C16S13902   4.917   5.028   6.025  0.2156  0.1482  0.0370
  129OSM   H16S13903   5.020   5.055   5.993  1.4513 -2.0146  1.8605
  129OSM   H16T13904   4.879   5.116   6.081 -0.4440  0.2581 -0.5751
  129OSM   C17S13905   4.835   4.983   5.893 -0.8382  0.2530 -0.5617
  129OSM   H17S13906   4.739   4.937   5.923 -0.1689  0.0249  1.3659
  129OSM   H17T13907   4.893   4.902   5.844 -2.5031 -1.2558 -0.1326
  129OSM   C18S13908   4.807   5.100   5.801 -0.8257 -0.4841  0.1963
  129OSM   H18S13909   4.759   5.182   5.858  2.7592  0.3129  2.3939
  129OSM   H18T13910   4.749   5.063   5.713 -1.3291  1.4188 -0.3318
  129OSM   H18U13911   4.904   5.139   5.764 -0.8449  1.2090  1.8228
  129OSM    C1F13912   4.871   5.871   6.775 -0.1897 -0.1064 -0.3394
  129OSM     OF13913   4.954   5.954   6.803  0.1657 -0.1283  0.1594
  129OSM    C2F13914   4.799   5.885   6.644 -0.4620  0.0129  0.3300
  129OSM    H2F13915   4.847   5.971   6.593 -0.7208  0.6234  1.0985
  129OSM    H2G13916   4.692   5.908   6.665 -0.6482 -2.3039  2.4355
  129OSM    C3F13917   4.808   5.758   6.563  0.0877  0.2699  0.2393
  129OSM    H3F13918   4.724   5.752   6.491  0.2235  0.6091  0.0481
  129OSM    H3G13919   4.796   5.671   6.631  1.6244  0.5078  0.8550
  129OSM    C4F13920   4.932   5.739   6.481 -0.3270  0.0601 -1.0482
  129OSM    H4F13921   4.908   5.650   6.419  0.1646 -0.2999 -0.7362
  129OSM    H4G13922   5.005   5.717   6.562 -2.3665  0.2772  0.9710
  129OSM    C5F13923   4.982   5.853   6.390  0.5292 -0.3734  0.1958
  129OSM    H5F13924   5.080   5.824   6.346 -0.2031 -1.2172 -0.9234
  129OSM    H5G13925   5.004   5.940   6.455  0.2668 -0.3741  0.2848
  129OSM    C6F13926   4.872   5.887   6.292  0.3567  0.0508 -0.3572
  129OSM    H6F13927   4.804   5.947   6.355 -0.0338 -0.2489 -0.4920
  129OSM    H6G13928   4.823   5.796   6.252 -0.3786  1.1715 -2.1302
  129OSM    C7F13929   4.929   5.972   6.183  0.3564 -0.3590  0.0255
  129OSM    H7F13930   5.021   5.919   6.149 -0.0268  0.1064 -1.8709
  129OSM    H7G13931   4.951   6.074   6.221  1.5974 -0.9050  0.8345
  129OSM    C8F13932   4.826   6.001   6.068  0.1240  0.2044  1.1070
  129OSM    H8F13933   4.745   6.068   6.102  0.6808  1.1966  0.5244
  129OSM    H8G13934   4.785   5.899   6.049  3.3714 -0.9007 -0.7484
  129OSM    C9F13935   4.889   6.051   5.942  0.5178 -0.9522  0.2119
  129OSM    H9F13936   4.985   6.010   5.908  0.8472  0.4684 -0.6420
  129OSM   C10F13937   4.835   6.152   5.861 -0.3514  0.7014  0.1577
  129OSM   H10F13938   4.892   6.184   5.773 -1.0319  1.2596 -0.0873
  129OSM   C11F13939   4.713   6.238   5.874  0.2028 -0.2936  0.3064
  129OSM   H11F13940   4.744   6.345   5.872 -1.2367  0.1411  0.6197
  129OSM   H11G13941   4.673   6.210   5.973  1.3880  1.2594  1.2713
  129OSM   C12F13942   4.600   6.210   5.770 -0.4107  0.0436 -0.2721
  129OSM   H12F13943   4.508   6.252   5.815 -0.5173  1.3382 -1.6098
  129OSM   H12G13944   4.594   6.099   5.766  0.2338 -0.0218  0.3787
  129OSM   C13F13945   4.629   6.270   5.629  0.0071 -0.1739  0.6692
  129OSM   H13F13946   4.729   6.237   5.592  1.3721 -0.3797  4.2010
  129OSM   H13G13947   4.635   6.380   5.638  1.5720 -0.0619 -1.0695
  129OSM   C14F13948   4.507   6.243   5.536 -0.2964 -0.2334  0.3983
  129OSM   H14F13949   4.418   6.246   5.601  0.1261 -1.2630  1.0443
  129OSM   H14G13950   4.530   6.143   5.495  0.6183  0.4858 -0.9475
  129OSM   C15F13951   4.471   6.351   5.428 -0.6538  0.0015  0.5427
  129OSM   H15F13952   4.557   6.364   5.358 -1.9984  0.0043 -1.1801
  129OSM   H15G13953   4.457   6.446   5.482 -0.3563 -0.0771  0.7634
  129OSM   C16F13954   4.347   6.312   5.341  0.3486 -0.1558 -0.3186
  129OSM   H16F13955   4.261   6.284   5.405  0.0337  2.9124  0.7636
  129OSM   H16G13956   4.374   6.221   5.283  0.8155  0.7606 -1.5983
  129OSM   C17F13957   4.315   6.420   5.236 -0.5760 -1.0567  0.1869
  129OSM   H17F13958   4.282   6.514   5.284  2.5272 -0.1834  0.8399
  129OSM   H17G13959   4.220   6.396   5.183  0.5122  1.8770 -3.4940
  129OSM   C18F13960   4.427   6.465   5.142  0.2942  0.1809 -0.0750
  129OSM   H18F13961   4.490   6.382   5.104  1.9127  1.7833 -0.9928
  129OSM   H18G13962   4.490   6.539   5.195 -0.1145  0.6808 -0.2697
  129OSM   H18H13963   4.381   6.517   5.055 -0.2118 -1.6297 -0.9373
  130OSM      N13964   6.317   1.201   7.340  0.5764 -0.3546 -0.4709
  130OSM    C1513965   6.208   1.169   7.241 -0.0578 -0.1459 -0.8811
  130OSM   H15A13966   6.108   1.182   7.281  0.3887  1.2715 -0.1209
  130OSM   H15B13967   6.206   1.067   7.206 -2.7026 -0.0567 -1.1459
  130OSM   H15C13968   6.218   1.233   7.154  3.8355 -2.0288 -2.0644
  130OSM    C1413969   6.322   1.351   7.360 -0.3765  0.3444 -0.0598
  130OSM   H14A13970   6.390   1.378   7.439 -0.7910 -0.3658  0.5561
  130OSM   H14B13971   6.228   1.376   7.406 -0.3140 -0.7866  0.7306
  130OSM   H14C13972   6.340   1.400   7.266  2.1890 -2.8271 -1.4249
  130OSM    C1313973   6.272   1.142   7.474 -0.4620 -0.2124 -0.5675
  130OSM   H13A13974   6.341   1.166   7.554 -1.8932  1.7514  0.1812
  130OSM   H13B13975   6.257   1.037   7.455  0.5788 -0.7125  1.1734
  130OSM   H13C13976   6.174   1.177   7.504 -0.5448  0.8302 -1.9416
  130OSM    C1213977   6.455   1.147   7.302  0.0174 -0.2592 -0.0672
  130OSM   H12A13978   6.523   1.168   7.383  0.9322  0.8623 -1.1084
  130OSM   H12B13979   6.487   1.204   7.216  0.9608  0.7212  0.9153
  130OSM    C1113980   6.465   0.999   7.270  0.0660 -0.4022 -0.1167
  130OSM   H11A13981   6.565   0.979   7.225  0.0687  2.6768 -1.7699
  130OSM   H11B13982   6.382   0.984   7.197  0.0146  1.2128 -0.4250
  130OSM      P13983   6.386   0.773   7.383 -0.0717 -0.3919  0.0107
  130OSM    O1313984   6.468   0.674   7.466 -0.3814 -0.6196 -0.1000
  130OSM    O1413985   6.242   0.782   7.405 -0.0160  0.3210 -0.1029
  130OSM    O1113986   6.406   0.747   7.227 -0.6672  0.2995  0.0377
  130OSM    O1213987   6.448   0.923   7.395 -0.4735 -0.1666  0.1577
  130OSM    C1S13988   6.512   0.663   7.185 -0.6192 -0.8917  0.4888
  130OSM    H1S13989   6.519   0.572   7.247  0.0653 -1.5981 -0.5974
  130OSM    H1T13990   6.600   0.730   7.193 -1.9855  1.4719 -2.0780
  130OSM     NF13991   6.594   0.506   7.011 -0.1661  0.0947 -0.2328
  130OSM    HNF13992   6.668   0.548   6.960 -3.5147  1.6629 -4.4216
  130OSM    C2S13993   6.504   0.615   7.034 -0.2511  0.0222  0.0703
  130OSM    H2S13994   6.400   0.579   7.031 -0.5413  0.7999  0.3666
  130OSM    C3S13995   6.530   0.744   6.948  0.1934  0.6509 -0.0811
  130OSM    H3S13996   6.633   0.766   6.985 -0.2448  0.1061  1.5637
  130OSM     O313997   6.454   0.856   6.974  0.4689 -0.0369  0.0200
  130OSM    HO313998   6.410   0.849   7.059 -0.6887 -0.0570 -0.5545
  130OSM    C4S13999   6.547   0.702   6.803 -0.1489 -0.0917 -0.4970
  130OSM    H4S14000   6.651   0.676   6.779  0.2301  0.6125  0.3350
  130OSM    C5S14001   6.454   0.712   6.705  0.2998  0.9256 -0.1421
  130OSM    H5S14002   6.356   0.757   6.725  1.0502  2.2444  0.7512
  130OSM    C6S14003   6.477   0.679   6.557 -0.1149 -0.6983  0.1557
  130OSM    H6S14004   6.481   0.781   6.511  1.4758 -0.5251  0.6280
  130OSM    H6T14005   6.391   0.620   6.517 -0.1159  0.0587 -1.0413
  130OSM    C7S14006   6.600   0.600   6.523 -0.9388  0.6327  0.6400
  130OSM    H7S14007   6.574   0.503   6.570 -0.4111  0.1232 -0.0925
  130OSM    H7T14008   6.696   0.637   6.564  0.1782 -0.2126 -1.0926
  130OSM    C8S14009   6.616   0.551   6.377 -0.3280  0.1925  0.4602
  130OSM    H8S14010   6.526   0.493   6.348  0.6594 -1.9857  1.5061
  130OSM    H8T14011   6.698   0.476   6.376  0.5188  0.9882 -3.1764
  130OSM    C9S14012   6.657   0.663   6.279 -0.1842  0.6322 -0.2885
  130OSM    H9S14013   6.752   0.712   6.311  0.4482 -1.3176  1.0020
  130OSM    H9T14014   6.580   0.743   6.278 -0.2050  0.6126 -0.2028
  130OSM   C10S14015   6.680   0.607   6.139  0.6964  0.6470  0.2654
  130OSM   H10S14016   6.587   0.561   6.099  0.9762 -1.7869  2.2128
  130OSM   H10T14017   6.742   0.517   6.156  1.4624  1.0307 -0.4159
  130OSM   C11S14018   6.743   0.695   6.035 -0.2679  0.0769 -0.0672
  130OSM   H11S14019   6.834   0.736   6.083  1.0998  0.8867 -3.1103
  130OSM   H11T14020   6.685   0.789   6.020  1.4194  1.3340  0.9785
  130OSM   C12S14021   6.777   0.614   5.904 -0.0927  0.7901  0.7089
  130OSM   H12S14022   6.702   0.540   5.870  0.1089  1.6115 -1.7405
  130OSM   H12T14023   6.867   0.555   5.932 -1.5245 -2.0741 -0.3355
  130OSM   C13S14024   6.821   0.706   5.792 -0.4652 -0.2353  0.0639
  130OSM   H13S14025   6.762   0.801   5.789 -2.0794 -1.1801  0.5371
  130OSM   H13T14026   6.822   0.646   5.699  1.3966  1.0073 -0.7832
  130OSM   C14S14027   6.973   0.739   5.817 -0.0337  0.0523 -0.5787
  130OSM   H14S14028   7.034   0.655   5.858  1.0413  1.5418  1.0234
  130OSM   H14T14029   6.972   0.832   5.879  0.8149 -0.0093 -0.4560
  130OSM   C15S14030   7.043   0.769   5.689 -0.4963 -0.1802  0.4563
  130OSM   H15S14031   6.982   0.843   5.632 -1.3847 -1.0390  0.2540
  130OSM   H15T14032   7.040   0.680   5.623  0.2580  0.3672 -0.3515
  130OSM   C16S14033   7.193   0.806   5.694  0.5449 -0.8654  0.1013
  130OSM   H16S14034   7.239   0.731   5.762 -0.3954  0.3665  2.1950
  130OSM   H16T14035   7.197   0.908   5.736  1.1228 -0.2810 -1.3308
  130OSM   C17S14036   7.269   0.802   5.556 -0.3855  0.7004  0.8130
  130OSM   H17S14037   7.230   0.726   5.485  2.8659 -0.3295 -0.0470
  130OSM   H17T14038   7.368   0.757   5.578  0.0863  0.6429 -1.2415
  130OSM   C18S14039   7.275   0.936   5.476 -0.4870  0.1887  1.1476
  130OSM   H18S14040   7.309   1.007   5.554  0.6295  0.5104  0.3804
  130OSM   H18T14041   7.169   0.946   5.446  0.2488  0.8875 -1.4177
  130OSM   H18U14042   7.347   0.948   5.392 -0.9256  1.7659  0.9754
  130OSM    C1F14043   6.574   0.379   7.056 -0.0214  0.5686 -0.3287
  130OSM     OF14044   6.487   0.356   7.138 -0.0762  0.2155  0.5204
  130OSM    C2F14045   6.668   0.275   7.008 -0.5491 -0.0857  0.4837
  130OSM    H2F14046   6.722   0.236   7.096  0.0240  0.0983  0.2169
  130OSM    H2G14047   6.737   0.330   6.940 -0.2325 -0.3844  0.5650
  130OSM    C3F14048   6.602   0.157   6.934  0.3721 -0.6104 -0.7559
  130OSM    H3F14049   6.507   0.121   6.979  1.6397 -1.0429  1.8037
  130OSM    H3G14050   6.678   0.076   6.935  1.3200  0.2543 -0.3157
  130OSM    C4F14051   6.567   0.182   6.787 -0.3772 -0.0283  0.1837
  130OSM    H4F14052   6.652   0.239   6.745 -1.1720  0.0269 -1.4358
  130OSM    H4G14053   6.475   0.242   6.766 -1.4192 -1.4436  0.5491
  130OSM    C5F14054   6.564   0.045   6.710  0.5225 -0.4566  1.2589
  130OSM    H5F14055   6.473  -0.014   6.734  2.1507 -2.3305  3.3266
  130OSM    H5G14056   6.644  -0.022   6.748  1.4749  0.9131  1.7451
  130OSM    C6F14057   6.568   0.071   6.557 -0.0029  0.4589 -0.3390
  130OSM    H6F14058   6.559  -0.025   6.500 -0.4163  0.5259 -0.3856
  130OSM    H6G14059   6.665   0.119   6.529  1.3951 -0.3443  2.6895
  130OSM    C7F14060   6.453   0.161   6.515  0.4073  0.5645 -0.5810
  130OSM    H7F14061   6.462   0.259   6.567  3.0838 -0.4437  1.0246
  130OSM    H7G14062   6.356   0.114   6.542  0.7026 -0.2306 -0.8705
  130OSM    C8F14063   6.444   0.190   6.355 -0.0319 -0.4540  0.1333
  130OSM    H8F14064   6.537   0.237   6.320 -0.6385 -0.6564 -1.8681
  130OSM    H8G14065   6.375   0.277   6.350  1.2573  0.7885  2.3189
  130OSM    C9F14066   6.401   0.075   6.271 -0.1381  0.0123  0.1993
  130OSM    H9F14067   6.295   0.049   6.289 -0.3114  0.4439 -0.1558
  130OSM   C10F14068   6.477  -0.003   6.194 -0.1348 -0.8981 -0.3852
  130OSM   H10F14069   6.427  -0.086   6.143 -0.4346 -2.6644  2.5458
  130OSM   C11F14070   6.621   0.022   6.158 -0.1981  0.2147  0.0520
  130OSM   H11F14071   6.671   0.103   6.215  2.0685 -2.7520  2.6439
  130OSM   H11G14072   6.619   0.057   6.052  0.5982  1.6798  0.4893
  130OSM   C12F14073   6.713  -0.105   6.165  0.1144 -0.5840 -0.1604
  130OSM   H12F14074   6.814  -0.087   6.122  0.6364  2.0497  1.8429
  130OSM   H12G14075   6.661  -0.181   6.104 -1.2772  0.7927 -0.7769
  130OSM   C13F14076   6.726  -0.152   6.303 -0.4870 -0.4156 -0.0240
  130OSM   H13F14077   6.622  -0.157   6.343 -1.3806 -1.8754 -2.3004
  130OSM   H13G14078   6.786  -0.080   6.362 -0.2016  0.1005 -0.9353
  130OSM   C14F14079   6.794  -0.287   6.309  0.4074  0.1815 -0.5209
  130OSM   H14F14080   6.893  -0.292   6.259  0.1493 -0.2912 -0.9828
  130OSM   H14G14081   6.735  -0.370   6.265  0.5189 -0.4172  0.4247
  130OSM   C15F14082   6.828  -0.326   6.458 -0.2817 -0.5430  0.3093
  130OSM   H15F14083   6.741  -0.366   6.515  1.3817 -1.8956  1.9953
  130OSM   H15G14084   6.856  -0.227   6.499  1.7275 -0.9386 -0.0011
  130OSM   C16F14085   6.959  -0.405   6.478  0.5349 -0.1599 -1.1194
  130OSM   H16F14086   7.053  -0.349   6.461 -1.3757  4.2999  1.4158
  130OSM   H16G14087   6.949  -0.481   6.397 -0.3473  1.3433 -2.4849
  130OSM   C17F14088   6.951  -0.463   6.622 -0.1832  0.7206  0.7397
  130OSM   H17F14089   7.039  -0.526   6.646 -1.2682 -0.0997  2.8074
  130OSM   H17G14090   6.863  -0.527   6.644  0.2319  0.5611  2.0318
  130OSM   C18F14091   6.933  -0.366   6.735  0.5347 -0.3575  0.3887
  130OSM   H18F14092   6.845  -0.299   6.729  0.3428 -0.5466  0.9916
  130OSM   H18G14093   7.017  -0.293   6.736 -1.0530  1.5727 -0.9942
  130OSM   H18H14094   6.927  -0.419   6.833 -1.8848  1.1072  1.1042
  131OSM      N14095   3.526   5.556   7.511  0.0617 -0.3327 -0.2217
  131OSM    C1514096   3.416   5.452   7.528 -0.7504 -0.0570  0.2607
  131OSM   H15A14097   3.327   5.497   7.568 -0.7290  0.6764 -0.4961
  131OSM   H15B14098   3.448   5.365   7.583  0.6018  1.1881  1.5206
  131OSM   H15C14099   3.392   5.401   7.436  0.2106 -1.9456  1.0044
  131OSM    C1414100   3.473   5.662   7.432 -0.2508  0.4330  0.2331
  131OSM   H14A14101   3.533   5.751   7.423  0.1445  0.1322 -0.1333
  131OSM   H14B14102   3.376   5.692   7.469  0.1585  3.1039 -0.6145
  131OSM   H14C14103   3.464   5.617   7.334  2.7978  0.9059 -0.3533
  131OSM    C1314104   3.559   5.621   7.648  0.0255 -0.0946 -0.6396
  131OSM   H13A14105   3.593   5.544   7.715  0.2554  1.1691  0.7400
  131OSM   H13B14106   3.475   5.681   7.678  2.5396  3.7546 -0.4962
  131OSM   H13C14107   3.640   5.692   7.638 -1.1050  1.3428  0.0254
  131OSM    C1214108   3.648   5.502   7.446  0.1654 -0.5165 -0.7220
  131OSM   H12A14109   3.715   5.586   7.444 -2.9640  2.2438  0.9596
  131OSM   H12B14110   3.621   5.481   7.343 -3.3334  0.0848 -0.0317
  131OSM    C1114111   3.712   5.377   7.507  0.5511 -0.3152 -0.0218
  131OSM   H11A14112   3.726   5.404   7.613 -2.2902 -1.9680  0.8881
  131OSM   H11B14113   3.815   5.355   7.473  0.6410  0.3247 -0.1773
  131OSM      P14114   3.599   5.168   7.394 -0.1901 -0.3650  0.2885
  131OSM    O1314115   3.525   5.052   7.443 -0.1805 -0.0347 -0.4195
  131OSM    O1414116   3.534   5.246   7.287 -0.3164 -0.2185 -0.6631
  131OSM    O1114117   3.740   5.134   7.349  0.2114  0.2217 -0.6754
  131OSM    O1214118   3.624   5.269   7.516  0.5182  0.7026 -0.3233
  131OSM    C1S14119   3.774   5.041   7.247 -0.1630  0.0719 -0.4665
  131OSM    H1S14120   3.706   4.953   7.249  2.7388 -2.3504  1.5324
  131OSM    H1T14121   3.874   4.997   7.270 -1.5546 -2.3252  1.5867
  131OSM     NF14122   3.792   5.014   7.004  0.2691 -0.1690  0.3561
  131OSM    HNF14123   3.885   5.003   6.968 -0.4821  1.2495 -2.2484
  131OSM    C2S14124   3.786   5.114   7.109  0.7200 -0.0064  0.0466
  131OSM    H2S14125   3.693   5.172   7.093  0.5154 -0.0278  1.0583
  131OSM    C3S14126   3.906   5.213   7.112 -0.5599  0.1738 -0.0048
  131OSM    H3S14127   3.991   5.149   7.144 -0.7124 -0.7669 -1.3924
  131OSM     O314128   3.903   5.311   7.216 -0.0740  0.0980  0.3016
  131OSM    HO314129   3.844   5.270   7.280  0.9843 -1.5133  0.3158
  131OSM    C4S14130   3.929   5.282   6.976 -0.1144 -0.3050  0.2207
  131OSM    H4S14131   3.983   5.220   6.903  0.7890  0.5967  0.0890
  131OSM    C5S14132   3.909   5.412   6.940  0.1255  0.1705  0.1670
  131OSM    H5S14133   3.876   5.484   7.017 -1.1071 -1.4238  1.1832
  131OSM    C6S14134   3.942   5.471   6.805  0.7423 -0.1495 -0.2512
  131OSM    H6S14135   3.990   5.571   6.815 -0.5436  0.3150  1.9766
  131OSM    H6T14136   3.848   5.490   6.748  0.8774 -0.9250 -0.7530
  131OSM    C7S14137   4.028   5.393   6.706 -0.1057  0.3115  0.7093
  131OSM    H7S14138   3.993   5.289   6.690 -0.0433  0.6338 -1.9934
  131OSM    H7T14139   4.132   5.384   6.745 -0.2215 -1.6066  0.6451
  131OSM    C8S14140   4.034   5.457   6.566 -0.2662 -0.3963 -0.0291
  131OSM    H8S14141   4.024   5.568   6.563 -0.0999 -0.3860 -0.2214
  131OSM    H8T14142   3.942   5.417   6.518 -1.0964  0.6892  0.5845
  131OSM    C9S14143   4.146   5.409   6.476  0.0838 -0.1105 -0.6086
  131OSM    H9S14144   4.157   5.299   6.468  3.6689  0.2071 -1.8868
  131OSM    H9T14145   4.243   5.448   6.513 -1.1525  0.4957  2.2955
  131OSM   C10S14146   4.117   5.459   6.332  0.8697  0.4505  0.2018
  131OSM   H10S14147   4.128   5.570   6.329  0.3729  0.4868 -1.2611
  131OSM   H10T14148   4.009   5.433   6.327  1.1630 -1.7827  2.9238
  131OSM   C11S14149   4.189   5.379   6.218  0.1217  0.7801 -0.1411
  131OSM   H11S14150   4.156   5.401   6.115 -0.1524 -0.8711 -0.4457
  131OSM   H11T14151   4.174   5.269   6.206  0.9599  0.7505 -1.0470
  131OSM   C12S14152   4.347   5.388   6.219 -0.0399 -0.0826 -0.3916
  131OSM   H12S14153   4.382   5.341   6.313 -2.0752  0.0444  0.4920
  131OSM   H12T14154   4.374   5.496   6.214 -0.9376  0.1461 -0.5296
  131OSM   C13S14155   4.412   5.311   6.098  0.9096 -0.2574  0.3347
  131OSM   H13S14156   4.386   5.204   6.087  1.2481 -0.3443  0.3574
  131OSM   H13T14157   4.522   5.314   6.118  0.3810 -0.4722  4.0147
  131OSM   C14S14158   4.373   5.373   5.963 -0.2373 -0.0618  0.7058
  131OSM   H14S14159   4.377   5.484   5.967  1.0222 -0.0784  0.3945
  131OSM   H14T14160   4.273   5.331   5.941  1.3235 -1.5453 -5.7891
  131OSM   C15S14161   4.478   5.323   5.857  1.2410  0.0572 -0.0691
  131OSM   H15S14162   4.473   5.213   5.849  0.8386  0.0339  0.4476
  131OSM   H15T14163   4.581   5.348   5.892  0.9788 -0.7613  1.3700
  131OSM   C16S14164   4.454   5.389   5.718 -0.3625 -0.0816  0.1241
  131OSM   H16S14165   4.464   5.499   5.731  1.4320 -0.3990  2.1091
  131OSM   H16T14166   4.352   5.361   5.686  0.2335 -0.8733 -1.1430
  131OSM   C17S14167   4.548   5.346   5.606 -0.0758 -0.0585 -0.1479
  131OSM   H17S14168   4.547   5.236   5.589 -1.2604 -0.0009 -0.5780
  131OSM   H17T14169   4.649   5.364   5.646 -0.4276  3.7683 -0.5637
  131OSM   C18S14170   4.539   5.429   5.475  0.1080 -0.3535 -0.4714
  131OSM   H18S14171   4.442   5.428   5.421 -0.5361  0.7669  0.5931
  131OSM   H18T14172   4.618   5.398   5.403 -0.6633 -1.8033 -0.7206
  131OSM   H18U14173   4.545   5.537   5.500  0.0520 -0.5069  0.2083
  131OSM    C1F14174   3.697   4.927   6.973 -0.0243 -0.6779 -0.2623
  131OSM     OF14175   3.590   4.926   7.033 -0.3193  0.1212  0.1905
  131OSM    C2F14176   3.735   4.828   6.861  1.1574 -0.4860  0.2645
  131OSM    H2F14177   3.800   4.747   6.900  0.5856 -1.9580 -1.7163
  131OSM    H2G14178   3.793   4.886   6.786  2.0868 -3.7581 -1.7317
  131OSM    C3F14179   3.605   4.769   6.808 -0.1163  0.3268 -0.0383
  131OSM    H3F14180   3.536   4.848   6.772 -0.2653 -0.2182 -0.9954
  131OSM    H3G14181   3.565   4.710   6.894 -0.1140 -0.5923 -0.6512
  131OSM    C4F14182   3.617   4.667   6.694  0.5881 -0.6294  0.4420
  131OSM    H4F14183   3.535   4.592   6.702  0.9480 -1.2475 -1.3258
  131OSM    H4G14184   3.717   4.620   6.686  0.9452  0.2723 -0.6796
  131OSM    C5F14185   3.608   4.739   6.558 -0.1364 -0.6636  0.0015
  131OSM    H5F14186   3.694   4.807   6.545 -0.2471 -0.8143 -1.7588
  131OSM    H5G14187   3.525   4.813   6.551  0.7548  0.2995 -0.6977
  131OSM    C6F14188   3.622   4.647   6.431 -0.0250  0.2920 -0.6977
  131OSM    H6F14189   3.522   4.600   6.420 -0.5655  1.2657 -0.0511
  131OSM    H6G14190   3.701   4.570   6.447  0.2711  0.5521 -0.9071
  131OSM    C7F14191   3.660   4.719   6.302  0.4607 -0.9106  0.7479
  131OSM    H7F14192   3.755   4.766   6.334  0.5157  0.0297 -0.7164
  131OSM    H7G14193   3.577   4.790   6.282  0.3658 -0.0512  3.7571
  131OSM    C8F14194   3.663   4.624   6.181  0.2968  0.3292 -0.0271
  131OSM    H8F14195   3.556   4.603   6.162  0.8147  0.1346 -3.3267
  131OSM    H8G14196   3.721   4.533   6.209  0.2442 -0.0586 -1.1200
  131OSM    C9F14197   3.724   4.699   6.064  0.0450 -0.1197 -0.4329
  131OSM    H9F14198   3.817   4.751   6.091  2.4996 -4.1123 -0.3134
  131OSM   C10F14199   3.688   4.690   5.937 -0.0148 -0.2708 -0.6909
  131OSM   H10F14200   3.737   4.749   5.858 -0.3431  0.2982 -0.4703
  131OSM   C11F14201   3.588   4.600   5.873  0.0055  0.5275  0.0392
  131OSM   H11F14202   3.534   4.542   5.951 -0.5083  1.4636  0.3912
  131OSM   H11G14203   3.647   4.521   5.823 -0.2143  0.6252 -0.3836
  131OSM   C12F14204   3.474   4.675   5.795  0.5452  0.6378  0.0363
  131OSM   H12F14205   3.442   4.767   5.849 -1.2334  0.5791 -0.8662
  131OSM   H12G14206   3.382   4.614   5.785 -0.8254  2.6936 -0.4617
  131OSM   C13F14207   3.518   4.709   5.652 -0.1715 -0.0556 -0.2196
  131OSM   H13F14208   3.535   4.613   5.600 -0.6020 -0.6732  0.7459
  131OSM   H13G14209   3.611   4.769   5.644 -0.9645  1.2528 -0.0151
  131OSM   C14F14210   3.406   4.772   5.575  0.6851 -0.0313  0.0651
  131OSM   H14F14211   3.394   4.880   5.597  3.0788  0.0044  1.5943
  131OSM   H14G14212   3.314   4.711   5.588  0.1739  0.8071  0.4901
  131OSM   C15F14213   3.432   4.765   5.426 -0.1535  0.1879 -0.5173
  131OSM   H15F14214   3.440   4.657   5.402  2.7273  0.0464  0.6917
  131OSM   H15G14215   3.530   4.806   5.391  0.8675  1.9295  3.7800
  131OSM   C16F14216   3.320   4.820   5.337  0.2711  0.2700  0.8860
  131OSM   H16F14217   3.300   4.928   5.355 -0.4718  0.5946 -1.5473
  131OSM   H16G14218   3.225   4.776   5.376 -1.6252  1.4612 -1.9993
  131OSM   C17F14219   3.324   4.759   5.193  0.2597 -0.8210  0.0491
  131OSM   H17F14220   3.342   4.650   5.199 -1.2382 -1.0123  2.0706
  131OSM   H17G14221   3.409   4.800   5.135  0.1664 -3.6002 -2.2591
  131OSM   C18F14222   3.199   4.794   5.112 -0.2444 -0.4469  0.5994
  131OSM   H18F14223   3.206   4.758   5.007 -3.3303 -2.1039  0.8371
  131OSM   H18G14224   3.163   4.899   5.108 -2.4197 -1.1621 -1.4389
  131OSM   H18H14225   3.111   4.741   5.155 -0.2367 -0.2155  0.8996
  132OSM      N14226   4.839   6.483   7.672 -0.2999  0.0648 -0.8694
  132OSM    C1514227   4.715   6.564   7.656 -0.1191 -0.0576 -0.2995
  132OSM   H15A14228   4.690   6.559   7.551  1.4500 -2.4283 -0.6272
  132OSM   H15B14229   4.730   6.667   7.682  0.8565 -0.4334  0.7093
  132OSM   H15C14230   4.633   6.523   7.714  0.6581 -0.6491  0.4172
  132OSM    C1414231   4.906   6.526   7.804  0.0677  0.9163 -0.0951
  132OSM   H14A14232   4.985   6.455   7.824  0.5469  1.2713 -0.6908
  132OSM   H14B14233   4.835   6.533   7.885 -3.0054  0.7833 -2.5636
  132OSM   H14C14234   4.955   6.622   7.799  0.5137  0.7783  1.2917
  132OSM    C1314235   4.811   6.342   7.674  0.0218  0.5732  0.5008
  132OSM   H13A14236   4.730   6.314   7.740 -0.6766  0.1509 -0.5128
  132OSM   H13B14237   4.903   6.289   7.694 -1.1772 -2.7793 -1.9715
  132OSM   H13C14238   4.781   6.305   7.577  2.1571  0.1457 -0.0536
  132OSM    C1214239   4.931   6.519   7.561 -0.7882  0.0941 -0.0969
  132OSM   H12A14240   5.029   6.485   7.589 -1.7383 -0.9614  2.2881
  132OSM   H12B14241   4.939   6.627   7.553  0.1571  0.0868  0.6017
  132OSM    C1114242   4.899   6.468   7.419  0.4341 -0.5450 -0.3291
  132OSM   H11A14243   4.881   6.359   7.408 -0.2455 -0.3348 -1.3803
  132OSM   H11B14244   4.986   6.492   7.354 -1.0254 -1.5049 -2.7636
  132OSM      P14245   4.787   6.664   7.298  0.1632  0.3871  0.1588
  132OSM    O1314246   4.668   6.684   7.212  0.2986 -0.2799 -0.3212
  132OSM    O1414247   4.829   6.774   7.388  0.1971  0.6486 -0.2796
  132OSM    O1114248   4.897   6.641   7.193 -1.0511 -0.0450  0.7764
  132OSM    O1214249   4.776   6.530   7.374 -0.1006  0.0748 -0.3190
  132OSM    C1S14250   4.885   6.556   7.075  0.2990  0.2778  0.1527
  132OSM    H1S14251   4.781   6.557   7.036 -0.2052  0.4830  1.4761
  132OSM    H1T14252   4.926   6.455   7.096  1.3088  0.0846 -2.3168
  132OSM     NF14253   4.951   6.555   6.830 -0.7073 -0.1289  0.3669
  132OSM    HNF14254   5.025   6.494   6.806  1.2429  1.4456  1.9720
  132OSM    C2S14255   4.984   6.612   6.959  0.6868  0.3026  0.1608
  132OSM    H2S14256   4.958   6.719   6.945 -0.5750  0.1214  0.9303
  132OSM    C3S14257   5.124   6.597   7.008 -0.6252 -0.1496  0.2004
  132OSM    H3S14258   5.161   6.492   7.003  3.1393  1.0556 -3.0898
  132OSM     O314259   5.142   6.616   7.146 -0.4690  0.1711  0.5520
  132OSM    HO314260   5.051   6.601   7.173 -0.4147  0.6003  0.9942
  132OSM    C4S14261   5.221   6.681   6.928 -0.5431 -0.2141 -0.0957
  132OSM    H4S14262   5.190   6.786   6.921 -1.0084 -0.3181  0.3116
  132OSM    C5S14263   5.322   6.642   6.851 -0.3795 -0.5706  0.1270
  132OSM    H5S14264   5.335   6.536   6.822  0.3647 -0.2118 -0.9321
  132OSM    C6S14265   5.403   6.735   6.771 -0.1685 -0.2175 -0.2710
  132OSM    H6S14266   5.452   6.808   6.839  1.8128 -1.1069 -0.6628
  132OSM    H6T14267   5.333   6.791   6.706 -0.7722 -0.7907 -0.1196
  132OSM    C7S14268   5.510   6.671   6.674 -0.0427 -0.3687 -0.0157
  132OSM    H7S14269   5.583   6.633   6.749  0.1194  1.4015  0.7705
  132OSM    H7T14270   5.554   6.752   6.613  0.7306 -0.2587  0.6705
  132OSM    C8S14271   5.454   6.565   6.584  0.4344 -0.0171  0.5003
  132OSM    H8S14272   5.362   6.603   6.533  0.0813 -0.1612  1.0244
  132OSM    H8T14273   5.426   6.469   6.631 -1.4129  0.3214  0.1845
  132OSM    C9S14274   5.541   6.521   6.478 -1.1414 -0.3662  0.0305
  132OSM    H9S14275   5.501   6.428   6.433 -1.1361 -0.8901  1.0685
  132OSM    H9T14276   5.635   6.486   6.526 -0.5593  1.5289  0.3988
  132OSM   C10S14277   5.585   6.625   6.366  0.0351  0.9328  0.0097
  132OSM   H10S14278   5.649   6.566   6.297  0.7297  0.6588  0.8648
  132OSM   H10T14279   5.652   6.700   6.412  2.4456 -0.0268 -1.7187
  132OSM   C11S14280   5.474   6.696   6.295 -0.3919 -0.3587 -0.2368
  132OSM   H11S14281   5.510   6.786   6.239 -2.5158  1.7647  1.5816
  132OSM   H11T14282   5.400   6.743   6.363 -2.2445 -2.3894 -0.7736
  132OSM   C12S14283   5.398   6.599   6.204  0.3781 -0.3474 -0.0628
  132OSM   H12S14284   5.296   6.641   6.186 -0.3307 -1.1110  1.8734
  132OSM   H12T14285   5.367   6.520   6.276  0.6896  2.1802  3.0936
  132OSM   C13S14286   5.471   6.570   6.074 -0.3804  0.5900 -0.6060
  132OSM   H13S14287   5.521   6.471   6.081 -0.3558  0.6367 -0.0775
  132OSM   H13T14288   5.556   6.641   6.072  0.0381  0.3123  2.2188
  132OSM   C14S14289   5.382   6.577   5.945  0.4531  0.1118  0.1705
  132OSM   H14S14290   5.362   6.685   5.927  0.3583 -0.0485 -0.6876
  132OSM   H14T14291   5.294   6.511   5.955  0.7250 -0.1456  0.9708
  132OSM   C15S14292   5.462   6.523   5.824 -0.0138  0.1201 -0.1490
  132OSM   H15S14293   5.506   6.425   5.853  2.4381  0.4749 -2.2945
  132OSM   H15T14294   5.546   6.589   5.795 -1.5047  2.2768  0.2225
  132OSM   C16S14295   5.380   6.532   5.694  0.1199  0.1833 -0.8892
  132OSM   H16S14296   5.276   6.496   5.709  0.4439 -0.7430 -0.8238
  132OSM   H16T14297   5.426   6.460   5.623 -0.0959 -1.4776  0.5856
  132OSM   C17S14298   5.384   6.671   5.637  0.8134 -0.0902 -0.1130
  132OSM   H17S14299   5.488   6.705   5.657  0.3888  1.0172  0.2775
  132OSM   H17T14300   5.313   6.741   5.687  0.2722 -0.2302 -0.6747
  132OSM   C18S14301   5.346   6.676   5.492 -0.2079  0.3596  0.4989
  132OSM   H18S14302   5.410   6.600   5.443  2.6836  3.3801 -0.8397
  132OSM   H18T14303   5.375   6.768   5.437 -0.4643  0.0656 -0.1376
  132OSM   H18U14304   5.242   6.650   5.463  0.0407  2.2504 -2.5613
  132OSM    C1F14305   4.842   6.570   6.759 -0.0370 -0.6375  0.0924
  132OSM     OF14306   4.750   6.644   6.788 -0.0745 -0.0748  0.1785
  132OSM    C2F14307   4.835   6.478   6.639 -0.4230 -1.1510 -0.1839
  132OSM    H2F14308   4.737   6.486   6.587  0.5037 -0.7186 -1.9550
  132OSM    H2G14309   4.851   6.373   6.672 -0.5258 -1.1718 -0.1987
  132OSM    C3F14310   4.941   6.512   6.527  0.4832  0.3006 -0.2649
  132OSM    H3F14311   5.033   6.521   6.590 -0.6170  0.2004  1.4358
  132OSM    H3G14312   4.918   6.612   6.486 -0.2497  0.6136  0.8569
  132OSM    C4F14313   4.969   6.411   6.414 -0.3870 -0.0013 -0.2701
  132OSM    H4F14314   5.045   6.337   6.447  0.9583  0.8722 -1.3091
  132OSM    H4G14315   5.014   6.456   6.323 -2.0974 -1.7190 -2.0823
  132OSM    C5F14316   4.839   6.346   6.346 -0.3662 -0.3013  0.3860
  132OSM    H5F14317   4.869   6.291   6.254  1.0503 -1.2046  1.3457
  132OSM    H5G14318   4.772   6.429   6.313 -1.4753 -0.5132  1.9697
  132OSM    C6F14319   4.765   6.239   6.428 -0.7072 -0.0616  0.6003
  132OSM    H6F14320   4.736   6.273   6.530 -1.9326 -1.4985  0.7593
  132OSM    H6G14321   4.835   6.153   6.429 -0.0375  0.4741  1.7560
  132OSM    C7F14322   4.628   6.204   6.359  0.5930 -0.1739  0.1193
  132OSM    H7F14323   4.640   6.173   6.253  0.1497  1.1115 -0.3283
  132OSM    H7G14324   4.566   6.296   6.353  1.2480  0.1793 -3.1408
  132OSM    C8F14325   4.545   6.094   6.426 -0.3845 -0.1059  0.1822
  132OSM    H8F14326   4.530   6.118   6.534  0.4850 -0.7526  0.4535
  132OSM    H8G14327   4.599   5.997   6.425 -0.2799 -0.0532  0.6017
  132OSM    C9F14328   4.413   6.073   6.364 -0.0288 -0.7082  0.1878
  132OSM    H9F14329   4.352   6.165   6.362  0.8277 -0.1355 -1.5088
  132OSM   C10F14330   4.369   5.958   6.311 -0.3705 -0.3445  0.1528
  132OSM   H10F14331   4.264   5.951   6.281 -1.8497 -0.1014  4.5370
  132OSM   C11F14332   4.441   5.822   6.306 -0.7899  0.7242 -0.0624
  132OSM   H11F14333   4.388   5.730   6.338 -0.0066  1.3985  3.6536
  132OSM   H11G14334   4.528   5.825   6.375 -1.5721  2.9129  0.9442
  132OSM   C12F14335   4.497   5.788   6.165  0.0394 -0.2262  0.8182
  132OSM   H12F14336   4.553   5.692   6.167 -0.2069 -0.4986 -1.7320
  132OSM   H12G14337   4.574   5.859   6.128 -1.3203  0.7264 -0.3087
  132OSM   C13F14338   4.394   5.779   6.049  0.3601  0.1402 -0.0404
  132OSM   H13F14339   4.334   5.872   6.048 -1.6496 -1.0951 -0.2351
  132OSM   H13G14340   4.325   5.692   6.055  0.9523 -0.3967 -0.7592
  132OSM   C14F14341   4.456   5.778   5.916  0.2541 -0.5270  0.0136
  132OSM   H14F14342   4.507   5.680   5.900 -0.4974 -0.7980 -0.8015
  132OSM   H14G14343   4.536   5.854   5.907  0.5570 -1.0170 -1.8748
  132OSM   C15F14344   4.368   5.821   5.796 -0.1345 -0.9273  0.1762
  132OSM   H15F14345   4.349   5.930   5.807 -2.5608 -1.4536  2.2458
  132OSM   H15G14346   4.268   5.773   5.805  0.6160 -2.5639  0.0216
  132OSM   C16F14347   4.433   5.805   5.654 -0.5121  0.3763  0.0221
  132OSM   H16F14348   4.408   5.700   5.628 -0.6969  0.6782 -1.0478
  132OSM   H16G14349   4.541   5.793   5.678 -0.7728 -3.1298 -0.0738
  132OSM   C17F14350   4.393   5.899   5.538  0.2287  0.0449 -0.6506
  132OSM   H17F14351   4.396   6.005   5.571  0.5052 -0.2147  0.1646
  132OSM   H17G14352   4.290   5.874   5.503  0.4551 -2.5040  0.2385
  132OSM   C18F14353   4.483   5.902   5.416 -0.4767 -0.4268 -0.2033
  132OSM   H18F14354   4.582   5.946   5.442 -0.4575 -0.7930  0.3565
  132OSM   H18G14355   4.442   5.960   5.330  2.0088  1.5036 -0.2094
  132OSM   H18H14356   4.506   5.801   5.376 -0.3376 -0.8375  0.8639
  133OSM      N14357   3.703   0.961   7.564 -0.2608  0.1300 -0.4097
  133OSM    C1514358   3.749   0.927   7.705 -0.4483 -0.5771 -0.2413
  133OSM   H15A14359   3.698   0.962   7.793  2.3542 -1.2858  1.7942
  133OSM   H15B14360   3.848   0.962   7.728 -1.1422  1.1001  0.4019
  133OSM   H15C14361   3.744   0.822   7.730  0.7554 -0.3479  1.0783
  133OSM    C1414362   3.553   0.938   7.559  0.7764 -0.0071 -0.2644
  133OSM   H14A14363   3.516   0.837   7.566  0.4044  0.0349 -1.3366
  133OSM   H14B14364   3.499   0.983   7.476 -3.0370 -3.1530  0.2057
  133OSM   H14C14365   3.517   1.003   7.637 -1.9087 -0.1097 -1.3114
  133OSM    C1314366   3.724   1.108   7.552 -0.4973 -0.0338  0.4927
  133OSM   H13A14367   3.822   1.142   7.522 -0.1296 -0.3892  1.2674
  133OSM   H13B14368   3.689   1.164   7.638  2.3893  2.2491  0.3362
  133OSM   H13C14369   3.649   1.147   7.484 -2.0237 -0.3161  1.9378
  133OSM    C1214370   3.786   0.888   7.454  0.1570 -0.5499  0.6636
  133OSM   H12A14371   3.738   0.902   7.358 -1.6449 -1.3675  1.4043
  133OSM   H12B14372   3.778   0.781   7.465 -0.9029 -0.5668 -0.1611
  133OSM    C1114373   3.937   0.914   7.447 -0.0013 -0.1188  0.8978
  133OSM   H11A14374   3.960   1.021   7.461  0.1078 -0.0709  0.3817
  133OSM   H11B14375   3.977   0.889   7.346 -1.2806 -0.6625  0.4975
  133OSM      P14376   4.025   0.681   7.554 -0.4522 -0.4958 -0.0423
  133OSM    O1314377   4.086   0.660   7.685 -0.1927 -0.3773 -0.0647
  133OSM    O1414378   3.899   0.611   7.520 -0.5476  0.8857  0.7246
  133OSM    O1114379   4.136   0.646   7.443 -0.0554 -0.1184 -0.4627
  133OSM    O1214380   4.003   0.839   7.549  0.5428  0.1116  0.1429
  133OSM    C1S14381   4.099   0.582   7.319 -0.1532  0.5228  0.2506
  133OSM    H1S14382   3.990   0.570   7.303  0.1643 -0.5029 -1.4958
  133OSM    H1T14383   4.127   0.475   7.318 -0.2192  0.4650 -2.1993
  133OSM     NF14384   4.137   0.576   7.072  0.6926 -0.3186 -0.0349
  133OSM    HNF14385   4.222   0.553   7.026  0.3319  0.6327 -1.2420
  133OSM    C2S14386   4.147   0.665   7.191  0.5094  0.0391  0.3699
  133OSM    H2S14387   4.066   0.741   7.184  1.9166  1.6146  0.7675
  133OSM    C3S14388   4.280   0.740   7.208  0.4761 -0.2792 -0.5209
  133OSM    H3S14389   4.354   0.657   7.211  0.6238 -0.1382 -0.2013
  133OSM     O314390   4.311   0.800   7.332  0.4487 -0.2510  0.5113
  133OSM    HO314391   4.236   0.786   7.390  0.5136 -1.3365  0.3597
  133OSM    C4S14392   4.308   0.829   7.093 -0.2461 -0.7167 -0.4410
  133OSM    H4S14393   4.358   0.771   7.013  0.8575  0.8071 -0.9103
  133OSM    C5S14394   4.284   0.961   7.064  0.9027 -0.4763  0.3476
  133OSM    H5S14395   4.224   1.022   7.133  1.1240  0.5703 -0.3722
  133OSM    C6S14396   4.324   1.025   6.933  0.3145 -1.2228  0.4735
  133OSM    H6S14397   4.413   1.090   6.939  1.1724 -2.4284  1.3137
  133OSM    H6T14398   4.244   1.093   6.896  2.5211 -0.1253 -2.6945
  133OSM    C7S14399   4.354   0.925   6.820  0.1160 -0.1186  0.3797
  133OSM    H7S14400   4.256   0.874   6.809 -0.5053  0.7281  1.6858
  133OSM    H7T14401   4.424   0.845   6.853  0.7429  0.3355  0.1746
  133OSM    C8S14402   4.406   0.980   6.687 -0.2704 -0.7236 -0.3980
  133OSM    H8S14403   4.511   1.006   6.710 -1.0751 -0.5534  4.0506
  133OSM    H8T14404   4.356   1.073   6.653 -1.3889 -1.0807  0.2170
  133OSM    C9S14405   4.415   0.876   6.575  0.1549  0.6795  0.0856
  133OSM    H9S14406   4.328   0.806   6.576  2.4157 -2.3509  0.6417
  133OSM    H9T14407   4.504   0.809   6.578 -0.7223 -0.5866 -0.9893
  133OSM   C10S14408   4.418   0.943   6.432 -0.3079  0.2792 -0.0156
  133OSM   H10S14409   4.486   1.028   6.453 -1.2080  1.3807 -1.4002
  133OSM   H10T14410   4.313   0.966   6.401 -0.8445 -0.2912  1.3118
  133OSM   C11S14411   4.482   0.848   6.329 -0.8800 -0.1233  0.0271
  133OSM   H11S14412   4.405   0.780   6.286  1.4228 -2.1350 -1.1392
  133OSM   H11T14413   4.545   0.775   6.385 -1.0009  1.2653  2.1010
  133OSM   C12S14414   4.562   0.911   6.226  0.0443  0.2401  0.2641
  133OSM   H12S14415   4.633   0.832   6.190  0.7166  1.1550 -0.4816
  133OSM   H12T14416   4.624   0.995   6.263 -1.7555  0.8624  1.9713
  133OSM   C13S14417   4.472   0.960   6.111 -0.4511 -0.6567 -0.0811
  133OSM   H13S14418   4.412   1.046   6.149 -1.4921  0.6616 -4.1969
  133OSM   H13T14419   4.398   0.882   6.082 -0.2700 -0.5957 -0.7241
  133OSM   C14S14420   4.557   1.009   5.988 -0.2184  0.5298  0.2065
  133OSM   H14S14421   4.626   0.924   5.967 -0.5311  0.2232  0.4111
  133OSM   H14T14422   4.628   1.093   6.006  1.0214 -0.2853 -0.7040
  133OSM   C15S14423   4.480   1.045   5.861 -0.3501  0.2406  0.7086
  133OSM   H15S14424   4.531   1.128   5.808 -0.9846  0.5535  0.5837
  133OSM   H15T14425   4.384   1.089   5.895 -0.4396  0.5349  0.0824
  133OSM   C16S14426   4.461   0.926   5.769 -0.3027  0.3246  0.6163
  133OSM   H16S14427   4.414   0.842   5.823  0.1411 -0.5351 -0.2839
  133OSM   H16T14428   4.564   0.888   5.748 -0.4421 -0.0850  0.6665
  133OSM   C17S14429   4.381   0.955   5.644  0.0679  0.8460  0.0968
  133OSM   H17S14430   4.374   0.858   5.591 -0.2300  0.5468  0.6682
  133OSM   H17T14431   4.427   1.032   5.579 -1.0469  0.8349 -0.7255
  133OSM   C18S14432   4.232   1.004   5.673  0.1191  0.9739 -0.1848
  133OSM   H18S14433   4.235   1.086   5.747 -0.4491 -2.5925  4.1948
  133OSM   H18T14434   4.176   0.927   5.730 -1.7472  3.1552  1.0914
  133OSM   H18U14435   4.186   1.032   5.575 -1.6721 -0.0505  0.3103
  133OSM    C1F14436   4.019   0.520   7.022  0.4940  0.2448 -1.0470
  133OSM     OF14437   3.912   0.562   7.063  0.3864  0.3290 -0.7181
  133OSM    C2F14438   4.024   0.407   6.924  0.1264  0.0856  0.3588
  133OSM    H2F14439   3.923   0.382   6.886  0.6475 -1.3194 -0.1747
  133OSM    H2G14440   4.068   0.318   6.973 -0.0767  0.4863  1.2871
  133OSM    C3F14441   4.115   0.448   6.803 -0.2943 -0.2222 -0.5903
  133OSM    H3F14442   4.125   0.358   6.739  0.8093  0.3288 -1.2231
  133OSM    H3G14443   4.216   0.491   6.821 -0.1891 -0.2076 -1.2115
  133OSM    C4F14444   4.044   0.564   6.734 -0.6829  0.1626  0.8146
  133OSM    H4F14445   4.043   0.654   6.800  0.1381  0.1653  0.8284
  133OSM    H4G14446   3.946   0.525   6.700  0.8764  0.1953 -4.7104
  133OSM    C5F14447   4.123   0.610   6.611 -0.1467  0.3111  0.0592
  133OSM    H5F14448   4.232   0.616   6.633 -0.1680 -0.6337  0.5057
  133OSM    H5G14449   4.078   0.708   6.585 -0.3295  0.1346 -0.2904
  133OSM    C6F14450   4.087   0.517   6.493  0.1690  0.1956 -0.1497
  133OSM    H6F14451   3.981   0.488   6.508 -0.1194  2.1316  2.3098
  133OSM    H6G14452   4.151   0.428   6.508 -0.0732  0.4437  3.0199
  133OSM    C7F14453   4.115   0.588   6.358 -0.2768  0.4043 -0.0157
  133OSM    H7F14454   4.218   0.629   6.362 -1.0579  2.4528  0.4633
  133OSM    H7G14455   4.052   0.680   6.354 -0.7056  0.1458  0.7816
  133OSM    C8F14456   4.117   0.490   6.239  0.3047 -0.5790 -0.1184
  133OSM    H8F14457   4.018   0.440   6.242  0.1518 -0.5203 -2.2743
  133OSM    H8G14458   4.182   0.402   6.259 -0.7386 -1.1673  0.7523
  133OSM    C9F14459   4.154   0.550   6.105  0.6155  0.2042 -0.0363
  133OSM    H9F14460   4.245   0.611   6.111 -0.6417  2.0475  3.4287
  133OSM   C10F14461   4.085   0.544   5.995  0.3568  0.1091  0.1052
  133OSM   H10F14462   4.117   0.588   5.899  0.6573 -1.8847 -0.7628
  133OSM   C11F14463   3.955   0.465   5.977 -0.3718 -0.3227 -0.5802
  133OSM   H11F14464   3.872   0.534   5.952 -3.5442 -4.3167 -2.3111
  133OSM   H11G14465   3.933   0.388   6.054 -0.4760 -1.2527 -1.5220
  133OSM   C12F14466   3.967   0.393   5.848 -0.4240  0.0348  0.3527
  133OSM   H12F14467   3.882   0.324   5.830 -1.4557  1.1133  0.9150
  133OSM   H12G14468   4.054   0.323   5.851  0.1564  0.7105 -0.2185
  133OSM   C13F14469   3.984   0.480   5.716  0.1749 -0.4869  0.2097
  133OSM   H13F14470   3.963   0.420   5.625  0.3585 -1.3606  0.7318
  133OSM   H13G14471   4.094   0.497   5.712  0.2543 -0.3047  2.1096
  133OSM   C14F14472   3.903   0.611   5.706  0.3515  0.1718 -0.0680
  133OSM   H14F14473   3.943   0.672   5.790 -1.3122 -1.7276  2.2420
  133OSM   H14G14474   3.800   0.575   5.728 -0.5816  1.3775 -2.1744
  133OSM   C15F14475   3.917   0.683   5.569  0.3830 -0.1917  0.4063
  133OSM   H15F14476   4.019   0.703   5.530 -0.4603  0.2563 -1.6989
  133OSM   H15G14477   3.871   0.784   5.577  0.6732 -0.1498  1.8551
  133OSM   C16F14478   3.831   0.620   5.456 -0.5561  0.2740  0.3204
  133OSM   H16F14479   3.735   0.591   5.503  0.7015  0.2033  3.0755
  133OSM   H16G14480   3.872   0.522   5.423  0.8386  0.7621  0.5152
  133OSM   C17F14481   3.823   0.711   5.334  0.0035  0.1497 -0.0615
  133OSM   H17F14482   3.921   0.752   5.301 -1.0799  2.1149 -1.1022
  133OSM   H17G14483   3.764   0.800   5.367  1.2605  1.1581 -0.4328
  133OSM   C18F14484   3.770   0.639   5.210 -0.0249  0.6037 -0.0240
  133OSM   H18F14485   3.667   0.606   5.236  0.4034  0.4979  1.5984
  133OSM   H18G14486   3.825   0.549   5.176 -0.8741  0.2004 -0.3781
  133OSM   H18H14487   3.757   0.711   5.125  1.3811  0.0966 -0.6942
  134OSM      N14488   1.047   5.377   7.569  0.3327  0.1795  0.3258
  134OSM    C1514489   1.161   5.329   7.483  0.3757 -0.6327 -0.5930
  134OSM   H15A14490   1.159   5.222   7.491 -1.7495 -0.6438 -0.6375
  134OSM   H15B14491   1.254   5.353   7.532  0.9198 -1.1437 -1.3554
  134OSM   H15C14492   1.163   5.365   7.381  2.0486  1.1311  0.0085
  134OSM    C1414493   0.919   5.348   7.494  0.5659  0.3706 -0.4017
  134OSM   H14A14494   0.913   5.394   7.397 -1.7265 -0.6562 -0.8303
  134OSM   H14B14495   0.828   5.377   7.544  1.0373  0.2843  0.5307
  134OSM   H14C14496   0.892   5.244   7.479 -2.7313  0.9273  0.7927
  134OSM    C1314497   1.037   5.295   7.695 -0.3288 -0.0565  0.3173
  134OSM   H13A14498   1.117   5.334   7.757 -0.4674 -0.5268  0.8000
  134OSM   H13B14499   1.038   5.189   7.674 -2.1394  0.1632 -1.1245
  134OSM   H13C14500   0.947   5.315   7.751  0.8746  0.1826  2.2652
  134OSM    C1214501   1.050   5.521   7.594  0.0827  0.8810  0.3041
  134OSM   H12A14502   0.966   5.564   7.648  1.5207  3.3056  0.7655
  134OSM   H12B14503   1.022   5.572   7.503 -0.7406  0.2988  0.2116
  134OSM    C1114504   1.180   5.581   7.642 -0.1374 -0.7790  0.0078
  134OSM   H11A14505   1.225   5.516   7.719  0.9589 -1.7559 -1.4011
  134OSM   H11B14506   1.148   5.674   7.694 -0.4110 -0.2377 -1.0832
  134OSM      P14507   1.266   5.732   7.457  0.0634  0.2083  0.0414
  134OSM    O1314508   1.138   5.737   7.383 -0.5389  0.0725 -0.1275
  134OSM    O1414509   1.301   5.848   7.536 -0.2699 -0.1720 -0.9156
  134OSM    O1114510   1.380   5.708   7.350 -0.2224 -0.0742 -0.0838
  134OSM    O1214511   1.275   5.596   7.537 -0.0926  0.1609  0.0055
  134OSM    C1S14512   1.412   5.575   7.316  0.2172 -0.3433 -0.6457
  134OSM    H1S14513   1.339   5.497   7.347  0.8566 -0.5258  0.4403
  134OSM    H1T14514   1.513   5.542   7.349 -0.3278 -1.2944  0.1215
  134OSM     NF14515   1.446   5.414   7.133  0.0679  0.2677  0.8123
  134OSM    HNF14516   1.531   5.386   7.089  0.5675  2.4421  0.2778
  134OSM    C2S14517   1.419   5.555   7.159  0.5427 -0.0513  0.1697
  134OSM    H2S14518   1.318   5.580   7.122  0.2713  0.4312  1.2043
  134OSM    C3S14519   1.524   5.649   7.087  0.2433  0.0005  0.5063
  134OSM    H3S14520   1.627   5.620   7.116  1.1265  1.9673 -0.4508
  134OSM     O314521   1.520   5.783   7.138  0.3649 -0.2159  0.2801
  134OSM    HO314522   1.465   5.777   7.217 -1.8437 -0.3556 -1.1889
  134OSM    C4S14523   1.509   5.662   6.939  0.5552  0.1931  0.2553
  134OSM    H4S14524   1.519   5.561   6.899 -1.7712  0.6920 -1.8558
  134OSM    C5S14525   1.477   5.766   6.854  0.3914 -0.1127 -0.1910
  134OSM    H5S14526   1.446   5.859   6.905  1.1982 -0.7404  1.5083
  134OSM    C6S14527   1.471   5.769   6.706  0.3993 -0.4772  1.1249
  134OSM    H6S14528   1.555   5.822   6.655 -0.6718  0.4419  0.2659
  134OSM    H6T14529   1.376   5.818   6.675 -0.9605 -2.3902  2.1339
  134OSM    C7S14530   1.454   5.630   6.640 -0.0140 -0.7743 -0.0019
  134OSM    H7S14531   1.356   5.589   6.674 -0.9664  0.9502 -0.5580
  134OSM    H7T14532   1.530   5.559   6.679  0.2683 -0.4273  0.0876
  134OSM    C8S14533   1.452   5.636   6.492  0.7599  0.2007 -0.1810
  134OSM    H8S14534   1.453   5.533   6.450 -3.0510  0.1685 -0.4852
  134OSM    H8T14535   1.540   5.695   6.456  1.9592 -0.4581  1.5489
  134OSM    C9S14536   1.320   5.694   6.429  0.3829 -0.2846 -0.3210
  134OSM    H9S14537   1.302   5.792   6.477 -0.0881 -2.0413  3.4499
  134OSM    H9T14538   1.237   5.631   6.470 -1.6059  2.3175 -0.0978
  134OSM   C10S14539   1.337   5.705   6.275 -0.4016 -0.3714 -0.0197
  134OSM   H10S14540   1.378   5.613   6.228 -1.5404 -1.4508  1.0299
  134OSM   H10T14541   1.416   5.782   6.262 -0.4870  0.0089  1.5645
  134OSM   C11S14542   1.212   5.746   6.203 -0.5526 -0.7136 -0.5298
  134OSM   H11S14543   1.159   5.831   6.253  0.4162 -0.4270  0.0256
  134OSM   H11T14544   1.151   5.653   6.201 -0.7505 -0.6416  1.1523
  134OSM   C12S14545   1.239   5.812   6.067 -0.1362  0.6317  0.4746
  134OSM   H12S14546   1.284   5.736   6.000  0.0251 -0.0094  1.2886
  134OSM   H12T14547   1.314   5.894   6.072  0.7819 -0.2342  1.3137
  134OSM   C13S14548   1.118   5.860   5.989  0.4208 -0.2779  0.3365
  134OSM   H13S14549   1.080   5.946   6.048  3.4412  0.7215  1.0140
  134OSM   H13T14550   1.037   5.786   6.008 -0.9064  1.4998  1.9224
  134OSM   C14S14551   1.133   5.874   5.836 -0.4744  0.5568 -0.2740
  134OSM   H14S14552   1.136   5.769   5.798  0.4901  1.4737 -2.9376
  134OSM   H14T14553   1.237   5.905   5.811 -0.5993 -1.0639 -3.2205
  134OSM   C15S14554   1.039   5.968   5.765 -0.2542  0.1230 -0.7409
  134OSM   H15S14555   1.046   6.073   5.802 -0.6985 -0.7708  2.1064
  134OSM   H15T14556   0.940   5.922   5.788  0.0616 -0.5922 -0.7888
  134OSM   C16S14557   1.073   5.984   5.619 -0.2283 -0.1006 -0.4647
  134OSM   H16S14558   1.063   5.889   5.562  0.4519 -0.9425  0.7769
  134OSM   H16T14559   1.182   6.005   5.619 -0.1806 -0.3375 -0.4266
  134OSM   C17S14560   0.999   6.095   5.547 -0.0565 -0.8440  0.3006
  134OSM   H17S14561   1.024   6.088   5.439  1.1485  1.7310  0.3412
  134OSM   H17T14562   1.048   6.187   5.585  1.4054 -1.5955  0.3372
  134OSM   C18S14563   0.853   6.110   5.552  0.1510 -0.7578 -0.3984
  134OSM   H18S14564   0.830   6.208   5.506  0.6294  0.5044  1.9104
  134OSM   H18T14565   0.812   6.103   5.655 -0.0792 -2.5433 -0.5767
  134OSM   H18U14566   0.800   6.035   5.490 -0.9390  0.6466 -1.2162
  134OSM    C1F14567   1.350   5.326   7.148  0.2385  0.5428  0.1615
  134OSM     OF14568   1.234   5.366   7.178  0.3707 -0.3983 -0.4895
  134OSM    C2F14569   1.382   5.183   7.131  0.6594  0.6093  0.3670
  134OSM    H2F14570   1.371   5.129   7.228  1.9554 -3.2173 -1.4097
  134OSM    H2G14571   1.488   5.173   7.102  0.8173 -0.4799  1.2316
  134OSM    C3F14572   1.291   5.119   7.024 -0.4857  0.4321  0.1348
  134OSM    H3F14573   1.286   5.186   6.935  1.0939 -1.5844 -1.5894
  134OSM    H3G14574   1.192   5.128   7.073 -1.6967  4.4303 -2.6056
  134OSM    C4F14575   1.334   4.976   6.993 -0.2020  0.2530  0.2959
  134OSM    H4F14576   1.324   4.929   7.094  0.1750  0.9776  0.6750
  134OSM    H4G14577   1.441   4.971   6.965 -1.3565 -1.6209 -4.9438
  134OSM    C5F14578   1.248   4.924   6.875 -0.1150 -0.0585  0.1302
  134OSM    H5F14579   1.151   4.979   6.878  0.6544  1.4244 -1.1114
  134OSM    H5G14580   1.233   4.814   6.884 -0.7311  0.0364  0.3206
  134OSM    C6F14581   1.321   4.942   6.741 -0.2595  0.1020 -0.6147
  134OSM    H6F14582   1.430   4.920   6.740  0.1965  2.1194  0.0228
  134OSM    H6G14583   1.317   5.048   6.708  1.8981  0.2359 -0.5557
  134OSM    C7F14584   1.250   4.859   6.634 -0.6188 -0.6712 -0.3007
  134OSM    H7F14585   1.162   4.920   6.606  0.8102  1.7647  0.2138
  134OSM    H7G14586   1.234   4.757   6.674  1.0705 -1.3382 -1.2255
  134OSM    C8F14587   1.346   4.849   6.517  0.2739  0.3756  0.1001
  134OSM    H8F14588   1.451   4.823   6.542 -0.0177 -0.7277  0.2330
  134OSM    H8G14589   1.349   4.952   6.476 -0.0504 -0.0832 -1.1114
  134OSM    C9F14590   1.294   4.751   6.411 -0.0009  0.6594  0.3096
  134OSM    H9F14591   1.310   4.645   6.436  3.0487  0.1969 -2.7422
  134OSM   C10F14592   1.244   4.766   6.286 -0.0023 -0.5122  0.3633
  134OSM   H10F14593   1.218   4.679   6.224  1.0342  0.0465 -0.9208
  134OSM   C11F14594   1.213   4.901   6.230 -0.0277 -0.2366 -0.2332
  134OSM   H11F14595   1.306   4.953   6.198 -2.2148  3.4417 -1.1768
  134OSM   H11G14596   1.171   4.967   6.309 -0.5322 -0.6888 -0.1200
  134OSM   C12F14597   1.113   4.913   6.110 -0.4699  0.0452  0.2403
  134OSM   H12F14598   1.103   5.021   6.084 -0.3737  0.5528  2.1425
  134OSM   H12G14599   1.011   4.889   6.144 -0.3225 -1.9796 -0.6107
  134OSM   C13F14600   1.150   4.836   5.985  0.7694 -0.5806 -0.0068
  134OSM   H13F14601   1.206   4.745   6.015 -0.2828 -1.1195  0.4079
  134OSM   H13G14602   1.217   4.902   5.927  1.8113 -0.3321  1.4211
  134OSM   C14F14603   1.033   4.788   5.900 -0.8189 -0.7044  0.4834
  134OSM   H14F14604   0.956   4.868   5.888 -0.7441 -0.0493  3.5339
  134OSM   H14G14605   0.994   4.696   5.949 -0.7641 -1.1602 -0.3050
  134OSM   C15F14606   1.072   4.755   5.753 -0.0595 -0.3018 -0.6011
  134OSM   H15F14607   0.977   4.726   5.703 -0.0758 -0.8511 -0.2644
  134OSM   H15G14608   1.131   4.661   5.745 -1.0787 -0.9232 -1.0214
  134OSM   C16F14609   1.156   4.865   5.674 -0.4125 -0.7852 -0.4741
  134OSM   H16F14610   1.184   4.816   5.579 -1.1819 -0.7780 -0.7139
  134OSM   H16G14611   1.251   4.886   5.727  0.4080 -2.7563 -1.0761
  134OSM   C17F14612   1.071   4.982   5.624  0.2453  0.6539  0.4317
  134OSM   H17F14613   1.051   5.042   5.715 -2.6082  1.8393 -0.8400
  134OSM   H17G14614   0.972   4.948   5.586 -0.7724  1.2329  2.4177
  134OSM   C18F14615   1.151   5.068   5.518  0.0824  0.4730  0.4932
  134OSM   H18F14616   1.109   5.169   5.499 -0.0596  0.1809 -0.7916
  134OSM   H18G14617   1.146   5.020   5.418  2.4896  2.0386 -0.4490
  134OSM   H18H14618   1.254   5.094   5.549 -0.4738  3.2889  0.2617
  135OSM      N14619   2.458   3.483   7.790  0.4669 -0.0201  0.5953
  135OSM    C1514620   2.493   3.599   7.873  1.0354 -0.4309 -0.2346
  135OSM   H15A14621   2.543   3.682   7.826  1.0708 -0.2340  0.1444
  135OSM   H15B14622   2.545   3.572   7.964  0.5810 -1.9477 -0.3824
  135OSM   H15C14623   2.403   3.647   7.908 -0.2835 -2.4567 -0.6151
  135OSM    C1414624   2.583   3.407   7.776  0.5340 -0.6746 -1.0082
  135OSM   H14A14625   2.549   3.339   7.699 -2.1946 -0.7026  0.1250
  135OSM   H14B14626   2.612   3.353   7.865 -0.0779  0.1756 -0.2832
  135OSM   H14C14627   2.662   3.473   7.743 -0.5956  1.9023  1.0385
  135OSM    C1314628   2.358   3.405   7.862  0.0772 -0.1050  0.3234
  135OSM   H13A14629   2.266   3.458   7.884 -0.4154 -0.3061 -1.1144
  135OSM   H13B14630   2.398   3.361   7.952 -0.5969  1.2485  1.3282
  135OSM   H13C14631   2.329   3.316   7.808  3.5237  0.2369 -2.3977
  135OSM    C1214632   2.388   3.529   7.661  0.2937  0.0059  0.2001
  135OSM   H12A14633   2.296   3.571   7.699  0.0321 -0.7463  0.4191
  135OSM   H12B14634   2.356   3.443   7.605  0.7736 -1.1005  1.5570
  135OSM    C1114635   2.467   3.630   7.576 -0.0425  0.3157  0.0630
  135OSM   H11A14636   2.400   3.644   7.489 -1.1333  0.4011  0.8883
  135OSM   H11B14637   2.566   3.596   7.541  0.3102  1.3247  0.0331
  135OSM      P14638   2.350   3.853   7.649 -0.2023 -0.1380 -0.6166
  135OSM    O1314639   2.241   3.769   7.718 -0.2350 -0.2589 -0.3976
  135OSM    O1414640   2.393   3.973   7.720  0.2685  0.3413 -0.0499
  135OSM    O1114641   2.304   3.893   7.505  0.0039 -0.7366  0.0661
  135OSM    O1214642   2.475   3.761   7.631 -0.2279 -0.0295  0.0953
  135OSM    C1S14643   2.394   3.974   7.431 -0.4496 -0.3750 -0.2041
  135OSM    H1S14644   2.496   3.931   7.434 -0.5631 -0.7234 -1.0998
  135OSM    H1T14645   2.390   4.080   7.464 -0.1557 -0.5340  0.3605
  135OSM     NF14646   2.436   4.039   7.186 -0.5116  0.0972 -0.2857
  135OSM    HNF14647   2.410   4.133   7.167  0.2419  0.0755 -1.5626
  135OSM    C2S14648   2.352   3.969   7.279 -0.0178 -0.1922 -0.2179
  135OSM    H2S14649   2.361   3.860   7.260  1.1522 -0.2199  0.4428
  135OSM    C3S14650   2.204   4.028   7.260 -0.6594  0.1328 -0.3455
  135OSM    H3S14651   2.214   4.138   7.270  0.7441 -0.1210  1.4743
  135OSM     O314652   2.109   3.991   7.365  0.0298  0.1935  0.0492
  135OSM    HO314653   2.160   3.923   7.409  1.2774 -0.1227 -1.7728
  135OSM    C4S14654   2.149   3.997   7.123 -0.5505  0.8704 -0.0816
  135OSM    H4S14655   2.192   4.063   7.046  0.1460  1.5288  0.8527
  135OSM    C5S14656   2.064   3.900   7.096 -0.7209 -0.3457 -0.3787
  135OSM    H5S14657   2.015   3.838   7.173 -0.8279 -0.8633 -0.8552
  135OSM    C6S14658   2.026   3.855   6.957 -0.6666  0.0767  0.0710
  135OSM    H6S14659   1.921   3.888   6.941 -0.7242 -0.3123 -0.4072
  135OSM    H6T14660   2.031   3.744   6.949  1.3053  0.0120  1.5186
  135OSM    C7S14661   2.114   3.904   6.846  0.0302  0.2448  0.1224
  135OSM    H7S14662   2.218   3.865   6.855 -0.4372 -0.9399  0.6896
  135OSM    H7T14663   2.125   4.013   6.859 -2.0397  0.4217  0.7084
  135OSM    C8S14664   2.055   3.843   6.717 -0.5100  0.0739 -0.2167
  135OSM    H8S14665   1.947   3.867   6.706 -0.3131  0.0208 -2.8839
  135OSM    H8T14666   2.080   3.735   6.710  2.3508  0.5820  0.8888
  135OSM    C9S14667   2.108   3.908   6.586  0.8043 -0.0132  0.6857
  135OSM    H9S14668   2.218   3.908   6.578  0.8452 -1.6232  0.9657
  135OSM    H9T14669   2.081   4.016   6.590  0.6472 -0.0135 -0.1961
  135OSM   C10S14670   2.045   3.842   6.461 -0.9176  0.0460  0.4009
  135OSM   H10S14671   1.937   3.864   6.447 -1.6106 -1.3466  3.0055
  135OSM   H10T14672   2.057   3.731   6.463 -2.6044 -0.1559  1.7629
  135OSM   C11S14673   2.114   3.895   6.336 -0.0846  0.2455 -0.7055
  135OSM   H11S14674   2.221   3.903   6.364 -0.5839 -0.2683  1.5186
  135OSM   H11T14675   2.078   3.997   6.312  2.0081  0.8538 -1.5120
  135OSM   C12S14676   2.113   3.817   6.203 -0.1124  0.3038  0.7753
  135OSM   H12S14677   2.149   3.712   6.211 -1.2831 -0.5057 -2.7537
  135OSM   H12T14678   2.163   3.880   6.127 -2.2333  2.3201  0.9588
  135OSM   C13S14679   1.970   3.771   6.159 -0.6496 -0.2369  1.1701
  135OSM   H13S14680   1.910   3.864   6.143 -0.3693 -0.3926 -1.2901
  135OSM   H13T14681   1.914   3.714   6.236 -0.3180 -0.6332  1.1178
  135OSM   C14S14682   1.963   3.721   6.013 -0.0496  1.3193  0.6037
  135OSM   H14S14683   2.019   3.627   5.995 -1.3850  0.4980  0.5980
  135OSM   H14T14684   2.010   3.802   5.954  0.7963  1.3556  1.2998
  135OSM   C15S14685   1.822   3.697   5.959 -0.0863  0.2707 -0.0842
  135OSM   H15S14686   1.751   3.776   5.992 -1.1503  0.2562 -2.1716
  135OSM   H15T14687   1.799   3.602   6.011 -1.3582 -0.0460 -1.1557
  135OSM   C16S14688   1.821   3.695   5.806 -0.4665 -0.2267 -1.1143
  135OSM   H16S14689   1.867   3.791   5.776  2.7892  0.1189  3.8629
  135OSM   H16T14690   1.713   3.682   5.781 -1.0594 -1.3737  1.6750
  135OSM   C17S14691   1.894   3.577   5.752 -0.1965  0.2910  0.3205
  135OSM   H17S14692   1.852   3.480   5.785 -2.3395  0.3748 -1.8755
  135OSM   H17T14693   2.000   3.585   5.785  0.3682 -0.7962 -1.1218
  135OSM   C18S14694   1.890   3.578   5.597  0.8414 -0.2223 -0.2744
  135OSM   H18S14695   1.784   3.588   5.566  0.3405  1.0963  1.6699
  135OSM   H18T14696   1.929   3.486   5.548  0.4787 -0.9906  0.8593
  135OSM   H18U14697   1.934   3.672   5.557 -0.2590 -0.1907 -1.4718
  135OSM    C1F14698   2.555   3.994   7.146 -0.6131  0.9636 -0.2160
  135OSM     OF14699   2.596   3.881   7.174 -0.1040 -0.2771  0.4806
  135OSM    C2F14700   2.641   4.093   7.063 -0.0958  0.8643  0.2315
  135OSM    H2F14701   2.734   4.114   7.120  0.7706  0.8069 -1.1141
  135OSM    H2G14702   2.574   4.181   7.049 -1.5623  0.0417  1.7432
  135OSM    C3F14703   2.693   4.034   6.930 -0.0450  0.0357  0.0796
  135OSM    H3F14704   2.761   3.949   6.950  0.2229  0.3296  0.4347
  135OSM    H3G14705   2.757   4.113   6.885  0.6457 -1.5820 -1.8827
  135OSM    C4F14706   2.580   4.017   6.827 -0.2538  0.8541 -0.6822
  135OSM    H4F14707   2.497   3.949   6.854  1.4418 -0.4211  1.6947
  135OSM    H4G14708   2.551   4.121   6.801  3.6921  2.1069 -0.7522
  135OSM    C5F14709   2.634   3.956   6.701 -0.4222 -0.0034 -0.4595
  135OSM    H5F14710   2.661   3.854   6.735 -0.2994  0.8665  2.2831
  135OSM    H5G14711   2.729   4.012   6.690 -0.2996  0.2996  1.6605
  135OSM    C6F14712   2.551   3.965   6.577  0.1290  0.1285 -0.9158
  135OSM    H6F14713   2.516   4.067   6.550  0.2160  0.3497 -0.2276
  135OSM    H6G14714   2.465   3.895   6.590  0.2346 -0.1640 -1.7413
  135OSM    C7F14715   2.641   3.914   6.461  0.6454  0.4339  0.4362
  135OSM    H7F14716   2.676   3.813   6.490 -0.4647 -0.1410 -0.1526
  135OSM    H7G14717   2.725   3.985   6.444  0.1240  0.4356 -2.9286
  135OSM    C8F14718   2.574   3.901   6.320 -0.2111 -0.1467 -0.1864
  135OSM    H8F14719   2.536   4.003   6.295  0.2325  0.2012  0.5421
  135OSM    H8G14720   2.486   3.835   6.338  0.5896 -0.8268  1.3350
  135OSM    C9F14721   2.667   3.839   6.218 -0.0748  0.6638 -0.2237
  135OSM    H9F14722   2.771   3.857   6.248 -0.6185  1.9533  0.9479
  135OSM   C10F14723   2.633   3.813   6.088 -0.0007 -0.2566 -0.2724
  135OSM   H10F14724   2.701   3.750   6.028 -0.2257  0.3268 -1.1618
  135OSM   C11F14725   2.499   3.807   6.020  0.4334  0.4306 -0.7760
  135OSM   H11F14726   2.493   3.871   5.929  0.4503 -2.0885 -2.6316
  135OSM   H11G14727   2.422   3.838   6.095  1.3690 -4.0373  2.3909
  135OSM   C12F14728   2.455   3.663   5.983  0.2697 -1.0399 -0.2447
  135OSM   H12F14729   2.440   3.618   6.083  0.0673  1.1280  0.7496
  135OSM   H12G14730   2.539   3.621   5.923  0.4421 -0.4166 -0.4535
  135OSM   C13F14731   2.334   3.644   5.887 -0.6317 -0.0263 -0.0541
  135OSM   H13F14732   2.252   3.710   5.921  1.3757  1.1562  2.8968
  135OSM   H13G14733   2.286   3.545   5.897 -2.4985  0.9316  0.9767
  135OSM   C14F14734   2.374   3.670   5.742 -0.1557  0.2887  0.2384
  135OSM   H14F14735   2.452   3.597   5.709 -1.5351 -1.0810 -0.1384
  135OSM   H14G14736   2.421   3.769   5.732  0.0458  0.1564 -0.1393
  135OSM   C15F14737   2.252   3.664   5.646 -0.4980 -0.5840  0.3178
  135OSM   H15F14738   2.183   3.744   5.681 -1.2665 -0.4701 -1.3583
  135OSM   H15G14739   2.204   3.564   5.632 -1.7490  0.3898 -3.3637
  135OSM   C16F14740   2.293   3.708   5.503  0.0683  0.5900 -0.5101
  135OSM   H16F14741   2.347   3.621   5.459 -1.3265 -1.0990  0.9454
  135OSM   H16G14742   2.361   3.795   5.515  2.0810 -1.2084  2.7637
  135OSM   C17F14743   2.175   3.758   5.421 -0.5997  0.4263 -0.1534
  135OSM   H17F14744   2.111   3.833   5.473 -2.0782 -0.4629 -0.6308
  135OSM   H17G14745   2.109   3.672   5.398 -0.1126  0.3057 -1.1467
  135OSM   C18F14746   2.214   3.819   5.282 -0.0820  0.1115 -0.3491
  135OSM   H18F14747   2.263   3.741   5.219  0.3072  2.5988 -3.3488
  135OSM   H18G14748   2.296   3.892   5.297 -1.4635  1.3012  1.9789
  135OSM   H18H14749   2.130   3.872   5.233  0.7740 -0.9827 -3.2423
  136OSM      N14750   6.166   6.417   7.705 -0.5988  0.2520 -0.2193
  136OSM    C1514751   6.155   6.503   7.822 -0.5178 -0.1907  0.0412
  136OSM   H15A14752   6.086   6.474   7.899 -0.3663  0.1604  0.3154
  136OSM   H15B14753   6.128   6.602   7.786 -0.2394  0.4243  1.4560
  136OSM   H15C14754   6.247   6.505   7.879 -0.2370  2.5218 -0.3807
  136OSM    C1414755   6.267   6.479   7.615 -0.5793 -0.3307  0.3658
  136OSM   H14A14756   6.366   6.491   7.657  1.4999 -1.3417 -3.6785
  136OSM   H14B14757   6.222   6.568   7.575 -0.4896 -1.1474 -1.6914
  136OSM   H14C14758   6.289   6.415   7.531  0.9682  0.3701  0.1959
  136OSM    C1314759   6.206   6.273   7.743  0.4403 -0.1614 -0.4965
  136OSM   H13A14760   6.193   6.208   7.658 -0.9183 -3.5917  2.1168
  136OSM   H13B14761   6.145   6.230   7.822  1.1544  0.6233  0.5148
  136OSM   H13C14762   6.308   6.278   7.778  0.3680 -0.1057 -0.2895
  136OSM    C1214763   6.031   6.429   7.641 -0.4028  0.2361  0.1385
  136OSM   H12A14764   6.008   6.532   7.619 -2.2499  0.0630  1.0739
  136OSM   H12B14765   5.952   6.399   7.708 -0.2960  1.0237  0.6314
  136OSM    C1114766   6.000   6.353   7.510  0.2727  0.5809  0.4244
  136OSM   H11A14767   6.076   6.401   7.445  0.5110  0.1298  0.3611
  136OSM   H11B14768   5.897   6.383   7.481  0.3686  0.4961 -0.0018
  136OSM      P14769   5.892   6.115   7.526 -0.0395  0.5790  0.1084
  136OSM    O1314770   5.938   5.989   7.592  0.6368  0.2828 -0.3993
  136OSM    O1414771   5.780   6.186   7.587  0.7746 -0.0749 -0.3532
  136OSM    O1114772   5.856   6.090   7.383  0.4737 -0.0488  0.3609
  136OSM    O1214773   6.018   6.212   7.518  0.4969 -0.0065  0.3189
  136OSM    C1S14774   5.946   6.113   7.272  0.0142  0.0215 -0.2734
  136OSM    H1S14775   6.023   6.033   7.268  1.5301  1.4375 -0.5903
  136OSM    H1T14776   6.009   6.204   7.284  0.3510  0.0647 -2.0708
  136OSM     NF14777   5.962   6.142   7.027  0.2671  0.0708 -0.1916
  136OSM    HNF14778   5.960   6.235   6.990  1.0548  0.0672 -0.2726
  136OSM    C2S14779   5.868   6.115   7.139 -0.7197  0.0576  0.6056
  136OSM    H2S14780   5.826   6.012   7.127 -1.0898  0.3498 -0.7866
  136OSM    C3S14781   5.741   6.205   7.146 -0.3348  0.5997  0.2116
  136OSM    H3S14782   5.776   6.308   7.170  1.5969 -0.1047  0.5826
  136OSM     O314783   5.648   6.177   7.249  0.2986  0.1143 -0.2195
  136OSM    HO314784   5.707   6.140   7.316  1.6191 -0.4506 -1.6387
  136OSM    C4S14785   5.676   6.192   7.018  0.0661  0.2565  0.6446
  136OSM    H4S14786   5.662   6.086   6.992  0.0647  0.3769  0.1359
  136OSM    C5S14787   5.631   6.290   6.933 -0.0132  0.2903 -0.0822
  136OSM    H5S14788   5.682   6.383   6.961 -0.6721  0.4716  0.5565
  136OSM    C6S14789   5.566   6.272   6.794 -0.2412  0.5565  0.3255
  136OSM    H6S14790   5.635   6.308   6.715 -0.5721 -0.8876 -0.6660
  136OSM    H6T14791   5.471   6.330   6.786 -2.0005 -2.2787 -0.8333
  136OSM    C7S14792   5.517   6.129   6.751  0.6937 -0.3149 -0.4800
  136OSM    H7S14793   5.446   6.095   6.829  0.7215  0.2379 -0.2084
  136OSM    H7T14794   5.608   6.065   6.749  0.7306 -0.2602 -0.5350
  136OSM    C8S14795   5.460   6.121   6.607 -0.6940 -0.1762 -0.5533
  136OSM    H8S14796   5.534   6.165   6.536 -0.2294 -1.0182 -0.6079
  136OSM    H8T14797   5.372   6.188   6.595  0.2466  0.8725 -2.0948
  136OSM    C9S14798   5.418   5.979   6.569 -0.1375  0.7094  0.9962
  136OSM    H9S14799   5.360   5.932   6.651  1.1421 -1.2707  0.8557
  136OSM    H9T14800   5.514   5.923   6.559 -1.2860 -1.2067  0.0244
  136OSM   C10S14801   5.340   5.977   6.434 -0.2431  0.4520  0.3041
  136OSM   H10S14802   5.250   6.043   6.435 -2.2239 -2.0737  2.9779
  136OSM   H10T14803   5.313   5.873   6.408 -0.3716  0.3296  0.9194
  136OSM   C11S14804   5.433   6.027   6.316  0.7074 -0.0976  0.0935
  136OSM   H11S14805   5.538   6.038   6.351 -0.0393  0.9312  2.1843
  136OSM   H11T14806   5.394   6.127   6.286 -1.1252 -0.4734  1.0719
  136OSM   C12S14807   5.421   5.931   6.192  0.2835  0.1902 -0.3553
  136OSM   H12S14808   5.315   5.919   6.162 -0.0905 -1.2715  1.3718
  136OSM   H12T14809   5.440   5.830   6.233 -1.9743  0.1882  0.8171
  136OSM   C13S14810   5.511   5.971   6.074 -1.0314  0.5867  0.3728
  136OSM   H13S14811   5.618   5.975   6.103 -0.9861  0.0653  0.2930
  136OSM   H13T14812   5.489   6.067   6.022 -0.4652  0.8983  0.7019
  136OSM   C14S14813   5.517   5.867   5.958  0.1998 -0.6573  0.4659
  136OSM   H14S14814   5.518   5.767   6.006 -0.0555 -0.1194  1.6451
  136OSM   H14T14815   5.610   5.884   5.900 -0.0804  2.3750  0.7400
  136OSM   C15S14816   5.404   5.892   5.858  0.8409 -0.6320  0.2826
  136OSM   H15S14817   5.412   5.996   5.818 -0.0755 -0.4271  0.5890
  136OSM   H15T14818   5.311   5.877   5.917  0.8823 -2.5505 -0.0786
  136OSM   C16S14819   5.421   5.805   5.731  0.1583 -0.7965  0.2685
  136OSM   H16S14820   5.403   5.696   5.747 -0.3124 -1.0585 -1.7812
  136OSM   H16T14821   5.526   5.821   5.697 -0.8536  2.3880 -1.7729
  136OSM   C17S14822   5.334   5.842   5.615  0.4532  0.4247 -0.3051
  136OSM   H17S14823   5.227   5.858   5.643 -0.5284 -3.3790 -1.2838
  136OSM   H17T14824   5.326   5.757   5.544 -1.0334  0.6572 -0.4586
  136OSM   C18S14825   5.391   5.953   5.522  0.3293 -0.2565 -0.1600
  136OSM   H18S14826   5.484   5.917   5.474  1.2638  1.0949  0.5567
  136OSM   H18T14827   5.429   6.040   5.581 -1.6263  0.3812  0.2187
  136OSM   H18U14828   5.313   5.979   5.447 -0.5421 -0.8310  0.5209
  136OSM    C1F14829   6.054   6.054   6.993  0.1763  0.2413 -0.6674
  136OSM     OF14830   6.047   5.936   7.027 -0.5335 -0.3755  0.1290
  136OSM    C2F14831   6.167   6.105   6.911  0.5031  0.0194  0.0624
  136OSM    H2F14832   6.264   6.057   6.938  0.8875  0.8227  0.1183
  136OSM    H2G14833   6.167   6.216   6.912 -0.5687  0.0305 -0.0984
  136OSM    C3F14834   6.152   6.074   6.751 -0.4643 -0.3985  0.5789
  136OSM    H3F14835   6.166   5.964   6.741  0.0857 -0.1596 -1.7035
  136OSM    H3G14836   6.236   6.126   6.701 -0.2750 -3.0521 -2.1490
  136OSM    C4F14837   6.027   6.133   6.679  0.4168 -0.0123 -0.2933
  136OSM    H4F14838   5.932   6.096   6.723 -1.4102  0.0356 -3.8167
  136OSM    H4G14839   6.028   6.097   6.573 -0.8907 -1.8073  0.2532
  136OSM    C5F14840   6.035   6.289   6.668 -0.4139  0.0904 -0.0868
  136OSM    H5F14841   6.137   6.321   6.636 -0.0719  1.2440  2.0138
  136OSM    H5G14842   6.010   6.331   6.768 -1.1349  0.6227 -0.4760
  136OSM    C6F14843   5.945   6.347   6.552 -0.8882 -0.8393 -0.4247
  136OSM    H6F14844   5.932   6.456   6.573 -2.2592 -0.6558 -2.0664
  136OSM    H6G14845   5.845   6.299   6.546 -0.8549 -0.9457 -0.1304
  136OSM    C7F14846   6.010   6.342   6.416  0.3737  0.2784 -0.4216
  136OSM    H7F14847   6.042   6.240   6.389  0.1948  0.0308  0.2806
  136OSM    H7G14848   6.102   6.404   6.426  0.8433 -0.3717 -0.6595
  136OSM    C8F14849   5.919   6.399   6.309 -0.1686  0.1581  0.0833
  136OSM    H8F14850   5.987   6.430   6.226 -0.3951 -0.3154 -0.2868
  136OSM    H8G14851   5.859   6.483   6.351  0.3663  2.2114 -2.9251
  136OSM    C9F14852   5.820   6.292   6.255 -0.6263 -0.2268 -0.2170
  136OSM    H9F14853   5.749   6.254   6.330  0.8705 -1.4369  0.6350
  136OSM   C10F14854   5.820   6.238   6.133 -0.0253 -0.0426  0.4112
  136OSM   H10F14855   5.744   6.160   6.113 -0.2971  0.5468 -0.9465
  136OSM   C11F14856   5.915   6.259   6.019 -0.1259 -0.0007  0.5054
  136OSM   H11F14857   5.944   6.159   5.980 -0.1519  0.1912 -0.0171
  136OSM   H11G14858   6.008   6.310   6.053 -0.3087  0.5858  0.1452
  136OSM   C12F14859   5.858   6.328   5.896 -0.0797 -0.1688  0.0919
  136OSM   H12F14860   5.949   6.361   5.842 -0.6013  1.0025 -0.1009
  136OSM   H12G14861   5.797   6.419   5.917 -1.4363 -0.2226 -3.0767
  136OSM   C13F14862   5.758   6.251   5.807 -0.6404  0.1047  0.3365
  136OSM   H13F14863   5.667   6.243   5.871 -1.6008  2.1905 -0.6832
  136OSM   H13G14864   5.799   6.148   5.800 -3.0920 -0.9237 -0.1056
  136OSM   C14F14865   5.759   6.315   5.669  0.3372 -0.2869 -0.4548
  136OSM   H14F14866   5.859   6.320   5.622 -0.6645  1.1019 -2.5573
  136OSM   H14G14867   5.716   6.416   5.686  2.3630  0.4053  0.9947
  136OSM   C15F14868   5.671   6.232   5.580  0.3092 -0.6381 -0.0101
  136OSM   H15F14869   5.565   6.260   5.599  0.8378  2.0181 -0.5322
  136OSM   H15G14870   5.687   6.123   5.594  2.1912 -0.1853  1.8053
  136OSM   C16F14871   5.692   6.279   5.432 -0.0836 -0.3709 -0.1530
  136OSM   H16F14872   5.771   6.220   5.380  0.0442  0.0773 -0.4797
  136OSM   H16G14873   5.703   6.390   5.430  0.3459 -0.2651  2.8575
  136OSM   C17F14874   5.560   6.244   5.355 -0.1907 -0.0448 -0.2732
  136OSM   H17F14875   5.472   6.272   5.417 -1.5391 -1.1688 -1.6219
  136OSM   H17G14876   5.550   6.133   5.354  3.4523 -0.4791 -0.4188
  136OSM   C18F14877   5.558   6.306   5.218  0.5820 -0.6593 -0.4107
  136OSM   H18F14878   5.482   6.251   5.158 -1.7205  1.9053 -0.0333
  136OSM   H18G14879   5.654   6.286   5.165  1.9753 -2.9057  2.6840
  136OSM   H18H14880   5.547   6.416   5.227  1.3836 -0.6514  0.6113
  137OSM      N14881   1.786   4.732   8.200 -0.3671  0.1695  0.0275
  137OSM    C1514882   1.742   4.612   8.279 -0.3838  0.0467 -0.2770
  137OSM   H15A14883   1.676   4.546   8.226 -0.2306  0.1967 -0.6606
  137OSM   H15B14884   1.706   4.651   8.373  1.6437 -0.7584  0.9191
  137OSM   H15C14885   1.833   4.562   8.311  0.1216  1.0063 -0.1599
  137OSM    C1414886   1.666   4.819   8.171 -0.3329 -0.3298  0.6423
  137OSM   H14A14887   1.694   4.900   8.106  0.9327 -1.2117  0.0499
  137OSM   H14B14888   1.621   4.866   8.257 -3.7178 -1.5687 -0.2848
  137OSM   H14C14889   1.589   4.762   8.120  0.2752 -3.5529  2.9753
  137OSM    C1314890   1.881   4.814   8.286  0.7404  0.4693  0.0536
  137OSM   H13A14891   1.969   4.755   8.308  0.4306  0.3064  0.9329
  137OSM   H13B14892   1.831   4.841   8.378  1.4501 -0.1841  0.6476
  137OSM   H13C14893   1.901   4.900   8.225 -1.8198  0.2918 -1.1628
  137OSM    C1214894   1.840   4.683   8.066  0.0116  0.0628  0.3017
  137OSM   H12A14895   1.931   4.628   8.084 -0.1075 -0.9878 -1.9118
  137OSM   H12B14896   1.874   4.774   8.019  0.9806  0.0365  0.9304
  137OSM    C1114897   1.747   4.606   7.963 -0.2676 -0.4639 -0.2707
  137OSM   H11A14898   1.723   4.506   8.006  1.1179 -0.3704  0.7652
  137OSM   H11B14899   1.810   4.594   7.873 -0.1327  1.1688 -0.4290
  137OSM      P14900   1.590   4.764   7.819  0.1554  0.1596 -0.2540
  137OSM    O1314901   1.451   4.813   7.829  0.1323  0.1135  0.4152
  137OSM    O1414902   1.687   4.870   7.831  0.1608 -0.1818 -0.2246
  137OSM    O1114903   1.615   4.683   7.686 -0.1525 -0.3540 -0.5530
  137OSM    O1214904   1.624   4.662   7.936 -0.1004 -0.5010  0.1093
  137OSM    C1S14905   1.504   4.628   7.619 -0.5109 -0.1652 -0.5410
  137OSM    H1S14906   1.446   4.710   7.571 -4.0788 -0.8919  2.0900
  137OSM    H1T14907   1.437   4.572   7.688 -2.3280 -0.8015 -2.6932
  137OSM     NF14908   1.429   4.503   7.427  0.0032 -0.0785  0.0624
  137OSM    HNF14909   1.385   4.416   7.451  0.7766 -0.4933 -0.0059
  137OSM    C2S14910   1.546   4.533   7.503  0.6721 -0.1577 -0.1728
  137OSM    H2S14911   1.617   4.593   7.441  0.0478  0.1475 -0.5970
  137OSM    C3S14912   1.609   4.412   7.565  0.2683  0.2527  0.2135
  137OSM    H3S14913   1.530   4.358   7.622 -0.1393 -1.6592 -2.0099
  137OSM     O314914   1.722   4.438   7.654 -0.1109  0.5482  0.1581
  137OSM    HO314915   1.707   4.528   7.683  1.6803  0.5886  1.0767
  137OSM    C4S14916   1.640   4.310   7.453  0.4966 -0.1311 -0.0027
  137OSM    H4S14917   1.554   4.290   7.387  0.0669 -1.5178  0.9334
  137OSM    C5S14918   1.752   4.250   7.423 -0.3212 -0.2790  0.4711
  137OSM    H5S14919   1.835   4.254   7.496 -0.4134 -0.9024  0.6129
  137OSM    C6S14920   1.780   4.164   7.299 -0.2373  0.3843 -0.0617
  137OSM    H6S14921   1.754   4.062   7.334 -2.3053  1.6426  2.3649
  137OSM    H6T14922   1.891   4.160   7.293 -0.2764  0.0219 -0.7114
  137OSM    C7S14923   1.691   4.196   7.177 -0.2585  0.0709 -0.0332
  137OSM    H7S14924   1.695   4.305   7.156  0.7889  0.6309  2.6956
  137OSM    H7T14925   1.588   4.164   7.204 -0.2081  0.3155  0.4584
  137OSM    C8S14926   1.725   4.117   7.052 -0.1976  0.0402  0.5120
  137OSM    H8S14927   1.705   4.011   7.077  0.8657 -0.6465 -1.3336
  137OSM    H8T14928   1.832   4.117   7.022 -0.2101  0.6327  0.4503
  137OSM    C9S14929   1.655   4.167   6.927 -0.2347  0.3204  0.6205
  137OSM    H9S14930   1.694   4.268   6.902  0.0355  0.2115  0.5993
  137OSM    H9T14931   1.546   4.175   6.948 -0.6784 -0.9815 -0.9454
  137OSM   C10S14932   1.685   4.081   6.809  0.3350  0.4785  0.5313
  137OSM   H10S14933   1.644   3.979   6.825 -0.2863  0.9897  2.5802
  137OSM   H10T14934   1.793   4.075   6.782  0.1506  3.4171 -1.2803
  137OSM   C11S14935   1.621   4.136   6.684 -0.0935 -0.1557  0.2184
  137OSM   H11S14936   1.672   4.231   6.656 -1.4023 -0.1879 -2.5660
  137OSM   H11T14937   1.515   4.155   6.710  0.0085 -0.0397  0.5640
  137OSM   C12S14938   1.626   4.039   6.569  0.6354 -0.1148 -0.4111
  137OSM   H12S14939   1.566   3.947   6.582 -2.4323  1.6666 -1.0190
  137OSM   H12T14940   1.733   4.013   6.556  0.9022  0.6754  0.0976
  137OSM   C13S14941   1.569   4.112   6.449  0.5241 -0.0945 -0.0027
  137OSM   H13S14942   1.619   4.210   6.438  0.4729  0.0942  1.3586
  137OSM   H13T14943   1.458   4.122   6.449  0.6449  1.5824 -0.5812
  137OSM   C14S14944   1.607   4.047   6.321 -0.1113  0.6517  0.9691
  137OSM   H14S14945   1.586   3.938   6.330 -0.4653  0.7408  1.2934
  137OSM   H14T14946   1.713   4.065   6.293 -0.3982 -0.1659 -0.8208
  137OSM   C15S14947   1.538   4.104   6.190  0.4862 -0.2828  0.0363
  137OSM   H15S14948   1.574   4.207   6.174 -0.9355  0.2713  0.2394
  137OSM   H15T14949   1.428   4.107   6.209  0.5925  1.3573  0.4762
  137OSM   C16S14950   1.553   4.027   6.061  0.0729 -0.8146 -0.1897
  137OSM   H16S14951   1.477   4.070   5.992  1.3304  1.3055 -0.3470
  137OSM   H16T14952   1.523   3.922   6.079 -2.8776 -0.1038 -0.3813
  137OSM   C17S14953   1.688   4.055   5.991 -0.5635  0.3642 -0.1411
  137OSM   H17S14954   1.672   4.007   5.893 -0.6479 -1.3434  0.6677
  137OSM   H17T14955   1.768   3.993   6.036 -0.6856 -2.3424 -3.2920
  137OSM   C18S14956   1.731   4.197   5.970  0.2628 -0.1438  0.2129
  137OSM   H18S14957   1.649   4.258   5.926  0.9091  1.2110  0.8079
  137OSM   H18T14958   1.816   4.206   5.898 -0.1450  0.7248 -0.1812
  137OSM   H18U14959   1.768   4.246   6.063  4.6185 -0.7178 -1.0128
  137OSM    C1F14960   1.359   4.584   7.351 -0.5242  0.0051 -0.0851
  137OSM     OF14961   1.382   4.703   7.337 -0.1515 -0.3214 -0.4574
  137OSM    C2F14962   1.249   4.521   7.280 -0.5223 -0.3397  0.6573
  137OSM    H2F14963   1.177   4.491   7.359 -1.3993  0.5066  0.2002
  137OSM    H2G14964   1.286   4.436   7.218  0.2328  0.0170  0.6059
  137OSM    C3F14965   1.177   4.619   7.180  0.0107  0.1145  0.3875
  137OSM    H3F14966   1.252   4.687   7.135 -0.0524  0.8739  1.3887
  137OSM    H3G14967   1.102   4.676   7.239 -0.8573  1.2384 -1.6908
  137OSM    C4F14968   1.097   4.565   7.059  0.6911 -0.0665 -0.8708
  137OSM    H4F14969   1.024   4.642   7.024  0.1285 -0.9433 -1.6664
  137OSM    H4G14970   1.037   4.486   7.108 -0.8322  1.1030 -0.7353
  137OSM    C5F14971   1.173   4.519   6.936 -0.4351  0.0122  0.5046
  137OSM    H5F14972   1.255   4.452   6.971  0.7878  1.2199  0.0385
  137OSM    H5G14973   1.225   4.608   6.895 -0.1552 -0.5084 -0.2913
  137OSM    C6F14974   1.091   4.456   6.825  0.0168 -0.1363  0.4572
  137OSM    H6F14975   1.025   4.513   6.756  1.0543 -1.8625 -2.1063
  137OSM    H6G14976   1.022   4.396   6.888 -1.0126  1.2876  0.7509
  137OSM    C7F14977   1.186   4.386   6.728 -0.2196  0.3168  0.1244
  137OSM    H7F14978   1.260   4.329   6.787 -1.5797  0.6979  2.2953
  137OSM    H7G14979   1.244   4.463   6.672  2.7098 -2.1766 -0.5589
  137OSM    C8F14980   1.116   4.284   6.628 -0.2329 -0.2313  0.6244
  137OSM    H8F14981   1.028   4.350   6.608  0.0147 -0.1666 -0.2687
  137OSM    H8G14982   1.082   4.193   6.681 -3.1442  0.9879  1.0774
  137OSM    C9F14983   1.191   4.258   6.500  0.3984  0.1069 -0.0116
  137OSM    H9F14984   1.259   4.337   6.464 -1.3258  1.5384 -0.2506
  137OSM   C10F14985   1.168   4.145   6.427 -0.0840  0.3213 -0.0169
  137OSM   H10F14986   1.229   4.139   6.336  1.9691 -0.2871  1.3187
  137OSM   C11F14987   1.062   4.036   6.446 -0.3453 -0.0772 -0.4035
  137OSM   H11F14988   0.964   4.080   6.420  1.3964  3.1318 -2.2416
  137OSM   H11G14989   1.063   3.991   6.547  0.4727  0.1996 -0.2784
  137OSM   C12F14990   1.080   3.922   6.347 -0.1103 -0.1180  0.6589
  137OSM   H12F14991   1.006   3.844   6.372 -0.4990  0.0349  0.0043
  137OSM   H12G14992   1.182   3.883   6.363  0.4343  1.8160  2.4645
  137OSM   C13F14993   1.061   3.956   6.196 -0.0716  0.5677 -0.3816
  137OSM   H13F14994   1.160   3.949   6.147  0.4235 -2.3330  0.8378
  137OSM   H13G14995   1.011   4.054   6.177 -1.2434 -0.1452 -1.1027
  137OSM   C14F14996   0.956   3.855   6.127 -0.3555 -0.1015 -0.2658
  137OSM   H14F14997   0.860   3.876   6.179  1.1765  3.6185  1.4396
  137OSM   H14G14998   0.986   3.750   6.144  2.1146  0.1951 -2.3326
  137OSM   C15F14999   0.952   3.887   5.977 -0.2797  0.0806 -0.3758
  137OSM   H15F15000   1.057   3.884   5.940  0.2319  3.0607  0.5733
  137OSM   H15G15001   0.924   3.990   5.948  2.2320  0.6304 -1.0695
  137OSM   C16F15002   0.860   3.794   5.901 -0.3411 -1.1246 -0.2671
  137OSM   H16F15003   0.757   3.795   5.941  0.0272  2.0478  0.9019
  137OSM   H16G15004   0.885   3.687   5.920  0.3421 -1.0669 -0.8014
  137OSM   C17F15005   0.852   3.798   5.747 -0.0818  0.0799 -0.0026
  137OSM   H17F15006   0.821   3.903   5.726 -0.4730 -0.3757 -1.8766
  137OSM   H17G15007   0.767   3.738   5.707 -1.1833  1.3095  0.4336
  137OSM   C18F15008   0.978   3.751   5.667 -0.1379  0.3119 -0.2633
  137OSM   H18F15009   1.011   3.653   5.707  1.0041  0.8726  0.2201
  137OSM   H18G15010   1.064   3.822   5.676  0.3137 -0.2552 -0.0606
  137OSM   H18H15011   0.953   3.730   5.561 -1.6454  0.9954 -0.0678
  138OSM      N15012   5.994   2.426   7.666  0.1077  0.1140 -0.4865
  138OSM    C1515013   5.895   2.426   7.778  0.0725 -0.8485 -0.5139
  138OSM   H15A15014   5.879   2.524   7.818 -1.8896 -0.8735 -1.1382
  138OSM   H15B15015   5.924   2.353   7.852 -2.2935 -0.8699  0.4616
  138OSM   H15C15016   5.801   2.399   7.732  1.0590 -0.6084 -2.8461
  138OSM    C1415017   6.020   2.280   7.619 -0.8044 -0.1756  0.2956
  138OSM   H14A15018   5.928   2.241   7.578 -0.1975  0.0173 -1.3403
  138OSM   H14B15019   6.067   2.219   7.694  0.2342  0.6523  0.3427
  138OSM   H14C15020   6.096   2.278   7.542 -1.2785 -0.0160 -0.1903
  138OSM    C1315021   5.939   2.509   7.550  0.2932 -0.0801  0.0214
  138OSM   H13A15022   6.020   2.519   7.480  1.1334  0.1014  1.0029
  138OSM   H13B15023   5.910   2.606   7.589 -0.6906 -0.3831  0.0863
  138OSM   H13C15024   5.862   2.454   7.498 -2.3027  0.1826  3.2172
  138OSM    C1215025   6.124   2.489   7.720  0.2977  0.1802 -0.6689
  138OSM   H12A15026   6.170   2.411   7.779  1.4915 -0.3849 -2.2719
  138OSM   H12B15027   6.105   2.570   7.788  1.2778  1.3529 -1.7235
  138OSM    C1115028   6.237   2.543   7.631  0.0439 -0.3287  0.0722
  138OSM   H11A15029   6.296   2.618   7.688 -2.4574  0.7445  1.3741
  138OSM   H11B15030   6.186   2.608   7.557 -0.5263 -0.7850  0.0596
  138OSM      P15031   6.431   2.353   7.656  0.1826 -0.0319 -0.5120
  138OSM    O1315032   6.517   2.443   7.737  0.3248  0.3815 -0.1256
  138OSM    O1415033   6.358   2.252   7.740 -0.1189 -0.3550  0.7675
  138OSM    O1115034   6.527   2.281   7.560  0.4401  0.1491  0.3648
  138OSM    O1215035   6.323   2.437   7.568  0.8973 -0.1840 -0.1374
  138OSM    C1S15036   6.506   2.294   7.417 -1.2832  0.1928  0.9693
  138OSM    H1S15037   6.452   2.385   7.383 -0.8101 -0.1088 -0.6498
  138OSM    H1T15038   6.447   2.213   7.369  0.4257  0.9107 -2.6265
  138OSM     NF15039   6.605   2.322   7.187  0.2085 -0.4268  0.4369
  138OSM    HNF15040   6.591   2.244   7.127 -0.6678  0.2748 -0.3137
  138OSM    C2S15041   6.636   2.296   7.329 -0.7169  0.1379 -0.4297
  138OSM    H2S15042   6.700   2.377   7.369 -0.2584 -0.6929  0.5664
  138OSM    C3S15043   6.718   2.158   7.356 -0.3045 -0.6123  0.1579
  138OSM    H3S15044   6.668   2.069   7.314  2.1557 -0.5223 -3.4617
  138OSM     O315045   6.747   2.127   7.491 -0.6142 -0.8910 -0.0587
  138OSM    HO315046   6.692   2.188   7.541  1.9298  0.9110  0.7992
  138OSM    C4S15047   6.857   2.168   7.295  0.3209  0.2382  0.2995
  138OSM    H4S15048   6.932   2.234   7.341  0.5643  1.1642 -1.3234
  138OSM    C5S15049   6.878   2.083   7.188  0.1401 -0.1236  0.5762
  138OSM    H5S15050   6.790   2.030   7.148 -1.4982  1.7447  1.4513
  138OSM    C6S15051   7.005   2.075   7.109 -0.7107  0.5599  0.7816
  138OSM    H6S15052   7.007   1.989   7.039 -1.0375  2.0024 -1.0671
  138OSM    H6T15053   7.079   2.048   7.188 -1.4111 -3.6735  0.2271
  138OSM    C7S15054   7.048   2.209   7.037 -0.4566  0.9420 -0.0682
  138OSM    H7S15055   7.153   2.189   7.007 -0.5484  2.2908 -1.3565
  138OSM    H7T15056   7.052   2.298   7.103 -2.1174  0.7271  0.3774
  138OSM    C8S15057   6.947   2.265   6.937 -0.7118  0.1580 -0.1565
  138OSM    H8S15058   6.958   2.372   6.911  0.1914 -0.0153 -0.5251
  138OSM    H8T15059   6.849   2.236   6.982 -0.1775 -1.8229 -0.1518
  138OSM    C9S15060   6.957   2.183   6.814  0.7444  0.2730  0.4219
  138OSM    H9S15061   6.901   2.087   6.814  1.0121  0.0619  2.4966
  138OSM    H9T15062   7.067   2.171   6.802  0.5705 -0.0174 -0.9815
  138OSM   C10S15063   6.903   2.260   6.683  0.2049 -0.5077 -0.0761
  138OSM   H10S15064   6.946   2.362   6.679  0.6147 -0.7016 -0.6882
  138OSM   H10T15065   6.794   2.270   6.701  0.4976  0.9862  1.1238
  138OSM   C11S15066   6.926   2.180   6.556 -0.2975  0.5089  0.0988
  138OSM   H11S15067   6.880   2.080   6.567 -0.5578  0.3350 -2.1120
  138OSM   H11T15068   7.035   2.161   6.550 -0.4816 -0.0550 -2.7460
  138OSM   C12S15069   6.875   2.251   6.425 -0.6377  0.5535  0.4375
  138OSM   H12S15070   6.925   2.349   6.410 -0.9146  0.4507 -1.3852
  138OSM   H12T15071   6.766   2.265   6.442 -1.1227 -1.0005 -1.0749
  138OSM   C13S15072   6.887   2.155   6.304  0.4027 -0.1200  0.0985
  138OSM   H13S15073   6.996   2.153   6.283  0.6742  1.5604  1.1401
  138OSM   H13T15074   6.832   2.202   6.219  0.8037 -1.1755 -0.7702
  138OSM   C14S15075   6.833   2.007   6.311 -0.1762 -0.0606 -0.2748
  138OSM   H14S15076   6.724   2.011   6.333  0.2099 -0.3604  1.8876
  138OSM   H14T15077   6.879   1.951   6.395 -2.6979 -2.1135 -0.1314
  138OSM   C15S15078   6.849   1.921   6.186 -0.3635 -0.4235 -0.0977
  138OSM   H15S15079   6.958   1.907   6.169  0.1170  1.5972  0.9184
  138OSM   H15T15080   6.816   1.977   6.096  0.4294 -1.7460 -1.2472
  138OSM   C16S15081   6.778   1.784   6.198  0.6142  0.0295  0.1733
  138OSM   H16S15082   6.691   1.783   6.128  1.8877  0.3731 -1.4760
  138OSM   H16T15083   6.752   1.785   6.306  1.0010  1.4138  0.2693
  138OSM   C17S15084   6.872   1.666   6.173  0.0101  0.1790  0.4489
  138OSM   H17S15085   6.823   1.567   6.183 -2.3727  0.9170 -2.4929
  138OSM   H17T15086   6.962   1.668   6.238  1.2168 -1.5185 -1.0863
  138OSM   C18S15087   6.920   1.662   6.022  0.7443 -0.1590  0.6436
  138OSM   H18S15088   6.940   1.761   5.975  0.5632 -1.0317 -1.3950
  138OSM   H18T15089   6.838   1.626   5.956  0.1021 -0.2299  1.4668
  138OSM   H18U15090   6.990   1.578   6.003  1.2101  0.6251 -1.4045
  138OSM    C1F15091   6.571   2.443   7.138  0.4825 -0.5814 -0.0865
  138OSM     OF15092   6.591   2.540   7.205 -0.2214 -0.7918  0.6707
  138OSM    C2F15093   6.493   2.455   7.011 -0.2360 -0.3957 -0.0018
  138OSM    H2F15094   6.400   2.512   7.033  0.6476  0.8776  0.5121
  138OSM    H2G15095   6.483   2.353   6.967 -0.2187 -0.4840  0.1947
  138OSM    C3F15096   6.568   2.534   6.897  0.4750 -0.3619 -0.1174
  138OSM    H3F15097   6.678   2.527   6.910  0.7966  0.0889 -2.2906
  138OSM    H3G15098   6.543   2.642   6.906 -3.3099 -0.6887 -3.7045
  138OSM    C4F15099   6.521   2.468   6.763 -0.5913 -0.0255 -0.4926
  138OSM    H4F15100   6.412   2.451   6.761 -0.2299 -2.7089 -1.2735
  138OSM    H4G15101   6.561   2.365   6.759  0.4075  0.3083  0.2359
  138OSM    C5F15102   6.568   2.555   6.645 -0.3069 -0.0904  0.4720
  138OSM    H5F15103   6.679   2.557   6.653 -0.3548 -0.3441  1.2699
  138OSM    H5G15104   6.543   2.661   6.665 -1.4797 -0.5312  1.4082
  138OSM    C6F15105   6.549   2.492   6.504 -0.2866 -0.2251 -0.0303
  138OSM    H6F15106   6.439   2.492   6.488 -0.3517 -1.4694  0.3324
  138OSM    H6G15107   6.595   2.393   6.489  2.1161  0.7643  0.3134
  138OSM    C7F15108   6.617   2.588   6.396  0.6279  0.1148 -0.1289
  138OSM    H7F15109   6.724   2.614   6.408  0.8787 -0.7229 -0.4293
  138OSM    H7G15110   6.555   2.680   6.402  1.5823  0.7218  0.5446
  138OSM    C8F15111   6.607   2.526   6.260  0.2447 -0.9011 -0.3419
  138OSM    H8F15112   6.514   2.465   6.253  0.0745 -0.6363 -0.3905
  138OSM    H8G15113   6.685   2.450   6.240  1.1780 -0.2764  0.8301
  138OSM    C9F15114   6.606   2.632   6.157  0.5099  0.5898 -0.3879
  138OSM    H9F15115   6.527   2.705   6.180  0.3763  0.8097 -1.4910
  138OSM   C10F15116   6.673   2.629   6.040 -0.1079  0.0952  0.2922
  138OSM   H10F15117   6.646   2.716   5.979 -4.8190 -0.6721  0.8922
  138OSM   C11F15118   6.779   2.532   5.998 -0.8925 -0.5223  0.5878
  138OSM   H11F15119   6.822   2.482   6.088  4.2774 -0.0527 -1.2743
  138OSM   H11G15120   6.866   2.581   5.949  0.7530 -1.2751  2.6055
  138OSM   C12F15121   6.731   2.419   5.904  0.0248  0.0161  0.7836
  138OSM   H12F15122   6.697   2.454   5.804  1.1009 -3.2226 -0.8466
  138OSM   H12G15123   6.648   2.363   5.952 -0.7219 -0.8907 -1.4329
  138OSM   C13F15124   6.837   2.309   5.880  0.4610  0.4650 -0.4402
  138OSM   H13F15125   6.892   2.295   5.975 -2.1424  0.2931  1.1138
  138OSM   H13G15126   6.900   2.338   5.793  0.8343  0.7266 -0.0846
  138OSM   C14F15127   6.770   2.181   5.843 -0.6422 -0.0824  0.0088
  138OSM   H14F15128   6.714   2.207   5.750 -1.2018 -0.2355  0.2996
  138OSM   H14G15129   6.696   2.152   5.921 -0.2024  1.4262  1.0160
  138OSM   C15F15130   6.860   2.058   5.807 -0.0791 -0.3144 -0.0300
  138OSM   H15F15131   6.898   2.013   5.901  0.2505 -0.1358 -0.0758
  138OSM   H15G15132   6.956   2.082   5.757  0.9509 -2.0918  0.9972
  138OSM   C16F15133   6.803   1.950   5.712  0.0804 -0.7266 -0.0552
  138OSM   H16F15134   6.869   1.862   5.726  0.4391 -0.2037  1.9429
  138OSM   H16G15135   6.807   1.979   5.605 -0.4827 -0.3476  0.0162
  138OSM   C17F15136   6.666   1.905   5.759 -0.1551  0.4033 -0.1941
  138OSM   H17F15137   6.591   1.987   5.762 -0.9278 -0.3106  0.3484
  138OSM   H17G15138   6.669   1.874   5.866 -0.1897 -0.7709 -0.5158
  138OSM   C18F15139   6.608   1.792   5.678 -0.3008 -0.2680  0.8175
  138OSM   H18F15140   6.504   1.766   5.707 -1.6134  1.4274 -1.9123
  138OSM   H18G15141   6.680   1.708   5.677  0.5878  0.4796  0.1567
  138OSM   H18H15142   6.608   1.827   5.573 -0.2809 -0.9913  0.5747
  139OSM      N15143   0.969   6.604   7.828 -0.7745  0.0531  0.1852
  139OSM    C1515144   0.929   6.636   7.969  0.0322 -0.9270 -0.6224
  139OSM   H15A15145   0.822   6.640   7.983  0.3112  0.3551  1.6976
  139OSM   H15B15146   0.951   6.739   7.994  0.4450 -1.4180  1.2329
  139OSM   H15C15147   0.968   6.578   8.052 -3.3014  0.0197  1.8219
  139OSM    C1415148   0.916   6.472   7.807 -0.4321  0.6533  0.2932
  139OSM   H14A15149   0.810   6.479   7.824 -0.4780 -0.4728  0.5787
  139OSM   H14B15150   0.961   6.389   7.860 -0.5646  0.7477  0.5552
  139OSM   H14C15151   0.927   6.441   7.704 -2.0194 -0.9777  0.5745
  139OSM    C1315152   0.904   6.703   7.733  0.0079  0.2313 -0.5901
  139OSM   H13A15153   0.915   6.670   7.631  1.1730  0.0952 -0.4363
  139OSM   H13B15154   0.943   6.803   7.739 -0.8443  0.4905  1.7660
  139OSM   H13C15155   0.797   6.705   7.752  0.0515  0.6054 -0.3670
  139OSM    C1215156   1.117   6.617   7.819 -0.3132  0.6746  0.3838
  139OSM   H12A15157   1.160   6.558   7.898 -1.5412 -0.2755  0.3664
  139OSM   H12B15158   1.151   6.719   7.834  1.6057  0.4511 -1.8097
  139OSM    C1115159   1.180   6.558   7.685 -0.6580  1.0187  0.2310
  139OSM   H11A15160   1.281   6.600   7.665 -0.1460  0.1983  1.0203
  139OSM   H11B15161   1.127   6.590   7.593  0.6151 -0.9877 -1.2705
  139OSM      P15162   1.296   6.335   7.756  0.1263  0.1276 -0.2712
  139OSM    O1315163   1.373   6.419   7.852  0.6113 -0.0446 -0.1604
  139OSM    O1415164   1.248   6.205   7.809 -0.2063 -0.2078  0.3637
  139OSM    O1115165   1.387   6.297   7.637 -0.2519  0.3684  0.1416
  139OSM    O1215166   1.177   6.410   7.690  0.1435 -0.2639 -0.5436
  139OSM    C1S15167   1.369   6.206   7.526 -0.0420 -0.3931  0.4339
  139OSM    H1S15168   1.270   6.156   7.538 -0.9486  0.9274 -1.1745
  139OSM    H1T15169   1.454   6.134   7.534 -0.0958 -0.4202  0.7915
  139OSM     NF15170   1.338   6.166   7.272  0.2358 -0.3117  0.3002
  139OSM    HNF15171   1.408   6.156   7.202 -2.4226 -1.1497 -2.4096
  139OSM    C2S15172   1.360   6.263   7.378 -0.1342 -0.3539  0.2230
  139OSM    H2S15173   1.279   6.339   7.376  0.8306  0.9988  4.0366
  139OSM    C3S15174   1.495   6.335   7.355  0.8357 -0.2749  0.8112
  139OSM    H3S15175   1.575   6.263   7.330  0.4927  0.0837 -1.5517
  139OSM     O315176   1.539   6.421   7.462 -0.0860 -0.0693  0.8672
  139OSM    HO315177   1.483   6.393   7.534  2.0272 -3.2397  1.5283
  139OSM    C4S15178   1.489   6.412   7.223  0.1384  0.6708 -0.0749
  139OSM    H4S15179   1.424   6.500   7.234 -0.8847 -0.2376  1.3983
  139OSM    C5S15180   1.558   6.391   7.111  0.2271 -0.4995  0.4366
  139OSM    H5S15181   1.619   6.300   7.116 -1.2388 -1.4503  1.6416
  139OSM    C6S15182   1.549   6.480   6.985  0.1147 -0.1249  0.9591
  139OSM    H6S15183   1.651   6.489   6.943 -0.5732  2.3309 -0.3975
  139OSM    H6T15184   1.513   6.580   7.015  1.2266  0.8077 -0.6419
  139OSM    C7S15185   1.458   6.430   6.868  0.3621 -0.6745  0.1137
  139OSM    H7S15186   1.456   6.506   6.788  1.4170 -2.8104 -2.0783
  139OSM    H7T15187   1.352   6.420   6.899  0.6735 -3.0830  0.6333
  139OSM    C8S15188   1.487   6.298   6.799 -0.3643  0.5828  0.7538
  139OSM    H8S15189   1.495   6.210   6.867  1.1794  0.2580  0.1971
  139OSM    H8T15190   1.591   6.307   6.761 -0.4544  2.6970  0.9078
  139OSM    C9S15191   1.394   6.259   6.680 -0.4534  0.3377 -0.7011
  139OSM    H9S15192   1.361   6.356   6.637  2.0168  1.6857  0.2733
  139OSM    H9T15193   1.302   6.214   6.724  0.2122  0.6317  1.0626
  139OSM   C10S15194   1.454   6.163   6.576 -0.3527 -0.8707 -0.6456
  139OSM   H10S15195   1.478   6.070   6.631 -3.3415 -0.7415  1.1068
  139OSM   H10T15196   1.539   6.214   6.526 -0.2651 -0.3106  0.0683
  139OSM   C11S15197   1.358   6.119   6.466 -0.4545  0.1573  0.3498
  139OSM   H11S15198   1.268   6.073   6.513 -0.5061 -1.6841 -1.3939
  139OSM   H11T15199   1.410   6.040   6.408  2.0514 -0.5676  3.3360
  139OSM   C12S15200   1.316   6.231   6.369  0.0957 -0.0511 -0.8879
  139OSM   H12S15201   1.409   6.287   6.348 -0.0045  0.3623 -0.2272
  139OSM   H12T15202   1.242   6.303   6.409  0.9226  1.8415 -2.6054
  139OSM   C13S15203   1.261   6.190   6.232  0.2693  0.1240  0.4104
  139OSM   H13S15204   1.160   6.147   6.248 -0.5547  1.8513  0.1289
  139OSM   H13T15205   1.333   6.113   6.197  2.5028  1.4377  1.8375
  139OSM   C14S15206   1.266   6.307   6.134 -0.4203 -0.9376 -0.4047
  139OSM   H14S15207   1.374   6.324   6.119 -0.1979 -1.0887  0.9408
  139OSM   H14T15208   1.228   6.398   6.185  1.1768 -0.9087  0.7685
  139OSM   C15S15209   1.188   6.290   6.012  0.3838  0.8540  0.0056
  139OSM   H15S15210   1.087   6.245   6.027  1.2906 -1.9191 -1.4532
  139OSM   H15T15211   1.232   6.209   5.950 -0.0255  1.4702 -1.1080
  139OSM   C16S15212   1.183   6.417   5.931 -0.8063 -0.9502 -0.2360
  139OSM   H16S15213   1.288   6.445   5.907 -1.2989  0.5580 -0.7465
  139OSM   H16T15214   1.150   6.504   5.992 -0.3434 -0.8290 -0.1501
  139OSM   C17S15215   1.095   6.399   5.805 -0.6164 -0.0787 -0.7528
  139OSM   H17S15216   1.144   6.320   5.744  0.7717  0.5104 -0.4463
  139OSM   H17T15217   1.110   6.490   5.743 -1.1735 -1.1336 -2.4934
  139OSM   C18S15218   0.947   6.375   5.825  0.1538 -0.7360  0.5560
  139OSM   H18S15219   0.921   6.288   5.890  2.1289 -1.2164  0.7694
  139OSM   H18T15220   0.900   6.365   5.725 -0.5981  0.7622  0.7352
  139OSM   H18U15221   0.901   6.460   5.879 -0.2670 -1.8119  1.9354
  139OSM    C1F15222   1.229   6.097   7.260 -0.1372 -0.8140  0.1320
  139OSM     OF15223   1.137   6.113   7.337 -0.1295  0.6191  0.6417
  139OSM    C2F15224   1.229   5.999   7.142  0.2972  0.6613 -0.5979
  139OSM    H2F15225   1.215   5.897   7.185 -0.6724  0.8542 -0.4240
  139OSM    H2G15226   1.327   6.015   7.092  0.8499  1.0105  0.5515
  139OSM    C3F15227   1.117   6.027   7.043 -0.2064  0.0413  0.6489
  139OSM    H3F15228   1.141   6.125   6.996 -1.1726  1.4765  2.9713
  139OSM    H3G15229   1.020   6.014   7.095 -0.1683 -0.3642  0.6194
  139OSM    C4F15230   1.129   5.920   6.931  0.0794 -0.1191  0.3282
  139OSM    H4F15231   1.115   5.821   6.979  0.7993  0.1927  1.1952
  139OSM    H4G15232   1.233   5.910   6.893  0.0143  1.8214 -0.4550
  139OSM    C5F15233   1.043   5.937   6.806 -0.8756 -0.5043  0.2266
  139OSM    H5F15234   1.058   6.034   6.753 -2.2380 -0.2992  0.1601
  139OSM    H5G15235   0.935   5.946   6.832 -0.5260 -0.4868  1.7466
  139OSM    C6F15236   1.064   5.826   6.700  0.1707  0.6994 -0.1693
  139OSM    H6F15237   1.016   5.733   6.737  0.9907 -0.2696 -1.4755
  139OSM    H6G15238   1.170   5.797   6.687  0.4847  1.3410  0.8451
  139OSM    C7F15239   1.015   5.868   6.558  0.0117  0.4608 -0.4321
  139OSM    H7F15240   1.058   5.790   6.493  2.1047  0.9059  0.3227
  139OSM    H7G15241   1.060   5.964   6.525  0.3046  0.5311  0.1556
  139OSM    C8F15242   0.861   5.846   6.544  0.0527 -0.2378 -0.2376
  139OSM    H8F15243   0.814   5.907   6.624 -0.1839  0.5057 -0.9259
  139OSM    H8G15244   0.842   5.740   6.568 -0.7091 -0.3448 -1.2567
  139OSM    C9F15245   0.811   5.881   6.408 -0.4737 -0.9478 -0.4613
  139OSM    H9F15246   0.862   5.970   6.366  1.7910 -1.4275  1.1270
  139OSM   C10F15247   0.749   5.800   6.317 -0.6074  0.2386 -0.1914
  139OSM   H10F15248   0.711   5.849   6.226  0.7287 -0.6411 -1.2629
  139OSM   C11F15249   0.692   5.661   6.352 -0.3224  0.3003 -0.4999
  139OSM   H11F15250   0.584   5.657   6.330 -0.6392  2.1981  0.5306
  139OSM   H11G15251   0.698   5.630   6.459  2.0630 -0.5440 -0.8050
  139OSM   C12F15252   0.750   5.552   6.257 -0.3091  0.0818  0.0336
  139OSM   H12F15253   0.720   5.452   6.295 -0.2761  0.0733  0.0369
  139OSM   H12G15254   0.861   5.558   6.261 -0.2436 -1.2940  1.3748
  139OSM   C13F15255   0.685   5.562   6.113  0.1132 -0.0651  0.1669
  139OSM   H13F15256   0.690   5.660   6.062  2.1998 -1.2351 -2.0751
  139OSM   H13G15257   0.576   5.539   6.121  0.2994 -1.2124 -0.3019
  139OSM   C14F15258   0.730   5.444   6.025 -0.1767 -0.3023 -0.1372
  139OSM   H14F15259   0.652   5.429   5.947 -0.5225  1.2941 -0.1143
  139OSM   H14G15260   0.722   5.350   6.084  0.7900 -0.1283  0.2931
  139OSM   C15F15261   0.864   5.462   5.955  0.2361  0.0471  0.3579
  139OSM   H15F15262   0.886   5.369   5.898 -0.5914  0.6065 -0.9239
  139OSM   H15G15263   0.942   5.483   6.031 -1.6941 -0.3128  2.5605
  139OSM   C16F15264   0.856   5.577   5.842 -0.3973  0.4755  0.0946
  139OSM   H16F15265   0.955   5.583   5.792 -0.1485  0.0499  0.5195
  139OSM   H16G15266   0.845   5.675   5.893  0.2248  1.2753 -1.2542
  139OSM   C17F15267   0.760   5.559   5.719  0.0201 -0.2082  0.1308
  139OSM   H17F15268   0.668   5.504   5.748 -1.7029  0.6068 -3.2053
  139OSM   H17G15269   0.799   5.481   5.650 -1.1479 -0.6836 -0.0250
  139OSM   C18F15270   0.728   5.687   5.637 -0.4754  0.2901  0.0847
  139OSM   H18F15271   0.643   5.671   5.568  0.1645  0.5334 -0.7793
  139OSM   H18G15272   0.807   5.724   5.567 -2.4943 -0.7415 -2.9156
  139OSM   H18H15273   0.701   5.772   5.703 -0.1496  0.8685 -0.5002
  140OSM      N15274   6.465   5.126   7.339 -0.2328 -0.0266  0.0546
  140OSM    C1515275   6.345   5.217   7.318  0.3888  0.5895  0.3409
  140OSM   H15A15276   6.261   5.152   7.301  1.4137 -0.9013  0.7956
  140OSM   H15B15277   6.356   5.285   7.235 -1.8161 -0.1260 -0.6020
  140OSM   H15C15278   6.321   5.277   7.405 -0.3051  1.7589 -0.6223
  140OSM    C1415279   6.580   5.206   7.391 -0.1378 -0.2861 -0.6728
  140OSM   H14A15280   6.669   5.145   7.383 -1.0392 -1.6516 -0.6354
  140OSM   H14B15281   6.566   5.222   7.497 -1.4277 -0.4391 -0.8104
  140OSM   H14C15282   6.605   5.297   7.339  1.2823 -0.2517  0.0109
  140OSM    C1315283   6.437   5.030   7.448  0.2147 -0.3451 -0.2821
  140OSM   H13A15284   6.526   4.973   7.468  1.2893  0.4375 -2.4323
  140OSM   H13B15285   6.360   4.960   7.419  0.2957 -0.4199 -0.3169
  140OSM   H13C15286   6.400   5.085   7.533 -0.5360  1.2576 -1.5745
  140OSM    C1215287   6.507   5.039   7.218  0.1272  0.7104  0.5539
  140OSM   H12A15288   6.571   4.958   7.251 -0.5053  0.1136  0.3390
  140OSM   H12B15289   6.564   5.093   7.143  0.6835 -1.2809 -0.5546
  140OSM    C1115290   6.384   4.968   7.135  0.2850 -0.2959  0.3430
  140OSM   H11A15291   6.427   4.913   7.048  1.4678 -0.5284  1.0478
  140OSM   H11B15292   6.315   5.044   7.092  2.1946  0.1623 -2.2332
  140OSM      P15293   6.167   4.838   7.172  0.1077  0.0178 -0.0110
  140OSM    O1315294   6.117   4.736   7.264 -0.2056 -0.7089  0.1499
  140OSM    O1415295   6.086   4.962   7.158  0.2586  0.4103 -0.5150
  140OSM    O1115296   6.191   4.769   7.029 -0.0809 -0.4917 -0.2649
  140OSM    O1215297   6.312   4.874   7.221  0.2694  0.0873  0.0106
  140OSM    C1S15298   6.249   4.641   7.016  0.4187 -0.1997 -0.0899
  140OSM    H1S15299   6.205   4.558   7.075 -0.1781  0.6574  0.6853
  140OSM    H1T15300   6.353   4.648   7.054  0.5123 -0.6012 -0.2658
  140OSM     NF15301   6.280   4.448   6.859 -0.0735  0.0577 -0.6794
  140OSM    HNF15302   6.363   4.422   6.810 -1.5330 -1.3096 -2.5716
  140OSM    C2S15303   6.251   4.589   6.869  0.4839  0.3019  0.5430
  140OSM    H2S15304   6.155   4.603   6.815 -0.1208 -0.0736  1.4899
  140OSM    C3S15305   6.352   4.674   6.784 -0.6502  0.2098  0.1801
  140OSM    H3S15306   6.446   4.646   6.837 -1.2070 -1.9458  0.1164
  140OSM     O315307   6.333   4.816   6.787 -0.1422  0.0364 -0.2187
  140OSM    HO315308   6.265   4.828   6.854 -0.3126 -3.0445  0.3219
  140OSM    C4S15309   6.347   4.635   6.645  0.1245  1.0048  0.5105
  140OSM    H4S15310   6.281   4.698   6.583 -0.0113 -0.0981 -0.4940
  140OSM    C5S15311   6.410   4.534   6.580  0.2231  0.1177  1.0770
  140OSM    H5S15312   6.464   4.459   6.639 -1.6968 -4.0952 -1.9820
  140OSM    C6S15313   6.410   4.500   6.434 -0.2779  0.0197  0.7271
  140OSM    H6S15314   6.323   4.432   6.423  0.7615 -1.2166 -0.2133
  140OSM    H6T15315   6.503   4.442   6.417  1.0529  2.0710  0.6577
  140OSM    C7S15316   6.391   4.619   6.337 -0.3482  0.2841 -0.3578
  140OSM    H7S15317   6.295   4.664   6.370  0.4461  0.6414  1.5897
  140OSM    H7T15318   6.382   4.570   6.238 -1.3670 -2.0627  0.8194
  140OSM    C8S15319   6.485   4.736   6.349 -0.7023 -0.6944  0.1569
  140OSM    H8S15320   6.580   4.722   6.293 -1.2812 -0.6077 -0.8821
  140OSM    H8T15321   6.500   4.774   6.452 -0.1029  2.2538 -0.8962
  140OSM    C9S15322   6.425   4.863   6.266  0.3075  0.2087 -0.2997
  140OSM    H9S15323   6.476   4.956   6.300  1.4595 -0.2646 -0.6657
  140OSM    H9T15324   6.318   4.873   6.292  0.4029  0.7522 -0.0994
  140OSM   C10S15325   6.423   4.842   6.117 -0.4989 -0.0721  0.2763
  140OSM   H10S15326   6.444   4.734   6.102  1.3558  0.1408  1.0749
  140OSM   H10T15327   6.509   4.898   6.075  0.2197 -1.1070  0.3125
  140OSM   C11S15328   6.290   4.895   6.052  0.5205  0.7960  0.1813
  140OSM   H11S15329   6.289   4.994   6.103  0.6251  0.7443  0.2830
  140OSM   H11T15330   6.209   4.829   6.089 -0.0515  1.2943 -0.1442
  140OSM   C12S15331   6.294   4.883   5.899  0.1361 -0.1061  0.6783
  140OSM   H12S15332   6.300   4.781   5.856 -1.2429 -0.5628  1.4939
  140OSM   H12T15333   6.385   4.931   5.858  0.5950 -1.6464 -0.1593
  140OSM   C13S15334   6.178   4.958   5.840  0.7592  0.1996 -0.6540
  140OSM   H13S15335   6.173   5.052   5.898  1.5881  0.5196 -1.0924
  140OSM   H13T15336   6.081   4.905   5.852  0.6834  0.7886  1.8393
  140OSM   C14S15337   6.196   5.003   5.695  0.3261 -0.7696 -0.5346
  140OSM   H14S15338   6.282   5.072   5.688 -0.2443 -0.1208 -1.4366
  140OSM   H14T15339   6.107   5.062   5.662  1.4601  0.4186 -1.5786
  140OSM   C15S15340   6.216   4.886   5.597 -0.2988 -0.1624  0.1707
  140OSM   H15S15341   6.174   4.793   5.641  0.0671 -0.8337 -0.8685
  140OSM   H15T15342   6.327   4.877   5.598 -0.1693  1.1098 -1.0470
  140OSM   C16S15343   6.160   4.915   5.448 -0.5105  0.4169 -0.1948
  140OSM   H16S15344   6.198   5.019   5.435 -0.3729  0.8769  3.0082
  140OSM   H16T15345   6.049   4.920   5.455 -0.5900 -2.0102  1.6755
  140OSM   C17S15346   6.205   4.818   5.339  1.4208  0.0196  0.3476
  140OSM   H17S15347   6.188   4.712   5.367 -0.7839 -0.0701 -1.1624
  140OSM   H17T15348   6.315   4.828   5.327  1.1208  0.2500 -3.3350
  140OSM   C18S15349   6.138   4.830   5.203 -0.0089 -0.4698 -0.4948
  140OSM   H18S15350   6.161   4.923   5.146  2.9482 -0.7614  0.0929
  140OSM   H18T15351   6.027   4.823   5.208 -0.0293 -0.0015 -0.1753
  140OSM   H18U15352   6.178   4.749   5.139  0.1789 -1.3627  0.7226
  140OSM    C1F15353   6.198   4.350   6.900 -0.0357  0.2442 -0.0589
  140OSM     OF15354   6.100   4.373   6.966 -0.0601  0.0693  0.2070
  140OSM    C2F15355   6.253   4.209   6.862  0.8809  0.1963 -0.3148
  140OSM    H2F15356   6.321   4.189   6.948  0.8837 -3.3767 -0.9724
  140OSM    H2G15357   6.308   4.230   6.768  0.2358  0.2877 -0.6756
  140OSM    C3F15358   6.147   4.103   6.835  0.2364 -1.5322 -0.4303
  140OSM    H3F15359   6.080   4.098   6.924  0.5118  2.1956  0.1604
  140OSM    H3G15360   6.192   4.005   6.809  0.4307 -1.0419 -2.0615
  140OSM    C4F15361   6.057   4.145   6.714 -0.3097 -0.8920 -0.3714
  140OSM    H4F15362   5.996   4.233   6.744 -0.3080 -1.1977  0.5863
  140OSM    H4G15363   5.978   4.070   6.692 -0.9098 -0.4068  0.1207
  140OSM    C5F15364   6.131   4.184   6.590  0.4559  0.5604  0.2401
  140OSM    H5F15365   6.225   4.125   6.581 -0.1608 -0.1617 -1.9810
  140OSM    H5G15366   6.163   4.290   6.599  1.4368  0.1184  2.8450
  140OSM    C6F15367   6.057   4.161   6.459 -0.2001 -0.2169  0.2821
  140OSM    H6F15368   5.960   4.213   6.477 -0.1895 -0.5958  1.5275
  140OSM    H6G15369   6.032   4.053   6.458 -2.5241  0.1105  3.7920
  140OSM    C7F15370   6.141   4.198   6.341  0.3289 -0.3610  0.3421
  140OSM    H7F15371   6.235   4.140   6.352  0.6547  0.1835  0.4394
  140OSM    H7G15372   6.177   4.303   6.343  1.2778 -0.6639  2.8304
  140OSM    C8F15373   6.084   4.163   6.198  0.2121 -0.1899  0.0090
  140OSM    H8F15374   5.984   4.210   6.204  1.5166  2.9917 -0.9255
  140OSM    H8G15375   6.078   4.053   6.195 -0.1374 -0.1948  0.6521
  140OSM    C9F15376   6.175   4.235   6.098 -0.1393 -0.0114  0.7142
  140OSM    H9F15377   6.194   4.341   6.119 -3.3788  0.5940  1.0930
  140OSM   C10F15378   6.241   4.181   5.996  0.0119  0.3720  0.2359
  140OSM   H10F15379   6.303   4.249   5.936  0.3883  1.0691  1.3768
  140OSM   C11F15380   6.234   4.033   5.952 -0.0382 -0.4404 -0.2395
  140OSM   H11F15381   6.144   4.006   5.893  1.4480 -1.6980 -2.0063
  140OSM   H11G15382   6.235   3.970   6.043  1.7156  0.6966  0.6027
  140OSM   C12F15383   6.352   3.982   5.872  0.8747  0.2818 -0.0192
  140OSM   H12F15384   6.362   4.031   5.773 -1.6055  1.0539  0.0573
  140OSM   H12G15385   6.341   3.879   5.833  0.1124 -0.7768  2.7561
  140OSM   C13F15386   6.483   3.986   5.960  0.2189  0.2126 -0.5391
  140OSM   H13F15387   6.460   3.907   6.035 -0.7039  0.0825 -0.9381
  140OSM   H13G15388   6.506   4.079   6.015  0.3824  0.3813 -0.8886
  140OSM   C14F15389   6.605   3.925   5.890  0.5782 -0.2878  0.3302
  140OSM   H14F15390   6.595   3.819   5.859 -1.0934  0.0637 -0.3845
  140OSM   H14G15391   6.689   3.929   5.963  1.6904 -0.2264 -0.9143
  140OSM   C15F15392   6.660   4.016   5.772 -0.3111 -0.2107  0.2750
  140OSM   H15F15393   6.671   4.123   5.801  2.3864 -0.9690  2.5150
  140OSM   H15G15394   6.577   4.010   5.698  0.0592  0.6215 -0.2188
  140OSM   C16F15395   6.790   3.972   5.708 -0.1769 -0.5474  0.2452
  140OSM   H16F15396   6.873   3.980   5.782  1.2266  1.2494 -1.4016
  140OSM   H16G15397   6.813   4.042   5.624 -1.9795 -1.8838 -1.4633
  140OSM   C17F15398   6.791   3.841   5.628 -0.4137  0.0771 -0.2527
  140OSM   H17F15399   6.687   3.828   5.591 -0.5088 -0.8305  0.3017
  140OSM   H17G15400   6.816   3.765   5.705  1.5774  0.7065 -0.2117
  140OSM   C18F15401   6.896   3.837   5.519 -0.7892  0.1011 -0.1781
  140OSM   H18F15402   6.995   3.862   5.563 -0.4404  2.4201 -2.0435
  140OSM   H18G15403   6.898   3.926   5.452  0.5232  0.1389 -0.1198
  140OSM   H18H15404   6.916   3.746   5.458 -1.9171 -0.5630  0.4207
  141OSM      N15405   0.121   3.012   7.949 -0.5643  0.4332  0.2385
  141OSM    C1515406   0.041   3.092   8.054 -0.3353 -0.6272  0.0826
  141OSM   H15A15407  -0.027   3.148   7.991 -0.5049 -1.8204 -0.8425
  141OSM   H15B15408   0.106   3.158   8.109  1.9158 -1.4556 -1.4327
  141OSM   H15C15409  -0.014   3.030   8.123  0.2567  0.2924  1.4148
  141OSM    C1415410   0.179   3.112   7.848 -0.3653  0.4166  0.1431
  141OSM   H14A15411   0.098   3.151   7.789 -0.2234 -0.3896 -0.6141
  141OSM   H14B15412   0.255   3.071   7.783 -0.2208  3.5742 -1.8918
  141OSM   H14C15413   0.222   3.196   7.900  0.5442  0.7824 -1.1405
  141OSM    C1315414   0.233   2.943   8.016 -0.1323 -0.9047  0.7283
  141OSM   H13A15415   0.316   3.011   8.029  1.3538 -2.5467  0.3086
  141OSM   H13B15416   0.274   2.869   7.949 -4.8933 -4.2254  0.9731
  141OSM   H13C15417   0.200   2.898   8.108 -0.6852 -0.1746  0.8941
  141OSM    C1215418   0.032   2.917   7.875  0.1308  0.4401 -0.0038
  141OSM   H12A15419  -0.025   2.848   7.936  0.1883 -0.5440 -1.0297
  141OSM   H12B15420   0.090   2.849   7.815  0.0103 -0.9308  1.3676
  141OSM    C1115421  -0.073   2.974   7.769 -0.8621 -0.5725  0.3739
  141OSM   H11A15422  -0.136   2.889   7.738  1.1917 -2.2758  0.6162
  141OSM   H11B15423  -0.016   3.009   7.680 -1.0570 -0.5898  0.2424
  141OSM      P15424  -0.256   3.155   7.732 -0.2927  0.1206  0.2302
  141OSM    O1315425  -0.380   3.084   7.746  0.1988 -0.3877  0.0876
  141OSM    O1415426  -0.239   3.302   7.759 -0.2011  0.2554  0.7538
  141OSM    O1115427  -0.202   3.134   7.585  0.4323  0.0668 -0.3841
  141OSM    O1215428  -0.150   3.080   7.825  0.0036 -0.2787 -0.6975
  141OSM    C1S15429  -0.283   3.194   7.480 -0.6844  0.4606  0.7431
  141OSM    H1S15430  -0.304   3.302   7.489 -2.6380  0.0218  1.9848
  141OSM    H1T15431  -0.387   3.156   7.484 -0.8316  0.9446  1.7581
  141OSM     NF15432  -0.296   3.218   7.240  1.1005 -0.1704 -0.1651
  141OSM    HNF15433  -0.375   3.171   7.201  1.8609 -1.9269  0.2943
  141OSM    C2S15434  -0.220   3.152   7.345  0.0769 -0.4623 -0.1213
  141OSM    H2S15435  -0.114   3.186   7.343 -0.7988  2.4725 -2.0931
  141OSM    C3S15436  -0.209   2.999   7.321  0.7636 -0.1434  0.7843
  141OSM    H3S15437  -0.312   2.961   7.307  0.5220  1.1835 -1.4604
  141OSM     O315438  -0.148   2.923   7.423 -0.4680  0.2412 -0.1506
  141OSM    HO315439  -0.145   2.974   7.505 -0.3022 -1.3104  0.8568
  141OSM    C4S15440  -0.138   2.973   7.190 -0.1546  0.2573  0.6006
  141OSM    H4S15441  -0.044   3.028   7.174  0.4853  0.0560  3.1808
  141OSM    C5S15442  -0.183   2.880   7.104  0.4150 -0.3391 -0.0655
  141OSM    H5S15443  -0.276   2.829   7.132  0.1642  0.9871  1.7312
  141OSM    C6S15444  -0.105   2.827   6.977  0.1421 -0.5217  0.3921
  141OSM    H6S15445  -0.109   2.716   6.977 -1.2979 -0.5061 -0.6724
  141OSM    H6T15446  -0.002   2.868   6.980 -0.4744  1.2094 -0.5316
  141OSM    C7S15447  -0.170   2.887   6.848  0.3703  0.3899  0.4306
  141OSM    H7S15448  -0.190   2.994   6.870  3.5149  0.6027  3.1345
  141OSM    H7T15449  -0.266   2.834   6.834  0.3624  0.5421 -0.0906
  141OSM    C8S15450  -0.108   2.871   6.706 -0.0120  0.0070 -0.1466
  141OSM    H8S15451  -0.072   2.767   6.690  0.4898 -0.3297  2.6529
  141OSM    H8T15452  -0.018   2.933   6.725  0.1810  0.2551 -1.7484
  141OSM    C9S15453  -0.190   2.934   6.592  0.2515  0.5103 -0.4128
  141OSM    H9S15454  -0.210   3.040   6.618 -0.9677  1.0270 -3.0610
  141OSM    H9T15455  -0.282   2.874   6.577 -0.1320  1.1912 -0.7961
  141OSM   C10S15456  -0.125   2.942   6.456  0.1775  0.2976 -1.0531
  141OSM   H10S15457  -0.114   2.838   6.418  0.6815  0.9886 -2.9166
  141OSM   H10T15458  -0.024   2.980   6.481  0.1624  0.6464 -1.5095
  141OSM   C11S15459  -0.208   3.031   6.364  0.4620  0.3025 -0.0123
  141OSM   H11S15460  -0.243   3.124   6.414  1.1712  1.7641 -2.0790
  141OSM   H11T15461  -0.297   2.975   6.329  1.1646 -0.3142 -0.8484
  141OSM   C12S15462  -0.130   3.090   6.249  0.4991  0.4266 -0.2907
  141OSM   H12S15463  -0.057   3.169   6.277  1.4941 -0.4654 -0.2987
  141OSM   H12T15464  -0.196   3.147   6.179  0.5197  2.2091  1.0712
  141OSM   C13S15465  -0.074   2.974   6.165 -0.1423 -0.1560 -0.6098
  141OSM   H13S15466  -0.150   2.895   6.179 -0.7887  0.5372 -0.1217
  141OSM   H13T15467   0.022   2.935   6.205 -0.7185  0.0099  0.9821
  141OSM   C14S15468  -0.055   2.992   6.013 -0.1471 -0.6782  0.2834
  141OSM   H14S15469  -0.157   3.011   5.975 -0.1752  0.4115  0.8496
  141OSM   H14T15470  -0.004   2.896   5.989  2.0820  1.1043 -2.9838
  141OSM   C15S15471   0.045   3.101   5.956  0.0146 -0.4888  0.2717
  141OSM   H15S15472   0.133   3.119   6.022  0.4692 -0.5196 -0.3187
  141OSM   H15T15473  -0.013   3.195   5.955  0.2345 -0.3264  1.6232
  141OSM   C16S15474   0.090   3.051   5.819 -0.4721  0.5295 -0.3492
  141OSM   H16S15475   0.006   3.013   5.757  1.8319 -2.7057 -1.7535
  141OSM   H16T15476   0.164   2.969   5.833 -0.6952  0.4483  0.3747
  141OSM   C17S15477   0.154   3.166   5.743 -0.2789 -0.2263  0.0629
  141OSM   H17S15478   0.229   3.202   5.816 -2.1900  0.6117  1.7249
  141OSM   H17T15479   0.069   3.238   5.736 -1.0109 -0.8972  1.5535
  141OSM   C18S15480   0.215   3.135   5.606 -0.1145  0.3465  0.3127
  141OSM   H18S15481   0.280   3.048   5.625  0.2201  0.8159  1.3547
  141OSM   H18T15482   0.268   3.223   5.563 -0.6714 -0.2933 -1.8335
  141OSM   H18U15483   0.127   3.106   5.544 -0.4035  0.8678  0.4704
  141OSM    C1F15484  -0.279   3.346   7.211  0.6887  0.0448  0.1178
  141OSM     OF15485  -0.169   3.391   7.239  0.6093  0.3459 -0.9376
  141OSM    C2F15486  -0.403   3.422   7.159  0.0243 -0.4046  0.0351
  141OSM    H2F15487  -0.372   3.525   7.133 -1.8132  0.0988 -0.2818
  141OSM    H2G15488  -0.472   3.430   7.246  0.3256 -1.3252  0.3729
  141OSM    C3F15489  -0.476   3.342   7.046  0.1959  0.3081  0.2029
  141OSM    H3F15490  -0.556   3.407   7.005  1.1547 -0.7576 -3.7815
  141OSM    H3G15491  -0.520   3.250   7.090  2.2533 -1.6876 -1.6569
  141OSM    C4F15492  -0.392   3.297   6.924 -0.3770  0.7691 -0.1959
  141OSM    H4F15493  -0.470   3.254   6.858 -1.0423 -0.0622  1.1008
  141OSM    H4G15494  -0.311   3.227   6.955  0.8701  1.4273 -1.8116
  141OSM    C5F15495  -0.317   3.403   6.834 -0.1323  0.6975 -0.1213
  141OSM    H5F15496  -0.262   3.482   6.887  1.4784 -1.0648  0.9624
  141OSM    H5G15497  -0.404   3.451   6.784 -0.8544 -1.1329 -0.7225
  141OSM    C6F15498  -0.227   3.338   6.728  0.8385 -0.0496 -0.2752
  141OSM    H6F15499  -0.290   3.287   6.652 -0.3735  0.2175  0.5190
  141OSM    H6G15500  -0.176   3.251   6.773  2.3398  1.4507  1.0647
  141OSM    C7F15501  -0.138   3.443   6.654  1.1263 -0.0935  0.1493
  141OSM    H7F15502  -0.066   3.384   6.594 -1.3102 -2.0682 -1.0166
  141OSM    H7G15503  -0.095   3.505   6.736 -0.6497  0.7478  0.5017
  141OSM    C8F15504  -0.222   3.541   6.566  0.2124  0.0404 -0.4675
  141OSM    H8F15505  -0.295   3.573   6.643  1.3565 -0.5267  0.8818
  141OSM    H8G15506  -0.280   3.491   6.485  0.6613  0.5121 -1.0985
  141OSM    C9F15507  -0.139   3.656   6.522  0.4282  0.7724 -0.1001
  141OSM    H9F15508  -0.079   3.685   6.609 -1.9379 -1.4897  2.4896
  141OSM   C10F15509  -0.146   3.719   6.398  0.1940 -0.5543 -0.0069
  141OSM   H10F15510  -0.060   3.782   6.372  1.5836 -1.3766  2.3364
  141OSM   C11F15511  -0.238   3.687   6.286  0.0953  0.9607 -0.5900
  141OSM   H11F15512  -0.294   3.774   6.247 -2.2058  0.2063  0.8346
  141OSM   H11G15513  -0.324   3.622   6.313  2.2207 -1.2569  1.3644
  141OSM   C12F15514  -0.180   3.588   6.177 -0.0268  1.1283 -0.1065
  141OSM   H12F15515  -0.254   3.593   6.094  1.1697  0.6938 -1.2491
  141OSM   H12G15516  -0.175   3.481   6.207 -2.3033  0.5807 -1.3922
  141OSM   C13F15517  -0.047   3.630   6.127  0.2143  0.4234 -0.1643
  141OSM   H13F15518   0.031   3.587   6.193 -0.8049 -0.6630  0.3587
  141OSM   H13G15519  -0.040   3.741   6.133 -2.3784  0.5726  1.3149
  141OSM   C14F15520  -0.031   3.583   5.980  0.7961 -0.6054 -1.2952
  141OSM   H14F15521  -0.120   3.617   5.924  0.1895 -0.0047 -0.0248
  141OSM   H14G15522  -0.029   3.473   5.967  0.4419 -0.6459 -1.0397
  141OSM   C15F15523   0.090   3.653   5.910  0.3197 -0.1149  0.3152
  141OSM   H15F15524   0.177   3.661   5.978 -0.1538 -1.6631  1.1540
  141OSM   H15G15525   0.056   3.755   5.884 -2.9437 -0.9843  0.7423
  141OSM   C16F15526   0.145   3.570   5.791  0.4172 -0.4027 -0.4914
  141OSM   H16F15527   0.071   3.551   5.711 -1.9597  1.3076  1.1579
  141OSM   H16G15528   0.169   3.470   5.834  0.4344 -0.1463  0.0986
  141OSM   C17F15529   0.279   3.614   5.747 -0.0618 -0.3125 -0.1304
  141OSM   H17F15530   0.347   3.603   5.834  0.7116 -4.3124 -1.0310
  141OSM   H17G15531   0.284   3.721   5.719  2.1008 -0.7694 -1.6941
  141OSM   C18F15532   0.339   3.536   5.627 -0.2846 -1.0015  0.5205
  141OSM   H18F15533   0.341   3.427   5.650 -0.0798 -1.6238 -2.0702
  141OSM   H18G15534   0.444   3.570   5.608 -1.6620  2.8609 -1.3297
  141OSM   H18H15535   0.281   3.545   5.533 -0.9424  0.2848  1.0250
  142OSM      N15536   6.348   4.599   7.464  0.1002 -0.3224 -0.8072
  142OSM    C1515537   6.451   4.692   7.412 -0.1505 -0.1686 -0.3894
  142OSM   H15A15538   6.504   4.762   7.474  0.1561 -0.6277 -0.1312
  142OSM   H15B15539   6.421   4.755   7.329  1.3114  0.0933 -0.7442
  142OSM   H15C15540   6.531   4.627   7.383  0.2998  0.2017  0.0124
  142OSM    C1415541   6.417   4.511   7.567  0.4572 -0.8419  0.0008
  142OSM   H14A15542   6.445   4.563   7.657 -0.6005  0.3816 -0.3457
  142OSM   H14B15543   6.510   4.471   7.528  1.9133 -0.0918  2.4539
  142OSM   H14C15544   6.358   4.424   7.589 -2.5510  1.1617  0.4372
  142OSM    C1315545   6.241   4.679   7.535 -0.0002  0.2698 -0.6076
  142OSM   H13A15546   6.168   4.618   7.587  1.4638 -2.4729 -1.5579
  142OSM   H13B15547   6.192   4.744   7.464  1.2257  0.9146 -0.8832
  142OSM   H13C15548   6.288   4.743   7.608 -1.1683  2.8822 -2.0263
  142OSM    C1215549   6.284   4.528   7.344  0.4400  0.0777  0.4888
  142OSM   H12A15550   6.241   4.600   7.276 -1.2367 -0.1811  1.2247
  142OSM   H12B15551   6.191   4.486   7.381 -0.8051  1.7960 -0.5723
  142OSM    C1115552   6.367   4.422   7.270  0.8136 -0.7997  0.1859
  142OSM   H11A15553   6.310   4.378   7.186 -0.4817 -1.6396  1.4507
  142OSM   H11B15554   6.378   4.341   7.345 -1.0617  0.4615  1.9338
  142OSM      P15555   6.630   4.422   7.226  0.1390 -0.3962 -0.4742
  142OSM    O1315556   6.706   4.457   7.099  0.4001 -0.4278 -0.3018
  142OSM    O1415557   6.687   4.459   7.355 -0.2515  0.1682  0.4406
  142OSM    O1115558   6.611   4.267   7.235  0.3710 -0.0737 -0.1247
  142OSM    O1215559   6.485   4.486   7.220  0.0026 -0.1769  0.5985
  142OSM    C1S15560   6.552   4.195   7.129  0.0606 -0.1321 -0.1312
  142OSM    H1S15561   6.528   4.258   7.041  4.3559  2.3113  0.1833
  142OSM    H1T15562   6.454   4.156   7.163 -0.6762  1.2151 -0.6433
  142OSM     NF15563   6.620   4.031   6.946 -0.1150  0.0834 -0.1089
  142OSM    HNF15564   6.553   3.958   6.931 -1.9067  2.0246 -2.1081
  142OSM    C2S15565   6.651   4.079   7.084 -0.5695 -0.1584  0.1434
  142OSM    H2S15566   6.752   4.125   7.093 -0.1837 -1.1974  1.3828
  142OSM    C3S15567   6.639   3.963   7.191 -1.2678 -0.1688 -0.3305
  142OSM    H3S15568   6.538   3.918   7.179 -1.4342 -0.9112  2.7634
  142OSM     O315569   6.627   4.003   7.329  0.1029 -0.1546  0.0156
  142OSM    HO315570   6.622   4.099   7.324  1.3641 -0.0849 -0.1243
  142OSM    C4S15571   6.743   3.855   7.169 -0.0917 -0.0491 -0.0199
  142OSM    H4S15572   6.713   3.799   7.079  0.7410  0.0379 -0.3626
  142OSM    C5S15573   6.861   3.830   7.226  0.0151 -0.2286  0.0725
  142OSM    H5S15574   6.894   3.892   7.311 -0.4640  2.7515 -1.7714
  142OSM    C6S15575   6.960   3.716   7.192 -0.4374 -0.2156  0.4900
  142OSM    H6S15576   6.970   3.648   7.280 -1.8886 -1.3849 -0.2133
  142OSM    H6T15577   7.061   3.755   7.167 -1.5726  2.3211 -0.4393
  142OSM    C7S15578   6.915   3.615   7.086 -0.6360 -0.1868  0.4831
  142OSM    H7S15579   6.908   3.674   6.991  3.2564  1.7001  1.1571
  142OSM    H7T15580   6.824   3.565   7.126  0.6210 -0.6983  2.8808
  142OSM    C8S15581   7.026   3.506   7.073 -0.0205 -0.4341 -0.0113
  142OSM    H8S15582   7.031   3.450   7.169  0.2078 -2.0028 -0.9032
  142OSM    H8T15583   7.129   3.548   7.068  1.4392 -3.5389  1.1822
  142OSM    C9S15584   7.010   3.399   6.958  0.4843 -0.4443 -0.9650
  142OSM    H9S15585   7.064   3.434   6.868  0.6330  1.6107 -0.1320
  142OSM    H9T15586   6.901   3.393   6.936  0.1757  0.1335  0.3316
  142OSM   C10S15587   7.056   3.263   6.998  0.0984  0.1842 -0.2350
  142OSM   H10S15588   6.993   3.232   7.085 -0.9982 -1.2489 -1.4865
  142OSM   H10T15589   7.161   3.270   7.033  0.4792 -1.1310 -1.0539
  142OSM   C11S15590   7.018   3.160   6.887  0.0554 -0.2959 -1.2719
  142OSM   H11S15591   6.912   3.178   6.857  0.7209  2.0869 -2.4029
  142OSM   H11T15592   7.029   3.052   6.909  0.9999  0.1487  0.5851
  142OSM   C12S15593   7.109   3.186   6.760  0.4779 -0.7286 -0.7019
  142OSM   H12S15594   7.216   3.181   6.791  0.4495  2.7361  0.3792
  142OSM   H12T15595   7.089   3.285   6.715 -0.4377 -1.3084 -1.6201
  142OSM   C13S15596   7.102   3.085   6.650 -0.3363  0.9386  0.6936
  142OSM   H13S15597   6.998   3.057   6.624 -0.3215 -0.9403  2.3860
  142OSM   H13T15598   7.152   2.989   6.673  2.0822  1.6711 -1.1214
  142OSM   C14S15599   7.179   3.135   6.526  0.5217  0.2904 -0.2004
  142OSM   H14S15600   7.269   3.188   6.566 -0.5999  1.4600  0.8604
  142OSM   H14T15601   7.109   3.213   6.488 -1.3413 -0.3557  1.7104
  142OSM   C15S15602   7.209   3.031   6.417 -0.1536 -0.5425 -0.3824
  142OSM   H15S15603   7.106   2.998   6.394  0.1801 -1.0911 -1.1171
  142OSM   H15T15604   7.267   2.944   6.455 -0.4854 -0.8941 -0.6812
  142OSM   C16S15605   7.265   3.083   6.287 -0.1317 -0.3172  0.0211
  142OSM   H16S15606   7.366   3.122   6.311  1.4698 -2.9609 -1.7901
  142OSM   H16T15607   7.213   3.174   6.250  0.6086 -0.2291 -0.8174
  142OSM   C17S15608   7.272   2.981   6.174  0.2481 -0.4021 -0.4087
  142OSM   H17S15609   7.174   2.940   6.141 -0.2565  0.6557 -0.2408
  142OSM   H17T15610   7.351   2.905   6.196 -0.6496 -1.2883 -0.1673
  142OSM   C18S15611   7.341   3.042   6.049 -0.1597 -0.4987  0.7473
  142OSM   H18S15612   7.287   3.132   6.012  0.6013 -0.9977 -1.7263
  142OSM   H18T15613   7.339   2.969   5.966  1.2697  2.0352 -1.6993
  142OSM   H18U15614   7.442   3.082   6.072  2.1803 -2.7032 -4.2556
  142OSM    C1F15615   6.656   4.090   6.831  1.5231 -0.5811 -0.1378
  142OSM     OF15616   6.738   4.183   6.833 -0.1797 -0.1733 -0.2484
  142OSM    C2F15617   6.589   4.037   6.706  0.3273 -0.0023 -0.1616
  142OSM    H2F15618   6.480   4.056   6.704  0.3782  0.5354  1.0762
  142OSM    H2G15619   6.600   3.927   6.693 -1.6414 -0.2017 -0.4772
  142OSM    C3F15620   6.645   4.106   6.574  0.2220 -0.0309 -0.1305
  142OSM    H3F15621   6.753   4.090   6.553 -0.2442  0.4418 -3.5004
  142OSM    H3G15622   6.629   4.216   6.578  0.2201  0.0735 -2.1365
  142OSM    C4F15623   6.563   4.061   6.450  0.2941 -0.0503  0.1221
  142OSM    H4F15624   6.461   4.104   6.458  0.0596 -0.5094 -0.3634
  142OSM    H4G15625   6.555   3.950   6.453  3.8683 -0.4402  3.1698
  142OSM    C5F15626   6.619   4.106   6.314 -0.0687 -0.0603  0.1216
  142OSM    H5F15627   6.542   4.073   6.241  0.5806 -0.4676 -0.3899
  142OSM    H5G15628   6.716   4.060   6.284 -0.7308 -0.4681 -1.4847
  142OSM    C6F15629   6.618   4.265   6.281  0.5998  0.2573  0.2502
  142OSM    H6F15630   6.668   4.312   6.368 -0.4046  0.6145  0.6413
  142OSM    H6G15631   6.517   4.307   6.266  0.6606  0.5709  0.7227
  142OSM    C7F15632   6.705   4.301   6.160  0.4843 -0.1286  0.4158
  142OSM    H7F15633   6.651   4.255   6.074  0.8519 -0.7519  0.5120
  142OSM    H7G15634   6.799   4.246   6.181  0.7063 -0.5703 -1.5421
  142OSM    C8F15635   6.741   4.455   6.153 -0.7103  0.3950 -0.3445
  142OSM    H8F15636   6.821   4.477   6.227 -0.7463  2.1496 -0.7835
  142OSM    H8G15637   6.651   4.520   6.163 -0.7151  0.3198  0.1044
  142OSM    C9F15638   6.782   4.476   6.010 -0.5765 -1.2556 -0.2560
  142OSM    H9F15639   6.891   4.469   5.997 -0.3655  1.0615 -0.1739
  142OSM   C10F15640   6.718   4.525   5.906 -0.2729 -0.3788 -0.5732
  142OSM   H10F15641   6.773   4.519   5.811  2.3265 -0.0289  0.8113
  142OSM   C11F15642   6.571   4.550   5.901  0.4500 -0.0352  0.0964
  142OSM   H11F15643   6.560   4.648   5.850  2.9519 -0.1542 -0.8132
  142OSM   H11G15644   6.536   4.566   6.005 -0.5373  0.8671 -0.3648
  142OSM   C12F15645   6.488   4.446   5.826  0.5564  0.6090  0.2308
  142OSM   H12F15646   6.459   4.353   5.878  1.4192 -0.1687 -0.6503
  142OSM   H12G15647   6.548   4.417   5.737  0.9117  1.7827  0.0632
  142OSM   C13F15648   6.360   4.509   5.770 -0.2009  0.3138  0.1792
  142OSM   H13F15649   6.370   4.595   5.700 -0.3298  0.1983  0.0170
  142OSM   H13G15650   6.305   4.549   5.858  0.3920 -1.1797  1.2519
  142OSM   C14F15651   6.271   4.415   5.688  0.1038  1.3736  0.3233
  142OSM   H14F15652   6.257   4.326   5.752  0.1639 -0.4787 -2.1226
  142OSM   H14G15653   6.337   4.373   5.610  0.2394  1.1978  0.5299
  142OSM   C15F15654   6.150   4.490   5.638  0.0849 -0.2724  0.5281
  142OSM   H15F15655   6.181   4.581   5.583  0.9802 -0.5472  0.5723
  142OSM   H15G15656   6.083   4.536   5.714  0.3484  0.6972  0.1850
  142OSM   C16F15657   6.057   4.406   5.552 -0.2575  0.2292 -0.1846
  142OSM   H16F15658   6.006   4.336   5.622  2.1532 -2.5312 -1.0102
  142OSM   H16G15659   6.121   4.351   5.480 -0.5557 -0.1286 -0.1811
  142OSM   C17F15660   5.947   4.488   5.481  0.4679 -0.3390 -0.4512
  142OSM   H17F15661   6.008   4.553   5.414  1.5580 -2.2748 -1.4204
  142OSM   H17G15662   5.891   4.543   5.559 -3.1672 -0.9208 -2.4041
  142OSM   C18F15663   5.848   4.391   5.419 -0.2805 -0.5216 -0.1514
  142OSM   H18F15664   5.766   4.447   5.370 -0.7985 -0.6396  0.5722
  142OSM   H18G15665   5.805   4.321   5.494 -0.4334 -0.7002 -0.4044
  142OSM   H18H15666   5.908   4.332   5.346  2.9267  3.2223 -0.8540
  143OSM      N15667   3.497   0.277   7.913  0.1477  0.1086 -0.4126
  143OSM    C1515668   3.554   0.161   7.986  0.1232  0.3858  0.2920
  143OSM   H15A15669   3.503   0.141   8.079 -0.2373 -3.6300 -0.5939
  143OSM   H15B15670   3.654   0.183   8.022 -0.3134  2.0221  0.5806
  143OSM   H15C15671   3.549   0.068   7.932 -1.7352  1.3905 -1.4158
  143OSM    C1415672   3.547   0.406   7.977  0.1828  0.0442  0.2328
  143OSM   H14A15673   3.544   0.393   8.084 -1.3646 -1.6177  0.0344
  143OSM   H14B15674   3.483   0.486   7.945  0.5890 -0.4902 -2.0928
  143OSM   H14C15675   3.653   0.426   7.967 -0.0758  1.7529  0.5265
  143OSM    C1315676   3.544   0.276   7.778 -0.4101  0.3823  0.4801
  143OSM   H13A15677   3.506   0.356   7.716 -0.1676 -0.1709 -0.3969
  143OSM   H13B15678   3.507   0.186   7.731 -1.2372  0.5465  0.8007
  143OSM   H13C15679   3.652   0.274   7.780 -0.4091 -0.7141  0.1248
  143OSM    C1215680   3.341   0.272   7.919 -0.1757  0.3780  0.0812
  143OSM   H12A15681   3.302   0.284   8.019 -2.0673 -1.6230 -0.3598
  143OSM   H12B15682   3.309   0.175   7.884  0.8314 -0.4459  1.3493
  143OSM    C1115683   3.259   0.371   7.833  0.2036  0.3487  0.2101
  143OSM   H11A15684   3.150   0.356   7.850  0.0752 -0.4303 -1.1525
  143OSM   H11B15685   3.287   0.340   7.730  0.8098  0.4188  0.3516
  143OSM      P15686   3.318   0.606   7.730  0.1167 -0.1199 -0.3050
  143OSM    O1315687   3.311   0.742   7.785 -0.0924  0.3894 -0.0706
  143OSM    O1415688   3.441   0.574   7.652 -0.5133  0.4686 -0.4853
  143OSM    O1115689   3.183   0.592   7.647  0.1017 -0.5125 -0.0019
  143OSM    O1215690   3.308   0.502   7.848  0.5485  0.1961 -0.0472
  143OSM    C1S15691   3.182   0.563   7.505  0.2038  0.0446  0.0572
  143OSM    H1S15692   3.280   0.568   7.453  0.1279 -1.7422 -0.3116
  143OSM    H1T15693   3.108   0.632   7.460 -0.7609  1.0409  2.9589
  143OSM     NF15694   3.153   0.386   7.345  0.0786 -0.3010 -0.1264
  143OSM    HNF15695   3.067   0.369   7.298  0.1869 -0.2165 -0.3550
  143OSM    C2S15696   3.134   0.420   7.481  1.1335  0.0923  0.1270
  143OSM    H2S15697   3.212   0.359   7.531  0.9604 -0.0061  0.2786
  143OSM    C3S15698   2.993   0.393   7.536 -0.4914  0.2656 -0.6854
  143OSM    H3S15699   2.926   0.447   7.466  2.7008  1.5427 -2.9939
  143OSM     O315700   2.969   0.433   7.674 -0.0736  0.7864  0.0760
  143OSM    HO315701   3.048   0.483   7.696 -0.3989  0.8780  1.0987
  143OSM    C4S15702   2.967   0.242   7.525 -0.1730  0.3971 -0.7842
  143OSM    H4S15703   3.046   0.183   7.573 -1.0260  1.8200  2.6110
  143OSM    C5S15704   2.866   0.184   7.450  0.2486  0.0331 -0.2307
  143OSM    H5S15705   2.783   0.250   7.422  1.4266  1.4001 -0.6043
  143OSM    C6S15706   2.844   0.036   7.412  0.5554  0.4447 -0.1303
  143OSM    H6S15707   2.739   0.015   7.385  0.6190  3.0912 -2.9553
  143OSM    H6T15708   2.878  -0.033   7.492  0.6144 -0.9683 -1.3374
  143OSM    C7S15709   2.919   0.007   7.281  0.1432  0.6318 -0.1711
  143OSM    H7S15710   2.877   0.072   7.202  0.7426 -0.0121 -1.0349
  143OSM    H7T15711   2.898  -0.099   7.257  0.7344  0.3283  0.5946
  143OSM    C8S15712   3.068   0.027   7.286  0.0895 -0.3609  0.0013
  143OSM    H8S15713   3.117  -0.017   7.376 -0.5119 -0.3419  0.3380
  143OSM    H8T15714   3.098   0.134   7.280  2.3264 -0.9339 -0.1920
  143OSM    C9S15715   3.128  -0.036   7.165 -1.0426 -0.0294 -0.5904
  143OSM    H9S15716   3.086   0.025   7.081  1.1005  2.3818 -0.0122
  143OSM    H9T15717   3.095  -0.142   7.162  1.1257 -0.8523  1.8066
  143OSM   C10S15718   3.281  -0.027   7.177  0.4349 -0.1993  0.1804
  143OSM   H10S15719   3.315  -0.097   7.257  1.0193 -0.3804 -0.2156
  143OSM   H10T15720   3.323   0.071   7.210  0.3555 -0.1759  0.2130
  143OSM   C11S15721   3.347  -0.070   7.042  0.4255  0.5835  0.0999
  143OSM   H11S15722   3.283  -0.156   7.012  0.3444  0.8604 -0.5401
  143OSM   H11T15723   3.450  -0.105   7.063  0.2644  0.6390  1.0323
  143OSM   C12S15724   3.381   0.039   6.942 -1.5239  0.2525  0.4963
  143OSM   H12S15725   3.453   0.102   6.999  0.5571  0.6381 -2.3727
  143OSM   H12T15726   3.295   0.101   6.907 -1.1504  0.5583  0.1247
  143OSM   C13S15727   3.445   0.004   6.803 -0.0613 -0.0546 -0.0848
  143OSM   H13S15728   3.545  -0.045   6.802 -0.3887 -0.8114 -2.5817
  143OSM   H13T15729   3.462   0.092   6.738 -2.2508  0.1021 -0.5209
  143OSM   C14S15730   3.360  -0.095   6.727 -0.4801  0.3225  0.2231
  143OSM   H14S15731   3.257  -0.056   6.733 -0.5104  1.2100 -3.3759
  143OSM   H14T15732   3.364  -0.197   6.771 -2.0978  0.5367  0.9192
  143OSM   C15S15733   3.393  -0.092   6.576 -0.1132 -0.2950 -0.1730
  143OSM   H15S15734   3.421   0.014   6.557 -2.0255  0.1438 -0.7021
  143OSM   H15T15735   3.306  -0.115   6.511  0.6151 -2.9945 -0.3135
  143OSM   C16S15736   3.512  -0.180   6.542  0.0208  0.0164  0.3101
  143OSM   H16S15737   3.473  -0.284   6.542  0.9935 -0.3583 -0.3593
  143OSM   H16T15738   3.599  -0.175   6.611 -1.4501 -0.7247  2.3113
  143OSM   C17S15739   3.558  -0.152   6.399  0.5039 -0.1069  0.0681
  143OSM   H17S15740   3.615  -0.057   6.387  1.5611 -1.0589 -3.6987
  143OSM   H17T15741   3.470  -0.147   6.331  0.0203 -1.4034  0.5612
  143OSM   C18S15742   3.655  -0.259   6.342 -0.4150 -0.3179 -0.0003
  143OSM   H18S15743   3.758  -0.237   6.379 -0.6697 -0.2092  0.6529
  143OSM   H18T15744   3.663  -0.251   6.231  0.0201 -3.1246 -0.2475
  143OSM   H18U15745   3.614  -0.359   6.366  0.1454 -1.1720 -2.3047
  143OSM    C1F15746   3.274   0.372   7.277  0.4353 -0.0073 -0.6501
  143OSM     OF15747   3.374   0.331   7.338  0.9925  0.4662  0.2548
  143OSM    C2F15748   3.278   0.386   7.123  0.4882 -0.5165 -0.3362
  143OSM    H2F15749   3.201   0.460   7.094 -0.8217 -1.2216  1.2030
  143OSM    H2G15750   3.236   0.297   7.072 -1.4172  0.4297 -0.5173
  143OSM    C3F15751   3.415   0.429   7.068 -0.0278  0.1384  0.4756
  143OSM    H3F15752   3.488   0.345   7.065 -2.4235 -2.0845 -0.2981
  143OSM    H3G15753   3.463   0.509   7.128  1.1844  0.6320 -1.0764
  143OSM    C4F15754   3.408   0.491   6.921 -0.5386 -0.4424  0.0506
  143OSM    H4F15755   3.366   0.405   6.863 -1.8009 -1.0938  1.8470
  143OSM    H4G15756   3.517   0.510   6.912 -0.2970 -2.0631 -0.9059
  143OSM    C5F15757   3.307   0.606   6.906 -0.4263 -0.6663  0.6116
  143OSM    H5F15758   3.284   0.650   7.006  2.3449  0.3285  0.8926
  143OSM    H5G15759   3.216   0.550   6.874  0.5056 -1.1453 -1.3275
  143OSM    C6F15760   3.344   0.730   6.812  0.2192 -0.0105  0.4482
  143OSM    H6F15761   3.427   0.779   6.868  0.2184  1.1550 -0.5309
  143OSM    H6G15762   3.255   0.796   6.809 -0.7433 -0.9232  3.7032
  143OSM    C7F15763   3.390   0.695   6.673  0.3009 -0.0003  0.2392
  143OSM    H7F15764   3.448   0.601   6.665  1.0941  0.4005  1.0460
  143OSM    H7G15765   3.449   0.777   6.627 -0.8371 -0.0254 -1.3176
  143OSM    C8F15766   3.276   0.672   6.570 -0.3424  0.3194 -0.2234
  143OSM    H8F15767   3.211   0.594   6.616  1.3404 -0.7298  0.4588
  143OSM    H8G15768   3.315   0.636   6.472  1.1019  0.7981  0.1607
  143OSM    C9F15769   3.207   0.803   6.536  0.9221  0.0425  0.6337
  143OSM    H9F15770   3.265   0.895   6.547  1.3954 -0.1633 -0.0679
  143OSM   C10F15771   3.080   0.806   6.490  0.0481 -0.1584 -0.7029
  143OSM   H10F15772   3.044   0.907   6.467  0.9678  0.0880 -1.0805
  143OSM   C11F15773   2.979   0.697   6.475  0.5197 -0.1515 -0.3351
  143OSM   H11F15774   2.876   0.730   6.500  0.8373 -0.0306  0.8982
  143OSM   H11G15775   2.997   0.621   6.554  1.2314  0.0435 -0.3056
  143OSM   C12F15776   2.972   0.625   6.346 -0.3340 -0.2641  0.8494
  143OSM   H12F15777   2.910   0.534   6.361  2.1680 -1.9838  1.5078
  143OSM   H12G15778   3.070   0.588   6.308 -0.3010  0.3670  0.3048
  143OSM   C13F15779   2.905   0.717   6.234  0.4055  0.3735 -0.1318
  143OSM   H13F15780   2.961   0.813   6.233  0.1774  0.5363  1.1335
  143OSM   H13G15781   2.799   0.731   6.264 -0.0161 -0.2853 -1.2391
  143OSM   C14F15782   2.906   0.646   6.092 -0.1425 -0.2577  0.3572
  143OSM   H14F15783   2.837   0.559   6.086  0.4453 -0.6598 -3.8382
  143OSM   H14G15784   3.009   0.607   6.079 -0.3528 -0.9644  0.7438
  143OSM   C15F15785   2.892   0.739   5.972 -0.1092  0.9591  0.2182
  143OSM   H15F15786   2.972   0.815   5.979  0.0137  0.8851 -0.3363
  143OSM   H15G15787   2.797   0.796   5.976 -0.3310  0.9683 -2.6643
  143OSM   C16F15788   2.899   0.652   5.842  0.8110  0.3157  0.2482
  143OSM   H16F15789   2.852   0.552   5.843  1.4252  0.0149  1.3352
  143OSM   H16G15790   3.002   0.612   5.825 -0.6395 -4.1923  0.8258
  143OSM   C17F15791   2.860   0.735   5.712  1.0588  0.1877  0.6699
  143OSM   H17F15792   2.825   0.839   5.726 -2.3190 -0.8271  0.8361
  143OSM   H17G15793   2.775   0.686   5.659  0.6672  0.9007  0.6277
  143OSM   C18F15794   2.973   0.725   5.611  0.1474  0.1691 -0.7006
  143OSM   H18F15795   2.949   0.769   5.512 -0.3733 -0.1866 -0.7378
  143OSM   H18G15796   3.003   0.620   5.591  0.8446  0.5399 -1.7168
  143OSM   H18H15797   3.060   0.781   5.651 -1.1432  1.0799  0.9334
  144OSM      N15798   1.687   6.219   7.845 -0.4797 -0.1242 -0.3030
  144OSM    C1515799   1.567   6.182   7.936  0.1695 -0.0983 -0.2292
  144OSM   H15A15800   1.550   6.076   7.925  0.0278  0.0005 -1.0064
  144OSM   H15B15801   1.474   6.231   7.911  0.1072 -0.0210  0.1495
  144OSM   H15C15802   1.593   6.201   8.039  0.1203 -1.8564  0.1286
  144OSM    C1415803   1.699   6.366   7.838 -0.0232  0.0617 -0.7905
  144OSM   H14A15804   1.615   6.407   7.786 -1.3301  1.5676  2.2828
  144OSM   H14B15805   1.786   6.401   7.785 -1.0247  1.8426 -1.3185
  144OSM   H14C15806   1.693   6.402   7.940  0.5329  1.0332 -1.0941
  144OSM    C1315807   1.812   6.158   7.910  0.4730  0.5250  0.2911
  144OSM   H13A15808   1.839   6.195   8.008 -0.3289 -0.5039  0.9246
  144OSM   H13B15809   1.898   6.167   7.844  1.4021 -2.2893  0.9438
  144OSM   H13C15810   1.792   6.052   7.915 -2.3920  0.7133 -3.1320
  144OSM    C1215811   1.666   6.156   7.706 -0.4531 -0.2280 -0.2903
  144OSM   H12A15812   1.565   6.174   7.671 -0.5585 -2.5263 -1.3658
  144OSM   H12B15813   1.676   6.050   7.723  4.4389  0.2467  1.4477
  144OSM    C1115814   1.756   6.182   7.581  0.3329 -0.2943 -0.0164
  144OSM   H11A15815   1.749   6.292   7.565 -2.8665 -0.6358 -1.7706
  144OSM   H11B15816   1.713   6.119   7.500  1.6535 -0.3150 -0.7447
  144OSM      P15817   1.945   5.984   7.586  0.2309  0.0950  0.4078
  144OSM    O1315818   2.066   5.960   7.669  0.9270 -0.5422  0.3695
  144OSM    O1415819   1.830   5.891   7.610 -0.0755  0.8862  0.2452
  144OSM    O1115820   1.991   5.999   7.432  0.6222  0.0004  0.3418
  144OSM    O1215821   1.892   6.131   7.603 -0.0860 -0.4778 -0.8364
  144OSM    C1S15822   2.103   6.087   7.404 -0.4494  0.3007 -0.2970
  144OSM    H1S15823   2.198   6.032   7.422  0.9055  2.7059  0.3627
  144OSM    H1T15824   2.098   6.176   7.470 -2.7567 -0.5981  0.8531
  144OSM     NF15825   2.217   6.240   7.249  0.3280  0.2443  0.4687
  144OSM    HNF15826   2.188   6.335   7.248  1.9828  0.8914  3.1194
  144OSM    C2S15827   2.105   6.144   7.258 -0.2156  0.3897  0.3997
  144OSM    H2S15828   2.122   6.066   7.182  0.5816 -1.0656  1.9922
  144OSM    C3S15829   1.959   6.204   7.222  0.6193  0.0529  0.6425
  144OSM    H3S15830   1.946   6.288   7.294  1.2374 -0.5363  1.4708
  144OSM     O315831   1.844   6.122   7.255  0.5299 -0.8376  0.4972
  144OSM    HO315832   1.888   6.052   7.305  2.4208  1.1489  1.8062
  144OSM    C4S15833   1.954   6.232   7.073  0.0023  0.2026  0.0573
  144OSM    H4S15834   1.935   6.144   7.010 -3.8434  1.2183 -0.4687
  144OSM    C5S15835   1.930   6.349   7.006 -0.3206  0.8645 -0.4230
  144OSM    H5S15836   1.928   6.437   7.071  1.9157 -0.6171  1.8314
  144OSM    C6S15837   1.918   6.369   6.851 -0.1966 -0.4082  0.6285
  144OSM    H6S15838   1.983   6.454   6.821  1.6966 -2.3047 -1.0059
  144OSM    H6T15839   1.811   6.389   6.830  0.0447  1.5540  1.0741
  144OSM    C7S15840   1.964   6.244   6.773 -0.2216  0.0620 -0.1592
  144OSM    H7S15841   1.893   6.162   6.798 -0.4690  0.9413  2.2770
  144OSM    H7T15842   2.059   6.215   6.823 -0.4843  1.3323  1.1580
  144OSM    C8S15843   1.996   6.272   6.626 -0.2611  0.1683  0.7597
  144OSM    H8S15844   2.043   6.180   6.588 -1.4123  1.2441 -3.8499
  144OSM    H8T15845   2.067   6.356   6.610 -2.4677  2.3707  1.8542
  144OSM    C9S15846   1.876   6.299   6.538  0.7295 -0.0387 -0.0598
  144OSM    H9S15847   1.861   6.405   6.509 -1.4301 -0.8708 -2.4423
  144OSM    H9T15848   1.789   6.266   6.598 -0.2244  1.4945 -0.5232
  144OSM   C10S15849   1.889   6.240   6.398  1.3441 -0.1455 -0.0278
  144OSM   H10S15850   1.892   6.131   6.418  1.0665 -0.5247 -1.9033
  144OSM   H10T15851   1.989   6.264   6.355  1.2284 -1.6018 -1.1847
  144OSM   C11S15852   1.784   6.281   6.298 -0.2548  0.0575  0.1990
  144OSM   H11S15853   1.815   6.374   6.246 -0.0974 -0.9676 -1.6275
  144OSM   H11T15854   1.690   6.305   6.353 -1.5128 -1.6115 -1.1174
  144OSM   C12S15855   1.761   6.173   6.193 -0.4401  0.0902 -0.5025
  144OSM   H12S15856   1.734   6.082   6.250  0.6952  0.3961  0.5702
  144OSM   H12T15857   1.852   6.160   6.131 -1.6311  1.3933 -2.6564
  144OSM   C13S15858   1.648   6.206   6.092 -0.0130 -0.0543  0.5828
  144OSM   H13S15859   1.659   6.293   6.024  0.7717 -1.4373 -1.1365
  144OSM   H13T15860   1.552   6.226   6.145 -0.2326 -0.6056  0.4042
  144OSM   C14S15861   1.627   6.094   5.987 -0.4275 -0.0341 -0.5725
  144OSM   H14S15862   1.563   6.010   6.019  1.3159 -0.9163  0.7790
  144OSM   H14T15863   1.727   6.052   5.965  0.7304  2.2260  0.0043
  144OSM   C15S15864   1.564   6.149   5.857 -0.5401 -0.3327 -0.2616
  144OSM   H15S15865   1.634   6.211   5.796 -0.2476 -0.0849  0.3222
  144OSM   H15T15866   1.484   6.224   5.876  1.3545  2.0774 -1.2055
  144OSM   C16S15867   1.527   6.034   5.766  0.5412 -0.1475  0.2590
  144OSM   H16S15868   1.431   5.993   5.803  0.7847  1.9581  3.6192
  144OSM   H16T15869   1.607   5.956   5.773 -1.0352 -2.1630 -2.2847
  144OSM   C17S15870   1.503   6.065   5.618 -0.4177 -0.1430 -0.3235
  144OSM   H17S15871   1.588   6.118   5.571 -2.3467  2.5521 -0.9715
  144OSM   H17T15872   1.427   6.145   5.609  1.1708  1.4243 -0.3443
  144OSM   C18S15873   1.476   5.939   5.537 -0.2604 -0.2710 -0.3665
  144OSM   H18S15874   1.395   5.880   5.584 -1.2365  1.5939  0.3635
  144OSM   H18T15875   1.559   5.867   5.517 -0.4111 -0.4049 -0.5039
  144OSM   H18U15876   1.445   5.970   5.435  0.9069  0.8834 -0.4031
  144OSM    C1F15877   2.350   6.197   7.232 -0.2832 -0.1014 -0.1398
  144OSM     OF15878   2.374   6.074   7.234 -0.2772  0.0146 -0.5214
  144OSM    C2F15879   2.453   6.311   7.224  0.7137 -0.0113  0.8159
  144OSM    H2F15880   2.542   6.272   7.278  3.0724  1.1502 -1.9664
  144OSM    H2G15881   2.430   6.404   7.280  0.4477  1.3838 -1.4865
  144OSM    C3F15882   2.502   6.340   7.075  0.2943  1.0020  0.3545
  144OSM    H3F15883   2.534   6.244   7.030 -0.6767  0.8932 -0.1238
  144OSM    H3G15884   2.595   6.399   7.090  1.0567 -0.3578  1.2440
  144OSM    C4F15885   2.390   6.405   6.987  0.2461  0.7998  0.4842
  144OSM    H4F15886   2.336   6.488   7.037 -1.1388  0.1424  0.1426
  144OSM    H4G15887   2.317   6.323   6.967  2.7380 -1.3925 -0.0975
  144OSM    C5F15888   2.437   6.459   6.854 -0.9114  0.1876  0.2999
  144OSM    H5F15889   2.485   6.370   6.807 -0.9392  0.8412 -1.0290
  144OSM    H5G15890   2.522   6.529   6.872 -1.2633 -0.0172  3.1742
  144OSM    C6F15891   2.331   6.500   6.757 -0.3517  0.6313  0.1791
  144OSM    H6F15892   2.272   6.579   6.808  1.4014  1.8451  0.4167
  144OSM    H6G15893   2.271   6.416   6.717 -0.0351  0.7992 -0.6772
  144OSM    C7F15894   2.394   6.579   6.637 -0.2390 -0.4099  0.2649
  144OSM    H7F15895   2.481   6.524   6.595 -0.4790  0.2383 -1.1467
  144OSM    H7G15896   2.433   6.675   6.677 -0.2673 -1.0099  1.7684
  144OSM    C8F15897   2.297   6.607   6.519  0.5003  0.0187 -0.7607
  144OSM    H8F15898   2.234   6.690   6.559 -0.0888 -0.5029 -0.5904
  144OSM    H8G15899   2.239   6.512   6.513  1.0194 -0.4072  0.4850
  144OSM    C9F15900   2.360   6.660   6.397  0.1106 -0.5952  0.6383
  144OSM    H9F15901   2.434   6.737   6.419  1.4061 -2.1530  2.0135
  144OSM   C10F15902   2.329   6.630   6.269 -0.3325  0.4027  0.6140
  144OSM   H10F15903   2.388   6.673   6.186 -0.7470 -0.4095 -0.1125
  144OSM   C11F15904   2.235   6.523   6.221 -0.4291  0.0649  0.0086
  144OSM   H11F15905   2.132   6.561   6.239  0.0640  0.8093  1.4154
  144OSM   H11G15906   2.234   6.429   6.280 -3.6441 -0.8080 -1.1975
  144OSM   C12F15907   2.246   6.495   6.077 -0.4105 -0.0422  0.3425
  144OSM   H12F15908   2.348   6.468   6.045  0.1451  2.5468 -0.2937
  144OSM   H12G15909   2.214   6.581   6.014 -1.0336 -0.9902 -0.6566
  144OSM   C13F15910   2.154   6.374   6.052 -0.8226 -0.0281  0.2403
  144OSM   H13F15911   2.053   6.400   6.090 -0.1359  1.1966  1.2943
  144OSM   H13G15912   2.202   6.288   6.104  0.0627 -0.9937 -2.0352
  144OSM   C14F15913   2.138   6.323   5.902 -0.4184  0.1487  0.3141
  144OSM   H14F15914   2.239   6.288   5.873  0.6857  1.1556  2.6631
  144OSM   H14G15915   2.102   6.403   5.834 -1.1497 -0.1956  0.2853
  144OSM   C15F15916   2.043   6.202   5.893  0.6915  0.4798  0.0839
  144OSM   H15F15917   1.946   6.238   5.932  1.3728 -0.2904  2.6931
  144OSM   H15G15918   2.068   6.124   5.968  0.3825 -0.3985 -0.7005
  144OSM   C16F15919   2.023   6.133   5.763 -0.3595  0.2428  0.5866
  144OSM   H16F15920   2.123   6.098   5.728  0.1939  1.4266  0.9387
  144OSM   H16G15921   1.994   6.211   5.690 -1.3467 -0.4125  0.2682
  144OSM   C17F15922   1.926   6.017   5.774 -0.3696  0.6070 -0.0533
  144OSM   H17F15923   1.828   6.069   5.783 -0.5698  0.0810  0.9788
  144OSM   H17G15924   1.940   5.957   5.867 -0.4864 -0.7353 -0.8700
  144OSM   C18F15925   1.933   5.930   5.650  0.8901  0.1069 -0.7037
  144OSM   H18F15926   1.846   5.861   5.658  1.3569 -0.4318 -0.1903
  144OSM   H18G15927   2.022   5.864   5.645 -0.0400 -1.2185 -0.2960
  144OSM   H18H15928   1.925   5.984   5.553 -0.9100  1.4241  0.1240
  145OSM      N15929   2.390   1.956   7.529 -0.4695 -0.6029  0.1525
  145OSM    C1515930   2.284   2.042   7.596 -0.4746 -0.0698  0.2354
  145OSM   H15A15931   2.272   2.133   7.539  0.0593 -0.8650 -1.2113
  145OSM   H15B15932   2.312   2.075   7.695 -1.8388  2.2598 -0.0865
  145OSM   H15C15933   2.187   1.996   7.594 -1.7442  2.4379 -1.3837
  145OSM    C1415934   2.384   1.834   7.604 -0.4314  0.1891 -0.7808
  145OSM   H14A15935   2.474   1.780   7.582 -0.6437 -1.6710  2.3200
  145OSM   H14B15936   2.304   1.766   7.579  0.9138 -1.4314 -0.8418
  145OSM   H14C15937   2.375   1.861   7.708  4.0949  1.0381 -0.4177
  145OSM    C1315938   2.374   1.945   7.382  0.5261 -0.3336  0.1149
  145OSM   H13A15939   2.343   2.038   7.336  0.3836 -0.5512 -0.2317
  145OSM   H13B15940   2.291   1.885   7.350 -0.1307  0.4954  0.2195
  145OSM   H13C15941   2.463   1.901   7.340 -0.1171 -0.7314 -0.8576
  145OSM    C1215942   2.526   2.030   7.568  0.3115  0.7769  0.1605
  145OSM   H12A15943   2.530   2.044   7.675 -1.0499 -1.2358  0.5323
  145OSM   H12B15944   2.530   2.124   7.515  0.1213  1.7786  1.8254
  145OSM    C1115945   2.653   1.948   7.519  0.1630  0.2459 -0.2760
  145OSM   H11A15946   2.738   1.995   7.572  1.1851 -3.4677  1.7548
  145OSM   H11B15947   2.664   1.961   7.409 -0.9977 -1.9595 -0.7092
  145OSM      P15948   2.676   1.695   7.451 -0.2945  0.0777  0.5356
  145OSM    O1315949   2.797   1.621   7.478 -0.2223 -0.2762 -0.1997
  145OSM    O1415950   2.545   1.626   7.449 -0.0037  0.3138 -0.7558
  145OSM    O1115951   2.704   1.767   7.313  0.1554  0.1162 -0.0685
  145OSM    O1215952   2.664   1.806   7.557 -0.3223  0.2371  0.2961
  145OSM    C1S15953   2.754   1.693   7.200 -0.5819 -0.1246  0.2307
  145OSM    H1S15954   2.729   1.584   7.198  1.6040 -0.6626 -0.8687
  145OSM    H1T15955   2.865   1.695   7.200 -0.5213 -1.6963 -0.8109
  145OSM     NF15956   2.783   1.673   6.974  0.2825 -0.0623  0.5728
  145OSM    HNF15957   2.862   1.710   6.927 -0.6040 -0.5230 -1.3956
  145OSM    C2S15958   2.719   1.756   7.066  0.0386  0.3878  0.7892
  145OSM    H2S15959   2.609   1.761   7.053  0.0871  0.3096  0.3339
  145OSM    C3S15960   2.760   1.908   7.051  0.0022 -0.7286 -0.1900
  145OSM    H3S15961   2.870   1.910   7.069 -0.1446 -1.5069  0.9177
  145OSM     O315962   2.718   2.005   7.151  0.5933 -0.2546 -0.2141
  145OSM    HO315963   2.665   1.948   7.207 -1.3957  0.1672 -1.5851
  145OSM    C4S15964   2.740   1.966   6.907  2.0691  0.0413  0.1908
  145OSM    H4S15965   2.794   1.930   6.818 -0.1738  0.6115 -1.5158
  145OSM    C5S15966   2.644   2.059   6.870  0.0754 -0.1819  0.8430
  145OSM    H5S15967   2.595   2.114   6.952  0.5927  2.4464 -0.4739
  145OSM    C6S15968   2.620   2.118   6.725  0.4772  0.3793  0.3981
  145OSM    H6S15969   2.645   2.226   6.723  0.4704  0.3658 -1.5551
  145OSM    H6T15970   2.509   2.131   6.722  0.6899  2.0737 -1.6802
  145OSM    C7S15971   2.680   2.049   6.606  0.1300 -0.4013  0.0078
  145OSM    H7S15972   2.652   1.943   6.622 -3.7087  0.3567 -0.7513
  145OSM    H7T15973   2.791   2.053   6.609  0.0778  0.8430  0.7924
  145OSM    C8S15974   2.638   2.102   6.470 -0.1675 -0.1067  0.1956
  145OSM    H8S15975   2.681   2.203   6.456  0.5264  0.1832  3.4806
  145OSM    H8T15976   2.527   2.111   6.468 -0.1169  0.4495 -0.4345
  145OSM    C9S15977   2.673   2.010   6.351 -0.2092  0.3800  0.1757
  145OSM    H9S15978   2.627   1.909   6.362 -1.5906  0.9363 -0.2498
  145OSM    H9T15979   2.783   1.995   6.343 -0.4035 -0.0532 -2.5643
  145OSM   C10S15980   2.628   2.062   6.222  0.1277 -0.2238 -0.2544
  145OSM   H10S15981   2.673   2.161   6.205  0.5825 -0.1628  1.1587
  145OSM   H10T15982   2.516   2.064   6.223  0.1337 -0.1035  0.2483
  145OSM   C11S15983   2.671   1.972   6.104  1.0801 -0.7144  0.1132
  145OSM   H11S15984   2.636   1.870   6.130 -2.2316 -0.4630 -2.6381
  145OSM   H11T15985   2.782   1.967   6.108  1.2322  1.9529  1.5795
  145OSM   C12S15986   2.621   2.024   5.972  0.2100 -0.1688 -0.0184
  145OSM   H12S15987   2.642   2.127   5.938  1.4340 -0.4061 -0.0321
  145OSM   H12T15988   2.512   2.003   5.969 -0.0778  0.8312  1.9335
  145OSM   C13S15989   2.664   1.932   5.853 -0.3008 -0.0462 -0.2052
  145OSM   H13S15990   2.633   1.825   5.863  0.0955 -0.2456 -0.9995
  145OSM   H13T15991   2.775   1.940   5.843 -0.4685  1.9214 -0.9302
  145OSM   C14S15992   2.602   1.973   5.717 -0.5256  0.1327 -0.3728
  145OSM   H14S15993   2.599   2.079   5.684  1.9752 -0.2657 -2.1375
  145OSM   H14T15994   2.496   1.941   5.718 -0.2870 -0.7619  1.9522
  145OSM   C15S15995   2.677   1.901   5.597 -0.0526  0.8034  0.5898
  145OSM   H15S15996   2.722   1.805   5.630 -0.7553  0.8264  1.6379
  145OSM   H15T15997   2.755   1.975   5.568  0.5206 -0.2070 -0.5437
  145OSM   C16S15998   2.591   1.867   5.475 -0.2465 -0.0402 -0.1594
  145OSM   H16S15999   2.657   1.848   5.388 -1.1682 -0.8472 -0.7043
  145OSM   H16T16000   2.533   1.960   5.457  0.9917  0.5627 -1.1635
  145OSM   C17S16001   2.500   1.748   5.506 -0.0218  0.5642 -0.0635
  145OSM   H17S16002   2.425   1.779   5.582 -0.5587 -1.1080  0.1318
  145OSM   H17T16003   2.562   1.660   5.532 -0.6535 -1.1000 -3.5193
  145OSM   C18S16004   2.425   1.714   5.369  0.0765  0.5866  0.2463
  145OSM   H18S16005   2.415   1.816   5.325 -0.3809  1.1888  1.6707
  145OSM   H18T16006   2.324   1.671   5.387  0.2745 -0.5947 -1.3204
  145OSM   H18U16007   2.488   1.648   5.307  0.3256 -0.2308  1.3394
  145OSM    C1F16008   2.743   1.548   6.938  0.2814 -0.1498 -0.3791
  145OSM     OF16009   2.629   1.512   6.972  0.3735  0.2198  0.2448
  145OSM    C2F16010   2.832   1.471   6.846 -0.5954  0.2766  0.5514
  145OSM    H2F16011   2.934   1.514   6.854 -0.5503  0.1184  0.8277
  145OSM    H2G16012   2.801   1.468   6.739  1.1100  0.6453  0.0173
  145OSM    C3F16013   2.851   1.319   6.869  0.7903 -0.0955 -0.0592
  145OSM    H3F16014   2.752   1.267   6.868  0.8620 -0.5159  3.2301
  145OSM    H3G16015   2.889   1.305   6.972  0.4863  0.1591  0.0900
  145OSM    C4F16016   2.955   1.260   6.770 -0.1031 -0.5048 -0.1264
  145OSM    H4F16017   2.995   1.164   6.809  1.3110  0.1079 -0.0012
  145OSM    H4G16018   3.041   1.330   6.780 -2.0014  1.6665  2.9170
  145OSM    C5F16019   2.892   1.256   6.624 -0.2808  0.5034 -0.3038
  145OSM    H5F16020   2.907   1.361   6.591 -1.3113  1.0974  1.0025
  145OSM    H5G16021   2.782   1.250   6.636 -0.2688  1.6523  0.5792
  145OSM    C6F16022   2.941   1.148   6.531 -0.3012 -0.1260  0.5102
  145OSM    H6F16023   2.913   1.050   6.575 -0.3304 -1.6697 -2.6419
  145OSM    H6G16024   3.051   1.155   6.517 -0.2180  1.5874  1.6640
  145OSM    C7F16025   2.862   1.149   6.403  0.7746 -0.3333  0.1524
  145OSM    H7F16026   2.758   1.127   6.436  1.1415  1.0583  2.4868
  145OSM    H7G16027   2.891   1.062   6.341 -1.8090  0.4122 -2.3623
  145OSM    C8F16028   2.878   1.278   6.320  0.1678  0.3024 -0.0385
  145OSM    H8F16029   2.980   1.289   6.276  0.1433 -0.8932 -0.4236
  145OSM    H8G16030   2.861   1.372   6.377  0.6238  0.2150  0.2517
  145OSM    C9F16031   2.776   1.272   6.206 -0.0022 -0.3309  0.3218
  145OSM    H9F16032   2.695   1.347   6.215 -0.0023 -0.2160 -0.5684
  145OSM   C10F16033   2.769   1.184   6.110  0.0183  0.6932  0.1616
  145OSM   H10F16034   2.697   1.204   6.030  0.3996  0.2959 -0.2868
  145OSM   C11F16035   2.879   1.088   6.077  0.3360  0.1327 -0.7313
  145OSM   H11F16036   2.857   0.988   6.121 -1.4168  0.9627  0.3787
  145OSM   H11G16037   2.976   1.123   6.120  0.3038  1.1165 -1.4385
  145OSM   C12F16038   2.901   1.072   5.927  0.0362  0.4942  0.0508
  145OSM   H12F16039   2.808   1.024   5.889  0.0513  1.1448 -0.8335
  145OSM   H12G16040   2.982   0.999   5.907  2.0024  2.3965  0.6453
  145OSM   C13F16041   2.937   1.193   5.848  0.3208  0.0819 -0.4845
  145OSM   H13F16042   3.040   1.227   5.870  0.5667  0.0008 -1.4847
  145OSM   H13G16043   2.873   1.271   5.896 -0.3592 -1.1965  0.7599
  145OSM   C14F16044   2.923   1.169   5.703  0.1360 -1.2578  0.2085
  145OSM   H14F16045   2.853   1.084   5.691 -2.6416  0.6704  1.5310
  145OSM   H14G16046   3.021   1.129   5.669  1.2455 -0.6092  2.4091
  145OSM   C15F16047   2.863   1.280   5.607  0.4128  0.9536 -0.5899
  145OSM   H15F16048   2.865   1.234   5.505 -4.5900  2.6673 -1.7744
  145OSM   H15G16049   2.924   1.373   5.608  0.6522  0.8134 -1.3453
  145OSM   C16F16050   2.710   1.309   5.634 -0.8185  0.2990  0.0995
  145OSM   H16F16051   2.689   1.356   5.732  0.6189 -2.1489  1.6969
  145OSM   H16G16052   2.652   1.214   5.641 -1.1191  0.4529 -0.2513
  145OSM   C17F16053   2.645   1.378   5.514  0.3026 -0.1396  0.1174
  145OSM   H17F16054   2.664   1.304   5.433  1.9047 -0.5333  0.8267
  145OSM   H17G16055   2.697   1.473   5.490 -2.5603  1.1944 -1.3778
  145OSM   C18F16056   2.496   1.402   5.527 -0.3332  0.0668  0.0101
  145OSM   H18F16057   2.474   1.488   5.595 -3.2118 -0.2309 -0.4276
  145OSM   H18G16058   2.448   1.314   5.574  0.4656 -0.3525  0.0479
  145OSM   H18H16059   2.445   1.422   5.431 -1.2019 -0.6272  0.3145
  146OSM      N16060   1.623   3.873   7.700  0.4281 -0.2331  0.1311
  146OSM    C1516061   1.725   3.977   7.707  0.5389 -0.3941  0.2146
  146OSM   H15A16062   1.725   4.049   7.626 -2.0108  0.9372  1.3038
  146OSM   H15B16063   1.821   3.928   7.697  1.5050  1.2337  1.0708
  146OSM   H15C16064   1.731   4.036   7.797  1.1224  0.0750 -0.1238
  146OSM    C1416065   1.653   3.749   7.776  0.7935  0.5577  0.7164
  146OSM   H14A16066   1.749   3.713   7.740  0.2463 -2.1972  1.7779
  146OSM   H14B16067   1.580   3.674   7.753  1.5433  0.1279 -0.3668
  146OSM   H14C16068   1.664   3.768   7.882  1.4887  1.2389  0.5352
  146OSM    C1316069   1.488   3.924   7.740  0.8109 -0.4338 -0.1742
  146OSM   H13A16070   1.494   3.954   7.844  1.0788  0.3266 -0.4104
  146OSM   H13B16071   1.411   3.848   7.731 -0.9859  1.3605 -0.5289
  146OSM   H13C16072   1.450   4.002   7.676 -0.0845 -0.2340  0.5707
  146OSM    C1216073   1.605   3.836   7.551 -0.2262 -0.3895 -0.5613
  146OSM   H12A16074   1.700   3.792   7.525  0.4696 -0.2035  1.4780
  146OSM   H12B16075   1.587   3.930   7.501 -1.6812  0.5983  1.6410
  146OSM    C1116076   1.491   3.740   7.499  0.4037  0.0223 -0.7928
  146OSM   H11A16077   1.524   3.717   7.396  2.0507 -0.0130 -0.2911
  146OSM   H11B16078   1.392   3.791   7.488  0.4237  1.3678  3.3850
  146OSM      P16079   1.515   3.478   7.541 -0.3162 -0.0537  0.0808
  146OSM    O1316080   1.618   3.424   7.639  0.0487 -1.3577  0.0347
  146OSM    O1416081   1.386   3.401   7.545 -0.6092  0.1085  0.2799
  146OSM    O1116082   1.578   3.488   7.392 -0.2356  0.0995  0.9592
  146OSM    O1216083   1.481   3.627   7.586  0.9558  0.4018 -0.3092
  146OSM    C1S16084   1.644   3.374   7.338  0.0021  0.0563  0.6571
  146OSM    H1S16085   1.577   3.285   7.330  0.5140 -0.3658  0.9610
  146OSM    H1T16086   1.731   3.340   7.398  2.5940  2.9800 -1.1610
  146OSM     NF16087   1.733   3.272   7.119 -0.1587 -0.6776  0.2072
  146OSM    HNF16088   1.833   3.274   7.112 -0.0089 -1.3928  1.7223
  146OSM    C2S16089   1.671   3.392   7.186  0.0710  0.1496  0.2745
  146OSM    H2S16090   1.569   3.411   7.146  0.1682 -0.5089 -0.3092
  146OSM    C3S16091   1.752   3.527   7.154 -1.0042  0.1053 -0.6670
  146OSM    H3S16092   1.862   3.519   7.169 -1.1982 -2.2471 -0.0314
  146OSM     O316093   1.727   3.639   7.240 -0.2913  0.4788  0.6511
  146OSM    HO316094   1.672   3.598   7.307  3.1735 -1.5430  2.5412
  146OSM    C4S16095   1.744   3.562   7.008  0.2999 -0.4876 -0.6115
  146OSM    H4S16096   1.817   3.507   6.948  1.0176 -0.5791  0.3298
  146OSM    C5S16097   1.652   3.632   6.941  0.4562 -0.2716  0.4976
  146OSM    H5S16098   1.563   3.668   6.995 -0.3764 -1.6155  0.0717
  146OSM    C6S16099   1.647   3.640   6.790  0.1197 -0.6796  0.0445
  146OSM    H6S16100   1.652   3.745   6.755 -4.7520 -0.5609 -0.8834
  146OSM    H6T16101   1.548   3.599   6.764 -0.6772  1.1855 -0.0121
  146OSM    C7S16102   1.758   3.568   6.713  0.9330  0.3069  0.2462
  146OSM    H7S16103   1.770   3.461   6.739  1.7846  0.8734  2.4214
  146OSM    H7T16104   1.856   3.607   6.749  1.2169  0.6001 -0.8015
  146OSM    C8S16105   1.745   3.581   6.555 -0.2040  0.2354 -0.8248
  146OSM    H8S16106   1.740   3.688   6.523  0.9630  0.6589  0.3166
  146OSM    H8T16107   1.644   3.540   6.536  0.1266 -2.2511  2.0324
  146OSM    C9S16108   1.837   3.485   6.491 -0.0919  0.3338  0.0373
  146OSM    H9S16109   1.842   3.390   6.547  0.3755  0.5528  0.3731
  146OSM    H9T16110   1.939   3.529   6.485  0.4798 -0.9582 -0.0109
  146OSM   C10S16111   1.798   3.445   6.344  0.3331  0.1786  0.6768
  146OSM   H10S16112   1.777   3.536   6.284 -0.3720  0.4857  1.3850
  146OSM   H10T16113   1.696   3.402   6.352  0.0179  1.0650  1.6354
  146OSM   C11S16114   1.910   3.365   6.275 -0.0552 -0.3665 -0.2752
  146OSM   H11S16115   1.949   3.291   6.348 -1.4989  1.8262  2.9844
  146OSM   H11T16116   1.996   3.433   6.255  1.2888 -1.8274  0.3143
  146OSM   C12S16117   1.850   3.298   6.153 -0.3209 -0.0217  0.2318
  146OSM   H12S16118   1.812   3.375   6.082 -0.3766 -1.2189 -1.0917
  146OSM   H12T16119   1.763   3.240   6.188 -0.8420 -0.3258 -1.4600
  146OSM   C13S16120   1.946   3.207   6.083  0.0298  0.4790 -0.2884
  146OSM   H13S16121   1.956   3.116   6.145  0.4534  0.3286 -0.5732
  146OSM   H13T16122   2.048   3.252   6.091  1.5251 -2.7749  0.3348
  146OSM   C14S16123   1.913   3.190   5.943 -0.1696  0.8280 -0.5292
  146OSM   H14S16124   1.896   3.285   5.887  0.9054 -0.1694 -2.6382
  146OSM   H14T16125   1.817   3.133   5.941  0.1393  0.2796 -0.0460
  146OSM   C15S16126   2.006   3.112   5.855 -0.2289 -0.2933  0.6089
  146OSM   H15S16127   2.004   3.006   5.890  1.7747 -1.1165 -1.5092
  146OSM   H15T16128   2.108   3.149   5.879 -1.2495  1.2546  2.9856
  146OSM   C16S16129   2.001   3.118   5.704  0.4983 -0.2930 -0.0274
  146OSM   H16S16130   2.063   3.035   5.665  0.4354 -0.4113  0.1240
  146OSM   H16T16131   2.047   3.215   5.676  1.2921 -0.4429  0.7137
  146OSM   C17S16132   1.861   3.107   5.651 -0.1890 -0.0331 -0.6233
  146OSM   H17S16133   1.785   3.159   5.714 -0.2150 -1.5302  0.6540
  146OSM   H17T16134   1.827   3.002   5.660 -1.0675  0.1871 -1.2611
  146OSM   C18S16135   1.854   3.140   5.497  0.4692 -0.1114 -0.7260
  146OSM   H18S16136   1.869   3.249   5.482 -0.5722  0.2078  0.3601
  146OSM   H18T16137   1.757   3.110   5.451 -0.2622  1.4456 -0.2675
  146OSM   H18U16138   1.927   3.081   5.438  0.4283 -0.0069 -0.8809
  146OSM    C1F16139   1.672   3.153   7.114 -0.4698  0.6177 -0.0736
  146OSM     OF16140   1.560   3.149   7.151  0.6110  0.4521 -0.3068
  146OSM    C2F16141   1.755   3.034   7.083  0.3944 -0.0939  0.8388
  146OSM    H2F16142   1.815   3.013   7.174  1.1808  1.4672  0.7197
  146OSM    H2G16143   1.823   3.066   7.001  0.9454 -0.9291  0.9664
  146OSM    C3F16144   1.677   2.901   7.028  0.4735 -0.5606  0.1164
  146OSM    H3F16145   1.616   2.933   6.940 -0.7401 -2.5379  0.1639
  146OSM    H3G16146   1.600   2.866   7.100 -1.9408 -1.6218 -2.7369
  146OSM    C4F16147   1.767   2.788   6.985  0.3240  0.3471  0.0481
  146OSM    H4F16148   1.697   2.702   6.974  0.4468  0.4186 -1.4284
  146OSM    H4G16149   1.844   2.753   7.057  0.5092 -0.0542 -0.3374
  146OSM    C5F16150   1.829   2.811   6.848 -0.3359  0.5543  0.9062
  146OSM    H5F16151   1.932   2.849   6.865 -0.1895  0.1201  1.0090
  146OSM    H5G16152   1.775   2.884   6.784  0.1070 -1.5292 -2.0306
  146OSM    C6F16153   1.849   2.679   6.763  0.3921 -0.1958 -0.6537
  146OSM    H6F16154   1.752   2.630   6.740 -0.6174  0.4034  1.9758
  146OSM    H6G16155   1.916   2.620   6.829  1.2472  0.9627 -0.4518
  146OSM    C7F16156   1.921   2.701   6.637 -0.1101 -0.4132  0.1145
  146OSM    H7F16157   2.019   2.750   6.647 -0.9534  1.1265  1.1592
  146OSM    H7G16158   1.858   2.764   6.571 -0.2146  0.5172  1.0879
  146OSM    C8F16159   1.942   2.576   6.545  0.1357 -0.0429 -0.5411
  146OSM    H8F16160   1.991   2.496   6.604 -1.2860 -1.2809 -0.9902
  146OSM    H8G16161   2.008   2.617   6.465 -0.4743  2.8334  0.2972
  146OSM    C9F16162   1.820   2.520   6.490 -0.3660  0.0781  0.0694
  146OSM    H9F16163   1.727   2.522   6.549  1.1769  0.9924  2.6615
  146OSM   C10F16164   1.806   2.471   6.362  0.5075 -0.1617 -0.2819
  146OSM   H10F16165   1.714   2.414   6.347 -0.0017  0.7736 -0.7990
  146OSM   C11F16166   1.902   2.454   6.247 -0.4581  0.2503  0.4688
  146OSM   H11F16167   1.955   2.356   6.255 -0.4742  0.1680 -0.3418
  146OSM   H11G16168   1.984   2.528   6.251  0.6256 -0.9196  0.7157
  146OSM   C12F16169   1.822   2.458   6.115 -1.1778 -0.2559  0.3150
  146OSM   H12F16170   1.791   2.556   6.073  0.1267 -0.2104 -0.5963
  146OSM   H12G16171   1.734   2.390   6.113 -0.9454 -0.6283 -2.9053
  146OSM   C13F16172   1.920   2.402   6.005  0.8732 -0.4196 -0.7288
  146OSM   H13F16173   1.936   2.298   6.041  1.3055  0.1085  0.6633
  146OSM   H13G16174   2.015   2.459   6.015  0.7876 -0.4230  0.2341
  146OSM   C14F16175   1.853   2.407   5.866  0.2438 -0.2814  0.6333
  146OSM   H14F16176   1.845   2.513   5.836 -0.7888 -0.5291 -0.0045
  146OSM   H14G16177   1.932   2.368   5.798  0.1199  0.3881  0.1037
  146OSM   C15F16178   1.727   2.322   5.853 -0.2935 -0.6292  0.4894
  146OSM   H15F16179   1.651   2.357   5.925  0.1671 -0.1032  0.7202
  146OSM   H15G16180   1.761   2.217   5.871  2.5180  0.3987  1.7209
  146OSM   C16F16181   1.666   2.330   5.712 -0.5248 -0.7351 -0.3744
  146OSM   H16F16182   1.628   2.432   5.689  0.8149  0.1520  1.1377
  146OSM   H16G16183   1.586   2.253   5.704  0.5122 -1.9564  0.5204
  146OSM   C17F16184   1.761   2.274   5.610 -0.5516 -0.6120 -0.3004
  146OSM   H17F16185   1.806   2.190   5.667 -2.2986 -1.0607  0.4896
  146OSM   H17G16186   1.850   2.339   5.595 -1.6157  1.3483  1.3906
  146OSM   C18F16187   1.704   2.229   5.476  0.1563  0.0227 -0.4468
  146OSM   H18F16188   1.782   2.197   5.404 -0.1342 -1.5968 -0.0945
  146OSM   H18G16189   1.657   2.319   5.431  1.6257  2.1877  2.0660
  146OSM   H18H16190   1.623   2.152   5.485  0.3817 -0.0093  2.5229
  147OSM      N16191   3.285   1.046   3.031 -0.1646  0.3851  0.6087
  147OSM    C1516192   3.358   1.173   3.070  0.2556 -0.3221  0.6349
  147OSM   H15A16193   3.453   1.141   3.110  0.3949  0.9317  1.3684
  147OSM   H15B16194   3.302   1.238   3.136  2.7493  2.2181  0.4285
  147OSM   H15C16195   3.369   1.221   2.974  1.1874 -1.3787  0.1910
  147OSM    C1416196   3.179   1.083   2.926 -0.1623  0.7811  0.5688
  147OSM   H14A16197   3.112   1.003   2.899 -0.3389  0.8145  0.9061
  147OSM   H14B16198   3.239   1.115   2.842 -0.6664 -3.2183 -1.5431
  147OSM   H14C16199   3.126   1.166   2.970  0.2289  0.7087  1.1818
  147OSM    C1316200   3.373   0.944   2.970 -0.3554 -0.0663  0.3908
  147OSM   H13A16201   3.329   0.846   2.982 -1.0779  0.3757  1.4788
  147OSM   H13B16202   3.470   0.939   3.018 -1.2063  1.3114  2.3817
  147OSM   H13C16203   3.369   0.950   2.862  0.1576 -0.1236  0.3634
  147OSM    C1216204   3.223   0.972   3.151 -0.2394 -0.3334 -0.0432
  147OSM   H12A16205   3.300   0.935   3.217  0.0932 -0.1158 -0.3037
  147OSM   H12B16206   3.168   0.886   3.117 -2.3324  0.8271  0.2380
  147OSM    C1116207   3.123   1.055   3.251  0.0261  0.6048 -0.4802
  147OSM   H11A16208   3.178   1.148   3.277  0.6158 -0.2393  1.4554
  147OSM   H11B16209   3.097   1.002   3.345 -1.6095 -0.5081 -1.5136
  147OSM      P16210   2.887   0.981   3.152 -0.2119  0.4898 -0.2255
  147OSM    O1316211   2.771   1.060   3.112  0.5428  0.2382 -0.1605
  147OSM    O1416212   2.935   0.881   3.057 -0.7921  0.3064 -0.3514
  147OSM    O1116213   2.850   0.907   3.291 -0.0364 -0.8547  0.3702
  147OSM    O1216214   3.003   1.085   3.184 -0.1511 -0.0729  0.3804
  147OSM    C1S16215   2.913   0.781   3.334  0.1183 -0.0944 -0.0634
  147OSM    H1S16216   2.990   0.748   3.261  2.5251  3.0081  0.8430
  147OSM    H1T16217   2.843   0.694   3.334 -1.2074  0.9048  1.4045
  147OSM     NF16218   3.046   0.663   3.498 -0.2430 -0.0758  0.5152
  147OSM    HNF16219   2.990   0.581   3.503  1.7980 -1.6542 -0.8729
  147OSM    C2S16220   2.963   0.784   3.478 -0.3557 -0.6782 -0.3524
  147OSM    H2S16221   3.027   0.875   3.486 -3.1959  1.2878  2.1311
  147OSM    C3S16222   2.846   0.798   3.574 -0.0297 -0.8308  0.3003
  147OSM    H3S16223   2.777   0.712   3.562 -1.1808  0.2475 -1.2827
  147OSM     O316224   2.782   0.920   3.542 -0.6561  0.0356 -0.2881
  147OSM    HO316225   2.807   0.933   3.450 -0.5954 -3.3885 -0.8755
  147OSM    C4S16226   2.902   0.817   3.710  0.1086  0.0924 -0.5815
  147OSM    H4S16227   2.972   0.897   3.737 -0.2944  0.4387 -0.5438
  147OSM    C5S16228   2.880   0.719   3.802 -0.0305 -0.0515  0.8328
  147OSM    H5S16229   2.819   0.633   3.770  2.2039 -0.9603 -1.2491
  147OSM    C6S16230   2.936   0.721   3.938 -0.5374  0.3451  0.0140
  147OSM    H6S16231   2.892   0.640   4.001 -2.4120  1.0865 -0.2898
  147OSM    H6T16232   2.917   0.820   3.984  1.1838  0.4709  0.5517
  147OSM    C7S16233   3.086   0.706   3.929  0.6239  0.2028 -0.3570
  147OSM    H7S16234   3.128   0.797   3.880 -0.0040  0.1668 -0.9767
  147OSM    H7T16235   3.115   0.623   3.861  0.2002  0.9600 -1.4963
  147OSM    C8S16236   3.158   0.687   4.068 -0.2423  0.4343 -0.0752
  147OSM    H8S16237   3.268   0.676   4.055 -0.1232  0.7836  0.6309
  147OSM    H8T16238   3.122   0.587   4.100 -0.0088  0.8032  1.3938
  147OSM    C9S16239   3.136   0.805   4.172  0.9077  0.1802  0.5697
  147OSM    H9S16240   3.027   0.810   4.190  0.4757 -2.6883 -0.8071
  147OSM    H9T16241   3.177   0.891   4.113  0.8902 -1.1368 -1.4675
  147OSM   C10S16242   3.211   0.784   4.305 -0.0010 -0.1280 -0.3156
  147OSM   H10S16243   3.315   0.747   4.293 -0.8222 -3.0862  0.7755
  147OSM   H10T16244   3.174   0.699   4.366  1.9389  1.5076  3.4681
  147OSM   C11S16245   3.196   0.900   4.407 -0.3846  0.0659 -0.2995
  147OSM   H11S16246   3.086   0.911   4.414 -0.5651 -0.8140 -1.4491
  147OSM   H11T16247   3.245   0.986   4.358  1.1630 -1.6457 -1.9325
  147OSM   C12S16248   3.238   0.870   4.550  0.2420 -0.1104 -0.5906
  147OSM   H12S16249   3.345   0.840   4.553 -0.0303 -1.2415 -1.7406
  147OSM   H12T16250   3.181   0.780   4.581  1.2162 -1.1214 -1.6643
  147OSM   C13S16251   3.221   0.988   4.644 -0.4685  0.0007 -0.3905
  147OSM   H13S16252   3.114   1.015   4.637 -0.4681  0.0101 -0.3605
  147OSM   H13T16253   3.271   1.069   4.587 -1.2132 -0.4769 -1.7641
  147OSM   C14S16254   3.275   0.968   4.789 -0.1981  0.2746 -0.5774
  147OSM   H14S16255   3.385   0.950   4.789 -0.3079 -0.6372  1.2937
  147OSM   H14T16256   3.230   0.878   4.835 -1.7152  0.8740 -0.8497
  147OSM   C15S16257   3.247   1.088   4.877  0.5690 -0.6053 -0.2810
  147OSM   H15S16258   3.276   1.068   4.982  4.3081  3.1583 -0.3782
  147OSM   H15T16259   3.137   1.099   4.866  0.6962  1.2640  0.0348
  147OSM   C16S16260   3.309   1.216   4.831 -0.3324 -0.1410  0.0375
  147OSM   H16S16261   3.234   1.295   4.812  0.3301  0.2405 -1.0991
  147OSM   H16T16262   3.371   1.208   4.739  2.6012  1.5074  1.7314
  147OSM   C17S16263   3.403   1.266   4.944  0.5264 -0.1740  0.1624
  147OSM   H17S16264   3.482   1.189   4.961 -2.1520 -2.8298  1.5701
  147OSM   H17T16265   3.344   1.269   5.038  0.7219  1.3673  0.2567
  147OSM   C18S16266   3.461   1.408   4.916 -0.4003  0.0051  0.9465
  147OSM   H18S16267   3.374   1.477   4.906 -0.9877 -0.9875 -1.9386
  147OSM   H18T16268   3.511   1.411   4.816 -2.1380  1.7403  0.0508
  147OSM   H18U16269   3.524   1.442   5.001 -0.8171  0.0781  1.2289
  147OSM    C1F16270   3.175   0.656   3.443  0.6803  0.2057 -0.5625
  147OSM     OF16271   3.237   0.760   3.413  0.3364  1.1625 -0.0804
  147OSM    C2F16272   3.233   0.513   3.417  0.5386  0.0156  0.2944
  147OSM    H2F16273   3.343   0.506   3.400  0.5040 -0.8948  0.3824
  147OSM    H2G16274   3.191   0.486   3.318 -0.4486  0.0135  0.7050
  147OSM    C3F16275   3.178   0.407   3.512 -0.1929  0.9858 -0.5541
  147OSM    H3F16276   3.079   0.421   3.560 -0.1814  3.2063 -1.0487
  147OSM    H3G16277   3.230   0.415   3.610  1.1035  0.0799 -1.1389
  147OSM    C4F16278   3.181   0.261   3.460  0.5358  0.4690  0.0903
  147OSM    H4F16279   3.283   0.247   3.420  0.2754  0.4535 -0.5793
  147OSM    H4G16280   3.109   0.246   3.377  1.9339  0.5875 -1.1815
  147OSM    C5F16281   3.131   0.156   3.561 -0.8583  0.2472 -0.4934
  147OSM    H5F16282   3.036   0.192   3.607 -0.4369 -0.2237  0.7868
  147OSM    H5G16283   3.199   0.154   3.649 -4.0642 -1.7463  2.1581
  147OSM    C6F16284   3.117   0.019   3.495 -0.5987  0.5009  0.3013
  147OSM    H6F16285   3.210  -0.019   3.448 -1.3046  0.1097 -0.8471
  147OSM    H6G16286   3.042   0.018   3.412  0.3217  2.7888 -0.6427
  147OSM    C7F16287   3.073  -0.088   3.587  0.9458 -0.3883 -0.0026
  147OSM    H7F16288   3.062  -0.185   3.535  2.5373  0.1856 -1.4938
  147OSM    H7G16289   2.970  -0.062   3.620  0.5123 -1.3938 -0.5229
  147OSM    C8F16290   3.175  -0.115   3.700  0.1505 -0.0690  0.8458
  147OSM    H8F16291   3.169  -0.037   3.779  0.1426 -0.3834  1.1607
  147OSM    H8G16292   3.276  -0.112   3.655 -1.0499  1.2565 -1.9897
  147OSM    C9F16293   3.149  -0.248   3.763 -0.0872  0.2294  0.2645
  147OSM    H9F16294   3.111  -0.327   3.696 -1.6351  0.6502  0.6128
  147OSM   C10F16295   3.158  -0.276   3.898 -0.7445 -0.2229  0.6293
  147OSM   H10F16296   3.145  -0.380   3.929 -0.2308  0.2158  2.4573
  147OSM   C11F16297   3.200  -0.172   3.999  0.2146  0.4279 -0.1163
  147OSM   H11F16298   3.152  -0.076   3.971 -0.4280 -0.1247 -0.9638
  147OSM   H11G16299   3.310  -0.163   4.000  0.9899 -4.8655  3.1939
  147OSM   C12F16300   3.153  -0.204   4.146  0.0129  0.2943  0.2148
  147OSM   H12F16301   3.197  -0.303   4.172 -0.9357 -0.4988 -1.0505
  147OSM   H12G16302   3.043  -0.218   4.136  0.0804 -0.8286  0.8776
  147OSM   C13F16303   3.182  -0.083   4.236 -0.1642  0.4682  0.3300
  147OSM   H13F16304   3.119  -0.001   4.196 -0.7170  0.2580  0.7543
  147OSM   H13G16305   3.284  -0.039   4.237 -0.7725  2.0146 -0.9261
  147OSM   C14F16306   3.136  -0.106   4.376 -0.3542 -0.4070  0.5140
  147OSM   H14F16307   3.187  -0.198   4.412 -0.0270 -0.2356  0.4892
  147OSM   H14G16308   3.026  -0.124   4.383 -0.4131  0.2358  1.3741
  147OSM   C15F16309   3.160   0.016   4.462  0.1287  0.5447  0.2529
  147OSM   H15F16310   3.081   0.090   4.436 -1.1688 -0.7906  0.2591
  147OSM   H15G16311   3.255   0.056   4.421  0.2964 -0.5433 -0.4579
  147OSM   C16F16312   3.178  -0.009   4.616  0.1866 -0.7794  0.0920
  147OSM   H16F16313   3.259  -0.084   4.625  0.6729 -0.1772  0.8329
  147OSM   H16G16314   3.086  -0.054   4.659 -0.6944  0.4945 -0.3978
  147OSM   C17F16315   3.207   0.119   4.695  0.1735 -0.1824 -0.0732
  147OSM   H17F16316   3.112   0.177   4.691  0.9929  1.1577 -0.9066
  147OSM   H17G16317   3.293   0.171   4.647 -1.4491  1.5455 -1.2424
  147OSM   C18F16318   3.249   0.093   4.844 -0.2259 -0.3271  0.2439
  147OSM   H18F16319   3.265   0.185   4.904  2.1430 -0.9025  0.5726
  147OSM   H18G16320   3.348   0.043   4.844  0.6439  1.3215  0.0087
  147OSM   H18H16321   3.177   0.026   4.896 -0.6569  1.0718  1.5573
  148OSM      N16322   2.902   5.460   3.013  0.4578 -0.2116 -0.3017
  148OSM    C1516323   2.838   5.404   3.133  0.2628 -0.2827  0.4682
  148OSM   H15A16324   2.739   5.446   3.139  0.1088 -0.6185  0.2996
  148OSM   H15B16325   2.901   5.426   3.218  1.1025  0.3682 -0.2931
  148OSM   H15C16326   2.836   5.296   3.134 -0.0585 -0.2827  0.1948
  148OSM    C1416327   2.795   5.453   2.906 -0.2353 -0.1018 -0.5349
  148OSM   H14A16328   2.776   5.351   2.876 -1.2453  0.4687 -1.9480
  148OSM   H14B16329   2.829   5.492   2.811  0.5258 -0.2821 -0.3501
  148OSM   H14C16330   2.704   5.504   2.933 -0.2377 -0.0289 -0.6767
  148OSM    C1316331   2.922   5.612   3.031  0.2540  0.0468 -0.8935
  148OSM   H13A16332   2.965   5.654   2.942  1.9467 -0.1494 -0.2051
  148OSM   H13B16333   2.984   5.628   3.119 -2.8716  0.1787  1.4755
  148OSM   H13C16334   2.831   5.663   3.058 -0.1572 -1.1280  0.0464
  148OSM    C1216335   3.029   5.384   2.967 -0.1142 -0.2063 -0.5114
  148OSM   H12A16336   3.055   5.426   2.871  0.6948  0.0067 -0.2113
  148OSM   H12B16337   2.995   5.288   2.931 -0.2735  0.4420 -2.2067
  148OSM    C1116338   3.139   5.386   3.073  0.7342  0.5801  0.6129
  148OSM   H11A16339   3.217   5.309   3.054 -0.2555 -0.2982  0.0456
  148OSM   H11B16340   3.092   5.357   3.170 -0.5882  1.5823  0.3022
  148OSM      P16341   3.275   5.593   2.985  0.0832 -0.4653  0.2555
  148OSM    O1316342   3.382   5.519   2.917 -0.1473  0.8236  0.0003
  148OSM    O1416343   3.182   5.671   2.903 -0.5923  0.3582 -0.3443
  148OSM    O1116344   3.337   5.699   3.079 -0.4202 -0.0585 -0.0839
  148OSM    O1216345   3.200   5.511   3.095  0.2479 -0.3263 -0.2852
  148OSM    C1S16346   3.270   5.747   3.199  0.3562  0.9128 -0.0641
  148OSM    H1S16347   3.160   5.742   3.188  0.5978 -0.5083 -2.7159
  148OSM    H1T16348   3.286   5.856   3.210  0.2221  0.9237  0.0244
  148OSM     NF16349   3.240   5.762   3.439 -0.7108 -0.1169  0.7312
  148OSM    HNF16350   3.293   5.833   3.486 -1.2324 -0.5536  2.0066
  148OSM    C2S16351   3.305   5.682   3.332 -0.0626 -0.1552  0.0318
  148OSM    H2S16352   3.252   5.585   3.336 -1.1752  0.4428  0.4561
  148OSM    C3S16353   3.455   5.659   3.354  0.6563 -0.1780 -0.2144
  148OSM    H3S16354   3.507   5.753   3.326 -1.0750  0.6041 -0.9780
  148OSM     O316355   3.510   5.559   3.270 -0.0481  0.5969 -0.5930
  148OSM    HO316356   3.435   5.549   3.210 -0.0473  0.3356 -0.5553
  148OSM    C4S16357   3.476   5.616   3.489 -1.0196  1.2124  0.0074
  148OSM    H4S16358   3.440   5.516   3.515  1.9219 -0.1741 -0.7740
  148OSM    C5S16359   3.520   5.692   3.585 -0.1965  0.7006  0.1906
  148OSM    H5S16360   3.539   5.799   3.565 -3.0034  1.3679  0.6263
  148OSM    C6S16361   3.535   5.647   3.722  0.4092  0.7729 -0.5311
  148OSM    H6S16362   3.638   5.652   3.765 -0.2762  3.1853  0.9895
  148OSM    H6T16363   3.501   5.542   3.737  0.7464 -0.1810 -4.9612
  148OSM    C7S16364   3.449   5.730   3.814  0.2162 -0.8054  0.7021
  148OSM    H7S16365   3.343   5.703   3.795 -0.6177  2.9193 -0.7326
  148OSM    H7T16366   3.462   5.838   3.793 -0.4237 -0.9782 -0.7048
  148OSM    C8S16367   3.481   5.726   3.963 -0.7300 -0.2993 -0.5463
  148OSM    H8S16368   3.587   5.756   3.982 -1.0611 -0.9509  3.0145
  148OSM    H8T16369   3.475   5.622   4.002 -0.6967 -0.3020 -0.5492
  148OSM    C9S16370   3.379   5.818   4.038 -0.7142  0.0632 -0.5239
  148OSM    H9S16371   3.278   5.779   4.016 -2.3197  3.3245  0.5093
  148OSM    H9T16372   3.404   5.915   3.991  1.1415 -0.4306 -0.6699
  148OSM   C10S16373   3.400   5.846   4.187 -0.6419  0.9701 -0.7290
  148OSM   H10S16374   3.306   5.896   4.218 -0.6144  0.9650 -0.6363
  148OSM   H10T16375   3.489   5.912   4.196  0.4705 -0.5255 -0.3220
  148OSM   C11S16376   3.425   5.718   4.278 -0.4986  0.1634  0.1308
  148OSM   H11S16377   3.522   5.683   4.235 -0.5745  0.3862 -0.2322
  148OSM   H11T16378   3.350   5.644   4.245 -1.8003  0.4624  2.2764
  148OSM   C12S16379   3.457   5.754   4.421 -0.0772 -0.0936  0.7145
  148OSM   H12S16380   3.371   5.807   4.467  0.5766  1.7842 -0.1411
  148OSM   H12T16381   3.541   5.825   4.428 -1.0325  1.4059 -1.6911
  148OSM   C13S16382   3.484   5.634   4.508  0.0371  0.0174 -0.0753
  148OSM   H13S16383   3.571   5.578   4.469 -0.6208  0.5903 -2.5049
  148OSM   H13T16384   3.401   5.560   4.511 -0.5967  0.6928 -0.4580
  148OSM   C14S16385   3.534   5.669   4.643 -0.6911  0.1309 -0.2216
  148OSM   H14S16386   3.461   5.735   4.695  0.7093  1.2220  0.4034
  148OSM   H14T16387   3.634   5.717   4.646 -1.4624  2.3459 -3.7818
  148OSM   C15S16388   3.540   5.546   4.730 -0.2471  0.5893 -0.0158
  148OSM   H15S16389   3.589   5.455   4.689 -1.7868 -0.9127  1.3316
  148OSM   H15T16390   3.434   5.521   4.752 -0.1885  0.1688 -0.1984
  148OSM   C16S16391   3.615   5.580   4.861 -0.3964  0.3348 -0.2979
  148OSM   H16S16392   3.554   5.659   4.910  3.5845  1.4092  3.5227
  148OSM   H16T16393   3.713   5.627   4.839 -0.9371  2.4626  1.4689
  148OSM   C17S16394   3.644   5.460   4.952  0.1707 -0.5024 -0.0725
  148OSM   H17S16395   3.696   5.376   4.900 -1.8493 -2.6125  1.1481
  148OSM   H17T16396   3.548   5.407   4.970 -0.6485  0.1626 -2.1474
  148OSM   C18S16397   3.711   5.500   5.081 -0.3318 -0.2425  0.5013
  148OSM   H18S16398   3.818   5.530   5.070 -0.0835 -1.5693 -1.4363
  148OSM   H18T16399   3.705   5.413   5.150  2.7829  0.8015  2.3074
  148OSM   H18U16400   3.657   5.585   5.126  0.1327  0.4197 -0.1663
  148OSM    C1F16401   3.109   5.768   3.445  0.0231 -0.1518 -0.3373
  148OSM     OF16402   3.036   5.686   3.396  0.3992  0.0494  0.2077
  148OSM    C2F16403   3.048   5.869   3.539  0.1744 -0.6940  0.7252
  148OSM    H2F16404   3.000   5.946   3.475  1.7027 -1.8124 -1.8850
  148OSM    H2G16405   3.121   5.920   3.606 -0.8558  1.4154  0.3368
  148OSM    C3F16406   2.947   5.799   3.639 -0.8525 -0.1331  0.0513
  148OSM    H3F16407   3.004   5.718   3.689 -1.3245 -1.1116 -0.9395
  148OSM    H3G16408   2.863   5.746   3.589 -1.8845  1.1757  0.3364
  148OSM    C4F16409   2.885   5.902   3.729 -0.4210  0.5607 -0.0819
  148OSM    H4F16410   2.806   5.958   3.674 -1.3565 -1.9151 -1.4247
  148OSM    H4G16411   2.958   5.973   3.772 -1.5345  0.8886  1.3698
  148OSM    C5F16412   2.811   5.842   3.844 -0.1928  0.6477 -0.0826
  148OSM    H5F16413   2.885   5.807   3.918  0.3221 -0.4835 -1.0903
  148OSM    H5G16414   2.758   5.753   3.803  0.0285  1.0326 -1.2589
  148OSM    C6F16415   2.704   5.937   3.903  0.3141 -0.2204  0.9439
  148OSM    H6F16416   2.611   5.901   3.853  0.2145  2.3754 -0.8975
  148OSM    H6G16417   2.717   6.041   3.868  0.1938  0.2841  2.3544
  148OSM    C7F16418   2.686   5.937   4.049  0.3744 -0.1786  0.3742
  148OSM    H7F16419   2.751   6.021   4.082  3.3815 -1.8981 -0.7416
  148OSM    H7G16420   2.717   5.839   4.092 -0.2818 -0.6365 -0.1733
  148OSM    C8F16421   2.539   5.951   4.091 -0.8595  0.1885 -0.3369
  148OSM    H8F16422   2.549   5.925   4.199  1.6234  3.4777  0.3873
  148OSM    H8G16423   2.477   5.876   4.036  0.1159  0.3596 -1.6999
  148OSM    C9F16424   2.489   6.090   4.079 -0.1911  0.1922 -0.1798
  148OSM    H9F16425   2.538   6.149   4.000  0.8495  1.2796  1.2219
  148OSM   C10F16426   2.382   6.142   4.143  0.2785 -0.2714  0.7024
  148OSM   H10F16427   2.358   6.249   4.133  1.4542 -0.1245 -0.7659
  148OSM   C11F16428   2.295   6.072   4.247  0.4010 -0.2115  0.0355
  148OSM   H11F16429   2.312   5.964   4.266 -1.8587 -0.6171  0.0282
  148OSM   H11G16430   2.189   6.061   4.214 -0.2250 -0.9362  2.1249
  148OSM   C12F16431   2.291   6.151   4.382 -0.1373 -0.7362  0.0390
  148OSM   H12F16432   2.236   6.246   4.361 -2.5633 -1.9732  0.3963
  148OSM   H12G16433   2.395   6.176   4.408 -0.3506  2.6067 -1.7077
  148OSM   C13F16434   2.222   6.083   4.500 -0.0500  0.2455 -0.0560
  148OSM   H13F16435   2.243   6.146   4.589  0.8378  0.7757 -0.6326
  148OSM   H13G16436   2.278   5.992   4.529  3.2794  2.5270  1.2797
  148OSM   C14F16437   2.074   6.046   4.480 -0.4332 -0.4638  0.8181
  148OSM   H14F16438   2.025   5.990   4.562 -0.6960 -2.3679 -0.5774
  148OSM   H14G16439   2.074   5.973   4.396 -0.5357 -0.7985  1.1069
  148OSM   C15F16440   1.976   6.164   4.453  0.3380  0.0481 -0.3425
  148OSM   H15F16441   2.003   6.195   4.350  1.1385 -0.1277 -0.1907
  148OSM   H15G16442   1.970   6.255   4.516  1.5471  1.8040 -2.6240
  148OSM   C16F16443   1.827   6.109   4.447  0.2220  0.6967 -0.0961
  148OSM   H16F16444   1.815   6.066   4.548  4.4359  1.2015  0.8325
  148OSM   H16G16445   1.824   6.028   4.370 -2.3725  1.5354 -0.9771
  148OSM   C17F16446   1.727   6.208   4.391  0.6210  0.4626 -0.8468
  148OSM   H17F16447   1.759   6.284   4.317  1.4228  0.1665 -0.8184
  148OSM   H17G16448   1.700   6.259   4.486 -1.7489 -0.3742 -1.0117
  148OSM   C18F16449   1.600   6.140   4.344  0.1102 -0.5786  0.4374
  148OSM   H18F16450   1.589   6.045   4.402 -0.9196  0.7877  2.5849
  148OSM   H18G16451   1.601   6.130   4.234  2.0610  0.8844  0.2706
  148OSM   H18H16452   1.513   6.199   4.380 -1.0694 -2.3525  0.6450
  149OSM      N16453   4.508   4.021   2.322  0.0616 -0.3773 -0.5009
  149OSM    C1516454   4.404   3.979   2.225 -0.2812  0.4146 -0.2868
  149OSM   H15A16455   4.427   4.007   2.123  0.3891  3.1561  0.5362
  149OSM   H15B16456   4.314   4.038   2.233 -1.6156 -1.6934  1.1768
  149OSM   H15C16457   4.380   3.874   2.223 -1.4967  0.6489  0.9160
  149OSM    C1416458   4.649   3.997   2.279  0.5186  0.5782 -0.1763
  149OSM   H14A16459   4.687   3.896   2.289 -0.2615  0.1843 -1.0685
  149OSM   H14B16460   4.710   4.058   2.345  0.1995  0.9171 -0.1927
  149OSM   H14C16461   4.659   4.027   2.176  2.0041 -0.9448 -0.5390
  149OSM    C1316462   4.493   4.170   2.344  0.1332 -0.3307 -0.2469
  149OSM   H13A16463   4.487   4.212   2.245 -1.3451 -0.4218 -0.2306
  149OSM   H13B16464   4.580   4.219   2.384 -0.7695  1.9064 -0.8528
  149OSM   H13C16465   4.410   4.204   2.404  0.2985 -1.2125  0.5059
  149OSM    C1216466   4.482   3.946   2.449 -0.0183 -0.5047  0.0150
  149OSM   H12A16467   4.487   3.840   2.425 -0.5657 -0.3483 -0.8536
  149OSM   H12B16468   4.382   3.976   2.476 -0.4834  1.0553 -3.0118
  149OSM    C1116469   4.564   3.985   2.572  0.4357 -0.2962 -0.1679
  149OSM   H11A16470   4.671   3.979   2.543  0.8640 -1.8229  1.5527
  149OSM   H11B16471   4.540   3.898   2.637 -2.3655  0.8068  0.4425
  149OSM      P16472   4.405   4.127   2.704 -0.2394  0.6313 -0.2281
  149OSM    O1316473   4.350   4.265   2.690  0.6026  1.0379  0.6473
  149OSM    O1416474   4.312   4.012   2.679 -0.3555 -0.0761 -0.2252
  149OSM    O1116475   4.452   4.114   2.854 -0.0216 -0.1824 -0.2052
  149OSM    O1216476   4.540   4.113   2.628 -0.0925  0.2079  0.0415
  149OSM    C1S16477   4.580   4.059   2.897 -0.2806  1.1239  0.2817
  149OSM    H1S16478   4.659   4.137   2.888  0.1785  0.4464 -2.4011
  149OSM    H1T16479   4.612   3.979   2.826 -1.1106  2.0456 -1.1796
  149OSM     NF16480   4.699   3.963   3.095 -0.2830 -0.3669 -0.5638
  149OSM    HNF16481   4.704   3.864   3.106  0.1280 -0.2555  0.3468
  149OSM    C2S16482   4.571   3.992   3.041  0.1783  0.1076 -0.0188
  149OSM    H2S16483   4.530   4.077   3.099  0.5712 -0.5730  1.2878
  149OSM    C3S16484   4.472   3.869   3.038  0.3064 -0.6154  0.1743
  149OSM    H3S16485   4.483   3.790   2.961 -2.3768 -2.1219  1.2295
  149OSM     O316486   4.341   3.922   3.013  0.0513 -0.4052  0.8343
  149OSM    HO316487   4.357   3.990   2.947  0.3363 -3.5970 -2.6713
  149OSM    C4S16488   4.466   3.812   3.176  0.1270 -0.1051  0.2261
  149OSM    H4S16489   4.445   3.880   3.259  0.5989  0.3786 -0.0421
  149OSM    C5S16490   4.506   3.682   3.202  0.3885  0.4059  0.2618
  149OSM    H5S16491   4.529   3.616   3.117  0.2836  2.1649 -1.2079
  149OSM    C6S16492   4.513   3.614   3.333 -0.0533 -0.3534 -0.3687
  149OSM    H6S16493   4.616   3.639   3.367 -0.8849 -0.0558  2.0582
  149OSM    H6T16494   4.495   3.505   3.330 -1.7091 -0.1299  0.3651
  149OSM    C7S16495   4.412   3.679   3.434 -0.0944 -0.1249  0.4896
  149OSM    H7S16496   4.313   3.651   3.394  0.8192 -2.7572 -0.1126
  149OSM    H7T16497   4.428   3.787   3.457  2.1705 -0.0752 -1.0041
  149OSM    C8S16498   4.424   3.606   3.573 -0.0017  0.1780  0.4257
  149OSM    H8S16499   4.522   3.625   3.621 -0.9297  0.2243  2.3959
  149OSM    H8T16500   4.407   3.498   3.549  0.2843  0.5119 -1.4458
  149OSM    C9S16501   4.313   3.663   3.671  0.0610 -0.0381 -0.5368
  149OSM    H9S16502   4.215   3.635   3.628  0.4242  1.1028 -2.2046
  149OSM    H9T16503   4.314   3.774   3.675 -1.7360  0.0132 -0.4708
  149OSM   C10S16504   4.320   3.610   3.812  0.0339 -0.3514 -0.0679
  149OSM   H10S16505   4.424   3.627   3.847  0.2457 -2.3441  0.4058
  149OSM   H10T16506   4.302   3.500   3.814 -0.3598 -0.2809  0.9082
  149OSM   C11S16507   4.218   3.666   3.912  0.0803  0.3720 -0.0087
  149OSM   H11S16508   4.113   3.662   3.875  0.0236 -2.3269  0.2822
  149OSM   H11T16509   4.246   3.774   3.917  1.4170  0.1774 -2.0134
  149OSM   C12S16510   4.205   3.607   4.049  0.1502  0.0143  0.0676
  149OSM   H12S16511   4.169   3.502   4.046  0.1519  0.0279 -1.7835
  149OSM   H12T16512   4.128   3.666   4.103  0.1939 -0.3765  0.5696
  149OSM   C13S16513   4.336   3.624   4.124 -0.8376  0.1293  0.3165
  149OSM   H13S16514   4.360   3.732   4.124 -2.5077  0.5288  0.5306
  149OSM   H13T16515   4.408   3.567   4.062 -0.6751 -1.1151  1.5815
  149OSM   C14S16516   4.330   3.577   4.278  0.4397  0.1563 -0.1800
  149OSM   H14S16517   4.430   3.586   4.325  0.7300 -0.7997 -0.5926
  149OSM   H14T16518   4.297   3.471   4.279  0.7860  0.0501  0.6439
  149OSM   C15S16519   4.238   3.655   4.367  0.1451 -0.1990  0.2983
  149OSM   H15S16520   4.136   3.631   4.329  0.5330 -0.7749 -0.4176
  149OSM   H15T16521   4.251   3.765   4.359 -1.4008 -0.0606 -0.9592
  149OSM   C16S16522   4.265   3.617   4.519  0.1757  0.4263 -0.8573
  149OSM   H16S16523   4.371   3.589   4.532  0.4239  1.4343 -0.6805
  149OSM   H16T16524   4.203   3.527   4.539  0.9561 -0.3569 -1.8505
  149OSM   C17S16525   4.234   3.737   4.619  0.3311  0.2831  0.1133
  149OSM   H17S16526   4.151   3.799   4.580  0.5777 -0.3744 -1.5748
  149OSM   H17T16527   4.320   3.806   4.606  0.4817  0.1341  0.3136
  149OSM   C18S16528   4.228   3.707   4.764 -0.1316  0.5604  0.1345
  149OSM   H18S16529   4.213   3.799   4.825 -1.6103 -0.5359  1.4731
  149OSM   H18T16530   4.325   3.655   4.782 -1.9084 -3.0805  0.0900
  149OSM   H18U16531   4.149   3.635   4.792 -0.3095  0.2999 -0.9967
  149OSM    C1F16532   4.799   4.051   3.113  0.1349  0.5203 -0.0546
  149OSM     OF16533   4.785   4.165   3.095 -0.7084 -0.0760 -0.5347
  149OSM    C2F16534   4.929   3.994   3.146  0.0528  0.0231 -0.3850
  149OSM    H2F16535   4.999   3.977   3.060  1.9511 -1.0068  1.2797
  149OSM    H2G16536   4.909   3.893   3.188  2.0005  0.0051  0.6103
  149OSM    C3F16537   5.000   4.073   3.263  0.0816 -0.5321 -0.1058
  149OSM    H3F16538   5.004   4.181   3.237  0.0975  0.2774  2.8961
  149OSM    H3G16539   5.106   4.042   3.271 -0.3881 -1.7060  2.2384
  149OSM    C4F16540   4.929   4.067   3.400  0.0094 -0.3881  0.7953
  149OSM    H4F16541   4.938   3.962   3.435 -1.4185 -1.0778 -0.7251
  149OSM    H4G16542   4.822   4.094   3.388  0.4639  1.6649  1.0197
  149OSM    C5F16543   5.004   4.149   3.505  0.2187 -0.8509  0.3104
  149OSM    H5F16544   5.000   4.259   3.494 -0.3630 -0.6966  1.7804
  149OSM    H5G16545   5.111   4.116   3.501  0.6084  0.4979 -3.4337
  149OSM    C6F16546   4.954   4.125   3.654 -0.2878  0.1130 -0.0579
  149OSM    H6F16547   4.960   4.018   3.684  1.3678  0.4925  1.0991
  149OSM    H6G16548   4.846   4.150   3.665 -0.8319 -1.4432 -1.4224
  149OSM    C7F16549   5.038   4.191   3.764  0.5969  0.4939  0.0468
  149OSM    H7F16550   5.075   4.287   3.722 -0.5465  0.7476 -0.4002
  149OSM    H7G16551   5.126   4.126   3.785  1.0199  0.7673 -0.8565
  149OSM    C8F16552   4.953   4.231   3.882  0.8538  0.6683 -0.7841
  149OSM    H8F16553   4.910   4.134   3.916 -1.8906  1.4527 -1.6914
  149OSM    H8G16554   4.867   4.294   3.851  0.0471 -1.3423 -2.9705
  149OSM    C9F16555   5.025   4.300   3.994  0.4310 -0.5751  0.0312
  149OSM    H9F16556   5.066   4.394   3.955  3.3421 -1.4498  0.7695
  149OSM   C10F16557   5.053   4.268   4.122 -0.3374 -0.6347  0.3916
  149OSM   H10F16558   5.114   4.334   4.186 -1.8087  1.2975 -0.0959
  149OSM   C11F16559   4.992   4.156   4.207 -0.1261 -0.4327 -0.3658
  149OSM   H11F16560   5.069   4.114   4.275 -1.6983 -1.9498  0.5668
  149OSM   H11G16561   4.975   4.066   4.144  0.3120  0.3084 -1.5719
  149OSM   C12F16562   4.875   4.206   4.296 -0.2416  0.4676  0.0858
  149OSM   H12F16563   4.827   4.120   4.348  0.9122 -0.7143 -0.7343
  149OSM   H12G16564   4.796   4.245   4.229  0.3570 -1.1033 -1.6267
  149OSM   C13F16565   4.930   4.310   4.391  0.5523  0.0714 -0.1137
  149OSM   H13F16566   4.971   4.397   4.336  0.0892  0.4529  0.1443
  149OSM   H13G16567   5.009   4.266   4.455 -0.4839  1.7204  2.4489
  149OSM   C14F16568   4.828   4.355   4.500  0.2706  0.1305  0.9260
  149OSM   H14F16569   4.884   4.423   4.567  0.6014  0.7010  0.0935
  149OSM   H14G16570   4.803   4.272   4.570  0.2537  1.4290  2.5039
  149OSM   C15F16571   4.705   4.429   4.451 -0.2651 -0.0349 -0.3249
  149OSM   H15F16572   4.633   4.358   4.404 -0.2743  0.2902 -0.8185
  149OSM   H15G16573   4.726   4.511   4.379  0.3058  0.5474  0.4908
  149OSM   C16F16574   4.631   4.498   4.570  0.0376  0.1958  0.2912
  149OSM   H16F16575   4.706   4.560   4.625 -0.4178  0.5392  0.5323
  149OSM   H16G16576   4.592   4.415   4.632 -0.3211  0.8016  0.8938
  149OSM   C17F16577   4.506   4.582   4.522  0.2377  0.3906  0.0528
  149OSM   H17F16578   4.554   4.659   4.457 -0.3306  1.6983  1.1366
  149OSM   H17G16579   4.462   4.636   4.608  2.3810 -0.1325  1.5364
  149OSM   C18F16580   4.400   4.516   4.436 -0.2929  0.2479  0.2415
  149OSM   H18F16581   4.338   4.585   4.375  0.2196 -1.1420 -1.9816
  149OSM   H18G16582   4.332   4.451   4.495 -2.0692 -0.4012 -2.3387
  149OSM   H18H16583   4.451   4.466   4.351  1.5628  1.7856  0.3826
  150OSM      N16584   0.975   1.214   2.872 -0.9666  0.3381 -0.0795
  150OSM    C1516585   0.934   1.322   2.976 -0.0017  0.0935  0.5080
  150OSM   H15A16586   0.844   1.292   3.027 -0.3165 -0.8928 -0.5562
  150OSM   H15B16587   0.911   1.409   2.916 -1.5642 -0.3300  0.4351
  150OSM   H15C16588   1.020   1.346   3.037  0.2844 -0.5674  0.3730
  150OSM    C1416589   0.858   1.178   2.797  0.1312  0.2546 -0.1410
  150OSM   H14A16590   0.884   1.090   2.741  1.0517  0.6722 -0.3886
  150OSM   H14B16591   0.814   1.254   2.733  0.8172  1.2046  0.4801
  150OSM   H14C16592   0.786   1.145   2.870 -0.2923 -0.4956 -0.8828
  150OSM    C1316593   1.089   1.266   2.794  0.4735 -0.0287  0.1952
  150OSM   H13A16594   1.119   1.192   2.721  0.4537 -2.1310  2.2004
  150OSM   H13B16595   1.171   1.281   2.862  0.2935 -0.5640  0.5446
  150OSM   H13C16596   1.058   1.358   2.746  2.2796  0.2106 -0.5759
  150OSM    C1216597   1.017   1.093   2.959 -0.9481 -0.5941  0.1936
  150OSM   H12A16598   0.927   1.039   2.986 -1.1181  0.5105  2.0687
  150OSM   H12B16599   1.049   1.126   3.057 -0.9080  0.6299 -0.2075
  150OSM    C1116600   1.117   0.986   2.899  0.6672 -0.5056 -1.1097
  150OSM   H11A16601   1.157   0.907   2.967 -1.1302  0.4956  1.2121
  150OSM   H11B16602   1.220   1.021   2.873  0.6788 -1.4923 -2.4829
  150OSM      P16603   0.971   0.792   2.815 -0.1833 -0.0860 -0.0527
  150OSM    O1316604   0.851   0.799   2.725  0.5080  0.1707  0.5109
  150OSM    O1416605   1.060   0.673   2.811  0.1056 -0.0080  0.6808
  150OSM    O1116606   0.919   0.812   2.964 -0.3097 -0.4439 -0.7275
  150OSM    O1216607   1.050   0.928   2.786 -0.6183  0.1590 -0.1495
  150OSM    C1S16608   0.957   0.718   3.066 -0.2259  0.6163 -0.2462
  150OSM    H1S16609   1.067   0.709   3.074 -0.3061  0.3399  0.5922
  150OSM    H1T16610   0.917   0.616   3.048  0.8487 -0.3136  2.2472
  150OSM     NF16611   0.954   0.679   3.315 -0.6876  0.0058  0.3881
  150OSM    HNF16612   0.893   0.603   3.334 -0.0881 -0.6898 -0.3812
  150OSM    C2S16613   0.917   0.768   3.214 -0.2992  0.6995  0.1719
  150OSM    H2S16614   0.976   0.862   3.225  1.0974 -0.2825  1.6124
  150OSM    C3S16615   0.772   0.797   3.218  0.4716 -0.6026  0.0161
  150OSM    H3S16616   0.715   0.705   3.192 -0.1860 -1.3815  3.6845
  150OSM     O316617   0.731   0.887   3.125  0.3171  0.1937  0.0934
  150OSM    HO316618   0.790   0.865   3.052 -1.4142  0.3464 -1.4484
  150OSM    C4S16619   0.716   0.839   3.359  0.1021  0.8549  0.0010
  150OSM    H4S16620   0.713   0.752   3.427  0.0546  2.8716  2.7099
  150OSM    C5S16621   0.671   0.957   3.405 -0.4675 -0.6623 -0.1567
  150OSM    H5S16622   0.672   1.045   3.339  1.4333 -0.1621  0.4819
  150OSM    C6S16623   0.624   0.978   3.546 -0.0532  0.4697 -0.2116
  150OSM    H6S16624   0.549   0.899   3.565 -0.6921  1.2792  0.6759
  150OSM    H6T16625   0.562   1.069   3.533 -2.6158 -1.2961 -1.2416
  150OSM    C7S16626   0.734   0.985   3.663  0.9479 -0.7176 -0.2513
  150OSM    H7S16627   0.780   1.080   3.628 -1.8255  0.6500 -0.4607
  150OSM    H7T16628   0.802   0.897   3.664 -1.0157 -2.3185  0.2102
  150OSM    C8S16629   0.666   1.008   3.799 -0.1940  0.2359  0.3750
  150OSM    H8S16630   0.583   0.935   3.815 -0.3197  0.6381  1.7332
  150OSM    H8T16631   0.611   1.105   3.806 -0.6135 -0.0258  0.8287
  150OSM    C9S16632   0.769   0.996   3.915  0.0598 -0.6848 -0.5292
  150OSM    H9S16633   0.862   1.055   3.900  0.9973 -0.8667  3.5027
  150OSM    H9T16634   0.806   0.892   3.902 -0.2032 -0.8530  0.0254
  150OSM   C10S16635   0.712   1.013   4.055 -1.1387  0.3873  0.0567
  150OSM   H10S16636   0.619   0.956   4.077 -1.1341  0.0032 -0.8940
  150OSM   H10T16637   0.690   1.120   4.077  2.7634  1.9764 -2.6365
  150OSM   C11S16638   0.811   0.973   4.155  0.1296  0.1569 -0.5569
  150OSM   H11S16639   0.896   1.045   4.156  0.5927 -0.2894 -2.7056
  150OSM   H11T16640   0.856   0.873   4.133 -2.0295 -1.2309  0.9237
  150OSM   C12S16641   0.747   0.966   4.299 -0.8338 -0.1603  0.9824
  150OSM   H12S16642   0.693   0.870   4.312  0.8344 -1.3734 -0.5844
  150OSM   H12T16643   0.688   1.060   4.308  1.3176  1.3066  0.6550
  150OSM   C13S16644   0.853   0.980   4.407 -0.2754 -0.2626 -0.3173
  150OSM   H13S16645   0.889   1.085   4.399 -0.2996 -0.2588 -0.3797
  150OSM   H13T16646   0.947   0.921   4.396  0.3745  0.1459  2.3568
  150OSM   C14S16647   0.810   0.970   4.554 -0.6586  0.6321 -0.1824
  150OSM   H14S16648   0.732   1.047   4.573 -1.5763 -0.4254  0.4424
  150OSM   H14T16649   0.901   0.997   4.612 -0.4904  0.4690 -0.3710
  150OSM   C15S16650   0.770   0.835   4.613  0.1719  0.0068 -0.2021
  150OSM   H15S16651   0.849   0.757   4.618  0.7624  0.5840 -0.3995
  150OSM   H15T16652   0.686   0.796   4.552 -0.3362 -0.5287  0.8192
  150OSM   C16S16653   0.716   0.838   4.755  0.3773 -0.1168 -0.3591
  150OSM   H16S16654   0.642   0.921   4.760 -1.1713 -1.5227  1.7848
  150OSM   H16T16655   0.793   0.863   4.831 -0.6438  1.2942  0.2600
  150OSM   C17S16656   0.653   0.701   4.804 -0.0923  0.2336 -0.4954
  150OSM   H17S16657   0.733   0.624   4.803  0.0689  0.3724  0.7197
  150OSM   H17T16658   0.585   0.668   4.722  1.2240 -1.2812 -1.0073
  150OSM   C18S16659   0.581   0.705   4.935 -0.4615  0.0965  0.2569
  150OSM   H18S16660   0.525   0.613   4.964  0.0130 -0.7007 -1.2220
  150OSM   H18T16661   0.497   0.777   4.930  1.1521  1.9873 -3.4158
  150OSM   H18U16662   0.644   0.725   5.024 -0.7027 -0.5849  0.5907
  150OSM    C1F16663   1.085   0.667   3.358  0.1900 -0.3315  0.1547
  150OSM     OF16664   1.174   0.729   3.305 -0.3373 -0.1525 -0.1292
  150OSM    C2F16665   1.108   0.575   3.470 -0.6952  0.3963  0.2337
  150OSM    H2F16666   1.102   0.466   3.449 -1.7273  0.1919  1.4637
  150OSM    H2G16667   1.030   0.601   3.545 -0.1766  0.8516  0.6261
  150OSM    C3F16668   1.248   0.582   3.528  0.2067 -0.1563 -0.2558
  150OSM    H3F16669   1.265   0.687   3.559  0.4455 -0.6930  1.5494
  150OSM    H3G16670   1.332   0.553   3.461 -0.1094 -2.5554  0.2810
  150OSM    C4F16671   1.258   0.489   3.655  0.5941 -0.6784 -0.1161
  150OSM    H4F16672   1.364   0.482   3.689  0.9841  4.0445  0.4231
  150OSM    H4G16673   1.203   0.396   3.629  2.3965 -1.1048 -2.7527
  150OSM    C5F16674   1.195   0.555   3.784 -0.4772 -0.6058 -0.0729
  150OSM    H5F16675   1.085   0.555   3.768 -0.4286 -0.5884 -0.3971
  150OSM    H5G16676   1.232   0.660   3.790  1.0518 -1.2023  2.5036
  150OSM    C6F16677   1.210   0.483   3.916  0.6949 -0.2460  0.3041
  150OSM    H6F16678   1.318   0.479   3.940  0.8701 -0.1267 -0.4194
  150OSM    H6G16679   1.177   0.378   3.903 -0.5663  0.4180 -2.7357
  150OSM    C7F16680   1.149   0.563   4.031  0.8674 -1.0473  0.3484
  150OSM    H7F16681   1.047   0.597   4.003  1.9994  2.4651 -0.0135
  150OSM    H7G16682   1.210   0.657   4.034  1.0523 -1.1872  2.5546
  150OSM    C8F16683   1.160   0.503   4.165 -0.4032  0.2544 -0.2870
  150OSM    H8F16684   1.265   0.470   4.178  0.0507  0.3784 -3.0034
  150OSM    H8G16685   1.102   0.408   4.162  0.6268 -0.3637 -2.1706
  150OSM    C9F16686   1.099   0.588   4.281  0.1014  0.0243 -0.4348
  150OSM    H9F16687   0.999   0.632   4.268 -1.9168 -3.1493  2.7714
  150OSM   C10F16688   1.142   0.602   4.411  0.2940 -0.0343  0.3688
  150OSM   H10F16689   1.088   0.676   4.472 -0.6841 -0.3561 -0.0905
  150OSM   C11F16690   1.263   0.556   4.480 -0.1720  0.3409 -0.3080
  150OSM   H11F16691   1.326   0.645   4.500  0.5859  0.3751 -2.4952
  150OSM   H11G16692   1.317   0.485   4.413 -1.7652 -0.6857 -0.5509
  150OSM   C12F16693   1.236   0.487   4.617 -0.1325 -0.1789 -0.0209
  150OSM   H12F16694   1.332   0.432   4.633 -0.8558 -0.7299  3.0609
  150OSM   H12G16695   1.149   0.418   4.610  0.3495 -0.6994 -1.1321
  150OSM   C13F16696   1.204   0.585   4.735 -1.0347 -0.4752 -0.0822
  150OSM   H13F16697   1.117   0.649   4.711 -2.4232 -0.9704  3.1268
  150OSM   H13G16698   1.290   0.652   4.760  0.4358 -2.5857  0.8203
  150OSM   C14F16699   1.174   0.501   4.860  0.3319  0.1394  0.1844
  150OSM   H14F16700   1.269   0.445   4.875  0.9049  0.4938 -1.8395
  150OSM   H14G16701   1.092   0.429   4.836 -1.6260  2.4730 -0.5530
  150OSM   C15F16702   1.119   0.574   4.982 -0.4398  0.0116  0.6871
  150OSM   H15F16703   1.135   0.515   5.075 -1.8079  0.3293  1.1598
  150OSM   H15G16704   1.009   0.583   4.966 -0.2327 -1.3094 -1.9690
  150OSM   C16F16705   1.177   0.714   5.005  0.8865 -0.5492  0.4371
  150OSM   H16F16706   1.122   0.765   5.088  3.4719  1.5931  0.9828
  150OSM   H16G16707   1.158   0.777   4.915 -1.3906 -0.2979  1.0367
  150OSM   C17F16708   1.324   0.713   5.048  0.0236 -0.1964 -0.2083
  150OSM   H17F16709   1.387   0.640   4.992 -0.6426 -1.2846  0.4214
  150OSM   H17G16710   1.339   0.678   5.152 -0.9858  3.1726  1.2015
  150OSM   C18F16711   1.385   0.849   5.044  0.6116 -0.0076 -0.0141
  150OSM   H18F16712   1.366   0.901   4.948  0.6437  0.9249  0.4725
  150OSM   H18G16713   1.495   0.836   5.043  0.3607 -2.4961 -0.0586
  150OSM   H18H16714   1.349   0.918   5.124 -0.7761 -0.5428 -0.1502
  151OSM      N16715   1.914   0.330   2.796  0.5885 -0.0794  0.0470
  151OSM    C1516716   1.991   0.248   2.697 -0.3676 -0.1630  0.4134
  151OSM   H15A16717   1.982   0.142   2.717  2.4481 -0.4045  0.8734
  151OSM   H15B16718   2.094   0.281   2.691 -0.2183 -0.4030  1.3740
  151OSM   H15C16719   1.947   0.268   2.601  1.2292 -0.2302 -0.3553
  151OSM    C1416720   1.944   0.479   2.777  0.3879 -0.0593  0.8019
  151OSM   H14A16721   1.886   0.507   2.690  1.7472 -2.1073 -0.8631
  151OSM   H14B16722   2.050   0.499   2.775 -0.2259  4.1092 -0.5008
  151OSM   H14C16723   1.909   0.537   2.861  0.1178  0.0519  0.6152
  151OSM    C1316724   1.768   0.300   2.773 -0.5779 -0.2450  0.1165
  151OSM   H13A16725   1.700   0.365   2.827 -0.2200  0.3767 -0.1754
  151OSM   H13B16726   1.744   0.197   2.797 -0.5297 -0.5268 -1.0110
  151OSM   H13C16727   1.739   0.319   2.671  0.1228  3.4772  0.4774
  151OSM    C1216728   1.972   0.285   2.931  0.3073 -0.4651 -0.5801
  151OSM   H12A16729   2.076   0.308   2.917  0.1208 -0.3763 -1.9760
  151OSM   H12B16730   1.962   0.178   2.940 -0.9149 -0.3703 -0.5652
  151OSM    C1116731   1.922   0.349   3.052 -0.2445  0.1198 -0.3965
  151OSM   H11A16732   1.962   0.292   3.139 -1.5985  0.5650  0.5373
  151OSM   H11B16733   1.814   0.340   3.073  0.1596 -1.8685  1.0757
  151OSM      P16734   1.898   0.601   3.139 -0.2991  0.1388  0.1249
  151OSM    O1316735   1.984   0.718   3.132  0.1828  0.1635 -0.1474
  151OSM    O1416736   1.761   0.601   3.083 -0.4814 -0.7232 -0.2448
  151OSM    O1116737   1.884   0.547   3.289  0.2620 -0.1696  0.4809
  151OSM    O1216738   1.979   0.483   3.066 -0.0169 -0.0029  0.1516
  151OSM    C1S16739   2.006   0.502   3.353 -0.4732 -0.6343  0.8606
  151OSM    H1S16740   2.083   0.583   3.350 -2.1763  1.0802 -2.6266
  151OSM    H1T16741   2.061   0.424   3.296 -0.6622 -0.1572  0.0003
  151OSM     NF16742   2.106   0.433   3.569 -0.5157  0.3860  0.2969
  151OSM    HNF16743   2.160   0.358   3.532 -2.6270  0.1236 -2.6817
  151OSM    C2S16744   1.978   0.433   3.496  0.0353  0.0228 -0.0392
  151OSM    H2S16745   1.907   0.505   3.542  0.4204  0.0143  0.5705
  151OSM    C3S16746   1.904   0.296   3.476 -0.3122  0.7213 -0.5885
  151OSM    H3S16747   1.968   0.232   3.411  0.7041 -1.1918  2.0997
  151OSM     O316748   1.788   0.314   3.405 -0.2104 -0.1695  0.0149
  151OSM    HO316749   1.804   0.406   3.380 -0.0592 -0.6832 -1.9328
  151OSM    C4S16750   1.865   0.214   3.598 -0.2466 -0.3569  0.5169
  151OSM    H4S16751   1.773   0.249   3.648 -1.3646  2.6648 -3.1783
  151OSM    C5S16752   1.949   0.122   3.657  1.0840  0.2339  0.1156
  151OSM    H5S16753   2.048   0.102   3.613  0.7111 -0.4955 -0.4128
  151OSM    C6S16754   1.904   0.052   3.780  0.2123  0.4531  0.9905
  151OSM    H6S16755   1.960  -0.042   3.799 -0.3525  0.1353  1.1077
  151OSM    H6T16756   1.796   0.024   3.787  0.7081 -2.1251 -0.4255
  151OSM    C7S16757   1.919   0.142   3.905  0.7316 -0.8291  0.5222
  151OSM    H7S16758   1.880   0.085   3.992 -1.1408  1.6110  1.3701
  151OSM    H7T16759   1.849   0.226   3.893 -0.2559 -1.6056  0.7224
  151OSM    C8S16760   2.063   0.190   3.941 -1.0352 -1.4142 -0.2289
  151OSM    H8S16761   2.059   0.278   4.009 -0.9649  0.0527 -2.0455
  151OSM    H8T16762   2.100   0.227   3.842 -1.8182  1.1532  0.3592
  151OSM    C9S16763   2.167   0.096   3.994  0.3785  1.0568 -0.0334
  151OSM    H9S16764   2.191   0.021   3.916 -1.0620  0.9244 -0.3847
  151OSM    H9T16765   2.130   0.037   4.080 -1.2656  1.6026 -0.3155
  151OSM   C10S16766   2.303   0.173   4.036  0.3327  0.5070  0.5954
  151OSM   H10S16767   2.326   0.240   3.951 -0.8637  1.2733  0.8449
  151OSM   H10T16768   2.378   0.094   4.057 -0.0301  0.2366  0.9007
  151OSM   C11S16769   2.290   0.262   4.167 -0.8609 -0.1330  0.3079
  151OSM   H11S16770   2.236   0.353   4.131 -0.0388 -0.1812 -1.1273
  151OSM   H11T16771   2.390   0.300   4.197 -0.5351 -0.2022 -0.6618
  151OSM   C12S16772   2.246   0.192   4.288  0.2088  0.1934  0.4274
  151OSM   H12S16773   2.317   0.109   4.311  0.2885 -0.0316 -0.5629
  151OSM   H12T16774   2.151   0.136   4.281  0.5707 -0.3942  0.0925
  151OSM   C13S16775   2.254   0.295   4.404 -0.0631 -0.0187 -0.1823
  151OSM   H13S16776   2.186   0.382   4.394 -0.2612 -0.3326 -1.7919
  151OSM   H13T16777   2.346   0.356   4.391 -0.3700  0.2854 -0.9943
  151OSM   C14S16778   2.262   0.232   4.544  0.0935  0.1712 -0.5132
  151OSM   H14S16779   2.356   0.172   4.551  0.4773  0.6529 -1.4024
  151OSM   H14T16780   2.172   0.169   4.559  2.5602 -3.6084 -0.0681
  151OSM   C15S16781   2.254   0.346   4.648  0.1062  0.3959 -0.2688
  151OSM   H15S16782   2.156   0.398   4.654 -0.3119 -0.5180  3.7989
  151OSM   H15T16783   2.325   0.420   4.605 -0.0545  0.0198 -1.2012
  151OSM   C16S16784   2.300   0.288   4.781  0.0394 -0.2378  0.6436
  151OSM   H16S16785   2.391   0.225   4.768  0.2061  0.3409 -1.3263
  151OSM   H16T16786   2.224   0.214   4.813 -0.2734 -0.3613 -0.3574
  151OSM   C17S16787   2.326   0.394   4.892 -0.8701 -0.5567  0.2051
  151OSM   H17S16788   2.399   0.466   4.849 -0.5196 -1.9980 -1.7521
  151OSM   H17T16789   2.373   0.334   4.973 -1.7228 -2.3493 -0.5757
  151OSM   C18S16790   2.212   0.475   4.953 -0.1854  0.6189  0.1024
  151OSM   H18S16791   2.180   0.549   4.876  2.2633  1.0520 -0.5687
  151OSM   H18T16792   2.242   0.520   5.049  1.7355  0.6337 -0.4554
  151OSM   H18U16793   2.117   0.418   4.966 -0.4446 -0.4505 -4.4870
  151OSM    C1F16794   2.162   0.531   3.630  0.0120 -0.4329 -0.2247
  151OSM     OF16795   2.120   0.645   3.612 -0.2125  0.3843  0.3034
  151OSM    C2F16796   2.278   0.496   3.720  0.1593 -0.3396  0.2230
  151OSM    H2F16797   2.360   0.471   3.650 -0.8552 -1.6215 -0.5595
  151OSM    H2G16798   2.274   0.402   3.779  0.1225 -1.2810 -1.2147
  151OSM    C3F16799   2.329   0.614   3.810 -0.4034 -0.7301 -0.2431
  151OSM    H3F16800   2.253   0.644   3.885  0.3908 -0.9366  0.6583
  151OSM    H3G16801   2.351   0.692   3.733 -0.7235  0.5094  0.8830
  151OSM    C4F16802   2.465   0.583   3.875 -1.1213  0.2781 -0.1163
  151OSM    H4F16803   2.511   0.679   3.908  1.7026 -1.1253  0.3498
  151OSM    H4G16804   2.526   0.542   3.792 -0.8863 -1.1556  0.7350
  151OSM    C5F16805   2.458   0.493   3.995  0.2838  0.6548 -0.0565
  151OSM    H5F16806   2.455   0.387   3.960  3.3457  0.6314 -0.5493
  151OSM    H5G16807   2.369   0.509   4.059  1.6449 -1.6433  2.6393
  151OSM    C6F16808   2.583   0.507   4.081 -0.0124  0.2243 -0.1102
  151OSM    H6F16809   2.681   0.512   4.028  0.1281  0.3029  0.1570
  151OSM    H6G16810   2.579   0.412   4.138  2.9065 -0.9072 -1.5578
  151OSM    C7F16811   2.575   0.620   4.181 -0.2814  0.7777 -0.1998
  151OSM    H7F16812   2.514   0.586   4.267 -0.8397 -0.6070 -1.1164
  151OSM    H7G16813   2.521   0.704   4.131 -1.0323  0.7227  0.5053
  151OSM    C8F16814   2.714   0.665   4.231 -0.9292 -0.4318  0.3977
  151OSM    H8F16815   2.712   0.765   4.279 -0.5456  0.8791 -2.1571
  151OSM    H8G16816   2.772   0.687   4.139 -1.1177 -0.6269  0.2330
  151OSM    C9F16817   2.785   0.559   4.313 -0.2501  0.0548 -0.1610
  151OSM    H9F16818   2.793   0.460   4.266 -2.2566 -0.8213  1.2074
  151OSM   C10F16819   2.804   0.576   4.445  0.1012  0.1977 -0.0069
  151OSM   H10F16820   2.858   0.495   4.497 -2.0607 -0.7999  0.8137
  151OSM   C11F16821   2.789   0.706   4.528 -0.0445  0.1808  0.1750
  151OSM   H11F16822   2.692   0.755   4.506 -0.4767 -0.6381  0.2191
  151OSM   H11G16823   2.877   0.772   4.509  0.9976 -0.5304  2.2173
  151OSM   C12F16824   2.786   0.670   4.674  0.3588  0.1826 -0.5980
  151OSM   H12F16825   2.872   0.606   4.703  0.5217 -0.0877 -1.6500
  151OSM   H12G16826   2.696   0.609   4.698 -1.2603  1.7813 -2.2544
  151OSM   C13F16827   2.789   0.800   4.758  0.0043  0.0670  0.0541
  151OSM   H13F16828   2.734   0.781   4.852  2.0145 -1.1140  1.0750
  151OSM   H13G16829   2.758   0.884   4.693  1.6978 -0.0871 -1.0382
  151OSM   C14F16830   2.932   0.817   4.803 -0.0849  0.1236 -0.1626
  151OSM   H14F16831   2.945   0.927   4.811 -0.5572  0.0832  1.5180
  151OSM   H14G16832   3.007   0.788   4.727  0.8603 -1.1086  1.2011
  151OSM   C15F16833   2.978   0.735   4.932 -0.2760 -0.3619  0.0866
  151OSM   H15F16834   3.089   0.742   4.933 -0.2682  1.5345 -2.4606
  151OSM   H15G16835   2.957   0.628   4.908 -0.2151 -0.3009 -0.2531
  151OSM   C16F16836   2.913   0.779   5.067  0.2256  0.1048  0.0163
  151OSM   H16F16837   2.943   0.711   5.149  0.7638 -0.8854 -0.9626
  151OSM   H16G16838   2.802   0.775   5.068  0.0820  0.9154  4.1577
  151OSM   C17F16839   2.956   0.920   5.112  0.3366  0.3510 -0.0669
  151OSM   H17F16840   2.930   0.990   5.029  0.1764  0.0778 -0.2513
  151OSM   H17G16841   3.067   0.922   5.114  0.3360  1.4957  2.5736
  151OSM   C18F16842   2.901   0.966   5.246 -0.3787  0.2168 -0.0425
  151OSM   H18F16843   2.791   0.959   5.259 -0.3920 -1.8244 -0.7989
  151OSM   H18G16844   2.926   1.072   5.267 -1.5377  0.2723  1.1869
  151OSM   H18H16845   2.954   0.899   5.318  1.6948 -0.3813 -1.9969
  152OSM      N16846   2.263   2.874   3.112  0.3200  0.2335 -0.3564
  152OSM    C1516847   2.378   2.782   3.076 -0.2615 -0.2326  0.3405
  152OSM   H15A16848   2.409   2.760   3.177  0.6645 -1.2540 -0.1526
  152OSM   H15B16849   2.458   2.836   3.029 -0.2649 -1.2704 -0.9273
  152OSM   H15C16850   2.347   2.687   3.034  1.6486 -1.5877  1.8474
  152OSM    C1416851   2.310   3.005   3.169  0.3640 -0.7030  0.5810
  152OSM   H14A16852   2.392   3.048   3.113 -0.8916 -1.3707 -1.8855
  152OSM   H14B16853   2.336   2.989   3.273  0.0208  2.1621  1.1933
  152OSM   H14C16854   2.237   3.084   3.159 -0.1534 -1.2230  0.1736
  152OSM    C1316855   2.181   2.902   2.990  0.0274  0.3036  0.1427
  152OSM   H13A16856   2.096   2.955   3.030  0.2669  0.4387  0.4766
  152OSM   H13B16857   2.158   2.800   2.962 -2.1077  0.6752  0.3692
  152OSM   H13C16858   2.221   2.968   2.914 -1.1632  0.9531  0.0465
  152OSM    C1216859   2.177   2.817   3.222 -0.5812  0.0557 -0.0777
  152OSM   H12A16860   2.112   2.891   3.267 -0.5047  0.8562 -1.2200
  152OSM   H12B16861   2.241   2.775   3.298 -0.8229 -1.4911 -0.6822
  152OSM    C1116862   2.110   2.681   3.178  0.4996 -0.1478 -0.7138
  152OSM   H11A16863   2.037   2.711   3.100 -1.6137  2.0311  1.9290
  152OSM   H11B16864   2.042   2.659   3.262 -1.7285  0.9053 -2.1443
  152OSM      P16865   2.177   2.459   3.047 -0.0271  0.3977 -0.3772
  152OSM    O1316866   2.090   2.509   2.940  0.4064 -0.0951  0.2053
  152OSM    O1416867   2.312   2.406   2.999 -0.7033 -0.0914  0.0995
  152OSM    O1116868   2.113   2.339   3.123  0.0784 -0.7053  0.4964
  152OSM    O1216869   2.206   2.566   3.156 -0.1016  0.2053 -0.3928
  152OSM    C1S16870   2.188   2.249   3.208 -0.3312  0.0450 -0.0166
  152OSM    H1S16871   2.295   2.248   3.179 -0.4754  2.7802 -0.9681
  152OSM    H1T16872   2.144   2.148   3.194  1.6564 -0.9088  0.2607
  152OSM     NF16873   2.273   2.188   3.430  0.0844 -0.3814  0.5167
  152OSM    HNF16874   2.230   2.126   3.495 -2.0907  1.3066  0.7977
  152OSM    C2S16875   2.175   2.274   3.356 -0.2402 -0.2155  0.7684
  152OSM    H2S16876   2.192   2.384   3.356 -1.3876  0.0638 -2.2024
  152OSM    C3S16877   2.024   2.267   3.395 -0.7927  0.4205 -0.5940
  152OSM    H3S16878   1.983   2.167   3.371 -0.1520  0.6149 -2.7121
  152OSM     O316879   1.931   2.341   3.326 -0.0355 -0.1098  0.3669
  152OSM    HO316880   1.988   2.367   3.253  0.1592 -0.3638  0.4239
  152OSM    C4S16881   2.017   2.295   3.552 -0.3785  0.1442  0.2698
  152OSM    H4S16882   2.042   2.205   3.610  0.4468  0.6805  0.7540
  152OSM    C5S16883   1.994   2.410   3.614  0.6222  0.1312 -0.7942
  152OSM    H5S16884   1.976   2.506   3.564 -0.8662  0.1902 -0.1976
  152OSM    C6S16885   1.991   2.420   3.768 -0.4714  0.1864  0.5504
  152OSM    H6S16886   1.890   2.458   3.793 -0.1294  0.9504  0.8040
  152OSM    H6T16887   2.060   2.502   3.800  1.5129 -1.7223  1.4459
  152OSM    C7S16888   2.031   2.288   3.837  0.2843  0.2413  0.0837
  152OSM    H7S16889   2.124   2.256   3.786 -0.7325 -1.8349 -0.6211
  152OSM    H7T16890   1.956   2.210   3.809  1.9279 -0.4664 -2.7775
  152OSM    C8S16891   2.052   2.300   3.987 -0.9399  0.2909  0.6409
  152OSM    H8S16892   1.961   2.346   4.031 -1.3845  1.9068 -1.8185
  152OSM    H8T16893   2.141   2.359   4.019  0.7787 -1.9509  0.2354
  152OSM    C9S16894   2.060   2.162   4.061  0.4733 -0.6875  0.5389
  152OSM    H9S16895   2.136   2.105   4.004 -0.5574 -0.9209 -0.6248
  152OSM    H9T16896   1.962   2.111   4.051 -0.1678  0.7897 -1.1041
  152OSM   C10S16897   2.113   2.181   4.203 -0.0173 -0.3223 -0.5597
  152OSM   H10S16898   2.028   2.226   4.258 -0.9032  0.0169 -2.1565
  152OSM   H10T16899   2.203   2.247   4.209  1.3863 -2.0022 -1.9627
  152OSM   C11S16900   2.138   2.050   4.273 -0.5436  0.3927  0.7131
  152OSM   H11S16901   2.236   2.009   4.239 -1.4834 -1.9108  0.5433
  152OSM   H11T16902   2.062   1.972   4.246 -0.9166 -0.3860  3.6738
  152OSM   C12S16903   2.138   2.081   4.425 -0.6253  1.0587 -0.5809
  152OSM   H12S16904   2.034   2.112   4.452 -1.6453 -0.5324 -2.4411
  152OSM   H12T16905   2.219   2.152   4.452 -0.6491 -0.0768  2.9963
  152OSM   C13S16906   2.176   1.955   4.515  0.3143 -0.3661 -0.1794
  152OSM   H13S16907   2.273   1.908   4.490  0.2847  0.1956 -1.4238
  152OSM   H13T16908   2.100   1.878   4.490  1.2943 -1.4258  0.0392
  152OSM   C14S16909   2.170   1.982   4.672 -0.3945  1.0209  0.1337
  152OSM   H14S16910   2.114   1.894   4.711  1.0480  0.2415  0.5331
  152OSM   H14T16911   2.130   2.084   4.687  1.5728  2.3602 -2.7775
  152OSM   C15S16912   2.312   1.975   4.741  0.4961 -0.1691  0.4643
  152OSM   H15S16913   2.381   2.051   4.700 -1.1780  1.6072  0.8319
  152OSM   H15T16914   2.363   1.877   4.728 -1.1775 -1.1792  1.1255
  152OSM   C16S16915   2.301   1.987   4.891 -0.2577  0.3875  0.6126
  152OSM   H16S16916   2.401   1.962   4.931 -0.1526  2.4674  1.7549
  152OSM   H16T16917   2.225   1.914   4.927 -1.3300 -0.1749 -2.4260
  152OSM   C17S16918   2.270   2.125   4.954  0.1229 -0.4113 -0.2937
  152OSM   H17S16919   2.165   2.149   4.926 -0.2036 -0.1767  1.0642
  152OSM   H17T16920   2.331   2.211   4.918 -1.4462  1.1188  0.5603
  152OSM   C18S16921   2.270   2.113   5.103 -0.0615  0.3627  0.3081
  152OSM   H18S16922   2.165   2.103   5.137  0.8863 -1.3644  3.1405
  152OSM   H18T16923   2.300   2.208   5.153  1.8072 -1.0672  2.1492
  152OSM   H18U16924   2.327   2.021   5.131 -0.1726 -0.8810 -3.1081
  152OSM    C1F16925   2.398   2.202   3.434  0.4520  0.9548  0.1784
  152OSM     OF16926   2.454   2.277   3.352 -0.0162  0.1100 -0.2459
  152OSM    C2F16927   2.475   2.131   3.539 -0.9630  0.0569  0.9618
  152OSM    H2F16928   2.544   2.064   3.484 -1.8117  0.3999 -0.5848
  152OSM    H2G16929   2.414   2.074   3.612  0.2803 -0.2889  1.7589
  152OSM    C3F16930   2.553   2.234   3.630 -0.4077  0.5129 -0.5583
  152OSM    H3F16931   2.485   2.314   3.668  0.2915  1.4817 -1.2918
  152OSM    H3G16932   2.637   2.273   3.568 -0.5116  0.2223 -0.8840
  152OSM    C4F16933   2.610   2.166   3.761 -0.3082  1.1059  0.6974
  152OSM    H4F16934   2.700   2.219   3.800 -0.9052  0.3952  3.2228
  152OSM    H4G16935   2.648   2.063   3.745 -1.6432  0.1588  3.1310
  152OSM    C5F16936   2.502   2.156   3.868  0.4132 -0.1287 -0.1016
  152OSM    H5F16937   2.434   2.069   3.855  1.7311 -1.5606  1.9636
  152OSM    H5G16938   2.448   2.253   3.868 -1.2904 -1.0313 -0.5042
  152OSM    C6F16939   2.559   2.139   4.010  0.4270 -0.0152  0.1624
  152OSM    H6F16940   2.584   2.237   4.056  1.2272  0.0246 -0.3393
  152OSM    H6G16941   2.656   2.085   4.009  0.0821 -0.6384  0.1860
  152OSM    C7F16942   2.458   2.080   4.112 -0.0355 -0.3348 -0.6740
  152OSM    H7F16943   2.446   1.976   4.077 -1.6890  0.0785 -1.4438
  152OSM    H7G16944   2.357   2.126   4.103  0.3398  0.4712 -0.8954
  152OSM    C8F16945   2.514   2.070   4.256 -0.4889  0.2416 -0.2122
  152OSM    H8F16946   2.416   2.071   4.309 -0.4637 -1.8465 -0.0499
  152OSM    H8G16947   2.550   2.172   4.281 -0.1206 -0.1036  0.7499
  152OSM    C9F16948   2.609   1.950   4.286 -0.8289  0.4174  0.6986
  152OSM    H9F16949   2.566   1.850   4.274  1.9899 -1.3290  3.4747
  152OSM   C10F16950   2.733   1.962   4.348  0.9001 -0.1127  0.5702
  152OSM   H10F16951   2.782   1.870   4.383  2.6353 -0.0351 -1.4683
  152OSM   C11F16952   2.789   2.085   4.410  0.3061  0.3329  0.6678
  152OSM   H11F16953   2.715   2.168   4.405  1.6398  1.6032  1.2552
  152OSM   H11G16954   2.877   2.121   4.352  0.5021 -0.6816  0.3189
  152OSM   C12F16955   2.841   2.066   4.549  0.4052  0.3684 -0.8131
  152OSM   H12F16956   2.893   2.154   4.592  1.7082 -0.0103 -1.5798
  152OSM   H12G16957   2.918   1.986   4.542  0.4850  0.5519 -2.2067
  152OSM   C13F16958   2.739   2.024   4.659  0.2248 -0.1353 -0.7308
  152OSM   H13F16959   2.654   1.978   4.605  1.5278 -1.6385 -1.5675
  152OSM   H13G16960   2.709   2.111   4.722 -0.1327 -0.5244 -0.3561
  152OSM   C14F16961   2.794   1.911   4.748 -0.1005 -0.9047  0.4704
  152OSM   H14F16962   2.890   1.944   4.793  0.0242  0.0430 -0.4536
  152OSM   H14G16963   2.827   1.832   4.678  3.5312 -0.0040  0.9606
  152OSM   C15F16964   2.691   1.859   4.843 -0.4347 -0.3356  0.0712
  152OSM   H15F16965   2.596   1.839   4.789 -1.0408 -1.8360  1.5817
  152OSM   H15G16966   2.682   1.939   4.920  2.8830  0.6376 -0.3862
  152OSM   C16F16967   2.735   1.731   4.916 -0.7453 -0.4081 -0.1040
  152OSM   H16F16968   2.840   1.750   4.949 -0.9582  2.7798 -0.9449
  152OSM   H16G16969   2.730   1.645   4.845  3.4176  2.9733 -5.2800
  152OSM   C17F16970   2.664   1.704   5.042  0.2251  0.7377  0.0366
  152OSM   H17F16971   2.554   1.692   5.037  0.0055  2.4964 -0.0679
  152OSM   H17G16972   2.662   1.787   5.117 -2.4070  0.2213  0.6530
  152OSM   C18F16973   2.726   1.587   5.117  0.1366  1.1757 -0.2527
  152OSM   H18F16974   2.837   1.587   5.118  0.2680 -2.8373  1.1250
  152OSM   H18G16975   2.695   1.496   5.062  0.5816  0.3518  0.8217
  152OSM   H18H16976   2.688   1.569   5.220  0.0287  0.7201 -0.3715
  153OSM      N16977   1.967   2.102   2.875  0.0813 -0.1279  0.1067
  153OSM    C1516978   2.099   2.162   2.878 -0.0352 -0.3519 -0.0461
  153OSM   H15A16979   2.167   2.110   2.812  0.9874  1.9786 -0.9384
  153OSM   H15B16980   2.143   2.162   2.976 -0.2661  0.2526  0.0628
  153OSM   H15C16981   2.090   2.258   2.830  0.1464 -1.2138 -1.9135
  153OSM    C1416982   1.883   2.179   2.973  0.0549  0.5973  0.5036
  153OSM   H14A16983   1.785   2.137   2.989 -0.4287  2.1790  2.0318
  153OSM   H14B16984   1.872   2.278   2.932  1.2701  0.8642  0.7762
  153OSM   H14C16985   1.946   2.176   3.062 -3.0533  0.2260  2.8502
  153OSM    C1316986   1.917   2.103   2.740  0.5238 -0.2062  0.0674
  153OSM   H13A16987   1.989   2.071   2.666 -0.2115  0.4538 -0.9643
  153OSM   H13B16988   1.892   2.195   2.689  3.3887 -0.9010 -2.9455
  153OSM   H13C16989   1.834   2.034   2.734 -0.3523  0.7919  0.3912
  153OSM    C1216990   1.978   1.955   2.926  0.0937 -0.3037 -0.4983
  153OSM   H12A16991   2.035   1.895   2.857  1.4394 -0.3036  0.5872
  153OSM   H12B16992   1.883   1.903   2.923 -0.2991  0.3162  0.7368
  153OSM    C1116993   2.038   1.930   3.063 -0.6175  0.2006 -0.0002
  153OSM   H11A16994   2.013   1.826   3.093  0.8244 -0.0285  0.4936
  153OSM   H11B16995   1.978   1.988   3.137 -1.9627 -0.8624 -0.2109
  153OSM      P16996   2.283   1.852   3.112  0.3079 -0.0906  0.3142
  153OSM    O1316997   2.307   1.763   2.986  0.0318 -0.5665  0.5085
  153OSM    O1416998   2.403   1.914   3.171 -0.1058 -0.5459 -0.4786
  153OSM    O1116999   2.208   1.770   3.220 -0.2085 -0.1362 -0.1942
  153OSM    O1217000   2.183   1.961   3.071  0.2968  0.0830 -0.3212
  153OSM    C1S17001   2.221   1.804   3.364 -0.0222  0.3492 -0.0185
  153OSM    H1S17002   2.263   1.906   3.377  0.0878  0.2585  0.3756
  153OSM    H1T17003   2.303   1.736   3.398  0.8863  0.9347 -0.9781
  153OSM     NF17004   2.119   1.792   3.587 -0.4795  0.6444 -0.3497
  153OSM    HNF17005   2.120   1.713   3.649  0.5222  0.1290 -0.9827
  153OSM    C2S17006   2.093   1.769   3.444  0.3303  0.9131  0.1773
  153OSM    H2S17007   2.007   1.830   3.411  1.4991  1.8023 -1.3763
  153OSM    C3S17008   2.051   1.619   3.406  0.1877  0.5954  0.5817
  153OSM    H3S17009   2.125   1.557   3.461  0.2319 -0.3629 -0.5206
  153OSM     O317010   2.057   1.574   3.270 -0.2698 -0.2120 -0.4316
  153OSM    HO317011   2.105   1.646   3.228  0.1751  0.1088  0.5818
  153OSM    C4S17012   1.914   1.597   3.454  0.2065 -0.2942  0.1745
  153OSM    H4S17013   1.841   1.659   3.399  1.5093  0.6825 -0.5041
  153OSM    C5S17014   1.873   1.516   3.553  0.5267  0.2443 -0.6507
  153OSM    H5S17015   1.946   1.461   3.615  0.0890 -0.2592 -0.5818
  153OSM    C6S17016   1.730   1.493   3.601 -0.0798 -0.2435  0.3832
  153OSM    H6S17017   1.688   1.397   3.564  0.6088 -1.2891  2.1852
  153OSM    H6T17018   1.663   1.575   3.567 -0.6576 -0.2336  1.5006
  153OSM    C7S17019   1.726   1.488   3.754 -0.1391 -0.3354  0.4087
  153OSM    H7S17020   1.629   1.524   3.793  0.2585  1.9355 -0.5612
  153OSM    H7T17021   1.799   1.563   3.791  1.3727 -1.4008 -0.2573
  153OSM    C8S17022   1.757   1.344   3.803 -0.0375 -1.0711 -0.2411
  153OSM    H8S17023   1.850   1.305   3.758  0.9038  0.2368  0.4777
  153OSM    H8T17024   1.665   1.291   3.772 -2.3357  2.7154 -0.5939
  153OSM    C9S17025   1.767   1.342   3.958 -0.2056  0.1913  0.4326
  153OSM    H9S17026   1.671   1.391   3.985 -0.1771  1.9983 -2.3222
  153OSM    H9T17027   1.856   1.395   3.998 -0.9245 -0.5054  3.1808
  153OSM   C10S17028   1.759   1.205   4.027 -0.7223  0.1277  0.0745
  153OSM   H10S17029   1.847   1.140   4.007 -0.8250  0.3348 -1.1392
  153OSM   H10T17030   1.673   1.150   3.983 -0.0149 -1.9704  1.1848
  153OSM   C11S17031   1.727   1.215   4.173 -0.4745  0.0126  0.1781
  153OSM   H11S17032   1.624   1.254   4.187 -1.3608 -1.4358 -1.7851
  153OSM   H11T17033   1.798   1.282   4.227 -0.5977  0.1762  0.1377
  153OSM   C12S17034   1.737   1.071   4.236 -0.4132  0.3211  0.0730
  153OSM   H12S17035   1.833   1.029   4.197 -0.1525 -1.2978  2.2519
  153OSM   H12T17036   1.650   1.008   4.209 -0.0098 -1.5094  2.6762
  153OSM   C13S17037   1.750   1.073   4.389 -0.5639 -0.3499 -0.2428
  153OSM   H13S17038   1.658   1.116   4.434  0.4907 -1.7150  3.5907
  153OSM   H13T17039   1.838   1.136   4.415 -0.4337 -0.5527 -0.1928
  153OSM   C14S17040   1.772   0.935   4.445 -0.7788 -0.1624 -0.1198
  153OSM   H14S17041   1.871   0.898   4.410  0.6068  3.0389  0.0770
  153OSM   H14T17042   1.692   0.869   4.405  1.0791 -1.3496 -2.0900
  153OSM   C15S17043   1.785   0.927   4.601 -0.2806  0.3974 -0.1319
  153OSM   H15S17044   1.698   0.973   4.652  0.5619  1.6321  0.2250
  153OSM   H15T17045   1.875   0.985   4.629  1.4457 -2.3031  0.2840
  153OSM   C16S17046   1.813   0.785   4.640  0.6411  0.2339 -0.3099
  153OSM   H16S17047   1.910   0.744   4.606  1.3968 -0.1639  2.1137
  153OSM   H16T17048   1.734   0.721   4.597  1.1167  0.1256 -1.0318
  153OSM   C17S17049   1.802   0.764   4.789 -0.2669  0.2550  0.3313
  153OSM   H17S17050   1.788   0.655   4.806 -0.1797  0.1605 -0.1977
  153OSM   H17T17051   1.719   0.826   4.829 -0.1174  0.3504  0.4970
  153OSM   C18S17052   1.930   0.801   4.859  0.2485 -0.7166  0.0863
  153OSM   H18S17053   1.939   0.759   4.962 -1.0928 -0.1736  0.4493
  153OSM   H18T17054   1.939   0.912   4.862 -0.2714 -0.6630 -0.3019
  153OSM   H18U17055   2.018   0.768   4.799  0.7596  1.3940 -0.4131
  153OSM    C1F17056   2.138   1.912   3.641  0.4852 -0.4245 -0.0384
  153OSM     OF17057   2.138   2.011   3.572 -0.4999  0.1269  0.7016
  153OSM    C2F17058   2.155   1.934   3.788  0.6121  0.5062 -0.2087
  153OSM    H2F17059   2.088   2.021   3.807 -1.7582 -1.0410 -1.0549
  153OSM    H2G17060   2.260   1.958   3.817  0.8557 -1.6164  0.8744
  153OSM    C3F17061   2.108   1.806   3.856 -0.0462  0.0905 -0.6986
  153OSM    H3F17062   2.177   1.720   3.842 -1.9384 -1.5891 -0.2878
  153OSM    H3G17063   2.011   1.776   3.811 -0.0647 -0.7212 -0.1465
  153OSM    C4F17064   2.102   1.824   4.012  0.8885  0.0205  0.1632
  153OSM    H4F17065   2.019   1.896   4.030 -0.3036 -0.6765 -2.1472
  153OSM    H4G17066   2.191   1.880   4.048  0.4709  0.1665  0.9925
  153OSM    C5F17067   2.082   1.686   4.082 -0.0221  0.6102  0.0776
  153OSM    H5F17068   2.171   1.625   4.056 -0.1765  0.2659  0.3488
  153OSM    H5G17069   1.990   1.636   4.045  0.4605 -0.1578 -0.1213
  153OSM    C6F17070   2.046   1.681   4.230  0.1933  0.6068  0.2710
  153OSM    H6F17071   1.945   1.718   4.255  0.2206 -0.8109  2.7194
  153OSM    H6G17072   2.104   1.761   4.281 -0.9046  0.2806  2.1255
  153OSM    C7F17073   2.084   1.546   4.300  0.2014  0.0649 -0.1763
  153OSM    H7F17074   2.193   1.527   4.291  0.4683  1.7345 -0.9592
  153OSM    H7G17075   2.031   1.461   4.251 -1.5223  0.9429  0.0810
  153OSM    C8F17076   2.025   1.544   4.444  0.1704  0.2187  0.5094
  153OSM    H8F17077   2.059   1.642   4.483 -1.0962  0.8932 -0.0268
  153OSM    H8G17078   2.078   1.463   4.497 -0.2334 -0.6451 -0.3659
  153OSM    C9F17079   1.871   1.551   4.447 -0.3074 -0.7574 -0.3578
  153OSM    H9F17080   1.815   1.517   4.358  2.0101 -1.1979 -1.7316
  153OSM   C10F17081   1.803   1.578   4.562  0.0131  0.0801  0.3255
  153OSM   H10F17082   1.693   1.582   4.559 -0.1681 -1.0383  3.1487
  153OSM   C11F17083   1.882   1.608   4.689 -0.0717 -0.2584 -0.4186
  153OSM   H11F17084   1.909   1.715   4.693 -1.5387  0.0983  1.8739
  153OSM   H11G17085   1.971   1.542   4.702 -0.7706 -0.9641  0.9703
  153OSM   C12F17086   1.797   1.599   4.819 -0.2040 -0.5639 -0.2902
  153OSM   H12F17087   1.708   1.666   4.819 -1.0105 -1.6058 -0.2893
  153OSM   H12G17088   1.852   1.634   4.909 -2.9677  2.3518  0.4482
  153OSM   C13F17089   1.736   1.464   4.851 -1.1474 -0.4820  0.9308
  153OSM   H13F17090   1.668   1.443   4.766 -1.7794  0.9263  1.0635
  153OSM   H13G17091   1.678   1.471   4.945 -0.2954 -1.0599  1.5213
  153OSM   C14F17092   1.840   1.353   4.852  0.2165  0.2554 -0.2295
  153OSM   H14F17093   1.917   1.372   4.931  1.0477 -2.2309 -0.3619
  153OSM   H14G17094   1.879   1.351   4.748 -0.2014  1.5820 -0.4316
  153OSM   C15F17095   1.769   1.217   4.866  0.4465 -0.5272  0.4846
  153OSM   H15F17096   1.852   1.145   4.880  1.7521  1.0196  1.0599
  153OSM   H15G17097   1.712   1.201   4.772 -2.1967 -0.5916  1.9849
  153OSM   C16F17098   1.671   1.205   4.978 -0.7517 -0.1952  0.9697
  153OSM   H16F17099   1.612   1.112   4.987 -1.1097  0.1293  2.1988
  153OSM   H16G17100   1.593   1.284   4.973 -0.4043  0.3052  2.8734
  153OSM   C17F17101   1.750   1.217   5.108 -0.1165 -0.1979 -0.0900
  153OSM   H17F17102   1.791   1.320   5.105 -0.6161  0.0186  0.3886
  153OSM   H17G17103   1.836   1.147   5.102  0.8421  0.8980  0.4329
  153OSM   C18F17104   1.671   1.178   5.238  0.0792 -0.2602 -0.2519
  153OSM   H18F17105   1.622   1.078   5.231  0.9449 -0.7188  0.0744
  153OSM   H18G17106   1.587   1.249   5.250  0.9305  0.5327  1.2248
  153OSM   H18H17107   1.741   1.178   5.324 -1.7696  1.5814  1.3371
  154OSM      N17108   0.933   5.877   3.241 -0.4779  0.3151  0.2014
  154OSM    C1517109   1.013   5.940   3.351  0.1648  0.2242 -0.3146
  154OSM   H15A17110   0.943   5.992   3.415  0.1534  0.3263 -0.4082
  154OSM   H15B17111   1.100   5.986   3.307 -0.5237  1.5379 -0.3695
  154OSM   H15C17112   1.051   5.860   3.413 -0.5328 -0.1879 -0.4087
  154OSM    C1417113   0.855   5.985   3.163  0.0663 -0.2724  0.8271
  154OSM   H14A17114   0.792   5.933   3.092  0.7032 -0.2406  0.2261
  154OSM   H14B17115   0.913   6.052   3.102 -0.7178 -0.5619 -0.2783
  154OSM   H14C17116   0.800   6.052   3.227 -0.0725  0.5157 -0.1027
  154OSM    C1317117   1.023   5.813   3.144 -0.1891  0.4624  0.0491
  154OSM   H13A17118   0.962   5.766   3.068  0.3765  1.5523 -1.1229
  154OSM   H13B17119   1.065   5.731   3.201 -0.2371  1.1414  1.0899
  154OSM   H13C17120   1.102   5.871   3.098  0.1507 -0.7348 -0.9546
  154OSM    C1217121   0.828   5.774   3.293 -0.1904  0.6850  0.3546
  154OSM   H12A17122   0.786   5.737   3.201  1.4091 -0.9442  0.2087
  154OSM   H12B17123   0.747   5.831   3.336  1.6481  4.0657 -0.2208
  154OSM    C1117124   0.869   5.658   3.386  0.4759  1.0126 -0.1975
  154OSM   H11A17125   0.782   5.613   3.438  1.9336 -1.6892  0.0797
  154OSM   H11B17126   0.928   5.708   3.465 -0.6730  0.3697  1.1053
  154OSM      P17127   1.072   5.493   3.375  0.4754 -0.3791 -0.3306
  154OSM    O1317128   1.079   5.361   3.315 -0.9344 -0.1060  0.5009
  154OSM    O1417129   1.191   5.587   3.352  0.7037  0.6883 -0.5752
  154OSM    O1117130   1.051   5.481   3.536 -0.0676 -1.2659 -0.1719
  154OSM    O1217131   0.945   5.565   3.319 -0.4570  0.3114  0.2506
  154OSM    C1S17132   0.953   5.401   3.594  0.5952 -0.1894 -0.2792
  154OSM    H1S17133   0.984   5.295   3.586  1.8673  0.0589  0.9901
  154OSM    H1T17134   0.854   5.421   3.546  0.6763  0.7361 -0.0748
  154OSM     NF17135   0.837   5.351   3.811  0.5180  0.3791 -0.2654
  154OSM    HNF17136   0.762   5.395   3.858 -0.2115  0.6719 -1.6736
  154OSM    C2S17137   0.935   5.435   3.747  0.4569 -0.1071 -0.0139
  154OSM    H2S17138   1.031   5.411   3.797  0.3348  2.1206  1.4784
  154OSM    C3S17139   0.914   5.587   3.778  0.2994 -0.0109  0.2106
  154OSM    H3S17140   0.814   5.621   3.741 -0.4965 -0.9731  1.4233
  154OSM     O317141   1.019   5.674   3.728 -0.3132 -0.0886  0.5794
  154OSM    HO317142   1.056   5.619   3.658 -0.3609  0.3346  0.2195
  154OSM    C4S17143   0.913   5.615   3.924  0.3840 -0.0358 -0.3426
  154OSM    H4S17144   0.995   5.560   3.974  0.2641  2.1374  2.4494
  154OSM    C5S17145   0.825   5.671   4.000  0.1580 -0.1279 -0.4641
  154OSM    H5S17146   0.736   5.710   3.949 -0.7195 -1.1748  0.2079
  154OSM    C6S17147   0.815   5.692   4.146  0.7988 -0.2430 -0.3981
  154OSM    H6S17148   0.794   5.799   4.164 -2.3228 -1.0647  1.7508
  154OSM    H6T17149   0.912   5.670   4.196  0.1366  1.1977  1.6315
  154OSM    C7S17150   0.694   5.615   4.209  0.1319  0.7440 -0.0828
  154OSM    H7S17151   0.689   5.516   4.160 -0.6639  1.2701 -1.1159
  154OSM    H7T17152   0.601   5.670   4.182  0.5471  1.2713 -0.4611
  154OSM    C8S17153   0.702   5.627   4.364  0.4725  0.1245  0.3377
  154OSM    H8S17154   0.610   5.581   4.407  0.1942  1.2438  0.9611
  154OSM    H8T17155   0.702   5.736   4.384  0.4628  0.2730 -0.4298
  154OSM    C9S17156   0.823   5.548   4.419  0.1596 -0.0656 -0.2521
  154OSM    H9S17157   0.919   5.602   4.408 -0.3093  0.8680  0.1833
  154OSM    H9T17158   0.836   5.451   4.366 -0.0357 -0.0059 -0.4128
  154OSM   C10S17159   0.805   5.516   4.569  0.2136 -1.0290  0.5303
  154OSM   H10S17160   0.724   5.440   4.574  0.3750 -1.3876 -1.5995
  154OSM   H10T17161   0.774   5.606   4.626  1.1509  0.3788 -1.1194
  154OSM   C11S17162   0.929   5.454   4.631  0.1018 -0.0248 -0.4494
  154OSM   H11S17163   1.012   5.527   4.632  1.4906 -1.5082  1.9111
  154OSM   H11T17164   0.970   5.364   4.581 -2.1071 -0.9121 -0.7687
  154OSM   C12S17165   0.893   5.411   4.781  0.1408  0.0293  0.1631
  154OSM   H12S17166   0.821   5.326   4.779  2.9109 -2.5543  2.3126
  154OSM   H12T17167   0.845   5.500   4.828 -2.2009 -0.6783 -0.7628
  154OSM   C13S17168   1.015   5.380   4.860  0.2864 -0.4495  0.6343
  154OSM   H13S17169   1.079   5.470   4.870  2.7042 -2.0670  0.7006
  154OSM   H13T17170   1.078   5.302   4.811  1.2520 -0.2891  1.5729
  154OSM   C14S17171   0.967   5.347   5.002  0.6431  0.0684 -0.1882
  154OSM   H14S17172   0.887   5.270   5.000 -1.2659  1.9827 -0.6528
  154OSM   H14T17173   0.926   5.440   5.046  0.2958 -1.0229  1.9847
  154OSM   C15S17174   1.077   5.321   5.109  1.0482 -0.1643  0.6884
  154OSM   H15S17175   1.020   5.311   5.204 -0.1187  0.6930  0.1094
  154OSM   H15T17176   1.140   5.412   5.099  1.1099 -0.2565  0.2062
  154OSM   C16S17177   1.165   5.202   5.073  0.2493 -0.2790 -0.1347
  154OSM   H16S17178   1.223   5.231   4.983  1.5466 -2.2151  0.0310
  154OSM   H16T17179   1.103   5.111   5.058 -0.1453 -0.0446  0.0528
  154OSM   C17S17180   1.265   5.178   5.189 -0.2013  0.3454  0.5879
  154OSM   H17S17181   1.212   5.156   5.284  3.8530  0.3531  3.0880
  154OSM   H17T17182   1.323   5.271   5.206  0.4844  0.2742 -1.2002
  154OSM   C18S17183   1.367   5.075   5.147 -0.1836  0.6395  0.2568
  154OSM   H18S17184   1.322   4.977   5.119 -0.8782  0.9129  0.3884
  154OSM   H18T17185   1.445   5.064   5.225 -0.7405  2.1828  1.0773
  154OSM   H18U17186   1.425   5.106   5.057 -1.8315 -1.0519 -1.4857
  154OSM    C1F17187   0.855   5.217   3.809  0.1718  0.2041  0.1488
  154OSM     OF17188   0.970   5.171   3.786  0.1133  0.0603 -0.0297
  154OSM    C2F17189   0.743   5.132   3.850 -0.4444 -0.0983  0.3059
  154OSM    H2F17190   0.696   5.113   3.751 -1.2158 -0.3014  0.7110
  154OSM    H2G17191   0.660   5.181   3.904 -0.2168 -0.2877  0.8362
  154OSM    C3F17192   0.784   5.002   3.926  0.1298  0.9529 -0.2171
  154OSM    H3F17193   0.871   4.954   3.877 -0.4907 -0.8559  0.4034
  154OSM    H3G17194   0.701   4.930   3.913  0.5046  0.2750  1.0200
  154OSM    C4F17195   0.815   5.038   4.075  0.2552  0.4266  0.6190
  154OSM    H4F17196   0.736   5.100   4.123 -2.3268 -1.7819 -0.5148
  154OSM    H4G17197   0.907   5.101   4.083 -1.6961  3.4178  1.1249
  154OSM    C5F17198   0.837   4.916   4.158  0.5578  0.3420 -0.7746
  154OSM    H5F17199   0.922   4.855   4.121  2.0515  1.1353  1.1494
  154OSM    H5G17200   0.744   4.856   4.147  0.9220 -0.7587  1.5494
  154OSM    C6F17201   0.859   4.950   4.302 -0.1326 -0.0554  0.1434
  154OSM    H6F17202   0.780   5.024   4.327  0.8843  1.0456  0.1747
  154OSM    H6G17203   0.955   5.003   4.312 -0.5524  0.2154  4.1086
  154OSM    C7F17204   0.845   4.822   4.393  0.2081 -0.2824  0.0988
  154OSM    H7F17205   0.906   4.736   4.359  0.5224 -0.2331  0.5240
  154OSM    H7G17206   0.740   4.796   4.365  1.2873 -3.3962 -1.4937
  154OSM    C8F17207   0.867   4.846   4.548  0.3654 -0.3400  0.0757
  154OSM    H8F17208   0.840   4.754   4.604  1.6289 -1.0197 -0.4059
  154OSM    H8G17209   0.789   4.923   4.564  0.0996 -1.0439  2.6289
  154OSM    C9F17210   1.005   4.889   4.585  0.5042  0.4193 -0.2045
  154OSM    H9F17211   1.038   4.976   4.526 -0.2516  0.8999  0.0739
  154OSM   C10F17212   1.079   4.832   4.679 -0.4412  0.3958 -0.2437
  154OSM   H10F17213   1.179   4.871   4.701 -0.7625  0.4284  1.2799
  154OSM   C11F17214   1.060   4.714   4.767 -0.2655 -0.3330  0.2872
  154OSM   H11F17215   1.105   4.625   4.719  2.3037  2.4938 -3.0283
  154OSM   H11G17216   0.953   4.684   4.766 -0.0436 -1.2008  1.0053
  154OSM   C12F17217   1.114   4.737   4.904  0.2640  0.2481  0.2888
  154OSM   H12F17218   1.087   4.836   4.946  0.9127 -0.1856  1.7876
  154OSM   H12G17219   1.225   4.741   4.905  0.3659 -0.8238 -1.5624
  154OSM   C13F17220   1.058   4.634   5.006 -0.0330  0.0402 -0.0623
  154OSM   H13F17221   0.948   4.646   5.008  0.1528  2.8036  3.7321
  154OSM   H13G17222   1.080   4.663   5.111 -0.1029  0.3945 -0.1425
  154OSM   C14F17223   1.095   4.489   4.976 -0.0683 -0.5910 -0.3657
  154OSM   H14F17224   1.061   4.470   4.872  0.4846 -0.3639 -0.5910
  154OSM   H14G17225   1.043   4.420   5.046  0.2798 -0.6984 -0.2112
  154OSM   C15F17226   1.245   4.459   4.986  0.0329  0.1040 -0.8284
  154OSM   H15F17227   1.277   4.507   5.081 -3.4046 -1.1567  1.1784
  154OSM   H15G17228   1.292   4.499   4.894 -1.9185  0.3011 -1.8051
  154OSM   C16F17229   1.269   4.309   5.006 -0.2149 -0.1309 -0.1044
  154OSM   H16F17230   1.226   4.248   4.924 -0.1999 -2.0362  1.2378
  154OSM   H16G17231   1.217   4.272   5.097 -1.4982 -1.4477 -1.3252
  154OSM   C17F17232   1.423   4.277   5.018  0.5482  0.5812  0.4607
  154OSM   H17F17233   1.475   4.357   4.961 -1.8487  1.7991 -0.1283
  154OSM   H17G17234   1.428   4.173   4.979  0.9351  0.4164  0.9263
  154OSM   C18F17235   1.477   4.269   5.157  0.0792 -0.4280 -0.0246
  154OSM   H18F17236   1.433   4.182   5.209  0.9593 -1.0161 -0.2496
  154OSM   H18G17237   1.446   4.360   5.213 -3.1924 -0.9795 -0.7564
  154OSM   H18H17238   1.588   4.257   5.161 -0.0730 -2.0630 -0.4404
  155OSM      N17239   2.454   4.488   2.841 -0.2835 -0.8051 -0.0494
  155OSM    C1517240   2.544   4.523   2.732 -0.5276 -0.0638 -0.2826
  155OSM   H15A17241   2.544   4.441   2.661  0.0645 -1.0924  0.8662
  155OSM   H15B17242   2.642   4.533   2.776 -1.6642 -0.8856  2.6477
  155OSM   H15C17243   2.533   4.621   2.689  3.2715  0.6433 -0.0274
  155OSM    C1417244   2.325   4.451   2.787 -0.3310  0.2509  0.6065
  155OSM   H14A17245   2.282   4.532   2.731 -0.0656  1.7962  2.5673
  155OSM   H14B17246   2.263   4.415   2.867 -0.5821 -2.7317 -0.7725
  155OSM   H14C17247   2.348   4.369   2.719  1.9666  1.2989  0.0060
  155OSM    C1317248   2.499   4.379   2.929  0.3311 -0.7865  0.0772
  155OSM   H13A17249   2.421   4.359   3.001 -0.4764 -2.1943 -1.1289
  155OSM   H13B17250   2.591   4.409   2.978  0.7328  0.1540 -1.2100
  155OSM   H13C17251   2.523   4.296   2.864 -1.6107 -0.9480 -0.4851
  155OSM    C1217252   2.434   4.619   2.918 -0.3990 -0.1431 -0.1645
  155OSM   H12A17253   2.400   4.702   2.858  1.8551  1.6237  0.8112
  155OSM   H12B17254   2.531   4.650   2.955 -0.6864 -0.7278  1.1279
  155OSM    C1117255   2.339   4.619   3.041 -0.3327  0.6519  0.2340
  155OSM   H11A17256   2.348   4.723   3.079  0.8897  0.0358  1.7664
  155OSM   H11B17257   2.375   4.562   3.129 -2.8119  1.2354  1.7308
  155OSM      P17258   2.139   4.461   3.087  0.4451  0.0171  0.2989
  155OSM    O1317259   1.990   4.473   3.072  0.0150 -0.2541 -0.8275
  155OSM    O1417260   2.206   4.339   3.036 -0.0517  0.8579 -0.1221
  155OSM    O1117261   2.175   4.472   3.241  0.6013 -0.0949 -0.9097
  155OSM    O1217262   2.205   4.591   3.018 -0.2779  0.0254  0.2978
  155OSM    C1S17263   2.076   4.459   3.348  0.4910 -0.4100  0.2102
  155OSM    H1S17264   2.011   4.371   3.326 -1.1319  1.3374 -2.6401
  155OSM    H1T17265   2.011   4.549   3.352 -0.3939 -1.0656  0.8068
  155OSM     NF17266   2.036   4.402   3.574  0.2051 -0.7894 -0.6618
  155OSM    HNF17267   1.970   4.466   3.613 -1.8788 -2.3729 -1.3951
  155OSM    C2S17268   2.143   4.450   3.485 -0.1220  0.1635 -0.1451
  155OSM    H2S17269   2.230   4.381   3.476  1.5363  2.2177 -0.5762
  155OSM    C3S17270   2.202   4.586   3.530  0.4093 -0.8733 -0.1561
  155OSM    H3S17271   2.117   4.656   3.541  1.0332 -0.1546  0.2133
  155OSM     O317272   2.299   4.633   3.436 -0.2993 -0.4838  0.3430
  155OSM    HO317273   2.275   4.590   3.354  2.0527 -0.6757 -0.2946
  155OSM    C4S17274   2.272   4.578   3.665 -0.2116 -0.2206  0.3388
  155OSM    H4S17275   2.357   4.509   3.664  1.3400  1.5550 -2.1507
  155OSM    C5S17276   2.232   4.646   3.771 -0.4331  0.1592  0.1420
  155OSM    H5S17277   2.136   4.701   3.773 -1.5407 -1.6042 -1.3221
  155OSM    C6S17278   2.300   4.634   3.915 -0.1845  0.2498  0.2742
  155OSM    H6S17279   2.340   4.735   3.937  0.7594  0.7506 -3.1045
  155OSM    H6T17280   2.384   4.561   3.917  0.8618  1.1895 -2.8536
  155OSM    C7S17281   2.198   4.582   4.017 -0.0756  0.0840  0.4297
  155OSM    H7S17282   2.174   4.475   4.003 -1.6586  0.2914  1.3526
  155OSM    H7T17283   2.098   4.626   3.998 -0.5033  0.5148  3.2752
  155OSM    C8S17284   2.239   4.624   4.158 -0.5570 -0.4356 -0.3888
  155OSM    H8S17285   2.194   4.720   4.191 -0.0368 -1.0557  2.4666
  155OSM    H8T17286   2.348   4.641   4.165 -0.5379 -0.4682 -0.6172
  155OSM    C9S17287   2.222   4.523   4.267  0.7111  1.1724  0.1969
  155OSM    H9S17288   2.274   4.431   4.233  0.9488  1.3023  0.2051
  155OSM    H9T17289   2.117   4.488   4.256  1.1867  0.5376 -6.1429
  155OSM   C10S17290   2.264   4.561   4.410 -0.7668 -0.0974  0.0637
  155OSM   H10S17291   2.368   4.599   4.404 -1.3663  1.3642 -2.0731
  155OSM   H10T17292   2.278   4.469   4.471 -3.1508 -1.6385 -1.5635
  155OSM   C11S17293   2.159   4.644   4.482 -0.3285  0.6242 -0.2066
  155OSM   H11S17294   2.069   4.595   4.439 -0.8966 -1.2304  2.7154
  155OSM   H11T17295   2.169   4.751   4.455  1.1947  1.3021  2.5631
  155OSM   C12S17296   2.170   4.644   4.634 -0.7022 -0.0118  0.1340
  155OSM   H12S17297   2.182   4.545   4.682  2.2035  0.8251  1.3684
  155OSM   H12T17298   2.085   4.700   4.679 -0.9519  1.4214 -1.9623
  155OSM   C13S17299   2.297   4.722   4.677  0.2254 -0.3176 -0.0807
  155OSM   H13S17300   2.312   4.801   4.601 -0.7403 -0.3467 -0.3175
  155OSM   H13T17301   2.385   4.655   4.675  1.3608  1.1608 -0.8404
  155OSM   C14S17302   2.273   4.790   4.812  0.5882 -0.8582 -0.0099
  155OSM   H14S17303   2.248   4.704   4.878 -1.3874 -0.5220 -0.2521
  155OSM   H14T17304   2.180   4.851   4.811  0.1081 -1.4129  2.5295
  155OSM   C15S17305   2.382   4.882   4.852  0.2618  0.6141 -0.5650
  155OSM   H15S17306   2.342   4.928   4.945 -0.6303 -0.5705 -0.3416
  155OSM   H15T17307   2.400   4.960   4.774  3.9774  0.3705 -0.1557
  155OSM   C16S17308   2.508   4.806   4.887 -0.5556  0.4132 -0.1507
  155OSM   H16S17309   2.563   4.773   4.796 -0.6330 -1.1077  0.3126
  155OSM   H16T17310   2.480   4.726   4.959  0.1270 -0.1799 -0.5250
  155OSM   C17S17311   2.592   4.892   4.994  0.3145 -0.1812  0.0134
  155OSM   H17S17312   2.531   4.920   5.083  0.6408 -1.0330  0.5144
  155OSM   H17T17313   2.626   4.987   4.947 -0.8902  0.2606 -0.0184
  155OSM   C18S17314   2.719   4.824   5.037  0.1571 -1.0539  0.2314
  155OSM   H18S17315   2.774   4.783   4.950 -1.2498  0.8379 -1.6508
  155OSM   H18T17316   2.686   4.744   5.107 -0.1524  1.1886  2.7893
  155OSM   H18U17317   2.795   4.889   5.085  0.5846 -0.2636 -1.4274
  155OSM    C1F17318   2.025   4.276   3.603 -0.1436  0.6191 -0.4518
  155OSM     OF17319   2.098   4.189   3.558 -0.1224 -0.2138  0.0987
  155OSM    C2F17320   1.931   4.232   3.719  0.2115 -0.8392 -0.1969
  155OSM    H2F17321   1.892   4.322   3.771  1.1868 -1.3292  1.4602
  155OSM    H2G17322   1.981   4.188   3.808 -0.9811  2.0711  2.0879
  155OSM    C3F17323   1.826   4.131   3.667 -0.1083  0.9713 -0.1283
  155OSM    H3F17324   1.884   4.047   3.625  0.6580  0.9334  0.9668
  155OSM    H3G17325   1.769   4.186   3.589  3.2071  1.9660 -2.0277
  155OSM    C4F17326   1.740   4.097   3.791  0.2030 -0.6700 -0.3702
  155OSM    H4F17327   1.696   4.186   3.841  0.7512 -0.8046  0.3719
  155OSM    H4G17328   1.820   4.070   3.863  1.9067  1.4059 -1.3773
  155OSM    C5F17329   1.650   3.971   3.758 -0.3896 -0.3587  0.2781
  155OSM    H5F17330   1.715   3.896   3.710  0.9779 -0.5345  2.2929
  155OSM    H5G17331   1.577   4.003   3.680  0.9625  3.1112  0.2498
  155OSM    C6F17332   1.592   3.901   3.880 -0.3558 -0.4897 -0.1459
  155OSM    H6F17333   1.547   3.987   3.934  2.0953  0.4581  0.5244
  155OSM    H6G17334   1.669   3.861   3.949  0.2824  0.1683 -0.4565
  155OSM    C7F17335   1.482   3.797   3.853  0.5943  0.1791  0.4681
  155OSM    H7F17336   1.529   3.703   3.816 -0.7203 -0.7222  1.0013
  155OSM    H7G17337   1.412   3.843   3.781 -0.5199 -2.0027  0.0866
  155OSM    C8F17338   1.406   3.747   3.980 -0.3106 -0.3776 -0.0723
  155OSM    H8F17339   1.332   3.669   3.953 -1.0130 -0.0020  0.7219
  155OSM    H8G17340   1.353   3.835   4.023 -1.0631 -1.4649  1.3090
  155OSM    C9F17341   1.497   3.675   4.085  0.2229 -0.0136  0.1161
  155OSM    H9F17342   1.551   3.596   4.031  0.2812 -2.1616  3.1079
  155OSM   C10F17343   1.520   3.703   4.218  0.2961  0.6526 -0.0241
  155OSM   H10F17344   1.594   3.637   4.267  0.8012  0.4112 -1.0693
  155OSM   C11F17345   1.455   3.814   4.294 -0.8690  0.5326 -0.0869
  155OSM   H11F17346   1.356   3.841   4.253 -0.4342  2.4436  0.0267
  155OSM   H11G17347   1.522   3.902   4.289  1.9445 -1.3811  0.8090
  155OSM   C12F17348   1.432   3.764   4.448 -0.4608 -0.0031  0.0571
  155OSM   H12F17349   1.507   3.690   4.483 -2.3105 -1.3000  1.4650
  155OSM   H12G17350   1.338   3.706   4.446 -0.3984 -0.0903 -0.3993
  155OSM   C13F17351   1.431   3.878   4.551 -0.4603 -0.7407  0.1975
  155OSM   H13F17352   1.369   3.955   4.499  0.3682 -2.2734 -3.3859
  155OSM   H13G17353   1.537   3.908   4.566 -1.0541  1.8740 -0.2615
  155OSM   C14F17354   1.378   3.821   4.683  0.0124 -0.7849  0.3633
  155OSM   H14F17355   1.416   3.719   4.707  0.4635  0.0158  3.4745
  155OSM   H14G17356   1.269   3.810   4.668 -0.4089  1.3273  1.4924
  155OSM   C15F17357   1.396   3.907   4.813  0.3448  0.6998  0.0440
  155OSM   H15F17358   1.352   4.008   4.798  2.0279  1.1699 -2.2452
  155OSM   H15G17359   1.502   3.923   4.843  1.2342  2.6379 -3.5152
  155OSM   C16F17360   1.330   3.836   4.930 -0.0655 -0.2283 -0.0052
  155OSM   H16F17361   1.392   3.745   4.945 -0.9272 -0.7903  0.1836
  155OSM   H16G17362   1.226   3.811   4.900  0.2154 -0.4241 -0.8486
  155OSM   C17F17363   1.321   3.918   5.057 -0.0117  0.1452  0.0017
  155OSM   H17F17364   1.264   4.012   5.040 -1.2017 -0.4218  0.7892
  155OSM   H17G17365   1.417   3.953   5.101  0.4223  0.5849 -1.2549
  155OSM   C18F17366   1.240   3.839   5.161 -0.0217 -0.3764  0.1591
  155OSM   H18F17367   1.280   3.736   5.172 -0.9912 -0.8127 -0.2162
  155OSM   H18G17368   1.133   3.836   5.129 -0.7778  2.1466  2.1754
  155OSM   H18H17369   1.235   3.889   5.260  1.0891  1.5109 -0.6819
  156OSM      N17370   5.549   1.975   2.442 -0.0994 -0.0789  1.1205
  156OSM    C1517371   5.522   1.890   2.317  0.0287  0.1525  0.5031
  156OSM   H15A17372   5.443   1.929   2.255  1.4109  1.8752 -0.2547
  156OSM   H15B17373   5.481   1.797   2.353  2.1364 -0.9930  0.1286
  156OSM   H15C17374   5.610   1.875   2.256  1.8393 -0.2079  3.0060
  156OSM    C1417375   5.649   1.921   2.528  0.2283  0.8881 -0.3104
  156OSM   H14A17376   5.750   1.938   2.496  0.3899 -0.8242 -0.8124
  156OSM   H14B17377   5.633   1.819   2.558  1.2109  0.8422  0.0650
  156OSM   H14C17378   5.646   1.975   2.622  1.4678  0.2623  0.1048
  156OSM    C1317379   5.583   2.117   2.394  0.3164  0.4647 -0.3495
  156OSM   H13A17380   5.499   2.146   2.332 -0.7604 -2.1262 -0.2041
  156OSM   H13B17381   5.675   2.121   2.338  2.1781  0.6968  2.5262
  156OSM   H13C17382   5.606   2.179   2.479  3.7395 -2.2147  0.9137
  156OSM    C1217383   5.419   1.984   2.519  0.7674  0.5801 -0.3720
  156OSM   H12A17384   5.341   2.020   2.453  1.4696 -0.2492 -1.7044
  156OSM   H12B17385   5.417   2.062   2.595 -0.1263  0.9656 -0.7797
  156OSM    C1117386   5.348   1.862   2.584 -0.2138  0.1813 -0.6972
  156OSM   H11A17387   5.339   1.776   2.515 -0.3024 -0.2418 -0.1659
  156OSM   H11B17388   5.241   1.881   2.611 -0.4164 -1.8327  0.1353
  156OSM      P17389   5.400   1.876   2.850 -0.5530  0.4967 -0.2227
  156OSM    O1317390   5.502   1.804   2.931 -0.2050 -0.1016  0.3761
  156OSM    O1417391   5.398   2.024   2.850  0.5165 -0.4281  0.0417
  156OSM    O1117392   5.250   1.826   2.878  0.0802 -0.1104 -0.2162
  156OSM    O1217393   5.426   1.823   2.701 -0.2076  0.0737 -1.1016
  156OSM    C1S17394   5.242   1.685   2.925 -0.2199  0.2329 -0.0770
  156OSM    H1S17395   5.336   1.648   2.973 -0.0201  0.0732 -0.5864
  156OSM    H1T17396   5.225   1.612   2.843 -1.6413 -0.1119  0.4974
  156OSM     NF17397   5.150   1.554   3.110  0.0229  0.6839 -0.2234
  156OSM    HNF17398   5.136   1.462   3.075 -2.7702  1.5585 -1.7004
  156OSM    C2S17399   5.120   1.663   3.021  0.4132  0.4605  0.3045
  156OSM    H2S17400   5.104   1.750   3.088  0.2165 -0.0714  0.9604
  156OSM    C3S17401   4.986   1.632   2.939  0.3749 -0.4025 -0.2896
  156OSM    H3S17402   5.011   1.532   2.897 -1.8801 -0.2032 -2.3342
  156OSM     O317403   4.963   1.727   2.834 -0.1654  0.6219 -0.3650
  156OSM    HO317404   5.040   1.784   2.845  1.2062 -0.9239 -1.4684
  156OSM    C4S17405   4.863   1.612   3.023  0.0376 -0.6224 -0.7795
  156OSM    H4S17406   4.827   1.711   3.056  0.4592 -0.4539 -0.8167
  156OSM    C5S17407   4.815   1.496   3.070  0.0339 -0.0455  0.6190
  156OSM    H5S17408   4.865   1.402   3.043  2.5435  0.6417  2.5258
  156OSM    C6S17409   4.692   1.487   3.158 -0.7981  0.5066  0.3676
  156OSM    H6S17410   4.683   1.384   3.197  1.6809 -0.3284 -1.0324
  156OSM    H6T17411   4.608   1.496   3.086  0.3323  0.1130 -1.0395
  156OSM    C7S17412   4.695   1.582   3.268 -0.3860  0.0445  0.2465
  156OSM    H7S17413   4.695   1.688   3.236  0.4163  0.4181  1.4160
  156OSM    H7T17414   4.789   1.571   3.326  1.1005  3.9314 -1.1385
  156OSM    C8S17415   4.574   1.562   3.355  0.4564 -0.1151  0.3920
  156OSM    H8S17416   4.482   1.597   3.304 -1.0283 -2.2800  1.4409
  156OSM    H8T17417   4.571   1.623   3.448  0.2136 -0.6113  0.7116
  156OSM    C9S17418   4.555   1.418   3.415 -0.1568 -0.4201  0.2804
  156OSM    H9S17419   4.647   1.391   3.471  0.1221 -0.8665 -0.3758
  156OSM    H9T17420   4.531   1.341   3.339  0.6900  0.5774 -1.0254
  156OSM   C10S17421   4.442   1.412   3.523  0.4378  0.0986 -0.6958
  156OSM   H10S17422   4.382   1.318   3.517 -1.4072  1.2686 -1.7511
  156OSM   H10T17423   4.371   1.487   3.482 -1.1481 -1.0528 -0.1758
  156OSM   C11S17424   4.492   1.456   3.663 -0.0378  0.5189 -0.5373
  156OSM   H11S17425   4.527   1.561   3.673  0.3063  0.4187 -0.6861
  156OSM   H11T17426   4.581   1.394   3.686  0.1500  0.5398 -1.2016
  156OSM   C12S17427   4.395   1.409   3.777 -0.3830 -0.8201 -0.1797
  156OSM   H12S17428   4.370   1.301   3.767  3.6383 -2.3519  3.2470
  156OSM   H12T17429   4.306   1.475   3.775  0.4543  0.3303 -0.4010
  156OSM   C13S17430   4.460   1.417   3.916  0.2021  0.0479 -0.0712
  156OSM   H13S17431   4.474   1.526   3.935  2.1072 -0.0303 -0.8463
  156OSM   H13T17432   4.559   1.366   3.910 -0.3897 -1.1521  0.0162
  156OSM   C14S17433   4.364   1.376   4.032 -0.2377 -0.1870  0.1819
  156OSM   H14S17434   4.347   1.266   4.025 -1.0292  0.0373 -1.9147
  156OSM   H14T17435   4.264   1.423   4.017 -0.3973 -1.2720 -2.8715
  156OSM   C15S17436   4.432   1.403   4.164  0.4463 -0.1150 -0.1269
  156OSM   H15S17437   4.542   1.393   4.157  0.6074  1.4202 -0.2379
  156OSM   H15T17438   4.386   1.331   4.235 -2.4564  1.2574 -0.4553
  156OSM   C16S17439   4.388   1.540   4.222  0.2016 -0.3321  0.3953
  156OSM   H16S17440   4.279   1.552   4.239 -0.0105 -1.7807  0.1413
  156OSM   H16T17441   4.417   1.624   4.154 -2.2006  0.2517  0.0147
  156OSM   C17S17442   4.468   1.553   4.355  0.6465  0.2760  0.0491
  156OSM   H17S17443   4.577   1.539   4.337  0.9141  0.6899  1.2421
  156OSM   H17T17444   4.436   1.467   4.419 -0.4157  0.2664 -0.4723
  156OSM   C18S17445   4.449   1.687   4.415 -1.4001 -0.5602  0.0710
  156OSM   H18S17446   4.511   1.701   4.506 -0.6991 -1.0550 -0.3218
  156OSM   H18T17447   4.344   1.703   4.447 -1.3199  0.6826 -0.2271
  156OSM   H18U17448   4.459   1.772   4.344 -0.2286 -0.2394  0.5895
  156OSM    C1F17449   5.221   1.574   3.217  0.4936 -0.6053  0.6748
  156OSM     OF17450   5.277   1.685   3.239  0.2540 -0.3743 -0.3275
  156OSM    C2F17451   5.246   1.450   3.303  0.1337  0.1934 -0.6308
  156OSM    H2F17452   5.310   1.378   3.248  2.1407  0.2587  1.4400
  156OSM    H2G17453   5.148   1.405   3.328 -0.3372  0.0106 -2.6739
  156OSM    C3F17454   5.324   1.483   3.432  0.0605  0.3531 -0.0174
  156OSM    H3F17455   5.279   1.571   3.482 -0.8162  0.5116 -1.0582
  156OSM    H3G17456   5.427   1.506   3.397  0.0242 -0.9529 -1.0567
  156OSM    C4F17457   5.343   1.375   3.538 -0.2770 -0.1692 -0.0245
  156OSM    H4F17458   5.384   1.289   3.482 -0.9575 -0.1363 -0.5965
  156OSM    H4G17459   5.246   1.346   3.585  1.9634 -2.1059  3.8782
  156OSM    C5F17460   5.445   1.410   3.653 -0.3147  0.3797 -0.2303
  156OSM    H5F17461   5.546   1.429   3.612  0.0382  0.7206  0.7586
  156OSM    H5G17462   5.463   1.325   3.723  0.4378  1.0115  0.3605
  156OSM    C6F17463   5.407   1.528   3.749  1.3610  0.4568  0.0462
  156OSM    H6F17464   5.303   1.510   3.786  1.1841 -1.4298 -1.2068
  156OSM    H6G17465   5.407   1.623   3.692  1.6208  0.8915  0.7562
  156OSM    C7F17466   5.491   1.554   3.871 -0.6844 -0.0233 -0.3514
  156OSM    H7F17467   5.466   1.654   3.914  1.1005 -0.8743  2.9934
  156OSM    H7G17468   5.596   1.559   3.835 -0.8726 -0.0861 -0.9136
  156OSM    C8F17469   5.483   1.444   3.981 -0.7271  0.4426  0.0733
  156OSM    H8F17470   5.557   1.472   4.059  1.3363 -0.0568 -1.6050
  156OSM    H8G17471   5.517   1.349   3.935  1.5685  1.7406 -1.0775
  156OSM    C9F17472   5.353   1.413   4.042 -0.1374 -0.1128  0.2888
  156OSM    H9F17473   5.289   1.348   3.981 -0.3123  1.5886 -1.4292
  156OSM   C10F17474   5.309   1.451   4.163  0.1480  0.7686 -0.4302
  156OSM   H10F17475   5.210   1.417   4.197  1.1391 -1.3478  0.4877
  156OSM   C11F17476   5.374   1.544   4.258 -0.0674  0.1167 -0.5485
  156OSM   H11F17477   5.304   1.629   4.276 -2.2412 -1.8308  0.9064
  156OSM   H11G17478   5.471   1.581   4.220  1.6720 -1.6978  1.8147
  156OSM   C12F17479   5.410   1.483   4.397 -0.1520  0.2396 -0.6873
  156OSM   H12F17480   5.492   1.410   4.380 -0.3506 -1.0363  2.9672
  156OSM   H12G17481   5.322   1.428   4.437  0.5346 -0.9460 -0.7313
  156OSM   C13F17482   5.464   1.589   4.485  0.7729  0.3294  0.3722
  156OSM   H13F17483   5.381   1.661   4.501  0.1514 -0.0918 -0.8549
  156OSM   H13G17484   5.543   1.646   4.431  0.4281  0.1136 -0.3655
  156OSM   C14F17485   5.502   1.539   4.623 -0.3312  0.4054  0.6897
  156OSM   H14F17486   5.582   1.463   4.611 -1.5840 -0.6831 -1.5507
  156OSM   H14G17487   5.415   1.480   4.658 -1.3950  0.5752 -1.4992
  156OSM   C15F17488   5.559   1.647   4.720  0.4288  0.5533  0.4416
  156OSM   H15F17489   5.482   1.724   4.742  0.1366  1.6102 -3.5096
  156OSM   H15G17490   5.637   1.703   4.665  0.0647 -0.2689 -0.9649
  156OSM   C16F17491   5.626   1.579   4.845  0.6504 -0.3147  0.3392
  156OSM   H16F17492   5.674   1.664   4.898  0.4635  1.0223 -1.5397
  156OSM   H16G17493   5.711   1.518   4.809  1.2484  1.4606 -1.3995
  156OSM   C17F17494   5.532   1.488   4.920  0.2995  0.2879  0.1537
  156OSM   H17F17495   5.538   1.387   4.874  1.3677 -0.8963  2.7151
  156OSM   H17G17496   5.429   1.529   4.915 -0.0404 -0.6178 -1.0495
  156OSM   C18F17497   5.577   1.463   5.064 -0.2140 -0.0145 -0.1685
  156OSM   H18F17498   5.652   1.380   5.061 -0.5776 -0.3269 -1.2303
  156OSM   H18G17499   5.485   1.420   5.108 -0.3238 -1.1391 -1.4057
  156OSM   H18H17500   5.614   1.548   5.125 -1.7666  0.8555 -0.3933
  157OSM      N17501   5.466   2.826   2.682  0.3040 -0.0086  0.4949
  157OSM    C1517502   5.363   2.766   2.591  0.0892  0.1686 -0.1567
  157OSM   H15A17503   5.402   2.673   2.552  1.6897  0.2139  1.2262
  157OSM   H15B17504   5.349   2.826   2.502  0.0086  1.2807  0.5814
  157OSM   H15C17505   5.265   2.754   2.636  0.1505 -1.9798 -0.5145
  157OSM    C1417506   5.449   2.975   2.665 -0.5608 -0.3623  0.1787
  157OSM   H14A17507   5.485   3.024   2.754 -1.2899  0.0658  0.2502
  157OSM   H14B17508   5.347   3.011   2.676 -0.6884 -0.9375  0.9438
  157OSM   H14C17509   5.483   3.018   2.572 -0.1353 -0.5749  0.2328
  157OSM    C1317510   5.447   2.785   2.823 -0.4854 -0.0771 -0.0173
  157OSM   H13A17511   5.529   2.811   2.889  0.4104 -1.0349 -0.7151
  157OSM   H13B17512   5.423   2.680   2.825  0.8672 -0.4197  2.1960
  157OSM   H13C17513   5.366   2.843   2.865 -0.3892  0.8530 -1.0870
  157OSM    C1217514   5.597   2.777   2.635 -0.4748 -1.0409 -1.0962
  157OSM   H12A17515   5.613   2.805   2.532  0.7410  0.3553 -0.5601
  157OSM   H12B17516   5.604   2.669   2.641  2.9169 -0.9120 -0.6649
  157OSM    C1117517   5.711   2.833   2.722 -0.3371 -0.3476  0.6380
  157OSM   H11A17518   5.722   2.944   2.724  3.2549 -0.4371 -2.5234
  157OSM   H11B17519   5.803   2.807   2.665 -0.8826  1.3535 -1.1437
  157OSM      P17520   5.804   2.658   2.898 -0.0775 -0.1473 -0.1781
  157OSM    O1317521   5.714   2.542   2.893 -0.3273  0.1560  0.3261
  157OSM    O1417522   5.940   2.648   2.831 -0.0391  0.1792 -0.2831
  157OSM    O1117523   5.823   2.686   3.046 -0.6485  0.0530  0.0519
  157OSM    O1217524   5.726   2.783   2.853 -0.0680 -0.5809  0.6071
  157OSM    C1S17525   5.711   2.734   3.126 -0.4015  0.0684  0.0334
  157OSM    H1S17526   5.622   2.668   3.118 -0.6001  0.5316 -2.3137
  157OSM    H1T17527   5.677   2.837   3.105  0.5999 -0.0138 -2.3562
  157OSM     NF17528   5.614   2.756   3.353 -0.4130 -0.0544 -0.4698
  157OSM    HNF17529   5.612   2.831   3.419 -2.5686  0.1808 -0.7110
  157OSM    C2S17530   5.737   2.738   3.278  0.6710 -0.3258 -0.2715
  157OSM    H2S17531   5.769   2.636   3.307 -0.5031 -0.1172  1.9887
  157OSM    C3S17532   5.849   2.830   3.315  0.2550 -0.1781 -0.0392
  157OSM    H3S17533   5.833   2.926   3.263 -0.6005  0.7968  1.9062
  157OSM     O317534   5.974   2.788   3.263 -0.1242  0.2834  0.3902
  157OSM    HO317535   5.935   2.750   3.184  0.6913  3.4343 -1.6861
  157OSM    C4S17536   5.843   2.846   3.470  0.0093  0.3398  0.9222
  157OSM    H4S17537   5.777   2.928   3.501 -1.0459 -0.4519  0.8225
  157OSM    C5S17538   5.904   2.766   3.563 -0.1414 -0.3197  0.1330
  157OSM    H5S17539   5.961   2.677   3.530 -0.1246 -0.5506  0.7808
  157OSM    C6S17540   5.886   2.798   3.709 -0.2964  0.3233 -0.0695
  157OSM    H6S17541   5.838   2.897   3.723  0.7732  0.8849 -0.2960
  157OSM    H6T17542   5.990   2.797   3.749 -0.0340 -5.8112  0.0895
  157OSM    C7S17543   5.791   2.710   3.791  0.0950 -0.1609 -0.9781
  157OSM    H7S17544   5.814   2.603   3.776 -1.0002 -0.2743 -2.0404
  157OSM    H7T17545   5.688   2.727   3.752 -0.6922 -0.1332  1.0059
  157OSM    C8S17546   5.795   2.746   3.944  0.3578  0.2975 -0.5261
  157OSM    H8S17547   5.712   2.687   3.987  0.5307 -1.1317 -2.0521
  157OSM    H8T17548   5.771   2.854   3.957  0.7896  0.1945  1.3630
  157OSM    C9S17549   5.931   2.726   4.016 -0.2165  0.5452  0.0575
  157OSM    H9S17550   6.010   2.801   3.993 -1.0478  1.7897  1.0959
  157OSM    H9T17551   5.957   2.621   3.989  0.5746  0.7638 -0.0670
  157OSM   C10S17552   5.911   2.738   4.166 -0.6409 -0.1571  0.4465
  157OSM   H10S17553   6.007   2.700   4.208  0.5136  2.5486  0.4629
  157OSM   H10T17554   5.826   2.675   4.199 -1.6883  1.2401  0.5064
  157OSM   C11S17555   5.889   2.887   4.214  0.8198  1.0474 -0.0700
  157OSM   H11S17556   5.798   2.928   4.167  0.7512  0.3966 -0.5261
  157OSM   H11T17557   5.966   2.961   4.184  1.9371 -0.3680 -0.8950
  157OSM   C12S17558   5.872   2.881   4.366 -0.2224  0.2351 -0.5039
  157OSM   H12S17559   5.959   2.843   4.424  0.1773  1.0647 -0.5427
  157OSM   H12T17560   5.790   2.815   4.403 -1.2472  2.4878  1.5578
  157OSM   C13S17561   5.846   3.025   4.418 -0.2581  0.7458  0.4029
  157OSM   H13S17562   5.743   3.053   4.388 -1.3064 -1.6314  1.5041
  157OSM   H13T17563   5.922   3.094   4.375 -0.9395 -0.4682 -3.1083
  157OSM   C14S17564   5.843   3.037   4.572  0.0219 -0.6810  0.1661
  157OSM   H14S17565   5.901   3.129   4.593  1.1501 -1.3781  0.1918
  157OSM   H14T17566   5.894   2.948   4.616  0.9604  0.4951  1.5439
  157OSM   C15S17567   5.702   3.054   4.625 -0.3025 -0.0037 -0.4244
  157OSM   H15S17568   5.635   2.972   4.590 -0.6488  0.0639  0.0782
  157OSM   H15T17569   5.663   3.145   4.575  1.7385  0.4051 -1.4032
  157OSM   C16S17570   5.703   3.068   4.777 -0.2734  1.2905 -0.2242
  157OSM   H16S17571   5.759   3.156   4.815  1.4941  0.5123 -0.9087
  157OSM   H16T17572   5.746   2.973   4.813  0.8254  0.7753 -2.7307
  157OSM   C17S17573   5.567   3.083   4.845  0.3915 -0.2868 -0.0103
  157OSM   H17S17574   5.505   2.998   4.810  1.1934 -0.6135 -0.6553
  157OSM   H17T17575   5.530   3.183   4.814 -1.0884 -1.2317 -1.4399
  157OSM   C18S17576   5.578   3.073   4.996  0.4464 -0.1609  0.3919
  157OSM   H18S17577   5.483   3.078   5.053 -2.2313  0.6768 -3.7200
  157OSM   H18T17578   5.628   3.167   5.028 -1.4023  1.1006 -0.2934
  157OSM   H18U17579   5.631   2.982   5.032 -0.3272 -1.8903 -2.4856
  157OSM    C1F17580   5.519   2.665   3.361  0.1083 -0.6974 -0.8393
  157OSM     OF17581   5.537   2.557   3.309  0.8371  0.0985  0.0555
  157OSM    C2F17582   5.400   2.711   3.437  0.4797 -1.0431  0.0139
  157OSM    H2F17583   5.314   2.729   3.369  1.2080 -1.8853 -1.1551
  157OSM    H2G17584   5.432   2.802   3.493 -3.5907  0.2997  0.5071
  157OSM    C3F17585   5.342   2.613   3.542  0.0611  0.6324 -0.1162
  157OSM    H3F17586   5.318   2.514   3.498 -1.6408  1.2139 -0.5859
  157OSM    H3G17587   5.242   2.657   3.563  0.0561 -0.0158  1.3556
  157OSM    C4F17588   5.425   2.604   3.668  0.0060  0.0245  0.2918
  157OSM    H4F17589   5.458   2.700   3.711  1.2653  0.8549 -2.3540
  157OSM    H4G17590   5.519   2.548   3.650  0.8878  1.8070 -0.8454
  157OSM    C5F17591   5.355   2.516   3.776 -0.3237 -0.2210 -0.4676
  157OSM    H5F17592   5.333   2.414   3.739 -0.2834 -0.1734 -0.6259
  157OSM    H5G17593   5.264   2.568   3.811  1.4021  0.3442  3.8247
  157OSM    C6F17594   5.443   2.496   3.903 -0.5764 -0.8501  0.6887
  157OSM    H6F17595   5.548   2.494   3.867 -0.4452  2.4124  0.5606
  157OSM    H6G17596   5.424   2.398   3.952  0.4988 -1.1662  0.4993
  157OSM    C7F17597   5.418   2.613   4.003 -0.3468  0.3307 -0.3006
  157OSM    H7F17598   5.310   2.627   4.026 -0.3049  0.4360 -0.1659
  157OSM    H7G17599   5.453   2.710   3.959  1.9012 -0.0120  0.5822
  157OSM    C8F17600   5.494   2.587   4.138  0.0634 -0.6358  0.0681
  157OSM    H8F17601   5.599   2.566   4.108  1.1988  3.2202  0.7243
  157OSM    H8G17602   5.450   2.498   4.188 -0.2524 -0.4792  0.0747
  157OSM    C9F17603   5.499   2.709   4.230  0.0013  0.0292 -0.5487
  157OSM    H9F17604   5.567   2.784   4.188 -0.0328  0.0532 -0.5605
  157OSM   C10F17605   5.456   2.731   4.354  0.5814 -0.3753 -0.7587
  157OSM   H10F17606   5.468   2.832   4.396  1.5589 -0.0802 -1.7095
  157OSM   C11F17607   5.365   2.629   4.425 -0.0446  0.5813 -0.3380
  157OSM   H11F17608   5.409   2.527   4.416  0.3471  0.7222 -0.0187
  157OSM   H11G17609   5.270   2.637   4.367  1.0347 -1.1779 -2.5342
  157OSM   C12F17610   5.349   2.654   4.572 -0.6435 -1.1495 -0.7539
  157OSM   H12F17611   5.301   2.754   4.582 -0.8477 -1.2147 -1.0752
  157OSM   H12G17612   5.450   2.663   4.618 -0.1875 -0.8896 -1.7902
  157OSM   C13F17613   5.273   2.551   4.648 -0.1960  0.3311 -0.2565
  157OSM   H13F17614   5.329   2.455   4.647 -1.7277 -0.6625  1.9204
  157OSM   H13G17615   5.174   2.541   4.598 -0.1468 -2.1103 -0.0098
  157OSM   C14F17616   5.240   2.592   4.795 -0.6744 -0.2227  0.3440
  157OSM   H14F17617   5.157   2.666   4.797 -0.2299  0.3666 -1.5385
  157OSM   H14G17618   5.330   2.646   4.833 -0.9239  0.1164  0.4602
  157OSM   C15F17619   5.226   2.472   4.882 -0.7199  0.0133  0.2586
  157OSM   H15F17620   5.208   2.518   4.982  0.3525  0.7005  0.1549
  157OSM   H15G17621   5.320   2.414   4.898 -0.8497 -0.4253 -0.5633
  157OSM   C16F17622   5.124   2.376   4.841  0.4873 -0.3045 -0.4538
  157OSM   H16F17623   5.170   2.300   4.774 -0.6985 -1.0858 -0.4080
  157OSM   H16G17624   5.050   2.437   4.783  0.3109 -0.6394 -0.5834
  157OSM   C17F17625   5.057   2.307   4.962  0.6999  0.0590  0.6451
  157OSM   H17F17626   4.973   2.246   4.922  0.7608  0.8257 -0.7217
  157OSM   H17G17627   5.020   2.382   5.035  2.2575  2.1391 -0.5641
  157OSM   C18F17628   5.156   2.208   5.020  0.2824 -0.7625 -1.0091
  157OSM   H18F17629   5.195   2.145   4.937  3.6280  0.3903 -0.4782
  157OSM   H18G17630   5.120   2.149   5.107  1.5174  0.4004  0.3432
  157OSM   H18H17631   5.242   2.267   5.059  0.1644 -0.1306 -1.7066
  158OSM      N17632   1.077   2.282   3.226 -0.2582  0.8410 -0.1645
  158OSM    C1517633   1.064   2.427   3.231  0.5153 -0.7553  0.1157
  158OSM   H15A17634   1.039   2.465   3.328  1.4637  2.0814 -0.6336
  158OSM   H15B17635   0.983   2.457   3.166  1.4543 -1.3570 -1.3863
  158OSM   H15C17636   1.159   2.473   3.204  0.6554 -1.0475  0.1066
  158OSM    C1417637   1.196   2.238   3.302 -0.1720  0.2015  0.4328
  158OSM   H14A17638   1.273   2.312   3.288 -0.6010  0.8952  1.5191
  158OSM   H14B17639   1.235   2.146   3.263 -0.3167  1.1641 -2.1319
  158OSM   H14C17640   1.178   2.219   3.407  2.5075  2.0920  1.3475
  158OSM    C1317641   0.942   2.228   3.283 -0.0537  0.7522 -0.3541
  158OSM   H13A17642   0.862   2.258   3.217 -0.5188 -0.6029 -0.4456
  158OSM   H13B17643   0.923   2.264   3.383  0.3244 -0.3517  0.1282
  158OSM   H13C17644   0.943   2.120   3.286 -0.8092  0.7113 -1.1558
  158OSM    C1217645   1.090   2.229   3.083 -0.1481  0.3180  0.0416
  158OSM   H12A17646   0.992   2.234   3.037 -0.4154 -0.7204  0.4544
  158OSM   H12B17647   1.103   2.123   3.102 -0.1626  0.4811  1.0101
  158OSM    C1117648   1.201   2.282   2.989 -0.5047 -0.5436  0.2625
  158OSM   H11A17649   1.183   2.391   2.989 -1.6944 -0.7149  0.6704
  158OSM   H11B17650   1.180   2.241   2.888 -0.2386  0.5221 -0.2306
  158OSM      P17651   1.394   2.109   3.021  0.1302  0.2485  0.0264
  158OSM    O1317652   1.328   2.021   3.121  0.2989  0.8723  0.0650
  158OSM    O1417653   1.387   2.069   2.879 -0.5599  1.2678 -0.1145
  158OSM    O1117654   1.544   2.125   3.067 -0.1053 -0.0764  0.3681
  158OSM    O1217655   1.339   2.256   3.032  0.9215  0.2381  0.2307
  158OSM    C1S17656   1.591   2.231   3.151  0.6264 -1.0446  0.5718
  158OSM    H1S17657   1.525   2.320   3.149  0.4995 -1.1420  0.3363
  158OSM    H1T17658   1.696   2.262   3.136  0.0673  2.0550  2.2077
  158OSM     NF17659   1.637   2.294   3.380  0.0109  0.2190  0.5465
  158OSM    HNF17660   1.730   2.288   3.414  0.7904  0.0365 -1.4882
  158OSM    C2S17661   1.594   2.185   3.296 -0.8300 -0.1714 -0.8522
  158OSM    H2S17662   1.490   2.158   3.322 -0.9063 -0.6282 -1.5943
  158OSM    C3S17663   1.694   2.058   3.307  0.4984 -0.6164  0.8932
  158OSM    H3S17664   1.792   2.097   3.272 -1.2113  0.4348 -3.3967
  158OSM     O317665   1.670   1.955   3.209  0.3521 -0.4403 -0.4706
  158OSM    HO317666   1.643   2.001   3.130  0.5514  3.0672  1.3168
  158OSM    C4S17667   1.688   1.999   3.438 -0.0227  0.6509 -0.0174
  158OSM    H4S17668   1.585   1.988   3.476 -0.9542 -0.9920 -2.7055
  158OSM    C5S17669   1.787   1.980   3.521  0.1084 -1.2400 -0.2996
  158OSM    H5S17670   1.891   1.988   3.486  0.5886 -0.9798  1.1303
  158OSM    C6S17671   1.768   1.939   3.663  0.3280  0.1578 -0.9344
  158OSM    H6S17672   1.796   2.021   3.733 -0.1759 -0.8804  0.5425
  158OSM    H6T17673   1.839   1.857   3.685  1.9063  2.0892  1.7405
  158OSM    C7S17674   1.623   1.887   3.707 -0.2192  0.3396  0.3432
  158OSM    H7S17675   1.593   1.816   3.627  2.0592  1.3514 -1.5411
  158OSM    H7T17676   1.568   1.982   3.690 -0.5120 -0.0808 -1.2604
  158OSM    C8S17677   1.620   1.821   3.845 -0.7818  0.1746 -0.5091
  158OSM    H8S17678   1.721   1.777   3.862 -0.1877  1.0146 -1.6976
  158OSM    H8T17679   1.556   1.730   3.834  0.4537 -0.7194 -0.5075
  158OSM    C9S17680   1.585   1.917   3.956 -0.1055 -0.4113 -0.0694
  158OSM    H9S17681   1.474   1.930   3.954 -0.1333 -0.7658 -1.1562
  158OSM    H9T17682   1.636   2.013   3.935 -0.0536 -0.5450 -0.5517
  158OSM   C10S17683   1.638   1.884   4.094  0.3161 -0.3271 -0.1239
  158OSM   H10S17684   1.747   1.900   4.107  0.2205 -0.5307  1.0075
  158OSM   H10T17685   1.614   1.777   4.116 -1.0182  0.2087  1.1590
  158OSM   C11S17686   1.560   1.972   4.196 -0.3718  0.5758 -0.8850
  158OSM   H11S17687   1.449   1.964   4.195 -0.4149  0.3307  0.9699
  158OSM   H11T17688   1.586   2.077   4.174  0.5165  0.8975  1.4215
  158OSM   C12S17689   1.619   1.953   4.339 -0.1043  0.4962  0.0298
  158OSM   H12S17690   1.729   1.969   4.331 -0.0696 -0.2486 -1.3446
  158OSM   H12T17691   1.593   1.853   4.380  2.6442  0.8407  3.1227
  158OSM   C13S17692   1.563   2.043   4.452  0.2289 -0.2729  0.0638
  158OSM   H13S17693   1.455   2.018   4.467  0.4734 -3.1208 -2.1125
  158OSM   H13T17694   1.567   2.150   4.421  2.3882 -1.1368 -3.1052
  158OSM   C14S17695   1.650   2.044   4.587  0.0753 -0.2961 -0.0003
  158OSM   H14S17696   1.748   2.092   4.566 -1.1191  1.4968 -1.9162
  158OSM   H14T17697   1.659   1.939   4.621  1.5326 -0.5564 -1.0759
  158OSM   C15S17698   1.572   2.127   4.697 -0.0513 -0.3443 -0.0196
  158OSM   H15S17699   1.482   2.072   4.730  0.3688  0.2194  2.2417
  158OSM   H15T17700   1.536   2.226   4.662  0.5871 -0.3464 -0.7090
  158OSM   C16S17701   1.676   2.169   4.813  0.3851 -0.3972 -0.0197
  158OSM   H16S17702   1.637   2.267   4.848  0.2710 -0.1489 -0.8111
  158OSM   H16T17703   1.774   2.179   4.762 -0.1162  2.0689 -0.6466
  158OSM   C17S17704   1.696   2.079   4.940 -0.1845  0.4273  0.2886
  158OSM   H17S17705   1.759   1.995   4.903  0.7172  1.3466 -0.3205
  158OSM   H17T17706   1.593   2.046   4.967  0.0263 -1.4862 -1.0359
  158OSM   C18S17707   1.771   2.153   5.049 -0.5296  0.4936 -0.0195
  158OSM   H18S17708   1.695   2.210   5.107 -0.5075 -0.3958  0.9157
  158OSM   H18T17709   1.841   2.226   5.003  0.7178 -0.9928 -0.5739
  158OSM   H18U17710   1.827   2.088   5.120  1.3347  0.9868 -0.9794
  158OSM    C1F17711   1.553   2.392   3.405 -0.1551 -0.2781  1.4979
  158OSM     OF17712   1.442   2.398   3.360  0.4082  0.6510 -0.0776
  158OSM    C2F17713   1.600   2.502   3.500  0.9409 -0.6216  0.2660
  158OSM    H2F17714   1.638   2.595   3.453 -1.8625 -0.4031 -1.7978
  158OSM    H2G17715   1.684   2.460   3.561  1.1427 -0.8265 -0.1472
  158OSM    C3F17716   1.483   2.548   3.595 -0.8436  0.0221 -0.4591
  158OSM    H3F17717   1.384   2.573   3.551 -1.5181 -0.4176  0.7349
  158OSM    H3G17718   1.516   2.646   3.638 -0.5647 -0.9197  1.6241
  158OSM    C4F17719   1.448   2.444   3.709 -0.9677  0.6239  0.3462
  158OSM    H4F17720   1.406   2.347   3.676  0.5195  0.9710 -2.9057
  158OSM    H4G17721   1.375   2.487   3.782 -0.8366 -0.2559  1.0155
  158OSM    C5F17722   1.572   2.421   3.799 -1.2990  0.8900  0.6494
  158OSM    H5F17723   1.626   2.517   3.808 -1.3391  0.8518  1.3692
  158OSM    H5G17724   1.649   2.356   3.754 -0.6406  0.6382  2.0727
  158OSM    C6F17725   1.541   2.366   3.937  0.5300 -0.3538  0.0976
  158OSM    H6F17726   1.506   2.261   3.923  1.0267 -0.6384  0.9087
  158OSM    H6G17727   1.457   2.426   3.978  1.2638  0.0933  0.9901
  158OSM    C7F17728   1.659   2.356   4.035  0.3316 -0.3402 -0.2209
  158OSM    H7F17729   1.741   2.298   3.988  0.8718 -2.2294  2.7649
  158OSM    H7G17730   1.624   2.299   4.124 -0.7224  1.0456  0.2953
  158OSM    C8F17731   1.708   2.494   4.087  0.5384  0.1282  0.2720
  158OSM    H8F17732   1.747   2.562   4.008  2.2669  0.9527  1.7654
  158OSM    H8G17733   1.784   2.468   4.164 -0.9833 -2.4396  1.0453
  158OSM    C9F17734   1.597   2.572   4.165 -0.6078 -0.2490  0.3506
  158OSM    H9F17735   1.517   2.603   4.096 -1.8657  0.2057  1.9399
  158OSM   C10F17736   1.578   2.592   4.298 -0.3489 -0.2243 -0.1161
  158OSM   H10F17737   1.498   2.645   4.351  0.9957 -0.7070  2.6058
  158OSM   C11F17738   1.673   2.533   4.405  0.0514 -0.7092 -0.1391
  158OSM   H11F17739   1.768   2.500   4.359  0.0222  0.9207 -1.4732
  158OSM   H11G17740   1.620   2.456   4.465  0.3216 -1.0765 -0.3700
  158OSM   C12F17741   1.723   2.651   4.494 -0.1901  0.0108  0.3833
  158OSM   H12F17742   1.630   2.699   4.533  0.7065  2.9289 -0.7456
  158OSM   H12G17743   1.787   2.722   4.437 -1.6110  0.9492 -0.1180
  158OSM   C13F17744   1.796   2.615   4.620 -0.2806  0.3402 -0.2058
  158OSM   H13F17745   1.818   2.716   4.660  1.0136 -0.3516  0.9236
  158OSM   H13G17746   1.887   2.551   4.608 -1.3047 -1.4207  0.9615
  158OSM   C14F17747   1.714   2.550   4.733  0.2740  0.1849  0.5716
  158OSM   H14F17748   1.700   2.443   4.708  0.1229  0.1279  0.9060
  158OSM   H14G17749   1.622   2.611   4.733  1.0226  1.3799 -0.4632
  158OSM   C15F17750   1.778   2.551   4.875 -0.1390  0.1680 -0.4828
  158OSM   H15F17751   1.711   2.500   4.947 -0.7188  0.3263 -0.9082
  158OSM   H15G17752   1.785   2.657   4.908  0.7093 -0.2265  0.6604
  158OSM   C16F17753   1.919   2.495   4.879  0.3572  0.0043  0.0677
  158OSM   H16F17754   1.987   2.548   4.809  2.7996  1.1176  3.0353
  158OSM   H16G17755   1.912   2.393   4.835 -0.3778  0.5014 -1.0050
  158OSM   C17F17756   1.981   2.483   5.020  0.3597 -0.1254 -0.1015
  158OSM   H17F17757   2.089   2.456   5.011  0.5218  0.2951  0.5131
  158OSM   H17G17758   1.931   2.398   5.072 -0.0978  0.3758  0.2792
  158OSM   C18F17759   1.976   2.607   5.112 -0.1320 -0.4300 -0.4687
  158OSM   H18F17760   2.011   2.696   5.057 -1.7296 -0.6570 -1.9173
  158OSM   H18G17761   2.042   2.587   5.200 -0.7721 -1.8849 -0.2853
  158OSM   H18H17762   1.870   2.629   5.136 -0.7448 -0.9547 -2.4743
  159OSM      N17763   4.731   2.860   2.456 -0.5425 -0.4316 -0.2048
  159OSM    C1517764   4.826   2.745   2.451 -0.1934 -0.0404 -0.3647
  159OSM   H15A17765   4.782   2.653   2.415 -1.1557 -0.1000  0.8887
  159OSM   H15B17766   4.852   2.725   2.554  3.1818  1.1664 -0.8600
  159OSM   H15C17767   4.913   2.768   2.392  0.7016 -2.7840 -0.2766
  159OSM    C1417768   4.713   2.910   2.315  0.6294 -0.4332  0.0466
  159OSM   H14A17769   4.648   2.996   2.304  2.2534  1.0674  1.4778
  159OSM   H14B17770   4.673   2.820   2.271 -0.4461 -1.6353  3.2095
  159OSM   H14C17771   4.806   2.938   2.268 -0.8299  1.8851 -1.6991
  159OSM    C1317772   4.603   2.812   2.514 -0.2338  0.0386  0.2952
  159OSM   H13A17773   4.557   2.753   2.437  1.0589 -2.1893  1.1350
  159OSM   H13B17774   4.534   2.893   2.538 -0.4683 -0.4259  1.2368
  159OSM   H13C17775   4.609   2.744   2.598 -1.2646  1.9761  2.0487
  159OSM    C1217776   4.791   2.963   2.551  0.0597  0.2911  0.4309
  159OSM   H12A17777   4.736   3.055   2.541 -0.6487 -0.2537 -0.8858
  159OSM   H12B17778   4.893   2.981   2.521  1.4740 -3.4018  2.3162
  159OSM    C1117779   4.803   2.918   2.701  0.5734  0.6374 -0.0180
  159OSM   H11A17780   4.700   2.899   2.741 -0.1996  2.0689 -1.2314
  159OSM   H11B17781   4.846   3.006   2.754  2.7628 -0.2756 -0.1960
  159OSM      P17782   5.032   2.822   2.798  0.1303  0.4040 -0.4586
  159OSM    O1317783   5.110   2.703   2.778 -0.3254 -0.7943  0.2999
  159OSM    O1417784   5.091   2.950   2.756 -0.4549  0.1534 -0.4208
  159OSM    O1117785   4.976   2.817   2.945  0.2323  0.0949 -0.4551
  159OSM    O1217786   4.890   2.801   2.727  0.4632 -0.6135 -0.1447
  159OSM    C1S17787   4.935   2.691   2.997  0.0422 -0.2037 -0.9511
  159OSM    H1S17788   5.031   2.642   3.023 -0.0816  1.0191  2.2411
  159OSM    H1T17789   4.880   2.632   2.920  0.0461 -0.6109 -0.6482
  159OSM     NF17790   4.849   2.576   3.195  0.3789 -0.2987  0.2114
  159OSM    HNF17791   4.761   2.529   3.193 -0.8639  1.9289 -0.4350
  159OSM    C2S17792   4.851   2.706   3.132  0.1933 -0.0485  0.0358
  159OSM    H2S17793   4.896   2.778   3.203 -1.0577 -1.0125  1.8793
  159OSM    C3S17794   4.706   2.767   3.101 -0.1312 -0.3566  0.4725
  159OSM    H3S17795   4.640   2.688   3.058 -0.3436 -0.3089  0.7127
  159OSM     O317796   4.722   2.872   3.008  0.4669 -0.7261 -0.0456
  159OSM    HO317797   4.813   2.868   2.977  0.6696  0.3125  0.3723
  159OSM    C4S17798   4.628   2.800   3.225  0.6630  0.4447  0.3506
  159OSM    H4S17799   4.602   2.714   3.289  1.1977 -0.0587 -0.1047
  159OSM    C5S17800   4.596   2.919   3.280 -0.2766 -0.7409 -0.2132
  159OSM    H5S17801   4.626   3.011   3.227  0.0550 -0.7066  0.0324
  159OSM    C6S17802   4.552   2.944   3.418  0.4981  0.0831 -0.4239
  159OSM    H6S17803   4.443   2.962   3.417  0.5969  0.8987  0.7529
  159OSM    H6T17804   4.595   3.039   3.458  0.1492 -0.0995  0.4022
  159OSM    C7S17805   4.576   2.831   3.518  0.0572 -0.3463 -0.0324
  159OSM    H7S17806   4.683   2.808   3.535  0.2550  0.3310 -0.3456
  159OSM    H7T17807   4.520   2.736   3.502  0.3464 -0.9707  2.3180
  159OSM    C8S17808   4.515   2.872   3.651  0.0576 -0.4244  0.2552
  159OSM    H8S17809   4.418   2.924   3.631  1.0053  0.5464 -2.1836
  159OSM    H8T17810   4.579   2.955   3.688  2.2116 -2.0625  0.3276
  159OSM    C9S17811   4.510   2.760   3.760  0.7707  0.6020  0.3718
  159OSM    H9S17812   4.611   2.713   3.757 -0.0241 -1.1760 -1.8975
  159OSM    H9T17813   4.430   2.687   3.736  1.9137 -0.1625 -1.3439
  159OSM   C10S17814   4.472   2.815   3.897  0.3301  0.4141  0.2381
  159OSM   H10S17815   4.371   2.861   3.891  0.5647  0.8674 -0.3635
  159OSM   H10T17816   4.552   2.884   3.933  2.1692 -0.7978 -1.2999
  159OSM   C11S17817   4.466   2.715   4.008 -0.1223  0.3700 -0.9607
  159OSM   H11S17818   4.553   2.646   3.998 -0.0563  0.6053 -2.1223
  159OSM   H11T17819   4.386   2.641   3.988  1.7620 -1.6679 -1.3753
  159OSM   C12S17820   4.455   2.769   4.153  0.5043  0.3316 -0.1644
  159OSM   H12S17821   4.378   2.849   4.147 -0.1201 -0.3264 -1.7644
  159OSM   H12T17822   4.555   2.805   4.184  0.7027  0.2353 -0.6830
  159OSM   C13S17823   4.419   2.658   4.257  0.1911  0.2253 -0.3744
  159OSM   H13S17824   4.470   2.563   4.233  1.2294  1.0159 -1.4372
  159OSM   H13T17825   4.308   2.650   4.261  0.0901  0.6171 -1.9194
  159OSM   C14S17826   4.464   2.689   4.406  0.6266 -0.0558  0.6280
  159OSM   H14S17827   4.574   2.691   4.421  0.7592 -0.5186 -0.2009
  159OSM   H14T17828   4.418   2.607   4.465 -0.6806  0.9940  1.1316
  159OSM   C15S17829   4.406   2.812   4.470  0.2064  0.3132 -1.1031
  159OSM   H15S17830   4.296   2.802   4.458 -0.4915  2.3826  2.2672
  159OSM   H15T17831   4.434   2.901   4.409 -0.2699 -0.0970 -1.9319
  159OSM   C16S17832   4.433   2.832   4.622  0.1868 -0.2114  0.1591
  159OSM   H16S17833   4.542   2.819   4.639  0.1515  1.5438  2.0764
  159OSM   H16T17834   4.379   2.749   4.674  2.5351 -2.8477 -1.3084
  159OSM   C17S17835   4.392   2.966   4.683 -0.3904 -0.4450 -0.5269
  159OSM   H17S17836   4.283   2.973   4.665  0.1248  1.1869 -3.6909
  159OSM   H17T17837   4.428   3.051   4.621 -3.3603  1.2316 -0.1661
  159OSM   C18S17838   4.429   2.985   4.830 -0.8242 -0.6716 -0.7970
  159OSM   H18S17839   4.539   2.985   4.842 -0.9349 -0.0605  0.3053
  159OSM   H18T17840   4.392   2.899   4.889  1.5544 -0.0290  1.7836
  159OSM   H18U17841   4.388   3.078   4.874  1.3216 -0.1087  0.0981
  159OSM    C1F17842   4.948   2.532   3.269  0.1460 -0.5271 -0.5416
  159OSM     OF17843   5.060   2.575   3.254 -0.4911 -0.0726  0.4027
  159OSM    C2F17844   4.917   2.434   3.377  0.1822 -0.2874  0.3505
  159OSM    H2F17845   4.950   2.330   3.353 -0.7191  0.1692 -3.5814
  159OSM    H2G17846   4.807   2.422   3.376  0.1321 -0.0714 -1.5009
  159OSM    C3F17847   4.963   2.480   3.516 -0.0630  0.4900 -0.5705
  159OSM    H3F17848   4.912   2.576   3.537  0.4039  0.4871  0.6773
  159OSM    H3G17849   5.071   2.504   3.516  0.0100  0.2645 -1.8972
  159OSM    C4F17850   4.924   2.373   3.624 -0.3846 -0.3517  0.5748
  159OSM    H4F17851   4.968   2.279   3.585  0.9855 -0.7184  2.8094
  159OSM    H4G17852   4.814   2.363   3.632 -0.4253 -0.2632  0.1541
  159OSM    C5F17853   4.985   2.414   3.756 -0.2824  0.6140 -0.2074
  159OSM    H5F17854   4.912   2.484   3.803 -0.7182  1.4169 -1.9769
  159OSM    H5G17855   5.079   2.473   3.745 -0.2937  0.6052 -0.3491
  159OSM    C6F17856   5.016   2.293   3.859 -0.0930 -0.3918  0.4779
  159OSM    H6F17857   5.070   2.218   3.797  0.4438 -0.3560  0.8870
  159OSM    H6G17858   4.921   2.248   3.894 -0.9588  1.5159  0.7073
  159OSM    C7F17859   5.094   2.340   3.988 -0.2264  0.4607  0.4997
  159OSM    H7F17860   5.157   2.421   3.947 -0.6753  0.6056  0.0950
  159OSM    H7G17861   5.156   2.249   4.003 -1.4024 -1.2786 -3.7831
  159OSM    C8F17862   5.020   2.391   4.108 -0.6479 -0.1157  0.3389
  159OSM    H8F17863   4.926   2.332   4.114  0.3619 -1.8800 -0.4124
  159OSM    H8G17864   4.989   2.497   4.095 -1.9772 -0.4198  0.8728
  159OSM    C9F17865   5.111   2.401   4.231  0.0966 -0.2735 -0.3238
  159OSM    H9F17866   5.186   2.480   4.221 -1.4183  1.1550 -0.8214
  159OSM   C10F17867   5.080   2.345   4.349 -0.0798 -0.1907  0.2123
  159OSM   H10F17868   5.141   2.365   4.438 -1.8506 -0.7713  1.6024
  159OSM   C11F17869   4.966   2.252   4.382  0.4667  0.3637  0.0818
  159OSM   H11F17870   5.014   2.156   4.410 -1.5123 -0.2817  1.5172
  159OSM   H11G17871   4.896   2.233   4.298  1.2469 -0.0461 -0.4947
  159OSM   C12F17872   4.891   2.285   4.516 -0.3758  0.2013  0.3964
  159OSM   H12F17873   4.971   2.300   4.591  0.8609 -1.0139 -0.6196
  159OSM   H12G17874   4.826   2.198   4.538 -0.2633  0.1291  0.4386
  159OSM   C13F17875   4.805   2.418   4.499 -0.0308  0.4516 -0.3229
  159OSM   H13F17876   4.728   2.421   4.419 -0.9811  2.2050  0.6133
  159OSM   H13G17877   4.877   2.496   4.468  0.4566 -0.4594 -1.5767
  159OSM   C14F17878   4.729   2.470   4.626  0.9037  0.8372  0.6023
  159OSM   H14F17879   4.656   2.548   4.598  0.2198  0.0039  0.0138
  159OSM   H14G17880   4.794   2.513   4.705 -0.0803  0.3667  1.6906
  159OSM   C15F17881   4.647   2.358   4.700  0.2201  0.0090  0.4678
  159OSM   H15F17882   4.711   2.272   4.729  0.0938  0.0654  0.9360
  159OSM   H15G17883   4.567   2.319   4.633 -0.0944 -0.3900  1.0626
  159OSM   C16F17884   4.586   2.403   4.828  0.1464 -0.7622  0.5192
  159OSM   H16F17885   4.659   2.460   4.890 -0.5714 -0.0866  0.7605
  159OSM   H16G17886   4.557   2.312   4.884  0.4927 -2.1230 -1.4004
  159OSM   C17F17887   4.466   2.494   4.806  0.0294 -0.1756  0.2479
  159OSM   H17F17888   4.403   2.466   4.719 -0.3443 -0.6333  0.6549
  159OSM   H17G17889   4.504   2.595   4.784 -1.6181  0.1037 -1.5504
  159OSM   C18F17890   4.385   2.519   4.935 -1.0193  0.0653 -0.6731
  159OSM   H18F17891   4.312   2.601   4.918  0.0638  1.2049  0.0308
  159OSM   H18G17892   4.451   2.557   5.015  0.7424 -0.4688 -1.8330
  159OSM   H18H17893   4.332   2.427   4.970  0.7609 -0.7420  0.0175
  160OSM      N17894   1.771   5.730   3.145 -0.3030  0.0564  0.5732
  160OSM    C1517895   1.780   5.778   3.008  0.0795  0.0468 -0.0894
  160OSM   H15A17896   1.738   5.709   2.936  0.4958  0.9891 -1.2716
  160OSM   H15B17897   1.881   5.811   2.988  0.1686  1.0747  1.8189
  160OSM   H15C17898   1.706   5.856   2.998  0.2550  0.4692  1.6487
  160OSM    C1417899   1.841   5.838   3.224  0.2704 -0.3832 -0.3208
  160OSM   H14A17900   1.855   5.813   3.329  0.5105  0.2979 -0.1899
  160OSM   H14B17901   1.786   5.928   3.245  1.6660  0.0832  1.6536
  160OSM   H14C17902   1.941   5.855   3.187  1.1050 -1.2353  1.3919
  160OSM    C1317903   1.630   5.728   3.182 -0.3071 -0.2458 -0.5987
  160OSM   H13A17904   1.592   5.631   3.150 -1.6404  0.5272 -1.4660
  160OSM   H13B17905   1.566   5.792   3.123 -0.0278  0.3795 -0.2264
  160OSM   H13C17906   1.616   5.754   3.285  2.7359  0.4446 -0.2795
  160OSM    C1217907   1.842   5.594   3.165  0.2824  0.4068 -0.0115
  160OSM   H12A17908   1.802   5.557   3.258  0.7484 -2.6104 -0.8770
  160OSM   H12B17909   1.950   5.600   3.166  0.2666  0.6732  0.0129
  160OSM    C1117910   1.798   5.486   3.059 -0.4324  0.1095 -1.4319
  160OSM   H11A17911   1.855   5.393   3.082 -0.2851  0.4919 -0.1381
  160OSM   H11B17912   1.833   5.516   2.958  0.0237  0.3634 -1.2031
  160OSM      P17913   1.593   5.344   3.125 -0.1395 -0.2208 -0.3219
  160OSM    O1317914   1.447   5.337   3.114  0.8460  0.0870 -0.6299
  160OSM    O1417915   1.672   5.225   3.089 -0.1910  0.0815 -0.0160
  160OSM    O1117916   1.624   5.377   3.280 -0.2448 -0.6205  0.1795
  160OSM    O1217917   1.654   5.469   3.059 -0.6392  0.6010  0.8025
  160OSM    C1S17918   1.515   5.363   3.370  0.3860 -0.3001  0.3371
  160OSM    H1S17919   1.450   5.274   3.352 -1.9280  1.4846 -0.6674
  160OSM    H1T17920   1.451   5.454   3.371  1.0238  0.1714 -0.4934
  160OSM     NF17921   1.446   5.350   3.607 -0.7333 -0.3708 -0.3209
  160OSM    HNF17922   1.440   5.425   3.671  0.1947 -0.6061  0.0515
  160OSM    C2S17923   1.567   5.367   3.522  0.2340 -0.0945  0.0910
  160OSM    H2S17924   1.632   5.278   3.534 -0.2152 -0.2545  1.4997
  160OSM    C3S17925   1.662   5.490   3.553 -0.3132 -0.0977  0.7007
  160OSM    H3S17926   1.602   5.583   3.541  0.9373  0.4490 -2.1252
  160OSM     O317927   1.767   5.523   3.454  0.2669 -0.4257 -0.3121
  160OSM    HO317928   1.723   5.482   3.380 -1.4207 -0.7654  0.8121
  160OSM    C4S17929   1.713   5.479   3.693 -0.2263 -0.7373  0.1780
  160OSM    H4S17930   1.653   5.542   3.761  0.1563  0.8977 -0.9450
  160OSM    C5S17931   1.827   5.423   3.735 -0.4717 -0.0874 -0.2721
  160OSM    H5S17932   1.884   5.368   3.658 -1.1959  0.6713 -1.3817
  160OSM    C6S17933   1.885   5.440   3.871 -0.2994 -1.0740 -0.2362
  160OSM    H6S17934   1.977   5.498   3.851  0.2526 -2.2120 -1.1571
  160OSM    H6T17935   1.914   5.341   3.913 -0.6621 -0.2587  2.0877
  160OSM    C7S17936   1.790   5.498   3.980 -0.4023  0.3260 -0.1196
  160OSM    H7S17937   1.711   5.427   4.013 -1.3128  1.6926  0.7214
  160OSM    H7T17938   1.739   5.593   3.954  0.4162  0.2471 -2.1446
  160OSM    C8S17939   1.870   5.522   4.111  0.1542  0.6826 -0.2526
  160OSM    H8S17940   1.914   5.623   4.121  0.5186  0.3541  2.0605
  160OSM    H8T17941   1.954   5.450   4.119 -0.1966  0.2512 -0.4031
  160OSM    C9S17942   1.782   5.496   4.229 -0.4977 -0.1533 -0.3691
  160OSM    H9S17943   1.709   5.416   4.205 -1.7288  1.1563 -1.1838
  160OSM    H9T17944   1.718   5.586   4.239 -0.8393 -0.4946  0.6067
  160OSM   C10S17945   1.860   5.478   4.363 -0.0430 -0.4079  0.2294
  160OSM   H10S17946   1.933   5.394   4.358  0.4992  0.1267 -1.4604
  160OSM   H10T17947   1.779   5.453   4.435  0.6546  0.7470  1.4348
  160OSM   C11S17948   1.946   5.597   4.411 -0.3705 -0.1804  0.0196
  160OSM   H11S17949   1.887   5.691   4.402  1.4911  1.3974  2.9386
  160OSM   H11T17950   2.033   5.612   4.344  1.7923  0.0803  2.7305
  160OSM   C12S17951   2.007   5.580   4.547 -0.0129 -0.4816  0.2200
  160OSM   H12S17952   2.055   5.480   4.554  0.6814 -0.0660  1.8791
  160OSM   H12T17953   1.916   5.579   4.612 -0.7923 -1.4410 -0.8470
  160OSM   C13S17954   2.109   5.689   4.577 -0.6583 -0.5625  0.9902
  160OSM   H13S17955   2.059   5.785   4.554 -0.9752 -1.2706 -1.7530
  160OSM   H13T17956   2.197   5.688   4.509  0.2053  2.2871  1.9416
  160OSM   C14S17957   2.155   5.694   4.720  0.7301  0.4679  0.9661
  160OSM   H14S17958   2.239   5.767   4.729 -0.6203  2.4411 -1.2476
  160OSM   H14T17959   2.206   5.599   4.745 -2.3232 -2.6985 -3.4044
  160OSM   C15S17960   2.046   5.728   4.824 -0.0460 -0.2487  0.2291
  160OSM   H15S17961   1.978   5.642   4.839  0.2129 -0.2460  1.5483
  160OSM   H15T17962   1.993   5.822   4.800  0.3769  0.1281  0.7349
  160OSM   C16S17963   2.099   5.751   4.967 -0.2826  0.1588 -0.0732
  160OSM   H16S17964   2.162   5.841   4.983  3.1341 -2.3166  1.6407
  160OSM   H16T17965   2.158   5.660   4.987  1.6450  1.1671 -0.8557
  160OSM   C17S17966   1.975   5.757   5.054 -0.4151  0.1115 -0.4876
  160OSM   H17S17967   1.932   5.655   5.068  1.3768 -0.4524  1.4433
  160OSM   H17T17968   1.898   5.829   5.020  2.4919  2.4744 -2.6639
  160OSM   C18S17969   2.030   5.803   5.192 -0.2649 -0.3890  0.0065
  160OSM   H18S17970   1.943   5.846   5.246 -0.7842 -0.9170 -0.3833
  160OSM   H18T17971   2.109   5.880   5.198 -2.6813  2.3463 -1.0193
  160OSM   H18U17972   2.065   5.716   5.251 -1.0969 -0.6991  0.0576
  160OSM    C1F17973   1.371   5.244   3.615 -0.4192 -0.3072 -0.4449
  160OSM     OF17974   1.399   5.153   3.548  0.0053  0.2856  0.0210
  160OSM    C2F17975   1.268   5.238   3.717  0.3886 -0.2255  0.4630
  160OSM    H2F17976   1.201   5.153   3.691 -0.1044 -0.4969  2.4668
  160OSM    H2G17977   1.211   5.333   3.713 -0.6949 -0.8262  1.1666
  160OSM    C3F17978   1.321   5.215   3.863 -0.2283  1.0717  0.3137
  160OSM    H3F17979   1.404   5.282   3.892 -1.3046  1.3945  2.9268
  160OSM    H3G17980   1.354   5.111   3.886 -0.8289  1.2015  1.8728
  160OSM    C4F17981   1.213   5.241   3.965  0.2719 -0.1312  0.3926
  160OSM    H4F17982   1.141   5.157   3.956 -0.6307  0.8186 -1.9828
  160OSM    H4G17983   1.155   5.333   3.943 -1.1280 -1.0061  0.3809
  160OSM    C5F17984   1.261   5.250   4.110 -0.4463 -0.8766 -0.0169
  160OSM    H5F17985   1.325   5.339   4.123 -2.0333  0.4272 -0.8050
  160OSM    H5G17986   1.325   5.161   4.126 -0.3566 -0.4991  2.0453
  160OSM    C6F17987   1.143   5.267   4.207 -0.3334 -0.4972  0.0622
  160OSM    H6F17988   1.081   5.175   4.201  0.1084 -0.7667 -0.5201
  160OSM    H6G17989   1.076   5.350   4.178  1.6559  1.5014  0.8676
  160OSM    C7F17990   1.183   5.304   4.352 -0.0590  0.1315 -0.1471
  160OSM    H7F17991   1.083   5.316   4.401 -0.1149 -0.7777 -0.0264
  160OSM    H7G17992   1.248   5.394   4.346  0.1455  0.0135  0.3036
  160OSM    C8F17993   1.249   5.176   4.421 -0.5011  0.0182  0.1283
  160OSM    H8F17994   1.350   5.164   4.377 -0.1825 -0.4178  0.9483
  160OSM    H8G17995   1.193   5.083   4.397 -0.7029 -0.2227  1.4793
  160OSM    C9F17996   1.270   5.180   4.568  0.1639 -0.3800 -0.1889
  160OSM    H9F17997   1.182   5.156   4.629 -0.5233  0.4383 -0.8209
  160OSM   C10F17998   1.386   5.209   4.633 -0.1909 -0.0624  0.0129
  160OSM   H10F17999   1.388   5.214   4.743 -2.4540 -3.0989  0.3157
  160OSM   C11F18000   1.521   5.239   4.567  0.9003  0.1665 -0.6027
  160OSM   H11F18001   1.515   5.257   4.458 -0.2769  2.1116 -0.2777
  160OSM   H11G18002   1.598   5.162   4.586 -0.0001 -0.4755  0.6204
  160OSM   C12F18003   1.581   5.366   4.631 -0.0539 -0.9468 -0.4428
  160OSM   H12F18004   1.672   5.377   4.568  0.2123  2.6023  0.3299
  160OSM   H12G18005   1.626   5.348   4.731 -2.4461 -1.2145  0.6559
  160OSM   C13F18006   1.500   5.491   4.602  0.2697  0.1219 -0.4911
  160OSM   H13F18007   1.412   5.508   4.667  0.7928  0.7577  0.0663
  160OSM   H13G18008   1.456   5.467   4.504 -0.2287 -0.6666 -0.0848
  160OSM   C14F18009   1.571   5.628   4.602  0.1853 -0.7252  0.0557
  160OSM   H14F18010   1.512   5.712   4.560  0.9657  0.1345  0.6372
  160OSM   H14G18011   1.654   5.611   4.531 -0.3310  0.1750 -0.7838
  160OSM   C15F18012   1.631   5.670   4.733 -0.5781  0.4982 -0.5438
  160OSM   H15F18013   1.702   5.595   4.773  0.4035  0.6297 -1.9637
  160OSM   H15G18014   1.551   5.665   4.809  1.1837  0.6684  1.3879
  160OSM   C16F18015   1.700   5.813   4.740 -0.2881 -0.4951 -0.1853
  160OSM   H16F18016   1.774   5.819   4.657 -1.3842  3.3809 -1.0971
  160OSM   H16G18017   1.747   5.820   4.840  0.6096  0.7703 -0.6672
  160OSM   C17F18018   1.603   5.925   4.718  0.6105 -0.2025  0.1773
  160OSM   H17F18019   1.556   5.932   4.617 -0.1217  0.7082  0.5743
  160OSM   H17G18020   1.651   6.023   4.734  0.1501  0.5753 -2.5669
  160OSM   C18F18021   1.480   5.915   4.815 -0.0097 -0.1692 -0.3632
  160OSM   H18F18022   1.411   5.834   4.783  1.7692 -1.2263 -1.7754
  160OSM   H18G18023   1.416   6.005   4.821 -2.1052 -1.6832  2.0854
  160OSM   H18H18024   1.507   5.886   4.919 -0.1204  0.0696 -0.2676
  161OSM      N18025   4.895   1.140   2.687 -0.0861  0.1857  0.0483
  161OSM    C1518026   4.881   1.286   2.719 -0.5223  0.3997  0.5776
  161OSM   H15A18027   4.779   1.298   2.750 -1.5878 -3.6869 -0.8489
  161OSM   H15B18028   4.897   1.347   2.631  2.4921 -1.2787 -0.2032
  161OSM   H15C18029   4.944   1.319   2.801 -0.8838  1.3175  0.5053
  161OSM    C1418030   4.804   1.101   2.574  0.1188 -0.5790 -0.2350
  161OSM   H14A18031   4.707   1.101   2.623  0.4581  2.7682  0.6980
  161OSM   H14B18032   4.818   1.001   2.536  1.4359  0.1619 -1.8116
  161OSM   H14C18033   4.797   1.175   2.496 -0.5021 -0.9849 -0.5663
  161OSM    C1318034   5.038   1.104   2.651  0.5719  0.3503 -0.2941
  161OSM   H13A18035   5.076   1.180   2.584  0.1769  1.3094  0.5456
  161OSM   H13B18036   5.052   1.013   2.595 -1.9922  0.0051 -0.4878
  161OSM   H13C18037   5.108   1.106   2.733  0.1914  0.6215  0.0260
  161OSM    C1218038   4.849   1.058   2.812  0.3122 -0.1729  0.3304
  161OSM   H12A18039   4.887   0.958   2.795  2.6935  0.8557 -0.8507
  161OSM   H12B18040   4.741   1.063   2.808  0.3826  1.1248 -0.7929
  161OSM    C1118041   4.900   1.105   2.942  0.2438  0.1443 -0.0160
  161OSM   H11A18042   4.845   1.056   3.026  0.8515  1.6602  1.3352
  161OSM   H11B18043   4.887   1.213   2.961  2.7175  0.3460  0.8074
  161OSM      P18044   5.157   1.186   2.973  0.1531 -0.2940 -0.1644
  161OSM    O1318045   5.294   1.140   2.939 -0.1110 -0.2039  0.1031
  161OSM    O1418046   5.111   1.309   2.905  0.0671  0.1284  0.0588
  161OSM    O1118047   5.144   1.198   3.130 -0.5005 -0.5222  0.7151
  161OSM    O1218048   5.046   1.071   2.950  0.0150 -0.2185  0.1444
  161OSM    C1S18049   5.136   1.082   3.206  0.2874  0.2254  0.1059
  161OSM    H1S18050   5.234   1.029   3.206  0.5346  0.6764 -0.1286
  161OSM    H1T18051   5.074   1.001   3.164  1.2605 -0.6210  0.2614
  161OSM     NF18052   5.153   1.023   3.450  0.3436  0.0703  0.4589
  161OSM    HNF18053   5.078   0.982   3.501 -1.8138  1.8574 -1.1032
  161OSM    C2S18054   5.100   1.116   3.352 -0.4259 -0.0651 -0.2908
  161OSM    H2S18055   5.164   1.205   3.372 -0.8743 -0.1317  1.6659
  161OSM    C3S18056   4.951   1.158   3.361 -0.9646 -0.2602 -0.4897
  161OSM    H3S18057   4.891   1.065   3.357  0.3177 -1.0895 -1.3291
  161OSM     O318058   4.906   1.241   3.251  0.6264  0.0992 -0.1205
  161OSM    HO318059   4.975   1.233   3.184 -0.9341 -0.1965 -1.7753
  161OSM    C4S18060   4.930   1.220   3.494  0.0454  0.1087 -0.7715
  161OSM    H4S18061   4.913   1.147   3.574 -0.7114 -0.1451 -1.1605
  161OSM    C5S18062   4.948   1.346   3.534 -0.0117 -0.1308 -0.5484
  161OSM    H5S18063   4.979   1.427   3.466  0.2022  1.2287  1.0864
  161OSM    C6S18064   4.937   1.391   3.678  0.3152  0.0161  0.2108
  161OSM    H6S18065   4.844   1.451   3.685  0.6269  0.4434  0.8607
  161OSM    H6T18066   5.018   1.462   3.707 -1.9393  2.9487 -0.1979
  161OSM    C7S18067   4.926   1.294   3.793  0.2091 -0.2608  0.3416
  161OSM    H7S18068   5.004   1.217   3.778 -0.1098 -0.2523 -1.5750
  161OSM    H7T18069   4.833   1.233   3.786  1.1149 -1.6154 -0.2279
  161OSM    C8S18070   4.930   1.356   3.928 -0.8823 -0.1953  0.1862
  161OSM    H8S18071   4.828   1.393   3.949 -1.2579 -2.0690  1.9698
  161OSM    H8T18072   5.007   1.435   3.941 -1.8071  0.3637  3.0184
  161OSM    C9S18073   4.964   1.257   4.037 -0.1606  0.3833 -0.0509
  161OSM    H9S18074   5.074   1.241   4.047 -0.3280  0.4248  2.4250
  161OSM    H9T18075   4.915   1.159   4.017 -0.4742 -0.0164  2.3280
  161OSM   C10S18076   4.914   1.314   4.171 -0.4201  0.0422 -0.3633
  161OSM   H10S18077   4.803   1.306   4.163 -0.2478 -2.3776 -0.9337
  161OSM   H10T18078   4.946   1.421   4.164 -0.6556  0.2240  1.0749
  161OSM   C11S18079   4.967   1.243   4.300  0.2307  0.3887 -0.4296
  161OSM   H11S18080   5.074   1.215   4.296  0.4081  0.9031  0.5952
  161OSM   H11T18081   4.908   1.148   4.293  1.2839 -0.2715 -0.6296
  161OSM   C12S18082   4.936   1.319   4.431 -0.3077  0.0822 -0.5272
  161OSM   H12S18083   4.929   1.251   4.518 -0.4654  0.7530 -0.0058
  161OSM   H12T18084   4.847   1.383   4.411 -0.4542 -0.4361 -1.6378
  161OSM   C13S18085   5.060   1.394   4.475 -0.8667  0.1405 -0.1459
  161OSM   H13S18086   5.101   1.440   4.382  2.2524  0.1407  1.0971
  161OSM   H13T18087   5.136   1.322   4.512  0.7116  1.4680 -0.6548
  161OSM   C14S18088   5.024   1.502   4.573 -0.0911 -0.1591  0.3222
  161OSM   H14S18089   4.948   1.575   4.538  0.9524  1.5551  1.5241
  161OSM   H14T18090   5.117   1.560   4.589  0.5889 -0.5347 -1.9259
  161OSM   C15S18091   4.983   1.456   4.713  0.2817  0.3035  0.4700
  161OSM   H15S18092   4.912   1.372   4.699  0.9854 -0.9291  3.4751
  161OSM   H15T18093   4.928   1.543   4.756  0.3351  2.1174 -2.7906
  161OSM   C16S18094   5.099   1.419   4.807  0.1893 -0.5661  0.2385
  161OSM   H16S18095   5.181   1.495   4.801 -0.0096 -0.4499 -2.2089
  161OSM   H16T18096   5.154   1.332   4.765  1.6835 -0.5488  2.0186
  161OSM   C17S18097   5.075   1.393   4.957 -0.0240 -0.1166  0.2290
  161OSM   H17S18098   4.987   1.325   4.965 -1.6580  1.9622  0.7901
  161OSM   H17T18099   5.059   1.487   5.014 -1.3722  2.2429 -3.5953
  161OSM   C18S18100   5.194   1.315   5.005  0.0050 -0.1945 -0.3743
  161OSM   H18S18101   5.208   1.220   4.950 -0.9334  0.3958 -1.6782
  161OSM   H18T18102   5.179   1.290   5.112 -1.6954  1.0272 -0.3043
  161OSM   H18U18103   5.283   1.382   5.004  1.0866 -1.5680 -1.2480
  161OSM    C1F18104   5.279   0.989   3.473 -0.4972 -0.5289 -0.8640
  161OSM     OF18105   5.371   1.044   3.407 -0.0976 -1.0655 -0.2714
  161OSM    C2F18106   5.304   0.879   3.575  0.2534 -0.2827  1.3555
  161OSM    H2F18107   5.310   0.784   3.517  2.7024 -0.2267  1.4085
  161OSM    H2G18108   5.211   0.881   3.635 -0.6578  2.8311  0.0504
  161OSM    C3F18109   5.426   0.913   3.652  0.0096  0.0144  0.0202
  161OSM    H3F18110   5.516   0.935   3.590 -0.4269  0.4264 -0.4792
  161OSM    H3G18111   5.448   0.826   3.716  0.8805  0.5877  0.5158
  161OSM    C4F18112   5.410   1.034   3.747  0.0421  0.2637  0.3190
  161OSM    H4F18113   5.305   1.045   3.782  0.1771  0.7418  0.5684
  161OSM    H4G18114   5.421   1.128   3.688 -1.3633  0.5928  0.5334
  161OSM    C5F18115   5.505   1.027   3.871 -0.0384  0.9260  0.1049
  161OSM    H5F18116   5.562   1.121   3.887  1.5245  0.5941 -2.7703
  161OSM    H5G18117   5.585   0.953   3.853 -0.7378  0.4517 -1.1878
  161OSM    C6F18118   5.433   0.988   4.001  0.2372 -0.7822 -0.5906
  161OSM    H6F18119   5.389   0.887   3.983 -0.9858 -0.4041  0.1652
  161OSM    H6G18120   5.351   1.061   4.016  1.1606  0.3245 -0.8093
  161OSM    C7F18121   5.528   0.991   4.116  1.2903  0.0827 -0.0645
  161OSM    H7F18122   5.546   1.098   4.139 -0.3659  1.2768 -3.6538
  161OSM    H7G18123   5.622   0.943   4.081  1.0950 -1.9662  1.9481
  161OSM    C8F18124   5.489   0.909   4.247 -0.4168  0.1399  0.0621
  161OSM    H8F18125   5.579   0.932   4.309 -1.5321 -0.6092  2.0349
  161OSM    H8G18126   5.481   0.799   4.234 -1.5138  0.4734 -2.8789
  161OSM    C9F18127   5.360   0.963   4.305 -0.0156 -0.4335 -0.0531
  161OSM    H9F18128   5.279   0.943   4.234  1.2035 -0.1525 -1.5955
  161OSM   C10F18129   5.349   1.025   4.423 -0.3292  0.4929  0.3277
  161OSM   H10F18130   5.255   1.073   4.454 -2.1266 -2.9559  0.6990
  161OSM   C11F18131   5.462   1.055   4.525 -0.0329 -0.1936 -0.1828
  161OSM   H11F18132   5.522   1.148   4.515  0.0750 -0.4258 -1.9634
  161OSM   H11G18133   5.539   0.975   4.530 -0.2501 -0.3189  2.6598
  161OSM   C12F18134   5.411   1.062   4.674  0.0809  0.3356 -0.4346
  161OSM   H12F18135   5.328   1.135   4.662 -1.5722 -1.4281 -0.0635
  161OSM   H12G18136   5.486   1.089   4.752 -1.6908  1.1305  1.0554
  161OSM   C13F18137   5.342   0.933   4.732  0.2550 -0.5795  0.1603
  161OSM   H13F18138   5.255   0.907   4.668  0.3571  0.7223 -0.5398
  161OSM   H13G18139   5.297   0.956   4.831 -0.9898  0.6322 -0.6397
  161OSM   C14F18140   5.432   0.814   4.742  0.3443  0.0791 -0.1521
  161OSM   H14F18141   5.443   0.771   4.640  1.1337  2.0298 -0.9312
  161OSM   H14G18142   5.379   0.735   4.800  0.9799  1.9692  3.2296
  161OSM   C15F18143   5.577   0.823   4.805  0.5361  0.0841  0.6088
  161OSM   H15F18144   5.638   0.886   4.737  0.6161 -2.0488 -1.4644
  161OSM   H15G18145   5.630   0.726   4.788 -0.5733 -0.3317 -0.6973
  161OSM   C16F18146   5.592   0.871   4.943  0.4942  0.1407  0.1671
  161OSM   H16F18147   5.556   0.799   5.019  1.1750 -1.2393 -0.7749
  161OSM   H16G18148   5.523   0.957   4.959 -2.4037 -1.5323 -2.2559
  161OSM   C17F18149   5.725   0.928   4.985 -0.1394 -0.6398  0.6695
  161OSM   H17F18150   5.746   1.015   4.918 -1.8831 -0.1400  0.7329
  161OSM   H17G18151   5.802   0.849   4.972  0.6224  0.2920 -0.7933
  161OSM   C18F18152   5.719   0.979   5.129 -0.2368  0.3734 -0.1970
  161OSM   H18F18153   5.805   1.047   5.147  0.3954 -0.2620 -0.7479
  161OSM   H18G18154   5.737   0.895   5.199  0.0616  0.6953  0.1202
  161OSM   H18H18155   5.621   1.022   5.156  0.0478 -0.1441  1.7924
  162OSM      N18156   6.441   1.219   2.818 -0.3574  0.7205  0.8451
  162OSM    C1518157   6.521   1.091   2.805  0.5551  0.4797 -0.4042
  162OSM   H15A18158   6.464   1.016   2.752  2.0125 -0.3531 -0.8787
  162OSM   H15B18159   6.566   1.073   2.901  0.8003  0.8775 -0.4424
  162OSM   H15C18160   6.611   1.108   2.747 -0.7620  0.7688 -2.4947
  162OSM    C1418161   6.415   1.270   2.672 -0.8715  0.6107 -0.2292
  162OSM   H14A18162   6.503   1.305   2.621 -0.1891  0.5718  0.8799
  162OSM   H14B18163   6.351   1.356   2.683  0.3113  1.3580  1.2302
  162OSM   H14C18164   6.379   1.193   2.606  1.2852 -0.7948  0.1185
  162OSM    C1318165   6.316   1.181   2.888 -0.1876 -0.5211 -0.5998
  162OSM   H13A18166   6.351   1.137   2.980 -2.4822 -1.2534 -0.0086
  162OSM   H13B18167   6.253   1.103   2.847 -0.5137 -0.4526 -0.2313
  162OSM   H13C18168   6.248   1.264   2.900 -0.2285 -0.6146 -0.1653
  162OSM    C1218169   6.517   1.321   2.894  0.3059 -0.6571  0.4079
  162OSM   H12A18170   6.464   1.415   2.889  0.6374 -0.5079 -0.7122
  162OSM   H12B18171   6.608   1.331   2.836  0.8999 -2.0194  1.0563
  162OSM    C1118172   6.557   1.289   3.044  0.2226 -0.4176 -0.5761
  162OSM   H11A18173   6.460   1.269   3.093  0.6593  0.2562  0.6095
  162OSM   H11B18174   6.597   1.381   3.092 -0.6066 -0.2011 -0.2954
  162OSM      P18175   6.807   1.191   3.044 -0.0591  0.0650 -0.2098
  162OSM    O1318176   6.854   1.068   2.987  0.6230  0.3862  0.0917
  162OSM    O1418177   6.848   1.313   2.983  0.2166  0.4199 -0.1565
  162OSM    O1118178   6.867   1.188   3.193 -0.9579  0.3980 -0.4995
  162OSM    O1218179   6.654   1.180   3.055 -0.0085 -0.1727 -0.3893
  162OSM    C1S18180   6.832   1.300   3.282  0.8032  0.4625 -0.2111
  162OSM    H1S18181   6.722   1.307   3.294  0.7047 -1.4610  0.4704
  162OSM    H1T18182   6.881   1.388   3.235  3.2864 -1.0615 -0.6703
  162OSM     NF18183   6.823   1.374   3.524 -0.2583  0.2887  0.4264
  162OSM    HNF18184   6.891   1.421   3.580  2.2391  0.2862 -2.3859
  162OSM    C2S18185   6.890   1.290   3.427 -0.8601 -0.3140 -0.0245
  162OSM    H2S18186   6.870   1.188   3.465  0.0201  0.3146  2.3025
  162OSM    C3S18187   7.044   1.310   3.419 -0.7426  0.5406  0.4568
  162OSM    H3S18188   7.059   1.413   3.380 -2.9872  0.6975 -0.1173
  162OSM     O318189   7.116   1.227   3.323 -0.0648  0.7172 -0.1896
  162OSM    HO318190   7.047   1.202   3.261 -1.1047 -1.8963  1.8257
  162OSM    C4S18191   7.104   1.285   3.557 -0.6851 -0.2861 -1.0433
  162OSM    H4S18192   7.136   1.384   3.592 -0.8348 -0.6613  0.2156
  162OSM    C5S18193   7.116   1.176   3.633 -0.4974 -0.7532 -0.5232
  162OSM    H5S18194   7.113   1.079   3.581  1.1730 -0.6491 -0.8689
  162OSM    C6S18195   7.175   1.180   3.773  0.3286 -0.3110 -0.8432
  162OSM    H6S18196   7.285   1.164   3.773  0.3947 -0.1331  1.5832
  162OSM    H6T18197   7.148   1.100   3.845 -2.4837  2.3581  1.3846
  162OSM    C7S18198   7.154   1.310   3.860  0.2572  0.1377 -0.3656
  162OSM    H7S18199   7.049   1.337   3.885 -0.0905 -1.7444  0.4135
  162OSM    H7T18200   7.202   1.397   3.811  2.0956 -0.8669 -0.4108
  162OSM    C8S18201   7.221   1.279   3.997  0.3463 -0.5112  0.8250
  162OSM    H8S18202   7.330   1.257   3.987  0.3320 -0.6650  0.9918
  162OSM    H8T18203   7.174   1.182   4.026 -1.4583 -0.0569 -0.4606
  162OSM    C9S18204   7.204   1.400   4.097  1.0746  1.3068 -0.2505
  162OSM    H9S18205   7.096   1.413   4.120  0.2181 -2.6125 -1.3373
  162OSM    H9T18206   7.241   1.498   4.060  1.3881  1.1508 -0.3556
  162OSM   C10S18207   7.296   1.379   4.220 -0.3647  0.4007 -0.8427
  162OSM   H10S18208   7.402   1.357   4.194 -0.7076 -0.8003 -1.2837
  162OSM   H10T18209   7.262   1.286   4.270 -1.2566  1.9748  1.6637
  162OSM   C11S18210   7.298   1.498   4.326 -0.2217 -0.6130  0.3402
  162OSM   H11S18211   7.206   1.560   4.314  0.0173 -0.2257  0.5058
  162OSM   H11T18212   7.380   1.569   4.303 -0.9015  0.3576  0.8157
  162OSM   C12S18213   7.308   1.448   4.466  0.4082  0.1622 -0.1964
  162OSM   H12S18214   7.384   1.370   4.487  1.9950  1.9772  1.0849
  162OSM   H12T18215   7.209   1.403   4.488  1.1964 -1.1323  0.8919
  162OSM   C13S18216   7.329   1.563   4.562  0.3642 -0.1623  0.6111
  162OSM   H13S18217   7.256   1.643   4.538  2.1250  1.9549  1.9781
  162OSM   H13T18218   7.432   1.605   4.561  0.2259  0.2883 -1.9838
  162OSM   C14S18219   7.300   1.515   4.708 -0.5939  0.3153 -0.3285
  162OSM   H14S18220   7.394   1.464   4.738  1.0133  3.0128 -0.4395
  162OSM   H14T18221   7.217   1.442   4.703  0.7051 -1.1884 -0.5102
  162OSM   C15S18222   7.287   1.641   4.790  0.1129 -1.3615  0.0468
  162OSM   H15S18223   7.191   1.689   4.760 -0.1095 -1.3057  0.8091
  162OSM   H15T18224   7.357   1.723   4.763 -1.3076 -0.4846 -1.1095
  162OSM   C16S18225   7.277   1.623   4.940  0.1996 -0.6165 -0.4600
  162OSM   H16S18226   7.357   1.551   4.967  2.1146  1.3508 -0.6451
  162OSM   H16T18227   7.178   1.578   4.962 -0.0961 -0.0063 -0.5134
  162OSM   C17S18228   7.273   1.750   5.030 -0.7193  0.1875  0.3279
  162OSM   H17S18229   7.202   1.831   5.002 -1.6622 -0.8268 -0.2958
  162OSM   H17T18230   7.371   1.795   5.005  0.4180 -2.0633  0.5210
  162OSM   C18S18231   7.250   1.722   5.177  0.3249 -0.1251 -0.8098
  162OSM   H18S18232   7.150   1.678   5.196  0.8313 -0.5860  0.9626
  162OSM   H18T18233   7.255   1.816   5.236  0.6817 -0.5266 -0.1950
  162OSM   H18U18234   7.326   1.648   5.208 -1.0538 -0.4753  2.0169
  162OSM    C1F18235   6.694   1.373   3.548  0.2217 -0.0704 -0.3317
  162OSM     OF18236   6.613   1.302   3.487 -0.2398  0.1839  0.4539
  162OSM    C2F18237   6.647   1.473   3.644 -0.1709 -0.9806 -0.8643
  162OSM    H2F18238   6.560   1.525   3.600  1.8008  1.6945 -1.9246
  162OSM    H2G18239   6.727   1.550   3.651  0.3127 -1.5482  0.0278
  162OSM    C3F18240   6.605   1.415   3.789 -0.6427 -0.3856 -0.3335
  162OSM    H3F18241   6.546   1.324   3.763 -2.0173  0.7142 -1.2742
  162OSM    H3G18242   6.550   1.495   3.842  0.7042 -0.1074  0.6700
  162OSM    C4F18243   6.736   1.388   3.865  0.8679  0.0489 -0.2808
  162OSM    H4F18244   6.794   1.482   3.856 -3.3672  3.1718  1.6492
  162OSM    H4G18245   6.788   1.299   3.822  0.7061  0.4521 -1.3270
  162OSM    C5F18246   6.715   1.358   4.017  0.8962  0.6392 -0.2068
  162OSM    H5F18247   6.640   1.278   4.037 -0.8750  2.6028  1.4952
  162OSM    H5G18248   6.678   1.446   4.074  0.9412 -1.3651  3.2467
  162OSM    C6F18249   6.850   1.323   4.089  0.1980 -0.2117 -0.4328
  162OSM    H6F18250   6.900   1.422   4.101  0.3901 -0.5926  2.4601
  162OSM    H6G18251   6.913   1.251   4.032 -0.1691 -2.3959  1.7489
  162OSM    C7F18252   6.816   1.249   4.222 -0.7027 -0.8003 -0.3965
  162OSM    H7F18253   6.804   1.140   4.200 -0.0523 -0.6650 -1.5016
  162OSM    H7G18254   6.724   1.284   4.273 -1.3454 -2.8056 -0.0725
  162OSM    C8F18255   6.932   1.252   4.328  0.4501 -0.2977  0.8071
  162OSM    H8F18256   7.030   1.238   4.278  0.3108  0.6627  0.2432
  162OSM    H8G18257   6.915   1.173   4.404  0.6655 -1.2435 -0.1071
  162OSM    C9F18258   6.957   1.389   4.386  0.1618 -0.6987  0.6110
  162OSM    H9F18259   7.033   1.451   4.335 -1.3619  0.1866 -0.6680
  162OSM   C10F18260   6.889   1.454   4.478  0.1443  0.3264 -0.1308
  162OSM   H10F18261   6.937   1.548   4.509  2.5735 -0.6299 -0.7792
  162OSM   C11F18262   6.781   1.395   4.565  0.5320  0.1552  0.3579
  162OSM   H11F18263   6.761   1.288   4.542 -2.7090  0.6159  0.5935
  162OSM   H11G18264   6.683   1.439   4.536 -0.0374 -1.2450  0.0535
  162OSM   C12F18265   6.790   1.394   4.717  0.8259  0.1242 -0.4131
  162OSM   H12F18266   6.697   1.342   4.748 -0.5396  2.5609 -0.1431
  162OSM   H12G18267   6.777   1.495   4.761 -0.9647  0.4859 -1.6206
  162OSM   C13F18268   6.909   1.315   4.770 -0.7754  0.6596 -0.8219
  162OSM   H13F18269   7.003   1.349   4.721  0.3194  2.0170  1.9846
  162OSM   H13G18270   6.896   1.205   4.757 -0.3343  0.3536  1.0895
  162OSM   C14F18271   6.929   1.337   4.919 -0.2557 -0.7456 -0.4316
  162OSM   H14F18272   6.826   1.343   4.961 -0.7439  2.2072 -1.7950
  162OSM   H14G18273   6.973   1.437   4.942 -1.0780 -0.2283 -1.0598
  162OSM   C15F18274   6.997   1.223   4.996 -0.2672 -0.6167  0.2230
  162OSM   H15F18275   6.925   1.140   4.977 -2.8194  1.8683 -1.6850
  162OSM   H15G18276   6.980   1.249   5.103  0.7951  1.6472 -0.1125
  162OSM   C16F18277   7.141   1.214   4.947 -0.3067 -0.3243  0.1848
  162OSM   H16F18278   7.190   1.308   4.980 -1.4839  0.4329 -0.1517
  162OSM   H16G18279   7.153   1.209   4.836 -0.6545 -1.6424  0.1949
  162OSM   C17F18280   7.205   1.080   4.987 -0.3122  0.1804 -0.7091
  162OSM   H17F18281   7.154   0.999   4.931 -1.6805 -0.5639  1.4522
  162OSM   H17G18282   7.180   1.071   5.095 -0.2832 -0.8783 -0.7804
  162OSM   C18F18283   7.352   1.084   4.949  0.1619 -0.4788  0.7612
  162OSM   H18F18284   7.404   1.008   5.012  0.3261  1.0758  2.5906
  162OSM   H18G18285   7.401   1.180   4.975  1.5969 -1.0043  0.0634
  162OSM   H18H18286   7.371   1.065   4.841 -1.1885 -1.0272  0.5986
  163OSM      N18287   6.114   2.444   3.111  0.0715  0.1895 -0.1694
  163OSM    C1518288   6.066   2.365   2.998  0.4649 -0.7091  0.3427
  163OSM   H15A18289   6.025   2.276   3.042  1.5616 -1.0589  0.7062
  163OSM   H15B18290   6.137   2.336   2.922 -0.8870 -1.3313 -0.7263
  163OSM   H15C18291   5.984   2.415   2.947  1.3157  0.1075 -0.2797
  163OSM    C1418292   6.176   2.567   3.052  0.1246 -0.5192  0.3394
  163OSM   H14A18293   6.252   2.542   2.980  1.5821  2.5863  0.6320
  163OSM   H14B18294   6.207   2.634   3.131 -2.4290  2.0536 -0.6770
  163OSM   H14C18295   6.101   2.622   2.997 -0.4636 -0.1274  1.5130
  163OSM    C1318296   6.000   2.494   3.194  0.1921 -0.4553  0.4158
  163OSM   H13A18297   5.946   2.414   3.242 -1.4022  1.6799  2.3909
  163OSM   H13B18298   5.929   2.556   3.140  0.2526 -1.3589 -0.7488
  163OSM   H13C18299   6.033   2.559   3.274  0.1118  2.2300 -1.5644
  163OSM    C1218300   6.212   2.373   3.196  0.3162 -0.1884 -0.3574
  163OSM   H12A18301   6.256   2.440   3.268  0.2583 -0.6784  0.1375
  163OSM   H12B18302   6.300   2.348   3.138 -0.1577 -1.1369 -0.6869
  163OSM    C1118303   6.168   2.236   3.262 -0.3174 -0.2547 -0.5964
  163OSM   H11A18304   6.236   2.213   3.347  0.7607  2.4581 -0.6339
  163OSM   H11B18305   6.186   2.167   3.177  1.4594  0.9226 -1.2273
  163OSM      P18306   5.948   2.119   3.326  0.1233 -0.4413 -0.0200
  163OSM    O1318307   5.816   2.151   3.388 -0.3959 -0.5744  0.1058
  163OSM    O1418308   5.938   2.039   3.201 -0.5491  0.1382 -0.8649
  163OSM    O1118309   6.026   2.032   3.430 -0.3298 -0.1043 -0.3552
  163OSM    O1218310   6.029   2.250   3.314  0.0320  0.5279  0.1204
  163OSM    C1S18311   6.082   2.085   3.550  0.6282  0.0301 -0.3975
  163OSM    H1S18312   6.104   2.194   3.542  0.6635  0.1555  1.1793
  163OSM    H1T18313   6.178   2.031   3.564 -1.2827 -3.3320  0.8463
  163OSM     NF18314   6.043   2.109   3.793  0.2066  0.1547 -0.4282
  163OSM    HNF18315   6.059   2.054   3.874  0.6636  0.5126 -0.2653
  163OSM    C2S18316   6.004   2.042   3.670  0.8129  0.0691 -0.6803
  163OSM    H2S18317   5.896   2.066   3.654  0.6377 -1.4416 -2.0210
  163OSM    C3S18318   6.000   1.887   3.687 -0.1670 -1.0723  0.5235
  163OSM    H3S18319   6.104   1.864   3.718  0.2532  1.2706  1.0083
  163OSM     O318320   5.984   1.816   3.565  0.2634 -0.3927 -0.1061
  163OSM    HO318321   5.984   1.881   3.495  0.3895  0.8398  1.0089
  163OSM    C4S18322   5.893   1.842   3.776 -0.2993  0.7167 -0.3360
  163OSM    H4S18323   5.799   1.898   3.768  0.5142  2.4291  1.2840
  163OSM    C5S18324   5.898   1.740   3.873 -0.7131 -0.8399  0.6003
  163OSM    H5S18325   5.986   1.675   3.882 -0.1358 -0.2400 -0.4439
  163OSM    C6S18326   5.795   1.718   3.979  0.1673  0.1049 -0.5660
  163OSM    H6S18327   5.812   1.614   4.014 -0.8649 -0.0547 -0.4962
  163OSM    H6T18328   5.691   1.737   3.943 -1.0536 -0.5926  2.2852
  163OSM    C7S18329   5.812   1.796   4.112 -0.1527  0.0396  0.1854
  163OSM    H7S18330   5.722   1.780   4.174  0.0693  1.9175  1.0590
  163OSM    H7T18331   5.807   1.902   4.080 -1.2018 -0.3574 -1.0482
  163OSM    C8S18332   5.931   1.750   4.201  0.9296  0.4680  0.5879
  163OSM    H8S18333   6.020   1.808   4.166 -0.6048  2.4251 -0.2751
  163OSM    H8T18334   5.964   1.644   4.192 -1.9193 -0.3428 -1.8127
  163OSM    C9S18335   5.897   1.776   4.351 -0.1010  0.2995 -0.1294
  163OSM    H9S18336   5.812   1.718   4.393  1.7194 -1.1107  1.8350
  163OSM    H9T18337   5.872   1.884   4.364  2.0189  1.6568 -5.1312
  163OSM   C10S18338   6.013   1.736   4.446  0.5910 -0.4574 -0.1123
  163OSM   H10S18339   6.091   1.814   4.433  0.2917 -0.4379 -2.0948
  163OSM   H10T18340   6.060   1.644   4.404  0.1897 -0.9388  0.4787
  163OSM   C11S18341   5.967   1.722   4.595  0.0430  0.1540 -0.2368
  163OSM   H11S18342   6.052   1.695   4.661 -1.0517  1.6634  1.9025
  163OSM   H11T18343   5.909   1.628   4.591 -0.1985  0.2490  0.9079
  163OSM   C12S18344   5.880   1.827   4.660 -0.1289 -0.6458 -0.2989
  163OSM   H12S18345   5.857   1.783   4.759  2.7734 -0.6371  0.4808
  163OSM   H12T18346   5.786   1.844   4.603 -1.5295 -2.8698  1.1982
  163OSM   C13S18347   5.954   1.965   4.680 -0.2588  1.0667 -0.3775
  163OSM   H13S18348   5.885   2.046   4.711  1.9183  2.7737  0.2699
  163OSM   H13T18349   5.995   2.005   4.585  0.9269  0.2726 -0.2223
  163OSM   C14S18350   6.064   1.959   4.789  0.3224 -0.1976 -0.4694
  163OSM   H14S18351   6.149   1.894   4.758  0.7764  0.4350 -0.5573
  163OSM   H14T18352   6.021   1.915   4.881 -1.0143  1.5568 -0.2061
  163OSM   C15S18353   6.111   2.100   4.822  0.0056  0.0409  0.6280
  163OSM   H15S18354   6.147   2.134   4.723 -1.4830  0.9558  0.3799
  163OSM   H15T18355   6.206   2.093   4.881 -0.0236 -0.6418  0.5995
  163OSM   C16S18356   6.022   2.193   4.898  0.8572 -0.8443 -0.0292
  163OSM   H16S18357   5.924   2.212   4.849  0.4812 -0.1872  0.9321
  163OSM   H16T18358   6.068   2.293   4.901 -0.9774  0.1056 -1.2591
  163OSM   C17S18359   5.997   2.172   5.053 -0.8101  0.4607  0.4028
  163OSM   H17S18360   5.928   2.085   5.053  1.4858 -1.4738  1.4631
  163OSM   H17T18361   5.935   2.253   5.096 -1.7764 -0.1295  0.1543
  163OSM   C18S18362   6.127   2.144   5.130 -0.3984 -0.2693 -0.4182
  163OSM   H18S18363   6.176   2.049   5.102  1.4318  0.0377  1.4555
  163OSM   H18T18364   6.107   2.145   5.240  0.8109  0.5142 -0.1835
  163OSM   H18U18365   6.209   2.216   5.110  1.2364 -1.2880  2.0732
  163OSM    C1F18366   6.039   2.245   3.807  0.1399 -0.3163 -0.3971
  163OSM     OF18367   5.971   2.310   3.733  0.0483  0.2239  0.5565
  163OSM    C2F18368   6.104   2.307   3.926  0.3266 -0.1662 -0.0438
  163OSM    H2F18369   6.027   2.370   3.977  0.8904  1.1657 -0.7661
  163OSM    H2G18370   6.170   2.384   3.881  0.8123 -0.4411  0.1826
  163OSM    C3F18371   6.167   2.209   4.031 -0.4095 -0.0405 -0.0225
  163OSM    H3F18372   6.243   2.269   4.086  1.2767 -2.3529  0.2886
  163OSM    H3G18373   6.220   2.132   3.972 -2.9507  0.0216 -2.6115
  163OSM    C4F18374   6.074   2.139   4.128 -0.4883  0.0313 -0.1772
  163OSM    H4F18375   6.113   2.035   4.138  1.4912  0.8574  1.2868
  163OSM    H4G18376   5.970   2.128   4.090 -0.0447  0.0270 -1.4410
  163OSM    C5F18377   6.075   2.195   4.268  0.3016 -0.4966 -0.7999
  163OSM    H5F18378   6.183   2.208   4.295  0.6267  0.2325 -2.3400
  163OSM    H5G18379   6.026   2.127   4.341  2.5072 -2.6421 -1.1898
  163OSM    C6F18380   6.006   2.331   4.272  0.6204  0.5374  0.4913
  163OSM    H6F18381   5.897   2.311   4.278  0.3576  1.9795  0.8733
  163OSM    H6G18382   6.044   2.386   4.183  1.0505  2.3545  1.7642
  163OSM    C7F18383   6.040   2.416   4.393 -0.2029 -0.0542 -0.4757
  163OSM    H7F18384   5.999   2.518   4.379  1.5814  0.7692  0.0430
  163OSM    H7G18385   6.150   2.428   4.394 -0.0776 -0.9674  1.4800
  163OSM    C8F18386   5.994   2.354   4.527 -0.0671  0.3302  0.2345
  163OSM    H8F18387   6.071   2.402   4.593  0.2618  1.5007 -0.9549
  163OSM    H8G18388   6.023   2.247   4.531 -3.3153 -0.6864 -0.7246
  163OSM    C9F18389   5.849   2.374   4.569  0.6043 -0.4462 -0.1079
  163OSM    H9F18390   5.784   2.295   4.528 -1.0510  0.8841 -0.1298
  163OSM   C10F18391   5.796   2.482   4.638  0.0771 -0.5376 -0.5664
  163OSM   H10F18392   5.689   2.489   4.659  0.0072  4.4243 -1.2243
  163OSM   C11F18393   5.876   2.599   4.699 -0.2988 -0.2076 -0.1496
  163OSM   H11F18394   5.923   2.661   4.620 -3.1658 -0.6027 -2.3091
  163OSM   H11G18395   5.970   2.563   4.747  1.8716  1.4316 -2.8574
  163OSM   C12F18396   5.782   2.686   4.789 -0.2982 -0.4704 -1.3192
  163OSM   H12F18397   5.713   2.745   4.724  1.6814  1.0091 -2.1953
  163OSM   H12G18398   5.836   2.771   4.837 -0.7326 -1.0908  0.3296
  163OSM   C13F18399   5.703   2.611   4.902 -0.0074 -0.6007 -0.2741
  163OSM   H13F18400   5.781   2.556   4.958  0.6045 -1.3908 -1.8384
  163OSM   H13G18401   5.640   2.535   4.852 -0.5047  0.8022 -1.8823
  163OSM   C14F18402   5.613   2.695   4.994  0.0817 -0.8343 -0.0683
  163OSM   H14F18403   5.535   2.749   4.935 -0.5799 -2.9445 -1.2483
  163OSM   H14G18404   5.678   2.763   5.054 -0.3185 -0.8049  0.3425
  163OSM   C15F18405   5.527   2.611   5.074  0.3076 -0.0535  0.5434
  163OSM   H15F18406   5.581   2.543   5.144  0.4692 -0.0846  0.3914
  163OSM   H15G18407   5.478   2.527   5.021 -2.9761  1.4992  0.9096
  163OSM   C16F18408   5.426   2.683   5.139  0.4645 -1.0469 -0.2089
  163OSM   H16F18409   5.355   2.707   5.057  0.8220  1.3052  0.1223
  163OSM   H16G18410   5.469   2.781   5.168  1.5670 -1.3169 -0.8530
  163OSM   C17F18411   5.345   2.606   5.248 -0.5417 -0.1729  0.1795
  163OSM   H17F18412   5.415   2.584   5.331 -0.5651 -3.3000 -0.5083
  163OSM   H17G18413   5.315   2.507   5.209  1.9083 -1.4795  1.3540
  163OSM   C18F18414   5.218   2.675   5.287  0.0655 -0.5758 -0.2583
  163OSM   H18F18415   5.235   2.776   5.330 -1.2999 -0.1722 -0.5970
  163OSM   H18G18416   5.166   2.611   5.362  0.4229  1.5919  1.9406
  163OSM   H18H18417   5.139   2.675   5.208 -1.6891 -0.7975  1.4326
  164OSM      N18418   0.958   4.387   2.918  0.3789  0.1965  0.0172
  164OSM    C1518419   0.993   4.521   2.866 -0.2175  0.5876  0.0967
  164OSM   H15A18420   0.969   4.526   2.760  1.1283 -0.8288 -0.3069
  164OSM   H15B18421   1.097   4.547   2.878  0.5915 -1.4930 -1.6712
  164OSM   H15C18422   0.929   4.580   2.930 -0.6149 -0.4444  0.6847
  164OSM    C1418423   0.812   4.365   2.901 -0.1693  0.1269 -1.1255
  164OSM   H14A18424   0.778   4.366   2.799  2.9448 -0.4024 -2.2722
  164OSM   H14B18425   0.758   4.436   2.962  1.5477 -1.1055  2.0679
  164OSM   H14C18426   0.789   4.266   2.939 -4.4124  1.1757 -0.3645
  164OSM    C1318427   1.040   4.292   2.833  0.1904  0.0707 -0.1200
  164OSM   H13A18428   1.003   4.194   2.862 -1.4909  0.6743 -0.1070
  164OSM   H13B18429   1.145   4.295   2.855 -0.1478 -0.9487  1.9162
  164OSM   H13C18430   1.034   4.301   2.725  1.8938 -0.6535 -0.3070
  164OSM    C1218431   0.997   4.376   3.062  0.2561  0.0204  0.1127
  164OSM   H12A18432   0.973   4.274   3.088 -1.3479  0.5783  0.9964
  164OSM   H12B18433   0.921   4.430   3.118 -0.2884 -0.5414 -0.0758
  164OSM    C1118434   1.131   4.410   3.125 -0.1933  0.8419  0.1801
  164OSM   H11A18435   1.214   4.350   3.083  0.3687 -1.3771  4.0505
  164OSM   H11B18436   1.144   4.371   3.228  0.2022  0.8419  0.1324
  164OSM      P18437   1.112   4.653   3.217 -0.0405  0.0469  0.6947
  164OSM    O1318438   1.199   4.770   3.206 -0.1397  0.2502  0.2432
  164OSM    O1418439   0.971   4.672   3.194 -0.0085  0.1110  0.1451
  164OSM    O1118440   1.124   4.587   3.358  0.0217 -0.2201  0.0221
  164OSM    O1218441   1.167   4.547   3.114  0.0198  0.0152 -0.1691
  164OSM    C1S18442   1.130   4.669   3.474  0.4636 -0.1826 -0.2256
  164OSM    H1S18443   1.042   4.736   3.478  0.7851  0.2459 -0.1918
  164OSM    H1T18444   1.214   4.742   3.463 -0.3698  0.9353  0.5673
  164OSM     NF18445   1.175   4.677   3.724 -0.4090  0.6540  0.1048
  164OSM    HNF18446   1.269   4.687   3.754 -0.0615 -1.9287  0.0667
  164OSM    C2S18447   1.139   4.592   3.611 -0.3740 -0.6728 -0.2023
  164OSM    H2S18448   1.037   4.554   3.631 -0.6203  0.5053  0.8819
  164OSM    C3S18449   1.239   4.475   3.610  0.8823  0.4414  0.4780
  164OSM    H3S18450   1.343   4.514   3.610  1.4117 -0.8830  1.6439
  164OSM     O318451   1.226   4.387   3.497 -0.0028 -0.8252  0.9509
  164OSM    HO318452   1.173   4.436   3.434  2.8003  0.1483 -0.8511
  164OSM    C4S18453   1.230   4.377   3.722  0.8273  1.0245  0.3852
  164OSM    H4S18454   1.127   4.353   3.752  0.7701 -0.2845 -0.7584
  164OSM    C5S18455   1.332   4.327   3.791  0.3525  0.1368  0.4811
  164OSM    H5S18456   1.433   4.355   3.759  0.5771 -0.5126  0.6096
  164OSM    C6S18457   1.327   4.230   3.907  0.9132  0.2859 -0.3984
  164OSM    H6S18458   1.426   4.200   3.947  1.8888  2.7895 -0.7603
  164OSM    H6T18459   1.277   4.133   3.884 -0.2554  1.5003 -3.7207
  164OSM    C7S18460   1.244   4.288   4.025  0.4382  0.6772  0.3417
  164OSM    H7S18461   1.146   4.325   3.985  0.6682 -0.3656 -1.2899
  164OSM    H7T18462   1.292   4.373   4.077 -2.1299  2.4748  0.0012
  164OSM    C8S18463   1.207   4.180   4.125  0.2992 -0.6355 -0.0225
  164OSM    H8S18464   1.304   4.129   4.142  0.6430  0.7434  2.6352
  164OSM    H8T18465   1.133   4.110   4.080 -0.3273 -0.0301  0.0559
  164OSM    C9S18466   1.165   4.230   4.260 -0.3493 -0.1320 -0.1483
  164OSM    H9S18467   1.085   4.306   4.248  1.8196  2.2476 -0.1619
  164OSM    H9T18468   1.252   4.277   4.311 -1.0633  1.0681  0.0005
  164OSM   C10S18469   1.109   4.123   4.351 -0.3948  0.1051  0.3225
  164OSM   H10S18470   1.186   4.043   4.350  0.8977  1.2168  2.1074
  164OSM   H10T18471   1.013   4.086   4.309 -0.4919 -0.0611  0.6875
  164OSM   C11S18472   1.087   4.182   4.485  0.2213 -0.1813  0.0053
  164OSM   H11S18473   1.002   4.253   4.474 -0.5900 -1.1418 -0.0801
  164OSM   H11T18474   1.167   4.244   4.531 -0.5024  2.2486 -1.8132
  164OSM   C12S18475   1.052   4.070   4.593 -0.1906  0.4826 -0.2822
  164OSM   H12S18476   1.140   4.027   4.645 -1.3000  1.6460  2.8095
  164OSM   H12T18477   0.986   3.991   4.550 -1.6377  0.1220  2.3568
  164OSM   C13S18478   0.964   4.131   4.704  0.2016 -0.3012 -0.7416
  164OSM   H13S18479   0.867   4.167   4.664 -0.0610  0.7534  0.7926
  164OSM   H13T18480   1.020   4.214   4.753 -3.1793  2.0739 -0.5314
  164OSM   C14S18481   0.934   4.016   4.798  0.7846 -0.5944  0.5621
  164OSM   H14S18482   1.026   3.977   4.847 -0.0275  0.6372  3.2941
  164OSM   H14T18483   0.869   3.943   4.745 -1.0129  1.6542 -0.4868
  164OSM   C15S18484   0.855   4.054   4.914  0.1117  0.6725 -0.3497
  164OSM   H15S18485   0.747   4.041   4.894 -0.0615  2.4499 -0.8180
  164OSM   H15T18486   0.858   4.164   4.934 -2.8867  0.7646  0.1235
  164OSM   C16S18487   0.897   3.974   5.037 -0.3902 -0.4627  0.3497
  164OSM   H16S18488   0.997   4.016   5.063 -0.9193  0.6312  0.6671
  164OSM   H16T18489   0.907   3.866   5.011  0.7349 -0.6457  1.4462
  164OSM   C17S18490   0.790   3.997   5.139  0.2356  0.9018 -0.0697
  164OSM   H17S18491   0.700   3.947   5.096  0.3903 -0.4968  1.1635
  164OSM   H17T18492   0.780   4.106   5.156 -0.5332  1.4505 -3.3616
  164OSM   C18S18493   0.807   3.923   5.269 -0.2919 -0.3942 -0.0460
  164OSM   H18S18494   0.743   3.972   5.346 -2.7145 -2.5553 -0.5323
  164OSM   H18T18495   0.908   3.932   5.313  1.4504  0.0097 -3.7448
  164OSM   H18U18496   0.783   3.814   5.259  3.2842 -1.2389 -0.6337
  164OSM    C1F18497   1.092   4.760   3.778 -0.8358  0.6221 -0.4511
  164OSM     OF18498   0.973   4.758   3.749  0.5400 -0.1555 -0.0049
  164OSM    C2F18499   1.148   4.859   3.876 -0.6435  0.8019 -0.4916
  164OSM    H2F18500   1.070   4.915   3.932 -0.2085  0.9384 -0.0090
  164OSM    H2G18501   1.201   4.935   3.815 -0.5410  1.2210  0.1123
  164OSM    C3F18502   1.254   4.806   3.973 -0.5239 -0.1775  0.4566
  164OSM    H3F18503   1.294   4.883   4.042  0.4113 -2.4266  2.5237
  164OSM    H3G18504   1.345   4.773   3.919  0.6625  2.7148  0.5252
  164OSM    C4F18505   1.203   4.699   4.066 -0.1466  0.3383 -0.9983
  164OSM    H4F18506   1.223   4.596   4.028 -1.4981 -0.2541 -0.1799
  164OSM    H4G18507   1.092   4.696   4.074  0.0023 -2.4000  2.5571
  164OSM    C5F18508   1.276   4.713   4.203 -0.0719 -0.2920 -0.7601
  164OSM    H5F18509   1.257   4.811   4.251 -0.0544  0.1472 -1.6317
  164OSM    H5G18510   1.385   4.696   4.191  0.1124 -0.8972  1.4040
  164OSM    C6F18511   1.217   4.609   4.296 -0.5528 -0.1020 -0.4721
  164OSM    H6F18512   1.248   4.511   4.253 -0.2965 -0.0387 -0.4346
  164OSM    H6G18513   1.106   4.617   4.298 -0.4748  1.1326 -0.7516
  164OSM    C7F18514   1.262   4.590   4.437  0.0706 -0.7295  0.4125
  164OSM    H7F18515   1.238   4.488   4.475 -0.7701  0.1236  2.2664
  164OSM    H7G18516   1.211   4.665   4.500  1.5921 -0.6981  1.6669
  164OSM    C8F18517   1.411   4.608   4.463  0.4340 -0.3008  0.6168
  164OSM    H8F18518   1.452   4.709   4.442  0.7791 -1.0995 -3.0585
  164OSM    H8G18519   1.472   4.558   4.385  0.8762  1.2249 -0.0447
  164OSM    C9F18520   1.443   4.547   4.597 -0.3807  0.2757 -0.1788
  164OSM    H9F18521   1.413   4.442   4.608 -0.0528  0.2046  0.0340
  164OSM   C10F18522   1.526   4.601   4.685 -0.7184  0.0353 -0.8874
  164OSM   H10F18523   1.539   4.545   4.779 -0.8523  1.8846  0.2853
  164OSM   C11F18524   1.593   4.740   4.696 -0.3350  0.5185 -0.7273
  164OSM   H11F18525   1.553   4.805   4.617  0.1556  0.9227 -0.6504
  164OSM   H11G18526   1.704   4.739   4.683  0.0653  0.3952  2.0223
  164OSM   C12F18527   1.566   4.795   4.834  0.2375  0.3977 -0.3896
  164OSM   H12F18528   1.457   4.791   4.854  0.7020  0.4182  2.5717
  164OSM   H12G18529   1.596   4.902   4.831 -0.1822  0.5094 -0.7283
  164OSM   C13F18530   1.631   4.725   4.956  0.0237  0.4157 -0.2048
  164OSM   H13F18531   1.586   4.625   4.971 -0.5832  0.7295  0.1122
  164OSM   H13G18532   1.600   4.775   5.050 -0.5131  0.7571 -0.5559
  164OSM   C14F18533   1.781   4.710   4.946 -0.4722  0.0775  0.6631
  164OSM   H14F18534   1.823   4.811   4.926 -1.1939  0.1287 -0.7247
  164OSM   H14G18535   1.815   4.650   4.859  2.8222  0.6805  1.4151
  164OSM   C15F18536   1.847   4.646   5.071 -0.1483 -0.6535  0.3273
  164OSM   H15F18537   1.807   4.543   5.083 -1.2088 -0.1063  1.7967
  164OSM   H15G18538   1.811   4.700   5.161  0.7523  2.7417 -1.1861
  164OSM   C16F18539   2.003   4.658   5.051 -0.2357 -0.0604  0.1687
  164OSM   H16F18540   2.026   4.767   5.058 -2.3812  0.4331  0.2789
  164OSM   H16G18541   2.027   4.634   4.945 -0.5509  1.8249 -0.3641
  164OSM   C17F18542   2.086   4.574   5.146  0.6609  0.4667 -0.0307
  164OSM   H17F18543   2.051   4.581   5.251 -1.0625  1.4703 -0.6271
  164OSM   H17G18544   2.191   4.612   5.143  0.9454 -0.1689  1.3997
  164OSM   C18F18545   2.086   4.428   5.114 -0.0101  0.4970 -0.0430
  164OSM   H18F18546   2.148   4.411   5.023 -1.5828 -2.0408 -0.7481
  164OSM   H18G18547   1.986   4.385   5.090  1.3154 -3.7500  1.0186
  164OSM   H18H18548   2.126   4.370   5.200  1.4866 -1.0500 -1.6666
  165SAPS     N18549   5.656   5.791   7.917 -0.8376 -0.7881 -0.4395
  165SAPS   HN118550   5.750   5.794   7.874 -0.7290  1.7090 -0.1463
  165SAPS   HN218551   5.658   5.755   8.015  0.2630  1.4493  0.4305
  165SAPS   HN318552   5.590   5.734   7.860 -0.6440 -1.6224  0.1417
  165SAPS   C1218553   5.610   5.933   7.924 -0.1258 -0.0732 -0.0429
  165SAPS  H12A18554   5.518   5.937   7.981  0.7141  0.1302  1.3347
  165SAPS   C1318555   5.707   6.039   7.987  0.2207 -0.5810  0.1467
  165SAPS  O13A18556   5.820   6.006   8.037  0.1435 -0.1303  0.5711
  165SAPS  O13B18557   5.644   6.149   8.010  0.1862  0.7062  0.2966
  165SAPS   C1118558   5.575   5.981   7.771  0.1799 -0.1111 -1.2167
  165SAPS  H11A18559   5.671   6.011   7.725  0.9943 -2.6168 -1.3016
  165SAPS  H11B18560   5.526   6.080   7.784 -0.5314 -0.4993 -0.8783
  165SAPS     P18561   5.373   5.911   7.615 -0.1084 -0.0482 -0.2780
  165SAPS   O1318562   5.270   5.804   7.636  0.4284 -0.9887 -0.2088
  165SAPS   O1418563   5.324   6.053   7.631 -0.7197 -0.2074 -0.0541
  165SAPS   O1218564   5.501   5.883   7.705 -0.0586 -0.2566 -0.0042
  165SAPS   O1118565   5.426   5.897   7.467 -0.1183  0.0189 -0.0525
  165SAPS    C118566   5.526   5.798   7.435  0.1924 -0.0340  0.7190
  165SAPS    HA18567   5.621   5.827   7.485  0.0480 -0.1464  1.0635
  165SAPS    HB18568   5.484   5.698   7.463  1.0324 -0.6114 -0.0178
  165SAPS    C218569   5.564   5.800   7.282  0.6126  0.2784  0.2491
  165SAPS    HS18570   5.567   5.909   7.259 -1.6087  0.4500  0.4862
  165SAPS   O2118571   5.447   5.748   7.205  0.2088  0.8232  0.3017
  165SAPS   C2118572   5.437   5.792   7.087  0.3198  0.8896  0.5009
  165SAPS   O2218573   5.504   5.880   7.034 -0.8534 -0.3060 -0.4111
  165SAPS   C2218574   5.320   5.725   7.014  0.2897 -0.1848 -0.7422
  165SAPS   H2R18575   5.332   5.615   7.024  1.2283 -0.2350 -2.1407
  165SAPS   H2S18576   5.226   5.772   7.049 -0.1481 -1.3629 -0.2930
  165SAPS    C318577   5.702   5.738   7.257  0.3162  0.5910 -0.4076
  165SAPS    HX18578   5.693   5.630   7.279 -0.1171  0.7815  0.3914
  165SAPS    HY18579   5.765   5.791   7.332  0.3233  0.8102 -0.5668
  165SAPS   O3118580   5.747   5.768   7.120 -0.4209 -0.4541 -0.4624
  165SAPS   C3118581   5.744   5.670   7.033  0.1602  0.0677  0.2639
  165SAPS   O3218582   5.709   5.554   7.062  0.3115  0.2196  0.1527
  165SAPS   C3218583   5.796   5.722   6.894 -0.3681 -0.9016  0.7290
  165SAPS   H2X18584   5.884   5.785   6.919  1.3709 -2.7360 -0.5559
  165SAPS   H2Y18585   5.711   5.780   6.851 -0.7906 -2.6751 -0.9533
  165SAPS   C2318586   5.326   5.752   6.866  0.3673  0.1927  0.5094
  165SAPS   H3R18587   5.425   5.738   6.815  1.1524  4.3309  0.5781
  165SAPS   H3S18588   5.298   5.858   6.850 -2.9196 -0.7452 -0.9431
  165SAPS   C2418589   5.227   5.657   6.796 -0.1567 -0.4140  0.1138
  165SAPS   H4R18590   5.224   5.699   6.693  1.6113  0.7414  0.5097
  165SAPS   H4S18591   5.123   5.673   6.834 -1.7539 -0.0166 -3.8794
  165SAPS   C2518592   5.256   5.509   6.799  0.2959 -0.1324 -0.2339
  165SAPS   H5R18593   5.266   5.469   6.901  0.9637  0.7834  0.0684
  165SAPS   C2618594   5.280   5.417   6.700  0.5546 -0.0093  0.4519
  165SAPS   H6R18595   5.315   5.314   6.716 -1.6545 -0.9386 -0.3443
  165SAPS   C2718596   5.261   5.453   6.552 -0.6128  0.0724 -0.2609
  165SAPS   H7R18597   5.169   5.515   6.555 -0.9305 -0.3926  3.0456
  165SAPS   H7S18598   5.246   5.361   6.492  3.9365 -1.5467  0.6516
  165SAPS   C2818599   5.375   5.535   6.502  0.7869  0.3259 -0.0759
  165SAPS   H8R18600   5.406   5.621   6.563  1.8567 -1.3377  1.8805
  165SAPS   C2918601   5.435   5.523   6.379  0.4318  0.2320  0.0418
  165SAPS   H9R18602   5.517   5.595   6.362  1.9899 -2.2196 -4.3511
  165SAPS  C21018603   5.404   5.418   6.270  1.1339 -0.6040  0.0451
  165SAPS  H10R18604   5.375   5.322   6.317 -2.4878  0.1566 -0.2855
  165SAPS  H10S18605   5.496   5.405   6.211 -0.1424 -1.2935 -1.8878
  165SAPS  C21118606   5.300   5.465   6.170 -0.2710 -0.6671  0.6787
  165SAPS  H11R18607   5.212   5.515   6.213  0.4824  1.7286 -0.3909
  165SAPS  C21218608   5.293   5.438   6.036  0.3006  0.4967 -0.2694
  165SAPS  H12R18609   5.211   5.470   5.969  1.8839  1.3521 -1.8608
  165SAPS  C21318610   5.393   5.352   5.958  0.0384  0.2521 -0.0114
  165SAPS  H13R18611   5.342   5.260   5.924 -0.7601 -0.5649  3.1307
  165SAPS  H13S18612   5.464   5.303   6.028  1.2281 -0.1632 -1.4491
  165SAPS  C21418613   5.465   5.430   5.851 -0.4368 -0.0158  0.4775
  165SAPS  H14R18614   5.540   5.500   5.889  0.1704  0.1905 -1.0461
  165SAPS  C21518615   5.460   5.421   5.716 -0.1907  0.6542  0.0356
  165SAPS  H15R18616   5.522   5.488   5.655  1.6130  0.5172  1.6102
  165SAPS  C21618617   5.366   5.334   5.632  0.2065 -0.2759  0.2383
  165SAPS  H16R18618   5.259   5.328   5.661 -0.0386 -0.9962 -0.7575
  165SAPS  H16S18619   5.403   5.229   5.632 -1.8391 -1.0429 -0.0126
  165SAPS  C21718620   5.368   5.357   5.471 -0.1143 -0.1295 -0.2875
  165SAPS  H17R18621   5.473   5.338   5.441  1.0959  2.7296  1.6996
  165SAPS  H17S18622   5.347   5.466   5.461 -0.1817 -0.0347  0.7648
  165SAPS  C21818623   5.263   5.274   5.399 -0.1576 -0.2754  0.1024
  165SAPS  H18R18624   5.162   5.274   5.445 -0.4874  1.2323 -0.5785
  165SAPS  H18S18625   5.298   5.168   5.402 -2.0801 -0.9333  0.9465
  165SAPS  C21918626   5.241   5.318   5.252 -0.1762 -0.3448 -0.3814
  165SAPS  H19R18627   5.230   5.428   5.248 -0.4619 -0.4144 -2.5164
  165SAPS  H19S18628   5.151   5.267   5.212  0.7436  0.2867 -3.5623
  165SAPS  C22018629   5.351   5.275   5.158  0.1191  0.2290 -0.4217
  165SAPS  H20R18630   5.354   5.334   5.064  3.7577 -0.9708 -1.2411
  165SAPS  H20S18631   5.335   5.172   5.122 -0.2325  0.4909 -1.0285
  165SAPS  H20T18632   5.451   5.300   5.202 -0.1125  0.1235  0.1803
  165SAPS   C3318633   5.842   5.608   6.802 -0.5196  0.1275 -0.1470
  165SAPS   H3X18634   5.758   5.536   6.792 -1.5898  1.1950  0.8044
  165SAPS   H3Y18635   5.923   5.550   6.851 -1.7738 -0.8791  0.8002
  165SAPS   C3418636   5.888   5.650   6.659  0.2079  0.0549 -0.0130
  165SAPS   H4X18637   5.937   5.566   6.606  1.6392 -0.9460  2.6906
  165SAPS   H4Y18638   5.951   5.742   6.664 -0.1975  0.5301 -2.2500
  165SAPS   C3518639   5.764   5.695   6.581  0.3455  0.5303  0.2608
  165SAPS   H5X18640   5.700   5.771   6.631  0.4201  1.7463 -1.3858
  165SAPS   H5Y18641   5.703   5.603   6.578 -1.9268  1.9183  1.0478
  165SAPS   C3618642   5.787   5.759   6.442 -0.5157  0.6170  0.1764
  165SAPS   H6X18643   5.847   5.852   6.453  0.8440 -0.4546  2.3743
  165SAPS   H6Y18644   5.691   5.791   6.397 -0.2775  0.0299 -0.7983
  165SAPS   C3718645   5.849   5.658   6.337  0.3739 -0.1383 -0.7052
  165SAPS   H7X18646   5.771   5.581   6.322  0.9119 -1.2700  1.7268
  165SAPS   H7Y18647   5.940   5.613   6.384 -1.4145 -1.7165  1.4658
  165SAPS   C3818648   5.891   5.727   6.203 -0.5020  0.1398  0.8890
  165SAPS   H8X18649   5.802   5.786   6.170 -0.9806  0.3449  2.4491
  165SAPS   H8Y18650   5.915   5.650   6.127  0.6348  1.1619  0.1777
  165SAPS   C3918651   6.004   5.825   6.218 -0.7166 -0.1093  0.4413
  165SAPS   H9X18652   6.090   5.760   6.244 -2.6240 -2.2673  1.7954
  165SAPS   H9Y18653   5.986   5.905   6.293 -0.7080 -0.6691  1.0444
  165SAPS  C31018654   6.027   5.884   6.078  0.9874  0.5566  0.2345
  165SAPS  H10X18655   5.936   5.946   6.061 -0.3271 -1.8889 -2.3673
  165SAPS  H10Y18656   6.025   5.807   5.999 -1.7661  0.0815  0.6479
  165SAPS  C31118657   6.141   5.982   6.059 -0.3422 -0.2587 -0.0663
  165SAPS  H11X18658   6.159   6.023   6.161  0.1720 -0.6375 -0.0024
  165SAPS  H11Y18659   6.124   6.060   5.981  1.4937  2.3449  1.9686
  165SAPS  C31218660   6.276   5.920   6.031 -0.3576  0.4468 -0.2381
  165SAPS  H12X18661   6.269   5.880   5.927  1.5570 -1.2559  0.2208
  165SAPS  H12Y18662   6.296   5.838   6.103  1.4691  1.6041  0.6503
  165SAPS  C31318663   6.395   6.024   6.040  0.4928 -0.1796 -0.0520
  165SAPS  H13X18664   6.413   6.060   6.144 -1.3924  0.6425  0.0215
  165SAPS  H13Y18665   6.383   6.116   5.980  1.5851  1.1868  1.7242
  165SAPS  C31418666   6.525   5.962   5.986  0.2654 -0.3775  0.0366
  165SAPS  H14X18667   6.505   5.897   5.898 -1.9790  0.7291 -0.3378
  165SAPS  H14Y18668   6.568   5.895   6.064 -0.8606 -1.2669 -0.0790
  165SAPS  C31518669   6.637   6.068   5.963 -0.3596  0.2267  0.3108
  165SAPS  H15X18670   6.729   6.005   5.962 -0.5346 -0.0595 -1.7821
  165SAPS  H15Y18671   6.654   6.139   6.047  1.3392 -0.1310  0.3136
  165SAPS  C31618672   6.622   6.141   5.829 -0.4105 -0.4848 -0.5569
  165SAPS  H16X18673   6.534   6.206   5.850  2.1219  2.4333  1.7547
  165SAPS  H16Y18674   6.602   6.068   5.747 -1.5603 -3.5610  2.2379
  165SAPS  C31718675   6.734   6.237   5.798  0.5453 -0.0173 -0.1316
  165SAPS  H17X18676   6.830   6.181   5.806  0.1852 -0.7474 -0.8394
  165SAPS  H17Y18677   6.735   6.321   5.872  2.2183  0.5221 -0.7195
  165SAPS  C31818678   6.719   6.297   5.661 -0.4000  1.1811 -0.6027
  165SAPS  H18X18679   6.798   6.375   5.653 -0.9701  1.8135 -0.2135
  165SAPS  H18Y18680   6.617   6.340   5.653 -0.4114  1.3285  0.2078
  165SAPS  H18Z18681   6.736   6.225   5.579  1.2327  0.1552  0.5740
  166SAPS     N18682   3.558   6.630   7.630  0.7421 -0.6613  0.7548
  166SAPS   HN118683   3.611   6.708   7.586  1.1238 -0.0468  2.2490
  166SAPS   HN218684   3.550   6.553   7.560  2.2539  0.3925 -0.6814
  166SAPS   HN318685   3.461   6.657   7.656  0.4243 -1.1134  0.0742
  166SAPS   C1218686   3.621   6.573   7.753 -0.0849  0.4516 -0.6173
  166SAPS  H12A18687   3.719   6.545   7.719 -0.3224  0.8070 -1.6182
  166SAPS   C1318688   3.626   6.676   7.873 -0.1594  0.4615  0.5941
  166SAPS  O13A18689   3.547   6.771   7.883  0.2482  0.5632 -0.0533
  166SAPS  O13B18690   3.701   6.639   7.968  0.1647  0.4627  0.0161
  166SAPS   C1118691   3.535   6.441   7.788 -0.6309  0.1279 -0.0114
  166SAPS  H11A18692   3.439   6.462   7.839 -1.4313  1.4970 -1.9357
  166SAPS  H11B18693   3.603   6.394   7.863  0.3215  2.4505  0.6668
  166SAPS     P18694   3.461   6.213   7.638  0.1345 -0.1207 -0.5850
  166SAPS   O1318695   3.548   6.142   7.539 -0.5851 -0.3502  0.2571
  166SAPS   O1418696   3.440   6.140   7.764  0.5899  0.8060 -0.8251
  166SAPS   O1218697   3.522   6.357   7.670  0.2707 -0.6118 -0.4052
  166SAPS   O1118698   3.312   6.246   7.572 -0.4544  0.1334 -0.0898
  166SAPS    C118699   3.308   6.355   7.478  1.0079 -0.0875 -0.3361
  166SAPS    HA18700   3.342   6.446   7.532 -1.0578  0.6305 -0.1326
  166SAPS    HB18701   3.366   6.327   7.387  2.0050 -2.5915  0.9900
  166SAPS    C218702   3.165   6.381   7.427  0.1889  0.7220  1.1069
  166SAPS    HS18703   3.093   6.415   7.504 -2.2082 -0.1952 -0.5890
  166SAPS   O2118704   3.122   6.261   7.358  0.7560  0.2596  0.2657
  166SAPS   C2118705   3.000   6.238   7.329  0.3708  0.4322 -0.3781
  166SAPS   O2218706   2.901   6.310   7.360 -0.5983 -0.0474  0.0784
  166SAPS   C2218707   2.994   6.106   7.261  0.0260  0.1546  0.4743
  166SAPS   H2R18708   3.094   6.066   7.233 -0.3854 -2.5780  2.4619
  166SAPS   H2S18709   2.965   6.042   7.348  1.9976 -1.3896  0.0731
  166SAPS    C318710   3.172   6.488   7.325  0.9943 -1.5238  0.2345
  166SAPS    HX18711   3.199   6.578   7.384  2.3986 -1.6291 -0.2231
  166SAPS    HY18712   3.074   6.512   7.279  1.3560 -0.3492  0.0418
  166SAPS   O3118713   3.279   6.472   7.233 -0.5921  0.0087  0.5487
  166SAPS   C3118714   3.245   6.448   7.108  0.4103  0.3031  0.2621
  166SAPS   O3218715   3.132   6.440   7.074  0.0098  0.3926  0.3980
  166SAPS   C3218716   3.371   6.416   7.027 -0.0168  0.1215 -0.5864
  166SAPS   H2X18717   3.410   6.321   7.068 -2.0167 -0.4169  0.1889
  166SAPS   H2Y18718   3.445   6.495   7.051 -0.4547  0.1595  0.7236
  166SAPS   C2318719   2.879   6.095   7.156 -0.0788 -0.6249 -0.0441
  166SAPS   H3R18720   2.779   6.117   7.201 -0.2368 -1.7356  0.1705
  166SAPS   H3S18721   2.876   5.987   7.132  1.7930 -0.1996 -2.5571
  166SAPS   C2418722   2.912   6.172   7.031  0.1797 -0.7109  0.4631
  166SAPS   H4R18723   2.925   6.280   7.056  1.0794 -0.7648  0.2528
  166SAPS   H4S18724   2.828   6.174   6.959 -1.8186  1.6458  2.6533
  166SAPS   C2518725   3.031   6.118   6.957  0.3256  0.9365  0.6985
  166SAPS   H5R18726   3.129   6.149   6.997  0.6077  0.2137  0.5707
  166SAPS   C2618727   3.029   6.060   6.836  0.9233 -0.0413 -0.2467
  166SAPS   H6R18728   3.126   6.033   6.791  0.0332  0.5441 -2.6292
  166SAPS   C2718729   2.911   6.020   6.759 -0.2930 -0.4123 -0.3769
  166SAPS   H7R18730   2.833   5.978   6.826 -0.9224 -0.1069 -0.9157
  166SAPS   H7S18731   2.931   5.929   6.699  2.0423  0.1623 -0.5674
  166SAPS   C2818732   2.844   6.117   6.666  0.3202  0.0244  0.5198
  166SAPS   H8R18733   2.758   6.166   6.714 -0.0245  1.0963 -1.0991
  166SAPS   C2918734   2.863   6.138   6.534 -0.4326  0.4354  0.2497
  166SAPS   H9R18735   2.811   6.219   6.481  0.3852 -0.4785 -2.0823
  166SAPS  C21018736   2.967   6.061   6.453 -0.1958 -0.8136  0.5395
  166SAPS  H10R18737   2.916   5.971   6.411  0.4417 -0.3335 -1.3905
  166SAPS  H10S18738   3.044   6.017   6.520  1.1021 -0.1611 -0.4714
  166SAPS  C21118739   3.029   6.154   6.348  0.2692  0.5707  0.0616
  166SAPS  H11R18740   3.101   6.225   6.393 -1.5040 -0.0160  4.3002
  166SAPS  C21218741   3.007   6.156   6.214  0.1902  0.0196 -0.1559
  166SAPS  H12R18742   3.058   6.235   6.156  1.4135 -0.7427 -0.1502
  166SAPS  C21318743   2.911   6.066   6.131  0.4858 -0.3401  0.4393
  166SAPS  H13R18744   2.888   6.122   6.038 -2.5217 -0.7090  0.8596
  166SAPS  H13S18745   2.815   6.037   6.180 -0.2000 -1.5441 -1.5272
  166SAPS  C21418746   2.978   5.945   6.083  0.3750 -0.4999  0.5260
  166SAPS  H14R18747   3.008   5.872   6.159 -2.3084 -2.5632 -0.2658
  166SAPS  C21518748   2.998   5.901   5.956 -0.5456 -0.6826  0.5003
  166SAPS  H15R18749   3.038   5.799   5.944  1.1691 -0.0178  0.3144
  166SAPS  C21618750   2.948   5.970   5.832 -0.3108 -0.0832 -0.2913
  166SAPS  H16R18751   2.920   6.076   5.852  2.3795  1.0051 -1.7068
  166SAPS  H16S18752   2.855   5.922   5.795 -0.9397  0.4037  0.6168
  166SAPS  C21718753   3.052   5.962   5.714 -0.5852  0.3614 -0.8069
  166SAPS  H17R18754   3.048   5.858   5.674 -0.9745 -0.5184  1.3757
  166SAPS  H17S18755   3.152   5.978   5.761 -0.1763 -0.8454 -1.2256
  166SAPS  C21818756   3.021   6.061   5.601 -0.4164  0.1896  0.2443
  166SAPS  H18R18757   2.916   6.042   5.567 -0.7670 -0.1856  1.4854
  166SAPS  H18S18758   3.085   6.052   5.510 -2.6291  2.4742 -1.7245
  166SAPS  C21918759   3.029   6.210   5.650  0.1069 -0.4087  0.5095
  166SAPS  H19R18760   3.132   6.243   5.674  0.1477 -1.1153  1.3557
  166SAPS  H19S18761   2.968   6.220   5.743 -1.9375  0.6485 -0.8732
  166SAPS  C22018762   2.967   6.298   5.542 -0.0967  0.4953  0.4912
  166SAPS  H20R18763   2.980   6.408   5.545 -1.6049  0.7420 -0.5539
  166SAPS  H20S18764   2.859   6.270   5.542 -0.2583  1.0761 -0.0738
  166SAPS  H20T18765   2.997   6.270   5.439  1.0609 -1.3432  1.2847
  166SAPS   C3318766   3.344   6.411   6.871 -0.4533 -0.1307  0.2166
  166SAPS   H3X18767   3.312   6.501   6.815  0.7128  0.0944 -0.1136
  166SAPS   H3Y18768   3.278   6.323   6.854  1.1501 -1.2825 -0.2539
  166SAPS   C3418769   3.466   6.370   6.797 -0.0223 -0.4896  0.1138
  166SAPS   H4X18770   3.516   6.283   6.845 -0.4026  0.1069  1.6559
  166SAPS   H4Y18771   3.536   6.455   6.789 -1.0458  0.3341 -0.4244
  166SAPS   C3518772   3.431   6.321   6.653 -0.0447 -0.2074  0.1920
  166SAPS   H5X18773   3.373   6.403   6.604  0.8489 -0.4206 -1.2674
  166SAPS   H5Y18774   3.356   6.239   6.659 -0.3804  0.0297 -0.5755
  166SAPS   C3618775   3.556   6.290   6.572 -0.1755  0.3780  0.3971
  166SAPS   H6X18776   3.632   6.231   6.627  0.9811  1.0126 -0.4754
  166SAPS   H6Y18777   3.599   6.389   6.543 -0.6341  0.4799  0.0394
  166SAPS   C3718778   3.522   6.210   6.446  0.2696 -0.0330 -0.5517
  166SAPS   H7X18779   3.487   6.111   6.481 -0.2878  0.3761  0.0870
  166SAPS   H7Y18780   3.611   6.189   6.383  2.0527  0.2621  1.7352
  166SAPS   C3818781   3.418   6.272   6.358  0.4361 -0.7929 -1.0719
  166SAPS   H8X18782   3.463   6.370   6.328  3.7100 -1.5740  0.8109
  166SAPS   H8Y18783   3.322   6.287   6.412  0.1457 -0.1526 -1.7410
  166SAPS   C3918784   3.386   6.196   6.231 -0.3281 -0.7965 -0.0275
  166SAPS   H9X18785   3.299   6.240   6.178 -0.8575 -0.0766  1.3853
  166SAPS   H9Y18786   3.365   6.089   6.253  2.2090 -1.3331  0.0983
  166SAPS  C31018787   3.504   6.188   6.132 -0.2187 -0.1570  0.1844
  166SAPS  H10X18788   3.577   6.118   6.177 -0.6389 -0.8119 -0.1418
  166SAPS  H10Y18789   3.553   6.286   6.110 -0.0576 -0.9123 -3.5611
  166SAPS  C31118790   3.470   6.128   5.991 -0.1552 -0.4023 -0.5639
  166SAPS  H11X18791   3.372   6.173   5.964 -0.1950 -0.2715 -0.2092
  166SAPS  H11Y18792   3.456   6.018   5.997  2.0227 -0.6707  0.2308
  166SAPS  C31218793   3.581   6.154   5.885  0.3752 -0.4492 -0.4661
  166SAPS  H12X18794   3.674   6.151   5.946  1.7640 -2.1030 -2.5054
  166SAPS  H12Y18795   3.576   6.257   5.846 -1.5264  0.7466  2.5723
  166SAPS  C31318796   3.593   6.049   5.774  0.0929 -0.4773 -0.6687
  166SAPS  H13X18797   3.623   5.953   5.823  0.9786 -0.6817 -1.5627
  166SAPS  H13Y18798   3.676   6.073   5.704 -1.0527  1.6183 -1.3680
  166SAPS  C31418799   3.456   6.032   5.700 -0.0760  0.0098  0.1441
  166SAPS  H14X18800   3.420   6.128   5.658  0.1894  0.2387  0.4388
  166SAPS  H14Y18801   3.383   6.007   5.779  0.5794  0.7175  0.9883
  166SAPS  C31518802   3.464   5.903   5.606  0.5962 -0.3285  0.4468
  166SAPS  H15X18803   3.359   5.876   5.581  0.7441 -3.0700  2.3387
  166SAPS  H15Y18804   3.506   5.821   5.669 -0.5146  1.2557  3.4981
  166SAPS  C31618805   3.558   5.921   5.487 -0.2309  0.0407 -0.8526
  166SAPS  H16X18806   3.662   5.946   5.519  0.6557 -0.3672 -3.1928
  166SAPS  H16Y18807   3.520   6.010   5.433  1.0653  2.0156  1.3059
  166SAPS  C31718808   3.575   5.777   5.424  0.1112  0.5886  0.5356
  166SAPS  H17X18809   3.595   5.705   5.505 -0.1918  1.4187  1.3719
  166SAPS  H17Y18810   3.670   5.773   5.366 -0.5210 -2.0481 -0.4404
  166SAPS  C31818811   3.460   5.727   5.335 -1.5657 -0.5345 -0.2788
  166SAPS  H18X18812   3.492   5.623   5.310  3.0737  0.4247  0.7287
  166SAPS  H18Y18813   3.440   5.789   5.245  0.5615  0.7309  0.0580
  166SAPS  H18Z18814   3.371   5.740   5.400 -0.1912  0.5659  1.4765
  167SAPS     N18815   1.197   3.221   7.517 -1.0194 -0.3595  0.2952
  167SAPS   HN118816   1.122   3.270   7.463 -0.7967 -1.1265 -0.7479
  167SAPS   HN218817   1.277   3.285   7.531  0.4494 -1.6773 -1.6259
  167SAPS   HN318818   1.231   3.141   7.459  0.4552 -0.6667  1.5054
  167SAPS   C1218819   1.152   3.175   7.660 -0.2001 -0.0036 -0.2926
  167SAPS  H12A18820   1.244   3.187   7.717 -0.1929 -0.8243 -0.1159
  167SAPS   C1318821   1.045   3.263   7.723  0.3524 -0.1145 -0.6617
  167SAPS  O13A18822   1.004   3.360   7.656  0.3656 -0.2244 -0.0155
  167SAPS  O13B18823   1.015   3.249   7.845  0.0921  0.2388 -0.3103
  167SAPS   C1118824   1.113   3.030   7.667  0.1402 -0.3802  0.4280
  167SAPS  H11A18825   1.032   3.020   7.593  0.6968  0.4100 -0.3150
  167SAPS  H11B18826   1.083   3.001   7.770 -0.0514  1.2302  0.8481
  167SAPS     P18827   1.299   2.842   7.698  0.1593  0.0779 -0.1164
  167SAPS   O1318828   1.427   2.803   7.633  0.5132  0.7099 -1.2634
  167SAPS   O1418829   1.318   2.914   7.828 -0.1643  0.0643  0.4346
  167SAPS   O1218830   1.214   2.934   7.606 -0.2510  0.5590 -0.1348
  167SAPS   O1118831   1.209   2.714   7.729  0.0080 -0.1671  0.9539
  167SAPS    C118832   1.132   2.659   7.628  0.1047 -0.0140 -0.0414
  167SAPS    HA18833   1.055   2.729   7.588 -1.1533 -1.9601 -1.2080
  167SAPS    HB18834   1.201   2.633   7.545  0.7899  1.8496 -0.1113
  167SAPS    C218835   1.070   2.524   7.676 -0.6455  0.0567 -0.5220
  167SAPS    HS18836   1.146   2.458   7.723 -0.2410  0.8282 -0.0779
  167SAPS   O2118837   1.001   2.459   7.565  0.2905 -1.0465  0.2212
  167SAPS   C2118838   1.054   2.380   7.485 -0.9883  0.1286 -0.1079
  167SAPS   O2218839   1.173   2.350   7.477 -0.1602  0.0245 -0.2243
  167SAPS   C2218840   0.936   2.327   7.402 -0.3793  0.2512 -0.5252
  167SAPS   H2R18841   0.848   2.309   7.467 -0.9341  0.0956 -1.3082
  167SAPS   H2S18842   0.898   2.407   7.334 -0.2230 -1.2913 -2.5054
  167SAPS    C318843   0.957   2.549   7.774  0.0036 -0.4183  0.2618
  167SAPS    HX18844   1.009   2.591   7.863 -1.1247  2.3381 -0.2712
  167SAPS    HY18845   0.907   2.454   7.805  2.6968 -1.7359  0.9243
  167SAPS   O3118846   0.870   2.650   7.719 -0.0126 -0.3430 -0.0115
  167SAPS   C3118847   0.758   2.594   7.664 -1.0396 -0.5352 -0.5468
  167SAPS   O3218848   0.718   2.486   7.682 -0.1358 -0.1467  0.0326
  167SAPS   C3218849   0.690   2.691   7.566 -0.7192 -1.2888  0.3151
  167SAPS   H2X18850   0.774   2.720   7.499 -0.7017 -0.6985  0.5798
  167SAPS   H2Y18851   0.657   2.778   7.627 -2.2256 -2.9524  1.9890
  167SAPS   C2318852   0.975   2.202   7.322 -1.0758  0.1808  0.3714
  167SAPS   H3R18853   0.986   2.119   7.394 -0.3511 -0.7073 -0.7193
  167SAPS   H3S18854   1.071   2.215   7.267 -1.6790  2.0991 -0.3034
  167SAPS   C2418855   0.869   2.163   7.211 -0.0104  0.4304  0.4899
  167SAPS   H4R18856   0.861   2.251   7.144  3.3411  0.8324  0.4511
  167SAPS   H4S18857   0.773   2.157   7.267  0.1014  2.8671  1.0609
  167SAPS   C2518858   0.917   2.028   7.155 -0.4727 -0.5723 -0.5059
  167SAPS   H5R18859   0.938   1.950   7.231  0.0454 -0.4886 -0.5595
  167SAPS   C2618860   0.952   2.003   7.028  0.1200  0.2807  0.5098
  167SAPS   H6R18861   0.979   1.897   7.014  0.4530  0.0775  2.3842
  167SAPS   C2718862   0.933   2.092   6.906 -0.2268 -0.4260 -0.0366
  167SAPS   H7R18863   1.024   2.099   6.843 -0.6315  1.7701 -0.4812
  167SAPS   H7S18864   0.928   2.198   6.938 -0.9074 -0.4913  0.0875
  167SAPS   C2818865   0.808   2.061   6.827  0.2845  0.4582 -0.5959
  167SAPS   H8R18866   0.717   2.092   6.879  1.1331  1.8776  0.0913
  167SAPS   C2918867   0.793   2.014   6.702  0.1969  0.7137 -0.0377
  167SAPS   H9R18868   0.690   1.999   6.667 -0.5433  2.3727  1.2988
  167SAPS  C21018869   0.908   1.976   6.608  0.6843  0.1124 -0.6649
  167SAPS  H10R18870   1.004   1.943   6.652  1.0465  0.9905 -0.7812
  167SAPS  H10S18871   0.934   2.079   6.575  0.3270  0.3064 -0.3529
  167SAPS  C21118872   0.871   1.882   6.491 -0.2209  0.4586 -0.2714
  167SAPS  H11R18873   0.831   1.784   6.519  3.4605 -1.7470 -2.0610
  167SAPS  C21218874   0.907   1.899   6.359  0.3905  0.1953  0.1498
  167SAPS  H12R18875   0.847   1.837   6.290 -1.6781  3.8412 -1.6823
  167SAPS  C21318876   0.978   2.020   6.300  0.4298 -0.6569  0.2504
  167SAPS  H13R18877   1.024   2.081   6.380 -2.6456  1.6265  0.4603
  167SAPS  H13S18878   0.901   2.083   6.250 -1.0428 -1.9961  0.7413
  167SAPS  C21418879   1.088   1.983   6.202 -0.5916  0.7903  0.7558
  167SAPS  H14R18880   1.149   1.897   6.231  1.9564  2.6980  1.4369
  167SAPS  C21518881   1.103   2.039   6.082 -0.2962 -0.0775 -0.1997
  167SAPS  H15R18882   1.185   2.003   6.018 -1.3524  0.1631 -1.7439
  167SAPS  C21618883   1.019   2.155   6.031  0.0562 -0.2691 -0.1477
  167SAPS  H16R18884   1.082   2.226   5.974 -0.7434 -0.5909 -1.4791
  167SAPS  H16S18885   0.971   2.217   6.110 -1.3102 -0.6092 -0.6811
  167SAPS  C21718886   0.917   2.107   5.934  0.3062 -1.0288  0.1622
  167SAPS  H17R18887   0.849   2.029   5.975 -1.2678 -0.0369 -0.4511
  167SAPS  H17S18888   0.969   2.059   5.848 -0.3446 -1.6648  0.1149
  167SAPS  C21818889   0.814   2.219   5.892 -0.0705  0.1354  0.0113
  167SAPS  H18R18890   0.861   2.316   5.865  0.2874  0.8768  2.9087
  167SAPS  H18S18891   0.761   2.248   5.986 -1.4742 -0.6188 -0.5197
  167SAPS  C21918892   0.725   2.171   5.780 -0.1014 -0.5444  0.3001
  167SAPS  H19R18893   0.681   2.076   5.816  1.9384 -0.4806  3.4200
  167SAPS  H19S18894   0.772   2.144   5.684 -2.6393  0.3489 -1.3050
  167SAPS  C22018895   0.615   2.276   5.746  0.1537 -0.0004 -0.0442
  167SAPS  H20R18896   0.517   2.226   5.731 -0.8498  1.7718  0.3374
  167SAPS  H20S18897   0.635   2.325   5.649 -0.3289 -1.7934 -1.0969
  167SAPS  H20T18898   0.605   2.359   5.819  0.1814  0.1281 -0.1857
  167SAPS   C3318899   0.569   2.632   7.482 -0.2453  0.1606 -0.1503
  167SAPS   H3X18900   0.522   2.726   7.444 -0.8579  0.2548  0.8194
  167SAPS   H3Y18901   0.498   2.581   7.551 -0.7957  1.8057  0.5470
  167SAPS   C3418902   0.612   2.543   7.368  0.5505 -0.1889 -0.4962
  167SAPS   H4X18903   0.670   2.457   7.408 -0.5685  0.0156  1.7313
  167SAPS   H4Y18904   0.676   2.608   7.305  2.8375  0.2313  2.0939
  167SAPS   C3518905   0.490   2.495   7.294 -0.1902 -0.1192  0.0765
  167SAPS   H5X18906   0.440   2.585   7.253 -1.6337 -0.9341 -0.0277
  167SAPS   H5Y18907   0.420   2.448   7.367 -0.5399  1.7002  0.9710
  167SAPS   C3618908   0.517   2.409   7.173  0.3123  0.5684 -0.4630
  167SAPS   H6X18909   0.420   2.399   7.120 -0.0676  0.3948  0.2545
  167SAPS   H6Y18910   0.552   2.310   7.210 -0.4984 -0.2826 -1.8899
  167SAPS   C3718911   0.609   2.463   7.065  0.0573  0.3995 -0.0435
  167SAPS   H7X18912   0.705   2.501   7.107 -0.4232  0.6028  0.8937
  167SAPS   H7Y18913   0.555   2.551   7.022  0.3981  0.9360  0.6075
  167SAPS   C3818914   0.631   2.372   6.943  0.0942  0.3785  0.9424
  167SAPS   H8X18915   0.533   2.325   6.916 -0.8446  2.0872  1.2519
  167SAPS   H8Y18916   0.704   2.291   6.966  1.7738  1.8779  1.1012
  167SAPS   C3918917   0.683   2.456   6.824 -0.2391 -0.1962 -0.3636
  167SAPS   H9X18918   0.788   2.427   6.807 -0.2701  0.1583 -1.2362
  167SAPS   H9Y18919   0.680   2.562   6.855  2.7917 -0.1083 -0.1720
  167SAPS  C31018920   0.607   2.443   6.696  0.3704 -0.0433 -0.0512
  167SAPS  H10X18921   0.496   2.450   6.697  0.4066  0.9052  1.7940
  167SAPS  H10Y18922   0.619   2.336   6.668  2.4946  0.2854 -0.5907
  167SAPS  C31118923   0.651   2.531   6.577  0.0537  0.1740 -0.2108
  167SAPS  H11X18924   0.758   2.519   6.551 -0.0006 -1.2360  0.0921
  167SAPS  H11Y18925   0.626   2.638   6.592  0.0222  0.2107 -0.5274
  167SAPS  C31218926   0.578   2.492   6.440 -0.2355  0.3376  0.0222
  167SAPS  H12X18927   0.470   2.519   6.447 -0.0817  1.5882 -1.7622
  167SAPS  H12Y18928   0.594   2.384   6.423  0.6271  0.2537  1.2899
  167SAPS  C31318929   0.645   2.555   6.323 -0.1440  0.0436 -0.4919
  167SAPS  H13X18930   0.750   2.516   6.328  0.1243  0.8033 -0.0772
  167SAPS  H13Y18931   0.641   2.666   6.326 -0.6206  0.0042  0.9758
  167SAPS  C31418932   0.585   2.513   6.192 -0.6660 -0.5543  0.4628
  167SAPS  H14X18933   0.475   2.509   6.201 -0.6146 -1.2806  0.8682
  167SAPS  H14Y18934   0.614   2.408   6.170 -2.9445 -1.3927  1.2012
  167SAPS  C31518935   0.625   2.607   6.077  0.7482 -0.0560 -1.1586
  167SAPS  H15X18936   0.626   2.706   6.126  1.6231 -1.4735  1.9164
  167SAPS  H15Y18937   0.541   2.611   6.004 -0.9893  0.3483  0.7938
  167SAPS  C31618938   0.750   2.576   6.013  0.2554 -0.0156  0.7635
  167SAPS  H16X18939   0.753   2.472   5.973 -2.4438 -0.1425  0.7400
  167SAPS  H16Y18940   0.834   2.583   6.086  2.3613 -1.6989 -1.3395
  167SAPS  C31718941   0.786   2.669   5.891  0.0272  0.2157 -0.6601
  167SAPS  H17X18942   0.805   2.767   5.941  1.2944 -0.9678  1.2931
  167SAPS  H17Y18943   0.701   2.678   5.819 -0.3780  0.4701 -0.1570
  167SAPS  C31818944   0.915   2.633   5.822 -0.8217  0.0277 -0.0005
  167SAPS  H18X18945   1.002   2.631   5.891 -1.8056 -0.4886  1.2794
  167SAPS  H18Y18946   0.933   2.690   5.728  1.9317  0.9884  1.0052
  167SAPS  H18Z18947   0.918   2.526   5.794 -1.8146  0.4059 -1.6965
  168SAPS     N18948   6.172   0.021   7.684 -0.3520  0.9911 -0.1497
  168SAPS   HN118949   6.113  -0.056   7.647 -0.5957  1.9379 -1.8149
  168SAPS   HN218950   6.264  -0.017   7.715  0.1699  0.9197 -1.7128
  168SAPS   HN318951   6.128   0.053   7.773  0.3468  2.7339 -0.4000
  168SAPS   C1218952   6.187   0.121   7.573 -0.3906  0.0995  0.2890
  168SAPS  H12A18953   6.093   0.176   7.568  0.4780  1.5896 -0.4303
  168SAPS   C1318954   6.297   0.227   7.581 -0.7317  0.0699  0.3105
  168SAPS  O13A18955   6.393   0.222   7.663  0.3361 -0.8577 -0.3007
  168SAPS  O13B18956   6.303   0.316   7.486  0.2999  0.3628  0.2123
  168SAPS   C1118957   6.193   0.049   7.434  0.3707  0.2776 -0.3060
  168SAPS  H11A18958   6.287  -0.011   7.430  0.4709  0.4712 -0.8493
  168SAPS  H11B18959   6.201   0.134   7.364  1.0497  0.5052  0.0408
  168SAPS     P18960   5.974   0.014   7.302 -0.5576 -0.1512 -0.1988
  168SAPS   O1318961   5.858  -0.075   7.300 -0.2425  0.6663 -0.3581
  168SAPS   O1418962   5.949   0.155   7.341  0.1607 -0.4078 -0.4631
  168SAPS   O1218963   6.082  -0.034   7.411  0.1566 -0.7952 -0.1694
  168SAPS   O1118964   6.040   0.006   7.165  0.0156  0.0262  0.4528
  168SAPS    C118965   6.134  -0.094   7.128 -0.0518 -0.0028 -0.0068
  168SAPS    HA18966   6.154  -0.160   7.215  1.9584  2.4509  1.5272
  168SAPS    HB18967   6.098  -0.149   7.039 -0.2539  0.7762 -0.4153
  168SAPS    C218968   6.263  -0.024   7.084 -0.3254 -0.0195 -0.5540
  168SAPS    HS18969   6.292   0.045   7.165  1.0474 -1.7690  0.5328
  168SAPS   O2118970   6.241   0.031   6.956 -0.1900 -0.1263 -0.0958
  168SAPS   C2118971   6.213   0.156   6.951 -0.2433  0.2842 -0.5705
  168SAPS   O2218972   6.211   0.235   7.047  0.7768  0.7792 -0.1132
  168SAPS   C2218973   6.188   0.213   6.812  0.5730  0.4101  0.6684
  168SAPS   H2R18974   6.281   0.254   6.767  0.6680 -0.9482 -0.4652
  168SAPS   H2S18975   6.144   0.126   6.758 -1.9281  0.3724  2.6110
  168SAPS    C318976   6.375  -0.128   7.070  0.3992  0.1633 -0.1202
  168SAPS    HX18977   6.397  -0.186   7.162 -0.7112  1.7556  1.1959
  168SAPS    HY18978   6.467  -0.067   7.053 -0.4501  1.9194  1.2860
  168SAPS   O3118979   6.353  -0.227   6.974 -0.0295  0.1756  0.1410
  168SAPS   C3118980   6.454  -0.299   6.943  0.6662 -0.2164 -0.4011
  168SAPS   O3218981   6.562  -0.292   6.996  0.2357  0.1089  0.3432
  168SAPS   C3218982   6.426  -0.405   6.835  0.0608  0.3317  0.2492
  168SAPS   H2X18983   6.319  -0.430   6.848  0.3661 -0.0436  2.4191
  168SAPS   H2Y18984   6.489  -0.492   6.861  0.0351  0.7881  1.9624
  168SAPS   C2318985   6.084   0.325   6.821  0.1915 -0.6371 -0.4561
  168SAPS   H3R18986   6.145   0.407   6.865 -0.2422 -0.1215 -0.7992
  168SAPS   H3S18987   6.004   0.299   6.894 -0.7181  2.1676 -0.3134
  168SAPS   C2418988   6.030   0.377   6.685  0.6597 -1.0798  0.5571
  168SAPS   H4R18989   5.967   0.467   6.696 -1.0235 -2.3194  1.5320
  168SAPS   H4S18990   5.952   0.302   6.657 -0.8555  0.7136 -0.2150
  168SAPS   C2518991   6.134   0.403   6.580  0.8149 -0.0231  0.7107
  168SAPS   H5R18992   6.235   0.389   6.622  1.9714 -2.9377 -2.5193
  168SAPS   C2618993   6.119   0.436   6.447  0.6191 -0.2644 -0.4927
  168SAPS   H6R18994   6.210   0.461   6.391  1.3294  0.2495  0.8283
  168SAPS   C2718995   5.980   0.448   6.386  0.2919  0.5365  0.4804
  168SAPS   H7R18996   5.956   0.555   6.370 -0.0350  0.4841  0.6334
  168SAPS   H7S18997   5.895   0.421   6.451 -1.1313  0.5270 -1.3115
  168SAPS   C2818998   5.968   0.370   6.255  0.3190 -0.3285 -0.0365
  168SAPS   H8R18999   5.900   0.284   6.264 -1.3794  0.9560 -0.1293
  168SAPS   C2919000   6.027   0.394   6.133  0.3789  0.4822  0.4186
  168SAPS   H9R19001   6.007   0.315   6.060 -0.3478  0.0211  1.0936
  168SAPS  C21019002   6.130   0.493   6.097 -0.1573 -0.6975  0.0055
  168SAPS  H10R19003   6.124   0.575   6.172 -0.5972  2.1390 -2.9154
  168SAPS  H10S19004   6.098   0.541   6.002 -0.8750 -0.4149  0.3815
  168SAPS  C21119005   6.270   0.453   6.089  0.5498 -1.0724  0.3105
  168SAPS  H11R19006   6.324   0.467   6.184  0.2979 -0.5104  0.3741
  168SAPS  C21219007   6.337   0.388   5.993  1.0046 -0.4175  0.1538
  168SAPS  H12R19008   6.440   0.354   6.010  0.6988 -1.3404  0.2228
  168SAPS  C21319009   6.268   0.352   5.861  0.0096  0.3019  1.3518
  168SAPS  H13R19010   6.273   0.447   5.804 -1.8761 -0.9923 -1.1725
  168SAPS  H13S19011   6.160   0.331   5.870 -0.5709  2.2950 -0.1076
  168SAPS  C21419012   6.350   0.244   5.796 -0.0503 -0.7721  0.1317
  168SAPS  H14R19013   6.372   0.158   5.860  0.8164 -2.3214 -2.1357
  168SAPS  C21519014   6.399   0.241   5.673 -0.2288  0.5795  0.5000
  168SAPS  H15R19015   6.466   0.157   5.649 -1.5976 -0.0532 -1.2804
  168SAPS  C21619016   6.391   0.348   5.570 -0.0284  0.2616  0.2060
  168SAPS  H16R19017   6.321   0.427   5.606  1.6643  1.4925  0.9109
  168SAPS  H16S19018   6.347   0.302   5.479 -0.8000  0.2238  0.5947
  168SAPS  C21719019   6.528   0.421   5.543  0.0384 -0.3188  0.2189
  168SAPS  H17R19020   6.572   0.457   5.638  2.7400 -1.9917 -0.2996
  168SAPS  H17S19021   6.519   0.518   5.490  1.3881  0.7240  1.7895
  168SAPS  C21819022   6.631   0.327   5.473 -0.1362 -0.2651 -0.3204
  168SAPS  H18R19023   6.643   0.228   5.523  1.2571 -0.3528 -0.7769
  168SAPS  H18S19024   6.728   0.380   5.487 -1.6587  2.3609  1.0844
  168SAPS  C21919025   6.598   0.287   5.325 -0.2416 -0.2193  0.4344
  168SAPS  H19R19026   6.510   0.219   5.323 -1.3774  1.0498  2.9544
  168SAPS  H19S19027   6.684   0.231   5.283 -0.9577 -1.4933  0.6184
  168SAPS  C22019028   6.570   0.408   5.233 -0.2740  0.2026  0.4691
  168SAPS  H20R19029   6.480   0.467   5.260 -0.1312 -0.1419  1.7693
  168SAPS  H20S19030   6.555   0.386   5.125 -1.4519  1.9708  0.2443
  168SAPS  H20T19031   6.654   0.480   5.221  1.3771 -1.8903 -1.5408
  168SAPS   C3319032   6.465  -0.350   6.694 -0.3113  0.2756 -0.2805
  168SAPS   H3X19033   6.570  -0.316   6.703  0.3231 -1.4398 -0.8435
  168SAPS   H3Y19034   6.412  -0.256   6.667  0.7568  1.4110  1.3836
  168SAPS   C3419035   6.453  -0.446   6.579  0.3886  0.2188  0.0136
  168SAPS   H4X19036   6.382  -0.527   6.607  1.8162 -0.6822  1.1496
  168SAPS   H4Y19037   6.547  -0.496   6.548  0.0950 -0.1034 -0.3576
  168SAPS   C3519038   6.394  -0.386   6.451 -0.1636  0.8408  0.5931
  168SAPS   H5X19039   6.458  -0.301   6.422  2.0482 -1.2458 -1.0749
  168SAPS   H5Y19040   6.287  -0.361   6.466 -0.4806 -0.8477  1.4989
  168SAPS   C3619041   6.387  -0.479   6.334 -0.3684 -0.5661  0.0344
  168SAPS   H6X19042   6.327  -0.570   6.355  0.5329 -0.7555  2.0465
  168SAPS   H6Y19043   6.495  -0.494   6.311  0.1677 -1.0438  2.5573
  168SAPS   C3719044   6.325  -0.401   6.218  0.7941 -0.1198  0.1631
  168SAPS   H7X19045   6.382  -0.307   6.200 -0.9513  0.6634 -1.5567
  168SAPS   H7Y19046   6.224  -0.377   6.256 -0.0984 -0.9185 -1.6038
  168SAPS   C3819047   6.315  -0.480   6.085 -0.3310  0.1766  0.0570
  168SAPS   H8X19048   6.233  -0.554   6.096  1.0522 -1.5360 -0.5872
  168SAPS   H8Y19049   6.408  -0.540   6.075 -0.5974 -0.1860 -0.2780
  168SAPS   C3919050   6.286  -0.398   5.959 -0.8329  0.2145 -1.1071
  168SAPS   H9X19051   6.237  -0.300   5.980  2.7578  2.0195 -0.3690
  168SAPS   H9Y19052   6.235  -0.470   5.891 -0.3565 -1.6419  0.4341
  168SAPS  C31019053   6.414  -0.345   5.889  0.0409 -0.5733 -0.6335
  168SAPS  H10X19054   6.478  -0.425   5.848  0.1395 -1.2902  0.8269
  168SAPS  H10Y19055   6.483  -0.295   5.961 -1.1319 -0.4959  0.4913
  168SAPS  C31119056   6.382  -0.253   5.775 -0.8034  0.2572  0.3604
  168SAPS  H11X19057   6.487  -0.251   5.737 -1.3194  0.5346 -1.0984
  168SAPS  H11Y19058   6.358  -0.147   5.800  1.1456  0.5815  1.0409
  168SAPS  C31219059   6.292  -0.321   5.674 -0.0253  0.0644  1.2765
  168SAPS  H12X19060   6.189  -0.303   5.712 -1.2725 -3.5375 -0.0313
  168SAPS  H12Y19061   6.309  -0.430   5.686 -0.0325 -0.0795  0.0574
  168SAPS  C31319062   6.296  -0.267   5.530  0.1539  0.0261  0.4374
  168SAPS  H13X19063   6.221  -0.320   5.468  1.6755 -1.5189 -0.1549
  168SAPS  H13Y19064   6.392  -0.285   5.478  1.3502 -1.8527  3.0848
  168SAPS  C31419065   6.262  -0.123   5.513 -0.2864 -0.1771 -0.4727
  168SAPS  H14X19066   6.330  -0.062   5.575  0.9586 -0.1500 -1.8164
  168SAPS  H14Y19067   6.159  -0.103   5.551 -0.1964  1.4263 -1.0101
  168SAPS  C31519068   6.268  -0.075   5.369 -0.7053  0.7903 -0.3322
  168SAPS  H15X19069   6.256   0.035   5.367 -0.4021  0.8895  1.6960
  168SAPS  H15Y19070   6.183  -0.107   5.304  0.4850  2.3350 -2.8174
  168SAPS  C31619071   6.390  -0.111   5.284  0.3715 -0.4035 -0.1401
  168SAPS  H16X19072   6.414  -0.218   5.271 -0.7691 -0.6635 -0.2607
  168SAPS  H16Y19073   6.476  -0.060   5.331 -0.6821  0.4365  0.9448
  168SAPS  C31719074   6.378  -0.050   5.140  0.3411  0.1897  0.3524
  168SAPS  H17X19075   6.335   0.051   5.147 -1.6109 -0.5509 -0.2853
  168SAPS  H17Y19076   6.293  -0.094   5.084  1.1514  0.1856 -0.9194
  168SAPS  C31819077   6.505  -0.049   5.057  0.0552  0.2765  0.6672
  168SAPS  H18X19078   6.552  -0.149   5.052 -0.3706  0.0784  0.6333
  168SAPS  H18Y19079   6.576   0.026   5.098  2.6171 -2.3939  1.4907
  168SAPS  H18Z19080   6.476  -0.020   4.954 -1.3309  2.7973  1.6903
  169SAPS     N19081   6.867   2.157   7.808 -1.0180  0.2837 -0.6133
  169SAPS   HN119082   6.838   2.087   7.737  1.5989 -0.4678 -1.0514
  169SAPS   HN219083   6.925   2.231   7.764  1.1418 -0.2811  1.0970
  169SAPS   HN319084   6.940   2.108   7.863  1.9816  3.2036 -1.6395
  169SAPS   C1219085   6.764   2.224   7.881 -0.5785  0.4994 -0.7578
  169SAPS  H12A19086   6.693   2.272   7.815 -0.3914  1.4330 -0.2882
  169SAPS   C1319087   6.690   2.141   7.990  0.0740 -0.1461  0.6327
  169SAPS  O13A19088   6.705   2.011   8.001  0.1823 -0.1126 -0.2507
  169SAPS  O13B19089   6.606   2.200   8.056  0.7875 -0.1388 -0.5253
  169SAPS   C1119090   6.830   2.347   7.947  0.5106 -0.0368 -0.1349
  169SAPS  H11A19091   6.892   2.318   8.035  0.0550 -1.6763 -0.3220
  169SAPS  H11B19092   6.753   2.411   7.996  0.8197  0.9607 -0.9221
  169SAPS     P19093   6.959   2.566   7.897  0.0131 -0.1127 -0.2122
  169SAPS   O1319094   6.850   2.649   7.949 -0.3933  0.3326 -0.2194
  169SAPS   O1419095   7.074   2.544   7.994  0.5293 -0.6926  0.6303
  169SAPS   O1219096   6.907   2.422   7.862  0.5478  0.4014 -0.3773
  169SAPS   O1119097   7.003   2.628   7.756  0.4384 -0.1097 -0.2330
  169SAPS    C119098   6.911   2.612   7.644  0.3658 -0.5147  0.1775
  169SAPS    HA19099   6.840   2.528   7.663 -1.1652  0.7293  0.2125
  169SAPS    HB19100   6.838   2.695   7.633  1.0799  0.2384  0.9198
  169SAPS    C219101   6.994   2.568   7.511  0.4617  0.7427 -0.5469
  169SAPS    HS19102   6.919   2.508   7.453  0.4167 -1.4770  1.6275
  169SAPS   O2119103   7.124   2.506   7.528 -0.0157  0.7326 -0.2674
  169SAPS   C2119104   7.102   2.393   7.602 -0.8177  0.8497  0.6605
  169SAPS   O2219105   6.997   2.337   7.625  0.3464  0.1111 -0.3129
  169SAPS   C2219106   7.224   2.334   7.636 -0.7107  0.4984 -0.6177
  169SAPS   H2R19107   7.307   2.370   7.570 -1.0410  0.5412 -1.0145
  169SAPS   H2S19108   7.252   2.362   7.740 -0.1266 -0.2246 -0.5644
  169SAPS    C319109   7.029   2.695   7.436 -0.3242 -1.1402 -0.2658
  169SAPS    HX19110   7.108   2.750   7.492 -1.0228  0.5934 -0.8933
  169SAPS    HY19111   6.943   2.765   7.433 -0.2688 -1.0907 -0.7961
  169SAPS   O3119112   7.067   2.668   7.299 -0.1885 -0.1455  0.0737
  169SAPS   C3119113   7.075   2.763   7.211 -0.3571 -0.5766  0.0200
  169SAPS   O3219114   7.058   2.882   7.232 -0.2265 -0.5658 -0.3490
  169SAPS   C3219115   7.099   2.695   7.073 -0.0372 -0.2620  0.0186
  169SAPS   H2X19116   7.000   2.692   7.023  0.3565  1.7941 -0.9917
  169SAPS   H2Y19117   7.149   2.596   7.079  2.4215  0.9420  0.5052
  169SAPS   C2319118   7.223   2.182   7.626 -0.3607 -0.6070  0.8082
  169SAPS   H3R19119   7.142   2.128   7.680 -0.7546  0.3264  1.1763
  169SAPS   H3S19120   7.319   2.148   7.670  0.6038  1.0701  0.0934
  169SAPS   C2419121   7.227   2.133   7.479 -0.5060  0.9113 -0.5114
  169SAPS   H4R19122   7.301   2.198   7.427  1.6816 -0.8289  0.2879
  169SAPS   H4S19123   7.133   2.147   7.421  0.5631 -0.2480 -2.6047
  169SAPS   C2519124   7.273   1.990   7.476 -0.3429  0.1651  0.5780
  169SAPS   H5R19125   7.245   1.932   7.565  0.6465  1.7830  2.0020
  169SAPS   C2619126   7.351   1.942   7.378 -0.7843  0.4756  0.2250
  169SAPS   H6R19127   7.390   1.841   7.399  3.6807  1.5458 -1.8853
  169SAPS   C2719128   7.391   2.015   7.249 -0.3356 -0.3145  0.4024
  169SAPS   H7R19129   7.469   2.089   7.274 -0.7113  0.1577  0.1879
  169SAPS   H7S19130   7.298   2.050   7.199  0.1680 -1.4887 -1.4636
  169SAPS   C2819131   7.469   1.927   7.156 -1.0136 -0.6457 -0.5548
  169SAPS   H8R19132   7.570   1.894   7.185 -0.2474  1.9251 -0.0756
  169SAPS   C2919133   7.433   1.898   7.033  0.5271  0.0374  0.2156
  169SAPS   H9R19134   7.501   1.840   6.969  0.9730 -0.3032  0.9795
  169SAPS  C21019135   7.309   1.934   6.957  0.3644 -0.3090 -0.2256
  169SAPS  H10R19136   7.338   2.016   6.889 -0.5854  1.0724  0.9682
  169SAPS  H10S19137   7.236   1.969   7.033  0.8988  0.7750 -0.2044
  169SAPS  C21119138   7.236   1.823   6.886  0.0269  0.0491  0.2038
  169SAPS  H11R19139   7.210   1.738   6.951  0.5846  0.2093  0.6377
  169SAPS  C21219140   7.205   1.817   6.757  0.3302 -0.0448 -0.0019
  169SAPS  H12R19141   7.170   1.719   6.721  0.7189 -0.5819  1.0519
  169SAPS  C21319142   7.220   1.920   6.650  0.8216  0.6559 -0.3465
  169SAPS  H13R19143   7.237   2.018   6.701 -1.7213  1.0201 -0.1022
  169SAPS  H13S19144   7.123   1.941   6.600  1.7940  1.7181 -1.8650
  169SAPS  C21419145   7.331   1.885   6.553 -0.1748 -0.2200 -0.0378
  169SAPS  H14R19146   7.384   1.790   6.572  0.8167  0.3478  0.0662
  169SAPS  C21519147   7.386   1.956   6.456 -0.2738  0.0586  0.8097
  169SAPS  H15R19148   7.473   1.919   6.400 -0.9687 -2.3104  1.1915
  169SAPS  C21619149   7.352   2.100   6.425 -0.0310 -0.0937 -0.1641
  169SAPS  H16R19150   7.440   2.167   6.433  0.2464 -0.7290  3.5048
  169SAPS  H16S19151   7.289   2.132   6.510  1.5475 -1.5727  1.6553
  169SAPS  C21719152   7.292   2.111   6.287 -0.0526 -0.7048  0.1652
  169SAPS  H17R19153   7.246   2.212   6.277  1.9220  0.1867 -0.5966
  169SAPS  H17S19154   7.220   2.031   6.260 -1.2797  0.9696 -1.8635
  169SAPS  C21819155   7.403   2.109   6.168 -0.0742  0.2926  0.7596
  169SAPS  H18R19156   7.476   2.025   6.171  1.7519  1.6426 -1.9555
  169SAPS  H18S19157   7.467   2.198   6.157 -0.1390  0.0302 -2.7134
  169SAPS  C21919158   7.327   2.081   6.032 -0.1989  0.3868  0.4954
  169SAPS  H19R19159   7.282   1.980   6.038 -0.1013  0.2896 -0.3676
  169SAPS  H19S19160   7.401   2.073   5.950  0.6563 -1.4194  1.3675
  169SAPS  C22019161   7.222   2.185   5.994  0.0967 -0.3825  0.2720
  169SAPS  H20R19162   7.135   2.175   6.063  0.9331 -0.8444  1.2966
  169SAPS  H20S19163   7.182   2.187   5.891  1.6746  3.2708 -0.4160
  169SAPS  H20T19164   7.268   2.285   6.002 -1.3128  0.3864 -0.8875
  169SAPS   C3319165   7.202   2.773   6.993  0.3754 -0.0268 -0.1315
  169SAPS   H3X19166   7.299   2.790   7.045  2.7253 -3.5414 -2.8620
  169SAPS   H3Y19167   7.148   2.869   6.974 -1.6023 -1.0972 -0.2243
  169SAPS   C3419168   7.234   2.731   6.848  0.2393  0.0845 -0.7074
  169SAPS   H4X19169   7.291   2.637   6.860 -0.6741 -0.6150 -1.6844
  169SAPS   H4Y19170   7.290   2.814   6.800 -0.5102  1.5009  0.7732
  169SAPS   C3519171   7.105   2.697   6.772  0.4218 -0.1864  0.6810
  169SAPS   H5X19172   7.022   2.767   6.794  0.2584  0.8248 -2.5961
  169SAPS   H5Y19173   7.054   2.605   6.806 -0.7592 -0.2721 -1.1957
  169SAPS   C3619174   7.145   2.690   6.622 -0.1195 -0.4034  0.1165
  169SAPS   H6X19175   7.240   2.634   6.611  0.5243  0.5467  0.6330
  169SAPS   H6Y19176   7.155   2.798   6.596 -0.1841 -0.9300 -2.3172
  169SAPS   C3719177   7.038   2.640   6.521 -0.0608  0.5626  0.8992
  169SAPS   H7X19178   6.941   2.693   6.530 -0.0053  0.8157  0.1281
  169SAPS   H7Y19179   7.023   2.531   6.535 -1.1671  0.2789 -1.8025
  169SAPS   C3819180   7.104   2.655   6.371 -0.4286  0.1608 -1.1042
  169SAPS   H8X19181   7.187   2.583   6.386  0.5880  1.7023  1.3645
  169SAPS   H8Y19182   7.139   2.760   6.381  0.2081 -0.2377  1.5639
  169SAPS   C3919183   7.008   2.618   6.261 -0.4448 -0.6121  0.3007
  169SAPS   H9X19184   6.938   2.699   6.229 -1.4758 -1.6702 -0.2062
  169SAPS   H9Y19185   6.935   2.539   6.289 -1.0501 -0.4823 -0.8224
  169SAPS  C31019186   7.084   2.548   6.143  0.2426  0.0587 -0.1917
  169SAPS  H10X19187   7.026   2.466   6.095  1.7905 -1.4213  0.3723
  169SAPS  H10Y19188   7.176   2.496   6.177 -0.6748 -2.1065 -0.8393
  169SAPS  C31119189   7.135   2.641   6.035 -1.0457 -0.0826 -0.9600
  169SAPS  H11X19190   7.212   2.714   6.069 -1.5136 -0.2991  0.6489
  169SAPS  H11Y19191   7.052   2.707   6.001  1.3159  2.9137 -1.3765
  169SAPS  C31219192   7.193   2.578   5.904 -0.1777 -0.3334  0.3808
  169SAPS  H12X19193   7.123   2.508   5.853 -0.5684  1.0340 -1.0471
  169SAPS  H12Y19194   7.279   2.511   5.927 -0.7140 -0.2359  2.9478
  169SAPS  C31319195   7.219   2.678   5.789  0.5379  0.0365  0.4078
  169SAPS  H13X19196   7.299   2.639   5.723  0.9255  1.2664  0.1310
  169SAPS  H13Y19197   7.259   2.774   5.829 -1.1235  0.4465  1.1764
  169SAPS  C31419198   7.098   2.715   5.699  0.2337  0.1396  0.1000
  169SAPS  H14X19199   7.121   2.805   5.638  5.2454 -2.2900 -2.1539
  169SAPS  H14Y19200   7.023   2.749   5.775 -0.1147  1.2134 -0.6949
  169SAPS  C31519201   7.040   2.607   5.602 -0.1094  0.1463 -1.3380
  169SAPS  H15X19202   7.011   2.529   5.675 -0.9222  1.3430 -0.3282
  169SAPS  H15Y19203   7.112   2.553   5.538  1.3990 -0.0330  0.4323
  169SAPS  C31619204   6.912   2.658   5.528 -0.0807 -0.7150 -0.6763
  169SAPS  H16X19205   6.866   2.726   5.603  1.2938  0.4212 -0.8317
  169SAPS  H16Y19206   6.841   2.575   5.506  0.3503 -0.7262 -2.1128
  169SAPS  C31719207   6.948   2.740   5.399 -0.2661  0.2972 -0.7918
  169SAPS  H17X19208   7.024   2.680   5.345  1.0163 -1.3925  2.5624
  169SAPS  H17Y19209   7.005   2.828   5.437 -0.1548  0.3301 -1.0346
  169SAPS  C31819210   6.834   2.782   5.314 -1.0188 -0.0571 -0.2170
  169SAPS  H18X19211   6.768   2.701   5.277  0.4577 -1.4726  0.1318
  169SAPS  H18Y19212   6.882   2.817   5.220 -0.2176  0.1250  0.2514
  169SAPS  H18Z19213   6.771   2.859   5.364 -0.7176 -0.1726  0.3472
  170SAPS     N19214   1.512   1.114   7.708  0.7814 -0.2512 -0.3202
  170SAPS   HN119215   1.458   1.188   7.659  0.7569  1.0520  1.5820
  170SAPS   HN219216   1.604   1.116   7.661  0.6647 -1.2337 -0.6165
  170SAPS   HN319217   1.456   1.026   7.707 -0.2437  0.3123  1.8791
  170SAPS   C1219218   1.523   1.142   7.861 -0.4203 -0.5948  0.2454
  170SAPS  H12A19219   1.600   1.076   7.897  1.2933  2.5134  2.7730
  170SAPS   C1319220   1.578   1.280   7.909  0.2370  0.1979 -0.6828
  170SAPS  O13A19221   1.590   1.370   7.822  0.1449  0.0027 -0.6668
  170SAPS  O13B19222   1.596   1.300   8.032  0.5187 -0.3663 -0.0070
  170SAPS   C1119223   1.390   1.114   7.919 -0.2758  0.0601 -0.2744
  170SAPS  H11A19224   1.312   1.162   7.857 -1.8155  0.4027  1.8060
  170SAPS  H11B19225   1.381   1.157   8.021 -0.7400 -2.4380  0.8189
  170SAPS     P19226   1.302   0.875   7.814 -0.2512  0.0055 -0.0070
  170SAPS   O1319227   1.409   0.858   7.710  0.3937 -0.0862  0.3942
  170SAPS   O1419228   1.239   0.756   7.869  0.1292  0.5600 -0.0571
  170SAPS   O1219229   1.371   0.969   7.929  0.0175 -0.1923 -0.4151
  170SAPS   O1119230   1.185   0.975   7.754 -0.0604  0.6452 -0.1800
  170SAPS    C119231   1.135   0.936   7.628 -0.1494 -0.7118  0.1297
  170SAPS    HA19232   1.151   0.831   7.595 -0.7929 -0.9217  0.4660
  170SAPS    HB19233   1.027   0.962   7.627  0.4666  2.3117  0.6217
  170SAPS    C219234   1.178   1.038   7.522 -1.3928 -0.4223  0.6733
  170SAPS    HS19235   1.124   1.024   7.426  0.5094 -1.6477 -0.2875
  170SAPS   O2119236   1.318   1.017   7.482 -0.0842 -0.0575  0.1101
  170SAPS   C2119237   1.337   0.903   7.403 -0.5850  0.0815 -0.6800
  170SAPS   O2219238   1.255   0.824   7.369  0.2899  0.3078 -0.0212
  170SAPS   C2219239   1.478   0.912   7.356  0.1195  0.8032 -0.5492
  170SAPS   H2R19240   1.488   0.999   7.287 -2.9843  1.0101 -0.8734
  170SAPS   H2S19241   1.551   0.911   7.440  0.2707  1.5460 -0.6648
  170SAPS    C319242   1.152   1.182   7.573  0.5299 -0.2698  0.5580
  170SAPS    HX19243   1.192   1.205   7.674 -0.3244  2.5551  0.3279
  170SAPS    HY19244   1.042   1.189   7.587  0.4576 -1.9720  1.0848
  170SAPS   O3119245   1.182   1.283   7.478 -0.6659  0.0396  0.4512
  170SAPS   C3119246   1.302   1.331   7.481  0.3963  0.1530 -0.2709
  170SAPS   O3219247   1.393   1.287   7.550 -0.2540  0.1593 -0.3024
  170SAPS   C3219248   1.305   1.450   7.389  0.2352 -0.2541 -0.5850
  170SAPS   H2X19249   1.270   1.538   7.447 -0.5947  0.4215 -2.0411
  170SAPS   H2Y19250   1.234   1.446   7.304  2.2497 -0.2031 -2.3574
  170SAPS   C2319251   1.512   0.789   7.278 -0.3718 -0.2210 -0.0402
  170SAPS   H3R19252   1.437   0.778   7.197  0.9881 -1.4005 -1.1841
  170SAPS   H3S19253   1.511   0.696   7.339  0.9242 -1.7445 -2.1908
  170SAPS   C2419254   1.654   0.802   7.208 -0.1666 -0.2723 -0.2108
  170SAPS   H4R19255   1.735   0.791   7.283 -1.2023 -4.1890  0.5749
  170SAPS   H4S19256   1.653   0.900   7.156 -1.5161  1.4706  2.7968
  170SAPS   C2519257   1.670   0.700   7.101 -0.6792 -0.1514  0.4940
  170SAPS   H5R19258   1.682   0.598   7.143  0.8281 -0.4992 -0.6755
  170SAPS   C2619259   1.652   0.706   6.966  0.0462 -0.9764  0.6852
  170SAPS   H6R19260   1.641   0.613   6.909 -0.9790 -0.0395 -0.7105
  170SAPS   C2719261   1.611   0.833   6.892 -0.5213  0.5200 -0.6125
  170SAPS   H7R19262   1.699   0.869   6.835  2.3795  0.6977  3.4915
  170SAPS   H7S19263   1.580   0.912   6.964  0.9735  0.9970 -0.4616
  170SAPS   C2819264   1.493   0.820   6.796 -0.0816  0.6578 -0.7751
  170SAPS   H8R19265   1.398   0.856   6.837 -1.0837 -1.1655 -1.3664
  170SAPS   C2919266   1.502   0.754   6.673 -0.3219 -0.4184 -0.1921
  170SAPS   H9R19267   1.418   0.744   6.604  0.6197 -0.0304 -1.4424
  170SAPS  C21019268   1.636   0.706   6.610  0.4573  0.1694 -0.0726
  170SAPS  H10R19269   1.602   0.611   6.564 -2.7080 -0.2252  2.7022
  170SAPS  H10S19270   1.719   0.693   6.682  3.1073  1.2489 -2.7043
  170SAPS  C21119271   1.693   0.809   6.515  0.4170 -0.4072 -0.1011
  170SAPS  H11R19272   1.715   0.911   6.548 -0.0904 -1.1645  2.8404
  170SAPS  C21219273   1.711   0.777   6.383  0.0243 -0.0603 -0.0317
  170SAPS  H12R19274   1.714   0.860   6.311 -1.5221 -0.3299 -0.4531
  170SAPS  C21319275   1.697   0.647   6.301  0.4530  0.2235  0.6569
  170SAPS  H13R19276   1.591   0.623   6.275  1.1448 -2.0099 -0.3477
  170SAPS  H13S19277   1.717   0.561   6.368 -1.5844 -0.2840  0.6788
  170SAPS  C21419278   1.779   0.639   6.171 -0.2082  0.3445  0.4780
  170SAPS  H14R19279   1.887   0.621   6.181 -0.1216 -0.0474 -0.9697
  170SAPS  C21519280   1.744   0.656   6.044  0.0007 -0.0002  0.4967
  170SAPS  H15R19281   1.822   0.641   5.967 -0.7906  0.3898 -0.4040
  170SAPS  C21619282   1.605   0.684   5.982 -0.1297  0.1940 -0.0021
  170SAPS  H16R19283   1.529   0.672   6.062 -0.2521 -1.4791 -0.3245
  170SAPS  H16S19284   1.574   0.610   5.905 -1.3954  1.1014 -0.3855
  170SAPS  C21719285   1.578   0.813   5.900  0.3381  0.1500  0.8356
  170SAPS  H17R19286   1.487   0.802   5.837  0.7809 -0.9917  0.3685
  170SAPS  H17S19287   1.663   0.822   5.830  0.1969 -1.7079  0.3669
  170SAPS  C21819288   1.566   0.933   5.995  0.2253 -0.0697  0.4153
  170SAPS  H18R19289   1.604   1.028   5.951  1.1796  0.4837  2.3201
  170SAPS  H18S19290   1.649   0.915   6.067  0.5849  0.4587  0.1415
  170SAPS  C21919291   1.427   0.940   6.071 -1.0468  0.5633  0.6868
  170SAPS  H19R19292   1.414   0.837   6.109 -1.7130  0.2377 -0.4027
  170SAPS  H19S19293   1.343   0.962   6.002  0.0497 -0.0587 -0.9081
  170SAPS  C22019294   1.421   1.060   6.174  0.0607 -0.2274  0.3920
  170SAPS  H20R19295   1.329   1.060   6.236 -1.5437 -1.1884 -1.8371
  170SAPS  H20S19296   1.412   1.152   6.113 -0.2529  0.3391  1.2801
  170SAPS  H20T19297   1.512   1.060   6.237  0.8988  0.3689 -0.7848
  170SAPS   C3319298   1.442   1.486   7.334 -0.2578  0.2946 -0.1358
  170SAPS   H3X19299   1.516   1.479   7.417  1.4886 -1.1041 -1.7430
  170SAPS   H3Y19300   1.439   1.593   7.305  1.4747  0.2042 -0.7328
  170SAPS   C3419301   1.485   1.388   7.226 -0.1699  1.2204 -0.4690
  170SAPS   H4X19302   1.470   1.285   7.267  0.5768  2.0271  2.0137
  170SAPS   H4Y19303   1.593   1.403   7.209  0.1722  0.5383  0.9531
  170SAPS   C3519304   1.419   1.400   7.088  0.6815 -0.1968 -0.4980
  170SAPS   H5X19305   1.429   1.499   7.039  0.8152 -0.2664 -0.6113
  170SAPS   H5Y19306   1.314   1.374   7.112  0.5096 -0.2415 -1.3037
  170SAPS   C3619307   1.478   1.294   6.999  0.2568 -0.3342 -0.2685
  170SAPS   H6X19308   1.466   1.189   7.033  1.2267 -0.1233  0.7547
  170SAPS   H6Y19309   1.587   1.313   6.992  0.1654  0.4730  0.3918
  170SAPS   C3719310   1.388   1.299   6.867 -0.1579 -0.5194  0.1960
  170SAPS   H7X19311   1.409   1.396   6.817 -0.3459  0.0545  1.1980
  170SAPS   H7Y19312   1.279   1.301   6.892 -0.1982  1.8178  0.0249
  170SAPS   C3819313   1.418   1.177   6.771  0.2204 -0.7660 -0.1026
  170SAPS   H8X19314   1.398   1.082   6.824  1.7554  0.1257  2.2314
  170SAPS   H8Y19315   1.522   1.160   6.735  0.2949 -0.7998  0.1275
  170SAPS   C3919316   1.320   1.188   6.650 -0.2787 -0.3444 -0.1106
  170SAPS   H9X19317   1.369   1.262   6.583 -0.4732  0.9001  1.0747
  170SAPS   H9Y19318   1.223   1.232   6.680  0.3697  2.2610 -1.5607
  170SAPS  C31019319   1.283   1.051   6.582 -0.0925  0.4702 -0.3491
  170SAPS  H10X19320   1.242   0.976   6.652 -0.9091  1.2407  0.0141
  170SAPS  H10Y19321   1.380   1.014   6.542  0.6111  2.1394 -0.2893
  170SAPS  C31119322   1.185   1.062   6.469  0.4131 -0.7580  0.0343
  170SAPS  H11X19323   1.227   1.130   6.392 -0.9529 -1.5506 -1.4858
  170SAPS  H11Y19324   1.094   1.111   6.509  0.7564  0.3862 -0.5661
  170SAPS  C31219325   1.137   0.933   6.407 -0.0843  0.0269 -0.6694
  170SAPS  H12X19326   1.091   0.864   6.481  0.5333 -1.0295 -1.2406
  170SAPS  H12Y19327   1.219   0.872   6.362  1.9182  0.7516  1.7903
  170SAPS  C31319328   1.034   0.944   6.292  0.0684  0.0543  0.1165
  170SAPS  H13X19329   1.094   0.996   6.214  1.1457 -2.8639 -1.1368
  170SAPS  H13Y19330   0.940   0.996   6.320 -0.3879  0.3172 -1.7591
  170SAPS  C31419331   1.004   0.817   6.204 -0.1981 -0.1853 -0.8038
  170SAPS  H14X19332   0.909   0.835   6.150 -0.7908 -1.0462 -0.0995
  170SAPS  H14Y19333   0.989   0.730   6.272  2.1089  0.4546  0.6204
  170SAPS  C31519334   1.122   0.768   6.108 -0.0960  0.7374 -0.2251
  170SAPS  H15X19335   1.221   0.785   6.156 -0.4088  0.5354  0.5176
  170SAPS  H15Y19336   1.117   0.833   6.018 -3.5811  0.7845 -0.1486
  170SAPS  C31619337   1.123   0.615   6.076 -0.1767 -0.2052  0.9465
  170SAPS  H16X19338   1.025   0.595   6.028 -0.2328  1.0245  0.5061
  170SAPS  H16Y19339   1.117   0.550   6.166 -0.8028  0.1194  1.1428
  170SAPS  C31719340   1.251   0.555   6.001  0.1062  0.3609 -0.1273
  170SAPS  H17X19341   1.332   0.558   6.077  0.2841 -3.0883 -0.0000
  170SAPS  H17Y19342   1.287   0.624   5.922 -0.1486 -0.5468 -1.0684
  170SAPS  C31819343   1.238   0.414   5.942 -0.1643 -0.3306 -0.1523
  170SAPS  H18X19344   1.318   0.401   5.866  1.7593  0.3816  1.6294
  170SAPS  H18Y19345   1.142   0.406   5.888 -0.9864 -0.8428  1.3073
  170SAPS  H18Z19346   1.250   0.336   6.020 -0.2777 -0.7583 -0.5651
  171SAPS     N19347   2.070   1.263   7.774 -0.0489  0.5379 -0.2374
  171SAPS   HN119348   2.054   1.322   7.858  0.8248  0.9180 -0.3277
  171SAPS   HN219349   2.136   1.314   7.713 -1.0205 -0.9274 -2.6758
  171SAPS   HN319350   1.978   1.252   7.725  0.8725 -1.5888 -1.6726
  171SAPS   C1219351   2.135   1.130   7.785  0.4060 -0.1561 -1.0679
  171SAPS  H12A19352   2.238   1.150   7.813  1.2294 -2.4948 -2.1838
  171SAPS   C1319353   2.081   1.032   7.893  0.2678 -0.7292  0.4989
  171SAPS  O13A19354   1.996   1.074   7.976 -0.1758  0.2187  0.0126
  171SAPS  O13B19355   2.143   0.928   7.909 -0.5026 -0.0622 -0.3857
  171SAPS   C1119356   2.156   1.062   7.659  0.4103 -0.0921  0.1289
  171SAPS  H11A19357   2.056   1.042   7.616  0.6364  0.5724 -0.7448
  171SAPS  H11B19358   2.205   0.962   7.668 -0.6476 -0.4866  1.8728
  171SAPS     P19359   2.251   1.128   7.423 -0.1778 -0.0639  0.0047
  171SAPS   O1319360   2.292   1.250   7.357  0.3919 -0.4772 -0.2895
  171SAPS   O1419361   2.335   1.008   7.420  0.3119 -0.1972 -0.0587
  171SAPS   O1219362   2.229   1.163   7.576  0.6563 -0.2745  0.1301
  171SAPS   O1119363   2.106   1.088   7.376  0.1055 -0.6764  0.2110
  171SAPS    C119364   2.069   0.958   7.342 -0.1613 -0.6074 -0.1752
  171SAPS    HA19365   2.129   0.888   7.404  0.3541 -0.7821 -0.8516
  171SAPS    HB19366   1.962   0.939   7.366 -1.2093  1.7705 -2.4630
  171SAPS    C219367   2.092   0.937   7.192  0.0738 -0.1735 -0.0053
  171SAPS    HS19368   2.201   0.937   7.169 -0.0732 -0.2565 -0.7293
  171SAPS   O2119369   2.018   1.038   7.116  0.2094 -0.0050 -0.4088
  171SAPS   C2119370   2.085   1.106   7.021 -0.1740 -0.2577  0.2754
  171SAPS   O2219371   2.205   1.089   6.992 -0.1506 -0.2957  0.2376
  171SAPS   C2219372   1.991   1.186   6.943 -0.1980  0.0660 -0.1279
  171SAPS   H2R19373   1.905   1.118   6.926 -0.2122 -0.3831  1.5528
  171SAPS   H2S19374   1.955   1.271   7.004  0.1932  1.3532 -1.6228
  171SAPS    C319375   2.047   0.790   7.153  0.2544  0.7337 -0.4477
  171SAPS    HX19376   1.941   0.766   7.173  0.9435 -0.7849  1.6074
  171SAPS    HY19377   2.101   0.734   7.232 -2.1797 -0.3445  0.5322
  171SAPS   O3119378   2.085   0.747   7.020 -0.1091 -0.3630  0.0470
  171SAPS   C3119379   2.215   0.729   6.989  0.0687 -0.0850  0.6772
  171SAPS   O3219380   2.308   0.744   7.066  0.1010  0.5329  0.3766
  171SAPS   C3219381   2.239   0.684   6.849  0.2975  0.2954 -0.2609
  171SAPS   H2X19382   2.298   0.590   6.864  1.7131  0.8430 -1.9857
  171SAPS   H2Y19383   2.301   0.759   6.796  1.5353 -1.0069 -0.7509
  171SAPS   C2319384   2.057   1.225   6.805  0.0543  0.6797  0.2549
  171SAPS   H3R19385   2.083   1.134   6.747 -0.8551  0.7339 -0.2562
  171SAPS   H3S19386   2.152   1.282   6.813  2.1005 -2.3481 -0.7409
  171SAPS   C2419387   1.970   1.313   6.729  0.0368 -0.1800 -0.1518
  171SAPS   H4R19388   2.040   1.362   6.658 -0.0547  2.2280  1.2842
  171SAPS   H4S19389   1.945   1.403   6.790  2.1028  0.6102 -0.3940
  171SAPS   C2519390   1.851   1.258   6.668 -0.0719  0.2618  0.8414
  171SAPS   H5R19391   1.760   1.268   6.728  1.9595 -0.6506  4.3525
  171SAPS   C2619392   1.842   1.209   6.544  0.3579 -0.2358 -0.1819
  171SAPS   H6R19393   1.739   1.187   6.511 -0.2379  0.5257  1.0994
  171SAPS   C2719394   1.959   1.185   6.452  0.6903 -0.2599  0.1922
  171SAPS   H7R19395   2.054   1.229   6.488  1.1441 -2.7207  2.3111
  171SAPS   H7S19396   1.949   1.235   6.353  1.4145  3.4525  1.8240
  171SAPS   C2819397   1.999   1.036   6.435 -1.0427 -0.2836 -0.0451
  171SAPS   H8R19398   1.999   0.984   6.531 -0.7687  0.0459  0.1371
  171SAPS   C2919399   2.047   0.972   6.324 -0.4581 -0.9346  0.3236
  171SAPS   H9R19400   2.061   0.863   6.333  3.2944 -0.4596  1.9606
  171SAPS  C21019401   2.078   1.035   6.188  0.6192  0.0743  1.0188
  171SAPS  H10R19402   2.181   1.011   6.155  0.1097  0.8967 -1.3297
  171SAPS  H10S19403   2.070   1.145   6.179  0.0618 -0.1108 -1.4609
  171SAPS  C21119404   1.975   0.990   6.078  0.4598 -0.7284 -0.0337
  171SAPS  H11R19405   1.872   0.995   6.117  0.4880  2.3366 -0.0807
  171SAPS  C21219406   1.989   0.957   5.948 -0.4221 -0.3111  0.2439
  171SAPS  H12R19407   1.898   0.912   5.904 -0.8120  0.9187 -0.2429
  171SAPS  C21319408   2.117   0.924   5.877  0.1692  0.0335  0.7151
  171SAPS  H13R19409   2.111   0.814   5.869 -2.0787  0.0494  1.3726
  171SAPS  H13S19410   2.202   0.960   5.939  0.1095 -0.8093  1.3069
  171SAPS  C21419411   2.130   0.985   5.743 -0.2642 -0.4176 -0.3165
  171SAPS  H14R19412   2.193   1.075   5.744 -1.7387  0.6644  0.1798
  171SAPS  C21519413   2.069   0.956   5.626 -0.0952  0.0855 -0.2320
  171SAPS  H15R19414   2.103   1.012   5.538  1.0780  1.6873  1.1465
  171SAPS  C21619415   1.959   0.850   5.601  0.1360 -0.8770  0.2208
  171SAPS  H16R19416   1.919   0.804   5.694 -1.6770  0.3993  0.1242
  171SAPS  H16S19417   1.998   0.768   5.536  1.1564 -1.0426  1.0144
  171SAPS  C21719418   1.838   0.915   5.533  0.4338 -0.2666 -0.5031
  171SAPS  H17R19419   1.854   0.977   5.442  0.0678  2.2438  1.0389
  171SAPS  H17S19420   1.799   0.996   5.599  2.4128  0.9937 -0.7798
  171SAPS  C21819421   1.725   0.812   5.494 -0.0068  0.8409 -0.3320
  171SAPS  H18R19422   1.712   0.737   5.575  1.7670  0.9404  0.0929
  171SAPS  H18S19423   1.771   0.759   5.408  0.4663 -2.3199  1.6768
  171SAPS  C21919424   1.586   0.871   5.475  0.6483  0.9343  0.0669
  171SAPS  H19R19425   1.600   0.940   5.389  1.6140  0.7417  0.0612
  171SAPS  H19S19426   1.555   0.924   5.567  0.9096 -1.3994  1.5811
  171SAPS  C22019427   1.488   0.758   5.441  0.0166 -0.5072  0.4555
  171SAPS  H20R19428   1.385   0.801   5.435 -0.4261 -1.6732 -1.2021
  171SAPS  H20S19429   1.485   0.676   5.515 -1.7131 -0.2789  0.6883
  171SAPS  H20T19430   1.517   0.718   5.341 -0.7621 -1.1017  0.4559
  171SAPS   C3319431   2.113   0.667   6.759  0.2471  0.1603 -0.6390
  171SAPS   H3X19432   2.038   0.749   6.770 -2.0054 -1.8687  0.1416
  171SAPS   H3Y19433   2.059   0.576   6.793 -0.3492  0.7098 -0.0750
  171SAPS   C3419434   2.146   0.667   6.614 -0.2200  1.0097  0.3627
  171SAPS   H4X19435   2.255   0.646   6.609 -0.2262  0.7073  1.2555
  171SAPS   H4Y19436   2.133   0.770   6.573  1.3933  1.6775  1.4487
  171SAPS   C3519437   2.077   0.563   6.531 -0.8032 -0.8554 -0.1957
  171SAPS   H5X19438   1.968   0.580   6.523 -0.4447  2.6332  0.6813
  171SAPS   H5Y19439   2.106   0.467   6.577  0.8695  0.0552  0.7828
  171SAPS   C3619440   2.151   0.556   6.394  0.4722 -0.4613 -0.2843
  171SAPS   H6X19441   2.258   0.535   6.416  0.7882 -0.3568 -1.5925
  171SAPS   H6Y19442   2.147   0.651   6.336  3.6408  0.4043  0.7146
  171SAPS   C3719443   2.093   0.444   6.308  0.6436  0.6418  0.6057
  171SAPS   H7X19444   1.983   0.460   6.304  1.0362  3.6704 -0.8326
  171SAPS   H7Y19445   2.130   0.356   6.365  0.3237 -0.6294 -1.0605
  171SAPS   C3819446   2.144   0.445   6.165  0.2433  0.2959  0.1984
  171SAPS   H8X19447   2.254   0.443   6.178  0.1655  1.6573  1.3916
  171SAPS   H8Y19448   2.108   0.540   6.120 -1.9793 -0.3119  0.5482
  171SAPS   C3919449   2.091   0.329   6.069 -0.3442 -0.3098 -0.1908
  171SAPS   H9X19450   2.073   0.369   5.967 -0.2292  0.2015 -0.0173
  171SAPS   H9Y19451   1.991   0.299   6.106 -0.2684 -1.2381 -0.7240
  171SAPS  C31019452   2.180   0.206   6.076 -0.6711 -0.7158  0.1526
  171SAPS  H10X19453   2.212   0.181   6.180  0.1460  0.2907  0.1682
  171SAPS  H10Y19454   2.272   0.218   6.015 -0.2306  0.6006  1.0251
  171SAPS  C31119455   2.097   0.083   6.029 -0.8313 -0.1008 -0.4488
  171SAPS  H11X19456   2.005   0.052   6.083  1.1254 -1.1535  2.6151
  171SAPS  H11Y19457   2.163  -0.006   6.036 -0.1709  0.3340 -1.0642
  171SAPS  C31219458   2.075   0.081   5.878  0.4345  0.2823  0.9435
  171SAPS  H12X19459   2.175   0.085   5.830  0.9723  3.1793  2.0733
  171SAPS  H12Y19460   2.023   0.174   5.845  0.4093  0.1898  0.7234
  171SAPS  C31319461   1.979  -0.029   5.830  0.3726 -0.1391  0.0348
  171SAPS  H13X19462   1.876   0.001   5.858  0.4059  0.9556 -0.9112
  171SAPS  H13Y19463   1.995  -0.122   5.887  0.4164  0.4356  0.9742
  171SAPS  C31419464   1.978  -0.066   5.681  0.0117 -0.1990  0.2932
  171SAPS  H14X19465   2.000   0.024   5.620  0.7611  0.2484  1.1963
  171SAPS  H14Y19466   1.880  -0.108   5.649 -0.6558  0.0434  1.9259
  171SAPS  C31519467   2.073  -0.184   5.647 -0.1808 -1.1404 -0.0971
  171SAPS  H15X19468   2.079  -0.193   5.537  0.8599 -0.2603 -0.1220
  171SAPS  H15Y19469   2.042  -0.281   5.692  0.4991 -1.4269 -0.2263
  171SAPS  C31619470   2.216  -0.165   5.689 -0.0040 -0.0973  0.4384
  171SAPS  H16X19471   2.213  -0.151   5.799  0.0462 -0.2375  0.4586
  171SAPS  H16Y19472   2.253  -0.073   5.640  0.9259 -0.7672 -0.1496
  171SAPS  C31719473   2.314  -0.292   5.660  0.5463 -0.3506  0.4740
  171SAPS  H17X19474   2.331  -0.327   5.556  2.3281 -1.2640  1.0403
  171SAPS  H17Y19475   2.273  -0.384   5.706 -0.0007 -0.7222 -0.7092
  171SAPS  C31819476   2.454  -0.265   5.727  0.1845 -0.5721  0.2989
  171SAPS  H18X19477   2.526  -0.348   5.709 -2.2694 -2.3566 -2.3678
  171SAPS  H18Y19478   2.440  -0.237   5.833  0.5805  1.7234 -0.1991
  171SAPS  H18Z19479   2.479  -0.169   5.676 -1.6056 -0.2996 -0.1490
  172SAPS     N19480   2.389   3.027   7.685 -0.0662 -0.4757 -0.2410
  172SAPS   HN119481   2.469   3.076   7.640 -0.0512  0.5550  0.8379
  172SAPS   HN219482   2.299   3.059   7.645 -0.6941 -1.9130 -0.0356
  172SAPS   HN319483   2.391   3.046   7.787  2.4326 -1.5081 -0.0306
  172SAPS   C1219484   2.395   2.881   7.658  0.3834  0.5387 -0.3160
  172SAPS  H12A19485   2.491   2.841   7.689  1.4054  1.3421 -2.2382
  172SAPS   C1319486   2.280   2.787   7.711 -0.1814  0.1586  0.5918
  172SAPS  O13A19487   2.174   2.834   7.762  0.3401  0.8159 -0.2396
  172SAPS  O13B19488   2.297   2.667   7.678  0.0183 -0.1967  0.0882
  172SAPS   C1119489   2.398   2.859   7.504 -0.4755 -0.4483 -0.0026
  172SAPS  H11A19490   2.303   2.898   7.462 -1.4850 -0.8356  1.8464
  172SAPS  H11B19491   2.408   2.749   7.491  0.1702 -0.4051  0.0694
  172SAPS     P19492   2.506   2.907   7.274 -0.1347  0.1875  0.1636
  172SAPS   O1319493   2.466   3.038   7.210  0.0359 -0.1920 -0.0444
  172SAPS   O1419494   2.646   2.863   7.244  0.5091 -0.0481 -0.5070
  172SAPS   O1219495   2.505   2.924   7.431  0.2756  0.4518 -0.5284
  172SAPS   O1119496   2.404   2.796   7.247  0.2704 -0.0288 -0.1210
  172SAPS    C119497   2.304   2.803   7.147  0.3444 -0.0561 -0.0829
  172SAPS    HA19498   2.210   2.768   7.196 -0.0336  0.7563 -0.2139
  172SAPS    HB19499   2.277   2.905   7.112 -1.9513 -0.5008  0.2051
  172SAPS    C219500   2.338   2.709   7.027 -0.3217 -0.3086  0.4600
  172SAPS    HS19501   2.264   2.751   6.956  0.1069 -0.8981 -0.3466
  172SAPS   O2119502   2.319   2.563   7.042 -0.4184 -0.3537  0.2607
  172SAPS   C2119503   2.196   2.531   7.069 -0.3580 -0.4009  0.3408
  172SAPS   O2219504   2.107   2.615   7.080  0.1132  0.3530 -0.1280
  172SAPS   C2219505   2.172   2.380   7.084 -0.3151  0.5863  0.4538
  172SAPS   H2R19506   2.265   2.322   7.068 -0.5407  0.5699 -0.8447
  172SAPS   H2S19507   2.143   2.379   7.192  2.3116  1.3194  1.2532
  172SAPS    C319508   2.473   2.739   6.963 -0.2811 -0.6721  0.2910
  172SAPS    HX19509   2.551   2.684   7.021  1.0765  0.6636 -0.2208
  172SAPS    HY19510   2.501   2.844   6.942  0.0997 -1.0338 -1.0803
  172SAPS   O3119511   2.460   2.679   6.830 -0.0476  0.1029  0.2491
  172SAPS   C3119512   2.547   2.587   6.789  0.4795 -0.3322 -0.3395
  172SAPS   O3219513   2.640   2.542   6.853  0.5215 -0.7217 -0.0300
  172SAPS   C3219514   2.526   2.568   6.641 -0.7248  0.3176 -0.4356
  172SAPS   H2X19515   2.629   2.539   6.610 -0.2204  1.0284  0.5324
  172SAPS   H2Y19516   2.505   2.667   6.597 -2.5109  0.6373  1.0353
  172SAPS   C2319517   2.054   2.321   6.999 -0.4255  0.1281  0.4113
  172SAPS   H3R19518   1.965   2.386   7.011 -0.6799 -0.3864  1.3548
  172SAPS   H3S19519   2.026   2.216   7.020 -0.5018  0.3420  1.4470
  172SAPS   C2419520   2.090   2.332   6.850 -0.3313 -0.4294 -0.1715
  172SAPS   H4R19521   2.132   2.431   6.823  0.5292 -1.3946 -2.5866
  172SAPS   H4S19522   2.000   2.310   6.788  0.6224 -3.6510 -0.5801
  172SAPS   C2519523   2.187   2.229   6.809  0.3511  0.3958 -0.6013
  172SAPS   H5R19524   2.290   2.258   6.835  0.8815 -1.9020  0.1301
  172SAPS   C2619525   2.177   2.147   6.697  0.2522 -0.6314 -0.2145
  172SAPS   H6R19526   2.264   2.087   6.667  1.8566  0.2096  2.3863
  172SAPS   C2719527   2.060   2.119   6.608 -0.3090 -0.6212  0.0227
  172SAPS   H7R19528   1.964   2.133   6.662 -0.6746  0.8254 -0.9273
  172SAPS   H7S19529   2.054   2.010   6.587 -0.2279 -0.6765  0.2945
  172SAPS   C2819530   2.062   2.190   6.478  0.1632 -0.0373  0.2201
  172SAPS   H8R19531   2.037   2.297   6.476 -2.2617 -0.5492 -1.9694
  172SAPS   C2919532   2.085   2.140   6.357  0.1783 -0.1086 -0.0157
  172SAPS   H9R19533   2.091   2.198   6.264  1.5897  0.4000  0.3724
  172SAPS  C21019534   2.113   1.994   6.344 -0.4048  0.1075  0.2805
  172SAPS  H10R19535   2.017   1.937   6.344 -1.5448  1.8172 -2.5060
  172SAPS  H10S19536   2.168   1.954   6.432 -2.9190  0.9568  2.3657
  172SAPS  C21119537   2.197   1.958   6.228  0.4351  0.1787 -0.7675
  172SAPS  H11R19538   2.306   1.950   6.233  0.4096  0.0370 -0.4259
  172SAPS  C21219539   2.156   1.909   6.110  0.8332 -0.4112  0.0417
  172SAPS  H12R19540   2.233   1.893   6.034  0.7812 -0.1939 -0.0571
  172SAPS  C21319541   2.011   1.878   6.070  0.4621  0.4213 -0.6267
  172SAPS  H13R19542   1.960   1.804   6.136  1.0164 -0.4610 -1.1625
  172SAPS  H13S19543   2.018   1.828   5.972 -0.1419 -0.6314 -0.1514
  172SAPS  C21419544   1.922   1.994   6.047 -0.1914  0.0371  0.3447
  172SAPS  H14R19545   1.957   2.092   6.083  3.0333 -0.7000 -0.4564
  172SAPS  C21519546   1.797   1.980   6.013  0.1274  0.1764 -0.2321
  172SAPS  H15R19547   1.730   2.066   6.002  0.3437  0.6014  1.5100
  172SAPS  C21619548   1.728   1.844   5.990 -0.3182 -0.4378 -0.0475
  172SAPS  H16R19549   1.699   1.800   6.087 -0.7278  1.1703  0.5998
  172SAPS  H16S19550   1.799   1.770   5.946  0.8193 -0.2299  1.3765
  172SAPS  C21719551   1.602   1.845   5.905 -0.1895 -0.1855  0.3980
  172SAPS  H17R19552   1.530   1.926   5.928  0.8423  0.5039  1.2960
  172SAPS  H17S19553   1.559   1.747   5.936  0.3539 -0.0602  1.6481
  172SAPS  C21819554   1.633   1.851   5.757 -0.6264  0.2182 -0.7710
  172SAPS  H18R19555   1.725   1.791   5.741  1.6381  2.9359  1.0936
  172SAPS  H18S19556   1.658   1.953   5.723 -1.6082  0.9444  0.5907
  172SAPS  C21919557   1.524   1.790   5.668  0.1072  0.4919  0.1761
  172SAPS  H19R19558   1.443   1.865   5.662 -0.8538 -0.5428  0.0364
  172SAPS  H19S19559   1.483   1.702   5.721 -0.1296  0.5746  0.1314
  172SAPS  C22019560   1.573   1.757   5.531 -0.0070  0.4131 -0.4507
  172SAPS  H20R19561   1.644   1.835   5.494  0.9283  0.8036  2.0159
  172SAPS  H20S19562   1.500   1.738   5.449  0.2932  1.1299 -0.8940
  172SAPS  H20T19563   1.629   1.663   5.548 -0.7097 -0.0076 -0.4035
  172SAPS   C3319564   2.414   2.458   6.610 -0.1077 -0.7655  0.2729
  172SAPS   H3X19565   2.314   2.506   6.614 -0.1830 -0.9812  1.4265
  172SAPS   H3Y19566   2.418   2.381   6.690 -2.1820 -1.0693  0.1482
  172SAPS   C3419567   2.432   2.392   6.472  0.4273  0.1428  0.2886
  172SAPS   H4X19568   2.415   2.284   6.488  0.7338 -0.0513 -0.6772
  172SAPS   H4Y19569   2.538   2.407   6.442  0.1145  4.9072  0.8020
  172SAPS   C3519570   2.352   2.446   6.350  0.3149  0.1085  0.3664
  172SAPS   H5X19571   2.383   2.543   6.307  0.9340 -0.8698 -1.4967
  172SAPS   H5Y19572   2.244   2.456   6.374  0.0099  1.0245 -1.2708
  172SAPS   C3619573   2.357   2.343   6.235  0.2254 -0.3612 -0.1796
  172SAPS   H6X19574   2.304   2.251   6.268  1.1365 -1.1250 -0.7973
  172SAPS   H6Y19575   2.461   2.310   6.217 -0.1868 -1.4622 -0.6282
  172SAPS   C3719576   2.301   2.383   6.096  0.4485  0.1749  0.3378
  172SAPS   H7X19577   2.378   2.431   6.032 -0.6529 -0.0075 -1.1797
  172SAPS   H7Y19578   2.219   2.457   6.094 -0.2696 -0.5870 -1.9642
  172SAPS   C3819579   2.259   2.252   6.018 -0.6457  0.0609 -1.0751
  172SAPS   H8X19580   2.159   2.229   6.061  0.1101 -0.2566  0.6185
  172SAPS   H8Y19581   2.326   2.171   6.054  0.4326  1.1026 -0.6953
  172SAPS   C3919582   2.255   2.262   5.871  0.4917  0.2614 -0.5805
  172SAPS   H9X19583   2.358   2.278   5.834  0.4665  0.4756 -0.5589
  172SAPS   H9Y19584   2.193   2.352   5.849 -0.7782  0.0514  1.7809
  172SAPS  C31019585   2.194   2.134   5.808 -0.1485 -0.1233 -0.7996
  172SAPS  H10X19586   2.093   2.114   5.849 -0.4951 -1.4293 -2.1922
  172SAPS  H10Y19587   2.257   2.053   5.850 -0.3216 -1.3129 -2.7093
  172SAPS  C31119588   2.179   2.131   5.658  0.0227 -0.5726  0.5840
  172SAPS  H11X19589   2.274   2.170   5.615 -0.9869  0.8064 -0.4870
  172SAPS  H11Y19590   2.095   2.200   5.634  1.5261  0.7613 -1.2013
  172SAPS  C31219591   2.158   1.992   5.608  0.2666  0.3514  0.1522
  172SAPS  H12X19592   2.254   1.938   5.623  0.5368  0.8471  0.2601
  172SAPS  H12Y19593   2.130   1.986   5.501 -2.7108  1.2840  0.7854
  172SAPS  C31319594   2.042   1.917   5.672 -0.1850  0.3948  0.0471
  172SAPS  H13X19595   1.946   1.971   5.656 -0.6819 -0.9070 -1.6699
  172SAPS  H13Y19596   2.077   1.902   5.776  2.1027  0.3209 -0.6754
  172SAPS  C31419597   2.036   1.775   5.614 -0.1825  0.4458 -0.3090
  172SAPS  H14X19598   1.975   1.700   5.668  1.4758 -0.6599  0.1126
  172SAPS  H14Y19599   2.136   1.728   5.605  0.7565  2.0394  1.0990
  172SAPS  C31519600   1.993   1.769   5.464 -0.2195 -0.0218 -1.0487
  172SAPS  H15X19601   2.077   1.785   5.393  0.9720  0.4044  0.4207
  172SAPS  H15Y19602   1.925   1.855   5.443 -0.4426  0.4955  1.4925
  172SAPS  C31619603   1.920   1.630   5.426  0.5843  0.2585 -0.3496
  172SAPS  H16X19604   1.989   1.551   5.460  0.3358  0.5064  0.7849
  172SAPS  H16Y19605   1.832   1.627   5.493  2.3412  0.3771  2.0964
  172SAPS  C31719606   1.876   1.619   5.284 -1.1060  0.1976  0.6136
  172SAPS  H17X19607   1.852   1.513   5.264 -0.2063  0.5541 -3.2432
  172SAPS  H17Y19608   1.968   1.640   5.224 -1.2059 -1.5760 -0.2288
  172SAPS  C31819609   1.768   1.714   5.237  0.1243  0.0722  0.1739
  172SAPS  H18X19610   1.794   1.816   5.272  0.7909  0.0892 -0.3561
  172SAPS  H18Y19611   1.669   1.686   5.280 -1.0099  0.1704 -2.1749
  172SAPS  H18Z19612   1.756   1.723   5.127 -1.3888  1.7868  0.4299
  173SAPS     N19613   3.560   0.030   2.684 -0.1151  0.5764 -0.0314
  173SAPS   HN119614   3.568  -0.032   2.601  0.5601  0.6246 -0.0074
  173SAPS   HN219615   3.654   0.040   2.727 -0.3275 -1.6963  1.1794
  173SAPS   HN319616   3.502  -0.010   2.761  0.9101  2.4595  1.8366
  173SAPS   C1219617   3.518   0.166   2.647  0.8838 -0.0793  0.1812
  173SAPS  H12A19618   3.558   0.180   2.548 -0.4433 -0.2930 -0.4106
  173SAPS   C1319619   3.369   0.182   2.651  0.4122  0.0896 -0.4359
  173SAPS  O13A19620   3.298   0.086   2.702  0.1612 -0.1685  0.4423
  173SAPS  O13B19621   3.310   0.292   2.630 -0.5132  0.0611  0.0722
  173SAPS   C1119622   3.582   0.269   2.744  0.3558 -0.2005 -1.0572
  173SAPS  H11A19623   3.536   0.242   2.841 -0.7501 -0.2808 -1.5872
  173SAPS  H11B19624   3.555   0.374   2.721 -0.4946 -0.1188  0.2137
  173SAPS     P19625   3.831   0.344   2.715  0.0083  0.1041  0.1568
  173SAPS   O1319626   3.969   0.292   2.702 -0.2146  0.4720  0.4908
  173SAPS   O1419627   3.791   0.445   2.617 -0.3446  0.4848  0.0976
  173SAPS   O1219628   3.721   0.232   2.737  0.1975 -0.3648 -0.0897
  173SAPS   O1119629   3.824   0.414   2.854  0.2131 -0.1448  0.3634
  173SAPS    C119630   3.862   0.350   2.974 -0.4370  0.0756 -0.0422
  173SAPS    HA19631   3.786   0.275   3.003  0.0865 -0.6968 -0.6310
  173SAPS    HB19632   3.964   0.308   2.962 -0.0860  0.7550  0.4968
  173SAPS    C219633   3.870   0.456   3.087  0.4003 -0.9889 -0.4819
  173SAPS    HS19634   3.767   0.496   3.100  1.1065  1.3148 -1.4473
  173SAPS   O2119635   3.960   0.565   3.052  0.1925 -0.3073  0.0869
  173SAPS   C2119636   3.932   0.686   3.107 -0.1392  0.2495  0.4948
  173SAPS   O2219637   3.842   0.712   3.182  0.4025 -0.4382  0.0482
  173SAPS   C2219638   4.024   0.792   3.049 -0.1135 -0.5146 -0.0317
  173SAPS   H2R19639   4.065   0.753   2.953  1.2174  0.6538  0.0344
  173SAPS   H2S19640   3.954   0.877   3.030  0.0640 -0.3940 -0.1542
  173SAPS    C319641   3.910   0.384   3.223  0.3877 -0.2121 -0.3882
  173SAPS    HX19642   4.015   0.353   3.203  0.4253 -0.3069 -0.0510
  173SAPS    HY19643   3.853   0.292   3.248 -0.7840  0.7213  0.4919
  173SAPS   O3119644   3.914   0.460   3.342  0.6237  0.7256  0.2983
  173SAPS   C3119645   3.794   0.483   3.381  0.5350  0.4853 -0.0907
  173SAPS   O3219646   3.688   0.455   3.317 -0.4387  0.0166 -0.3638
  173SAPS   C3219647   3.792   0.579   3.501  1.3562  0.2199 -0.4756
  173SAPS   H2X19648   3.833   0.673   3.459  0.4987  0.9612  0.3162
  173SAPS   H2Y19649   3.856   0.544   3.585 -1.2171  0.3675  1.6887
  173SAPS   C2319650   4.144   0.831   3.142 -0.0119 -0.0304  0.1895
  173SAPS   H3R19651   4.106   0.845   3.246 -0.6839 -1.5070  0.1675
  173SAPS   H3S19652   4.178   0.930   3.105  0.7718 -0.2880  0.2175
  173SAPS   C2419653   4.272   0.739   3.140 -0.6359 -0.3968  1.2402
  173SAPS   H4R19654   4.358   0.778   3.200  0.1725 -1.3259  0.7214
  173SAPS   H4S19655   4.324   0.734   3.042  2.1974  0.0248  2.6052
  173SAPS   C2519656   4.235   0.610   3.201 -0.1048  0.1763 -0.2144
  173SAPS   H5R19657   4.184   0.543   3.129 -1.1157  0.6692  0.0351
  173SAPS   C2619658   4.245   0.580   3.333  0.1436  0.1133  0.6877
  173SAPS   H6R19659   4.221   0.476   3.359 -4.2211  0.8556  0.4079
  173SAPS   C2719660   4.292   0.658   3.452 -0.0550 -0.1730 -0.2237
  173SAPS   H7R19661   4.240   0.626   3.545 -1.5227  0.5293 -0.7855
  173SAPS   H7S19662   4.247   0.759   3.443 -1.0474 -0.6103 -0.3231
  173SAPS   C2819663   4.438   0.663   3.467 -0.1272 -0.2814  0.5933
  173SAPS   H8R19664   4.487   0.675   3.369  1.6076 -0.1148  1.4469
  173SAPS   C2919665   4.511   0.661   3.580  0.0497  0.0154  0.1598
  173SAPS   H9R19666   4.620   0.655   3.572  0.0772 -0.9352  1.0791
  173SAPS  C21019667   4.463   0.653   3.726 -0.4637 -0.3000  0.2599
  173SAPS  H10R19668   4.363   0.700   3.734 -0.2305  0.3540 -0.4841
  173SAPS  H10S19669   4.536   0.712   3.786  1.2080 -0.0068 -1.9105
  173SAPS  C21119670   4.449   0.514   3.779 -0.0839 -0.4184 -0.4534
  173SAPS  H11R19671   4.404   0.439   3.712 -1.6994  0.9975 -1.0290
  173SAPS  C21219672   4.479   0.483   3.909 -0.3222 -0.3274  0.5052
  173SAPS  H12R19673   4.465   0.377   3.934  2.2852 -1.0223 -0.7233
  173SAPS  C21319674   4.512   0.571   4.030 -0.2187 -0.5345 -0.1768
  173SAPS  H13R19675   4.462   0.668   4.011 -0.5889 -0.9006 -1.1017
  173SAPS  H13S19676   4.621   0.594   4.032 -0.1555 -0.9024  0.8249
  173SAPS  C21419677   4.465   0.505   4.159  0.0851  0.5124 -0.4226
  173SAPS  H14R19678   4.364   0.462   4.163 -0.2044  1.2511  1.0839
  173SAPS  C21519679   4.548   0.469   4.260  0.8822  0.4311 -0.0313
  173SAPS  H15R19680   4.519   0.399   4.339  1.7905  2.0690  1.8580
  173SAPS  C21619681   4.696   0.500   4.274 -0.0498  0.2780 -0.3492
  173SAPS  H16R19682   4.755   0.507   4.180 -0.0877  0.2504 -0.3749
  173SAPS  H16S19683   4.753   0.431   4.339  2.0612  1.5147 -0.7931
  173SAPS  C21719684   4.722   0.635   4.351  0.6310 -0.0008 -0.5109
  173SAPS  H17R19685   4.651   0.646   4.436 -0.9402 -1.6804 -1.5159
  173SAPS  H17S19686   4.709   0.726   4.288  0.3276  0.2123 -0.1464
  173SAPS  C21819687   4.865   0.642   4.412 -0.4171 -0.8394  0.4658
  173SAPS  H18R19688   4.946   0.600   4.349 -0.3703 -1.6259  1.0297
  173SAPS  H18S19689   4.855   0.572   4.498 -0.1680 -1.8580 -0.3123
  173SAPS  C21919690   4.901   0.781   4.463  0.2511  0.5627 -0.3767
  173SAPS  H19R19691   4.834   0.818   4.543  1.5169 -0.1706  1.0785
  173SAPS  H19S19692   4.892   0.851   4.377 -1.5073 -1.0445 -1.5941
  173SAPS  C22019693   5.052   0.791   4.508  0.4580 -0.1026  0.3084
  173SAPS  H20R19694   5.093   0.894   4.514  0.0293  0.0024  2.2279
  173SAPS  H20S19695   5.121   0.729   4.447 -0.7534 -1.7832  0.5878
  173SAPS  H20T19696   5.054   0.754   4.613 -2.0945 -0.1455  0.4273
  173SAPS   C3319697   3.651   0.614   3.565 -0.6808  0.1714 -0.3679
  173SAPS   H3X19698   3.609   0.520   3.605 -1.5261  0.7835  0.2158
  173SAPS   H3Y19699   3.586   0.653   3.484 -1.2828  0.6105  0.3099
  173SAPS   C3419700   3.653   0.719   3.692  0.6091 -0.1778  0.8509
  173SAPS   H4X19701   3.672   0.820   3.650  3.0292 -1.7669 -2.3349
  173SAPS   H4Y19702   3.740   0.704   3.759  0.2492  1.1303  1.6499
  173SAPS   C3519703   3.520   0.713   3.768 -0.5176 -0.3647  0.9346
  173SAPS   H5X19704   3.491   0.607   3.748  0.1811 -0.6515  1.4174
  173SAPS   H5Y19705   3.445   0.768   3.707  0.9285  2.1171  1.2592
  173SAPS   C3619706   3.519   0.751   3.910  0.2581  0.0924  0.0141
  173SAPS   H6X19707   3.413   0.776   3.935 -0.3366 -0.9301 -1.3458
  173SAPS   H6Y19708   3.570   0.848   3.925  2.4986 -0.4024 -3.3016
  173SAPS   C3719709   3.576   0.645   4.000 -0.3771  0.1465 -0.0895
  173SAPS   H7X19710   3.683   0.623   3.977  0.0813  0.0107  1.9767
  173SAPS   H7Y19711   3.526   0.547   3.981 -2.1191  0.6664  1.5772
  173SAPS   C3819712   3.574   0.683   4.152 -0.4177  0.1231  0.4158
  173SAPS   H8X19713   3.466   0.684   4.176 -0.7148 -1.1249 -0.7771
  173SAPS   H8Y19714   3.612   0.784   4.178  0.0022 -0.4492  2.1826
  173SAPS   C3919715   3.647   0.582   4.240  0.0037 -0.5546 -0.0523
  173SAPS   H9X19716   3.743   0.555   4.191  0.5635  1.0928  0.0897
  173SAPS   H9Y19717   3.583   0.491   4.245  0.0786 -0.5543  1.5401
  173SAPS  C31019718   3.675   0.644   4.380  0.1839 -0.4403  0.7276
  173SAPS  H10X19719   3.583   0.687   4.425  0.8292  0.1569  1.5155
  173SAPS  H10Y19720   3.749   0.726   4.391  0.4300 -0.9054  3.0464
  173SAPS  C31119721   3.726   0.538   4.478 -0.0401  0.1909  0.3109
  173SAPS  H11X19722   3.762   0.455   4.413 -2.7413  0.7743 -2.1927
  173SAPS  H11Y19723   3.645   0.493   4.540 -1.5699 -0.9308 -2.3161
  173SAPS  C31219724   3.832   0.583   4.579  0.3298  0.5291 -0.6603
  173SAPS  H12X19725   3.781   0.662   4.638 -0.7049  0.5409 -1.5566
  173SAPS  H12Y19726   3.916   0.633   4.525 -0.4080  0.9986 -1.3914
  173SAPS  C31319727   3.884   0.464   4.666  0.0475 -0.0945 -1.2320
  173SAPS  H13X19728   3.934   0.400   4.590  1.0460  0.2167 -0.8565
  173SAPS  H13Y19729   3.812   0.419   4.737  1.1714 -0.9219 -0.5750
  173SAPS  C31419730   4.005   0.514   4.757 -0.4354 -0.4528  0.9913
  173SAPS  H14X19731   4.089   0.519   4.684  0.2061 -0.7085  1.6989
  173SAPS  H14Y19732   4.032   0.443   4.838  1.8125 -0.9476 -0.1234
  173SAPS  C31519733   3.978   0.655   4.818 -0.1899 -0.1829 -0.6072
  173SAPS  H15X19734   3.871   0.658   4.848 -0.7717 -2.9483 -2.1248
  173SAPS  H15Y19735   3.981   0.734   4.740 -1.4203 -0.0235 -0.5074
  173SAPS  C31619736   4.074   0.689   4.930 -0.4990  0.0704  0.3335
  173SAPS  H16X19737   4.177   0.669   4.893  0.6657 -1.6168  4.0375
  173SAPS  H16Y19738   4.055   0.623   5.017  0.3062 -1.1908 -0.4152
  173SAPS  C31719739   4.071   0.823   4.991  0.3243 -0.4496 -0.2345
  173SAPS  H17X19740   3.981   0.849   5.051  1.6859 -0.4010  1.9290
  173SAPS  H17Y19741   4.072   0.892   4.905  0.8121 -1.5144 -1.1081
  173SAPS  C31819742   4.185   0.849   5.092  0.2038  0.0404  0.3763
  173SAPS  H18X19743   4.176   0.952   5.132 -1.6145  0.4410 -0.9007
  173SAPS  H18Y19744   4.285   0.833   5.046 -1.0848 -0.2601 -2.5938
  173SAPS  H18Z19745   4.181   0.781   5.179 -1.8811 -0.5352 -0.1078
  174SAPS     N19746   3.162   6.844   2.905 -0.0864  0.3494  0.1071
  174SAPS   HN119747   3.187   6.890   2.995  0.6276 -1.7315  1.0370
  174SAPS   HN219748   3.206   6.885   2.821  1.1213  1.7782  1.3983
  174SAPS   HN319749   3.059   6.853   2.895  0.1780  1.7499 -1.8674
  174SAPS   C1219750   3.206   6.706   2.905 -0.2405 -0.1272  0.3065
  174SAPS  H12A19751   3.150   6.652   2.830  0.3231 -2.5764  1.5279
  174SAPS   C1319752   3.354   6.675   2.865  0.2475 -0.8016 -0.3947
  174SAPS  O13A19753   3.432   6.775   2.858 -0.1882  0.2112 -0.6058
  174SAPS  O13B19754   3.377   6.562   2.815  0.4166  0.0036 -0.6871
  174SAPS   C1119755   3.170   6.638   3.039 -0.3057 -0.2312  0.7457
  174SAPS  H11A19756   3.212   6.699   3.121  1.5500 -0.3076 -0.1066
  174SAPS  H11B19757   3.218   6.538   3.040  1.9280  0.7881  1.3768
  174SAPS     P19758   2.951   6.658   3.182  0.0317  0.0609 -0.3885
  174SAPS   O1319759   2.957   6.804   3.214 -0.0535  0.3426  0.2664
  174SAPS   O1419760   2.826   6.582   3.176 -0.2616 -0.2472  0.2194
  174SAPS   O1219761   3.025   6.623   3.051  0.1627 -0.4305 -0.0031
  174SAPS   O1119762   3.044   6.584   3.288 -0.0426  0.2005  0.0251
  174SAPS    C119763   3.049   6.444   3.296  0.0586 -0.1450 -0.0324
  174SAPS    HA19764   2.951   6.402   3.328  0.0912 -0.5867 -0.4986
  174SAPS    HB19765   3.073   6.403   3.196 -2.5511  2.1733 -1.7667
  174SAPS    C219766   3.154   6.398   3.398 -0.6039 -0.6761 -0.2042
  174SAPS    HS19767   3.196   6.297   3.376  1.1549 -0.1016  0.3413
  174SAPS   O2119768   3.109   6.370   3.533 -0.3627  0.1051  0.2172
  174SAPS   C2119769   3.027   6.267   3.562  0.5206  0.0063  0.2837
  174SAPS   O2219770   2.961   6.204   3.482  0.0895 -0.7740 -0.3229
  174SAPS   C2219771   3.012   6.251   3.714  0.1045  0.0469 -0.2544
  174SAPS   H2R19772   2.988   6.352   3.753 -0.7702 -0.3976  0.4109
  174SAPS   H2S19773   2.918   6.196   3.734 -0.6193  1.5871  0.7384
  174SAPS    C319774   3.285   6.497   3.407  0.3516  0.7231  0.1458
  174SAPS    HX19775   3.241   6.581   3.463 -1.3604  0.4439 -0.6983
  174SAPS    HY19776   3.322   6.534   3.309  1.2220 -0.2870  0.0713
  174SAPS   O3119777   3.386   6.427   3.486  0.4553  0.2604  0.1521
  174SAPS   C3119778   3.490   6.502   3.518 -0.1366 -0.4116  0.0613
  174SAPS   O3219779   3.509   6.619   3.478  0.1556  0.6683 -0.4033
  174SAPS   C3219780   3.576   6.424   3.610 -0.3072  0.1961  0.3527
  174SAPS   H2X19781   3.541   6.445   3.714 -0.3389  2.5482 -0.0728
  174SAPS   H2Y19782   3.682   6.457   3.611  1.1877 -4.0944  1.1653
  174SAPS   C2319783   3.133   6.181   3.781  0.1695 -0.2536 -0.7037
  174SAPS   H3R19784   3.221   6.218   3.724 -1.2689  2.7273 -1.2272
  174SAPS   H3S19785   3.120   6.075   3.751 -1.4121 -0.2373 -0.1793
  174SAPS   C2419786   3.153   6.183   3.936 -0.3434 -0.5616  0.7016
  174SAPS   H4R19787   3.184   6.287   3.964 -0.0273 -0.1685 -1.0059
  174SAPS   H4S19788   3.225   6.100   3.952 -3.5567 -3.4010  1.2984
  174SAPS   C2519789   3.033   6.151   4.020 -0.0769  0.2048  0.7615
  174SAPS   H5R19790   2.935   6.132   3.972 -0.3583 -1.8740  2.0296
  174SAPS   C2619791   3.037   6.135   4.151  0.0810 -0.4654  0.4381
  174SAPS   H6R19792   2.939   6.119   4.199  0.0029 -0.6649  0.2188
  174SAPS   C2719793   3.156   6.142   4.244  0.2194  0.1652  0.0261
  174SAPS   H7R19794   3.237   6.093   4.185 -0.5414 -1.4268  0.2364
  174SAPS   H7S19795   3.146   6.075   4.332  3.5121 -0.6977 -0.1111
  174SAPS   C2819796   3.193   6.282   4.274 -0.4513 -0.6540 -0.3627
  174SAPS   H8R19797   3.118   6.358   4.244 -1.3087 -0.3290  2.2858
  174SAPS   C2919798   3.290   6.317   4.361  0.7183 -0.1839  0.3714
  174SAPS   H9R19799   3.294   6.425   4.381  0.6641  0.0061 -0.6120
  174SAPS  C21019800   3.385   6.221   4.425  0.3179 -0.1639 -0.4852
  174SAPS  H10R19801   3.482   6.275   4.431 -0.2806  0.9279 -0.3805
  174SAPS  H10S19802   3.411   6.135   4.360  1.8911  1.3362 -1.9400
  174SAPS  C21119803   3.336   6.187   4.567  0.1777  0.2523  0.6275
  174SAPS  H11R19804   3.232   6.214   4.588 -1.0227 -3.7126  0.5081
  174SAPS  C21219805   3.406   6.135   4.667  0.2501  0.7901  0.1721
  174SAPS  H12R19806   3.366   6.125   4.769  2.3841  3.0142  1.3339
  174SAPS  C21319807   3.539   6.082   4.648 -0.6417  0.1268 -0.0777
  174SAPS  H13R19808   3.566   6.066   4.542 -0.8940 -1.3037  0.0473
  174SAPS  H13S19809   3.558   5.979   4.687  0.1634 -1.1579 -3.4943
  174SAPS  C21419810   3.633   6.173   4.713 -0.0588  0.3717  0.6897
  174SAPS  H14R19811   3.664   6.262   4.657 -1.3885 -0.0035 -0.6893
  174SAPS  C21519812   3.684   6.157   4.832  0.4531  0.3006 -0.6028
  174SAPS  H15R19813   3.749   6.240   4.862  0.2645  1.2891 -2.7657
  174SAPS  C21619814   3.671   6.034   4.925  0.2736 -0.4952 -0.6527
  174SAPS  H16R19815   3.774   6.002   4.954  0.3866  0.7801  0.4662
  174SAPS  H16S19816   3.615   5.949   4.882 -2.1706  0.1876  0.9545
  174SAPS  C21719817   3.616   6.079   5.062  0.1926  0.2768  0.0963
  174SAPS  H17R19818   3.681   6.150   5.117  2.5214 -2.0442  0.5311
  174SAPS  H17S19819   3.637   5.990   5.126  1.0170  0.9937  0.8370
  174SAPS  C21819820   3.468   6.116   5.066  0.5973  0.1461 -0.3616
  174SAPS  H18R19821   3.417   6.038   5.005  1.2051 -0.2005 -0.4353
  174SAPS  H18S19822   3.446   6.220   5.037 -1.4109  0.0971  0.7804
  174SAPS  C21919823   3.414   6.116   5.214  0.8680 -0.3438 -0.7910
  174SAPS  H19R19824   3.482   6.176   5.277 -2.8048  2.5298  0.7742
  174SAPS  H19S19825   3.421   6.009   5.244 -0.7359 -0.7849 -1.8351
  174SAPS  C22019826   3.271   6.166   5.228  0.2680  0.0585  0.1754
  174SAPS  H20R19827   3.204   6.115   5.156  0.3551  0.6828 -0.3657
  174SAPS  H20S19828   3.264   6.275   5.205 -1.1363 -0.3455 -1.5084
  174SAPS  H20T19829   3.236   6.146   5.331 -0.5831 -0.7633 -0.2588
  174SAPS   C3319830   3.571   6.274   3.592  0.1624 -0.2282  0.2906
  174SAPS   H3X19831   3.605   6.253   3.488  0.9743  2.3423 -0.0407
  174SAPS   H3Y19832   3.470   6.231   3.608 -0.2453  0.9055  0.8464
  174SAPS   C3419833   3.679   6.203   3.675  0.4904 -0.1481  1.7069
  174SAPS   H4X19834   3.779   6.246   3.654 -0.1234 -0.1058 -1.5272
  174SAPS   H4Y19835   3.678   6.094   3.654  1.0937  0.2408 -0.5577
  174SAPS   C3519836   3.644   6.216   3.820 -1.3355 -0.1956 -0.6277
  174SAPS   H5X19837   3.553   6.159   3.849 -1.8009  1.0758  0.5353
  174SAPS   H5Y19838   3.631   6.321   3.854 -0.9871  0.0406 -1.2201
  174SAPS   C3619839   3.747   6.157   3.916  0.0921  0.5454  0.7249
  174SAPS   H6X19840   3.836   6.221   3.931  0.7744 -0.1180 -0.3561
  174SAPS   H6Y19841   3.801   6.071   3.870 -0.9228  1.3650 -2.2470
  174SAPS   C3719842   3.701   6.116   4.051  0.3100  0.5652  0.2254
  174SAPS   H7X19843   3.603   6.066   4.042  0.0042  0.4059  3.1985
  174SAPS   H7Y19844   3.690   6.216   4.099  0.6152  0.4662  0.5078
  174SAPS   C3819845   3.801   6.036   4.127  0.1912  0.8696  0.0802
  174SAPS   H8X19846   3.905   6.071   4.110  1.3175 -2.3541 -0.3039
  174SAPS   H8Y19847   3.800   5.932   4.088  0.9808  0.5291  0.9173
  174SAPS   C3919848   3.765   6.017   4.271  0.3291 -0.5185  0.0341
  174SAPS   H9X19849   3.656   5.998   4.282 -0.1576  1.1322 -1.4258
  174SAPS   H9Y19850   3.781   6.114   4.324 -1.7818  0.0817 -0.3274
  174SAPS  C31019851   3.862   5.923   4.339 -0.5678  1.0333  0.7486
  174SAPS  H10X19852   3.959   5.945   4.290 -0.6046 -0.3349 -0.0113
  174SAPS  H10Y19853   3.846   5.815   4.315 -1.5163  1.2578  0.3497
  174SAPS  C31119854   3.870   5.928   4.492 -0.2599  0.5722 -0.0640
  174SAPS  H11X19855   3.769   5.902   4.530  1.1474 -1.8911  2.3354
  174SAPS  H11Y19856   3.919   6.022   4.526 -0.1964 -0.1432  1.9396
  174SAPS  C31219857   3.961   5.819   4.544  0.2923  0.4764  0.8561
  174SAPS  H12X19858   4.061   5.818   4.496 -0.2368 -1.2726 -0.3095
  174SAPS  H12Y19859   3.921   5.720   4.512  0.3093 -0.0603  2.4487
  174SAPS  C31319860   3.981   5.817   4.697  0.3317 -0.3706 -0.6536
  174SAPS  H13X19861   3.882   5.794   4.744  0.2321 -1.6238 -1.4400
  174SAPS  H13Y19862   4.018   5.914   4.738  0.0330 -0.7621  0.6078
  174SAPS  C31419863   4.077   5.702   4.730  0.1121 -0.4444 -0.1846
  174SAPS  H14X19864   4.175   5.735   4.689  0.5834  1.4877  2.2500
  174SAPS  H14Y19865   4.057   5.616   4.664  4.2800 -1.0025 -1.0442
  174SAPS  C31519866   4.080   5.661   4.884 -0.7806 -0.8562 -0.0510
  174SAPS  H15X19867   3.988   5.611   4.922 -1.1690  0.9741  1.5539
  174SAPS  H15Y19868   4.092   5.752   4.946  3.4527 -0.6148 -0.9091
  174SAPS  C31619869   4.199   5.574   4.913 -0.1154  0.6138  0.1125
  174SAPS  H16X19870   4.282   5.603   4.845 -0.3038  1.0965  0.0878
  174SAPS  H16Y19871   4.197   5.467   4.883 -0.8033  1.6162 -4.0217
  174SAPS  C31719872   4.255   5.578   5.060 -0.3661 -0.1966 -0.1973
  174SAPS  H17X19873   4.180   5.523   5.121  0.3437 -1.3806 -0.3545
  174SAPS  H17Y19874   4.263   5.687   5.078  0.3500 -0.6381  2.6323
  174SAPS  C31819875   4.388   5.507   5.079 -0.7019 -0.1078  0.7695
  174SAPS  H18X19876   4.462   5.546   5.006  0.7709 -0.0244  2.2569
  174SAPS  H18Y19877   4.394   5.398   5.060  1.4668  0.3657 -1.7116
  174SAPS  H18Z19878   4.437   5.520   5.178  0.2792  0.3032  0.2421
  175SAPS     N19879   6.369   4.683   3.230  0.3961  0.0138 -0.6174
  175SAPS   HN119880   6.454   4.708   3.177  0.9535 -1.4981 -0.4820
  175SAPS   HN219881   6.352   4.581   3.219 -0.7554  0.1013  0.2027
  175SAPS   HN319882   6.287   4.738   3.196 -0.4514  0.3987  1.8875
  175SAPS   C1219883   6.388   4.717   3.376  0.2468 -0.4844  0.1214
  175SAPS  H12A19884   6.426   4.818   3.372 -2.0570  0.4409 -4.1739
  175SAPS   C1319885   6.256   4.715   3.461 -0.4883 -0.4699 -0.3622
  175SAPS  O13A19886   6.147   4.725   3.408 -0.0647 -0.3546 -0.4679
  175SAPS  O13B19887   6.265   4.755   3.580 -0.2251 -0.3430 -0.0830
  175SAPS   C1119888   6.491   4.614   3.430 -0.1311 -0.4870 -0.4909
  175SAPS  H11A19889   6.451   4.511   3.433  0.1659 -0.6905 -2.2125
  175SAPS  H11B19890   6.522   4.628   3.535  0.4009 -0.4301 -0.6515
  175SAPS     P19891   6.697   4.753   3.331 -0.4001  0.3534 -0.0568
  175SAPS   O1319892   6.845   4.714   3.330  0.0919 -0.2690  0.7558
  175SAPS   O1419893   6.650   4.829   3.214  0.4753  0.1976 -0.0488
  175SAPS   O1219894   6.613   4.616   3.349  0.0658 -0.0359 -0.1079
  175SAPS   O1119895   6.674   4.838   3.463 -0.1783  0.6939 -0.1976
  175SAPS    C119896   6.779   4.918   3.518 -0.8078  0.6136 -0.8848
  175SAPS    HA19897   6.841   4.869   3.596 -0.7120  2.5099  0.2814
  175SAPS    HB19898   6.847   4.952   3.438  1.7032 -0.2159  0.7782
  175SAPS    C219899   6.704   5.039   3.591  0.1997 -0.0019 -0.0564
  175SAPS    HS19900   6.642   5.078   3.508  0.9775  0.0610 -0.6243
  175SAPS   O2119901   6.804   5.135   3.624  0.6206 -0.2635 -0.3453
  175SAPS   C2119902   6.758   5.259   3.655  0.3081  0.1161 -0.3336
  175SAPS   O2219903   6.640   5.292   3.633 -0.0226 -0.7593 -0.1711
  175SAPS   C2219904   6.880   5.337   3.698  1.2186 -0.3710 -0.4513
  175SAPS   H2R19905   6.935   5.292   3.784 -0.4183  2.2731  2.1769
  175SAPS   H2S19906   6.956   5.348   3.618 -0.2552  2.8835 -1.5771
  175SAPS    C319907   6.622   4.998   3.717  0.1055  0.5844  1.2411
  175SAPS    HX19908   6.560   4.916   3.675 -0.6598  2.9694 -2.8450
  175SAPS    HY19909   6.553   5.083   3.738  3.6362  3.2771  3.1036
  175SAPS   O3119910   6.699   4.958   3.838  0.2593 -0.1329  0.3804
  175SAPS   C3119911   6.694   5.046   3.941  0.0661  0.1136 -0.0147
  175SAPS   O3219912   6.618   5.143   3.938  0.1029 -0.2723 -0.6290
  175SAPS   C3219913   6.792   5.003   4.051 -0.7015  0.0093 -0.0195
  175SAPS   H2X19914   6.890   4.972   4.007 -0.5950 -2.3341  1.6429
  175SAPS   H2Y19915   6.749   4.912   4.100 -0.3400 -0.1820 -0.0519
  175SAPS   C2319916   6.836   5.476   3.748 -0.6764  0.1621 -0.1316
  175SAPS   H3R19917   6.798   5.544   3.669  0.4373 -0.6910 -1.4430
  175SAPS   H3S19918   6.930   5.530   3.773 -2.0036  1.6709  1.9169
  175SAPS   C2419919   6.747   5.467   3.864 -0.0669  0.3533 -0.2834
  175SAPS   H4R19920   6.788   5.393   3.936 -0.0228  0.7880  0.1451
  175SAPS   H4S19921   6.642   5.440   3.841 -0.9906  3.3678 -0.0545
  175SAPS   C2519922   6.735   5.601   3.923 -0.4192  0.3725 -0.8648
  175SAPS   H5R19923   6.720   5.693   3.865 -0.7965  1.4466  0.8700
  175SAPS   C2619924   6.723   5.623   4.061 -0.1370 -0.2594 -0.5863
  175SAPS   H6R19925   6.697   5.723   4.098  0.3657 -0.9622  1.8387
  175SAPS   C2719926   6.719   5.517   4.169 -0.1885  0.0326  0.0879
  175SAPS   H7R19927   6.732   5.572   4.265  0.3568  0.3685 -0.1746
  175SAPS   H7S19928   6.814   5.462   4.157 -0.5845 -0.3738 -1.3988
  175SAPS   C2819929   6.599   5.419   4.175 -0.0191  0.0305 -0.2670
  175SAPS   H8R19930   6.575   5.364   4.082  1.1896 -0.9528 -0.0290
  175SAPS   C2919931   6.522   5.387   4.282 -0.1224  0.1807 -0.4245
  175SAPS   H9R19932   6.457   5.299   4.270 -0.7326  0.5974 -0.2319
  175SAPS  C21019933   6.538   5.433   4.420 -0.3187 -0.9459 -0.0529
  175SAPS  H10R19934   6.643   5.422   4.455 -0.0333 -1.1431 -0.9536
  175SAPS  H10S19935   6.469   5.372   4.483  1.3010  0.2130  3.0485
  175SAPS  C21119936   6.494   5.576   4.438 -1.2008  0.6054  0.2775
  175SAPS  H11R19937   6.439   5.620   4.353  2.6586  1.5344 -1.9608
  175SAPS  C21219938   6.497   5.649   4.556 -0.8062 -0.5046  0.1550
  175SAPS  H12R19939   6.463   5.753   4.561  2.2996  0.7830 -2.5675
  175SAPS  C21319940   6.556   5.602   4.684  0.4612 -0.5436 -0.0548
  175SAPS  H13R19941   6.632   5.676   4.718 -2.4780  2.4588  0.5128
  175SAPS  H13S19942   6.602   5.502   4.667  0.8793 -0.5705  1.1168
  175SAPS  C21419943   6.440   5.590   4.785 -0.7496 -0.0555  0.3745
  175SAPS  H14R19944   6.338   5.604   4.747 -1.1600 -2.4263  0.4522
  175SAPS  C21519945   6.457   5.560   4.918 -0.6227 -0.0921 -0.6316
  175SAPS  H15R19946   6.369   5.535   4.978  0.0676  0.9941  0.9231
  175SAPS  C21619947   6.591   5.526   4.987 -0.2802  0.1164  0.2411
  175SAPS  H16R19948   6.575   5.581   5.082 -0.8190  1.1393 -0.4149
  175SAPS  H16S19949   6.675   5.581   4.939 -1.1278  0.7953 -0.4950
  175SAPS  C21719950   6.618   5.378   5.021  0.7837  0.6389 -0.1039
  175SAPS  H17R19951   6.716   5.378   5.073  1.3036  2.1680 -0.9976
  175SAPS  H17S19952   6.636   5.324   4.926 -0.7776 -1.0056  0.4787
  175SAPS  C21819953   6.523   5.311   5.118  0.2373 -0.0866 -0.3013
  175SAPS  H18R19954   6.421   5.312   5.075  0.5315  1.3934 -1.0065
  175SAPS  H18S19955   6.509   5.366   5.213  1.0553  0.7337 -0.6348
  175SAPS  C21919956   6.553   5.160   5.140 -0.4824 -0.0254 -0.4293
  175SAPS  H19R19957   6.661   5.156   5.167 -0.9619  0.8812  1.8360
  175SAPS  H19S19958   6.523   5.105   5.048  0.9858 -1.4367 -0.1221
  175SAPS  C22019959   6.487   5.101   5.268 -0.2859 -0.3925  0.1692
  175SAPS  H20R19960   6.494   5.164   5.360 -3.3143 -1.6282  1.3695
  175SAPS  H20S19961   6.513   4.999   5.304 -2.7766 -1.0158  0.4277
  175SAPS  H20T19962   6.382   5.097   5.233  0.4383  3.6666 -3.1669
  175SAPS   C3319963   6.810   5.126   4.150  0.5102 -0.0770 -0.0402
  175SAPS   H3X19964   6.708   5.153   4.184 -0.5695 -3.1447 -0.4362
  175SAPS   H3Y19965   6.843   5.222   4.105  0.2327  0.1634  0.2664
  175SAPS   C3419966   6.889   5.095   4.274  0.7713  1.2144  0.0688
  175SAPS   H4X19967   6.995   5.110   4.248  0.0627  0.8516 -3.5433
  175SAPS   H4Y19968   6.865   4.989   4.297  0.1667  1.4137  0.3894
  175SAPS   C3519969   6.843   5.180   4.389 -0.3386 -0.0007  0.6182
  175SAPS   H5X19970   6.732   5.171   4.395 -0.3535  0.6306  1.4465
  175SAPS   H5Y19971   6.859   5.288   4.369 -0.0638 -0.1502  0.0165
  175SAPS   C3619972   6.902   5.129   4.517  0.5998 -0.8301  0.5433
  175SAPS   H6X19973   7.012   5.146   4.514  0.3254  1.6984  1.6768
  175SAPS   H6Y19974   6.869   5.026   4.543  1.3071 -0.6399  2.3951
  175SAPS   C3719975   6.871   5.209   4.640  0.2264 -0.0900  0.6406
  175SAPS   H7X19976   6.763   5.205   4.664  0.0722  0.5889  0.1086
  175SAPS   H7Y19977   6.900   5.316   4.627  0.1190 -0.3100 -1.9877
  175SAPS   C3819978   6.955   5.156   4.757 -0.8277  0.1484  0.6082
  175SAPS   H8X19979   7.064   5.158   4.737 -1.0834  2.0101 -0.8665
  175SAPS   H8Y19980   6.926   5.049   4.759 -0.7312  0.0793 -0.6374
  175SAPS   C3919981   6.927   5.219   4.890  0.2950  0.2614 -0.2709
  175SAPS   H9X19982   6.818   5.207   4.904  0.4825 -0.9082  0.2202
  175SAPS   H9Y19983   6.962   5.325   4.885  1.5141 -0.1222 -0.3519
  175SAPS  C31019984   6.992   5.141   5.015 -0.1149 -0.6901  0.0251
  175SAPS  H10X19985   6.997   5.216   5.096  0.0797  0.5142 -1.0746
  175SAPS  H10Y19986   7.095   5.109   4.988 -0.7222 -0.9588 -2.1886
  175SAPS  C31119987   6.910   5.021   5.066  0.0644  0.5435 -0.0845
  175SAPS  H11X19988   6.930   4.935   4.999  2.6452  0.2773  0.9266
  175SAPS  H11Y19989   6.806   5.053   5.045 -0.1068 -0.5430 -1.0247
  175SAPS  C31219990   6.939   4.996   5.215  0.3101  0.0630 -0.1645
  175SAPS  H12X19991   6.851   4.953   5.267 -0.8050 -0.2287 -2.1989
  175SAPS  H12Y19992   6.958   5.098   5.255  0.3195  0.4606 -1.1650
  175SAPS  C31319993   7.057   4.898   5.245 -0.1610 -0.6052  0.2587
  175SAPS  H13X19994   7.148   4.940   5.198 -0.0241 -1.5566 -0.3497
  175SAPS  H13Y19995   7.045   4.803   5.188  1.7476 -0.4879 -0.3824
  175SAPS  C31419996   7.049   4.871   5.390  0.1444  0.7285 -0.2932
  175SAPS  H14X19997   6.954   4.824   5.421 -0.1527  0.4455 -1.5853
  175SAPS  H14Y19998   7.062   4.963   5.451 -1.8217  2.1529 -1.9158
  175SAPS  C31519999   7.161   4.772   5.425 -0.2708 -0.1981  0.9411
  175SAPS  H15X20000   7.258   4.811   5.388  0.1065 -2.0287 -0.0891
  175SAPS  H15Y20001   7.136   4.676   5.376 -1.9381  0.8569 -0.3986
  175SAPS  C31620002   7.179   4.742   5.579  0.0775 -0.3837 -0.5509
  175SAPS  H16X20003   7.215   4.831   5.635 -1.7376 -0.7637  1.3232
  175SAPS  H16Y20004   7.257   4.664   5.594 -0.2060 -0.4732  0.5544
  175SAPS  C31720005   7.050   4.694   5.650  0.0447 -0.1961 -0.3300
  175SAPS  H17X20006   7.003   4.612   5.593  0.8316 -0.6588 -0.3187
  175SAPS  H17Y20007   6.971   4.772   5.651  0.2215 -0.0125 -0.5801
  175SAPS  C31820008   7.081   4.649   5.792  0.0965  0.3820 -0.1694
  175SAPS  H18X20009   7.119   4.545   5.794  0.3507  0.4171  3.3283
  175SAPS  H18Y20010   6.992   4.638   5.858 -0.1206 -2.6969 -0.8216
  175SAPS  H18Z20011   7.158   4.709   5.844  0.8492  0.3518 -1.2218
  176SAPS     N20012   5.481   3.541   2.708 -0.4302 -0.1824 -0.4071
  176SAPS   HN120013   5.412   3.521   2.783 -0.8431  2.8011  0.1652
  176SAPS   HN220014   5.440   3.574   2.619  0.5893 -0.3780 -0.9622
  176SAPS   HN320015   5.527   3.450   2.687  0.7100  0.8210 -2.6419
  176SAPS   C1220016   5.562   3.647   2.781 -0.5189 -0.3111 -0.7976
  176SAPS  H12A20017   5.594   3.619   2.880 -0.5815  2.4671  0.0996
  176SAPS   C1320018   5.687   3.693   2.709  0.3109 -0.4481  0.8092
  176SAPS  O13A20019   5.704   3.660   2.581 -0.2934  0.0547  0.3874
  176SAPS  O13B20020   5.763   3.767   2.765  0.1770 -0.0345 -0.3526
  176SAPS   C1120021   5.470   3.768   2.821 -0.1638 -0.5746  0.2854
  176SAPS  H11A20022   5.444   3.832   2.734  1.8905 -0.1576 -0.0926
  176SAPS  H11B20023   5.534   3.826   2.892  1.5600  1.0833 -2.4462
  176SAPS     P20024   5.253   3.816   2.955  0.0884 -0.1405 -0.2445
  176SAPS   O1320025   5.201   3.896   2.845  0.3440  0.4158  0.4866
  176SAPS   O1420026   5.155   3.733   3.029  0.3708  0.3252  0.0756
  176SAPS   O1220027   5.365   3.723   2.898  0.5656 -0.3366 -0.0882
  176SAPS   O1120028   5.328   3.913   3.058 -0.0599 -0.1157 -0.3503
  176SAPS    C120029   5.359   3.869   3.193 -0.3391 -0.2792 -0.8610
  176SAPS    HA20030   5.323   3.938   3.272 -1.6133 -0.4084 -1.3097
  176SAPS    HB20031   5.312   3.771   3.216  0.0553 -0.5794 -1.2911
  176SAPS    C220032   5.510   3.855   3.200 -0.8561  0.2903 -0.1307
  176SAPS    HS20033   5.536   3.775   3.128 -0.9253 -0.5989  0.8082
  176SAPS   O2120034   5.535   3.806   3.334 -0.5282  0.2008 -0.1242
  176SAPS   C2120035   5.655   3.773   3.362 -1.0196  0.2867 -0.1169
  176SAPS   O2220036   5.746   3.754   3.281 -0.1700 -0.1851  0.1313
  176SAPS   C2220037   5.674   3.760   3.513  0.4034  0.6367  0.6680
  176SAPS   H2R20038   5.728   3.854   3.537  0.0621  0.6557  1.3793
  176SAPS   H2S20039   5.572   3.754   3.557  0.0086 -1.2776 -0.3928
  176SAPS    C320040   5.594   3.980   3.167  0.1967  0.4972 -0.1277
  176SAPS    HX20041   5.576   4.015   3.063 -0.8974  2.4492  0.6811
  176SAPS    HY20042   5.699   3.944   3.162  0.2226  0.4701  0.5178
  176SAPS   O3120043   5.579   4.076   3.270 -0.2407  0.1708 -0.3544
  176SAPS   C3120044   5.482   4.167   3.262  0.3510  0.7597 -0.1607
  176SAPS   O3220045   5.419   4.188   3.160 -0.8198  0.2468  0.4611
  176SAPS   C3220046   5.470   4.247   3.386 -0.5721 -0.5188 -0.4232
  176SAPS   H2X20047   5.364   4.236   3.414 -1.0815 -1.1080 -2.4130
  176SAPS   H2Y20048   5.471   4.357   3.369 -0.0132 -0.4211  0.1880
  176SAPS   C2320049   5.753   3.632   3.551  0.8577 -0.3541 -0.3959
  176SAPS   H3R20050   5.803   3.654   3.647  0.8300  0.4913 -0.5676
  176SAPS   H3S20051   5.835   3.616   3.477 -0.5160 -3.9481 -1.3794
  176SAPS   C2420052   5.665   3.494   3.545 -0.6277  1.0051 -0.1790
  176SAPS   H4R20053   5.690   3.434   3.455  1.5514  0.7662  0.5313
  176SAPS   H4S20054   5.560   3.531   3.546 -0.8609  0.3971 -1.3400
  176SAPS   C2520055   5.690   3.410   3.668 -1.0618 -0.2447 -0.0355
  176SAPS   H5R20056   5.743   3.314   3.659  2.2349  1.3410  0.9070
  176SAPS   C2620057   5.645   3.438   3.790 -0.0640  0.8142 -0.3379
  176SAPS   H6R20058   5.680   3.383   3.878  1.9474  3.1836  0.4603
  176SAPS   C2720059   5.574   3.561   3.832  0.1663 -0.2921 -0.0926
  176SAPS   H7R20060   5.494   3.525   3.900  0.9397 -0.4450  0.7607
  176SAPS   H7S20061   5.510   3.610   3.755  0.7759 -1.8954 -1.6961
  176SAPS   C2820062   5.649   3.668   3.905 -0.5427 -0.7581  0.6917
  176SAPS   H8R20063   5.687   3.746   3.837  1.5490 -0.2866  2.3080
  176SAPS   C2920064   5.662   3.684   4.040 -0.2243 -0.2826  0.0543
  176SAPS   H9R20065   5.724   3.772   4.062  1.4636  0.0283 -4.8567
  176SAPS  C21020066   5.602   3.591   4.145 -0.8432 -0.2364  0.1312
  176SAPS  H10R20067   5.677   3.586   4.227 -0.9338 -0.5999  0.1933
  176SAPS  H10S20068   5.609   3.485   4.113  2.4789 -0.1354  0.1303
  176SAPS  C21120069   5.474   3.629   4.205  0.6821 -0.5104 -0.6800
  176SAPS  H11R20070   5.391   3.600   4.139  0.0686 -1.7953  0.5699
  176SAPS  C21220071   5.435   3.675   4.327  0.7082  0.4851  0.0347
  176SAPS  H12R20072   5.326   3.680   4.337  0.3732  0.5283 -2.9329
  176SAPS  C21320073   5.516   3.722   4.447 -0.2219  0.7081  0.0320
  176SAPS  H13R20074   5.535   3.831   4.441 -0.4152  0.6864 -1.4496
  176SAPS  H13S20075   5.617   3.678   4.435 -0.5049  0.2472 -0.7675
  176SAPS  C21420076   5.438   3.693   4.576 -0.6335 -0.0156  0.2713
  176SAPS  H14R20077   5.474   3.608   4.636 -1.2216  0.0999  0.7918
  176SAPS  C21520078   5.339   3.777   4.613 -0.6690  0.5557  0.8802
  176SAPS  H15R20079   5.274   3.747   4.697 -1.3731 -1.0620 -0.1964
  176SAPS  C21620080   5.303   3.903   4.538  0.1895  0.4501  0.2420
  176SAPS  H16R20081   5.224   3.883   4.463  0.6990  2.0250 -0.7744
  176SAPS  H16S20082   5.381   3.956   4.480 -2.9513  3.0803 -1.9770
  176SAPS  C21720083   5.258   4.005   4.638  0.2063  0.4835  0.2992
  176SAPS  H17R20084   5.255   4.095   4.572 -0.1148 -0.3202 -0.7935
  176SAPS  H17S20085   5.339   4.018   4.714  2.2287 -0.2245 -1.6306
  176SAPS  C21820086   5.122   3.963   4.705  0.0327 -0.5468  0.2520
  176SAPS  H18R20087   5.130   3.864   4.755  2.1597 -0.6497 -0.2016
  176SAPS  H18S20088   5.044   3.947   4.628 -0.1431  2.1463 -0.2509
  176SAPS  C21920089   5.076   4.071   4.808 -0.6774  0.4880  0.0844
  176SAPS  H19R20090   5.147   4.057   4.893 -1.5323 -0.1920  0.7069
  176SAPS  H19S20091   4.973   4.037   4.831 -1.1592  0.7003 -1.6246
  176SAPS  C22020092   5.079   4.226   4.781 -0.0576 -0.2368 -0.1302
  176SAPS  H20R20093   5.182   4.265   4.795 -0.7135  0.6201  3.1362
  176SAPS  H20S20094   5.022   4.295   4.845  1.6288  0.2765  0.8863
  176SAPS  H20T20095   5.048   4.247   4.676  0.1406 -0.4989 -0.2446
  176SAPS   C3320096   5.551   4.201   3.511 -0.3675  0.2986  0.0176
  176SAPS   H3X20097   5.560   4.290   3.577 -0.2329  1.2384 -1.2330
  176SAPS   H3Y20098   5.652   4.170   3.479 -1.1764 -0.9212 -1.5104
  176SAPS   C3420099   5.481   4.078   3.589 -0.7965 -0.4795  0.1003
  176SAPS   H4X20100   5.485   3.988   3.524 -1.4207 -0.0674 -0.5205
  176SAPS   H4Y20101   5.378   4.115   3.608  0.8334  4.7792  0.4964
  176SAPS   C3520102   5.530   4.064   3.740  0.0892 -0.5820 -0.3224
  176SAPS   H5X20103   5.513   4.165   3.784  2.2314  1.2070 -3.2129
  176SAPS   H5Y20104   5.639   4.044   3.734  0.2191  0.1839 -0.6939
  176SAPS   C3620105   5.441   3.966   3.817  0.3795  0.2152  0.1101
  176SAPS   H6X20106   5.493   3.871   3.841  0.4412  0.2525  0.1249
  176SAPS   H6Y20107   5.359   3.942   3.747  0.6090 -1.7721  0.4679
  176SAPS   C3720108   5.364   4.022   3.942 -0.6735 -0.0770 -0.2013
  176SAPS   H7X20109   5.269   3.968   3.962 -0.1142 -1.5846 -1.4026
  176SAPS   H7Y20110   5.335   4.126   3.916 -1.5589 -0.6132 -1.4866
  176SAPS   C3820111   5.443   4.033   4.070  0.1249 -0.0298 -0.1317
  176SAPS   H8X20112   5.520   4.106   4.037  1.4235 -0.5760  1.5132
  176SAPS   H8Y20113   5.487   3.935   4.101 -0.1157 -0.5091 -1.2450
  176SAPS   C3920114   5.346   4.093   4.169 -0.2892 -0.5835 -0.6981
  176SAPS   H9X20115   5.281   4.012   4.208  1.2158 -1.7622 -0.5498
  176SAPS   H9Y20116   5.294   4.180   4.123  1.9431 -0.0311 -2.3145
  176SAPS  C31020117   5.414   4.156   4.297  0.3122 -0.6771  0.4281
  176SAPS  H10X20118   5.496   4.088   4.330 -0.1699 -1.6228 -0.2622
  176SAPS  H10Y20119   5.334   4.162   4.374  2.5269  0.1089  2.8174
  176SAPS  C31120120   5.458   4.303   4.264  0.4788  0.0470  0.0748
  176SAPS  H11X20121   5.368   4.366   4.246 -0.1693 -0.3145  1.8998
  176SAPS  H11Y20122   5.517   4.293   4.170  0.8105  0.4898  0.2315
  176SAPS  C31220123   5.536   4.346   4.392 -0.0458 -0.1213  0.1195
  176SAPS  H12X20124   5.589   4.443   4.376 -0.1793 -0.2158 -1.0186
  176SAPS  H12Y20125   5.615   4.270   4.407 -0.0209 -0.3691 -1.1292
  176SAPS  C31320126   5.448   4.354   4.513 -0.1160 -0.4827 -0.1914
  176SAPS  H13X20127   5.417   4.254   4.548  0.7632  0.0651  2.3443
  176SAPS  H13Y20128   5.359   4.416   4.489 -0.7981 -0.8037  1.4240
  176SAPS  C31420129   5.514   4.421   4.634 -0.7753  0.3345 -0.1325
  176SAPS  H14X20130   5.565   4.508   4.587  0.9569 -0.6324 -0.1297
  176SAPS  H14Y20131   5.610   4.377   4.670 -0.0472  1.9447 -0.0271
  176SAPS  C31520132   5.418   4.459   4.743 -0.3278 -0.2660 -0.5376
  176SAPS  H15X20133   5.383   4.366   4.793  1.5998  0.2817  2.1094
  176SAPS  H15Y20134   5.324   4.504   4.704 -0.1233 -2.0813 -3.3842
  176SAPS  C31620135   5.476   4.568   4.830 -0.6097 -0.3326 -0.2624
  176SAPS  H16X20136   5.506   4.649   4.760  0.6661 -0.4169  0.1500
  176SAPS  H16Y20137   5.569   4.535   4.881 -0.6067  0.4602  0.2778
  176SAPS  C31720138   5.377   4.611   4.937 -0.0604  0.5337 -0.1386
  176SAPS  H17X20139   5.304   4.672   4.879 -0.2042  0.0872 -0.4338
  176SAPS  H17Y20140   5.428   4.685   5.002 -0.9193 -0.7336  2.0564
  176SAPS  C31820141   5.307   4.503   5.022  0.9459  0.0197 -0.2208
  176SAPS  H18X20142   5.379   4.438   5.077 -0.8087  0.5302  2.8833
  176SAPS  H18Y20143   5.241   4.437   4.963  1.4880 -1.1398  0.4300
  176SAPS  H18Z20144   5.228   4.542   5.089  0.0914 -1.4455 -0.3350
  177SAPS     N20145   6.695   6.292   3.121  0.2062 -0.3020  0.4847
  177SAPS   HN120146   6.710   6.321   3.022  0.0608 -1.2656  0.1745
  177SAPS   HN220147   6.619   6.221   3.123 -0.6022  0.4574 -1.2661
  177SAPS   HN320148   6.665   6.375   3.177 -0.5945 -1.3317  1.6268
  177SAPS   C1220149   6.820   6.240   3.165 -0.4862 -0.2892  0.1584
  177SAPS  H12A20150   6.836   6.151   3.106 -2.4128  0.7756 -2.1585
  177SAPS   C1320151   6.949   6.321   3.126  0.0886 -0.3114  0.0728
  177SAPS  O13A20152   6.926   6.424   3.057 -0.8040  0.4272 -0.1288
  177SAPS  O13B20153   7.059   6.265   3.119 -0.3371  0.8925 -0.2402
  177SAPS   C1120154   6.808   6.204   3.313 -0.3989  0.0492  0.0575
  177SAPS  H11A20155   6.809   6.294   3.378 -1.0052 -0.2397  0.4755
  177SAPS  H11B20156   6.894   6.138   3.337 -0.4528  0.0559  0.2698
  177SAPS     P20157   6.645   6.025   3.432  0.3923  0.0230 -0.2074
  177SAPS   O1320158   6.497   6.020   3.444  0.0452 -0.0562  0.2827
  177SAPS   O1420159   6.714   5.898   3.404  0.7624 -0.2042 -0.4786
  177SAPS   O1220160   6.691   6.131   3.329  0.1342  0.3661  0.0296
  177SAPS   O1120161   6.703   6.085   3.569  0.1954  0.0269  0.4035
  177SAPS    C120162   6.664   6.215   3.617 -0.1083 -0.3451  0.2817
  177SAPS    HA20163   6.727   6.284   3.557  0.7443  0.5672  2.1318
  177SAPS    HB20164   6.557   6.243   3.607 -0.1285  0.3489  2.0498
  177SAPS    C220165   6.690   6.233   3.769 -0.0064  0.5736  0.1569
  177SAPS    HS20166   6.685   6.342   3.793  0.6073  0.7586 -0.5320
  177SAPS   O2120167   6.814   6.172   3.805 -0.0662 -0.2159 -0.1512
  177SAPS   C2120168   6.926   6.223   3.751 -0.7017  0.0618 -0.1999
  177SAPS   O2220169   6.929   6.310   3.671  0.1601  0.2214 -0.0283
  177SAPS   C2220170   7.047   6.138   3.800 -0.1575 -0.0026 -0.5851
  177SAPS   H2R20171   7.017   6.107   3.902 -1.3434 -0.7799 -1.1381
  177SAPS   H2S20172   7.054   6.055   3.726 -1.0914  0.4318 -1.2005
  177SAPS    C320173   6.576   6.170   3.855  0.6206  0.7013  0.1729
  177SAPS    HX20174   6.560   6.063   3.830  1.8795  0.2985  0.9704
  177SAPS    HY20175   6.482   6.217   3.821 -0.6334 -0.4833  1.7894
  177SAPS   O3120176   6.589   6.181   3.996 -0.4729  0.5025 -0.2141
  177SAPS   C3120177   6.627   6.067   4.067 -0.0810 -0.2715 -0.9320
  177SAPS   O3220178   6.666   5.968   4.011 -0.5587  0.1847  0.1169
  177SAPS   C3220179   6.617   6.097   4.216 -0.2979  0.6943 -0.3026
  177SAPS   H2X20180   6.509   6.093   4.238  0.1754  0.4632  2.3132
  177SAPS   H2Y20181   6.650   6.203   4.222  0.0818  0.6124 -0.8726
  177SAPS   C2320182   7.182   6.219   3.817  0.2539 -0.8842  0.1795
  177SAPS   H3R20183   7.214   6.258   3.717  1.6324 -0.5584  0.7245
  177SAPS   H3S20184   7.261   6.144   3.839  0.9127 -0.3984 -0.4631
  177SAPS   C2420185   7.177   6.317   3.936  0.5059  0.3487 -0.2037
  177SAPS   H4R20186   7.280   6.357   3.950  0.2792  1.7127 -2.0517
  177SAPS   H4S20187   7.147   6.250   4.019 -0.0260  0.5061 -0.2713
  177SAPS   C2520188   7.077   6.431   3.932  0.3757 -0.3589 -0.0254
  177SAPS   H5R20189   7.086   6.495   3.844  0.3292 -0.1366  0.1296
  177SAPS   C2620190   7.007   6.473   4.041 -0.4385 -0.6359  0.7206
  177SAPS   H6R20191   6.949   6.565   4.027  1.4205  0.0954 -4.4290
  177SAPS   C2720192   6.998   6.406   4.174 -0.3486  0.8471 -1.1085
  177SAPS   H7R20193   6.990   6.297   4.150 -1.7818  0.6989 -0.0469
  177SAPS   H7S20194   6.902   6.439   4.218  0.7485  1.2312  1.1136
  177SAPS   C2820195   7.118   6.414   4.269  0.1080 -0.8686  0.1655
  177SAPS   H8R20196   7.215   6.428   4.219  0.2908 -0.7081  0.5604
  177SAPS   C2920197   7.110   6.392   4.405 -0.5538  0.0669  0.0101
  177SAPS   H9R20198   7.199   6.422   4.462 -1.3910 -1.1615  2.0761
  177SAPS  C21020199   6.993   6.354   4.488 -0.5280 -0.3557 -0.2869
  177SAPS  H10R20200   6.896   6.347   4.433 -0.8534 -0.3297  0.2735
  177SAPS  H10S20201   6.987   6.424   4.574  0.6791  2.5096 -2.3984
  177SAPS  C21120202   7.026   6.214   4.555 -0.6318 -0.2224  0.3825
  177SAPS  H11R20203   7.000   6.124   4.498 -1.2808 -1.2673  2.2733
  177SAPS  C21220204   7.103   6.205   4.669  0.4033  0.5437 -0.1650
  177SAPS  H12R20205   7.126   6.107   4.714  1.3351  0.5102 -0.6836
  177SAPS  C21320206   7.162   6.315   4.748  0.3235  0.1891  0.4151
  177SAPS  H13R20207   7.103   6.342   4.838  0.7077 -1.4387  1.1989
  177SAPS  H13S20208   7.162   6.410   4.692  0.9185 -0.5195 -0.8322
  177SAPS  C21420209   7.305   6.282   4.808  0.1885 -0.0185 -0.6327
  177SAPS  H14R20210   7.387   6.320   4.746  0.0449 -0.5983 -1.1910
  177SAPS  C21520211   7.322   6.186   4.904  0.1492 -0.3180  0.4753
  177SAPS  H15R20212   7.426   6.171   4.935 -0.1584 -1.8413  0.8209
  177SAPS  C21620213   7.217   6.128   4.985 -0.4384  0.9011  0.4013
  177SAPS  H16R20214   7.239   6.020   4.996  0.3912  1.0952  0.7370
  177SAPS  H16S20215   7.112   6.132   4.949  0.2079  1.0431 -1.5877
  177SAPS  C21720216   7.237   6.173   5.129 -0.2148 -0.0299 -0.6628
  177SAPS  H17R20217   7.231   6.284   5.140  3.1827  0.1652  0.5008
  177SAPS  H17S20218   7.334   6.134   5.166 -0.5647 -0.2860  0.0039
  177SAPS  C21820219   7.124   6.122   5.222  0.8223  0.6870 -0.3434
  177SAPS  H18R20220   7.136   6.012   5.231 -1.4795  0.4317  0.2092
  177SAPS  H18S20221   7.019   6.145   5.197  0.7266  0.2569 -0.3371
  177SAPS  C21920222   7.136   6.163   5.372 -0.1141  0.0474  0.4878
  177SAPS  H19R20223   7.120   6.273   5.370 -1.2420 -0.1093  0.6394
  177SAPS  H19S20224   7.243   6.138   5.389  0.0155 -0.0808 -0.4665
  177SAPS  C22020225   7.029   6.105   5.468 -0.4948 -0.1790  0.3427
  177SAPS  H20R20226   7.028   5.996   5.447 -0.8632 -0.2562  0.7333
  177SAPS  H20S20227   6.929   6.151   5.452 -0.3051  1.1821  2.5405
  177SAPS  H20T20228   7.062   6.122   5.573 -1.5652 -0.6797  0.7750
  177SAPS   C3320229   6.707   6.012   4.309 -0.4846 -0.2294  0.4294
  177SAPS   H3X20230   6.811   6.012   4.267 -0.2549  1.1270  0.9404
  177SAPS   H3Y20231   6.677   5.906   4.298 -0.3632 -0.4068  1.6667
  177SAPS   C3420232   6.721   6.067   4.451  0.3402  0.1983 -0.6657
  177SAPS   H4X20233   6.754   6.173   4.454 -2.0562  0.9732  1.1728
  177SAPS   H4Y20234   6.802   6.007   4.497 -0.6845 -1.3809 -0.8602
  177SAPS   C3520235   6.596   6.052   4.534 -0.3955  0.5324  0.5317
  177SAPS   H5X20236   6.576   5.943   4.521  0.2503  0.4523  0.1976
  177SAPS   H5Y20237   6.511   6.116   4.502 -0.0954  0.1091 -1.2017
  177SAPS   C3620238   6.623   6.069   4.687 -0.0006  0.0738 -0.1939
  177SAPS   H6X20239   6.653   6.175   4.705 -0.3367  0.0325  0.6383
  177SAPS   H6Y20240   6.707   5.997   4.697 -1.2502 -1.4951 -0.5846
  177SAPS   C3720241   6.498   6.035   4.761 -0.0285  0.4773 -0.1230
  177SAPS   H7X20242   6.462   5.932   4.739  1.7612 -0.1683 -0.1584
  177SAPS   H7Y20243   6.414   6.105   4.742 -0.2322  0.1520 -0.4232
  177SAPS   C3820244   6.509   6.037   4.915  0.5006  0.2456  0.2095
  177SAPS   H8X20245   6.408   6.018   4.956 -0.1371  0.1990 -1.3549
  177SAPS   H8Y20246   6.513   6.141   4.953 -1.9349  0.1648  0.8021
  177SAPS   C3920247   6.625   5.963   4.979  0.3224  0.1200  0.1180
  177SAPS   H9X20248   6.722   6.006   4.947 -0.0017  0.9701  0.2261
  177SAPS   H9Y20249   6.623   5.856   4.950 -2.6344  0.1010  0.1241
  177SAPS  C31020250   6.617   5.974   5.131 -0.6002 -0.1833 -0.6397
  177SAPS  H10X20251   6.520   5.936   5.169  1.6666 -2.6351  3.3906
  177SAPS  H10Y20252   6.633   6.080   5.160 -2.1482 -0.3153  0.8155
  177SAPS  C31120253   6.716   5.874   5.198 -0.2757 -0.5624  0.4668
  177SAPS  H11X20254   6.817   5.906   5.166 -0.4389 -0.6626 -0.1528
  177SAPS  H11Y20255   6.697   5.771   5.161  0.4857  0.0675 -1.8188
  177SAPS  C31220256   6.704   5.879   5.351 -0.0841 -0.2906 -0.7367
  177SAPS  H12X20257   6.666   5.980   5.375  3.1748  1.1100 -0.9669
  177SAPS  H12Y20258   6.799   5.865   5.406  0.7573  1.4874 -1.6571
  177SAPS  C31320259   6.598   5.780   5.405  0.5997 -0.4055 -0.1731
  177SAPS  H13X20260   6.633   5.678   5.377 -0.2136 -0.8068  0.2240
  177SAPS  H13Y20261   6.500   5.800   5.357  0.3736 -0.0912  0.4068
  177SAPS  C31420262   6.592   5.781   5.558  0.3763  0.7857  0.2980
  177SAPS  H14X20263   6.611   5.886   5.591  2.0697  0.7442 -0.4444
  177SAPS  H14Y20264   6.670   5.713   5.598 -2.7487 -1.9405  2.3144
  177SAPS  C31520265   6.461   5.720   5.597  0.5527 -1.1724 -0.3413
  177SAPS  H15X20266   6.384   5.784   5.548  1.0796 -0.2541  0.0036
  177SAPS  H15Y20267   6.452   5.719   5.708 -3.6830 -2.7149 -0.5123
  177SAPS  C31620268   6.439   5.573   5.544 -0.7448 -0.1296 -0.1082
  177SAPS  H16X20269   6.537   5.523   5.556 -0.8541 -0.0306  1.2455
  177SAPS  H16Y20270   6.427   5.573   5.433 -2.5585  1.4305  0.0366
  177SAPS  C31720271   6.342   5.494   5.629 -0.7404 -0.6588 -0.4394
  177SAPS  H17X20272   6.249   5.543   5.665 -1.2260 -2.6146  1.0852
  177SAPS  H17Y20273   6.390   5.477   5.728 -0.7005  0.8309 -0.1669
  177SAPS  C31820274   6.298   5.364   5.574 -0.0667  0.1248  1.2262
  177SAPS  H18X20275   6.236   5.378   5.482  0.5640  1.3629  0.9697
  177SAPS  H18Y20276   6.231   5.316   5.648 -1.1630  1.9833  1.5094
  177SAPS  H18Z20277   6.386   5.298   5.563 -1.6081 -1.8723  0.2560
  178SAPS     N20278   4.347   2.259   2.534 -0.2156 -0.6044 -0.7956
  178SAPS   HN120279   4.271   2.292   2.597 -0.7567 -0.0288 -1.7389
  178SAPS   HN220280   4.438   2.301   2.565 -0.6406  1.0682 -1.6690
  178SAPS   HN320281   4.319   2.304   2.445 -0.1555 -2.3806 -1.7509
  178SAPS   C1220282   4.353   2.111   2.526  0.0133  0.0700  1.0620
  178SAPS  H12A20283   4.252   2.077   2.511 -0.0018 -0.3091  1.9946
  178SAPS   C1320284   4.448   2.058   2.410  0.6604  0.9343  0.6937
  178SAPS  O13A20285   4.511   2.147   2.346  0.1496 -0.6937 -0.1825
  178SAPS  O13B20286   4.461   1.934   2.387 -0.2735  0.0782 -0.1506
  178SAPS   C1120287   4.408   2.056   2.663 -0.5890 -0.8033 -0.0917
  178SAPS  H11A20288   4.431   1.947   2.665  1.9658 -0.3283  0.7646
  178SAPS  H11B20289   4.323   2.073   2.732 -1.6032 -0.2770 -1.4382
  178SAPS     P20290   4.587   2.115   2.848 -0.2042  0.5055  0.1719
  178SAPS   O1320291   4.612   1.971   2.874 -0.2853  0.3483 -0.5667
  178SAPS   O1420292   4.707   2.205   2.862 -0.0805 -0.4070  0.5469
  178SAPS   O1220293   4.528   2.124   2.697  0.0642  0.7000 -0.2856
  178SAPS   O1120294   4.472   2.170   2.935 -0.1144  0.0791 -0.0215
  178SAPS    C120295   4.422   2.300   2.907  0.9621  0.2277 -0.0533
  178SAPS    HA20296   4.469   2.360   2.826 -2.9284  2.2808 -1.0312
  178SAPS    HB20297   4.312   2.299   2.892  0.5046  3.6636  2.1413
  178SAPS    C220298   4.451   2.391   3.026 -0.1447 -0.8170 -0.2801
  178SAPS    HS20299   4.560   2.412   3.020 -0.0357 -1.7887 -2.6520
  178SAPS   O2120300   4.413   2.329   3.151  0.7511  0.3164  0.1680
  178SAPS   C2120301   4.495   2.346   3.250 -0.1708 -0.0879 -0.7446
  178SAPS   O2220302   4.583   2.431   3.256  0.5451  0.0942  0.7191
  178SAPS   C2220303   4.458   2.250   3.360  0.2660 -0.4112  0.2309
  178SAPS   H2R20304   4.368   2.192   3.329 -0.4389 -0.3491  2.0637
  178SAPS   H2S20305   4.546   2.184   3.378 -0.9593 -2.5443 -1.1534
  178SAPS    C320306   4.377   2.525   2.999  0.3024  0.0071  0.0462
  178SAPS    HX20307   4.284   2.508   2.940 -0.0961  0.5586  0.5081
  178SAPS    HY20308   4.440   2.586   2.931 -1.0715 -0.1269 -1.4214
  178SAPS   O3120309   4.353   2.598   3.120 -0.0983 -0.7745  0.1804
  178SAPS   C3120310   4.233   2.587   3.173  0.0083 -0.2856  0.7899
  178SAPS   O3220311   4.142   2.509   3.139  0.4716  0.5449  0.1601
  178SAPS   C3220312   4.214   2.698   3.274  0.1533  0.0353  0.2654
  178SAPS   H2X20313   4.167   2.788   3.227 -0.1139  1.0101  2.2682
  178SAPS   H2Y20314   4.318   2.722   3.305  0.0887  1.4466 -0.5121
  178SAPS   C2320315   4.412   2.332   3.479  0.6947  0.1516 -0.3706
  178SAPS   H3R20316   4.338   2.406   3.441 -0.4582 -0.3629  0.8079
  178SAPS   H3S20317   4.496   2.398   3.510  0.2707  0.7142 -0.3982
  178SAPS   C2420318   4.362   2.256   3.602 -0.3579  0.7619 -0.7244
  178SAPS   H4R20319   4.436   2.176   3.624  0.3935  1.6544  0.0653
  178SAPS   H4S20320   4.269   2.202   3.574 -0.1104 -1.0480  1.6668
  178SAPS   C2520321   4.337   2.350   3.721  0.3645 -0.7984  0.3714
  178SAPS   H5R20322   4.253   2.421   3.711  4.0920  3.9557 -1.0484
  178SAPS   C2620323   4.414   2.366   3.831  0.5037  0.1343 -0.1702
  178SAPS   H6R20324   4.389   2.443   3.905  0.8507  1.3031 -1.2304
  178SAPS   C2720325   4.540   2.289   3.868 -0.0605 -0.2101  0.2661
  178SAPS   H7R20326   4.611   2.281   3.783 -1.2463 -1.5321 -0.6638
  178SAPS   H7S20327   4.512   2.187   3.904  2.2151 -0.5022  1.4403
  178SAPS   C2820328   4.613   2.353   3.981 -0.7796  0.5555 -0.6123
  178SAPS   H8R20329   4.671   2.439   3.943  1.9090 -1.1154 -0.5188
  178SAPS   C2920330   4.627   2.317   4.110 -0.4926  0.5738 -0.6823
  178SAPS   H9R20331   4.694   2.380   4.170  1.1234 -0.7451 -1.0328
  178SAPS  C21020332   4.557   2.209   4.187 -0.0707 -0.1924 -0.7282
  178SAPS  H10R20333   4.605   2.187   4.284 -0.4293  1.4184 -0.1584
  178SAPS  H10S20334   4.549   2.121   4.119 -0.5470  1.1204 -2.4607
  178SAPS  C21120335   4.414   2.253   4.214 -0.2373 -0.1466  0.7211
  178SAPS  H11R20336   4.384   2.355   4.187 -0.9157 -0.6708 -0.5741
  178SAPS  C21220337   4.322   2.176   4.283  0.1879  0.2173 -0.2697
  178SAPS  H12R20338   4.222   2.220   4.293  0.0972 -0.2819  1.2335
  178SAPS  C21320339   4.348   2.041   4.346  0.5269  0.2880  0.1631
  178SAPS  H13R20340   4.437   2.042   4.412 -0.5253 -1.7825  1.7433
  178SAPS  H13S20341   4.376   1.974   4.262 -0.2217  0.7930 -0.5050
  178SAPS  C21420342   4.235   1.978   4.428  0.2072 -0.1311  0.7472
  178SAPS  H14R20343   4.172   1.913   4.365  0.9151 -0.8765  0.7847
  178SAPS  C21520344   4.204   2.003   4.558 -0.7653  0.8305  0.9129
  178SAPS  H15R20345   4.111   1.959   4.597 -1.2354 -0.0091 -1.0213
  178SAPS  C21620346   4.291   2.095   4.650  0.8517  0.4520  0.2159
  178SAPS  H16R20347   4.229   2.112   4.740  4.7893  1.5985  2.9671
  178SAPS  H16S20348   4.322   2.193   4.608  0.2717  0.1648 -0.9426
  178SAPS  C21720349   4.411   2.027   4.711 -0.5340 -0.0329  0.3520
  178SAPS  H17R20350   4.473   2.100   4.767 -1.3312  2.3528 -1.6649
  178SAPS  H17S20351   4.474   1.993   4.626 -0.0754 -1.0909  1.1028
  178SAPS  C21820352   4.371   1.893   4.785 -0.2463  0.0355 -0.5160
  178SAPS  H18R20353   4.463   1.831   4.796 -0.7785 -0.5991  0.4802
  178SAPS  H18S20354   4.289   1.841   4.731 -1.7374  1.5625  0.1633
  178SAPS  C21920355   4.316   1.917   4.921 -0.2091  0.0844  0.3684
  178SAPS  H19R20356   4.231   1.985   4.902  0.9768  1.9747  1.5166
  178SAPS  H19S20357   4.368   1.977   4.998 -0.8088 -0.6209  1.3394
  178SAPS  C22020358   4.278   1.792   4.998 -0.0858  0.0092 -0.5715
  178SAPS  H20R20359   4.194   1.746   4.942  0.9545 -2.3468 -0.2995
  178SAPS  H20S20360   4.249   1.801   5.105  1.0515  0.9163 -0.3112
  178SAPS  H20T20361   4.362   1.720   5.003 -1.3450 -1.5628 -1.0274
  178SAPS   C3320362   4.141   2.669   3.407  0.0205  0.6298 -0.4149
  178SAPS   H3X20363   4.218   2.619   3.470  0.0859  2.0163  0.6803
  178SAPS   H3Y20364   4.052   2.605   3.394  0.5388 -0.0320 -0.7338
  178SAPS   C3420365   4.094   2.803   3.479 -0.0460  0.3502  0.1545
  178SAPS   H4X20366   4.052   2.858   3.393  1.4770  1.7464  0.2585
  178SAPS   H4Y20367   4.182   2.863   3.511  0.6782  1.0199 -2.7733
  178SAPS   C3520368   4.020   2.788   3.610  0.6928 -0.0845  0.3171
  178SAPS   H5X20369   3.945   2.706   3.605 -3.0017  2.6786  3.5169
  178SAPS   H5Y20370   3.964   2.881   3.634 -1.5022 -1.4178  0.6429
  178SAPS   C3620371   4.108   2.761   3.731 -0.4952 -0.0889 -0.1375
  178SAPS   H6X20372   4.181   2.839   3.760 -0.0515 -0.9310  1.0977
  178SAPS   H6Y20373   4.174   2.676   3.706  0.3524  0.0993  1.3429
  178SAPS   C3720374   4.023   2.715   3.852  0.0399 -0.0994  0.6055
  178SAPS   H7X20375   3.925   2.683   3.812  0.3454 -1.0472  0.5799
  178SAPS   H7Y20376   3.999   2.800   3.918 -0.8212  0.5357 -0.4815
  178SAPS   C3820377   4.074   2.598   3.941  0.1440 -0.1456 -0.1385
  178SAPS   H8X20378   4.164   2.621   4.002 -0.0342 -1.3127  0.5823
  178SAPS   H8Y20379   4.110   2.528   3.863 -0.3963  1.2817 -1.7511
  178SAPS   C3920380   3.965   2.524   4.013 -0.2283  0.2674 -1.0383
  178SAPS   H9X20381   4.009   2.431   4.057  0.1212 -0.1456 -2.2208
  178SAPS   H9Y20382   3.891   2.487   3.939 -1.1212  0.2439 -0.1571
  178SAPS  C31020383   3.892   2.616   4.114 -0.2059 -0.4151  0.5267
  178SAPS  H10X20384   3.800   2.565   4.152 -0.7182 -0.7220 -1.0492
  178SAPS  H10Y20385   3.861   2.708   4.060  3.0690  0.5449  0.0806
  178SAPS  C31120386   3.982   2.636   4.241 -0.7597 -0.0255  0.0662
  178SAPS  H11X20387   3.945   2.727   4.293  1.2688  1.5954 -1.1836
  178SAPS  H11Y20388   4.086   2.669   4.218 -1.4448  1.3385 -1.2213
  178SAPS  C31220389   3.992   2.509   4.329  0.8171  0.3528 -0.4183
  178SAPS  H12X20390   4.037   2.425   4.272  0.1568  1.2686 -2.4218
  178SAPS  H12Y20391   3.889   2.474   4.355  0.3995  0.6956 -1.5115
  178SAPS  C31320392   4.060   2.526   4.463  0.2277  0.0921 -0.3242
  178SAPS  H13X20393   4.167   2.553   4.449  0.5415 -1.2167 -0.6474
  178SAPS  H13Y20394   4.057   2.428   4.515  0.2814 -0.2400 -0.9351
  178SAPS  C31420395   3.994   2.640   4.554 -0.0504 -0.0830  0.1559
  178SAPS  H14X20396   3.890   2.619   4.584 -0.3314  1.7820  0.5465
  178SAPS  H14Y20397   3.989   2.737   4.501 -0.0197 -0.6336 -0.8828
  178SAPS  C31520398   4.084   2.680   4.676 -1.1821 -0.4990  0.1905
  178SAPS  H15X20399   4.159   2.752   4.638 -0.9599 -0.6580  0.3239
  178SAPS  H15Y20400   4.144   2.587   4.690  2.0589  1.4396  0.2481
  178SAPS  C31620401   4.016   2.740   4.793  0.4524  0.0868 -0.3493
  178SAPS  H16X20402   3.939   2.671   4.835  0.5173  0.3318  0.1736
  178SAPS  H16Y20403   3.960   2.824   4.746  0.6463  0.4633  0.0879
  178SAPS  C31720404   4.100   2.785   4.914 -0.3652 -0.3512  0.6572
  178SAPS  H17X20405   4.179   2.855   4.879 -1.1397  1.0783  1.6662
  178SAPS  H17Y20406   4.153   2.695   4.951  1.9154  0.1426 -1.1647
  178SAPS  C31820407   4.013   2.857   5.019 -0.0352  0.6206 -0.5814
  178SAPS  H18X20408   4.056   2.836   5.119 -1.4860  0.0206 -0.0603
  178SAPS  H18Y20409   3.912   2.813   5.034 -0.1284  0.0773 -2.5090
  178SAPS  H18Z20410   4.012   2.965   4.995 -0.6053  1.0751  1.3566
  179SAPS     N20411   5.985   3.660   2.857 -0.1319  0.5566 -0.3088
  179SAPS   HN120412   6.054   3.737   2.854 -2.2940  2.6160  0.3155
  179SAPS   HN220413   5.899   3.680   2.802  1.4778 -1.2191 -3.8266
  179SAPS   HN320414   5.953   3.641   2.954 -0.1070 -2.0794 -0.7169
  179SAPS   C1220415   6.040   3.530   2.794 -0.9352 -0.2864 -0.5858
  179SAPS  H12A20416   6.043   3.557   2.689  1.2823  1.1041 -0.2273
  179SAPS   C1320417   6.191   3.501   2.834  0.6257 -0.3460  0.0955
  179SAPS  O13A20418   6.252   3.580   2.909  0.2841 -0.2338 -0.4352
  179SAPS  O13B20419   6.250   3.405   2.782  0.1283  0.0433  0.0288
  179SAPS   C1120420   5.946   3.409   2.822 -0.5355  0.4188  0.2436
  179SAPS  H11A20421   5.911   3.411   2.927 -0.7561  2.2647  0.1550
  179SAPS  H11B20422   6.001   3.313   2.810 -0.9866  0.1925 -0.0941
  179SAPS     P20423   5.744   3.269   2.721 -0.1729 -0.3920 -0.1792
  179SAPS   O1320424   5.610   3.298   2.664  0.0415  0.2584  0.3111
  179SAPS   O1420425   5.830   3.179   2.638 -0.2828 -0.0966  0.3887
  179SAPS   O1220426   5.826   3.408   2.736  0.0339 -0.4510 -0.0751
  179SAPS   O1120427   5.737   3.203   2.867  0.1280  0.3784 -0.5850
  179SAPS    C120428   5.642   3.266   2.958 -0.0203  0.4635 -0.1721
  179SAPS    HA20429   5.676   3.366   2.993  0.2708 -0.0658  1.1026
  179SAPS    HB20430   5.541   3.262   2.912  0.4191 -2.1211 -1.0671
  179SAPS    C220431   5.626   3.189   3.092 -0.1230 -0.2264 -0.2358
  179SAPS    HS20432   5.574   3.259   3.161  1.3769  1.6012 -0.8725
  179SAPS   O2120433   5.756   3.152   3.140  0.3946 -0.4373  0.1535
  179SAPS   C2120434   5.824   3.254   3.183  0.2828 -0.4463 -0.2171
  179SAPS   O2220435   5.781   3.363   3.217  0.0607  0.2707 -0.4807
  179SAPS   C2220436   5.972   3.223   3.185  0.3427  0.7964 -0.2898
  179SAPS   H2R20437   5.983   3.118   3.220 -1.0853 -0.1709 -2.5292
  179SAPS   H2S20438   6.011   3.233   3.082  4.4587  1.0473  1.1056
  179SAPS    C320439   5.550   3.055   3.075 -0.2791 -0.4755  0.9803
  179SAPS    HX20440   5.562   2.994   3.167  1.2924 -0.8452  0.5591
  179SAPS    HY20441   5.603   3.009   2.989  0.4440  0.3976  0.9455
  179SAPS   O3120442   5.415   3.064   3.028  0.3479  0.2328  0.5935
  179SAPS   C3120443   5.327   3.076   3.129 -0.6201 -0.3444 -1.2078
  179SAPS   O3220444   5.364   3.085   3.247  0.2138  0.4507  0.1312
  179SAPS   C3220445   5.181   3.059   3.092 -0.5163  0.1486  0.1183
  179SAPS   H2X20446   5.167   2.952   3.064  2.0538 -0.3663  0.5436
  179SAPS   H2Y20447   5.165   3.127   3.006 -0.4967  0.2085  0.1618
  179SAPS   C2320448   6.060   3.329   3.258 -0.1652 -0.0732 -0.2002
  179SAPS   H3R20449   6.009   3.427   3.249  1.8107  1.0955  0.5880
  179SAPS   H3S20450   6.163   3.333   3.216 -1.8585 -0.4485 -4.9592
  179SAPS   C2420451   6.076   3.304   3.411 -0.4900  0.3875  0.1664
  179SAPS   H4R20452   5.985   3.327   3.471 -0.8464  0.9733 -0.5768
  179SAPS   H4S20453   6.151   3.374   3.454 -0.3267  0.7250 -0.6555
  179SAPS   C2520454   6.129   3.164   3.453  0.7684 -0.4560  0.7161
  179SAPS   H5R20455   6.179   3.114   3.368  1.6265  1.9648 -0.2760
  179SAPS   C2620456   6.126   3.097   3.573 -0.5383 -0.2091  0.1727
  179SAPS   H6R20457   6.157   2.992   3.577  0.7220  0.1447  0.1375
  179SAPS   C2720458   6.064   3.156   3.700  0.6246  0.6161 -0.6249
  179SAPS   H7R20459   6.055   3.074   3.774  3.0674 -0.1612 -1.0802
  179SAPS   H7S20460   5.958   3.177   3.674  0.7898  1.3940 -0.6993
  179SAPS   C2820461   6.133   3.276   3.754 -0.2906 -0.5691 -0.2433
  179SAPS   H8R20462   6.225   3.307   3.703 -0.8883 -0.8167 -1.4968
  179SAPS   C2920463   6.086   3.360   3.843 -0.1499  0.0352 -0.3232
  179SAPS   H9R20464   6.141   3.450   3.872  2.9878 -1.4762 -1.1877
  179SAPS  C21020465   5.960   3.348   3.927 -0.4820  0.3090  0.5473
  179SAPS  H10R20466   5.889   3.277   3.880  0.3471  1.0142 -1.9696
  179SAPS  H10S20467   5.905   3.444   3.934 -2.3927 -0.6011 -1.0713
  179SAPS  C21120468   6.010   3.287   4.054 -0.2575  0.1655  0.7124
  179SAPS  H11R20469   6.048   3.184   4.045 -0.3456  0.2938 -1.8370
  179SAPS  C21220470   6.019   3.342   4.176  0.2564  0.3344  0.9998
  179SAPS  H12R20471   6.052   3.287   4.265  0.9693  0.1316  0.6176
  179SAPS  C21320472   5.979   3.485   4.202  0.3538  0.2666 -0.2574
  179SAPS  H13R20473   5.874   3.490   4.237 -0.6849  0.0812 -3.0907
  179SAPS  H13S20474   5.981   3.544   4.108  0.1259 -0.2712 -0.6031
  179SAPS  C21420475   6.064   3.555   4.305 -0.0646 -0.0757  0.1414
  179SAPS  H14R20476   6.136   3.629   4.267 -0.9362  1.2185  0.9135
  179SAPS  C21520477   6.052   3.539   4.438  0.1679  0.9505 -0.2296
  179SAPS  H15R20478   6.124   3.587   4.506 -1.5164  0.1692  2.2571
  179SAPS  C21620479   5.951   3.452   4.506 -0.3145  0.1335  0.2053
  179SAPS  H16R20480   6.007   3.392   4.580  1.0107  0.1895 -0.7238
  179SAPS  H16S20481   5.895   3.382   4.439 -2.3477  1.3608  0.5257
  179SAPS  C21720482   5.846   3.539   4.577 -0.2606 -0.3468  0.0178
  179SAPS  H17R20483   5.782   3.581   4.497  0.7732 -1.2028 -1.3052
  179SAPS  H17S20484   5.888   3.630   4.623  0.9333 -0.2362 -1.2170
  179SAPS  C21820485   5.765   3.463   4.689 -0.2444  0.1876  0.0142
  179SAPS  H18R20486   5.834   3.394   4.742  0.5026  1.5275  0.8207
  179SAPS  H18S20487   5.697   3.396   4.631 -0.4634  1.7975 -1.6842
  179SAPS  C21920488   5.686   3.560   4.789 -0.6030 -0.5864  0.1399
  179SAPS  H19R20489   5.647   3.640   4.722 -0.7724 -1.2774 -0.6004
  179SAPS  H19S20490   5.757   3.597   4.866 -1.6113  2.0029 -0.0714
  179SAPS  C22020491   5.569   3.497   4.860 -0.1188  0.2181 -0.0730
  179SAPS  H20R20492   5.594   3.407   4.920 -1.6381  0.2110  0.5931
  179SAPS  H20S20493   5.498   3.465   4.782  2.0488  1.8305 -2.9046
  179SAPS  H20T20494   5.522   3.579   4.918  0.9355  0.5620  0.3286
  179SAPS   C3320495   5.082   3.077   3.205  0.3614  0.4150  0.3426
  179SAPS   H3X20496   4.977   3.060   3.174 -0.3344  4.8306 -0.2690
  179SAPS   H3Y20497   5.085   3.178   3.251  0.6020  0.5333  0.0711
  179SAPS   C3420498   5.092   2.974   3.312 -0.3664 -0.4499  0.3063
  179SAPS   H4X20499   5.193   2.979   3.360 -0.5179  0.3098  0.5695
  179SAPS   H4Y20500   5.083   2.876   3.261  0.4853 -1.2401  1.5912
  179SAPS   C3520501   5.002   2.980   3.437 -0.3541  0.0761  0.5201
  179SAPS   H5X20502   4.900   2.962   3.397 -1.0942  0.3672  2.2235
  179SAPS   H5Y20503   5.010   3.085   3.473  0.7304 -0.0358  0.6359
  179SAPS   C3620504   5.024   2.884   3.558 -1.0789 -0.2400  0.2927
  179SAPS   H6X20505   5.133   2.886   3.581 -0.9227 -0.2558 -0.4281
  179SAPS   H6Y20506   5.006   2.781   3.522  0.1707 -0.4316  0.1794
  179SAPS   C3720507   4.936   2.918   3.678  0.3369  0.4066 -0.0923
  179SAPS   H7X20508   4.831   2.917   3.642  0.6630 -0.6736 -1.0702
  179SAPS   H7Y20509   4.958   3.020   3.717  0.4799  0.3377  0.0089
  179SAPS   C3820510   4.949   2.822   3.794  0.7604 -0.2730 -0.5160
  179SAPS   H8X20511   5.058   2.798   3.799  1.3014  2.2268  1.5301
  179SAPS   H8Y20512   4.892   2.728   3.775 -0.2310 -0.1441  1.6033
  179SAPS   C3920513   4.898   2.883   3.931 -0.0299 -0.3046  0.0683
  179SAPS   H9X20514   4.792   2.912   3.917  0.2811  1.1861  0.5976
  179SAPS   H9Y20515   4.952   2.979   3.950 -0.8576  0.5212 -1.5938
  179SAPS  C31020516   4.917   2.796   4.058  0.2239  0.0635 -0.7400
  179SAPS  H10X20517   5.028   2.793   4.070 -0.0020 -2.3658  1.7320
  179SAPS  H10Y20518   4.863   2.700   4.054 -2.7448  1.6180 -0.4528
  179SAPS  C31120519   4.857   2.871   4.174 -0.0770 -0.9514 -0.8549
  179SAPS  H11X20520   4.751   2.891   4.148 -0.0193 -1.3902 -1.4427
  179SAPS  H11Y20521   4.912   2.967   4.176 -0.7340 -0.5775  0.4268
  179SAPS  C31220522   4.859   2.796   4.307  0.3355  0.3030  0.7305
  179SAPS  H12X20523   4.962   2.759   4.326  0.2681 -1.6169 -2.1429
  179SAPS  H12Y20524   4.797   2.704   4.305 -0.7013  0.9857  0.3564
  179SAPS  C31320525   4.810   2.886   4.423  0.0056 -0.6137  0.3175
  179SAPS  H13X20526   4.699   2.892   4.416 -0.0426 -0.5001  1.1245
  179SAPS  H13Y20527   4.860   2.985   4.415  0.6258 -0.9353  0.1418
  179SAPS  C31420528   4.844   2.815   4.553  0.4375  0.5139  0.5932
  179SAPS  H14X20529   4.943   2.767   4.564  0.4044 -0.0631 -1.2507
  179SAPS  H14Y20530   4.767   2.735   4.563 -0.5521  0.9737 -2.2567
  179SAPS  C31520531   4.830   2.916   4.669 -0.2096  0.3345  0.1867
  179SAPS  H15X20532   4.758   2.997   4.644  1.1038  1.9384  1.3511
  179SAPS  H15Y20533   4.930   2.967   4.668  0.0159 -0.1086 -0.0245
  179SAPS  C31620534   4.790   2.865   4.802  0.1482  0.2544 -0.8394
  179SAPS  H16X20535   4.703   2.796   4.790  0.2120  0.5249 -3.5282
  179SAPS  H16Y20536   4.763   2.955   4.861  1.2984 -1.0034  1.8100
  179SAPS  C31720537   4.901   2.786   4.874 -0.3392 -0.7176  0.1855
  179SAPS  H17X20538   5.001   2.835   4.874 -0.6964  0.0965 -1.8045
  179SAPS  H17Y20539   4.927   2.699   4.811  0.8256  0.2080 -0.6690
  179SAPS  C31820540   4.857   2.740   5.006 -0.3640  0.0189 -0.3653
  179SAPS  H18X20541   4.793   2.654   4.978  1.1143 -1.1894 -0.1693
  179SAPS  H18Y20542   4.790   2.805   5.067 -0.6377  0.0195 -0.6663
  179SAPS  H18Z20543   4.933   2.690   5.070 -0.0270 -0.0547 -0.8154
  180SAPS     N20544   6.379   1.697   3.233 -0.0188  0.0752 -0.1633
  180SAPS   HN120545   6.320   1.634   3.174 -0.6895  1.1792 -0.7013
  180SAPS   HN220546   6.468   1.647   3.254 -0.8071 -1.5666 -0.5902
  180SAPS   HN320547   6.326   1.711   3.322 -1.0350 -0.3569 -0.6816
  180SAPS   C1220548   6.404   1.828   3.169  0.5328  0.2545 -0.3278
  180SAPS  H12A20549   6.499   1.827   3.117  1.3687  0.2581  1.1271
  180SAPS   C1320550   6.295   1.866   3.060  0.0208 -0.2697  0.1446
  180SAPS  O13A20551   6.196   1.798   3.034  0.0719  0.1445  0.5378
  180SAPS  O13B20552   6.326   1.962   2.986 -0.3278  0.0614 -0.1752
  180SAPS   C1120553   6.421   1.932   3.285 -0.0096 -0.3363  0.1258
  180SAPS  H11A20554   6.323   1.947   3.335  0.6648 -2.0228  2.1214
  180SAPS  H11B20555   6.456   2.030   3.246 -1.3752 -0.0133 -0.3358
  180SAPS     P20556   6.654   1.933   3.425  0.6189  0.3109  0.0924
  180SAPS   O1320557   6.761   1.872   3.344 -0.8503 -0.7248  0.1614
  180SAPS   O1420558   6.656   2.084   3.428 -0.2408 -0.1181 -0.3930
  180SAPS   O1220559   6.509   1.875   3.380  0.1861 -0.3104  0.1528
  180SAPS   O1120560   6.671   1.868   3.563 -0.4248 -0.1229  0.1034
  180SAPS    C120561   6.565   1.830   3.648 -0.2100  0.0478  0.3551
  180SAPS    HA20562   6.500   1.757   3.596 -0.4187  0.5913 -0.1558
  180SAPS    HB20563   6.603   1.769   3.733 -0.6615 -0.0550  0.4850
  180SAPS    C220564   6.498   1.959   3.702 -0.1999  0.5852  0.2193
  180SAPS    HS20565   6.459   2.013   3.613  0.7701  1.4809  0.3230
  180SAPS   O2120566   6.592   2.041   3.767 -0.0582 -0.0552 -0.0453
  180SAPS   C2120567   6.544   2.154   3.808  0.0920 -0.5712 -0.2431
  180SAPS   O2220568   6.454   2.222   3.762 -0.1572  0.1899 -0.4073
  180SAPS   C2220569   6.646   2.204   3.909 -0.3819  0.6520  0.3894
  180SAPS   H2R20570   6.682   2.119   3.971 -0.8181  1.1244  1.3123
  180SAPS   H2S20571   6.732   2.254   3.859 -1.2915  1.0139 -0.8668
  180SAPS    C320572   6.386   1.923   3.808  1.1214  0.0590 -0.0944
  180SAPS    HX20573   6.319   1.849   3.760  0.2723  1.6040 -1.4140
  180SAPS    HY20574   6.318   2.011   3.814 -0.8168 -0.7889 -4.9525
  180SAPS   O3120575   6.440   1.882   3.933  0.2900  0.2269 -0.2482
  180SAPS   C3120576   6.351   1.859   4.032 -0.3686  0.6436  0.1049
  180SAPS   O3220577   6.229   1.872   4.016 -0.1929  0.2740 -0.4831
  180SAPS   C3220578   6.420   1.815   4.162  0.1359  0.0349 -0.4435
  180SAPS   H2X20579   6.518   1.867   4.157 -0.0216  0.6343  1.6608
  180SAPS   H2Y20580   6.455   1.711   4.144  2.9329  0.7857  0.2232
  180SAPS   C2320581   6.581   2.317   3.996  0.3292 -0.3800  0.4933
  180SAPS   H3R20582   6.519   2.392   3.942  1.5819 -0.1364 -0.6805
  180SAPS   H3S20583   6.675   2.368   4.028  1.3534 -3.2310  2.4005
  180SAPS   C2420584   6.521   2.265   4.123  0.6404  0.7861 -0.7870
  180SAPS   H4R20585   6.444   2.186   4.114 -1.0839  2.2543  0.3208
  180SAPS   H4S20586   6.469   2.350   4.173  0.7707  0.6804 -0.4643
  180SAPS   C2520587   6.620   2.202   4.221  0.3704 -1.0096  0.8135
  180SAPS   H5R20588   6.693   2.138   4.169  1.3952  0.7694  0.0034
  180SAPS   C2620589   6.652   2.249   4.342 -0.8943  0.2007 -0.1882
  180SAPS   H6R20590   6.722   2.187   4.401 -0.5242 -0.1439 -0.9765
  180SAPS   C2720591   6.579   2.358   4.417  0.9002 -1.0935  0.5033
  180SAPS   H7R20592   6.576   2.448   4.353 -1.4083 -0.1981  1.7811
  180SAPS   H7S20593   6.635   2.405   4.501  1.8937  0.3690 -0.9201
  180SAPS   C2820594   6.435   2.328   4.446 -0.1386 -0.4774 -0.5892
  180SAPS   H8R20595   6.374   2.356   4.358 -1.3920 -3.0701 -0.6245
  180SAPS   C2920596   6.386   2.259   4.551 -0.2584 -0.6016 -0.5222
  180SAPS   H9R20597   6.276   2.258   4.559 -0.4276 -0.5492 -2.3042
  180SAPS  C21020598   6.466   2.202   4.670  0.3858 -1.1239 -0.5128
  180SAPS  H10R20599   6.560   2.165   4.624  2.1887  0.8506  1.3283
  180SAPS  H10S20600   6.411   2.113   4.706  0.3175 -0.4833  1.0518
  180SAPS  C21120601   6.487   2.298   4.780  0.2595 -1.2623 -0.0656
  180SAPS  H11R20602   6.510   2.401   4.749 -1.6787 -0.9284 -0.4885
  180SAPS  C21220603   6.514   2.266   4.905 -0.1272 -0.1989  0.1870
  180SAPS  H12R20604   6.536   2.356   4.965 -0.4398 -0.9639  1.4962
  180SAPS  C21320605   6.496   2.129   4.976 -0.8505  0.0504  0.2293
  180SAPS  H13R20606   6.484   2.042   4.908  0.5015 -1.3105  1.6492
  180SAPS  H13S20607   6.412   2.133   5.048  0.0219  0.2185  1.2717
  180SAPS  C21420608   6.628   2.093   5.051 -0.7007 -0.0780 -0.1247
  180SAPS  H14R20609   6.722   2.104   4.994 -0.2742  3.4655  1.0233
  180SAPS  C21520610   6.635   2.056   5.184  0.7985  0.2055  0.6487
  180SAPS  H15R20611   6.733   2.034   5.230  0.1837 -1.5767  1.2230
  180SAPS  C21620612   6.521   2.035   5.285 -0.4141  0.0204 -0.6502
  180SAPS  H16R20613   6.510   1.929   5.318  2.7314 -0.2812 -0.2610
  180SAPS  H16S20614   6.428   2.061   5.231  0.4099  1.7310 -1.3245
  180SAPS  C21720615   6.523   2.120   5.403  0.7192 -0.1713 -0.7866
  180SAPS  H17R20616   6.629   2.114   5.437  0.4306 -0.3041  0.1199
  180SAPS  H17S20617   6.453   2.076   5.477 -0.6421  1.0443 -1.2981
  180SAPS  C21820618   6.489   2.272   5.378  0.5526  0.6010  0.4499
  180SAPS  H18R20619   6.381   2.289   5.360  0.3666 -0.7962  0.1420
  180SAPS  H18S20620   6.531   2.287   5.276  1.4799  2.8822  1.1100
  180SAPS  C21920621   6.551   2.363   5.484 -0.0345  0.6481  0.3088
  180SAPS  H19R20622   6.657   2.333   5.499 -0.4536 -2.1798 -1.6148
  180SAPS  H19S20623   6.511   2.345   5.587  0.6291  2.2599  0.8761
  180SAPS  C22020624   6.547   2.515   5.458 -0.5405 -0.0332  0.6620
  180SAPS  H20R20625   6.443   2.543   5.483 -0.5540  0.3419  0.2004
  180SAPS  H20S20626   6.613   2.573   5.525  1.8106  0.5940 -2.0217
  180SAPS  H20T20627   6.561   2.555   5.356 -0.8072  0.9868  1.0204
  180SAPS   C3320628   6.348   1.834   4.296 -0.0229 -0.3604  0.6718
  180SAPS   H3X20629   6.250   1.783   4.290 -0.2425  0.1880 -0.9339
  180SAPS   H3Y20630   6.332   1.943   4.310  3.4937  0.1407  1.9197
  180SAPS   C3420631   6.435   1.781   4.408  0.1779  0.7036 -0.1264
  180SAPS   H4X20632   6.535   1.830   4.400  0.7742 -0.7365 -2.7098
  180SAPS   H4Y20633   6.445   1.672   4.386  0.6945  0.7346 -0.0769
  180SAPS   C3520634   6.378   1.776   4.550 -0.0447  0.3502 -0.6670
  180SAPS   H5X20635   6.295   1.703   4.540 -0.8578  1.2910 -1.0183
  180SAPS   H5Y20636   6.333   1.876   4.572  0.8364  0.4990  0.5400
  180SAPS   C3620637   6.475   1.739   4.660 -0.5480  0.2417 -0.0661
  180SAPS   H6X20638   6.555   1.816   4.668 -1.1129  0.7447  0.8373
  180SAPS   H6Y20639   6.527   1.643   4.636  0.7289  1.3450 -2.0507
  180SAPS   C3720640   6.419   1.724   4.800 -0.5939 -0.0102  0.0399
  180SAPS   H7X20641   6.350   1.638   4.786  0.6830 -0.7607 -1.9884
  180SAPS   H7Y20642   6.366   1.817   4.830 -1.0800 -0.1300 -0.4457
  180SAPS   C3820643   6.529   1.692   4.901 -0.4644 -0.1368  0.1658
  180SAPS   H8X20644   6.613   1.765   4.898 -0.5435 -0.0223  0.5807
  180SAPS   H8Y20645   6.573   1.595   4.869 -0.4943  0.0151 -0.3351
  180SAPS   C3920646   6.475   1.682   5.046  0.3177  0.6256 -0.1404
  180SAPS   H9X20647   6.378   1.628   5.049  1.9259 -2.4907  0.9311
  180SAPS   H9Y20648   6.463   1.783   5.091  0.8801 -1.0432  4.2910
  180SAPS  C31020649   6.579   1.609   5.135 -0.3085 -0.1096  0.8428
  180SAPS  H10X20650   6.602   1.512   5.086  1.7696 -0.4175  2.3022
  180SAPS  H10Y20651   6.528   1.586   5.231  0.4071 -0.2014  1.2126
  180SAPS  C31120652   6.705   1.683   5.163  0.6042  0.0068 -0.5636
  180SAPS  H11X20653   6.685   1.784   5.206  1.8773  0.0450  0.0008
  180SAPS  H11Y20654   6.771   1.710   5.078 -1.0010  0.5437 -1.6774
  180SAPS  C31220655   6.792   1.624   5.284 -0.0598 -0.2453  0.8207
  180SAPS  H12X20656   6.848   1.537   5.244 -1.0369 -0.1662 -0.7984
  180SAPS  H12Y20657   6.723   1.588   5.364 -1.4750  1.4052  0.4174
  180SAPS  C31320658   6.895   1.721   5.342 -0.2002  0.2754  0.6113
  180SAPS  H13X20659   6.843   1.811   5.381 -2.4714 -0.9316  0.5747
  180SAPS  H13Y20660   6.961   1.753   5.258 -0.7396  1.9713  0.7916
  180SAPS  C31420661   6.978   1.658   5.459  0.6572 -0.2196 -0.8886
  180SAPS  H14X20662   7.020   1.561   5.426  3.9196  0.3154  1.1636
  180SAPS  H14Y20663   6.910   1.645   5.546  0.7004  0.1176 -0.8025
  180SAPS  C31520664   7.091   1.745   5.501 -0.2113 -0.2958  0.2013
  180SAPS  H15X20665   7.062   1.825   5.572  1.9665  3.0126 -2.3741
  180SAPS  H15Y20666   7.108   1.808   5.412 -1.2991  0.5178  0.5573
  180SAPS  C31620667   7.216   1.677   5.545 -0.9430 -0.0695  0.0710
  180SAPS  H16X20668   7.251   1.612   5.462  0.6961 -0.9025  1.3617
  180SAPS  H16Y20669   7.194   1.621   5.639 -1.2831 -1.1812 -0.6459
  180SAPS  C31720670   7.335   1.768   5.591 -0.3961 -0.4224 -0.2363
  180SAPS  H17X20671   7.347   1.846   5.514  0.1266  0.5347  0.7985
  180SAPS  H17Y20672   7.434   1.718   5.591 -0.1078  0.0974 -1.9654
  180SAPS  C31820673   7.305   1.837   5.726 -0.0630  0.3005  0.0064
  180SAPS  H18X20674   7.221   1.909   5.716 -1.0209 -0.5291  1.6276
  180SAPS  H18Y20675   7.392   1.895   5.763 -0.4280  1.5263 -0.9897
  180SAPS  H18Z20676   7.263   1.765   5.800 -1.8562  1.2088 -0.0754
  181POPC     N20677   4.474   4.420   7.477 -0.6936  0.3873  0.4300
  181POPC   C1220678   4.391   4.431   7.348 -0.0041 -0.1779 -0.8894
  181POPC  H12A20679   4.456   4.485   7.280  2.5569 -2.7981 -0.6972
  181POPC  H12B20680   4.302   4.486   7.374  0.1413 -0.1268 -0.4845
  181POPC   C1320681   4.585   4.321   7.464 -0.1430  0.0847  0.1889
  181POPC  H13A20682   4.657   4.348   7.389 -0.8650 -1.2618 -1.0391
  181POPC  H13B20683   4.640   4.308   7.556 -1.6282  0.3130  1.1518
  181POPC  H13C20684   4.551   4.223   7.434 -0.7477  0.5903 -0.8084
  181POPC   C1420685   4.532   4.562   7.501  0.2022 -0.1964  0.2077
  181POPC  H14A20686   4.574   4.593   7.407 -3.0350 -2.1608 -2.1228
  181POPC  H14B20687   4.453   4.632   7.524 -1.0001 -0.9652 -1.3696
  181POPC  H14C20688   4.598   4.566   7.586 -0.8709  2.1442  0.9992
  181POPC   C1520689   4.389   4.387   7.593 -0.0516 -0.2025 -0.9227
  181POPC  H15A20690   4.352   4.286   7.588 -3.1396  0.8112 -0.7465
  181POPC  H15B20691   4.301   4.450   7.594  0.5295  0.6254 -1.0685
  181POPC  H15C20692   4.440   4.406   7.686 -2.3242  1.2716  0.1047
  181POPC   C1120693   4.348   4.298   7.274  0.4320 -0.4343 -0.1498
  181POPC  H11A20694   4.432   4.228   7.254  1.6474  0.6917  0.8518
  181POPC  H11B20695   4.321   4.324   7.170  0.5729  2.2423  0.4076
  181POPC     P20696   4.101   4.301   7.361 -0.2769 -0.3825  0.3166
  181POPC   O1320697   4.116   4.431   7.430 -0.4490  0.6797 -0.6836
  181POPC   O1420698   4.000   4.206   7.420  0.5163 -0.9364  0.1266
  181POPC   O1220699   4.246   4.236   7.353 -0.2327  0.5484  0.1338
  181POPC   O1120700   4.067   4.331   7.209  0.2673  0.0646 -0.2781
  181POPC    C120701   4.024   4.218   7.134  0.0494 -0.1147  0.3757
  181POPC    HA20702   3.919   4.195   7.165  0.2678 -0.3951  0.9352
  181POPC    HB20703   4.085   4.127   7.156  0.0959  0.0595  0.9988
  181POPC    C220704   4.022   4.237   6.975  0.3173  0.8691  0.6809
  181POPC    HS20705   3.982   4.143   6.932  1.3037  1.3766 -1.4587
  181POPC   O2120706   4.148   4.272   6.922  0.0568  0.5471  1.0131
  181POPC   C2120707   4.245   4.172   6.927 -0.0883 -0.6717 -0.3373
  181POPC   O2220708   4.220   4.059   6.965 -0.2498 -0.1790  0.1292
  181POPC   C2220709   4.384   4.220   6.883 -0.0266 -0.5407  0.7784
  181POPC   H2R20710   4.437   4.269   6.967 -0.0772 -0.8490  0.9907
  181POPC   H2S20711   4.380   4.296   6.802 -1.7488 -1.1805  0.2097
  181POPC    C320712   3.926   4.356   6.935  0.6966  0.3786  0.4850
  181POPC    HX20713   3.969   4.454   6.965  0.5414  1.1831 -1.7228
  181POPC    HY20714   3.836   4.336   6.996  0.8985 -0.9232  0.3829
  181POPC   O3120715   3.896   4.358   6.796 -0.0007  0.1024  0.2710
  181POPC   C3120716   3.966   4.449   6.727  0.6393 -0.4252 -0.0019
  181POPC   O3220717   4.019   4.548   6.777  0.1973 -0.1772  0.4157
  181POPC   C3220718   3.953   4.415   6.579 -0.2909  0.4550  0.9734
  181POPC   H2X20719   3.844   4.406   6.559 -0.4804  0.8463  1.7663
  181POPC   H2Y20720   3.990   4.312   6.566 -1.0690  0.1626  1.0187
  181POPC   C2320721   4.478   4.103   6.842 -0.5333 -0.4919  0.2227
  181POPC   H3R20722   4.491   4.047   6.937  2.8538  1.0286  0.7822
  181POPC   H3S20723   4.580   4.145   6.828 -0.2758 -0.6788  1.3886
  181POPC   C2420724   4.440   4.024   6.714  0.0147  0.0498  0.3081
  181POPC   H4R20725   4.342   3.975   6.731 -1.0394  2.3988  1.5442
  181POPC   H4S20726   4.525   3.953   6.703  0.6059  0.8635 -0.5804
  181POPC   C2520727   4.439   4.112   6.592  0.0339 -0.2367 -0.4589
  181POPC   H5R20728   4.535   4.164   6.575 -1.4106  2.3430 -1.3218
  181POPC   H5S20729   4.362   4.186   6.624  0.9789  0.0879  1.1822
  181POPC   C2620730   4.399   4.051   6.459 -0.0335 -0.3044 -0.5230
  181POPC   H6R20731   4.295   4.013   6.471 -1.0175  2.3228  0.1815
  181POPC   H6S20732   4.469   3.977   6.416 -0.8757 -0.7699 -1.1282
  181POPC   C2720733   4.391   4.162   6.350  0.1685 -0.1508 -0.1065
  181POPC   H7R20734   4.486   4.219   6.340  0.0009  0.5458  1.9071
  181POPC   H7S20735   4.320   4.240   6.385 -0.4724  1.5013 -4.4558
  181POPC   C2820736   4.327   4.123   6.214 -0.8612 -0.1645  0.3048
  181POPC   H8R20737   4.335   4.212   6.148 -0.5933 -1.7731 -1.9559
  181POPC   H8S20738   4.221   4.108   6.240 -0.1329 -3.0496  1.9816
  181POPC   C2920739   4.379   4.004   6.127 -0.2081  0.2668 -0.6058
  181POPC   H9120740   4.359   3.908   6.176  0.1002 -1.0528 -2.9158
  181POPC  C21020741   4.450   4.010   6.013 -0.2657  0.2147  0.1088
  181POPC  H10120742   4.476   3.915   5.963 -0.7081  0.8299 -1.3594
  181POPC  C21120743   4.481   4.130   5.927  0.0305 -0.7843 -0.1448
  181POPC  H11R20744   4.579   4.118   5.876  0.8573  0.0648  1.1796
  181POPC  H11S20745   4.480   4.225   5.986 -4.2821 -1.1415  0.7056
  181POPC  C21220746   4.372   4.151   5.824  0.1057 -0.3014  0.7555
  181POPC  H12R20747   4.277   4.170   5.877 -0.7952  2.3120 -1.5488
  181POPC  H12S20748   4.352   4.061   5.761  3.7906 -1.1481  0.5846
  181POPC  C21320749   4.387   4.271   5.727 -0.0201  0.4400  0.0847
  181POPC  H13R20750   4.486   4.263   5.676 -0.8115  0.3046 -1.4957
  181POPC  H13S20751   4.377   4.366   5.784 -2.1412  0.9015 -0.9616
  181POPC  C21420752   4.284   4.278   5.615  0.5001  0.1703 -0.0060
  181POPC  H14R20753   4.189   4.285   5.671  0.7502 -0.5006  0.5250
  181POPC  H14S20754   4.285   4.196   5.541  1.8848  1.4590 -1.4990
  181POPC  C21520755   4.284   4.407   5.527 -0.3202 -0.2629  0.1157
  181POPC  H15R20756   4.281   4.499   5.589  1.2301 -0.4815  0.5678
  181POPC  H15S20757   4.197   4.395   5.458 -0.0783 -0.0690 -0.2236
  181POPC  C21620758   4.410   4.404   5.441 -0.2866  0.6254 -0.1340
  181POPC  H16R20759   4.398   4.320   5.369 -0.2318  1.0778 -0.6716
  181POPC  H16S20760   4.502   4.383   5.500 -1.6466 -1.8665  1.2859
  181POPC  C21720761   4.424   4.531   5.351  0.7031 -0.4941  0.1108
  181POPC  H17R20762   4.507   4.513   5.279  0.6501 -1.1456  0.2115
  181POPC  H17S20763   4.455   4.619   5.411 -2.3929  1.1738 -0.5294
  181POPC  C21820764   4.292   4.576   5.281 -0.2001 -0.2481 -0.2995
  181POPC  H18R20765   4.319   4.653   5.206 -0.1850  2.6832  2.4998
  181POPC  H18S20766   4.225   4.632   5.350 -2.3555 -4.8485  1.8585
  181POPC  H18T20767   4.231   4.495   5.236  0.7518  0.5904 -3.3222
  181POPC   C3320768   4.033   4.501   6.477  0.2688  0.1428  0.1135
  181POPC   H3X20769   4.136   4.525   6.513  0.6370 -1.1982 -0.0098
  181POPC   H3Y20770   3.975   4.595   6.465 -0.9634 -0.6348 -0.1820
  181POPC   C3420771   4.054   4.435   6.337  0.2839 -0.0754  0.8126
  181POPC   H4X20772   3.955   4.422   6.288  0.1838  0.2825  0.9195
  181POPC   H4Y20773   4.096   4.334   6.354 -0.7784 -0.7965 -0.6867
  181POPC   C3520774   4.145   4.517   6.252 -0.6930  0.3047  0.4625
  181POPC   H5X20775   4.235   4.534   6.315 -0.5959  0.9118  0.1705
  181POPC   H5Y20776   4.105   4.620   6.239  0.9949  1.0245  0.7087
  181POPC   C3620777   4.152   4.464   6.101 -0.3436 -0.0431  0.9976
  181POPC   H6X20778   4.187   4.359   6.096 -2.9947 -0.9556 -1.1203
  181POPC   H6Y20779   4.234   4.515   6.046  0.8709  1.5579  4.0781
  181POPC   C3720780   4.024   4.481   6.025  0.0992 -0.1962  0.0716
  181POPC   H7X20781   3.984   4.583   6.042 -0.0780 -0.4345  1.2351
  181POPC   H7Y20782   3.947   4.408   6.058  1.2788 -1.6279 -0.2202
  181POPC   C3820783   4.044   4.454   5.877 -0.1845  0.5811 -0.6085
  181POPC   H8X20784   4.102   4.360   5.876 -1.4494 -0.2245 -0.4782
  181POPC   H8Y20785   4.119   4.532   5.852  1.6439 -1.3420 -1.4485
  181POPC   C3920786   3.925   4.472   5.783 -0.6130 -0.7448  1.2435
  181POPC   H9X20787   3.891   4.576   5.800 -0.4165 -0.9133  2.9013
  181POPC   H9Y20788   3.841   4.407   5.814 -0.8732 -1.2202 -0.3758
  181POPC  C31020789   3.960   4.465   5.633 -0.3749 -0.1604 -0.0075
  181POPC  H10X20790   4.009   4.368   5.609  1.8737  0.5379  1.4240
  181POPC  H10Y20791   4.045   4.534   5.615 -0.3885  0.2723  1.4402
  181POPC  C31120792   3.849   4.520   5.542 -0.5497  0.1439  0.6728
  181POPC  H11X20793   3.808   4.617   5.577 -0.0015  0.7709 -0.3777
  181POPC  H11Y20794   3.766   4.445   5.547  1.5743 -2.6388 -1.9200
  181POPC  C31220795   3.889   4.542   5.396 -0.0693  0.0270  0.8094
  181POPC  H12X20796   3.869   4.446   5.343 -3.0629  0.0536  1.7063
  181POPC  H12Y20797   3.996   4.569   5.398 -0.2905  1.2854 -1.2166
  181POPC  C31320798   3.814   4.663   5.328  0.2978  0.3239  0.2125
  181POPC  H13X20799   3.829   4.760   5.380  1.6557  0.4008 -0.3033
  181POPC  H13Y20800   3.707   4.633   5.325  0.9985 -2.5845  1.1115
  181POPC  C31420801   3.855   4.679   5.184  0.3694  0.5782 -0.2210
  181POPC  H14X20802   3.761   4.713   5.136 -1.6518 -0.3150  2.8350
  181POPC  H14Y20803   3.871   4.575   5.149  1.6923  0.3343  0.9934
  181POPC  C31520804   3.979   4.766   5.150 -0.3328 -0.6251  1.0483
  181POPC  H15X20805   4.057   4.738   5.225  2.4465 -1.6443 -2.0098
  181POPC  H15Y20806   3.964   4.875   5.169  0.8913 -0.3696  0.6096
  181POPC  C31620807   4.017   4.742   5.004 -0.4536  0.3827  0.2554
  181POPC  H16X20808   4.053   4.638   4.990  2.5797  1.2981  0.3982
  181POPC  H16Y20809   4.096   4.811   4.967 -0.4441 -0.4108 -1.2635
  181POPC  H16Z20810   3.921   4.759   4.951  0.4818  1.4288 -1.1912
  182POPC     N20811   1.759   3.016   7.642  0.1568 -0.3189  1.1458
  182POPC   C1220812   1.886   2.991   7.556  0.1530 -0.2522  0.4622
  182POPC  H12A20813   1.874   2.890   7.517  2.5336 -1.1068  1.7438
  182POPC  H12B20814   1.970   2.992   7.623 -0.4077  1.8301  1.1978
  182POPC   C1320815   1.757   3.154   7.685 -0.1262  0.2498 -0.6171
  182POPC  H13A20816   1.826   3.174   7.766 -0.2877 -0.4602 -0.2965
  182POPC  H13B20817   1.793   3.216   7.604  3.1408  0.0563  0.5387
  182POPC  H13C20818   1.656   3.192   7.693 -1.6564 -2.7709 -3.2693
  182POPC   C1420819   1.634   3.019   7.557  0.5189  0.1967 -0.5905
  182POPC  H14A20820   1.555   3.050   7.624  0.0612 -0.9129 -0.5955
  182POPC  H14B20821   1.649   3.088   7.476 -2.4682  1.3011 -0.2998
  182POPC  H14C20822   1.601   2.921   7.526 -1.0292 -0.1476  1.8263
  182POPC   C1520823   1.760   2.911   7.748  0.5519 -0.4078 -0.5144
  182POPC  H15A20824   1.759   2.816   7.698  0.6646 -0.2899 -0.7441
  182POPC  H15B20825   1.689   2.937   7.825  0.5982 -1.1361 -0.2208
  182POPC  H15C20826   1.853   2.906   7.802  0.7295 -2.4425 -0.9514
  182POPC   C1120827   1.928   3.095   7.447  0.0929 -0.9708 -0.0165
  182POPC  H11A20828   1.842   3.102   7.377  0.7312  0.8508 -0.6624
  182POPC  H11B20829   2.022   3.053   7.405 -0.8649 -0.1295 -3.2863
  182POPC     P20830   2.088   3.279   7.555 -0.1750 -0.2865  0.7434
  182POPC   O1320831   2.169   3.178   7.624  0.6859 -0.0262  0.1301
  182POPC   O1420832   2.072   3.404   7.633 -0.2838  0.0678 -0.2143
  182POPC   O1220833   1.949   3.224   7.498 -0.5074  0.4304 -0.1588
  182POPC   O1120834   2.154   3.327   7.421 -0.3631  0.1097  0.2149
  182POPC    C120835   2.074   3.401   7.328 -1.1484  0.1639  0.0538
  182POPC    HA20836   2.015   3.479   7.380  0.2590  0.9201  0.5692
  182POPC    HB20837   1.997   3.333   7.286 -0.4180  1.1062 -3.0785
  182POPC    C220838   2.156   3.471   7.212  0.3246  0.0532  0.2609
  182POPC    HS20839   2.094   3.545   7.158  1.0823  1.1364  0.8252
  182POPC   O2120840   2.220   3.370   7.130  0.1816 -1.0177  0.0617
  182POPC   C2120841   2.129   3.323   7.046 -0.2908  0.4771  0.3626
  182POPC   O2220842   2.012   3.348   7.039 -0.0491  0.2788 -0.2275
  182POPC   C2220843   2.203   3.233   6.958 -0.5608 -0.5960 -0.2168
  182POPC   H2R20844   2.229   3.144   7.019 -1.9104 -0.6745  0.2591
  182POPC   H2S20845   2.295   3.290   6.931 -0.9933  2.0611  3.2518
  182POPC    C320846   2.271   3.558   7.274  0.4301  0.1623  0.0194
  182POPC    HX20847   2.348   3.501   7.329 -1.9168 -1.2315  2.0580
  182POPC    HY20848   2.220   3.617   7.353 -1.3387 -0.9300 -0.2542
  182POPC   O3120849   2.327   3.635   7.175 -0.0806 -0.9990 -0.4950
  182POPC   C3120850   2.442   3.610   7.115 -0.1508  0.5774 -0.4043
  182POPC   O3220851   2.530   3.535   7.164 -0.1136 -0.4482 -0.3967
  182POPC   C3220852   2.449   3.673   6.981  0.1639  0.8623 -0.6642
  182POPC   H2X20853   2.558   3.666   6.958  0.3349  1.5786 -0.0963
  182POPC   H2Y20854   2.416   3.779   6.981 -0.1977  0.7613 -1.7423
  182POPC   C2320855   2.117   3.199   6.832 -0.1700 -0.9775 -0.3565
  182POPC   H3R20856   2.064   3.286   6.788  0.2200  0.8737  2.5403
  182POPC   H3S20857   2.039   3.131   6.874 -0.3150 -1.2687 -1.0873
  182POPC   C2420858   2.200   3.135   6.721  0.4968  1.1493  0.3589
  182POPC   H4R20859   2.250   3.045   6.763 -3.3515 -1.1053  0.5431
  182POPC   H4S20860   2.269   3.211   6.677  1.1928  0.2397 -0.1518
  182POPC   C2520861   2.114   3.080   6.615 -0.3909  0.4655  0.0507
  182POPC   H5R20862   2.052   3.160   6.570  0.4679 -0.1881 -2.4652
  182POPC   H5S20863   2.042   3.009   6.661 -2.5215  1.6136 -1.3907
  182POPC   C2620864   2.195   3.005   6.508  0.6742 -0.2235 -0.3944
  182POPC   H6R20865   2.248   2.912   6.539  2.4682 -0.1594 -2.9777
  182POPC   H6S20866   2.283   3.064   6.475  0.5319 -0.1116 -0.5736
  182POPC   C2720867   2.104   2.946   6.392 -0.3771  0.1998 -0.5025
  182POPC   H7R20868   2.057   3.027   6.332 -2.3518 -0.3801  0.1672
  182POPC   H7S20869   2.015   2.900   6.441  0.5585 -1.7277 -0.5327
  182POPC   C2820870   2.175   2.856   6.291 -0.0218 -0.5204  0.1583
  182POPC   H8R20871   2.213   2.767   6.346  4.4847 -0.6766 -2.7491
  182POPC   H8S20872   2.258   2.917   6.249 -0.1359 -0.1771  0.4236
  182POPC   C2920873   2.080   2.799   6.186 -0.3992  0.0052 -0.7696
  182POPC   H9120874   1.976   2.776   6.213 -0.4929 -0.7221 -1.7044
  182POPC  C21020875   2.107   2.808   6.061  0.7895  0.5221  0.0772
  182POPC  H10120876   2.029   2.774   5.991  1.8910  0.2129 -1.0444
  182POPC  C21120877   2.229   2.842   5.992  0.1207 -0.4773 -0.3527
  182POPC  H11R20878   2.302   2.899   6.052 -2.0530  1.3629  0.7104
  182POPC  H11S20879   2.212   2.918   5.912  0.1445  1.4430  1.3840
  182POPC  C21220880   2.312   2.725   5.931 -0.2642 -0.4646 -0.3183
  182POPC  H12R20881   2.344   2.649   6.006  3.1813  0.4649 -0.6951
  182POPC  H12S20882   2.403   2.766   5.883  0.1549  0.3728  1.1392
  182POPC  C21320883   2.234   2.652   5.819 -0.1842  0.5412 -0.0954
  182POPC  H13R20884   2.140   2.599   5.849  0.2559 -1.4018 -1.8960
  182POPC  H13S20885   2.288   2.563   5.781  0.2563  1.1705 -0.9724
  182POPC  C21420886   2.209   2.743   5.691  0.0304  0.0034 -0.7338
  182POPC  H14R20887   2.306   2.772   5.646 -0.0153  1.8901  0.2947
  182POPC  H14S20888   2.153   2.835   5.719  1.5766 -0.2147  3.7484
  182POPC  C21520889   2.132   2.658   5.587  1.3996 -0.7545 -0.4132
  182POPC  H15R20890   2.069   2.727   5.528  2.2989  0.0145 -0.4977
  182POPC  H15S20891   2.062   2.595   5.646  1.5130 -0.1877  0.3528
  182POPC  C21620892   2.204   2.554   5.509 -0.0514  1.2495 -0.3373
  182POPC  H16R20893   2.266   2.491   5.576 -0.5475 -0.6526 -1.5981
  182POPC  H16S20894   2.268   2.598   5.429  0.6269 -0.1923 -0.6326
  182POPC  C21720895   2.111   2.440   5.447 -0.2142 -0.1621  0.2478
  182POPC  H17R20896   2.032   2.489   5.387 -0.7151  1.5772  2.1897
  182POPC  H17S20897   2.046   2.404   5.530 -1.1504  0.1914 -0.3188
  182POPC  C21820898   2.181   2.324   5.372  1.1373 -0.7171 -0.3383
  182POPC  H18R20899   2.238   2.367   5.287  2.8388 -1.4065  0.4238
  182POPC  H18S20900   2.112   2.246   5.333 -0.1962  0.2500 -0.0215
  182POPC  H18T20901   2.251   2.270   5.439 -0.3329  0.9529  2.7949
  182POPC   C3320902   2.371   3.584   6.882 -0.1207  0.0797 -0.4285
  182POPC   H3X20903   2.262   3.588   6.904 -0.7170 -2.6348 -2.3169
  182POPC   H3Y20904   2.395   3.477   6.901 -1.0358 -0.0893 -0.1650
  182POPC   C3420905   2.404   3.615   6.735  0.0077 -0.7402 -0.7842
  182POPC   H4X20906   2.515   3.623   6.724 -0.0032  1.0191  0.0640
  182POPC   H4Y20907   2.358   3.713   6.711 -0.0448 -0.5508  0.0622
  182POPC   C3520908   2.341   3.507   6.641  0.3513  0.0650 -0.3290
  182POPC   H5X20909   2.233   3.498   6.663 -0.2683  3.0033 -1.6915
  182POPC   H5Y20910   2.366   3.402   6.666 -2.1022 -0.4023  0.3815
  182POPC   C3620911   2.365   3.528   6.493 -0.1953  0.6294  0.6230
  182POPC   H6X20912   2.474   3.546   6.484  0.1331 -1.4659  0.0001
  182POPC   H6Y20913   2.306   3.614   6.454 -3.6161 -1.8981 -0.3010
  182POPC   C3720914   2.325   3.401   6.414 -0.3557 -0.5188 -0.4485
  182POPC   H7X20915   2.221   3.369   6.434 -0.7920  1.5598  0.8928
  182POPC   H7Y20916   2.393   3.320   6.449 -0.2858 -0.2838 -0.0383
  182POPC   C3820917   2.345   3.421   6.264  0.1044 -0.0078 -0.2073
  182POPC   H8X20918   2.439   3.476   6.242 -0.7969  1.2258 -1.0956
  182POPC   H8Y20919   2.272   3.497   6.229  1.1635  0.1284 -2.2944
  182POPC   C3920920   2.350   3.291   6.184 -0.1621  0.8942 -0.2666
  182POPC   H9X20921   2.274   3.220   6.221  0.0493  1.0311  0.4506
  182POPC   H9Y20922   2.450   3.252   6.214 -1.5427 -1.2406  2.0101
  182POPC  C31020923   2.352   3.324   6.032 -0.3389  0.1880  0.3372
  182POPC  H10X20924   2.420   3.410   6.020 -1.5134  1.2057  0.6850
  182POPC  H10Y20925   2.251   3.350   5.994  0.2824  1.3496 -0.5846
  182POPC  C31120926   2.396   3.216   5.938 -0.4986  0.5802  0.8508
  182POPC  H11X20927   2.362   3.113   5.965 -0.1252 -0.1776 -1.3774
  182POPC  H11Y20928   2.506   3.198   5.945 -0.3011 -0.3045 -2.6223
  182POPC  C31220929   2.376   3.246   5.788  0.1185 -0.4122  0.5096
  182POPC  H12X20930   2.420   3.341   5.752 -1.7886  0.3406  0.0123
  182POPC  H12Y20931   2.267   3.268   5.777  0.3003  0.0904 -0.4070
  182POPC  C31320932   2.391   3.132   5.698  0.4892  0.6337  0.3317
  182POPC  H13X20933   2.318   3.050   5.716 -0.2842  0.9406 -1.2303
  182POPC  H13Y20934   2.491   3.087   5.716  1.0268  1.4376 -0.5324
  182POPC  C31420935   2.360   3.151   5.550  0.1641 -0.4509 -0.3524
  182POPC  H14X20936   2.429   3.219   5.495 -0.1057 -2.1618 -2.9700
  182POPC  H14Y20937   2.263   3.204   5.543  0.0206 -0.6051  0.4039
  182POPC  C31520938   2.342   3.022   5.461  0.0986 -0.0044  0.3589
  182POPC  H15X20939   2.257   2.961   5.496  2.2806 -2.3404  1.9515
  182POPC  H15Y20940   2.421   2.950   5.491  1.9402  1.3301 -0.9665
  182POPC  C31620941   2.330   3.050   5.309 -0.1081 -0.2453  0.4181
  182POPC  H16X20942   2.417   3.084   5.250  0.0304  0.4138  0.9869
  182POPC  H16Y20943   2.262   3.138   5.304  0.6334  0.3048 -0.2698
  182POPC  H16Z20944   2.293   2.953   5.268  0.3379 -0.4897  0.5841
  183POPC     N20945   4.003   3.133   7.450 -0.8858  0.0072  0.1011
  183POPC   C1220946   4.056   3.139   7.308  0.3024  0.7326 -0.7534
  183POPC  H12A20947   4.126   3.221   7.301 -2.8159  3.5699 -1.2137
  183POPC  H12B20948   3.974   3.137   7.238 -0.0043 -0.4934 -0.3951
  183POPC   C1320949   3.986   3.264   7.518  0.3640  0.9474 -0.6456
  183POPC  H13A20950   4.082   3.313   7.510  1.1784 -0.4565  0.2385
  183POPC  H13B20951   3.923   3.333   7.464  2.6993  3.4827 -0.3610
  183POPC  H13C20952   3.953   3.261   7.620  1.1254 -0.3135 -0.4128
  183POPC   C1420953   3.870   3.058   7.464  0.3368 -0.0701  0.2098
  183POPC  H14A20954   3.825   3.061   7.562 -1.5779 -0.0888 -0.6348
  183POPC  H14B20955   3.798   3.103   7.397 -0.6246 -0.0547  1.2171
  183POPC  H14C20956   3.888   2.957   7.432  0.4366  0.3023 -0.9601
  183POPC   C1520957   4.099   3.056   7.530 -0.8143 -0.2275  0.1610
  183POPC  H15A20958   4.187   3.110   7.559  0.8736 -1.9273 -1.4662
  183POPC  H15B20959   4.129   2.965   7.479 -2.3192 -1.0320  0.6358
  183POPC  H15C20960   4.056   3.026   7.625 -0.0246 -1.5991  0.1142
  183POPC   C1120961   4.134   3.011   7.267 -0.4217 -0.0187 -0.2031
  183POPC  H11A20962   4.223   2.986   7.329 -0.5921 -0.2560 -0.0516
  183POPC  H11B20963   4.171   3.043   7.168 -0.9557  0.1370 -0.3528
  183POPC     P20964   3.945   2.885   7.144  0.4779 -0.2241 -0.1280
  183POPC   O1320965   3.885   3.015   7.106 -0.1165 -0.3532 -0.4975
  183POPC   O1420966   3.845   2.775   7.167  0.3481 -0.2178 -0.0777
  183POPC   O1220967   4.050   2.901   7.254 -0.0132 -0.4800 -0.0682
  183POPC   O1120968   4.026   2.862   7.015  0.3990  0.1463 -0.1981
  183POPC    C120969   4.160   2.827   6.993 -0.3311  0.1310  0.4554
  183POPC    HA20970   4.184   2.735   7.051  0.6356 -0.1125 -0.3158
  183POPC    HB20971   4.227   2.915   7.006  0.9962 -0.1161 -3.5032
  183POPC    C220972   4.170   2.803   6.846  0.4071  0.4769 -0.4363
  183POPC    HS20973   4.148   2.900   6.796 -2.9449 -0.4349 -0.9612
  183POPC   O2120974   4.071   2.700   6.814  0.2734  0.3236 -0.5878
  183POPC   C2120975   3.962   2.753   6.761  0.0997 -0.1865  0.0937
  183POPC   O2220976   3.947   2.867   6.720  0.3400  0.4554  0.5025
  183POPC   C2220977   3.853   2.640   6.751 -0.3637 -0.3774  0.2576
  183POPC   H2R20978   3.807   2.609   6.847 -1.3797 -1.3666 -0.5294
  183POPC   H2S20979   3.912   2.551   6.720  1.5855 -0.6884  4.2141
  183POPC    C320980   4.308   2.748   6.797  0.5312  0.2178 -0.0059
  183POPC    HX20981   4.325   2.645   6.836 -0.9149 -0.4211 -0.9975
  183POPC    HY20982   4.381   2.814   6.850  0.9744  0.0379 -0.3843
  183POPC   O3120983   4.320   2.753   6.652  0.5898 -0.0311 -0.0400
  183POPC   C3120984   4.321   2.635   6.592  0.2012 -0.3644  0.6447
  183POPC   O3220985   4.332   2.521   6.640 -0.2868 -0.5492  0.3305
  183POPC   C3220986   4.280   2.678   6.445 -0.6134  0.0039  0.0130
  183POPC   H2X20987   4.303   2.786   6.430  0.4748 -0.0542  1.0466
  183POPC   H2Y20988   4.171   2.658   6.435 -0.7964  1.5335 -1.4022
  183POPC   C2320989   3.742   2.677   6.645  0.3336 -0.2593 -0.9012
  183POPC   H3R20990   3.713   2.783   6.663 -1.0494 -0.2620 -2.7712
  183POPC   H3S20991   3.658   2.611   6.676 -1.5555  2.3168 -0.2415
  183POPC   C2420992   3.788   2.657   6.501 -0.0032 -0.1259 -0.5069
  183POPC   H4R20993   3.811   2.549   6.484  3.0688  0.0091  2.0684
  183POPC   H4S20994   3.879   2.718   6.484 -0.6324  1.3624  1.1226
  183POPC   C2520995   3.673   2.691   6.411  0.6559  0.2784  0.1801
  183POPC   H5R20996   3.645   2.799   6.422  1.6462  0.6872 -1.0812
  183POPC   H5S20997   3.585   2.634   6.448  0.1988  1.4585  0.9963
  183POPC   C2620998   3.717   2.660   6.265 -0.2579  0.0037  0.0248
  183POPC   H6R20999   3.760   2.557   6.268  2.0038  0.7468 -2.3182
  183POPC   H6S21000   3.799   2.729   6.235  1.2111 -2.0923 -1.1313
  183POPC   C2721001   3.601   2.665   6.165 -0.1462  0.1064  0.3034
  183POPC   H7R21002   3.552   2.764   6.183  1.6053  0.7340  1.9326
  183POPC   H7S21003   3.534   2.578   6.178 -3.5060  2.0373 -2.2921
  183POPC   C2821004   3.651   2.671   6.016  0.2647  0.5051  0.0539
  183POPC   H8R21005   3.682   2.568   5.988  1.4113  0.6752  0.6633
  183POPC   H8S21006   3.747   2.725   6.004 -0.0126  1.0900  0.4542
  183POPC   C2921007   3.551   2.719   5.918  0.1847  0.2559  0.4958
  183POPC   H9121008   3.510   2.819   5.941 -0.7272 -0.0396  0.2042
  183POPC  C21021009   3.506   2.667   5.801 -0.1915  0.4000 -0.9053
  183POPC  H10121010   3.426   2.719   5.747 -0.3707  1.4066  0.2936
  183POPC  C21121011   3.542   2.540   5.734 -0.1856 -0.5437 -0.1010
  183POPC  H11R21012   3.452   2.483   5.705 -0.5270  0.0945 -0.3195
  183POPC  H11S21013   3.595   2.477   5.808 -1.4389 -0.7390  0.6667
  183POPC  C21221014   3.614   2.559   5.598 -0.2308  1.2251  0.0787
  183POPC  H12R21015   3.645   2.462   5.555 -1.8280  1.3410 -1.4104
  183POPC  H12S21016   3.715   2.594   5.630 -0.1537 -1.1681  2.9042
  183POPC  C21321017   3.549   2.646   5.492 -0.2817 -0.1505  0.4696
  183POPC  H13R21018   3.513   2.741   5.537 -1.6153  0.6210 -2.0190
  183POPC  H13S21019   3.465   2.595   5.440 -0.5276  1.5263 -0.8862
  183POPC  C21421020   3.642   2.704   5.383 -0.2166 -0.1969 -0.6522
  183POPC  H14R21021   3.682   2.623   5.318  1.1932 -0.1947  0.1792
  183POPC  H14S21022   3.732   2.757   5.421  0.1472  0.4489 -2.3266
  183POPC  C21521023   3.573   2.807   5.294  0.2549  0.1353 -0.2436
  183POPC  H15R21024   3.563   2.899   5.356 -0.8323 -0.6478  0.7898
  183POPC  H15S21025   3.473   2.765   5.268  0.6296  0.0603 -1.5997
  183POPC  C21621026   3.658   2.843   5.172 -0.9692  0.8824  0.1289
  183POPC  H16R21027   3.673   2.748   5.117 -1.7639  0.8622 -0.0758
  183POPC  H16S21028   3.755   2.881   5.210 -0.4855  0.9177 -1.1002
  183POPC  C21721029   3.596   2.943   5.080  0.1694  0.2327  0.3067
  183POPC  H17R21030   3.547   3.024   5.139 -0.2326  0.4123 -0.2588
  183POPC  H17S21031   3.516   2.889   5.024  0.4604 -1.2513  1.2728
  183POPC  C21821032   3.706   3.003   4.980 -0.5027  0.0070  0.2914
  183POPC  H18R21033   3.787   3.033   5.050 -1.7010 -0.0471  1.7507
  183POPC  H18S21034   3.664   3.085   4.918 -1.1430 -0.8585 -0.4385
  183POPC  H18T21035   3.747   2.920   4.918  0.8251  1.6319 -1.0999
  183POPC   C3321036   4.346   2.597   6.336 -0.3870 -0.3380 -0.5640
  183POPC   H3X21037   4.330   2.488   6.353 -1.5925 -0.4308 -2.0839
  183POPC   H3Y21038   4.457   2.599   6.338 -0.3630 -1.1058 -0.8426
  183POPC   C3421039   4.296   2.632   6.194  0.0239  0.5549 -0.5154
  183POPC   H4X21040   4.309   2.742   6.181  0.6844  0.5158 -0.2225
  183POPC   H4Y21041   4.188   2.603   6.197  0.5671 -1.7857 -1.7359
  183POPC   C3521042   4.366   2.561   6.088  0.3301 -0.5401 -0.2395
  183POPC   H5X21043   4.361   2.450   6.097  0.5165 -0.6548 -1.4105
  183POPC   H5Y21044   4.475   2.583   6.094  0.2087 -0.2759  1.4903
  183POPC   C3621045   4.317   2.584   5.949  0.0675 -0.4491  0.1780
  183POPC   H6X21046   4.211   2.551   5.941  1.2250 -4.0593 -2.7706
  183POPC   H6Y21047   4.376   2.519   5.882 -0.7016 -0.1307 -0.8488
  183POPC   C3721048   4.331   2.726   5.894 -0.3523 -0.3532 -0.2718
  183POPC   H7X21049   4.431   2.764   5.925 -0.6956 -0.9180  1.6064
  183POPC   H7Y21050   4.258   2.790   5.948  0.0504 -1.2901  1.4460
  183POPC   C3821051   4.311   2.744   5.744 -0.6147 -0.3645  0.5638
  183POPC   H8X21052   4.412   2.722   5.702 -0.1565 -1.4668  2.1499
  183POPC   H8Y21053   4.273   2.844   5.715 -0.6852 -0.5374  0.0676
  183POPC   C3921054   4.215   2.642   5.683  0.0832 -0.5736 -0.0278
  183POPC   H9X21055   4.123   2.670   5.738  0.6142  1.5444 -0.1566
  183POPC   H9Y21056   4.231   2.532   5.695 -0.2855 -0.5667  0.5248
  183POPC  C31021057   4.194   2.658   5.534  0.0621 -0.4842  0.2720
  183POPC  H10X21058   4.291   2.635   5.486  0.8488  0.9053  1.1438
  183POPC  H10Y21059   4.166   2.763   5.512  1.0572 -0.4788 -1.0958
  183POPC  C31121060   4.086   2.562   5.479 -0.3327 -0.8085 -0.1244
  183POPC  H11X21061   3.988   2.600   5.512 -0.8651 -1.4896 -0.8808
  183POPC  H11Y21062   4.111   2.471   5.539  1.4072 -0.9096 -0.9213
  183POPC  C31221063   4.103   2.546   5.328  0.1336  0.3316  0.2479
  183POPC  H12X21064   4.210   2.532   5.301  0.2600 -0.8174  1.2748
  183POPC  H12Y21065   4.072   2.643   5.284  2.0964 -0.4961 -3.3597
  183POPC  C31321066   4.027   2.430   5.266  0.1587  0.3858 -0.2208
  183POPC  H13X21067   4.035   2.432   5.155  0.4533 -1.4012 -0.2662
  183POPC  H13Y21068   3.921   2.441   5.297  0.5108  0.3689  1.0075
  183POPC  C31421069   4.079   2.297   5.307  0.4884  0.4704 -0.3619
  183POPC  H14X21070   4.073   2.296   5.418  1.1330 -0.7918 -0.3249
  183POPC  H14Y21071   4.185   2.287   5.275  0.5320 -0.8561  0.1453
  183POPC  C31521072   4.001   2.180   5.248 -0.1383 -1.0323 -0.4808
  183POPC  H15X21073   4.019   2.179   5.138  2.1029  0.0503 -0.1926
  183POPC  H15Y21074   3.893   2.189   5.269 -0.5478  0.4068 -2.8782
  183POPC  C31621075   4.056   2.045   5.294  0.0855  0.0892 -0.6667
  183POPC  H16X21076   4.048   2.041   5.404  0.5234  0.6069 -0.6108
  183POPC  H16Y21077   4.162   2.031   5.262  0.7599  1.2738  0.9397
  183POPC  H16Z21078   3.994   1.971   5.239 -1.1481  1.8212 -1.7149
  184POPC     N21079   5.326   0.584   7.454  0.2062 -0.6907  0.4253
  184POPC   C1221080   5.480   0.600   7.433 -0.5260  0.1032 -0.7245
  184POPC  H12A21081   5.502   0.703   7.408  0.4124 -0.2069 -1.2152
  184POPC  H12B21082   5.510   0.557   7.338 -0.4608 -1.0941 -0.1795
  184POPC   C1321083   5.294   0.438   7.438  0.0534 -0.1570 -0.3107
  184POPC  H13A21084   5.189   0.416   7.453  0.2621 -0.4330  0.8686
  184POPC  H13B21085   5.336   0.417   7.341 -1.3405 -0.4777 -0.8702
  184POPC  H13C21086   5.343   0.378   7.514  0.4282  1.8353  1.1190
  184POPC   C1421087   5.296   0.653   7.580  0.5228  0.8411 -0.8212
  184POPC  H14A21088   5.364   0.617   7.655  1.0208  1.2979 -1.0515
  184POPC  H14B21089   5.311   0.759   7.564  1.2856  1.0639  1.1966
  184POPC  H14C21090   5.192   0.643   7.610  0.0098  0.6857 -2.5337
  184POPC   C1521091   5.257   0.646   7.337 -0.2540  0.4858 -0.6385
  184POPC  H15A21092   5.245   0.584   7.249  1.3944  0.5640 -0.9459
  184POPC  H15B21093   5.306   0.737   7.307  0.5318  0.0273 -0.7669
  184POPC  H15C21094   5.154   0.666   7.366 -0.2216 -1.4076  1.0294
  184POPC   C1121095   5.581   0.538   7.535 -0.1075 -0.1039  0.9974
  184POPC  H11A21096   5.679   0.509   7.492 -0.5486  0.1255 -0.2221
  184POPC  H11B21097   5.552   0.437   7.570  0.3530 -1.0956 -1.2739
  184POPC     P21098   5.694   0.744   7.639  0.1114 -0.3810 -0.1489
  184POPC   O1321099   5.825   0.684   7.686  0.5946  0.1685  0.3727
  184POPC   O1421100   5.637   0.855   7.719  0.9221  0.1540  0.4120
  184POPC   O1221101   5.590   0.627   7.642  0.4942 -0.3538  0.0906
  184POPC   O1121102   5.705   0.780   7.489 -0.2400 -0.1670  0.9817
  184POPC    C121103   5.656   0.900   7.435 -0.4423 -0.1054 -0.4368
  184POPC    HA21104   5.720   0.984   7.472 -1.4310  0.4648  0.0124
  184POPC    HB21105   5.554   0.918   7.475 -0.4433  0.6857 -0.7578
  184POPC    C221106   5.650   0.909   7.280 -0.0877  0.0731  0.3077
  184POPC    HS21107   5.611   1.011   7.265 -0.2343  0.5989  3.5167
  184POPC   O2121108   5.556   0.814   7.225 -0.0736  0.0256  0.4868
  184POPC   C2121109   5.512   0.844   7.101 -0.2057 -1.1464  0.6906
  184POPC   O2221110   5.536   0.951   7.044 -0.0829 -0.3243  0.0273
  184POPC   C2221111   5.431   0.730   7.051  0.4911  0.7752  0.2345
  184POPC   H2R21112   5.334   0.725   7.106  0.9156 -2.3639  0.8878
  184POPC   H2S21113   5.491   0.639   7.068  2.2391  1.7336 -0.5988
  184POPC    C321114   5.794   0.884   7.235  0.7718 -0.3996 -0.5051
  184POPC    HX21115   5.855   0.817   7.299  0.9053 -0.3504 -0.5817
  184POPC    HY21116   5.849   0.979   7.249  0.3261 -0.2352  0.1813
  184POPC   O3121117   5.802   0.848   7.101 -0.0568 -0.3581  0.8844
  184POPC   C3121118   5.917   0.867   7.031 -0.3689  0.3309  0.0028
  184POPC   O3221119   6.015   0.925   7.074 -0.5046  0.6756  0.0404
  184POPC   C3221120   5.909   0.808   6.892  0.2468 -0.2338  0.4967
  184POPC   H2X21121   5.818   0.842   6.838  0.8526  1.8154  0.6815
  184POPC   H2Y21122   5.892   0.699   6.905  1.5903 -0.5845 -0.4974
  184POPC   C2321123   5.416   0.744   6.905  0.1249 -0.3942 -0.0809
  184POPC   H3R21124   5.515   0.741   6.855  1.1321 -1.5267  1.8652
  184POPC   H3S21125   5.373   0.842   6.875 -0.3600 -0.1007  1.4644
  184POPC   C2421126   5.338   0.635   6.835  0.0674 -0.0334 -0.0543
  184POPC   H4R21127   5.227   0.646   6.836 -0.2066 -2.2854  0.9539
  184POPC   H4S21128   5.369   0.544   6.889 -0.7875  0.3545  1.1310
  184POPC   C2521129   5.369   0.627   6.679 -1.3142 -0.0383  0.5126
  184POPC   H5R21130   5.325   0.531   6.647  0.2206 -0.3963 -0.6767
  184POPC   H5S21131   5.479   0.614   6.673 -1.4252 -0.3749 -2.8272
  184POPC   C2621132   5.329   0.758   6.610  0.2118  0.2730  0.7540
  184POPC   H6R21133   5.379   0.844   6.660  1.4649 -1.7404  3.2422
  184POPC   H6S21134   5.220   0.766   6.631 -0.1026  1.2659 -1.0170
  184POPC   C2721135   5.355   0.749   6.461 -0.0119 -0.2096  0.8522
  184POPC   H7R21136   5.344   0.845   6.406  0.3234  0.0572  1.2416
  184POPC   H7S21137   5.293   0.674   6.408 -0.3924  1.2303 -0.8108
  184POPC   C2821138   5.496   0.697   6.419 -0.0791  0.0433 -0.3797
  184POPC   H8R21139   5.477   0.692   6.309 -1.3420  1.3917 -0.2595
  184POPC   H8S21140   5.522   0.595   6.453 -0.5938  0.0516  0.0471
  184POPC   C2921141   5.606   0.789   6.454 -0.0538 -0.2220  0.1359
  184POPC   H9121142   5.605   0.808   6.563  1.6872 -0.6745  0.2507
  184POPC  C21021143   5.694   0.845   6.369 -0.6337 -0.2263  0.0490
  184POPC  H10121144   5.766   0.915   6.414 -0.0027 -0.5317 -0.4554
  184POPC  C21121145   5.696   0.820   6.219  0.8092 -0.3028 -0.1585
  184POPC  H11R21146   5.743   0.899   6.156  0.8905 -0.0467  0.2230
  184POPC  H11S21147   5.591   0.818   6.182  0.9041  1.3999 -0.6013
  184POPC  C21221148   5.753   0.687   6.177  0.4661  0.6405  0.3017
  184POPC  H12R21149   5.686   0.610   6.220  1.6189 -0.6727 -0.1759
  184POPC  H12S21150   5.850   0.680   6.232  0.5727  0.1225  0.0526
  184POPC  C21321151   5.783   0.655   6.022 -0.6780  0.4464  0.0562
  184POPC  H13R21152   5.829   0.554   6.008  0.1191  0.9697 -1.3998
  184POPC  H13S21153   5.854   0.731   5.982 -0.8152  0.2078 -0.6659
  184POPC  C21421154   5.661   0.663   5.930 -0.4947  0.5438  0.2730
  184POPC  H14R21155   5.572   0.627   5.987 -0.7361 -0.2773 -0.5890
  184POPC  H14S21156   5.680   0.594   5.845 -1.4640  0.5753  0.0189
  184POPC  C21521157   5.628   0.796   5.864  0.4346 -0.3078  0.6605
  184POPC  H15R21158   5.716   0.840   5.814  2.1973 -1.0539  2.9277
  184POPC  H15S21159   5.603   0.862   5.950  1.0537  0.2410  0.4215
  184POPC  C21621160   5.511   0.792   5.762  0.0380  0.4995 -0.3629
  184POPC  H16R21161   5.547   0.760   5.662 -0.9727 -1.1393 -0.2301
  184POPC  H16S21162   5.468   0.894   5.748 -1.0731  0.0739 -0.1756
  184POPC  C21721163   5.400   0.689   5.776  0.6763  0.4550  0.2472
  184POPC  H17R21164   5.338   0.710   5.866 -0.6003  0.3618 -0.5828
  184POPC  H17S21165   5.444   0.587   5.783 -1.6521 -0.5287  1.5616
  184POPC  C21821166   5.300   0.694   5.660  0.3829 -0.1456 -0.2243
  184POPC  H18R21167   5.227   0.612   5.641 -0.3538  0.3239  0.5544
  184POPC  H18S21168   5.357   0.698   5.564 -1.7331  1.4489 -1.5180
  184POPC  H18T21169   5.236   0.784   5.663 -1.3978 -1.3883  1.2241
  184POPC   C3321170   6.039   0.839   6.803 -0.2505 -0.3400 -0.6540
  184POPC   H3X21171   6.120   0.781   6.852 -0.5770 -0.6784 -0.5023
  184POPC   H3Y21172   6.055   0.947   6.823  3.0740 -0.6241 -1.2523
  184POPC   C3421173   6.014   0.837   6.655 -0.1211  0.0894 -0.3032
  184POPC   H4X21174   5.938   0.910   6.620 -0.2793  0.5759  1.0044
  184POPC   H4Y21175   5.978   0.736   6.627  1.8689 -0.4310 -1.1619
  184POPC   C3521176   6.141   0.848   6.570 -0.0036 -0.3277 -1.1627
  184POPC   H5X21177   6.190   0.748   6.566 -1.9549 -1.4304  0.6823
  184POPC   H5Y21178   6.210   0.929   6.602 -2.9708  1.9797 -0.1480
  184POPC   C3621179   6.112   0.868   6.419 -0.0549  0.6135  0.3187
  184POPC   H6X21180   6.052   0.961   6.414 -1.9830 -0.6141 -0.5818
  184POPC   H6Y21181   6.046   0.784   6.388 -1.9176  1.5661  1.4985
  184POPC   C3721182   6.233   0.882   6.331 -0.3581 -0.0767  0.2423
  184POPC   H7X21183   6.304   0.797   6.338  1.7072  1.3822 -1.5702
  184POPC   H7Y21184   6.297   0.966   6.366  1.4332 -0.3096 -2.1935
  184POPC   C3821185   6.196   0.907   6.185  0.4094  0.2297 -0.0895
  184POPC   H8X21186   6.108   0.974   6.188 -0.0807 -0.4251  0.2425
  184POPC   H8Y21187   6.155   0.819   6.131 -1.2853 -0.2085  1.8282
  184POPC   C3921188   6.314   0.955   6.098  0.2972  0.9374  0.3418
  184POPC   H9X21189   6.408   0.896   6.099 -0.2869 -0.0274 -0.4801
  184POPC   H9Y21190   6.329   1.057   6.141 -1.8061 -0.0118  3.7377
  184POPC  C31021191   6.273   0.964   5.946  0.5703  0.4151  0.0215
  184POPC  H10X21192   6.187   1.033   5.930  1.7543  1.5478 -2.0003
  184POPC  H10Y21193   6.255   0.859   5.915 -0.7036  0.2931  1.0967
  184POPC  C31121194   6.392   1.023   5.874  0.1076 -0.1805 -0.2463
  184POPC  H11X21195   6.486   0.972   5.904  1.1582  2.6616  1.7114
  184POPC  H11Y21196   6.392   1.132   5.895 -0.9143  0.2631 -2.2160
  184POPC  C31221197   6.389   1.008   5.722  0.0058 -0.5824  0.2772
  184POPC  H12X21198   6.291   1.043   5.685 -0.7218 -2.6398  0.1146
  184POPC  H12Y21199   6.403   0.898   5.711  0.4469 -0.5654  0.6393
  184POPC  C31321200   6.503   1.077   5.647 -0.2393 -0.8807 -0.5677
  184POPC  H13X21201   6.599   1.053   5.697  0.5416 -0.0209 -1.5944
  184POPC  H13Y21202   6.484   1.185   5.669  2.6444  0.0230 -2.0557
  184POPC  C31421203   6.500   1.052   5.494  0.4783  0.3472 -0.8920
  184POPC  H14X21204   6.592   1.096   5.449  1.8855 -0.2757  1.2359
  184POPC  H14Y21205   6.404   1.096   5.458  0.4250 -0.4404 -1.7660
  184POPC  C31521206   6.496   0.901   5.450  0.1724  0.0697 -0.3389
  184POPC  H15X21207   6.466   0.896   5.343 -1.1521  2.1880 -0.1212
  184POPC  H15Y21208   6.414   0.846   5.502  0.6435 -1.5302 -1.2253
  184POPC  C31621209   6.628   0.820   5.467 -0.2378  0.0175 -0.0972
  184POPC  H16X21210   6.665   0.821   5.572  0.7677 -1.1258 -0.4156
  184POPC  H16Y21211   6.713   0.853   5.403  0.4544  0.1240  0.8507
  184POPC  H16Z21212   6.610   0.711   5.454  1.9756 -0.3522 -0.4513
  185POPC     N21213   4.700   5.962   2.658  0.0351 -0.2043 -0.5296
  185POPC   C1221214   4.631   5.941   2.798  0.1588  0.3953  0.5124
  185POPC  H12A21215   4.528   5.911   2.785  0.5418 -1.8580  2.0786
  185POPC  H12B21216   4.629   6.034   2.853 -0.9165  0.1709  0.8860
  185POPC   C1321217   4.838   6.011   2.688  0.3278  0.2534 -0.2399
  185POPC  H13A21218   4.826   6.108   2.735 -0.4218  0.0617 -0.0232
  185POPC  H13B21219   4.883   5.941   2.756 -0.1266  1.3674  1.2732
  185POPC  H13C21220   4.896   6.004   2.597  1.1036 -0.2797  0.2910
  185POPC   C1421221   4.715   5.826   2.590  0.5013 -0.0263 -0.7554
  185POPC  H14A21222   4.786   5.764   2.642 -1.9150 -1.6672  0.7555
  185POPC  H14B21223   4.622   5.771   2.587  0.4771 -0.1665  1.2562
  185POPC  H14C21224   4.752   5.841   2.489 -0.7262  0.2594 -1.1779
  185POPC   C1521225   4.622   6.059   2.581 -0.2105  0.8351  0.2039
  185POPC  H15A21226   4.666   6.090   2.487 -0.5743  2.7876  0.6313
  185POPC  H15B21227   4.606   6.147   2.642 -1.9848  0.2455  0.6471
  185POPC  H15C21228   4.531   6.013   2.546  0.1839 -0.0137  0.2621
  185POPC   C1121229   4.686   5.833   2.905  0.4430 -0.2484  0.8515
  185POPC  H11A21230   4.687   5.731   2.859 -0.4724  0.2372 -0.2954
  185POPC  H11B21231   4.615   5.827   2.990  1.2653 -1.5342  1.4771
  185POPC     P21232   4.834   5.962   3.074 -0.0081  0.0828  0.3363
  185POPC   O1321233   4.761   6.086   3.048  0.0206 -0.0201  0.7185
  185POPC   O1421234   4.985   5.962   3.102  0.6220 -0.3234  0.2749
  185POPC   O1221235   4.816   5.862   2.955  0.0111  0.1663 -0.2566
  185POPC   O1121236   4.762   5.901   3.200  0.3816  0.2810  0.3296
  185POPC    C121237   4.838   5.809   3.285 -0.1079 -0.1372 -0.6585
  185POPC    HA21238   4.924   5.754   3.242  1.2370  0.3258  1.2811
  185POPC    HB21239   4.757   5.734   3.298 -4.0327  3.3697 -2.6249
  185POPC    C221240   4.884   5.867   3.419 -0.5804 -0.2611 -0.5977
  185POPC    HS21241   4.972   5.934   3.410 -1.5252  1.1066  0.0558
  185POPC   O2121242   4.902   5.764   3.523  0.5891  0.0422 -0.7324
  185POPC   C2121243   5.019   5.712   3.529 -0.1720  0.2458  0.3688
  185POPC   O2221244   5.107   5.732   3.444 -0.6417  0.4033  0.4704
  185POPC   C2221245   5.035   5.628   3.661  0.7745 -0.1457 -0.5543
  185POPC   H2R21246   5.115   5.666   3.727 -0.3741  0.7133  0.3772
  185POPC   H2S21247   5.078   5.535   3.617 -0.3125 -0.8308 -0.1954
  185POPC    C321248   4.769   5.963   3.468 -0.1313 -1.0768 -0.5798
  185POPC    HX21249   4.672   5.910   3.475 -1.2747  1.0830  1.3655
  185POPC    HY21250   4.758   6.045   3.395 -0.1651  0.7674  1.4121
  185POPC   O3121251   4.791   6.023   3.602 -0.5897 -0.4485  0.0496
  185POPC   C3121252   4.879   6.126   3.598 -0.0059  0.3661 -0.0713
  185POPC   O3221253   4.946   6.153   3.505 -0.3874 -0.3099  0.6152
  185POPC   C3221254   4.876   6.208   3.727 -0.3497  0.1850 -0.1036
  185POPC   H2X21255   4.793   6.279   3.707 -0.5975 -0.2471 -0.6313
  185POPC   H2Y21256   4.975   6.257   3.723 -0.9105  1.3310 -0.3180
  185POPC   C2321257   4.904   5.606   3.746  0.3634  1.1681  0.2702
  185POPC   H3R21258   4.824   5.554   3.689  2.6682  0.5684 -2.6396
  185POPC   H3S21259   4.851   5.703   3.760 -1.6322  0.1514  0.1281
  185POPC   C2421260   4.923   5.547   3.884  0.1408 -0.1034 -0.6021
  185POPC   H4R21261   5.020   5.593   3.910  0.9448 -0.7938 -2.2258
  185POPC   H4S21262   4.935   5.436   3.883  0.1082 -0.1435  1.3151
  185POPC   C2521263   4.811   5.577   3.991  0.1448 -0.3047  0.6058
  185POPC   H5R21264   4.731   5.501   3.977  0.2813 -0.3244 -0.1155
  185POPC   H5S21265   4.772   5.678   3.967 -0.3874 -0.5452  0.4359
  185POPC   C2621266   4.875   5.570   4.127 -0.1237 -0.1336 -0.2156
  185POPC   H6R21267   4.953   5.650   4.125 -0.0619 -0.1930 -2.2427
  185POPC   H6S21268   4.926   5.471   4.136 -0.2006 -0.0030  2.6476
  185POPC   C2721269   4.777   5.583   4.250  1.0338 -0.1371  0.1719
  185POPC   H7R21270   4.698   5.505   4.252 -1.7297  2.4664  0.5463
  185POPC   H7S21271   4.728   5.682   4.240  0.3584 -0.4883 -0.0772
  185POPC   C2821272   4.840   5.581   4.394 -0.5203  0.0980  0.2757
  185POPC   H8R21273   4.893   5.484   4.401 -0.8477 -0.0877  0.1701
  185POPC   H8S21274   4.751   5.584   4.461 -0.5997 -2.0680  0.3274
  185POPC   C2921275   4.944   5.693   4.410 -1.3608  0.1020 -0.2342
  185POPC   H9121276   5.036   5.669   4.356 -1.5908  1.3622 -1.2273
  185POPC  C21021277   4.930   5.798   4.492  0.2723 -0.4702 -0.0458
  185POPC  H10121278   5.022   5.858   4.496 -0.6700  1.3412 -2.7447
  185POPC  C21121279   4.809   5.826   4.581  0.3806 -0.1799  0.0904
  185POPC  H11R21280   4.715   5.789   4.533 -0.0035  1.0733 -0.1554
  185POPC  H11S21281   4.793   5.936   4.586 -0.4705 -0.1994 -1.5311
  185POPC  C21221282   4.826   5.749   4.713 -0.1385 -0.1961  0.1213
  185POPC  H12R21283   4.852   5.647   4.678  1.6561  0.1128  0.4459
  185POPC  H12S21284   4.731   5.746   4.770 -0.7024  1.0044 -0.7103
  185POPC  C21321285   4.948   5.803   4.801  0.6924 -0.3039  0.2126
  185POPC  H13R21286   5.045   5.789   4.749  0.8146 -2.1755  0.8551
  185POPC  H13S21287   4.956   5.748   4.897  0.5224 -0.3174  0.2195
  185POPC  C21421288   4.935   5.955   4.824  0.0858 -0.4498  0.4321
  185POPC  H14R21289   4.836   5.973   4.870 -0.9342 -3.0469 -0.5435
  185POPC  H14S21290   4.928   6.011   4.728  1.1499  0.7617  1.0373
  185POPC  C21521291   5.051   6.017   4.906 -0.2497 -0.9039  0.7688
  185POPC  H15R21292   5.042   6.124   4.938  0.1872 -0.8321  0.6686
  185POPC  H15S21293   5.147   6.009   4.850  0.7688 -0.5308  2.3579
  185POPC  C21621294   5.071   5.955   5.046  0.4686  0.4327  0.4784
  185POPC  H16R21295   5.097   5.847   5.047 -0.1875  0.2172 -1.5342
  185POPC  H16S21296   4.972   5.980   5.091  0.0302  0.9962 -0.7435
  185POPC  C21721297   5.187   6.020   5.124 -0.4675  0.4353  0.7851
  185POPC  H17R21298   5.153   6.022   5.230 -1.1910 -0.0152  0.5721
  185POPC  H17S21299   5.203   6.124   5.089  1.2340 -0.4001 -1.1452
  185POPC  C21821300   5.325   5.955   5.116  0.2559  0.4001 -0.2604
  185POPC  H18R21301   5.379   5.992   5.026  3.8956  0.1463  1.6435
  185POPC  H18S21302   5.323   5.844   5.122 -1.0679  0.3483 -1.1729
  185POPC  H18T21303   5.389   5.985   5.201 -0.3516 -1.3223  0.8613
  185POPC   C3321304   4.858   6.115   3.853  0.5438 -0.0337  0.3670
  185POPC   H3X21305   4.800   6.023   3.828 -0.9051  0.9891 -0.1745
  185POPC   H3Y21306   4.791   6.170   3.922  0.3667 -1.0785  1.0659
  185POPC   C3421307   4.992   6.071   3.933  0.5137 -0.0053 -0.6205
  185POPC   H4X21308   5.053   6.162   3.921 -1.7825  1.5684 -0.8995
  185POPC   H4Y21309   5.031   5.992   3.865  0.8337 -0.4296  0.0521
  185POPC   C3521310   4.972   6.031   4.086 -1.1565 -0.3709  0.6461
  185POPC   H5X21311   5.059   5.974   4.127 -0.3311 -0.3415 -0.9672
  185POPC   H5Y21312   4.882   5.969   4.105 -2.2704  1.7695  2.9699
  185POPC   C3621313   4.951   6.165   4.168  0.0160 -0.4021  0.0904
  185POPC   H6X21314   4.842   6.187   4.174 -0.2891 -1.8613  0.4328
  185POPC   H6Y21315   5.018   6.236   4.116 -0.8263  0.6344  0.3848
  185POPC   C3721316   4.994   6.161   4.317 -0.0102 -0.1650  0.6379
  185POPC   H7X21317   5.096   6.116   4.321  0.6933  1.3949  0.7162
  185POPC   H7Y21318   4.919   6.097   4.368 -2.1003  0.5760 -1.2912
  185POPC   C3821319   5.007   6.302   4.381  0.8390  0.4132 -0.1523
  185POPC   H8X21320   4.906   6.335   4.414  0.5295  0.3276 -0.9951
  185POPC   H8Y21321   5.036   6.369   4.298  1.8165 -0.2494 -0.3590
  185POPC   C3921322   5.108   6.318   4.490  0.0344 -0.1951 -0.0658
  185POPC   H9X21323   5.210   6.294   4.453  0.3273 -1.0648  1.2111
  185POPC   H9Y21324   5.092   6.239   4.567 -1.1145  1.5042  1.4993
  185POPC  C31021325   5.092   6.457   4.551 -0.1744 -0.4112  0.1083
  185POPC  H10X21326   4.991   6.486   4.587 -0.6986 -0.1630 -1.5039
  185POPC  H10Y21327   5.128   6.527   4.474  1.3414 -0.3448  0.8311
  185POPC  C31121328   5.183   6.486   4.671 -0.2291 -0.7308 -0.7145
  185POPC  H11X21329   5.292   6.470   4.655  0.3200  3.0917 -1.8512
  185POPC  H11Y21330   5.162   6.410   4.749  2.3844 -1.0558 -0.2350
  185POPC  C31221331   5.166   6.628   4.728 -0.5391 -0.6780 -0.1710
  185POPC  H12X21332   5.058   6.637   4.752 -0.3434 -0.6542  0.7196
  185POPC  H12Y21333   5.192   6.708   4.655 -1.9119  1.1971  1.2766
  185POPC  C31321334   5.229   6.660   4.860  0.1716  0.7792  0.5340
  185POPC  H13X21335   5.336   6.628   4.860 -0.2458 -1.0638 -2.5366
  185POPC  H13Y21336   5.172   6.605   4.937 -1.1726 -1.0539 -1.6638
  185POPC  C31421337   5.232   6.809   4.888  0.0707  1.0332 -0.2130
  185POPC  H14X21338   5.293   6.856   4.808  0.3250 -0.6862 -1.1047
  185POPC  H14Y21339   5.277   6.811   4.989 -0.2741 -2.3294  0.1518
  185POPC  C31521340   5.089   6.878   4.890  0.4623 -0.2079 -0.2541
  185POPC  H15X21341   5.021   6.833   4.815  1.2225  0.6092 -1.4678
  185POPC  H15Y21342   5.109   6.982   4.856  2.4206  0.0002  1.3337
  185POPC  C31621343   5.023   6.878   5.025 -0.1223  0.6780 -0.1305
  185POPC  H16X21344   5.004   6.775   5.063  2.5420  0.0685 -0.2337
  185POPC  H16Y21345   4.931   6.940   5.021 -0.0100  1.0111  1.6261
  185POPC  H16Z21346   5.099   6.911   5.099  1.0756 -1.9683 -0.0585
  186POPC     N21347   6.023   6.547   3.415  0.0550 -0.5794 -0.5293
  186POPC   C1221348   5.934   6.480   3.515 -0.3980 -0.3286 -0.5216
  186POPC  H12A21349   5.995   6.397   3.549  1.8874  0.6073 -2.0506
  186POPC  H12B21350   5.847   6.439   3.467 -0.0843  1.1064 -2.4062
  186POPC   C1321351   6.149   6.603   3.477  0.3382 -0.3109 -0.3753
  186POPC  H13A21352   6.120   6.663   3.561 -1.4992  0.7629 -1.7206
  186POPC  H13B21353   6.218   6.526   3.508  0.9726 -1.5084 -4.1701
  186POPC  H13C21354   6.194   6.667   3.403 -2.7729  2.2834 -0.1939
  186POPC   C1421355   6.069   6.438   3.316 -0.1447  0.2526 -0.0208
  186POPC  H14A21356   5.975   6.402   3.278 -1.9311  2.3784  1.9976
  186POPC  H14B21357   6.118   6.487   3.233  0.4499 -1.6362 -0.8366
  186POPC  H14C21358   6.135   6.365   3.360 -1.0856  1.1832  3.2514
  186POPC   C1521359   5.946   6.652   3.345 -0.2983  0.6901 -0.1204
  186POPC  H15A21360   6.012   6.705   3.278 -1.2047  0.4548 -1.2459
  186POPC  H15B21361   5.909   6.717   3.422 -0.6384  1.4035 -0.8687
  186POPC  H15C21362   5.865   6.605   3.292  0.7824  0.5061 -1.6995
  186POPC   C1121363   5.889   6.556   3.639  0.8289 -0.8764 -0.1850
  186POPC  H11A21364   5.984   6.581   3.690  0.2549  1.1971 -0.0701
  186POPC  H11B21365   5.822   6.490   3.699 -1.0097  0.8710 -0.2046
  186POPC     P21366   5.676   6.708   3.634 -0.5771 -0.3962  0.1049
  186POPC   O1321367   5.583   6.612   3.572 -0.3197 -0.0358 -0.4330
  186POPC   O1421368   5.663   6.855   3.606 -0.1362 -0.0641 -0.0953
  186POPC   O1221369   5.824   6.671   3.601 -0.4361  0.2947 -0.4245
  186POPC   O1121370   5.658   6.692   3.786  0.0359  0.3873  0.2572
  186POPC    C121371   5.531   6.679   3.852  0.1026  0.1587  0.0116
  186POPC    HA21372   5.556   6.648   3.956 -0.5101  2.5007  0.9010
  186POPC    HB21373   5.464   6.602   3.808  0.9859  0.7284 -2.5001
  186POPC    C221374   5.450   6.807   3.856 -0.4444 -0.1368  0.0189
  186POPC    HS21375   5.524   6.883   3.823  0.1465 -1.7337 -2.6971
  186POPC   O2121376   5.405   6.821   3.991  0.0831  0.3128  0.0437
  186POPC   C2121377   5.362   6.943   4.015 -0.5292 -0.3327 -0.1227
  186POPC   O2221378   5.382   7.038   3.941  0.1294  0.0970 -0.1655
  186POPC   C2221379   5.283   6.955   4.144  0.1330  0.4523  0.3789
  186POPC   H2R21380   5.317   7.043   4.203 -0.0486  0.7114  0.1016
  186POPC   H2S21381   5.303   6.861   4.199 -0.5382 -0.6304 -1.1475
  186POPC    C321382   5.340   6.809   3.758  0.7526  0.1407 -0.1638
  186POPC    HX21383   5.376   6.785   3.655 -0.9637 -1.1939 -0.5210
  186POPC    HY21384   5.295   6.910   3.765  1.2399  0.7611 -3.7712
  186POPC   O3121385   5.236   6.715   3.792 -0.2430 -0.0991  0.8208
  186POPC   C3121386   5.128   6.723   3.705  0.4449 -0.8704  0.2021
  186POPC   O3221387   5.113   6.816   3.628 -0.5486  0.1674  0.2502
  186POPC   C3221388   5.048   6.602   3.727  0.7527  0.0204  0.2121
  186POPC   H2X21389   5.111   6.515   3.696  3.4950  1.2904  1.7815
  186POPC   H2Y21390   4.957   6.606   3.664  1.8543 -0.7943 -1.5185
  186POPC   C2321391   5.133   6.976   4.101  0.4716  0.3983 -1.3495
  186POPC   H3R21392   5.085   6.889   4.051  0.2290  0.5032 -1.2978
  186POPC   H3S21393   5.114   7.056   4.027 -1.1139  0.2612 -1.1188
  186POPC   C2421394   5.050   7.016   4.231  0.8089  0.0343  0.2911
  186POPC   H4R21395   4.945   7.007   4.195  0.0137 -2.1933  2.8348
  186POPC   H4S21396   5.083   7.122   4.243 -0.0214  0.6431 -2.3068
  186POPC   C2521397   5.054   6.927   4.363  0.3901 -0.4095 -0.1248
  186POPC   H5R21398   5.163   6.910   4.381  0.3541 -1.9420 -1.1364
  186POPC   H5S21399   4.994   6.836   4.339 -1.0887  0.1208  1.3789
  186POPC   C2621400   4.982   6.990   4.480 -0.4983 -0.1258  0.0132
  186POPC   H6R21401   5.027   7.091   4.478  0.8560 -0.6751 -2.2856
  186POPC   H6S21402   5.006   6.930   4.570  1.9650 -0.9128 -1.0658
  186POPC   C2721403   4.835   7.012   4.469 -0.3629 -0.1234 -0.0527
  186POPC   H7R21404   4.796   6.919   4.423  2.4331 -1.3996  0.0026
  186POPC   H7S21405   4.806   7.105   4.416  0.7673  0.0130 -0.4553
  186POPC   C2821406   4.778   7.040   4.610  0.3542  0.7265 -0.7434
  186POPC   H8R21407   4.822   7.127   4.664 -3.0585  0.2664  3.2949
  186POPC   H8S21408   4.806   6.953   4.673 -0.5181  0.2473 -1.0006
  186POPC   C2921409   4.623   7.055   4.593 -0.2121  0.3276 -0.2754
  186POPC   H9121410   4.585   7.114   4.508 -0.1757 -0.6249 -0.9716
  186POPC  C21021411   4.530   7.027   4.680  0.2904 -0.0550  0.8009
  186POPC  H10121412   4.425   7.028   4.645  0.9850  1.8186 -1.5374
  186POPC  C21121413   4.578   6.977   4.813  0.0502 -0.5310  0.2313
  186POPC  H11R21414   4.520   7.032   4.890  0.4068  1.8574 -1.0913
  186POPC  H11S21415   4.679   7.015   4.840 -0.1561 -0.6224  1.1448
  186POPC  C21221416   4.575   6.824   4.835 -0.8423  0.7778  0.3237
  186POPC  H12R21417   4.603   6.762   4.747 -0.9361 -1.0113  1.5009
  186POPC  H12S21418   4.470   6.797   4.855 -1.1874  2.1772  0.4963
  186POPC  C21321419   4.652   6.782   4.959  0.8774  0.6167  0.4210
  186POPC  H13R21420   4.576   6.800   5.039 -1.2949 -4.0712 -0.2966
  186POPC  H13S21421   4.729   6.860   4.978  0.2509  1.2725  0.3191
  186POPC  C21421422   4.693   6.634   4.967  0.3779 -0.5170  0.5262
  186POPC  H14R21423   4.614   6.561   4.939  0.2842 -0.5344  0.8338
  186POPC  H14S21424   4.710   6.611   5.074  1.0014 -0.6511  0.4036
  186POPC  C21521425   4.814   6.606   4.884 -0.0739 -0.7731  0.4078
  186POPC  H15R21426   4.890   6.671   4.933 -0.2545 -0.3611  0.1462
  186POPC  H15S21427   4.795   6.647   4.783 -0.3410 -0.6523  0.5056
  186POPC  C21621428   4.839   6.462   4.882  0.2603 -0.3045  1.1206
  186POPC  H16R21429   4.809   6.423   4.981 -1.5351  0.3138  0.8684
  186POPC  H16S21430   4.941   6.419   4.871 -0.3584 -1.3681 -1.0596
  186POPC  C21721431   4.767   6.389   4.767  0.5879  0.3646 -0.0843
  186POPC  H17R21432   4.774   6.445   4.672 -1.4874 -1.7477 -1.5946
  186POPC  H17S21433   4.657   6.390   4.785  0.5035  0.7345 -0.6066
  186POPC  C21821434   4.801   6.243   4.746  0.0041 -0.4298 -0.0848
  186POPC  H18R21435   4.901   6.237   4.697 -0.4863 -3.0327 -0.9021
  186POPC  H18S21436   4.808   6.195   4.846 -0.0899 -0.0647  0.1000
  186POPC  H18T21437   4.730   6.193   4.677  0.2962 -1.1906  0.1579
  186POPC   C3321438   5.019   6.579   3.882  0.3885  0.2738 -0.6564
  186POPC   H3X21439   5.117   6.580   3.934  0.2939 -0.2476 -0.4672
  186POPC   H3Y21440   4.964   6.483   3.895  0.4322  0.0651 -1.9331
  186POPC   C3421441   4.932   6.685   3.947  0.5351 -0.0377 -0.4059
  186POPC   H4X21442   4.837   6.687   3.891  0.2274 -2.1877 -0.0562
  186POPC   H4Y21443   4.975   6.779   3.907 -0.5119  0.3545 -0.6417
  186POPC   C3521444   4.925   6.689   4.103 -1.1301  0.2141 -0.4691
  186POPC   H5X21445   4.869   6.780   4.135 -1.3700 -0.5755  1.5232
  186POPC   H5Y21446   5.031   6.704   4.133 -1.2991 -1.7212  1.3705
  186POPC   C3621447   4.863   6.559   4.165  0.1749  0.0162 -0.4521
  186POPC   H6X21448   4.862   6.583   4.273 -1.2086  0.2135 -0.5020
  186POPC   H6Y21449   4.915   6.463   4.144  0.4107  0.1331 -0.4053
  186POPC   C3721450   4.718   6.539   4.120  0.0110  0.7180  0.3499
  186POPC   H7X21451   4.718   6.493   4.019  1.5855 -0.0372  0.6476
  186POPC   H7Y21452   4.658   6.632   4.123 -1.3784 -0.0797 -1.3771
  186POPC   C3821453   4.656   6.449   4.223  0.3314  0.2963  0.3868
  186POPC   H8X21454   4.720   6.367   4.263 -0.3653 -0.2864  0.3358
  186POPC   H8Y21455   4.568   6.399   4.177 -0.3225  2.7259 -1.1662
  186POPC   C3921456   4.589   6.521   4.340  0.4526  0.1795  0.2311
  186POPC   H9X21457   4.556   6.619   4.300 -1.7987 -0.4052  0.5020
  186POPC   H9Y21458   4.664   6.551   4.417 -1.3280  2.1684  1.2903
  186POPC  C31021459   4.469   6.450   4.408 -0.2953 -0.2476  0.4296
  186POPC  H10X21460   4.506   6.351   4.442  0.2647  0.6297  2.5422
  186POPC  H10Y21461   4.378   6.448   4.344  0.3160 -1.1057 -0.4401
  186POPC  C31121462   4.431   6.502   4.547 -0.1560 -0.1759  0.0459
  186POPC  H11X21463   4.378   6.599   4.541 -0.0055 -0.1575 -1.2524
  186POPC  H11Y21464   4.530   6.510   4.595 -0.0293 -2.2257  0.2212
  186POPC  C31221465   4.350   6.401   4.621 -0.4790  0.8084 -1.0049
  186POPC  H12X21466   4.407   6.307   4.636  0.0679  1.2901  0.0740
  186POPC  H12Y21467   4.261   6.391   4.555  0.5391 -0.4564 -2.2242
  186POPC  C31321468   4.314   6.450   4.764  0.2656  0.1175 -0.5576
  186POPC  H13X21469   4.254   6.543   4.755 -0.4924 -0.2569  0.4181
  186POPC  H13Y21470   4.412   6.478   4.806  0.0062  0.8138 -0.3945
  186POPC  C31421471   4.238   6.351   4.855  0.2476 -1.0265  0.0126
  186POPC  H14X21472   4.172   6.407   4.925 -0.8422  0.3063 -1.9558
  186POPC  H14Y21473   4.311   6.288   4.909 -0.0501 -0.2975  1.2894
  186POPC  C31521474   4.127   6.273   4.777 -0.4350 -0.8587  0.2237
  186POPC  H15X21475   4.169   6.206   4.699 -1.0963  0.9941 -1.8593
  186POPC  H15Y21476   4.054   6.337   4.722  0.0656  1.3668  2.0020
  186POPC  C31621477   4.049   6.192   4.881  0.5266  0.3178  0.6727
  186POPC  H16X21478   4.115   6.143   4.956  1.4381  0.9588  0.2927
  186POPC  H16Y21479   3.981   6.114   4.840 -0.5279 -0.1500  3.1480
  186POPC  H16Z21480   3.990   6.265   4.940  0.2335  0.2548  0.4607
  187POPC     N21481   3.896   4.181   2.726  0.3567  0.3216  0.1205
  187POPC   C1221482   3.800   4.219   2.616  0.3084 -0.5120 -0.2066
  187POPC  H12A21483   3.793   4.325   2.631  2.3158 -0.0343 -2.1110
  187POPC  H12B21484   3.701   4.179   2.637  0.6525 -0.2822  2.0444
  187POPC   C1321485   4.038   4.197   2.688 -0.4694  0.0476 -0.0321
  187POPC  H13A21486   4.058   4.292   2.640 -1.7927 -0.8427 -2.5532
  187POPC  H13B21487   4.109   4.184   2.768  1.1387  0.2680 -1.3459
  187POPC  H13C21488   4.055   4.121   2.612 -1.5731 -1.1028  0.8260
  187POPC   C1421489   3.868   4.266   2.850 -0.2581  0.3673 -0.2792
  187POPC  H14A21490   3.934   4.250   2.934 -1.8325  0.6151  1.0359
  187POPC  H14B21491   3.879   4.372   2.832 -1.6155  0.2866 -1.8200
  187POPC  H14C21492   3.768   4.254   2.889 -0.2263 -0.7266 -0.5076
  187POPC   C1521493   3.864   4.039   2.756  0.1827 -0.2181  0.0674
  187POPC  H15A21494   3.895   3.970   2.679 -0.1838  0.3234 -0.5832
  187POPC  H15B21495   3.765   4.013   2.790  0.2917 -0.0005  0.5658
  187POPC  H15C21496   3.926   4.016   2.842 -1.3513  0.4666  1.4141
  187POPC   C1121497   3.830   4.187   2.468 -0.3078  0.0843  0.0060
  187POPC  H11A21498   3.928   4.229   2.437 -1.1683 -0.6494 -4.3210
  187POPC  H11B21499   3.752   4.244   2.412  1.2716  0.7159 -1.6682
  187POPC     P21500   3.693   3.959   2.429 -0.1931  0.0481 -0.1220
  187POPC   O1321501   3.700   3.879   2.304 -0.0378 -0.4392 -0.0480
  187POPC   O1421502   3.577   4.058   2.433  0.1421  0.0964 -0.6314
  187POPC   O1221503   3.830   4.046   2.440 -0.0500  0.5237  0.6084
  187POPC   O1121504   3.693   3.877   2.560 -0.2650 -0.0659 -1.1792
  187POPC    C121505   3.788   3.770   2.573 -0.2867 -0.0860  0.4706
  187POPC    HA21506   3.887   3.808   2.607 -0.7281  0.4503  1.1764
  187POPC    HB21507   3.807   3.712   2.480  3.1904  1.3381  0.1386
  187POPC    C221508   3.739   3.676   2.686 -0.1187 -1.0170  0.4683
  187POPC    HS21509   3.645   3.632   2.647  1.7610 -1.3127 -4.3927
  187POPC   O2121510   3.710   3.760   2.799 -0.3530  0.3420  0.2781
  187POPC   C2121511   3.610   3.722   2.882 -0.0306 -0.3231 -0.1457
  187POPC   O2221512   3.525   3.633   2.855 -0.5811  0.2886 -0.3908
  187POPC   C2221513   3.618   3.798   3.011 -0.3089 -0.1212  0.5875
  187POPC   H2R21514   3.587   3.904   3.003 -0.0567 -0.0674  0.3483
  187POPC   H2S21515   3.725   3.801   3.040  0.4009  0.2458 -1.8495
  187POPC    C321516   3.835   3.558   2.708 -0.1158  0.1843  0.5953
  187POPC    HX21517   3.939   3.590   2.729 -0.4194  0.6227  1.4760
  187POPC    HY21518   3.831   3.502   2.612 -2.8575  0.4650  0.4572
  187POPC   O3121519   3.800   3.465   2.811  0.1992  0.4011  0.0819
  187POPC   C3121520   3.706   3.367   2.777  0.1775 -0.1688  0.6090
  187POPC   O3221521   3.677   3.340   2.662  0.3900 -0.1514  0.5011
  187POPC   C3221522   3.658   3.301   2.900 -0.1548 -0.0525 -0.6362
  187POPC   H2X21523   3.641   3.379   2.977  0.0376 -0.8364  0.2169
  187POPC   H2Y21524   3.751   3.254   2.939  0.2949 -0.3041 -1.9772
  187POPC   C2321525   3.535   3.742   3.127 -0.2317  0.2604 -0.2711
  187POPC   H3R21526   3.592   3.736   3.222  1.2457 -1.0003 -1.1894
  187POPC   H3S21527   3.489   3.642   3.110  1.8457 -0.5854 -1.2789
  187POPC   C2421528   3.424   3.843   3.162  1.0189 -0.3578  0.2804
  187POPC   H4R21529   3.385   3.857   3.059  2.5128 -0.2455 -0.3027
  187POPC   H4S21530   3.474   3.940   3.185 -0.9368  0.8805 -0.4249
  187POPC   C2521531   3.320   3.787   3.255  0.4056 -0.0576  0.1317
  187POPC   H5R21532   3.271   3.696   3.213 -3.0848  1.3144  0.8728
  187POPC   H5S21533   3.231   3.854   3.255  1.2370  1.1410 -2.1297
  187POPC   C2621534   3.367   3.774   3.403 -0.0219 -0.2618 -0.4027
  187POPC   H6R21535   3.402   3.876   3.429  0.3670 -0.4441 -0.1966
  187POPC   H6S21536   3.463   3.718   3.411 -0.0050 -0.1305  0.4969
  187POPC   C2721537   3.257   3.718   3.492  0.2559 -0.3192 -0.0637
  187POPC   H7R21538   3.216   3.628   3.441  0.8793 -1.7771  1.8729
  187POPC   H7S21539   3.180   3.798   3.486  0.7538  0.0698 -1.6847
  187POPC   C2821540   3.290   3.694   3.636 -0.1773 -0.1194 -0.3803
  187POPC   H8R21541   3.386   3.639   3.632  0.0227  0.0241  1.4281
  187POPC   H8S21542   3.217   3.621   3.678  0.9034 -0.8143  0.3553
  187POPC   C2921543   3.318   3.823   3.715  0.3586 -0.4421  0.3521
  187POPC   H9121544   3.307   3.914   3.655  1.0382  0.3285  1.3700
  187POPC  C21021545   3.360   3.833   3.845  0.6640  0.2329  0.3838
  187POPC  H10121546   3.359   3.930   3.898  1.1559  0.5206 -0.1281
  187POPC  C21121547   3.380   3.711   3.933 -0.6253 -1.0024  0.7725
  187POPC  H11R21548   3.482   3.728   3.973 -0.1070  0.1842 -0.9486
  187POPC  H11S21549   3.390   3.616   3.874 -1.1677  0.4701 -1.8448
  187POPC  C21221550   3.270   3.674   4.034 -0.7732 -0.2727  0.1027
  187POPC  H12R21551   3.290   3.578   4.087  0.3959 -0.0392  0.1287
  187POPC  H12S21552   3.172   3.690   3.985 -0.9463  0.3510  0.6408
  187POPC  C21321553   3.278   3.777   4.156 -0.5451 -0.6981  0.2361
  187POPC  H13R21554   3.188   3.768   4.220  0.7974 -1.3884  2.0872
  187POPC  H13S21555   3.284   3.875   4.103 -2.5563 -2.1372 -2.9582
  187POPC  C21421556   3.396   3.755   4.258 -0.3194 -0.0734  0.9589
  187POPC  H14R21557   3.433   3.849   4.302  0.2648  0.4167 -0.5089
  187POPC  H14S21558   3.478   3.718   4.192 -0.8653  1.7010 -0.8286
  187POPC  C21521559   3.357   3.655   4.364  0.3698 -0.4618  0.0229
  187POPC  H15R21560   3.450   3.614   4.409  0.1644 -1.1619 -0.1727
  187POPC  H15S21561   3.312   3.575   4.301 -1.3033 -0.6110  1.3389
  187POPC  C21621562   3.253   3.696   4.477  0.3013  0.6203  0.7088
  187POPC  H16R21563   3.155   3.717   4.429 -1.6636 -1.5669  3.4419
  187POPC  H16S21564   3.293   3.791   4.517 -1.8143  1.8436  0.0704
  187POPC  C21721565   3.236   3.593   4.592 -0.3813 -0.4293  0.4233
  187POPC  H17R21566   3.339   3.558   4.614  1.0798  2.4963 -1.2680
  187POPC  H17S21567   3.176   3.507   4.553  0.4185 -1.0430  0.5188
  187POPC  C21821568   3.158   3.647   4.710  0.4231  0.2611  0.1195
  187POPC  H18R21569   3.226   3.721   4.759  0.5596  0.3921 -0.2672
  187POPC  H18S21570   3.117   3.570   4.779  0.7099 -1.5778 -1.6797
  187POPC  H18T21571   3.078   3.710   4.667  1.0315  0.6904 -0.3934
  187POPC   C3321572   3.536   3.208   2.872 -0.2328 -0.1557  0.1998
  187POPC   H3X21573   3.568   3.124   2.807 -2.0291 -0.1855 -0.6883
  187POPC   H3Y21574   3.456   3.262   2.818 -1.6811 -0.8800  1.5419
  187POPC   C3421575   3.475   3.153   3.010 -0.2014 -0.1473  0.4540
  187POPC   H4X21576   3.558   3.171   3.082  2.0061 -1.4726 -1.6175
  187POPC   H4Y21577   3.472   3.042   3.003  1.3342 -0.1840  0.1661
  187POPC   C3521578   3.350   3.221   3.055 -0.2981 -0.4400 -0.4839
  187POPC   H5X21579   3.269   3.193   2.984 -0.3676  1.9772 -1.4376
  187POPC   H5Y21580   3.364   3.331   3.048  0.1857 -0.4138  0.6322
  187POPC   C3621581   3.319   3.187   3.200 -0.0179 -0.1133  0.0191
  187POPC   H6X21582   3.360   3.087   3.224 -2.1389 -0.9967  0.2522
  187POPC   H6Y21583   3.211   3.185   3.227 -0.4016  0.2288 -1.3844
  187POPC   C3721584   3.384   3.288   3.293 -0.1554  0.1867 -0.8189
  187POPC   H7X21585   3.376   3.393   3.256  0.1715 -0.1263 -1.8144
  187POPC   H7Y21586   3.494   3.268   3.298 -0.1614  0.5112  1.6809
  187POPC   C3821587   3.342   3.279   3.443  0.8504  0.8619  0.5807
  187POPC   H8X21588   3.316   3.178   3.482 -1.8731  1.2541 -0.0351
  187POPC   H8Y21589   3.252   3.342   3.459 -0.0309 -0.2661  0.2230
  187POPC   C3921590   3.447   3.334   3.539 -0.2422 -0.3733 -0.1040
  187POPC   H9X21591   3.491   3.424   3.491 -1.0561  0.6253  0.9909
  187POPC   H9Y21592   3.519   3.251   3.556 -0.0389 -0.2524 -0.3714
  187POPC  C31021593   3.391   3.377   3.677 -0.1504  0.1005  0.3485
  187POPC  H10X21594   3.289   3.421   3.666  0.6475  1.6097 -1.7309
  187POPC  H10Y21595   3.459   3.456   3.717  0.4932  0.3894 -1.2487
  187POPC  C31121596   3.384   3.263   3.775  0.0922  0.3491  0.3594
  187POPC  H11X21597   3.487   3.231   3.804 -0.9863 -0.3792  3.8315
  187POPC  H11Y21598   3.310   3.193   3.729 -1.3777  2.2487 -0.2813
  187POPC  C31221599   3.321   3.311   3.910  0.2689  0.1440  0.0834
  187POPC  H12X21600   3.225   3.357   3.881  0.7387 -0.5743 -2.8971
  187POPC  H12Y21601   3.395   3.388   3.940  3.3112 -1.4833 -2.5701
  187POPC  C31321602   3.299   3.197   4.014  0.3969 -0.2121  0.4655
  187POPC  H13X21603   3.395   3.151   4.048 -0.0527 -0.9207  0.8033
  187POPC  H13Y21604   3.232   3.124   3.965  0.3807 -0.0918  0.3071
  187POPC  C31421605   3.236   3.259   4.146 -0.2774 -0.2540  0.4948
  187POPC  H14X21606   3.143   3.315   4.124  1.1673  1.5205 -1.5310
  187POPC  H14Y21607   3.317   3.325   4.185 -0.6832 -0.7096  2.1744
  187POPC  C31521608   3.193   3.156   4.254  0.3349  0.6429 -0.9283
  187POPC  H15X21609   3.106   3.101   4.211  0.5363 -0.6327  0.2026
  187POPC  H15Y21610   3.161   3.221   4.338  1.5032 -0.2692  0.2719
  187POPC  C31621611   3.299   3.064   4.308 -0.0299  0.3860  0.3349
  187POPC  H16X21612   3.327   2.988   4.231  2.9136  0.8635  0.8017
  187POPC  H16Y21613   3.241   3.005   4.382 -1.2858 -0.0360 -0.9505
  187POPC  H16Z21614   3.391   3.116   4.343  1.0056 -1.0762 -0.0512
  188POPC     N21615   3.608   5.941   2.902 -0.3400 -0.4014  0.7538
  188POPC   C1221616   3.672   5.857   2.792 -0.4683 -0.4973 -0.7739
  188POPC  H12A21617   3.714   5.924   2.719 -1.5895  0.3870 -0.6518
  188POPC  H12B21618   3.602   5.790   2.746 -1.3099  0.3550 -0.7681
  188POPC   C1321619   3.691   6.056   2.938  0.2478 -0.4115 -0.0105
  188POPC  H13A21620   3.794   6.035   2.966  0.6764 -2.4354 -2.6952
  188POPC  H13B21621   3.687   6.128   2.857  1.1547 -0.6093 -0.2426
  188POPC  H13C21622   3.641   6.096   3.025  1.2192 -1.2314  0.9515
  188POPC   C1421623   3.477   5.999   2.847  0.2598  0.5850  0.7605
  188POPC  H14A21624   3.407   5.923   2.815  1.8520 -1.0551  0.9637
  188POPC  H14B21625   3.425   6.039   2.932  1.6289  2.0417  0.9551
  188POPC  H14C21626   3.497   6.060   2.760 -1.9200  1.4774  0.8362
  188POPC   C1521627   3.573   5.857   3.015 -0.3221 -0.4168 -0.7538
  188POPC  H15A21628   3.557   5.910   3.108 -0.7561 -0.1287 -0.9939
  188POPC  H15B21629   3.662   5.800   3.039 -1.1966 -2.2626 -1.6713
  188POPC  H15C21630   3.483   5.797   3.009 -0.8454  0.0629  1.2721
  188POPC   C1121631   3.793   5.763   2.842  0.5216  0.0627  0.9053
  188POPC  H11A21632   3.836   5.710   2.755  0.3096  0.9720  0.2285
  188POPC  H11B21633   3.746   5.689   2.911  0.0077 -0.8483 -0.3828
  188POPC     P21634   3.990   5.926   2.807 -0.0840 -0.3573 -0.3349
  188POPC   O1321635   4.039   6.044   2.890  0.6413 -0.6878 -0.0868
  188POPC   O1421636   3.939   5.952   2.672  0.2313 -0.6966 -0.8195
  188POPC   O1221637   3.898   5.839   2.904  0.0954 -0.8890  0.3763
  188POPC   O1121638   4.114   5.834   2.786  0.1150  0.1257 -0.4112
  188POPC    C121639   4.118   5.702   2.831  0.3407 -0.1759  0.2751
  188POPC    HA21640   4.194   5.655   2.764  0.4301  0.0989  0.1847
  188POPC    HB21641   4.025   5.646   2.806  0.4537 -0.4598  0.4833
  188POPC    C221642   4.164   5.679   2.976  0.0113  0.1452 -0.3999
  188POPC    HS21643   4.187   5.572   2.991 -0.4661 -0.2042 -2.0107
  188POPC   O2121644   4.077   5.733   3.076 -0.3915 -0.7234 -0.3007
  188POPC   C2121645   3.978   5.652   3.110 -0.8409 -0.1705  0.8967
  188POPC   O2221646   3.966   5.538   3.070 -0.0093  0.0301 -0.4128
  188POPC   C2221647   3.881   5.734   3.201 -0.4361  0.1538 -0.0638
  188POPC   H2R21648   3.775   5.705   3.187 -1.2031  1.7150  1.9957
  188POPC   H2S21649   3.877   5.840   3.167 -0.9899 -0.0915 -0.8024
  188POPC    C321650   4.292   5.760   2.997 -0.1684  0.6117  0.3999
  188POPC    HX21651   4.280   5.870   3.001  1.4987  0.8257 -0.0436
  188POPC    HY21652   4.363   5.740   2.914 -0.5090 -1.0091  0.4661
  188POPC   O3121653   4.359   5.711   3.124  0.3094  0.5914 -0.4234
  188POPC   C3121654   4.331   5.774   3.234 -0.1007 -0.5020 -0.1812
  188POPC   O3221655   4.253   5.865   3.248  0.3978  0.1871 -0.4285
  188POPC   C3221656   4.411   5.706   3.353  0.6011  0.1519  0.1650
  188POPC   H2X21657   4.512   5.747   3.332 -0.1105  0.2693 -3.9311
  188POPC   H2Y21658   4.401   5.598   3.329  1.1575  0.5974 -2.3544
  188POPC   C2321659   3.917   5.730   3.348 -0.2784  0.2179  0.4550
  188POPC   H3R21660   3.863   5.816   3.393  1.0369  0.5074  1.5770
  188POPC   H3S21661   4.023   5.756   3.370  0.0955 -0.8723  0.0345
  188POPC   C2421662   3.864   5.603   3.417 -0.4702  0.0544  0.1029
  188POPC   H4R21663   3.882   5.512   3.356 -2.3421 -0.2598 -0.0446
  188POPC   H4S21664   3.754   5.612   3.435 -0.4900 -0.8507  0.4735
  188POPC   C2521665   3.938   5.569   3.548  0.6724 -0.6324 -0.4445
  188POPC   H5R21666   4.048   5.567   3.537  0.6990 -1.6606 -0.0209
  188POPC   H5S21667   3.909   5.465   3.574  0.7292 -0.6429 -0.4227
  188POPC   C2621668   3.908   5.665   3.666 -0.1366 -0.6501 -0.0731
  188POPC   H6R21669   3.800   5.691   3.660 -0.5229 -2.2130 -0.5150
  188POPC   H6S21670   3.972   5.755   3.656 -2.2067  1.3429  2.9092
  188POPC   C2721671   3.937   5.600   3.802 -0.7353  0.2295 -0.1236
  188POPC   H7R21672   4.045   5.574   3.803 -0.8757 -0.4546 -1.1282
  188POPC   H7S21673   3.889   5.501   3.815  1.0423 -0.6043  0.4368
  188POPC   C2821674   3.886   5.691   3.913  0.4662 -0.2189 -0.2703
  188POPC   H8R21675   3.780   5.670   3.940 -0.1010  2.7108  0.1321
  188POPC   H8S21676   3.892   5.797   3.881  0.5891 -0.3496 -0.6905
  188POPC   C2921677   3.961   5.660   4.035 -0.1082  0.3966 -0.7684
  188POPC   H9121678   4.065   5.694   4.037  0.1303 -0.3093  0.8898
  188POPC  C21021679   3.921   5.589   4.139  0.3262  0.2381  0.2623
  188POPC  H10121680   3.991   5.581   4.223  2.4684  2.2745 -1.2033
  188POPC  C21121681   3.786   5.534   4.170  0.1597  1.0104  0.2888
  188POPC  H11R21682   3.758   5.457   4.095 -0.4379  0.4881  1.0330
  188POPC  H11S21683   3.702   5.605   4.183 -2.1752 -1.5463  0.2353
  188POPC  C21221684   3.791   5.466   4.303  0.2369  0.1093  0.5941
  188POPC  H12R21685   3.686   5.438   4.324 -0.0323 -0.0029 -0.8316
  188POPC  H12S21686   3.820   5.539   4.382 -1.0788  1.5380 -0.2125
  188POPC  C21321687   3.878   5.340   4.296  0.6184 -0.1919  0.1685
  188POPC  H13R21688   3.986   5.359   4.273  0.4636 -1.8093 -2.2830
  188POPC  H13S21689   3.840   5.281   4.210 -0.6817  1.1183 -0.2077
  188POPC  C21421690   3.869   5.251   4.414  0.1255 -0.2539 -0.0981
  188POPC  H14R21691   3.928   5.163   4.382  1.2809  1.2453 -2.3760
  188POPC  H14S21692   3.761   5.230   4.428 -0.1692  2.3671  2.5710
  188POPC  C21521693   3.911   5.311   4.545 -0.0479 -0.5631 -0.5766
  188POPC  H15R21694   3.836   5.388   4.574 -1.2761 -1.2534 -1.8027
  188POPC  H15S21695   4.002   5.373   4.533 -0.6737  0.2425 -1.3364
  188POPC  C21621696   3.936   5.206   4.654  0.6210  0.8170 -0.1589
  188POPC  H16R21697   3.981   5.119   4.602  0.2690  1.3264 -1.3307
  188POPC  H16S21698   3.836   5.172   4.688 -0.2634  2.5282 -0.8829
  188POPC  C21721699   4.021   5.271   4.763  0.5205 -0.3675 -0.6986
  188POPC  H17R21700   3.982   5.373   4.783  0.2501 -0.5306 -0.3890
  188POPC  H17S21701   4.126   5.286   4.730  0.5586  0.2611 -0.3032
  188POPC  C21821702   4.019   5.191   4.891  0.2555  0.3001 -0.3586
  188POPC  H18R21703   3.918   5.152   4.917  0.3471 -0.3218 -0.9114
  188POPC  H18S21704   4.053   5.246   4.981 -1.4157 -0.1308  0.5855
  188POPC  H18T21705   4.084   5.106   4.861 -1.0028  0.0801 -2.7070
  188POPC   C3321706   4.360   5.732   3.496 -0.2667 -0.0092  0.1544
  188POPC   H3X21707   4.258   5.695   3.516 -0.4213 -0.1585 -0.8515
  188POPC   H3Y21708   4.355   5.841   3.517  0.3282 -0.0156  0.3623
  188POPC   C3421709   4.451   5.686   3.614  0.7809  0.1744 -0.0141
  188POPC   H4X21710   4.498   5.772   3.666  1.3706  0.6759 -1.3092
  188POPC   H4Y21711   4.533   5.631   3.562  0.4731 -2.5698  2.2203
  188POPC   C3521712   4.375   5.591   3.716  0.1019 -0.4744 -0.1910
  188POPC   H5X21713   4.353   5.487   3.684 -1.3104 -1.0451  2.3705
  188POPC   H5Y21714   4.277   5.639   3.737 -0.3499 -1.1989 -0.6371
  188POPC   C3621715   4.431   5.590   3.854 -0.4393 -0.0327  0.0547
  188POPC   H6X21716   4.437   5.695   3.890  1.6833 -0.5475  1.3515
  188POPC   H6Y21717   4.533   5.548   3.852 -0.8138 -0.9650 -0.9763
  188POPC   C3721718   4.346   5.516   3.954 -0.1658  0.0299 -0.6209
  188POPC   H7X21719   4.333   5.410   3.921  4.3248 -0.2700 -2.0806
  188POPC   H7Y21720   4.248   5.568   3.960 -1.1725 -1.7763 -0.5173
  188POPC   C3821721   4.407   5.525   4.096  0.2383  0.5408  0.4737
  188POPC   H8X21722   4.412   5.633   4.119  0.2268  0.1198  2.6917
  188POPC   H8Y21723   4.513   5.489   4.097  0.0392 -0.0764  0.1439
  188POPC   C3921724   4.322   5.455   4.201  0.5375  0.3853 -0.0768
  188POPC   H9X21725   4.357   5.350   4.193 -0.1176  0.2085 -0.8012
  188POPC   H9Y21726   4.211   5.462   4.196  0.2564  1.2266  4.1026
  188POPC  C31021727   4.373   5.514   4.332 -0.4946  0.7940 -0.4453
  188POPC  H10X21728   4.372   5.624   4.346 -2.6234  0.4451  3.6636
  188POPC  H10Y21729   4.476   5.472   4.338 -1.1613 -0.7110  1.2358
  188POPC  C31121730   4.297   5.456   4.453  0.2616 -0.7838  0.1647
  188POPC  H11X21731   4.273   5.351   4.424 -0.6014 -1.0646  1.7979
  188POPC  H11Y21732   4.201   5.511   4.465 -0.2385 -1.6023  0.0665
  188POPC  C31221733   4.369   5.456   4.590  0.3616  0.6178 -0.2198
  188POPC  H12X21734   4.305   5.416   4.671  0.8065  0.2506 -0.0441
  188POPC  H12Y21735   4.385   5.565   4.606 -0.4830  0.9047 -1.1830
  188POPC  C31321736   4.505   5.382   4.594  0.2894  0.6056  0.2927
  188POPC  H13X21737   4.583   5.396   4.515  0.7457 -0.1794  0.5905
  188POPC  H13Y21738   4.471   5.277   4.581 -0.5300  0.8104  0.7573
  188POPC  C31421739   4.581   5.422   4.723 -0.9155  0.2939 -0.2275
  188POPC  H14X21740   4.511   5.419   4.809  0.5330 -0.5924  0.9580
  188POPC  H14Y21741   4.607   5.528   4.703  0.1013 -0.5022 -4.0562
  188POPC  C31521742   4.708   5.345   4.756 -0.4395 -0.1976  0.3015
  188POPC  H15X21743   4.745   5.387   4.851  0.4662 -1.3019  0.4622
  188POPC  H15Y21744   4.781   5.341   4.672  0.0554 -1.3531  0.7660
  188POPC  C31621745   4.688   5.200   4.801  0.2072 -0.2642 -0.4522
  188POPC  H16X21746   4.777   5.152   4.846 -0.1845  0.9407  1.7997
  188POPC  H16Y21747   4.658   5.144   4.710  0.4776 -0.1067 -0.6391
  188POPC  H16Z21748   4.598   5.187   4.866  0.9795  0.7655  0.8835
  189SAPI   C1221749   4.441   3.908   7.493  0.1293  0.1688  0.4466
  189SAPI    H221750   4.366   3.856   7.430  0.4805  0.6731 -0.3984
  189SAPI    O221751   4.512   3.992   7.404  0.5700 -0.2713  0.6340
  189SAPI   HO221752   4.571   3.941   7.348  1.2320  0.9409  0.1941
  189SAPI   C1321753   4.378   3.976   7.610  0.4709 -0.1588  0.4782
  189SAPI    H321754   4.321   3.899   7.666  0.6436 -0.6157  0.0300
  189SAPI    O321755   4.277   4.076   7.568 -0.0813  0.7549 -0.4839
  189SAPI   HO321756   4.299   4.119   7.485 -3.5435  2.8944 -0.5109
  189SAPI   C1421757   4.490   4.035   7.696 -0.2183  0.2404 -0.0869
  189SAPI    H421758   4.544   4.109   7.634 -0.9310 -0.4632 -1.5798
  189SAPI    O421759   4.433   4.107   7.807 -0.6966 -0.0699  0.1137
  189SAPI   HO421760   4.397   4.042   7.868  0.9075 -1.2018 -0.0468
  189SAPI   C1521761   4.600   3.941   7.738 -0.2313  0.4080 -0.5213
  189SAPI    H521762   4.561   3.880   7.822 -1.0697  0.6614 -0.7097
  189SAPI    O521763   4.711   4.018   7.791  0.0930  1.2378 -0.1736
  189SAPI   HO521764   4.760   3.957   7.847 -0.1865 -0.6790 -1.8971
  189SAPI   C1621765   4.642   3.831   7.633 -0.3764  0.0572 -0.6933
  189SAPI    H621766   4.711   3.890   7.570 -0.4387  2.4452  1.3326
  189SAPI    O621767   4.717   3.721   7.678  0.5163 -0.1867 -0.5174
  189SAPI   HO621768   4.658   3.661   7.724 -4.7916  2.8850 -2.4182
  189SAPI   C1121769   4.531   3.789   7.538  0.4192 -0.0485 -0.6878
  189SAPI    H121770   4.465   3.722   7.597  1.8341 -1.1736 -0.3163
  189SAPI     P21771   4.566   3.560   7.385 -0.3693 -0.5523  1.0231
  189SAPI   O1321772   4.511   3.470   7.489 -0.4296 -0.2862 -0.3954
  189SAPI   O1421773   4.692   3.526   7.310 -0.4109 -0.6793 -0.5395
  189SAPI   O1221774   4.569   3.723   7.418  0.1277  0.5566  0.3881
  189SAPI   O1121775   4.457   3.549   7.273  0.9114 -0.0287 -0.5233
  189SAPI    C121776   4.471   3.647   7.170 -0.2107 -0.3730  0.1224
  189SAPI    HA21777   4.442   3.745   7.215  0.1616 -0.4852  0.6102
  189SAPI    HB21778   4.570   3.632   7.122 -1.2196  0.1088 -2.2766
  189SAPI    C221779   4.365   3.619   7.069 -0.4932  0.2240 -0.1599
  189SAPI    HS21780   4.268   3.640   7.118 -0.1054 -2.8445  2.2536
  189SAPI   O2121781   4.362   3.483   7.028  0.3089 -0.1807  0.7075
  189SAPI   C2121782   4.246   3.439   6.969 -0.1622 -0.4883 -0.4972
  189SAPI   O2221783   4.158   3.515   6.926 -0.8671 -0.9993 -0.3829
  189SAPI   C2221784   4.229   3.295   6.947 -0.3962 -0.2353  0.4023
  189SAPI   H2R21785   4.323   3.245   6.978  1.2213  0.2741 -3.2009
  189SAPI   H2S21786   4.138   3.253   6.995 -0.6142 -0.4492 -0.1845
  189SAPI    C321787   4.374   3.716   6.945  0.1349  0.2536 -0.2650
  189SAPI    HX21788   4.414   3.814   6.980  0.9189 -0.2930  0.4085
  189SAPI    HY21789   4.274   3.742   6.906 -0.1540  3.1429  2.0713
  189SAPI   O3121790   4.462   3.668   6.837 -0.1137 -0.0368  0.3922
  189SAPI   C3121791   4.589   3.716   6.834  0.3214  0.8697 -0.5395
  189SAPI   O3221792   4.639   3.788   6.919  0.1619  0.0112 -0.4082
  189SAPI   C3221793   4.662   3.655   6.714  1.0378  0.4326 -0.8531
  189SAPI   H2X21794   4.675   3.545   6.727  2.0020  0.5974 -0.2325
  189SAPI   H2Y21795   4.760   3.704   6.730  2.2018 -1.6437 -1.1929
  189SAPI   C2321796   4.215   3.276   6.793 -0.5177  0.0645  0.2228
  189SAPI   H3R21797   4.134   3.340   6.751 -1.6502 -1.4883 -0.0128
  189SAPI   H3S21798   4.187   3.169   6.786 -0.9939  0.1474  0.7330
  189SAPI   C2421799   4.347   3.301   6.714  0.4497 -0.6895 -0.1993
  189SAPI   H4R21800   4.370   3.409   6.717  1.3814 -0.7702 -2.4046
  189SAPI   H4S21801   4.319   3.285   6.608  3.4397  0.3147 -1.2468
  189SAPI   C2521802   4.473   3.221   6.738 -0.2628  0.2301 -0.7385
  189SAPI   H5R21803   4.503   3.201   6.842 -1.5086 -0.3608 -0.4675
  189SAPI   C2621804   4.551   3.153   6.647  0.6050 -0.0222  0.1537
  189SAPI   H6R21805   4.642   3.105   6.686  0.8717  0.4372  0.0898
  189SAPI   C2721806   4.529   3.155   6.498 -0.8464  0.6473 -0.3544
  189SAPI   H7R21807   4.631   3.140   6.455  0.0156  0.6174  1.6094
  189SAPI   H7S21808   4.503   3.258   6.467  0.3925  1.4095  1.0282
  189SAPI   C2821809   4.427   3.064   6.448  0.4698  0.3638  0.1587
  189SAPI   H8R21810   4.387   2.996   6.524  2.3036  1.4625  2.2201
  189SAPI   C2921811   4.397   3.046   6.312  0.8291 -0.8733  0.0175
  189SAPI   H9R21812   4.330   2.960   6.292  1.2563 -1.1553 -0.2094
  189SAPI  C21021813   4.447   3.125   6.191  0.2151 -0.1236  0.1547
  189SAPI  H10R21814   4.481   3.223   6.230 -1.9912 -0.3609  3.0485
  189SAPI  H10S21815   4.370   3.157   6.118  0.3071  1.6650  0.8106
  189SAPI  C21121816   4.565   3.059   6.122  0.1577 -0.4241  0.8703
  189SAPI  H11R21817   4.640   3.043   6.200 -0.3541 -0.8267  1.2883
  189SAPI  C21221818   4.580   3.030   5.996 -0.3556  0.9274  0.7669
  189SAPI  H12R21819   4.680   2.988   5.978 -0.2061  1.6310 -0.1387
  189SAPI  C21321820   4.479   3.048   5.882 -0.6382  0.2749 -0.2977
  189SAPI  H13R21821   4.378   3.028   5.923 -0.2457 -0.7889  0.1892
  189SAPI  H13S21822   4.496   2.968   5.806 -1.9659  0.1127 -0.4573
  189SAPI  C21421823   4.492   3.182   5.819  1.0632  0.2700 -0.2265
  189SAPI  H14R21824   4.448   3.261   5.882 -1.7555 -0.5100 -1.0619
  189SAPI  C21521825   4.532   3.210   5.691 -0.4354  0.0238 -0.1698
  189SAPI  H15R21826   4.513   3.313   5.659 -5.5792 -0.3680  0.8390
  189SAPI  C21621827   4.557   3.102   5.581  0.0421 -0.5082 -0.3213
  189SAPI  H16R21828   4.609   3.009   5.613 -0.0413 -0.1489  0.9114
  189SAPI  H16S21829   4.615   3.147   5.497 -1.0981 -0.4877 -1.1130
  189SAPI  C21721830   4.427   3.053   5.521 -0.7472  0.2143 -0.7460
  189SAPI  H17R21831   4.367   3.136   5.479 -1.5661  2.8780  4.7582
  189SAPI  H17S21832   4.369   3.007   5.604  0.7833 -0.1151  0.1790
  189SAPI  C21821833   4.463   2.948   5.404 -0.1940 -0.0868 -0.6678
  189SAPI  H18R21834   4.460   2.846   5.446  0.4190  1.5770  3.9726
  189SAPI  H18S21835   4.561   2.985   5.365 -0.3991  0.8135 -0.3719
  189SAPI  C21921836   4.364   2.945   5.284  0.5816 -0.0043  0.6934
  189SAPI  H19R21837   4.356   3.043   5.233 -1.5247 -0.0589  0.8361
  189SAPI  H19S21838   4.267   2.912   5.327  0.5108 -0.1966  0.3886
  189SAPI  C22021839   4.401   2.837   5.180 -0.1567 -0.2005  1.1858
  189SAPI  H20R21840   4.492   2.861   5.120 -1.0245  0.0482 -0.0726
  189SAPI  H20S21841   4.328   2.843   5.097  0.5473  0.3578  0.5893
  189SAPI  H20T21842   4.387   2.731   5.210  0.6688 -1.3422 -2.0468
  189SAPI   C3321843   4.598   3.694   6.580 -0.2932 -0.5380 -0.3845
  189SAPI   H3X21844   4.612   3.804   6.570 -2.6233  0.0221  1.3401
  189SAPI   H3Y21845   4.490   3.668   6.582 -0.3402 -0.3397  1.4427
  189SAPI   C3421846   4.674   3.627   6.473  0.3999  0.4945  0.3219
  189SAPI   H4X21847   4.678   3.516   6.473  0.1939  0.4839  0.8422
  189SAPI   H4Y21848   4.778   3.662   6.495  1.2128 -1.9148  0.6982
  189SAPI   C3521849   4.640   3.669   6.328 -0.3881  0.0656 -0.8230
  189SAPI   H5X21850   4.639   3.779   6.339 -0.0507 -0.2083  3.3809
  189SAPI   H5Y21851   4.537   3.635   6.304 -0.6983 -0.1347  0.7199
  189SAPI   C3621852   4.745   3.608   6.229 -0.1145  0.0568 -0.0147
  189SAPI   H6X21853   4.722   3.500   6.239 -2.7768  0.5762  0.1181
  189SAPI   H6Y21854   4.846   3.626   6.273 -0.3006  1.0227  0.0515
  189SAPI   C3721855   4.724   3.668   6.094  0.2498  0.0221 -0.1176
  189SAPI   H7X21856   4.762   3.772   6.098 -2.8379  1.2306  2.2567
  189SAPI   H7Y21857   4.616   3.678   6.073  0.3355  0.3056 -0.4184
  189SAPI   C3821858   4.795   3.592   5.980  0.2350  0.1558 -0.1514
  189SAPI   H8X21859   4.730   3.503   5.964 -0.5383  0.5948  0.4659
  189SAPI   H8Y21860   4.892   3.562   6.025  1.3987  0.4305 -2.3507
  189SAPI   C3921861   4.823   3.665   5.848  0.0260 -0.3904  0.5496
  189SAPI   H9X21862   4.869   3.602   5.768 -2.9434 -0.5349 -1.1721
  189SAPI   H9Y21863   4.903   3.736   5.879  0.2575 -1.0387  1.4817
  189SAPI  C31021864   4.703   3.743   5.789  0.1579  0.1903  0.2804
  189SAPI  H10X21865   4.657   3.808   5.866  0.7763  0.0225  0.8077
  189SAPI  H10Y21866   4.628   3.675   5.744  0.1253  0.5452 -0.2136
  189SAPI  C31121867   4.754   3.840   5.675  0.1280 -0.0195 -0.0691
  189SAPI  H11X21868   4.822   3.801   5.596  0.9850  0.8530  0.2240
  189SAPI  H11Y21869   4.815   3.912   5.734  0.8784 -1.9810  1.6419
  189SAPI  C31221870   4.643   3.918   5.604  0.0808  0.1685 -0.7142
  189SAPI  H12X21871   4.576   3.964   5.680  0.2089 -1.0344  0.1532
  189SAPI  H12Y21872   4.582   3.840   5.555 -3.3060  2.6108 -0.7553
  189SAPI  C31321873   4.693   4.015   5.493  0.0894 -0.5779 -0.5099
  189SAPI  H13X21874   4.786   3.972   5.451  0.5609  0.5135 -0.6198
  189SAPI  H13Y21875   4.724   4.101   5.556 -1.1488 -0.8443  0.5071
  189SAPI  C31421876   4.591   4.054   5.380 -0.7599  0.3186  0.2231
  189SAPI  H14X21877   4.651   4.121   5.315 -0.0208 -0.8280 -0.2907
  189SAPI  H14Y21878   4.501   4.104   5.423 -0.8371  1.0618 -0.7705
  189SAPI  C31521879   4.533   3.938   5.298  0.7062 -0.4923 -0.1957
  189SAPI  H15X21880   4.455   3.889   5.359  1.4147 -2.0084 -0.4596
  189SAPI  H15Y21881   4.616   3.865   5.280 -0.0484 -1.6541  0.8875
  189SAPI  C31621882   4.479   3.994   5.164 -0.6994  0.1041 -1.0580
  189SAPI  H16X21883   4.573   4.037   5.123  0.9106  0.4364  2.6221
  189SAPI  H16Y21884   4.410   4.079   5.185  0.3141  0.6502  0.1945
  189SAPI  C31721885   4.417   3.898   5.068 -0.8085 -0.0136  0.9991
  189SAPI  H17X21886   4.475   3.806   5.046  0.2739  1.1197 -1.2383
  189SAPI  H17Y21887   4.415   3.960   4.975 -0.3067  0.0417  1.0252
  189SAPI  C31821888   4.268   3.888   5.094  0.3461  0.1465 -1.1122
  189SAPI  H18X21889   4.233   3.796   5.042 -1.4062  0.6993 -0.9701
  189SAPI  H18Y21890   4.198   3.971   5.073 -0.4736  0.1099  1.2509
  189SAPI  H18Z21891   4.254   3.862   5.201 -1.4104 -0.1975 -1.3965
  190SAPI   C1221892   5.280   1.790   7.483  0.1058 -0.2178  0.0450
  190SAPI    H221893   5.385   1.781   7.519  0.5299 -0.1467 -1.1298
  190SAPI    O221894   5.283   1.732   7.352  0.0010 -0.3151  0.5952
  190SAPI   HO221895   5.362   1.754   7.302 -1.3253 -0.8921 -1.9010
  190SAPI   C1321896   5.182   1.713   7.573  0.1214 -0.4672  0.4224
  190SAPI    H321897   5.170   1.748   7.678 -0.9257 -0.6919  0.3921
  190SAPI    O321898   5.222   1.574   7.582 -0.2054 -0.5885  0.4509
  190SAPI   HO321899   5.179   1.522   7.514  1.1622 -2.7569  1.1512
  190SAPI   C1421900   5.046   1.706   7.497  0.0413 -0.8421 -0.6586
  190SAPI    H421901   5.065   1.643   7.408  1.7509  1.0592 -1.7358
  190SAPI    O421902   4.944   1.641   7.572 -0.1702 -0.4315  0.2073
  190SAPI   HO421903   4.862   1.633   7.523  0.4953 -1.3167 -0.8017
  190SAPI   C1521904   4.997   1.855   7.468  0.4910  0.3424 -0.1157
  190SAPI    H521905   4.961   1.900   7.563  1.1731  1.1561 -0.2290
  190SAPI    O521906   4.883   1.861   7.382 -1.0957 -0.2352 -0.7692
  190SAPI   HO521907   4.810   1.905   7.425 -0.0168  0.3004  0.5711
  190SAPI   C1621908   5.103   1.961   7.425 -0.4411  0.4420 -0.4721
  190SAPI    H621909   5.112   1.948   7.315  0.7848  0.8727 -0.4419
  190SAPI    O621910   5.052   2.093   7.454  0.8888  0.4948 -0.6237
  190SAPI   HO621911   5.049   2.097   7.550  1.9711 -1.7088 -0.4417
  190SAPI   C1121912   5.245   1.936   7.474 -0.4489 -0.6571 -1.0298
  190SAPI    H121913   5.250   1.967   7.581  0.3236 -1.1589 -0.9118
  190SAPI     P21914   5.383   2.159   7.412  0.1966 -0.0658  0.3771
  190SAPI   O1321915   5.527   2.166   7.389 -0.3448 -0.5189  0.3405
  190SAPI   O1421916   5.338   2.207   7.544 -0.3721  0.4938  0.4090
  190SAPI   O1221917   5.344   2.010   7.399  0.0148  0.8649  0.2417
  190SAPI   O1121918   5.313   2.236   7.296  0.2583  0.3763  0.2418
  190SAPI    C121919   5.248   2.179   7.180 -0.0629 -0.0886 -0.3765
  190SAPI    HA21920   5.180   2.098   7.213  1.1835 -0.6665  0.8246
  190SAPI    HB21921   5.191   2.250   7.116  0.8518 -0.6570 -1.8741
  190SAPI    C221922   5.348   2.119   7.081  0.0390  0.6982 -0.0328
  190SAPI    HS21923   5.387   2.034   7.142  2.8919  1.4462 -0.6335
  190SAPI   O2121924   5.464   2.199   7.049 -0.0933 -0.8370 -0.1473
  190SAPI   C2121925   5.571   2.135   6.993 -0.5520  0.7339 -0.3464
  190SAPI   O2221926   5.577   2.016   6.974 -0.1866  0.1466 -0.3701
  190SAPI   C2221927   5.667   2.240   6.967  0.4743 -0.1550 -0.3165
  190SAPI   H2R21928   5.622   2.325   6.912  1.5920  1.2091  0.8137
  190SAPI   H2S21929   5.699   2.272   7.068 -0.5413 -2.9521  1.0031
  190SAPI    C321930   5.284   2.057   6.953  0.3324  0.7919  0.3550
  190SAPI    HX21931   5.362   2.006   6.893  0.9325  1.4242  0.5893
  190SAPI    HY21932   5.249   2.135   6.882  1.4389 -0.1576 -1.2945
  190SAPI   O3121933   5.178   1.962   6.985 -0.1423 -0.3023  0.5666
  190SAPI   C3121934   5.213   1.831   7.007 -0.3085 -0.7741  0.1715
  190SAPI   O3221935   5.329   1.789   7.019  0.2644  0.1985 -0.0069
  190SAPI   C3221936   5.089   1.742   7.018 -0.0373  0.5890  0.1476
  190SAPI   H2X21937   4.997   1.803   7.010 -0.5097 -0.2824 -1.5776
  190SAPI   H2Y21938   5.093   1.677   7.108 -0.0298  1.1024  0.5227
  190SAPI   C2321939   5.787   2.187   6.884 -0.0682 -0.8208  0.2240
  190SAPI   H3R21940   5.828   2.094   6.930 -0.1367 -1.1210 -0.3140
  190SAPI   H3S21941   5.861   2.268   6.898 -0.2822 -0.5028 -0.4405
  190SAPI   C2421942   5.753   2.166   6.734  0.0194 -0.4326  0.1505
  190SAPI   H4R21943   5.663   2.102   6.732  0.1836 -0.6856  0.7218
  190SAPI   H4S21944   5.841   2.111   6.695  0.4226 -0.0343  0.4826
  190SAPI   C2521945   5.729   2.294   6.656 -0.0503 -0.8365  0.3026
  190SAPI   H5R21946   5.799   2.378   6.661 -1.4365  0.3411  0.7179
  190SAPI   C2621947   5.617   2.331   6.589 -0.2589 -0.3656  0.5371
  190SAPI   H6R21948   5.614   2.427   6.535  0.0041 -0.1701  0.8688
  190SAPI   C2721949   5.495   2.245   6.577 -0.3057 -0.0937 -0.3129
  190SAPI   H7R21950   5.441   2.236   6.674  2.1285 -0.6381  1.0666
  190SAPI   H7S21951   5.537   2.143   6.563 -2.2453 -0.7139 -2.2521
  190SAPI   C2821952   5.403   2.271   6.463 -0.3404  0.4227  0.0161
  190SAPI   H8R21953   5.299   2.290   6.494 -0.1785  1.6147 -0.1180
  190SAPI   C2921954   5.428   2.275   6.331 -0.3474  0.3545 -0.0648
  190SAPI   H9R21955   5.353   2.299   6.255  1.1839 -0.9170 -2.0906
  190SAPI  C21021956   5.565   2.237   6.272 -0.0398 -0.6836 -0.4722
  190SAPI  H10R21957   5.544   2.161   6.194 -2.1126 -1.9000  1.1548
  190SAPI  H10S21958   5.622   2.166   6.335  0.3007 -0.3737 -0.4254
  190SAPI  C21121959   5.645   2.356   6.233  0.9482  0.0473 -0.1627
  190SAPI  H11R21960   5.653   2.439   6.305  1.4853 -0.3655  0.2638
  190SAPI  C21221961   5.695   2.379   6.108  0.3558 -0.4287  0.2335
  190SAPI  H12R21962   5.745   2.473   6.080 -0.9303 -0.2510 -1.6367
  190SAPI  C21321963   5.690   2.293   5.990 -0.0378  0.2715 -1.0918
  190SAPI  H13R21964   5.709   2.189   6.025  1.0973  1.6647  3.0791
  190SAPI  H13S21965   5.770   2.316   5.916  0.1346  2.4296 -0.3146
  190SAPI  C21421966   5.557   2.299   5.926  0.4127  0.1157 -0.0897
  190SAPI  H14R21967   5.503   2.395   5.929  2.5935  1.7213 -3.9921
  190SAPI  C21521968   5.496   2.204   5.843  0.2341 -0.3570 -0.5617
  190SAPI  H15R21969   5.391   2.207   5.810  0.4346  0.3260 -1.1726
  190SAPI  C21621970   5.546   2.071   5.807 -0.4491 -0.2605 -0.4546
  190SAPI  H16R21971   5.475   1.988   5.826 -1.0377  0.2625 -0.3517
  190SAPI  H16S21972   5.636   2.044   5.866  0.1026  0.1521 -1.0835
  190SAPI  C21721973   5.594   2.051   5.659 -0.0016 -0.0749 -0.0874
  190SAPI  H17R21974   5.628   1.946   5.649 -1.4691 -0.8192  1.9913
  190SAPI  H17S21975   5.668   2.125   5.620 -0.3959  0.2878 -0.1635
  190SAPI  C21821976   5.465   2.073   5.571 -0.1534  0.1705  0.8753
  190SAPI  H18R21977   5.444   2.181   5.560 -0.3657  0.3021  2.3438
  190SAPI  H18S21978   5.379   2.028   5.625 -1.0841 -0.2568 -0.8833
  190SAPI  C21921979   5.488   1.998   5.443  0.4928  0.8005 -0.2270
  190SAPI  H19R21980   5.477   1.888   5.451 -0.7285  0.9784  0.8961
  190SAPI  H19S21981   5.594   2.022   5.419  1.3170 -0.2208  2.1207
  190SAPI  C22021982   5.394   2.049   5.331  0.5755  0.5166 -0.4388
  190SAPI  H20R21983   5.399   2.159   5.316  1.0744  0.1872 -3.0942
  190SAPI  H20S21984   5.288   2.022   5.351 -0.1064  1.3201 -2.6781
  190SAPI  H20T21985   5.420   2.000   5.235  0.0834  0.0139 -0.3206
  190SAPI   C3321986   5.103   1.643   6.902 -0.6088  0.8439 -0.5539
  190SAPI   H3X21987   5.015   1.576   6.914  0.5557 -0.4294  1.1956
  190SAPI   H3Y21988   5.190   1.576   6.917  0.4878  2.3523  0.0857
  190SAPI   C3421989   5.086   1.698   6.762  0.2727 -0.8350  0.6546
  190SAPI   H4X21990   5.178   1.681   6.702  0.1984  2.3383 -0.5439
  190SAPI   H4Y21991   5.078   1.809   6.754  2.0042 -0.7999 -1.2745
  190SAPI   C3521992   4.968   1.647   6.675 -0.4153 -0.3638 -0.3780
  190SAPI   H5X21993   4.878   1.661   6.738 -1.7943  0.2188 -2.3898
  190SAPI   H5Y21994   4.981   1.539   6.654  1.9845 -0.0011 -1.0864
  190SAPI   C3621995   4.951   1.704   6.530 -0.1069  0.4253 -0.0665
  190SAPI   H6X21996   4.960   1.814   6.535 -0.7725  0.4972 -0.2784
  190SAPI   H6Y21997   4.851   1.678   6.490  0.8478 -1.0922 -1.6134
  190SAPI   C3721998   5.068   1.665   6.433 -0.2208  0.0479  0.2827
  190SAPI   H7X21999   5.075   1.554   6.442  0.2087 -0.0720 -1.3592
  190SAPI   H7Y22000   5.153   1.728   6.466 -1.1044  0.7211  1.3597
  190SAPI   C3822001   5.050   1.711   6.285 -0.3775  0.4950  0.9978
  190SAPI   H8X22002   5.013   1.815   6.283 -1.1897  0.2072 -1.3672
  190SAPI   H8Y22003   4.968   1.655   6.235  0.0640 -0.3121  1.1622
  190SAPI   C3922004   5.186   1.710   6.207 -0.3710  0.7879  0.4533
  190SAPI   H9X22005   5.231   1.611   6.228 -1.0645  0.2520 -0.5323
  190SAPI   H9Y22006   5.257   1.791   6.237 -0.3029  0.2027  1.9408
  190SAPI  C31022007   5.165   1.734   6.062 -0.4400 -0.5530  0.7700
  190SAPI  H10X22008   5.141   1.842   6.046  2.4466 -0.0544 -1.0560
  190SAPI  H10Y22009   5.090   1.664   6.019  1.2365 -1.0232 -1.5731
  190SAPI  C31122010   5.293   1.722   5.977 -0.5924 -0.9864 -0.5579
  190SAPI  H11X22011   5.335   1.619   5.981 -0.9632 -1.1200  1.9183
  190SAPI  H11Y22012   5.366   1.785   6.033 -0.7764  2.5552 -3.8700
  190SAPI  C31222013   5.276   1.778   5.833 -0.0154 -0.7156 -0.3768
  190SAPI  H12X22014   5.375   1.784   5.782  1.3334  0.5835  2.1802
  190SAPI  H12Y22015   5.240   1.883   5.836  0.7745 -0.4478  0.2463
  190SAPI  C31322016   5.187   1.688   5.749  0.3041  0.1257  0.3051
  190SAPI  H13X22017   5.081   1.721   5.761  0.7197  0.7192  3.0895
  190SAPI  H13Y22018   5.189   1.583   5.785  1.3414  0.7850  2.3182
  190SAPI  C31422019   5.235   1.699   5.599  0.6410  0.7657  0.2109
  190SAPI  H14X22020   5.343   1.677   5.592 -0.0998 -3.4070 -0.8076
  190SAPI  H14Y22021   5.212   1.805   5.573  0.0149  0.5988  0.0583
  190SAPI  C31522022   5.170   1.593   5.510 -0.7946 -0.3324 -0.3148
  190SAPI  H15X22023   5.064   1.625   5.496 -0.5830  1.4226  1.6147
  190SAPI  H15Y22024   5.159   1.496   5.563 -0.6782  0.7075  1.7183
  190SAPI  C31622025   5.238   1.574   5.374  0.7808  0.3927 -0.2940
  190SAPI  H16X22026   5.175   1.517   5.302  0.2637 -0.2653  0.6623
  190SAPI  H16Y22027   5.330   1.515   5.391  0.3122  0.0656  1.2371
  190SAPI  C31722028   5.276   1.706   5.313 -0.4998 -0.0351 -0.0017
  190SAPI  H17X22029   5.373   1.747   5.350 -0.0264  0.9002 -2.1393
  190SAPI  H17Y22030   5.200   1.786   5.326 -0.1748  0.9316 -3.1400
  190SAPI  C31822031   5.298   1.682   5.166 -0.3928  0.1409  0.8234
  190SAPI  H18X22032   5.200   1.666   5.115 -0.8931  0.4505  1.6690
  190SAPI  H18Y22033   5.377   1.606   5.146  0.2517  1.0829 -0.2932
  190SAPI  H18Z22034   5.343   1.771   5.118 -0.3920 -0.1916  0.1860
  191SAPI   C1222035   0.709   2.804   3.407 -0.1223 -0.7283 -0.8057
  191SAPI    H222036   0.765   2.769   3.497 -1.0900 -0.2228  0.0223
  191SAPI    O222037   0.582   2.848   3.451 -0.0996 -0.1107 -0.4222
  191SAPI   HO222038   0.533   2.766   3.446 -1.4512  0.6885 -0.8371
  191SAPI   C1322039   0.782   2.923   3.343  0.9135 -0.6873  0.2734
  191SAPI    H322040   0.878   2.883   3.302  0.4124 -1.6614  0.0134
  191SAPI    O322041   0.814   3.017   3.442 -0.6031  0.8944 -0.2550
  191SAPI   HO322042   0.731   3.033   3.486 -1.4418 -2.8635 -0.1761
  191SAPI   C1422043   0.699   2.986   3.227 -0.0479  0.6083 -0.4022
  191SAPI    H422044   0.601   3.018   3.268  0.8105  3.0487 -0.0727
  191SAPI    O422045   0.760   3.109   3.181 -0.2498 -0.2794 -0.3903
  191SAPI   HO422046   0.735   3.180   3.240  0.7393  1.0102 -1.4639
  191SAPI   C1522047   0.685   2.875   3.119  0.5985  0.1143  0.2860
  191SAPI    H522048   0.789   2.852   3.088 -0.0925 -1.4056 -1.0658
  191SAPI    O522049   0.605   2.923   3.007 -0.1464  0.3161 -0.4338
  191SAPI   HO522050   0.538   2.985   3.038 -0.0051  0.6163 -0.7225
  191SAPI   C1622051   0.630   2.743   3.171 -0.1978  0.4405  0.0333
  191SAPI    H622052   0.520   2.753   3.187 -0.3761 -0.2140 -0.6948
  191SAPI    O622053   0.637   2.651   3.062 -0.2294  0.7645 -0.4393
  191SAPI   HO622054   0.584   2.574   3.084  0.2986  0.0559 -1.5411
  191SAPI   C1122055   0.685   2.692   3.305  0.3055  0.9246 -0.4112
  191SAPI    H122056   0.788   2.651   3.295 -0.5616 -1.2117 -1.3327
  191SAPI     P22057   0.639   2.425   3.351  0.2212 -0.1271  0.1572
  191SAPI   O1322058   0.659   2.395   3.210 -0.1218 -0.1895  0.0666
  191SAPI   O1422059   0.537   2.347   3.422 -0.0263  0.1328  0.5545
  191SAPI   O1222060   0.607   2.586   3.366  0.4487  0.1086  0.2884
  191SAPI   O1122061   0.770   2.401   3.431  1.0791  0.0947 -0.1986
  191SAPI    C122062   0.785   2.424   3.568  0.1750  0.6146  0.3174
  191SAPI    HA22063   0.776   2.533   3.589  0.8991  0.8894 -0.7174
  191SAPI    HB22064   0.701   2.366   3.611 -0.3632  0.6221 -0.6970
  191SAPI    C222065   0.928   2.377   3.609  0.1330 -0.0958  0.4736
  191SAPI    HS22066   0.997   2.416   3.530  1.9166  1.2670  2.5939
  191SAPI   O2122067   0.939   2.237   3.612 -0.5216  0.0776  0.4337
  191SAPI   C2122068   1.055   2.176   3.637 -0.2001 -0.2425 -0.3320
  191SAPI   O2222069   1.162   2.225   3.630 -0.1588 -0.3623  0.1500
  191SAPI   C2222070   1.029   2.029   3.665  0.4783  0.2623  0.1490
  191SAPI   H2R22071   0.935   2.019   3.724  0.0678  1.1568 -0.3367
  191SAPI   H2S22072   1.034   1.969   3.571  0.4361 -1.2629  1.0911
  191SAPI    C322073   0.977   2.442   3.742  0.4275  0.4720 -0.0845
  191SAPI    HX22074   0.953   2.550   3.740  1.0744  0.7111  2.1089
  191SAPI    HY22075   1.087   2.427   3.753  0.3184 -0.3625 -0.0131
  191SAPI   O3122076   0.913   2.376   3.844  0.0520 -0.0592 -0.4212
  191SAPI   C3122077   0.951   2.404   3.969 -0.6135 -0.4634  0.0462
  191SAPI   O3222078   1.050   2.469   4.004 -0.3738  1.0311  0.0470
  191SAPI   C3222079   0.855   2.351   4.075 -0.0819  0.2864 -0.0696
  191SAPI   H2X22080   0.868   2.242   4.092  0.6581  0.3999  0.1482
  191SAPI   H2Y22081   0.758   2.368   4.024 -0.6608  1.3695  1.3204
  191SAPI   C2322082   1.135   1.960   3.752 -0.2272  0.7338 -0.5446
  191SAPI   H3R22083   1.184   2.031   3.823  2.7719 -1.0877 -0.6503
  191SAPI   H3S22084   1.211   1.919   3.683  0.9859  0.8351  0.6892
  191SAPI   C2422085   1.079   1.844   3.852 -0.8036 -0.4553 -0.0996
  191SAPI   H4R22086   1.164   1.794   3.902 -0.5610  0.7590  0.7477
  191SAPI   H4S22087   1.034   1.768   3.784 -1.5123 -1.2368  1.2059
  191SAPI   C2522088   0.997   1.906   3.965  0.4878 -0.1815 -0.9467
  191SAPI   H5R22089   0.888   1.891   3.962  0.3786 -0.2607  1.5602
  191SAPI   C2622090   1.043   1.986   4.062  0.6782 -0.0060 -0.4749
  191SAPI   H6R22091   0.963   2.014   4.132  0.4578 -0.1057 -0.6803
  191SAPI   C2722092   1.184   2.022   4.095  0.7551  0.0120 -0.3647
  191SAPI   H7R22093   1.258   1.966   4.035 -2.6845 -2.4610 -2.6574
  191SAPI   H7S22094   1.202   1.986   4.199  2.2357  0.7425 -0.3442
  191SAPI   C2822095   1.211   2.173   4.095  0.0382 -0.3551 -0.0452
  191SAPI   H8R22096   1.206   2.218   3.995  0.2660 -0.7902 -0.2547
  191SAPI   C2922097   1.239   2.259   4.192 -0.2858 -0.2515  0.3280
  191SAPI   H9R22098   1.263   2.361   4.158  1.8135 -0.9348 -0.4107
  191SAPI  C21022099   1.259   2.224   4.339  0.2337  0.0886 -0.4841
  191SAPI  H10R22100   1.337   2.145   4.338  0.4786  0.3206  0.0743
  191SAPI  H10S22101   1.168   2.169   4.368  0.4066 -0.7427 -1.4438
  191SAPI  C21122102   1.295   2.334   4.442  0.5213 -0.1773 -0.0156
  191SAPI  H11R22103   1.402   2.337   4.466  0.4232 -0.4067  0.4738
  191SAPI  C21222104   1.223   2.434   4.503 -0.4404  0.3639 -0.2605
  191SAPI  H12R22105   1.285   2.498   4.567  0.9058  0.7140 -1.8327
  191SAPI  C21322106   1.074   2.462   4.503 -0.2221 -0.0397 -0.4522
  191SAPI  H13R22107   1.014   2.370   4.488 -0.2288  0.1845 -1.8681
  191SAPI  H13S22108   1.057   2.516   4.408  0.8773  2.1460  0.5148
  191SAPI  C21422109   1.037   2.540   4.626  0.3860  0.2767 -0.6435
  191SAPI  H14R22110   1.066   2.646   4.634 -0.7309  0.5654 -0.1571
  191SAPI  C21522111   0.956   2.496   4.725 -0.2368  0.1203  0.1628
  191SAPI  H15R22112   0.937   2.564   4.810 -2.4202 -1.1776  0.7960
  191SAPI  C21622113   0.903   2.351   4.742 -0.9576 -0.1501  0.3421
  191SAPI  H16R22114   0.851   2.324   4.647 -0.2137 -0.2459 -0.0404
  191SAPI  H16S22115   0.830   2.354   4.827  2.2095  0.9510  3.2343
  191SAPI  C21722116   1.011   2.243   4.766 -0.5267  0.1673 -0.4981
  191SAPI  H17R22117   1.073   2.224   4.675  0.9555 -0.2581  0.5559
  191SAPI  H17S22118   0.958   2.152   4.799 -1.6103  0.3444 -1.6750
  191SAPI  C21822119   1.111   2.279   4.878 -0.6581  0.8029  0.2581
  191SAPI  H18R22120   1.065   2.296   4.978  1.7320  3.4422  1.0641
  191SAPI  H18S22121   1.148   2.381   4.856 -0.4280  0.7878  0.5737
  191SAPI  C21922122   1.230   2.195   4.889 -0.2180 -0.9518 -0.7277
  191SAPI  H19R22123   1.280   2.174   4.792  1.8101 -2.7611  0.6059
  191SAPI  H19S22124   1.193   2.091   4.906 -1.1789 -0.6111 -0.6451
  191SAPI  C22022125   1.332   2.241   5.000  0.2010  0.3224 -0.3102
  191SAPI  H20R22126   1.377   2.340   4.978 -1.6979  1.4278  0.5406
  191SAPI  H20S22127   1.422   2.175   4.997  0.1469  0.0515  2.1218
  191SAPI  H20T22128   1.276   2.240   5.096 -0.5487 -2.4246 -0.6890
  191SAPI   C3322129   0.851   2.442   4.198  0.0944 -0.6397  0.0820
  191SAPI   H3X22130   0.818   2.540   4.157 -0.5497 -1.4235 -1.3378
  191SAPI   H3Y22131   0.955   2.465   4.228  0.5481 -0.0868 -1.7545
  191SAPI   C3422132   0.754   2.399   4.307 -0.2801  0.2119  0.5892
  191SAPI   H4X22133   0.810   2.322   4.364  0.6106  0.9527  0.7525
  191SAPI   H4Y22134   0.662   2.358   4.261  0.0129 -0.2722  0.4238
  191SAPI   C3522135   0.705   2.511   4.395  0.1002 -0.1336 -0.0660
  191SAPI   H5X22136   0.660   2.590   4.331 -1.9112 -2.1324 -1.2810
  191SAPI   H5Y22137   0.796   2.553   4.441  0.4529 -0.0470 -0.8258
  191SAPI   C3622138   0.593   2.463   4.490  0.0009 -0.1520  0.0211
  191SAPI   H6X22139   0.633   2.379   4.552  0.7413 -1.4883 -2.1500
  191SAPI   H6Y22140   0.502   2.430   4.436 -1.1117  0.8841  1.1935
  191SAPI   C3722141   0.543   2.567   4.594 -0.2072  1.0059 -0.3095
  191SAPI   H7X22142   0.496   2.649   4.535 -1.0879  0.6496 -0.1183
  191SAPI   H7Y22143   0.634   2.609   4.642  1.1048 -2.1713  0.2009
  191SAPI   C3822144   0.439   2.499   4.690 -0.2080  0.6906 -0.0978
  191SAPI   H8X22145   0.475   2.402   4.729  0.6964  0.6069 -1.1093
  191SAPI   H8Y22146   0.353   2.466   4.627  0.2595  1.4559 -1.1718
  191SAPI   C3922147   0.390   2.592   4.803  0.5601  0.2404 -0.4622
  191SAPI   H9X22148   0.290   2.570   4.844 -0.9127  2.5600 -2.5419
  191SAPI   H9Y22149   0.374   2.694   4.761  0.1059  0.4323  0.1637
  191SAPI  C31022150   0.495   2.597   4.914 -0.2840  0.1927 -0.3817
  191SAPI  H10X22151   0.504   2.701   4.952 -2.4809 -0.1218  1.1802
  191SAPI  H10Y22152   0.594   2.585   4.865  0.3823 -1.1763  1.1719
  191SAPI  C31122153   0.463   2.503   5.026 -0.2796  0.3991  0.2485
  191SAPI  H11X22154   0.500   2.404   4.991  0.6773 -0.3285  3.0640
  191SAPI  H11Y22155   0.353   2.505   5.045 -0.6469  3.2388 -1.5475
  191SAPI  C31222156   0.536   2.530   5.157 -0.5331  0.5712 -0.5940
  191SAPI  H12X22157   0.522   2.444   5.226  0.2590 -0.4897 -1.7091
  191SAPI  H12Y22158   0.496   2.624   5.201 -0.8716  0.1191  0.0792
  191SAPI  C31322159   0.689   2.563   5.142  0.2300  0.6144  0.3569
  191SAPI  H13X22160   0.701   2.669   5.110  0.1796  0.4375 -0.2737
  191SAPI  H13Y22161   0.738   2.507   5.059 -0.1004 -0.4780  0.8816
  191SAPI  C31422162   0.773   2.543   5.270  0.0406  0.4093  0.7524
  191SAPI  H14X22163   0.761   2.434   5.293 -1.4750  0.1817 -0.8809
  191SAPI  H14Y22164   0.725   2.603   5.350 -1.1014  0.0588  0.3578
  191SAPI  C31522165   0.919   2.576   5.254 -0.0006 -0.4019  0.3234
  191SAPI  H15X22166   0.929   2.661   5.183 -1.0192 -0.5933 -0.0697
  191SAPI  H15Y22167   0.980   2.491   5.216  0.5745 -0.2841  0.9565
  191SAPI  C31622168   0.983   2.617   5.391  0.3556 -0.3965 -0.1785
  191SAPI  H16X22169   1.000   2.530   5.459 -1.2949 -0.4589  0.2029
  191SAPI  H16Y22170   0.913   2.690   5.436  2.8027  1.2791  1.1725
  191SAPI  C31722171   1.109   2.699   5.379 -0.3808 -0.3178 -0.5497
  191SAPI  H17X22172   1.090   2.788   5.316 -0.8588  0.1935  0.3064
  191SAPI  H17Y22173   1.166   2.629   5.315  0.0533 -1.1254  0.6772
  191SAPI  C31822174   1.176   2.733   5.507 -0.1136 -0.3998 -0.6652
  191SAPI  H18X22175   1.283   2.759   5.499 -0.0509 -0.1959  0.5958
  191SAPI  H18Y22176   1.180   2.644   5.574  0.0086  0.4010  0.4288
  191SAPI  H18Z22177   1.124   2.813   5.566  2.3458 -0.3667  1.6719
  192SAPI   C1222178   4.791   3.625   2.435  0.2101  0.5297  0.7140
  192SAPI    H222179   4.770   3.565   2.527 -0.9090  1.2898  0.9787
  192SAPI    O222180   4.793   3.763   2.471  0.0286 -0.1292  0.0084
  192SAPI   HO222181   4.772   3.768   2.564  1.4032  1.1957  0.2897
  192SAPI   C1322182   4.925   3.571   2.385  0.2980 -0.5695 -0.3009
  192SAPI    H322183   4.916   3.464   2.357 -1.5497 -0.4359 -0.3472
  192SAPI    O322184   5.023   3.569   2.490  0.0210 -0.5043 -0.1084
  192SAPI   HO322185   5.045   3.658   2.518 -2.7834 -0.0477  0.9831
  192SAPI   C1422186   4.971   3.649   2.258 -0.2101  0.4568  0.5643
  192SAPI    H422187   4.991   3.756   2.280 -0.5023  0.5326  0.4562
  192SAPI    O422188   5.097   3.593   2.207  0.4688 -0.3156 -0.1928
  192SAPI   HO422189   5.127   3.650   2.136  1.4867 -2.1265 -1.3188
  192SAPI   C1522190   4.857   3.654   2.146 -0.3162  1.0875  0.3418
  192SAPI    H522191   4.878   3.558   2.096 -0.9073  0.8474  0.5425
  192SAPI    O522192   4.878   3.760   2.051 -0.2751 -0.2062  0.3023
  192SAPI   HO522193   4.936   3.726   1.983 -0.8440  0.1635 -0.3743
  192SAPI   C1622194   4.714   3.639   2.198 -0.0725 -0.4777  0.9345
  192SAPI    H622195   4.694   3.749   2.199  1.0009 -0.2260 -0.7391
  192SAPI    O622196   4.627   3.587   2.101  0.6047 -0.1627 -0.0665
  192SAPI   HO622197   4.544   3.633   2.112  0.7165  0.6596 -2.2417
  192SAPI   C1122198   4.683   3.592   2.337 -0.6740 -0.0967  0.1010
  192SAPI    H122199   4.685   3.481   2.337  0.6440 -0.0895  0.2417
  192SAPI     P22200   4.458   3.544   2.468  0.0992 -0.1992 -0.0052
  192SAPI   O1322201   4.509   3.409   2.481  0.4479 -0.2970  0.1315
  192SAPI   O1422202   4.319   3.571   2.426 -0.2612  0.1814 -0.1637
  192SAPI   O1222203   4.552   3.639   2.372  0.7250  0.1267  0.2063
  192SAPI   O1122204   4.474   3.613   2.613 -0.2235 -0.2062 -0.2421
  192SAPI    C122205   4.381   3.595   2.721  0.0121  0.3304  0.5746
  192SAPI    HA22206   4.353   3.694   2.763 -0.5197  1.7189 -2.7003
  192SAPI    HB22207   4.283   3.554   2.687 -0.5637  1.3939  0.9235
  192SAPI    C222208   4.444   3.508   2.832 -0.0258  0.3877  0.4985
  192SAPI    HS22209   4.440   3.402   2.802  2.4422 -0.3224  2.3252
  192SAPI   O2122210   4.372   3.536   2.957  0.1332  0.7554 -0.2959
  192SAPI   C2122211   4.244   3.497   2.955  0.2616 -0.2905 -0.9938
  192SAPI   O2222212   4.190   3.435   2.865 -0.6873 -0.0769 -0.2466
  192SAPI   C2222213   4.170   3.564   3.069  0.0138 -0.3794 -0.3552
  192SAPI   H2R22214   4.252   3.570   3.144  1.3032  0.7961 -1.7793
  192SAPI   H2S22215   4.152   3.670   3.041 -0.3117  0.1136  1.5983
  192SAPI    C322216   4.598   3.522   2.830  0.3663  0.5440 -0.4880
  192SAPI    HX22217   4.637   3.626   2.837  2.7415 -0.3880  2.0789
  192SAPI    HY22218   4.639   3.474   2.738  0.6936  0.0928 -0.1138
  192SAPI   O3122219   4.647   3.460   2.944 -0.0459 -0.1939 -0.1746
  192SAPI   C3122220   4.682   3.330   2.932 -0.3672 -0.0980  0.6685
  192SAPI   O3222221   4.663   3.267   2.830  0.8527  0.1567 -0.7634
  192SAPI   C3222222   4.752   3.267   3.058 -0.6450 -0.2822 -0.3726
  192SAPI   H2X22223   4.856   3.254   3.019 -0.7301  0.5466 -0.9074
  192SAPI   H2Y22224   4.712   3.165   3.074 -0.1960 -0.3299  0.5126
  192SAPI   C2322225   4.046   3.488   3.103 -1.1253  0.0282 -0.4758
  192SAPI   H3R22226   4.080   3.403   3.166  0.5837  1.9066  1.3074
  192SAPI   H3S22227   3.996   3.453   3.010  0.3803  0.1253 -1.3543
  192SAPI   C2422228   3.951   3.580   3.190  0.0529 -0.4210 -0.2549
  192SAPI   H4R22229   3.921   3.673   3.138 -3.7260 -1.8311 -0.8973
  192SAPI   H4S22230   4.010   3.618   3.276 -1.2424  0.8095  0.1127
  192SAPI   C2522231   3.828   3.506   3.234  0.4177  0.0859  0.6463
  192SAPI   H5R22232   3.772   3.469   3.147  0.1271  2.5898 -0.2969
  192SAPI   C2622233   3.783   3.484   3.357  0.0222 -0.3111  0.1874
  192SAPI   H6R22234   3.688   3.431   3.377 -0.7851  1.5894  1.6365
  192SAPI   C2722235   3.835   3.548   3.483 -0.3446  0.0338  0.6293
  192SAPI   H7R22236   3.921   3.616   3.468  0.5426 -1.2078 -0.1999
  192SAPI   H7S22237   3.877   3.465   3.543 -2.3519 -0.8160  0.9518
  192SAPI   C2822238   3.730   3.624   3.559  0.0596  0.4562  0.3498
  192SAPI   H8R22239   3.667   3.685   3.493  1.4176  0.3166 -1.1045
  192SAPI   C2922240   3.708   3.640   3.688 -0.1564  0.2851 -0.4006
  192SAPI   H9R22241   3.625   3.708   3.712  0.8379  1.2137  0.5312
  192SAPI  C21022242   3.798   3.570   3.791  0.1312 -0.4333 -0.7850
  192SAPI  H10R22243   3.836   3.654   3.853 -1.1147 -2.0655  2.3862
  192SAPI  H10S22244   3.879   3.510   3.744 -1.1977 -2.2536 -0.8320
  192SAPI  C21122245   3.722   3.477   3.880 -0.4048 -0.0593 -0.1098
  192SAPI  H11R22246   3.635   3.426   3.837 -1.6138  2.1134 -0.4270
  192SAPI  C21222247   3.752   3.451   4.013  0.0087  0.0667 -0.4510
  192SAPI  H12R22248   3.688   3.384   4.072  1.9183  0.1416  1.8503
  192SAPI  C21322249   3.848   3.517   4.098 -0.9119 -0.4310 -0.6234
  192SAPI  H13R22250   3.902   3.588   4.033 -0.7871 -0.1368 -0.1993
  192SAPI  H13S22251   3.921   3.442   4.136 -0.8707 -1.0687 -1.9043
  192SAPI  C21422252   3.794   3.588   4.220  0.6685  0.1910  0.0704
  192SAPI  H14R22253   3.760   3.691   4.200 -0.1553 -0.5339 -2.7994
  192SAPI  C21522254   3.752   3.534   4.337 -0.3419  0.1071 -0.5151
  192SAPI  H15R22255   3.716   3.606   4.413  0.1796 -0.2910  0.1258
  192SAPI  C21622256   3.755   3.397   4.393  0.0386  0.0243 -0.7984
  192SAPI  H16R22257   3.851   3.381   4.446  1.2913  1.7174 -2.3861
  192SAPI  H16S22258   3.756   3.320   4.313 -0.9928 -1.4400  0.5331
  192SAPI  C21722259   3.636   3.381   4.487 -0.2506 -0.0654  0.3713
  192SAPI  H17R22260   3.550   3.414   4.424  1.8854 -1.1307 -3.3841
  192SAPI  H17S22261   3.635   3.448   4.576  1.4581  0.2319  0.1968
  192SAPI  C21822262   3.603   3.238   4.526  0.0010 -0.0902  0.0969
  192SAPI  H18R22263   3.701   3.188   4.538  1.4635  2.4894 -0.2922
  192SAPI  H18S22264   3.541   3.200   4.441  0.1221  2.2084 -1.1026
  192SAPI  C21922265   3.523   3.249   4.662 -0.4826  0.0998 -0.3650
  192SAPI  H19R22266   3.447   3.330   4.659  1.5871  2.1606 -0.2360
  192SAPI  H19S22267   3.595   3.259   4.746  1.0118 -2.1119 -1.2876
  192SAPI  C22022268   3.439   3.118   4.674  0.3810  0.0627 -0.5090
  192SAPI  H20R22269   3.365   3.122   4.757  0.1217 -0.5621 -0.7045
  192SAPI  H20S22270   3.504   3.030   4.692 -0.6896 -0.4784  0.9190
  192SAPI  H20T22271   3.372   3.101   4.587  0.0800 -0.1139 -0.2488
  192SAPI   C3322272   4.716   3.353   3.186  0.5271 -0.1299 -0.2409
  192SAPI   H3X22273   4.605   3.348   3.196 -0.0185  0.1251 -4.3400
  192SAPI   H3Y22274   4.750   3.457   3.169  1.1933 -0.6336 -2.2152
  192SAPI   C3422275   4.766   3.290   3.316 -0.1046 -0.1375  0.0462
  192SAPI   H4X22276   4.864   3.324   3.356 -1.6999  1.3244  3.0902
  192SAPI   H4Y22277   4.778   3.182   3.296  1.1521 -0.0724  0.3515
  192SAPI   C3522278   4.677   3.319   3.441  0.2635 -0.1129 -0.6469
  192SAPI   H5X22279   4.580   3.266   3.442 -0.2357  0.7786 -0.5725
  192SAPI   H5Y22280   4.657   3.428   3.437 -0.2427 -0.1722  0.0583
  192SAPI   C3622281   4.758   3.276   3.568 -0.6013 -0.3875 -0.0458
  192SAPI   H6X22282   4.853   3.331   3.587 -1.4362  1.4984 -1.0562
  192SAPI   H6Y22283   4.791   3.172   3.547  2.4496  0.6194 -0.7978
  192SAPI   C3722284   4.674   3.282   3.688  0.3366 -0.4891 -0.2316
  192SAPI   H7X22285   4.593   3.207   3.681 -0.5921  0.1335  2.6016
  192SAPI   H7Y22286   4.618   3.378   3.695  1.7684  0.3751 -0.3238
  192SAPI   C3822287   4.764   3.266   3.814 -0.5051  0.2281 -0.5831
  192SAPI   H8X22288   4.856   3.327   3.823 -0.3992 -0.1477  1.6253
  192SAPI   H8Y22289   4.804   3.162   3.814 -0.7176  0.1392  0.0615
  192SAPI   C3922290   4.673   3.296   3.939  0.0665 -0.0813  0.4268
  192SAPI   H9X22291   4.586   3.226   3.938  1.1371 -1.4977 -1.4327
  192SAPI   H9Y22292   4.634   3.399   3.925  2.2907  0.5731 -1.5569
  192SAPI  C31022293   4.745   3.288   4.073  0.3520  0.7251  0.9184
  192SAPI  H10X22294   4.828   3.360   4.061  0.6592  0.2946  0.4016
  192SAPI  H10Y22295   4.775   3.182   4.090 -0.2930  0.2495 -0.6330
  192SAPI  C31122296   4.660   3.336   4.191 -0.1740  0.9139 -0.7200
  192SAPI  H11X22297   4.597   3.427   4.176  0.5811  1.3202 -1.5205
  192SAPI  H11Y22298   4.734   3.384   4.258 -0.0704 -0.8529  0.4829
  192SAPI  C31222299   4.583   3.222   4.258  0.4914 -0.7550 -0.2483
  192SAPI  H12X22300   4.648   3.133   4.269  0.5325 -0.4890  2.0508
  192SAPI  H12Y22301   4.506   3.196   4.182 -1.6026 -0.2773  1.6096
  192SAPI  C31322302   4.510   3.262   4.385 -0.2747  0.8120 -0.0676
  192SAPI  H13X22303   4.442   3.177   4.409  1.7001 -1.0661 -0.7747
  192SAPI  H13Y22304   4.454   3.357   4.369  2.0473  2.0239 -1.4414
  192SAPI  C31422305   4.611   3.283   4.497 -0.3921  0.1117  0.0928
  192SAPI  H14X22306   4.688   3.361   4.477 -0.7832  0.5941  0.4499
  192SAPI  H14Y22307   4.663   3.186   4.515 -1.3922 -0.0945  2.2682
  192SAPI  C31522308   4.557   3.340   4.624 -0.4493 -0.1267 -0.5100
  192SAPI  H15X22309   4.459   3.294   4.650 -0.4992  0.0783 -0.3282
  192SAPI  H15Y22310   4.536   3.447   4.603 -1.0713 -0.0035  0.6336
  192SAPI  C31622311   4.659   3.333   4.741  0.3295 -0.1445  0.9948
  192SAPI  H16X22312   4.718   3.426   4.732 -0.5787  0.2132 -2.5857
  192SAPI  H16Y22313   4.723   3.242   4.729  0.0930 -0.3764  1.4682
  192SAPI  C31722314   4.588   3.327   4.877  0.0175  0.1150  0.4250
  192SAPI  H17X22315   4.669   3.296   4.947  1.7791 -0.8271 -1.8892
  192SAPI  H17Y22316   4.511   3.247   4.882  1.0003 -1.0723 -1.7589
  192SAPI  C31822317   4.544   3.464   4.932 -0.4980 -0.3717  0.1536
  192SAPI  H18X22318   4.630   3.535   4.932  2.7980 -3.8909 -3.0391
  192SAPI  H18Y22319   4.491   3.446   5.027 -2.6204 -1.7575 -1.2037
  192SAPI  H18Z22320   4.471   3.497   4.855  0.0501 -1.7538 -1.0131
  193SOD    SOD22321   1.764   1.274   0.440 -0.3335 -0.2667 -0.4134
  194SOD    SOD22322   5.752   2.489   0.596 -0.0085  0.2387  0.0729
  195SOD    SOD22323   3.063   6.433   1.250 -0.0166  0.2884 -0.1607
  196SOD    SOD22324   2.585   3.621   2.221 -0.1488  0.3686 -0.1397
  197SOD    SOD22325   3.705   0.773   8.111  0.0581 -0.2256 -0.3845
  198SOD    SOD22326   6.640   0.002   7.393 -0.1752 -0.8627  0.1540
  199SOD    SOD22327   2.395   2.783   1.061 -0.0217  0.2801  0.2256
  200SOD    SOD22328   5.858   4.861   0.444  0.3802 -0.4234 -0.4848
  201SOD    SOD22329   0.995   6.410   1.229  0.5443 -0.0608  0.1221
  202SOD    SOD22330   5.243   4.313   2.555 -0.4524  0.5815 -0.5438
  203SOD    SOD22331   4.879   5.514   7.597  0.1250  0.3822  0.7590
  204SOD    SOD22332   0.936   0.736   2.077 -0.0747  0.0496 -0.0628
  205SOD    SOD22333   5.484   2.356   3.193 -0.6040 -0.2242  0.1851
  206SOD    SOD22334   5.928   6.397   0.721  0.0311  0.3345 -0.2910
  207SOD    SOD22335   5.028   6.329   3.380 -0.2473 -0.0663  0.1423
  208SOD    SOD22336   6.077   1.056   3.177 -0.3714  0.1399  0.2163
  209SOD    SOD22337   2.954   5.588   1.866  0.3429 -0.0348 -0.4044
  210SOD    SOD22338   3.358   4.638   7.912  0.3171  0.0197 -0.1507
  211SOD    SOD22339   1.325   0.200   8.124 -0.1434  0.4160  0.1760
  212SOD    SOD22340   3.706   5.896   8.501 -0.6224 -0.1164  0.0173
  213SOD    SOD22341   2.840   0.873   2.392 -0.3245  0.1071 -0.5338
  214SOD    SOD22342   1.193   0.928   2.576  0.8264  0.1081 -0.3531
  215SOD    SOD22343   5.911   4.376   7.074  0.3725  0.2776  0.1069
  216SOD    SOD22344   5.273   0.153   1.387 -0.5483  0.2904 -0.4914
  217SOD    SOD22345   0.394   6.528   2.487 -0.4712  0.5530  0.9894
  218SOD    SOD22346   2.001   2.275   8.204  0.0545 -0.5785 -0.2246
  219SOD    SOD22347   1.703   5.182   8.032  0.0385 -0.2057 -0.1563
  220SOD    SOD22348   6.244   1.625   8.361  0.1566  0.8814 -0.6261
  221SOD    SOD22349   0.694   0.054   3.598  0.6326  0.1655 -0.0543
  222SOD    SOD22350   4.307   2.000   0.318  0.6354  0.6505 -0.0592
  223SOD    SOD22351   0.051   2.859   1.896  0.5424 -0.1620 -0.4294
  224SOD    SOD22352   1.948   4.799   0.145 -0.3809 -0.0386 -0.3920
  225SOD    SOD22353   3.399   3.571   2.379  0.0366  0.1569  0.0580
  226SOD    SOD22354   6.069   3.893   7.747 -0.2206 -0.0299  0.4948
  227SOD    SOD22355   4.414   2.209   1.699  0.0863  0.1922  0.2748
  228SOD    SOD22356   0.113   3.452   2.680  0.0855 -0.2733  0.3087
  229SOD    SOD22357   2.426   5.380   1.938 -0.1852 -0.6799 -0.4774
  230CLA    CLA22358   3.079   2.256   2.004 -0.0022 -0.1897 -0.3130
  231CLA    CLA22359   2.806   5.429   0.593 -0.4418 -0.0462 -0.2121
  232CLA    CLA22360   2.610   5.902   2.101  0.1302  0.0704 -0.2272
  233CLA    CLA22361   6.432   4.315   1.586  0.0577 -0.0226 -0.0987
  234CLA    CLA22362   6.485   0.027   8.645  0.2011  0.4326  0.2671
  235CLA    CLA22363   2.377   2.767   1.569 -0.3826  0.1177 -0.1311
  236CLA    CLA22364   3.990   4.701   1.747  0.0039 -0.0358 -0.1976
  237CLA    CLA22365   4.075   0.904   8.580 -0.0058  0.1654  0.1781
  238CLA    CLA22366   1.415   6.235   0.109  0.0598  0.2049  0.0930
  239CLA    CLA22367   4.946   4.754   1.157 -0.0509 -0.4274  0.3412
  240CLA    CLA22368   6.781   1.438   1.334 -0.0774 -0.2382 -0.0144
  241CLA    CLA22369   3.984   3.926   8.345 -0.2376  0.1874 -0.1547
  242CLA    CLA22370   6.449   6.336   0.961  0.1015 -0.0629 -0.2310
  243CLA    CLA22371   0.518   6.788   1.460  0.1306 -0.1727  0.2338
  244CLA    CLA22372   4.339   3.525   0.275 -0.1550 -0.0887  0.1765
  245CLA    CLA22373   1.142   5.325   0.576  0.1423 -0.3217  0.1106
  246CLA    CLA22374   2.038   5.167   0.995  0.0668  0.0683  0.2523
  247TIP3   OH222375   0.808   4.506   0.773  0.2344  0.9342  0.4058
  247TIP3    H122376   0.846   4.561   0.841 -2.0792  0.4729  2.1896
  247TIP3    H222377   0.778   4.428   0.819 -0.8622  0.3185 -1.2446
  248TIP3   OH222378   2.389   1.502   7.105  0.0906 -0.3110 -0.0181
  248TIP3    H122379   2.462   1.538   7.055  0.8363  1.6194  2.2799
  248TIP3    H222380   2.407   1.408   7.109  2.3196  0.0757  0.2599
  249TIP3   OH222381   6.077   2.478   8.399  0.3890 -0.0962 -0.0851
  249TIP3    H122382   6.120   2.514   8.321 -0.1346 -1.0125 -0.8161
  249TIP3    H222383   6.000   2.433   8.365 -0.4902  0.4753  1.0911
  250TIP3   OH222384   1.472   3.518   1.427  0.0102  0.1418  0.3770
  250TIP3    H122385   1.517   3.435   1.412 -1.7097 -0.7446 -0.1141
  250TIP3    H222386   1.468   3.559   1.341 -0.0042  0.2701  0.4387
  251TIP3   OH222387   0.069   6.107   2.104 -0.5459 -0.9407 -0.4086
  251TIP3    H122388  -0.010   6.159   2.097 -0.9950 -1.6515 -0.8226
  251TIP3    H222389   0.074   6.061   2.020  0.7754 -0.2596 -0.7287
  252TIP3   OH222390   1.335   0.938   2.370  0.1354 -0.2302  0.2672
  252TIP3    H122391   1.429   0.957   2.373  0.2051 -0.4974 -0.2098
  252TIP3    H222392   1.329   0.846   2.344 -0.2307 -0.6193  1.6191
  253TIP3   OH222393   5.685   3.165   1.171  0.5092  0.6146  0.1099
  253TIP3    H122394   5.727   3.242   1.210  2.1241 -0.2034  0.0755
  253TIP3    H222395   5.600   3.160   1.214  0.0642  2.7986 -0.3848
  254TIP3   OH222396   5.567   6.465   8.610  0.6644  0.4278  0.1916
  254TIP3    H122397   5.476   6.472   8.638  0.5915  2.0019 -0.3787
  254TIP3    H222398   5.598   6.555   8.602  2.5749 -0.0752  1.2651
  255TIP3   OH222399   2.552   3.303   1.938  0.0434 -0.1966  0.1077
  255TIP3    H122400   2.469   3.254   1.943  1.3383 -2.5937 -0.2643
  255TIP3    H222401   2.539   3.365   1.867 -1.0496 -1.3863 -0.7857
  256TIP3   OH222402   0.339   4.764   1.204  0.2001  0.4938 -0.6034
  256TIP3    H122403   0.260   4.742   1.253 -0.3396 -1.9200 -2.4109
  256TIP3    H222404   0.377   4.838   1.253 -2.5737  1.0756  0.8973
  257TIP3   OH222405   5.605   1.224   1.039  0.1187  0.2744 -0.3525
  257TIP3    H122406   5.565   1.249   1.123 -0.4825 -2.1466  0.1383
  257TIP3    H222407   5.592   1.130   1.033  1.8274  0.1008 -2.3196
  258TIP3   OH222408   0.177   0.445   0.968  0.4408  0.1493  0.2403
  258TIP3    H122409   0.094   0.457   0.923  0.8935 -0.3200 -0.7439
  258TIP3    H222410   0.192   0.528   1.012 -0.8511  0.0271  0.9716
  259TIP3   OH222411   3.526   3.734   0.562 -0.5069  0.2214  0.1407
  259TIP3    H122412   3.485   3.649   0.576  0.1059 -0.1040 -0.0130
  259TIP3    H222413   3.551   3.734   0.470  2.9773 -1.0427  0.9089
  260TIP3   OH222414   3.301   2.164   1.478 -0.2324 -0.1519 -0.1640
  260TIP3    H122415   3.275   2.210   1.558  1.5338 -0.7865  0.8388
  260TIP3    H222416   3.279   2.072   1.495  1.5939 -0.5392  0.2981
  261TIP3   OH222417   4.425   2.603   7.052 -0.0263  0.5885  0.2089
  261TIP3    H122418   4.482   2.541   7.098  0.1688  0.5056 -0.1433
  261TIP3    H222419   4.455   2.689   7.082 -0.3545  0.5121  0.7653
  262TIP3   OH222420   0.639   2.646   7.981 -0.0063  0.0788  0.2747
  262TIP3    H122421   0.592   2.625   8.061 -1.2931  1.5598 -0.0346
  262TIP3    H222422   0.584   2.609   7.911 -0.4874  1.3539 -0.0584
  263TIP3   OH222423   6.818   5.861   3.172  0.3704  0.5018 -0.5348
  263TIP3    H122424   6.786   5.900   3.253  0.2266 -0.5441 -0.0769
  263TIP3    H222425   6.740   5.828   3.129  0.6958 -1.2709  0.1648
  264TIP3   OH222426   6.207   5.687   1.785 -0.0053  0.0358  0.0481
  264TIP3    H122427   6.272   5.619   1.796 -0.4115 -0.2395  0.8186
  264TIP3    H222428   6.206   5.734   1.869  1.0846  1.7320 -0.8442
  265TIP3   OH222429   4.956   1.697   2.381 -0.5051 -0.4259 -0.2499
  265TIP3    H122430   4.947   1.761   2.452 -0.8769 -0.1177 -0.5759
  265TIP3    H222431   4.965   1.749   2.302 -2.2247 -0.7531 -0.7001
  266TIP3   OH222432   2.762   3.390   0.958 -0.0916  0.3813  0.1054
  266TIP3    H122433   2.806   3.384   1.043 -0.2313 -0.9587  0.0956
  266TIP3    H222434   2.699   3.318   0.958  0.4627 -0.1373 -1.4451
  267TIP3   OH222435   6.280   6.699   8.546  0.0874  0.3119 -0.6054
  267TIP3    H122436   6.330   6.770   8.587  2.3603 -0.0005 -2.5946
  267TIP3    H222437   6.342   6.658   8.485 -1.6774 -2.2490 -0.8535
  268TIP3   OH222438   5.650   4.905   8.169 -0.2858 -0.4651  0.3723
  268TIP3    H122439   5.645   4.969   8.240  2.8538  1.3842 -0.8895
  268TIP3    H222440   5.631   4.955   8.090 -1.7659 -2.0534 -0.3408
  269TIP3   OH222441   3.969   5.805   1.016  0.2694  0.1936  0.6228
  269TIP3    H122442   3.932   5.874   1.071 -0.3198  0.3877 -0.0035
  269TIP3    H222443   3.982   5.731   1.075 -1.3257  0.0557  0.8266
  270TIP3   OH222444   0.319   6.560   7.296  0.3071  0.2182 -0.0667
  270TIP3    H122445   0.241   6.540   7.243 -0.1608  0.6114  0.4509
  270TIP3    H222446   0.347   6.647   7.265  1.8955 -0.8375 -1.8000
  271TIP3   OH222447   1.568   1.952   2.492  0.2015 -0.0167 -0.5367
  271TIP3    H122448   1.651   1.957   2.445  0.9749 -1.3430  0.6211
  271TIP3    H222449   1.581   2.009   2.568  0.4241 -0.9929  0.1646
  272TIP3   OH222450   3.442   1.795   1.672  0.5107  0.5144  0.2503
  272TIP3    H122451   3.397   1.720   1.710 -0.4728  1.5010  1.1050
  272TIP3    H222452   3.391   1.817   1.594  1.7567 -0.6910 -0.9442
  273TIP3   OH222453   6.612   5.312   8.167  0.0499 -0.0233  0.1752
  273TIP3    H122454   6.647   5.224   8.152 -1.0115 -1.0445  2.9727
  273TIP3    H222455   6.537   5.299   8.224 -0.0129  2.7171  0.8817
  274TIP3   OH222456   1.787   4.936   0.064 -0.6956 -0.1783 -0.1035
  274TIP3    H122457   1.696   4.907   0.074 -0.6858 -0.1020  0.2177
  274TIP3    H222458   1.783   5.001  -0.007 -0.9033 -0.1282 -0.0484
  275TIP3   OH222459   0.517   1.953   2.703 -0.1789 -0.3541 -0.1905
  275TIP3    H122460   0.483   1.890   2.767 -1.2492 -0.1459 -0.5294
  275TIP3    H222461   0.522   2.036   2.751 -0.6251 -0.2795 -0.2703
  276TIP3   OH222462   0.875   0.227   1.933  0.0760  0.2100 -0.0890
  276TIP3    H122463   0.820   0.157   1.969  2.8558 -0.9715  2.2903
  276TIP3    H222464   0.867   0.217   1.838 -0.6670 -2.5260  0.1655
  277TIP3   OH222465   5.232   2.866   7.829 -0.3223  0.2630 -0.5553
  277TIP3    H122466   5.228   2.814   7.749 -0.6893  1.2910 -1.2329
  277TIP3    H222467   5.213   2.956   7.800 -0.4113  0.6626  0.6775
  278TIP3   OH222468   3.927   5.041   8.558 -0.8687  0.0965 -0.2024
  278TIP3    H122469   4.005   5.077   8.514  1.3571 -1.6209  2.0568
  278TIP3    H222470   3.921   5.090   8.640 -1.4477 -0.6065  0.1837
  279TIP3   OH222471   3.098   6.641   0.375  0.2377 -0.2429  0.4501
  279TIP3    H122472   3.115   6.733   0.354  0.1686  0.1510  1.9983
  279TIP3    H222473   3.098   6.597   0.290 -0.5625  1.3097 -0.4083
  280TIP3   OH222474   3.163   3.139   8.635 -0.2146  0.5447 -0.3380
  280TIP3    H122475   3.252   3.159   8.605  0.5593 -2.5393 -0.3980
  280TIP3    H222476   3.119   3.104   8.557 -1.3789  1.6162 -0.1948
  281TIP3   OH222477   3.856   0.397   1.015 -0.1010  0.3738 -0.0658
  281TIP3    H122478   3.898   0.385   1.100 -0.2580 -0.9936 -0.1669
  281TIP3    H222479   3.926   0.428   0.958  0.1947  0.5063  0.3651
  282TIP3   OH222480   2.859   3.546   8.080  0.2231  0.2298 -0.2986
  282TIP3    H122481   2.952   3.558   8.061 -0.1720 -0.2109 -2.8539
  282TIP3    H222482   2.816   3.619   8.037 -0.6995 -0.0617  0.1020
  283TIP3   OH222483   0.355   2.747   7.793 -1.0065  0.2871 -0.2613
  283TIP3    H122484   0.379   2.790   7.712 -0.4537  0.5408  0.0316
  283TIP3    H222485   0.280   2.692   7.770 -0.4247 -0.1818 -1.1010
  284TIP3   OH222486   3.521   5.738   1.522  0.5564 -0.5377  0.4913
  284TIP3    H122487   3.532   5.650   1.489  0.2925 -1.1548  1.9475
  284TIP3    H222488   3.427   5.750   1.530  0.5283  0.3473 -0.8333
  285TIP3   OH222489   2.644   6.015   1.604 -0.0325  0.5984  0.3280
  285TIP3    H122490   2.580   5.950   1.575 -0.8225  0.7998  1.5438
  285TIP3    H222491   2.611   6.045   1.688 -0.8942  4.2348 -1.1546
  286TIP3   OH222492   5.654   0.715   1.058 -0.4895 -0.3306  0.3630
  286TIP3    H122493   5.711   0.679   1.127  0.9771  1.3984  0.1338
  286TIP3    H222494   5.694   0.686   0.976 -0.6470 -0.1239  0.2126
  287TIP3   OH222495   5.519   3.052   0.282 -0.3823 -0.3537 -0.3104
  287TIP3    H122496   5.564   3.017   0.359 -1.7051  1.7220  1.5185
  287TIP3    H222497   5.504   2.975   0.226  3.4882 -1.4535 -0.1224
  288TIP3   OH222498   6.715   3.548   1.956  0.1613  0.1563  0.6439
  288TIP3    H122499   6.637   3.536   1.902  0.8102 -1.9726  0.0665
  288TIP3    H222500   6.764   3.618   1.912 -0.4420  0.0664 -0.1930
  289TIP3   OH222501   6.115   2.028   8.056  0.5042 -0.4451 -0.2073
  289TIP3    H122502   6.193   2.046   8.004  0.4432  0.0820 -0.1225
  289TIP3    H222503   6.119   2.092   8.127 -0.9064  0.7621 -1.1589
  290TIP3   OH222504   2.054   6.712   2.517  0.1191 -0.2514 -0.6024
  290TIP3    H122505   2.056   6.698   2.422  0.5483  1.0030 -0.7997
  290TIP3    H222506   2.140   6.747   2.537 -0.3167  0.4377  0.0946
  291TIP3   OH222507   3.146   5.185   0.344  0.3314  0.1421 -0.0547
  291TIP3    H122508   3.181   5.201   0.432  0.0583  0.1619  0.0513
  291TIP3    H222509   3.100   5.266   0.321 -1.3491 -0.5675  0.6202
  292TIP3   OH222510   4.280   0.714   1.623  0.4507 -0.0962 -0.4693
  292TIP3    H122511   4.279   0.809   1.636  0.8268 -0.0719 -0.6223
  292TIP3    H222512   4.250   0.678   1.706 -0.6313  0.1905 -0.7170
  293TIP3   OH222513   0.794   2.330   2.978  0.0971 -0.4341 -0.1210
  293TIP3    H122514   0.812   2.414   2.936  0.1360 -1.2533 -1.7954
  293TIP3    H222515   0.733   2.351   3.048  0.6499  1.0853 -0.0632
  294TIP3   OH222516   1.517   5.892   3.446 -0.0428 -0.0239  0.1330
  294TIP3    H122517   1.465   5.881   3.366 -1.4240  2.5353  0.5849
  294TIP3    H222518   1.595   5.939   3.418  0.7823 -1.4469 -0.0796
  295TIP3   OH222519   5.944   5.919   1.209 -0.5425  0.0483 -0.1100
  295TIP3    H122520   5.988   5.836   1.229 -0.9107 -0.0588  0.2692
  295TIP3    H222521   5.970   5.978   1.280  0.7198  0.6449 -1.0441
  296TIP3   OH222522   3.352   6.091   7.250 -0.2053 -0.0593  0.1296
  296TIP3    H122523   3.397   6.174   7.262  0.6945 -0.2878 -1.4107
  296TIP3    H222524   3.294   6.083   7.326  0.8951  1.1868  1.1299
  297TIP3   OH222525   0.105   6.793   8.139 -0.6434 -0.0846  0.0579
  297TIP3    H122526   0.180   6.771   8.085 -0.2173  0.4514  0.4261
  297TIP3    H222527   0.126   6.878   8.177 -0.0898 -1.1957  2.4857
  298TIP3   OH222528   1.143   4.860   2.696 -0.2257 -0.2125  0.0671
  298TIP3    H122529   1.088   4.857   2.775 -0.9702  1.5719 -0.3314
  298TIP3    H222530   1.196   4.780   2.700 -1.2921 -0.8866  1.6086
  299TIP3   OH222531   0.653   1.090   0.448  0.0195  0.4297  0.0933
  299TIP3    H122532   0.641   1.005   0.404  1.7955 -0.5028  1.2500
  299TIP3    H222533   0.672   1.066   0.539  0.5050  2.0852  0.4494
  300TIP3   OH222534   5.118   1.830   1.958 -0.5327  0.5383  0.0472
  300TIP3    H122535   5.050   1.870   2.013 -1.2697  0.3783 -0.7235
  300TIP3    H222536   5.070   1.769   1.902  0.2191  0.5827 -0.6579
  301TIP3   OH222537   5.291   3.736   0.774 -0.6246  0.1272  0.2556
  301TIP3    H122538   5.300   3.815   0.719 -0.0820  0.1265  0.3345
  301TIP3    H222539   5.358   3.747   0.842 -2.7426  1.2259  2.2883
  302TIP3   OH222540   1.661   1.289   1.202  0.0138 -0.4839  0.1481
  302TIP3    H122541   1.648   1.384   1.205 -0.1588 -0.5198  0.7978
  302TIP3    H222542   1.756   1.278   1.189  0.2050 -0.2165  1.2191
  303TIP3   OH222543   3.816   0.126   0.877  0.4926 -0.2989  0.1156
  303TIP3    H122544   3.722   0.143   0.881  0.5474  0.0064  0.0938
  303TIP3    H222545   3.845   0.128   0.968  0.4738 -0.4328  0.1258
  304TIP3   OH222546   5.801   1.597   3.553  0.6434 -0.2434 -0.0943
  304TIP3    H122547   5.873   1.659   3.567  0.1390  0.4644 -0.5910
  304TIP3    H222548   5.740   1.644   3.496 -0.5205 -0.6024  0.8299
  305TIP3   OH222549   2.648   3.771   8.517 -0.6099 -0.0705  0.7073
  305TIP3    H122550   2.576   3.803   8.570 -0.9300  0.3735  0.0181
  305TIP3    H222551   2.620   3.685   8.486 -0.6812 -0.0613  0.7479
  306TIP3   OH222552   3.737   3.672   7.754 -0.1126 -0.6441 -0.4350
  306TIP3    H122553   3.791   3.653   7.678 -0.2164  1.4837 -1.0928
  306TIP3    H222554   3.647   3.656   7.724 -0.1806  0.5337 -0.9021
  307TIP3   OH222555   5.816   6.757   2.894  0.5588 -0.2448 -0.7759
  307TIP3    H122556   5.896   6.710   2.920  1.5069  2.3524  1.6147
  307TIP3    H222557   5.780   6.789   2.977 -1.8310  0.4526 -2.0031
  308TIP3   OH222558   5.007   3.871   0.244 -0.0249 -0.0003  0.1005
  308TIP3    H122559   4.920   3.909   0.230  0.7730  2.2362  0.8921
  308TIP3    H222560   5.012   3.858   0.339  1.3514  2.1794  0.3872
  309TIP3   OH222561   4.457   5.247   8.093 -0.6293  0.2534  0.1662
  309TIP3    H122562   4.403   5.217   8.020 -1.0347  0.5577  0.3376
  309TIP3    H222563   4.493   5.166   8.131  0.5629  0.1586 -1.0991
  310TIP3   OH222564   4.368   0.694   8.302 -0.4657  0.3373  0.3393
  310TIP3    H122565   4.440   0.726   8.247  0.0297  1.7598  1.7291
  310TIP3    H222566   4.290   0.711   8.250  0.1376 -1.4143 -1.2859
  311TIP3   OH222567   5.011   4.026   2.745 -0.6406 -0.2072 -0.6243
  311TIP3    H122568   5.078   3.963   2.772 -0.2004 -0.7860 -2.8778
  311TIP3    H222569   5.032   4.106   2.795  1.4616 -0.5171 -0.9177
  312TIP3   OH222570   0.051   4.479   1.702 -0.3134  0.5410 -0.2343
  312TIP3    H122571  -0.040   4.509   1.705  0.3445  2.8732 -1.3514
  312TIP3    H222572   0.060   4.438   1.616 -0.7693 -1.5268  0.6476
  313TIP3   OH222573   3.214   1.627   0.750  0.0110  0.5687 -0.4833
  313TIP3    H122574   3.242   1.719   0.755  0.3780  0.5106 -1.2203
  313TIP3    H222575   3.252   1.596   0.668 -1.2356  0.1336 -0.9110
  314TIP3   OH222576   0.572   0.678   1.116  0.8488  0.4305 -0.2496
  314TIP3    H122577   0.512   0.751   1.134  0.0125 -0.1069 -0.7702
  314TIP3    H222578   0.651   0.720   1.082  1.0709  1.2065  1.1339
  315TIP3   OH222579   2.073   2.368   8.444  0.0953  0.6722 -0.3541
  315TIP3    H122580   2.122   2.324   8.514  0.2101  0.4990 -0.5415
  315TIP3    H222581   2.052   2.455   8.480  1.4081  1.1282 -0.6363
  316TIP3   OH222582   5.907   2.420   0.758  0.0984 -0.5361  0.2257
  316TIP3    H122583   5.908   2.472   0.839 -0.1311 -1.0085  0.5366
  316TIP3    H222584   5.989   2.370   0.761  1.1158  0.9751 -0.8582
  317TIP3   OH222585   3.064   4.343   2.308 -0.3447 -0.1052 -0.1200
  317TIP3    H122586   3.109   4.377   2.385 -1.1299 -0.6640  0.6164
  317TIP3    H222587   3.025   4.260   2.338 -1.2420  0.0060 -0.9207
  318TIP3   OH222588   6.873   3.696   7.543 -0.2571 -0.0169 -0.0816
  318TIP3    H122589   6.873   3.677   7.637 -0.8871 -0.3453 -0.1423
  318TIP3    H222590   6.914   3.782   7.536  2.7380 -1.2812  0.2194
  319TIP3   OH222591   1.357   5.688   1.124  0.0853 -0.0114 -0.1675
  319TIP3    H122592   1.452   5.679   1.122 -0.0566 -1.6317 -1.3511
  319TIP3    H222593   1.324   5.600   1.104 -1.6635  0.7846 -0.9800
  320TIP3   OH222594   3.704   0.630   7.701  0.1677  0.1943 -0.7056
  320TIP3    H122595   3.614   0.606   7.676 -0.1170  1.0651 -0.5460
  320TIP3    H222596   3.756   0.609   7.623 -0.2651  0.2311 -1.0113
  321TIP3   OH222597   5.078   1.244   8.603  0.1954 -0.7799  0.1557
  321TIP3    H122598   5.132   1.245   8.682  1.1931 -1.5562 -0.4886
  321TIP3    H222599   5.026   1.164   8.610  0.4396 -0.9611 -0.0599
  322TIP3   OH222600   6.466   0.794   3.099 -0.1964 -0.7293  0.6960
  322TIP3    H122601   6.542   0.823   3.048 -0.4718  0.1611  0.7672
  322TIP3    H222602   6.491   0.708   3.134 -0.0393 -1.4183 -1.0126
  323TIP3   OH222603   5.750   2.305   1.986 -0.0857  0.1822 -0.7302
  323TIP3    H122604   5.729   2.223   2.030 -1.7644  0.3892 -1.0636
  323TIP3    H222605   5.783   2.278   1.900  1.5148 -0.1749 -0.0241
  324TIP3   OH222606   0.298   6.086   8.133 -0.1784  0.1460  0.1904
  324TIP3    H122607   0.362   6.079   8.204 -0.2288 -0.0976  0.2118
  324TIP3    H222608   0.351   6.088   8.053 -0.1905 -1.7100  0.0891
  325TIP3   OH222609   0.175   3.037   7.438 -0.7264 -0.3531 -0.2707
  325TIP3    H122610   0.166   2.981   7.361 -1.8341  0.2449 -0.5939
  325TIP3    H222611   0.189   3.125   7.403 -2.4783  0.1375  0.1499
  326TIP3   OH222612   1.898   3.765   7.439 -0.7274  0.1915  0.3994
  326TIP3    H122613   1.957   3.820   7.387  1.1140 -2.3532 -0.4094
  326TIP3    H222614   1.850   3.714   7.375  0.3456 -1.7819  1.0866
  327TIP3   OH222615   3.209   0.054   3.174 -0.4223  0.4403  0.1528
  327TIP3    H122616   3.138   0.017   3.226 -0.4050 -0.0417 -0.1578
  327TIP3    H222617   3.289   0.018   3.212 -0.4797 -1.0372 -1.0665
  328TIP3   OH222618   5.837   5.343   0.202  0.2650  0.2944  0.2404
  328TIP3    H122619   5.833   5.403   0.127 -1.0391 -0.3608 -0.2510
  328TIP3    H222620   5.817   5.398   0.278 -2.1457  0.3281 -0.3420
  329TIP3   OH222621   5.694   4.353   7.185  0.4584  0.6216  0.0690
  329TIP3    H122622   5.681   4.411   7.259  0.3742  0.4837  0.1629
  329TIP3    H222623   5.625   4.287   7.194 -0.1736  1.1557 -0.6693
  330TIP3   OH222624   3.025   1.703   7.617  0.5838 -0.9573 -0.3900
  330TIP3    H122625   2.943   1.671   7.578  1.2885 -2.8848 -0.3998
  330TIP3    H222626   2.998   1.775   7.674 -1.1559 -1.7484 -0.1509
  331TIP3   OH222627   1.378   4.043   1.711 -0.7161  0.0547  0.3087
  331TIP3    H122628   1.307   4.011   1.656  0.2322 -0.5939 -0.5849
  331TIP3    H222629   1.448   3.979   1.698  0.6124  1.5430 -0.1280
  332TIP3   OH222630   2.853   3.086   8.646 -0.1626 -0.0944  0.5536
  332TIP3    H122631   2.798   3.007   8.645  0.5815 -0.6310 -0.5770
  332TIP3    H222632   2.837   3.125   8.732 -1.3587 -0.8998  0.7283
  333TIP3   OH222633   5.605   1.716   8.096 -0.0214 -0.4880 -0.6670
  333TIP3    H122634   5.699   1.707   8.112 -0.2159  0.3118  1.1682
  333TIP3    H222635   5.596   1.801   8.053  0.0507 -0.2537 -0.2288
  334TIP3   OH222636   0.686   6.233   7.503  0.5683 -0.3856  0.9409
  334TIP3    H122637   0.631   6.273   7.435 -0.0652 -0.1705  1.5604
  334TIP3    H222638   0.703   6.304   7.564  0.9699 -0.6262  1.1079
  335TIP3   OH222639   1.842   5.555   2.657 -0.3023 -0.5215 -0.2962
  335TIP3    H122640   1.768   5.569   2.716 -0.3723 -0.4359 -0.4045
  335TIP3    H222641   1.845   5.460   2.644 -0.9337 -0.4512 -0.9875
  336TIP3   OH222642   5.740   1.541   2.072 -0.4490  0.9141  0.1930
  336TIP3    H122643   5.710   1.514   2.159 -0.3359 -0.0703 -0.0590
  336TIP3    H222644   5.815   1.484   2.054 -1.5860 -0.1837 -1.3141
  337TIP3   OH222645   2.730   0.483   1.000 -0.2442 -0.3346  0.3508
  337TIP3    H122646   2.750   0.407   1.055 -0.7489 -0.9337 -0.2636
  337TIP3    H222647   2.705   0.552   1.062 -1.4004 -1.1749  0.8666
  338TIP3   OH222648   1.191   6.083   1.871 -0.4709  0.3893 -0.0660
  338TIP3    H122649   1.121   6.033   1.830  0.9930 -1.0885 -0.8752
  338TIP3    H222650   1.159   6.173   1.871 -1.8604 -0.0590 -1.5151
  339TIP3   OH222651   2.907   3.737   0.631 -0.0296 -0.4491 -0.5526
  339TIP3    H122652   2.903   3.819   0.582 -0.6677 -1.3874 -2.1445
  339TIP3    H222653   2.903   3.764   0.722 -3.1198  1.1953 -1.0331
  340TIP3   OH222654   3.155   6.017   1.297 -0.4128 -0.9147  0.0045
  340TIP3    H122655   3.249   6.011   1.312 -0.1293  0.8328 -0.7465
  340TIP3    H222656   3.115   5.979   1.376  0.9063 -1.7171  0.3083
  341TIP3   OH222657   2.315   0.835   0.823  0.5320 -0.2750  0.4803
  341TIP3    H122658   2.256   0.804   0.891  1.8739 -2.0664  0.9185
  341TIP3    H222659   2.288   0.787   0.744  1.3003 -1.0365  0.6621
  342TIP3   OH222660   0.839   3.483   7.821  0.0014  0.0431  0.0283
  342TIP3    H122661   0.840   3.444   7.908 -2.0660 -2.0704 -0.7904
  342TIP3    H222662   0.889   3.422   7.767 -0.7797  0.0416 -0.7160
  343TIP3   OH222663   5.459   5.220   8.572  0.4076 -0.3972  0.0400
  343TIP3    H122664   5.537   5.275   8.572 -0.0616  0.3463 -1.7288
  343TIP3    H222665   5.392   5.273   8.615 -0.3169  0.9623 -2.5304
  344TIP3   OH222666   1.388   6.494   0.759  0.3469 -0.4400 -0.0192
  344TIP3    H122667   1.385   6.456   0.671 -1.1465  2.1281 -1.2058
  344TIP3    H222668   1.432   6.579   0.747 -0.6258  0.3325  1.5219
  345TIP3   OH222669   3.094   4.700   1.393 -0.2766 -0.0880  0.3404
  345TIP3    H122670   3.109   4.608   1.369 -2.0422 -0.3199 -0.0032
  345TIP3    H222671   3.092   4.746   1.310 -1.2148 -0.0459  0.3803
  346TIP3   OH222672   0.731   1.062   0.732 -0.0487 -0.0113 -0.4351
  346TIP3    H122673   0.824   1.057   0.754  0.1798 -1.0299 -1.5277
  346TIP3    H222674   0.687   1.021   0.807  0.3306  0.8591  0.2833
  347TIP3   OH222675   1.556   6.194   2.901 -0.4201  0.4307  0.1057
  347TIP3    H122676   1.540   6.185   2.995 -1.2564  0.4978 -0.0199
  347TIP3    H222677   1.558   6.104   2.869 -1.3495  0.4330  0.0084
  348TIP3   OH222678   4.185   0.419   0.609  0.1535 -0.1702  0.3213
  348TIP3    H122679   4.263   0.374   0.575  0.6725  0.6334  0.4206
  348TIP3    H222680   4.118   0.404   0.543 -0.1770 -2.4080  1.0519
  349TIP3   OH222681   1.598   6.005   1.229  0.8746  0.0046  0.0706
  349TIP3    H122682   1.511   6.018   1.267  0.9331 -1.0091  0.6068
  349TIP3    H222683   1.657   6.056   1.285  0.6466  0.5492 -0.1866
  350TIP3   OH222684   1.000   2.297   8.012  0.0995  0.2388  0.0312
  350TIP3    H122685   0.915   2.321   8.048  0.2110  1.4150 -0.4298
  350TIP3    H222686   0.980   2.259   7.926  0.1168  3.1030 -1.3634
  351TIP3   OH222687   4.337   0.798   2.073  0.6524  0.8338 -0.1020
  351TIP3    H122688   4.308   0.829   2.159 -0.5531  0.6973 -0.4367
  351TIP3    H222689   4.257   0.797   2.020  1.4671  1.4899 -1.4003
  352TIP3   OH222690   5.246   1.768   8.164  0.1597 -0.1714 -0.1746
  352TIP3    H122691   5.227   1.814   8.082 -0.7142 -2.8873 -1.6273
  352TIP3    H222692   5.341   1.764   8.168  0.4579  3.8139  1.3647
  353TIP3   OH222693   4.301   4.667   1.707  0.5711  0.0059 -0.7379
  353TIP3    H122694   4.322   4.593   1.650  2.0233  1.7893 -2.6651
  353TIP3    H222695   4.206   4.666   1.714  0.5266 -1.6203 -1.2992
  354TIP3   OH222696   3.569   5.517   1.090  0.3892 -0.2402 -0.1093
  354TIP3    H122697   3.544   5.440   1.040 -1.2666 -0.9167  1.6305
  354TIP3    H222698   3.583   5.485   1.179 -0.3471  1.4347  0.6629
  355TIP3   OH222699   2.796   1.205   2.852 -0.2799 -0.3802  0.1600
  355TIP3    H122700   2.872   1.262   2.855 -0.1675 -0.5413  0.3538
  355TIP3    H222701   2.780   1.181   2.943 -0.0184 -1.0678  0.0260
  356TIP3   OH222702   5.335   0.321   8.160  0.1586 -0.4028 -0.0936
  356TIP3    H122703   5.335   0.262   8.235 -2.4100 -0.9463 -0.4279
  356TIP3    H222704   5.388   0.396   8.188  1.6130 -1.8323  1.1624
  357TIP3   OH222705   6.134   5.839   8.189  0.2470 -0.1571  0.4483
  357TIP3    H122706   6.079   5.905   8.231 -1.0102 -0.9369  0.0867
  357TIP3    H222707   6.152   5.875   8.102  1.6225  0.7903  1.0938
  358TIP3   OH222708   2.012   4.629   2.237 -0.4107  0.0080  0.4362
  358TIP3    H122709   1.967   4.599   2.158 -0.2299 -1.4835  0.8763
  358TIP3    H222710   2.072   4.558   2.259  0.5094  0.9838  1.1658
  359TIP3   OH222711   4.800   4.840   0.691  0.6827  0.5380 -0.1025
  359TIP3    H122712   4.856   4.784   0.637  2.8166  1.1100  1.3945
  359TIP3    H222713   4.766   4.781   0.759  2.0792  0.7918  0.8510
  360TIP3   OH222714   3.994   6.595   0.013 -0.7681  0.3549  0.3098
  360TIP3    H122715   3.940   6.639   0.078  0.8571  0.6823  1.4945
  360TIP3    H222716   4.009   6.661  -0.055  0.2021  1.0944  1.2199
  361TIP3   OH222717   1.181   4.840   0.177  0.0501 -0.5387  0.0026
  361TIP3    H122718   1.094   4.818   0.210 -0.1713  0.9837  0.5173
  361TIP3    H222719   1.230   4.866   0.254  0.4541  0.1823 -0.4859
  362TIP3   OH222720   2.376   3.321   2.641  0.3845 -0.4819 -0.1438
  362TIP3    H122721   2.345   3.235   2.669  0.3061 -0.4924 -0.2620
  362TIP3    H222722   2.435   3.302   2.568 -1.5734 -0.2933 -1.8576
  363TIP3   OH222723   1.070   6.247   1.652  0.0362 -0.0126 -0.7835
  363TIP3    H122724   1.048   6.228   1.561 -0.8824 -1.7156 -0.2478
  363TIP3    H222725   1.165   6.253   1.654  0.0871 -0.3736 -1.7882
  364TIP3   OH222726   0.703   3.981   8.216 -0.0614 -0.3744  0.0642
  364TIP3    H122727   0.724   4.019   8.131  0.2338  0.3932  0.4637
  364TIP3    H222728   0.650   3.905   8.196 -2.1435  1.1878 -0.7267
  365TIP3   OH222729   4.393   6.528   7.747  0.1874 -0.3388 -0.0729
  365TIP3    H122730   4.412   6.434   7.757  0.9225 -0.2160 -0.2282
  365TIP3    H222731   4.374   6.558   7.835  1.9465 -0.2352  0.3084
  366TIP3   OH222732   1.242   0.770   1.124  0.1065 -0.0606  0.0276
  366TIP3    H122733   1.327   0.734   1.099  0.7837 -0.1094  2.2097
  366TIP3    H222734   1.240   0.857   1.083  1.7871  0.4656  0.9642
  367TIP3   OH222735   5.503   5.557   1.443 -0.0126  0.3815 -0.3905
  367TIP3    H122736   5.430   5.553   1.505  1.8393 -3.4573  1.8792
  367TIP3    H222737   5.553   5.634   1.471  0.2352 -0.6843  2.3399
  368TIP3   OH222738   0.439   2.567   2.425  0.2657 -0.8201  0.2404
  368TIP3    H122739   0.412   2.641   2.370 -0.4586 -1.7422 -0.6941
  368TIP3    H222740   0.521   2.536   2.386  0.5557 -0.5364  0.6160
  369TIP3   OH222741   5.526   6.021   0.805 -0.1054 -0.4550  0.1691
  369TIP3    H122742   5.599   6.054   0.753 -0.8329  0.2512 -0.4310
  369TIP3    H222743   5.451   6.026   0.746 -1.3177  2.0673  1.7945
  370TIP3   OH222744   6.573   1.637   7.834  0.4710  0.0018 -0.5335
  370TIP3    H122745   6.665   1.625   7.855  0.0945  1.2790  2.3100
  370TIP3    H222746   6.566   1.728   7.807 -0.1101  0.3120  0.5866
  371TIP3   OH222747   2.570   4.427   2.389  0.2841  0.9372 -0.3937
  371TIP3    H122748   2.603   4.414   2.300  0.9627 -2.4106  0.1848
  371TIP3    H222749   2.565   4.338   2.425 -3.0949  1.8498  1.8300
  372TIP3   OH222750   1.068   4.581   1.043  0.1794 -0.2640 -0.2919
  372TIP3    H122751   0.976   4.606   1.037  0.6474  1.3765 -2.0062
  372TIP3    H222752   1.077   4.541   1.129 -1.7424  1.2936  0.7157
  373TIP3   OH222753   0.121   0.751   0.355  0.4115 -0.1600 -0.0117
  373TIP3    H122754   0.154   0.685   0.294 -1.3575  0.1080 -1.3190
  373TIP3    H222755   0.060   0.704   0.411  0.1947  0.0937 -0.0347
  374TIP3   OH222756   1.543   4.888   2.129  0.0924 -0.3359  0.1449
  374TIP3    H122757   1.535   4.964   2.072  0.6495 -1.2073 -1.1417
  374TIP3    H222758   1.547   4.924   2.217  1.8104  1.2113 -0.5162
  375TIP3   OH222759   4.394   3.225   7.453 -0.0879 -0.1011 -0.4513
  375TIP3    H122760   4.331   3.279   7.405 -0.8010  0.0327  0.5841
  375TIP3    H222761   4.472   3.279   7.462 -0.5211  0.4755 -0.0964
  376TIP3   OH222762   4.810   1.607   1.297  0.0863 -0.0126 -0.1333
  376TIP3    H122763   4.750   1.601   1.222  0.0541 -1.7965  0.0114
  376TIP3    H222764   4.860   1.526   1.295 -1.3038 -1.0858  2.9402
  377TIP3   OH222765   5.377   1.271   0.889 -0.3337 -0.3356  0.2136
  377TIP3    H122766   5.373   1.346   0.830 -0.7932 -0.6136 -0.1198
  377TIP3    H222767   5.458   1.282   0.938 -0.8779  0.9096  0.8749
  378TIP3   OH222768   5.019   1.169   0.547 -0.1983 -0.0312 -0.2415
  378TIP3    H122769   5.071   1.093   0.521 -1.0049 -0.5912 -0.2743
  378TIP3    H222770   4.994   1.210   0.464 -2.1120 -1.3665 -0.3922
  379TIP3   OH222771   2.258   2.020   0.647  0.2795  0.0955 -0.4152
  379TIP3    H122772   2.249   2.115   0.647 -2.1643 -0.0852 -0.7937
  379TIP3    H222773   2.341   2.004   0.692 -0.2813  2.3115  1.5657
  380TIP3   OH222774   2.662   0.775   8.534  0.3792 -0.1374  0.4096
  380TIP3    H122775   2.574   0.809   8.516 -0.0499 -0.6792  1.4041
  380TIP3    H222776   2.698   0.756   8.448 -0.9119 -0.9695  0.0217
  381TIP3   OH222777   3.362   4.660   0.879  0.6087  0.1067 -0.0589
  381TIP3    H122778   3.376   4.716   0.802  0.8158  0.7296  0.4178
  381TIP3    H222779   3.267   4.658   0.890  0.5429 -0.4838 -0.6827
  382TIP3   OH222780   2.570   1.722   2.952  0.2398  0.3394  0.4161
  382TIP3    H122781   2.584   1.638   2.908 -0.7928 -0.0466  0.7807
  382TIP3    H222782   2.480   1.717   2.985  1.0218  0.5347  2.7339
  383TIP3   OH222783   1.895   6.508   8.233  0.5214 -0.3785 -0.1216
  383TIP3    H122784   1.852   6.424   8.252  0.2910 -0.1770  0.2584
  383TIP3    H222785   1.950   6.490   8.157 -1.7373 -0.1424 -1.9366
  384TIP3   OH222786   0.757   0.226   1.417  0.1883  0.2883 -0.7960
  384TIP3    H122787   0.669   0.205   1.384 -0.0455  1.8358 -1.1937
  384TIP3    H222788   0.746   0.307   1.466  1.3686  0.3995 -0.6881
  385TIP3   OH222789   3.617   6.196   1.543 -0.4512  0.9673  0.2096
  385TIP3    H122790   3.567   6.272   1.516  0.1132  1.2705 -0.0075
  385TIP3    H222791   3.700   6.204   1.496 -0.4685  0.1051  0.0192
  386TIP3   OH222792   0.833   4.163   0.399 -0.2961 -0.0194 -0.2738
  386TIP3    H122793   0.778   4.235   0.430  0.5917  0.6953 -0.3174
  386TIP3    H222794   0.916   4.204   0.377 -0.1086 -0.8936 -1.3088
  387TIP3   OH222795   4.008   3.787   1.998 -0.0128 -0.0702  0.3633
  387TIP3    H122796   3.927   3.759   2.041 -0.9101 -1.8134 -2.2016
  387TIP3    H222797   3.979   3.841   1.924  1.1231 -0.5627 -0.4810
  388TIP3   OH222798   2.495   3.904   7.968 -0.2025  0.1975  0.2056
  388TIP3    H122799   2.484   3.944   7.882  0.7773  0.8139  0.3501
  388TIP3    H222800   2.455   3.965   8.029  1.0907  0.8764  0.4028
  389TIP3   OH222801   4.599   4.127   0.403  0.0865  0.6922  0.4127
  389TIP3    H122802   4.590   4.078   0.321  1.0204  0.3391  0.5015
  389TIP3    H222803   4.663   4.195   0.382  0.1345  0.7592  0.7822
  390TIP3   OH222804   6.662   5.403   1.476 -0.2599 -0.2863  0.1088
  390TIP3    H122805   6.641   5.473   1.414  0.3144  0.1995  0.4488
  390TIP3    H222806   6.725   5.348   1.430  0.4966  0.3168  0.4085
  391TIP3   OH222807   2.579   5.670   0.632 -0.1375  0.5825 -0.8375
  391TIP3    H122808   2.577   5.601   0.565 -1.7186 -1.6155  1.3109
  391TIP3    H222809   2.668   5.667   0.666 -0.2963 -0.7733 -0.4757
  392TIP3   OH222810   5.032   6.419   1.052 -0.1432  0.4186  0.1130
  392TIP3    H122811   5.036   6.464   0.968  1.9344  0.7878  0.3586
  392TIP3    H222812   5.001   6.331   1.031 -1.2721  0.9922 -0.7746
  393TIP3   OH222813   6.743   3.698   1.588 -0.5667  0.1086 -0.2853
  393TIP3    H122814   6.708   3.663   1.507  0.6816 -0.4488 -0.6017
  393TIP3    H222815   6.700   3.647   1.657 -2.0795  0.9833 -0.5325
  394TIP3   OH222816   1.903   1.219   1.107  0.6022 -0.0265 -0.3587
  394TIP3    H122817   1.911   1.218   1.011  1.6482  2.0201 -0.3458
  394TIP3    H222818   1.991   1.199   1.138  0.8478  1.6043  0.1042
  395TIP3   OH222819   4.286   6.120   8.494  1.2370  0.7675 -0.3376
  395TIP3    H122820   4.273   6.187   8.427  2.9021  1.1796 -0.2835
  395TIP3    H222821   4.255   6.160   8.575  0.6769  0.8450 -0.5865
  396TIP3   OH222822   4.251   4.737   1.062 -0.1214  0.6248  0.2637
  396TIP3    H122823   4.184   4.689   1.013  0.7722 -0.8337  0.4282
  396TIP3    H222824   4.211   4.823   1.077 -2.4366 -0.5187  1.2896
  397TIP3   OH222825   0.844   5.410   2.045  0.1836 -0.0417 -0.2040
  397TIP3    H122826   0.887   5.326   2.063  0.4383 -0.0161 -0.6639
  397TIP3    H222827   0.754   5.398   2.076  0.6832  0.1323  1.4372
  398TIP3   OH222828   1.728   6.790   2.376 -0.0912 -0.2973  0.6330
  398TIP3    H122829   1.816   6.826   2.363 -0.4008  0.0497 -0.6235
  398TIP3    H222830   1.708   6.745   2.295 -0.8411 -0.9064  1.1422
  399TIP3   OH222831   4.427   1.411   7.975  0.1990 -0.1353 -0.1676
  399TIP3    H122832   4.486   1.339   7.993  0.7188  0.6983  1.7798
  399TIP3    H222833   4.339   1.372   7.979  0.5161 -1.3273 -2.8592
  400TIP3   OH222834   0.442   3.427   7.391 -0.3086  0.2807 -0.1298
  400TIP3    H122835   0.427   3.511   7.436  0.2343  0.5311 -0.4012
  400TIP3    H222836   0.480   3.370   7.458 -0.5096  0.3108  0.0095
  401TIP3   OH222837   4.182   6.648   0.503 -0.0139 -0.2206  0.4246
  401TIP3    H122838   4.098   6.602   0.504 -0.1897  0.1036  0.6531
  401TIP3    H222839   4.168   6.726   0.556  0.3721 -0.0532  0.2874
  402TIP3   OH222840   3.950   2.944   0.724 -0.4139 -0.0369  0.4234
  402TIP3    H122841   3.875   2.984   0.767 -0.5051  1.0575 -0.6985
  402TIP3    H222842   3.973   3.005   0.654  0.2477 -1.3472 -0.5457
  403TIP3   OH222843   4.481   4.309   1.759  0.0633 -0.7656 -0.4290
  403TIP3    H122844   4.450   4.350   1.679 -1.6771  0.5308  0.8242
  403TIP3    H222845   4.439   4.223   1.760 -0.8499 -0.3266 -0.3595
  404TIP3   OH222846   3.993   2.989   1.801  0.3159 -0.1367  0.3468
  404TIP3    H122847   4.051   2.964   1.729 -0.1815  0.5696 -0.3059
  404TIP3    H222848   3.905   2.980   1.765  0.0982  2.0165  0.2508
  405TIP3   OH222849   2.380   4.298   1.200 -0.3489 -0.5387  0.0914
  405TIP3    H122850   2.385   4.208   1.167  1.1783 -0.7868  0.9085
  405TIP3    H222851   2.406   4.353   1.126 -0.9065 -0.7847 -0.2938
  406TIP3   OH222852   2.725   2.641   1.974  0.0478 -0.1398  0.0734
  406TIP3    H122853   2.649   2.590   1.946  0.2444  0.0875 -0.9346
  406TIP3    H222854   2.736   2.707   1.905  1.8974 -0.9261 -0.4373
  407TIP3   OH222855   1.394   6.739   2.241 -0.5875 -0.7656  0.3838
  407TIP3    H122856   1.440   6.663   2.205  0.9349 -1.4938  3.5123
  407TIP3    H222857   1.372   6.714   2.331 -3.6057  1.1048  0.3279
  408TIP3   OH222858   1.863   3.099   1.479  0.0273  0.3367  0.4334
  408TIP3    H122859   1.919   3.077   1.405 -0.4657 -0.0588  0.1763
  408TIP3    H222860   1.924   3.127   1.547  0.5788 -0.4722  0.2927
  409TIP3   OH222861   6.108   0.097   7.932  0.3620  0.0739 -0.2368
  409TIP3    H122862   6.093   0.191   7.931  2.2162  0.4027 -1.5516
  409TIP3    H222863   6.048   0.064   8.000  2.1561  2.6187  2.8764
  410TIP3   OH222864   0.200   0.050   1.569  0.6566 -0.5136 -0.3214
  410TIP3    H122865   0.204   0.095   1.653 -1.5064 -0.8694  0.0160
  410TIP3    H222866   0.279  -0.004   1.567  1.1316  0.0771  1.1184
  411TIP3   OH222867   4.696   0.750   0.112  0.1399  0.5228 -0.1564
  411TIP3    H122868   4.663   0.736   0.023 -1.2563  0.8056  0.2942
  411TIP3    H222869   4.757   0.823   0.104  1.4961 -0.6814 -1.1884
  412TIP3   OH222870   1.881   5.971   0.875  0.2157 -0.3073  0.2772
  412TIP3    H122871   1.881   5.880   0.904  1.6122 -0.0453  1.2034
  412TIP3    H222872   1.791   6.000   0.886 -0.3563 -1.7063 -0.5123
  413TIP3   OH222873   6.771   4.489   8.285  0.2099 -0.1562 -0.1094
  413TIP3    H122874   6.858   4.477   8.246 -0.0425 -0.7980 -0.4947
  413TIP3    H222875   6.780   4.565   8.342  0.9879 -0.1317 -0.2591
  414TIP3   OH222876   2.449   0.427   1.282  0.3297  0.0210 -0.5319
  414TIP3    H122877   2.480   0.394   1.367 -0.1618 -0.4706 -0.5377
  414TIP3    H222878   2.527   0.465   1.241  0.8190 -0.7447 -0.3355
  415TIP3   OH222879   3.116   2.855   1.954 -0.9026  0.8017 -0.4132
  415TIP3    H122880   3.201   2.872   1.913 -1.0524  0.1971 -0.9928
  415TIP3    H222881   3.115   2.761   1.971 -1.8798  0.6000 -1.4352
  416TIP3   OH222882   4.215   4.076   0.754  0.0137 -0.1482 -0.0213
  416TIP3    H122883   4.297   4.103   0.713 -0.4440 -1.2633 -1.7983
  416TIP3    H222884   4.233   3.990   0.791 -0.5807 -0.8559 -1.3096
  417TIP3   OH222885   3.258   4.131   0.305  0.4200  0.6885 -0.1527
  417TIP3    H122886   3.173   4.092   0.282  0.4418 -0.0614  1.0057
  417TIP3    H222887   3.309   4.127   0.224 -0.5872  1.0072 -0.8239
  418TIP3   OH222888   4.728   0.705   8.076  0.8303  0.4305  0.4412
  418TIP3    H122889   4.713   0.713   8.171  1.6291  3.1666  0.4309
  418TIP3    H222890   4.714   0.794   8.043  1.4075 -0.2974 -1.8952
  419TIP3   OH222891   5.075   6.219   0.332 -0.6816  0.4020  0.0359
  419TIP3    H122892   5.104   6.308   0.311  1.6293 -0.3267 -0.0977
  419TIP3    H222893   5.032   6.188   0.252 -0.0544  0.8367 -0.4737
  420TIP3   OH222894   4.121   6.669   8.331 -0.2244  0.4442  0.6106
  420TIP3    H122895   4.105   6.580   8.362  0.9431 -0.0499 -0.1426
  420TIP3    H222896   4.085   6.725   8.400  0.1049 -0.6121  1.6717
  421TIP3   OH222897   3.024   0.945   2.289  0.7556 -0.0881  0.7360
  421TIP3    H122898   3.096   0.926   2.229 -0.1010 -0.1654 -0.3025
  421TIP3    H222899   3.006   1.038   2.275  0.6201 -0.0834  0.9451
  422TIP3   OH222900   5.055   0.678   0.684  0.5314 -0.1781 -0.1642
  422TIP3    H122901   5.145   0.660   0.654  0.7468 -1.5619  1.1786
  422TIP3    H222902   5.059   0.667   0.779 -1.1833 -0.8290 -0.1360
  423TIP3   OH222903   0.714   1.742   2.995  0.1899  0.4761  0.2338
  423TIP3    H122904   0.743   1.833   2.982 -0.2725  0.3339 -2.5515
  423TIP3    H222905   0.619   1.748   2.996  0.1682  0.1715  1.8652
  424TIP3   OH222906   5.594   1.032   3.287 -0.4426 -0.5245 -0.1701
  424TIP3    H122907   5.566   1.052   3.198  0.1876  0.5552 -0.1489
  424TIP3    H222908   5.520   1.058   3.342  0.0160  1.0209 -0.2192
  425TIP3   OH222909   6.040   4.902   7.588  0.5405 -0.0704 -0.3152
  425TIP3    H122910   5.996   4.838   7.643 -0.9154  1.1921  0.0824
  425TIP3    H222911   6.075   4.966   7.649 -0.8736  1.2118 -0.7685
  426TIP3   OH222912   3.270   3.604   2.941  0.6586  0.1309  0.5012
  426TIP3    H122913   3.364   3.598   2.926  0.6888 -1.8069  1.2077
  426TIP3    H222914   3.232   3.536   2.885 -0.2229  0.2629  0.9140
  427TIP3   OH222915   5.890   1.183   1.029  0.3583  0.1198 -1.0052
  427TIP3    H122916   5.806   1.214   1.065  0.4572 -0.4550 -0.2606
  427TIP3    H222917   5.870   1.096   0.995  0.7772 -0.2521 -0.3120
  428TIP3   OH222918   1.410   1.725   0.220 -0.3348 -0.1286 -0.0755
  428TIP3    H122919   1.477   1.770   0.272  0.1221  0.8088 -1.4199
  428TIP3    H222920   1.459   1.666   0.163 -0.6418  0.5241 -1.0347
  429TIP3   OH222921   5.148   6.304   7.898 -0.0201 -0.3401 -0.0954
  429TIP3    H122922   5.105   6.227   7.936 -0.8135  0.3356  0.4228
  429TIP3    H222923   5.153   6.286   7.804 -0.5149 -0.8679 -0.0213
  430TIP3   OH222924   6.628   3.275   8.164  0.1608 -0.5975 -0.2133
  430TIP3    H122925   6.585   3.204   8.118 -0.7509 -0.9504  1.1158
  430TIP3    H222926   6.583   3.354   8.135  0.3035 -0.6971 -0.7107
  431TIP3   OH222927   2.174   0.751   0.595  0.2796 -0.5643  0.0492
  431TIP3    H122928   2.204   0.684   0.533 -2.5209 -2.2402  0.3091
  431TIP3    H222929   2.078   0.751   0.586  0.0971  2.8211  0.7500
  432TIP3   OH222930   4.187   3.807   0.164 -0.1191  0.2940 -0.1362
  432TIP3    H122931   4.134   3.863   0.220 -2.5477 -2.6176  0.7051
  432TIP3    H222932   4.234   3.750   0.224 -0.1187 -0.6358 -0.9967
  433TIP3   OH222933   3.787   1.705   8.242  0.1650 -0.5562 -0.6350
  433TIP3    H122934   3.790   1.657   8.325  0.7263 -1.5907 -1.2220
  433TIP3    H222935   3.751   1.642   8.179  1.9862 -0.6399 -1.6822
  434TIP3   OH222936   3.063   2.765   0.024  0.1396  0.2725 -0.4786
  434TIP3    H122937   2.989   2.784   0.081  0.0502 -2.2621  0.3629
  434TIP3    H222938   3.135   2.816   0.061 -0.5915  0.8735  0.1586
  435TIP3   OH222939   6.759   6.616   0.929 -0.5681  1.0231 -0.6556
  435TIP3    H122940   6.763   6.529   0.968  0.5564  0.5251 -1.8141
  435TIP3    H222941   6.674   6.619   0.886 -1.1025  0.9523  0.3710
  436TIP3   OH222942   2.502   0.592   2.248  0.8791 -0.5684  0.0314
  436TIP3    H122943   2.449   0.616   2.172  0.9052 -0.6393 -0.0096
  436TIP3    H222944   2.473   0.651   2.317  1.0920 -0.2780 -0.1266
  437TIP3   OH222945   3.616   5.696   0.650 -0.0109  0.3802  0.3409
  437TIP3    H122946   3.591   5.604   0.645 -3.0057  1.1807 -2.5220
  437TIP3    H222947   3.535   5.741   0.673  0.9124  2.4789 -0.3451
  438TIP3   OH222948   1.480   6.408   3.324  0.5446  0.2465  0.0292
  438TIP3    H122949   1.550   6.371   3.271  0.6650 -1.0203  1.0370
  438TIP3    H222950   1.508   6.394   3.414 -0.4135  0.8880  0.4434
  439TIP3   OH222951   5.304   5.645   1.631  0.2777  0.1798  0.4029
  439TIP3    H122952   5.269   5.732   1.611  1.7369  0.8299  0.5911
  439TIP3    H222953   5.388   5.661   1.673  1.5555 -1.3450 -1.3790
  440TIP3   OH222954   5.759   2.041   8.309  0.1828  0.3775 -0.1741
  440TIP3    H122955   5.849   2.061   8.333  0.2465 -0.7736  0.5834
  440TIP3    H222956   5.715   2.020   8.391 -1.0129  1.7165 -0.4191
  441TIP3   OH222957   6.518   4.595   1.893 -0.2757 -0.2637  0.3011
  441TIP3    H122958   6.587   4.580   1.829  0.6077  0.5782  1.0172
  441TIP3    H222959   6.477   4.510   1.904  2.1534 -1.3900  1.5222
  442TIP3   OH222960   0.288   4.813   7.561  0.0749 -0.3888 -0.3864
  442TIP3    H122961   0.227   4.816   7.487 -1.9566 -1.8141  1.0915
  442TIP3    H222962   0.367   4.773   7.526 -1.5164 -2.8651 -1.4594
  443TIP3   OH222963   6.517   2.327   0.574 -0.1351  0.4987  0.4309
  443TIP3    H122964   6.487   2.301   0.661 -1.4641 -0.8585 -0.3753
  443TIP3    H222965   6.442   2.372   0.535 -0.2014 -0.4806 -0.6291
  444TIP3   OH222966   6.357   5.571   1.100 -0.4596  0.1265  0.0359
  444TIP3    H122967   6.269   5.550   1.130 -0.1744 -1.3917 -0.0854
  444TIP3    H222968   6.383   5.495   1.048  1.7516 -0.4905  1.8929
  445TIP3   OH222969   6.420   3.999   1.986  0.3562  0.0857  0.4439
  445TIP3    H122970   6.404   3.907   2.007 -0.7704 -0.5162 -2.5828
  445TIP3    H222971   6.474   3.997   1.907  0.3402  2.0346  0.3354
  446TIP3   OH222972   4.032   5.696   0.534 -0.0601 -0.0007 -0.3643
  446TIP3    H122973   3.966   5.733   0.593 -0.5864 -1.0049 -0.2871
  446TIP3    H222974   4.049   5.765   0.470 -0.6069  0.5555  0.0729
  447TIP3   OH222975   2.278   0.320   2.635  0.2331  0.4927 -0.6618
  447TIP3    H122976   2.291   0.247   2.575  0.5613  0.0428 -0.0498
  447TIP3    H222977   2.327   0.296   2.714  0.5368  1.4795 -0.5388
  448TIP3   OH222978   0.041   5.747   1.681  0.4728 -0.1408 -0.2233
  448TIP3    H122979   0.035   5.823   1.623  2.3255  0.4207  0.2706
  448TIP3    H222980   0.014   5.781   1.767  0.7383 -0.1872 -0.1217
  449TIP3   OH222981   1.578   6.283   2.194 -0.1601 -0.1107  0.3031
  449TIP3    H122982   1.501   6.231   2.174 -0.0539 -0.9040  1.7907
  449TIP3    H222983   1.645   6.218   2.218 -0.4427  0.6527  3.6260
  450TIP3   OH222984   0.239   0.174   3.291 -0.0924  0.2285  0.2240
  450TIP3    H122985   0.298   0.116   3.339  0.3984 -0.3646 -1.0226
  450TIP3    H222986   0.287   0.195   3.210 -0.2817  2.3615  0.6085
  451TIP3   OH222987   5.300   2.830   2.301 -0.3603 -0.3664 -0.4573
  451TIP3    H122988   5.290   2.741   2.267 -0.3044 -1.7829  2.8924
  451TIP3    H222989   5.213   2.854   2.332 -0.0111  0.0420  0.2151
  452TIP3   OH222990   1.705   4.172   1.146  0.1099  0.2588  0.1017
  452TIP3    H122991   1.766   4.099   1.156  0.2264  0.5578  1.7697
  452TIP3    H222992   1.757   4.250   1.160  0.3091  0.8444 -3.1106
  453TIP3   OH222993   2.565   4.112   3.071  0.3338 -0.5032  0.4679
  453TIP3    H122994   2.615   4.100   2.990 -0.1227  0.6817 -0.0185
  453TIP3    H222995   2.610   4.058   3.136  2.7579  1.1409  0.2889
  454TIP3   OH222996   3.942   4.697   0.683  0.9919  0.0998  0.9242
  454TIP3    H122997   3.992   4.674   0.605 -0.6433 -0.3619 -0.0307
  454TIP3    H222998   3.920   4.613   0.723 -0.5805  0.1732  0.2840
  455TIP3   OH222999   4.962   0.518   2.939  1.0636  0.4890  0.1193
  455TIP3    H123000   4.962   0.492   3.031  1.0156  2.6022  0.7616
  455TIP3    H223001   4.930   0.440   2.893 -4.0862  0.8670  2.3540
  456TIP3   OH223002   6.814   1.007   2.484 -0.4014 -0.6645  0.0951
  456TIP3    H123003   6.851   1.037   2.567  1.6400 -0.4412 -0.8360
  456TIP3    H223004   6.862   1.057   2.418 -0.4473 -2.3878 -1.3007
  457TIP3   OH223005   5.810   1.036   8.261 -0.3521  0.1965 -0.3628
  457TIP3    H123006   5.745   0.966   8.256 -0.2297 -0.0624  1.2460
  457TIP3    H223007   5.834   1.041   8.354  2.4470 -0.1951 -0.9666
  458TIP3   OH223008   0.381   5.396   7.207  0.1115  0.2465  0.3159
  458TIP3    H123009   0.347   5.322   7.155 -0.6291  0.0820  1.0055
  458TIP3    H223010   0.354   5.474   7.158  1.0305  0.0712 -0.4958
  459TIP3   OH223011   5.428   3.409   1.367  0.4065  0.2221 -0.0171
  459TIP3    H123012   5.339   3.388   1.338  0.4677  0.8174 -0.6723
  459TIP3    H223013   5.417   3.485   1.424  0.5835  1.0135 -0.9939
  460TIP3   OH223014   3.617   4.378   8.147 -0.1721  0.0251 -0.0532
  460TIP3    H123015   3.581   4.311   8.204 -1.2089 -2.8097 -3.6718
  460TIP3    H223016   3.703   4.344   8.122 -0.5089  0.2156 -1.5623
  461TIP3   OH223017   4.913   4.750   2.263  0.0310  0.5467 -0.2839
  461TIP3    H123018   4.979   4.689   2.229 -0.2514 -0.1369  0.3892
  461TIP3    H223019   4.885   4.712   2.346 -2.1605  0.1408 -1.1591
  462TIP3   OH223020   1.370   3.691   8.178  0.1516 -0.3616  0.2374
  462TIP3    H123021   1.426   3.761   8.146 -0.9100  0.4468  0.1012
  462TIP3    H223022   1.286   3.733   8.196 -0.6663 -1.6798 -0.3007
  463TIP3   OH223023   3.913   1.750   3.377  0.3702  0.8474 -0.0488
  463TIP3    H123024   3.912   1.728   3.470 -0.3381 -0.0260 -0.2376
  463TIP3    H223025   3.984   1.697   3.341 -2.3147 -2.7107 -0.7822
  464TIP3   OH223026   5.859   3.588   3.076 -0.3091 -0.9579 -0.2356
  464TIP3    H123027   5.840   3.527   3.148 -0.5971  0.6949  1.1643
  464TIP3    H223028   5.849   3.675   3.115  0.0625  0.0102 -2.1629
  465TIP3   OH223029   6.715   3.535   1.365  0.8519  0.3071  0.0397
  465TIP3    H123030   6.695   3.453   1.411 -3.0483  0.7376 -0.5327
  465TIP3    H223031   6.758   3.507   1.284  0.6858 -1.0895  0.3977
  466TIP3   OH223032   3.116   2.293   7.671 -0.2106  0.6372 -0.2562
  466TIP3    H123033   3.034   2.342   7.666  0.3031  1.6088  0.4284
  466TIP3    H223034   3.171   2.345   7.730 -0.2731 -1.7031  2.0362
  467TIP3   OH223035   5.484   2.793   0.496  0.0336 -0.1249 -0.3494
  467TIP3    H123036   5.564   2.840   0.521  0.3316 -1.0250  0.4664
  467TIP3    H223037   5.507   2.749   0.414  0.0736  0.3416 -0.5930
  468TIP3   OH223038   1.708   0.336   1.360 -0.2268 -0.3367 -0.4059
  468TIP3    H123039   1.772   0.407   1.369  0.6286 -0.7624 -2.5105
  468TIP3    H223040   1.654   0.362   1.286 -1.7284 -0.5905  0.5658
  469TIP3   OH223041   2.605   1.679   8.412  0.1870  0.2077  0.4120
  469TIP3    H123042   2.646   1.761   8.440 -1.0965  1.3667 -0.9147
  469TIP3    H223043   2.523   1.674   8.461  1.3915 -1.6828  2.4347
  470TIP3   OH223044   6.039   6.440   2.008  0.0913 -0.2836  0.3635
  470TIP3    H123045   6.099   6.443   1.934 -0.2104  0.2068  0.1378
  470TIP3    H223046   5.981   6.514   1.996 -0.7716 -0.9338  0.4050
  471TIP3   OH223047   2.201   2.004   2.278 -0.0222  0.3906 -0.0603
  471TIP3    H123048   2.273   1.948   2.307 -0.0135  0.1728 -0.4831
  471TIP3    H223049   2.244   2.078   2.235 -0.0090  1.1746  1.2548
  472TIP3   OH223050   6.144   4.665   1.917 -0.1892 -0.0639 -0.6166
  472TIP3    H123051   6.204   4.636   1.985 -1.9393 -0.9647  0.5990
  472TIP3    H223052   6.174   4.621   1.838  0.6613 -0.5880 -0.0178
  473TIP3   OH223053   4.351   0.607   2.440 -0.3965 -0.2848  0.1308
  473TIP3    H123054   4.335   0.626   2.533  0.3914 -0.4445  0.3101
  473TIP3    H223055   4.442   0.634   2.426 -0.4092 -0.5618 -0.5175
  474TIP3   OH223056   4.571   1.432   2.440  0.1054  0.7828  0.5848
  474TIP3    H123057   4.547   1.374   2.512  0.5735 -1.2302 -0.8059
  474TIP3    H223058   4.516   1.404   2.367 -0.0961  2.5296  0.0225
  475TIP3   OH223059   3.614   6.679   8.195  0.3209 -0.0128 -0.0528
  475TIP3    H123060   3.645   6.686   8.105  0.4534 -2.3196 -0.2324
  475TIP3    H223061   3.667   6.743   8.243  0.1085  1.4104 -1.5956
  476TIP3   OH223062   6.291   3.685   0.652 -0.2314  0.3524  0.5594
  476TIP3    H123063   6.351   3.634   0.706  0.1302 -0.1689 -0.3123
  476TIP3    H223064   6.205   3.650   0.673  0.0749 -1.1753 -0.5859
  477TIP3   OH223065   4.423   5.729   1.050 -0.6536 -0.0508  0.3618
  477TIP3    H123066   4.510   5.719   1.010 -0.9884  2.9938 -1.4810
  477TIP3    H223067   4.419   5.660   1.116  2.9610 -0.6293  0.2090
  478TIP3   OH223068   4.940   5.961   0.210 -0.3244 -0.7519  1.1382
  478TIP3    H123069   5.032   5.951   0.234 -0.0668 -0.6798  0.2411
  478TIP3    H223070   4.929   5.904   0.133 -0.6500  0.3507  0.3423
  479TIP3   OH223071   6.052   5.681   1.176  0.8761  0.3250  0.3043
  479TIP3    H123072   6.068   5.603   1.229  0.1676  0.1789  0.3205
  479TIP3    H223073   5.971   5.662   1.129 -1.1764  2.2784  2.7634
  480TIP3   OH223074   4.835   2.414   1.887  0.0315 -0.1087  0.5725
  480TIP3    H123075   4.790   2.443   1.966 -2.0827  1.3889 -1.0537
  480TIP3    H223076   4.882   2.335   1.913 -2.4424 -0.9911  2.7761
  481TIP3   OH223077   1.056   6.212   3.610 -0.0469  0.0015 -0.1883
  481TIP3    H123078   1.054   6.122   3.643 -0.0100 -0.2660 -0.9060
  481TIP3    H223079   1.143   6.244   3.632 -0.1728 -0.0256  0.3599
  482TIP3   OH223080   6.421   6.576   2.915 -0.0681  0.4258  0.3762
  482TIP3    H123081   6.422   6.670   2.898 -1.1170  0.7990  2.1660
  482TIP3    H223082   6.512   6.555   2.938  0.8788  0.3386 -2.9644
  483TIP3   OH223083   3.215   1.272   0.636 -0.3389 -0.5644  0.3327
  483TIP3    H123084   3.152   1.293   0.704 -1.7642 -2.1824 -0.4141
  483TIP3    H223085   3.287   1.334   0.650 -0.8426 -0.4382  2.9027
  484TIP3   OH223086   3.558   0.862   1.041 -0.0973 -0.2447 -0.3437
  484TIP3    H123087   3.622   0.792   1.052  1.5034  1.2864  0.5635
  484TIP3    H223088   3.594   0.936   1.090 -2.4463  0.7840 -0.0257
  485TIP3   OH223089   5.721   4.439   3.140  0.4203 -0.0017 -0.4868
  485TIP3    H123090   5.707   4.468   3.231  0.5605  3.0603 -1.3455
  485TIP3    H223091   5.814   4.419   3.136  0.6916  1.1861 -0.2863
  486TIP3   OH223092   3.472   3.816   1.194  0.1267  0.1235  0.1714
  486TIP3    H123093   3.452   3.909   1.207 -0.2084  0.2000 -0.8417
  486TIP3    H223094   3.499   3.810   1.103 -1.6636 -1.0765 -0.3221
  487TIP3   OH223095   0.493   1.167   1.639 -0.0001  0.5620  0.6212
  487TIP3    H123096   0.462   1.099   1.698  3.8612 -1.5319  0.5885
  487TIP3    H223097   0.440   1.157   1.560 -0.3084 -1.6687  1.0668
  488TIP3   OH223098   0.289   1.396   1.600  0.0104  0.4749 -0.0027
  488TIP3    H123099   0.229   1.441   1.659  0.4452 -0.2890  1.0523
  488TIP3    H223100   0.372   1.395   1.647  0.4145 -0.0148 -0.7034
  489TIP3   OH223101   2.887   4.999   0.091  0.0947  0.4137  0.4700
  489TIP3    H123102   2.959   4.997   0.154 -0.2013 -0.3218  0.7915
  489TIP3    H223103   2.845   5.084   0.105  1.9421  1.6352 -0.9135
  490TIP3   OH223104   4.798   1.248   1.083  0.6753  0.0590 -0.2124
  490TIP3    H123105   4.723   1.307   1.094  1.0083  0.2802  1.0056
  490TIP3    H223106   4.769   1.166   1.122 -0.2645 -1.0721 -3.0332
  491TIP3   OH223107   2.409   1.654   0.549 -0.0747 -0.0857  0.6507
  491TIP3    H123108   2.402   1.574   0.497  0.0379 -0.1817  0.7807
  491TIP3    H223109   2.328   1.702   0.532  1.0723  1.1801 -1.7511
  492TIP3   OH223110   0.356   4.256   8.119 -0.6609 -0.2813  0.6956
  492TIP3    H123111   0.345   4.279   8.026  0.4063  0.0072  0.6302
  492TIP3    H223112   0.438   4.297   8.144 -0.1901 -1.6018  1.3763
  493TIP3   OH223113   4.739   4.995   1.667  0.7417 -0.5639 -0.1635
  493TIP3    H123114   4.832   5.016   1.676  0.8333 -1.4972  1.3629
  493TIP3    H223115   4.737   4.921   1.606  0.9561 -0.2903 -0.5075
  494TIP3   OH223116   1.997   2.290   1.716  0.0316  0.4496  0.0630
  494TIP3    H123117   1.925   2.298   1.779  0.3740  2.0879  0.3054
  494TIP3    H223118   1.958   2.314   1.632  0.1789  0.8465  0.1078
  495TIP3   OH223119   1.652   0.870   3.065 -0.1120  0.0353 -0.4403
  495TIP3    H123120   1.647   0.784   3.023  1.1051 -0.8614  1.1016
  495TIP3    H223121   1.561   0.896   3.078 -0.5079 -1.1033 -0.7856
  496TIP3   OH223122   0.998   1.089   1.096 -0.1247 -0.1888  0.3643
  496TIP3    H123123   0.942   1.167   1.098  0.9487  0.6497 -0.5293
  496TIP3    H223124   0.937   1.015   1.099 -1.1299  0.6437  2.4675
  497TIP3   OH223125   0.644   0.835   0.264  0.0222 -0.2818 -0.0573
  497TIP3    H123126   0.580   0.789   0.209 -0.8448 -0.4449  1.0473
  497TIP3    H223127   0.716   0.856   0.204 -0.9142 -0.3798 -1.2665
  498TIP3   OH223128   6.136   1.582   2.186 -0.2637 -0.3639  0.2349
  498TIP3    H123129   6.218   1.557   2.228  2.2742  3.4833 -1.9027
  498TIP3    H223130   6.083   1.620   2.256  1.2526  0.2049  1.1039
  499TIP3   OH223131   3.421   2.901   8.266  0.0033  0.1420 -0.2816
  499TIP3    H123132   3.506   2.911   8.224  0.4169  2.3001  0.9406
  499TIP3    H223133   3.383   2.989   8.266 -2.0848 -0.6992 -0.4532
  500TIP3   OH223134   6.272   6.078   1.323 -0.1071 -0.4076 -0.5037
  500TIP3    H123135   6.331   6.150   1.347 -2.2945  1.4582 -0.4203
  500TIP3    H223136   6.330   6.011   1.286  2.3936  0.1564  1.9936
  501TIP3   OH223137   6.599   0.335   1.279 -0.1759  0.1491  0.0029
  501TIP3    H123138   6.682   0.293   1.302 -1.3001 -1.5780  1.1200
  501TIP3    H223139   6.606   0.424   1.313  0.2821 -0.7333  2.3580
  502TIP3   OH223140   3.923   1.047   1.035 -0.4998 -0.0349 -0.2059
  502TIP3    H123141   3.997   1.083   1.084  0.6384 -1.2134 -0.9738
  502TIP3    H223142   3.960   1.024   0.950 -2.1929  1.0078 -1.2660
  503TIP3   OH223143   1.567   2.742   2.605 -0.3127 -0.1708  0.0626
  503TIP3    H123144   1.605   2.814   2.555  0.0105  1.5371  2.5685
  503TIP3    H223145   1.642   2.687   2.628 -0.4973 -1.1152 -1.4431
  504TIP3   OH223146   4.659   1.742   0.237 -0.5901 -0.8766 -0.2892
  504TIP3    H123147   4.692   1.741   0.147 -0.9607 -0.6871 -0.4283
  504TIP3    H223148   4.568   1.771   0.229 -0.8792 -1.6595  0.0615
  505TIP3   OH223149   6.396   3.216   8.025 -0.0563 -0.3012  0.5323
  505TIP3    H123150   6.367   3.216   7.934  0.6727 -0.2062  0.2944
  505TIP3    H223151   6.334   3.160   8.070 -0.6362 -0.0572  0.0467
  506TIP3   OH223152   5.035   1.069   1.993 -0.0334  0.3774  0.4927
  506TIP3    H123153   5.018   1.050   1.901 -0.3967 -1.0056  0.8119
  506TIP3    H223154   5.040   1.164   1.998  2.4427  0.4349 -1.3810
  507TIP3   OH223155   6.833   4.747   0.092 -0.1302 -0.4320 -0.2183
  507TIP3    H123156   6.848   4.791   0.176 -1.6758 -1.4938  0.6672
  507TIP3    H223157   6.879   4.801   0.028  1.0385  0.4397  1.2942
  508TIP3   OH223158   6.584   5.204   1.666 -0.2238 -0.2870  0.3243
  508TIP3    H123159   6.602   5.110   1.661  3.4541  0.2996 -0.0629
  508TIP3    H223160   6.629   5.241   1.590 -4.7874  1.5658 -1.8577
  509TIP3   OH223161   6.665   3.830   2.796  0.5410 -0.0792  0.6493
  509TIP3    H123162   6.588   3.781   2.824  0.6832 -1.1617 -0.7613
  509TIP3    H223163   6.654   3.843   2.702  1.5441  0.7494  0.6150
  510TIP3   OH223164   6.247   5.319   3.669  0.2273 -0.3670 -0.1675
  510TIP3    H123165   6.211   5.330   3.581 -0.0047  0.1502 -0.0126
  510TIP3    H223166   6.177   5.350   3.728  0.0145 -1.5653  0.2462
  511TIP3   OH223167   2.960   2.451   1.198 -0.2499  0.3461  0.3875
  511TIP3    H123168   2.979   2.358   1.184  0.8577  0.3977  1.4325
  511TIP3    H223169   3.025   2.479   1.262 -0.8589  1.7432  0.4125
  512TIP3   OH223170   4.548   5.604   1.892 -0.0318 -0.3595  0.3565
  512TIP3    H123171   4.616   5.543   1.919 -0.6893 -1.6574 -0.7534
  512TIP3    H223172   4.471   5.579   1.943  0.0644  0.4667  0.9101
  513TIP3   OH223173   5.752   1.659   0.696  0.2789 -0.2608  0.4321
  513TIP3    H123174   5.844   1.650   0.673 -0.0370 -1.7078 -0.4016
  513TIP3    H223175   5.737   1.594   0.764 -0.1264 -0.0359  0.5648
  514TIP3   OH223176   1.981   3.895   0.912  0.1886  0.3761 -0.4985
  514TIP3    H123177   1.918   3.945   0.860 -0.8180  0.1669  0.4655
  514TIP3    H223178   2.041   3.961   0.947 -1.0291  0.9232  0.6287
  515TIP3   OH223179   3.224   1.560   8.685 -0.0776  0.0549 -0.2025
  515TIP3    H123180   3.232   1.651   8.713 -2.3866  0.1590  0.3640
  515TIP3    H223181   3.233   1.562   8.590 -1.8846  1.2003 -0.4010
  516TIP3   OH223182   6.491   0.041   3.395 -0.2716 -0.0082  0.2671
  516TIP3    H123183   6.570   0.088   3.368  0.3816 -0.1358  1.8407
  516TIP3    H223184   6.423   0.108   3.396  0.3216  0.6160  1.0157
  517TIP3   OH223185   5.271   2.679   3.079 -0.2656 -0.1872 -0.0999
  517TIP3    H123186   5.182   2.653   3.103  0.3204 -2.3038 -0.1061
  517TIP3    H223187   5.328   2.624   3.132  1.1114  2.2375  1.1032
  518TIP3   OH223188   6.340   4.982   7.831  0.1850 -0.1552  0.4009
  518TIP3    H123189   6.294   5.045   7.775  0.0932 -1.1970 -0.7464
  518TIP3    H223190   6.269   4.929   7.869  0.2414  0.6222  1.6112
  519TIP3   OH223191   3.942   6.043   0.106  0.1938 -0.2384  0.4769
  519TIP3    H123192   3.911   6.007   0.189  0.1032  1.6319  1.3248
  519TIP3    H223193   3.872   6.023   0.043 -0.1004 -0.9966  1.0396
  520TIP3   OH223194   1.865   5.909   8.207  0.0047 -0.0375 -0.9375
  520TIP3    H123195   1.881   6.003   8.207  0.1905 -0.0470 -2.5816
  520TIP3    H223196   1.946   5.871   8.172  0.4856 -0.9445  1.0128
  521TIP3   OH223197   3.559   1.980   2.030  0.6590  0.4080  0.5306
  521TIP3    H123198   3.481   1.972   2.085 -0.6518 -0.2778 -1.3728
  521TIP3    H223199   3.607   1.898   2.044  0.5923  0.4471  1.0092
  522TIP3   OH223200   6.496   6.679   7.397 -0.0670 -0.1006  0.4064
  522TIP3    H123201   6.528   6.631   7.473 -0.4255 -0.6511  0.2216
  522TIP3    H223202   6.437   6.617   7.353  1.4175 -0.4185 -1.2470
  523TIP3   OH223203   4.512   4.754   8.083 -0.2860  0.6402  0.0307
  523TIP3    H123204   4.599   4.740   8.122  0.6681  2.2568 -1.3788
  523TIP3    H223205   4.459   4.789   8.154  0.0653 -0.7289  1.0136
  524TIP3   OH223206   6.501   1.040   2.229  0.1643 -0.0139 -0.1021
  524TIP3    H123207   6.406   1.036   2.217  0.1804 -0.6081 -0.0504
  524TIP3    H223208   6.516   1.124   2.272 -0.6466 -1.1777  2.6994
  525TIP3   OH223209   6.043   1.564   8.484  0.2385  0.2267 -0.6643
  525TIP3    H123210   5.961   1.521   8.459 -0.3178 -0.8245  2.4907
  525TIP3    H223211   6.016   1.649   8.518 -0.3108 -1.5443  4.0916
  526TIP3   OH223212   1.130   4.682   8.643  0.1066  0.0604 -0.6927
  526TIP3    H123213   1.175   4.598   8.650  1.0979  0.5847 -0.4604
  526TIP3    H223214   1.169   4.735   8.713 -0.8312  0.5665 -0.5409
  527TIP3   OH223215   5.305   2.143   8.343 -0.1773  0.1808  0.2318
  527TIP3    H123216   5.251   2.222   8.343 -1.0107 -0.3638 -0.5337
  527TIP3    H223217   5.242   2.072   8.359  0.6065 -0.3017  1.2601
  528TIP3   OH223218   2.831   3.806   0.359 -0.2273 -0.3496  0.2817
  528TIP3    H123219   2.859   3.882   0.307 -2.1098  0.5119  0.4573
  528TIP3    H223220   2.836   3.733   0.298  0.5879  0.0935 -0.2074
  529TIP3   OH223221   3.923   6.537   2.724  0.7491 -0.0566 -0.3959
  529TIP3    H123222   3.881   6.573   2.645 -0.5851 -0.5853  0.0493
  529TIP3    H223223   3.851   6.521   2.784  1.3513 -2.6248 -0.2305
  530TIP3   OH223224   4.997   1.976   0.594 -0.4357  0.4160  0.3220
  530TIP3    H123225   4.983   2.047   0.531 -0.6692  0.6834  0.6673
  530TIP3    H223226   5.090   1.983   0.617 -0.3158  0.2265 -0.0983
  531TIP3   OH223227   4.049   3.093   0.476  0.0269 -0.2543 -0.0701
  531TIP3    H123228   4.116   3.081   0.543 -1.0824  1.5034  1.4474
  531TIP3    H223229   4.059   3.183   0.447 -0.8231 -0.3701 -0.7915
  532TIP3   OH223230   6.662   0.031   7.882 -0.3861 -0.5911 -0.0389
  532TIP3    H123231   6.743   0.075   7.906 -0.6732  0.0967 -0.3097
  532TIP3    H223232   6.686  -0.061   7.872 -0.0214 -0.7437  1.8079
  533TIP3   OH223233   4.792   0.322   0.200  0.2868  0.3875 -0.2661
  533TIP3    H123234   4.740   0.322   0.280  0.6333  0.6374 -0.0386
  533TIP3    H223235   4.854   0.394   0.211  0.7029  0.0788 -0.5218
  534TIP3   OH223236   1.610   5.142   0.162  0.2141  0.2186 -0.4849
  534TIP3    H123237   1.595   5.056   0.123  0.5337 -0.9234  1.7511
  534TIP3    H223238   1.529   5.160   0.211  0.1897  1.1686 -0.8533
  535TIP3   OH223239   1.787   1.446   2.707  0.1950 -0.1210  0.1834
  535TIP3    H123240   1.772   1.399   2.625 -1.8107 -0.6767  0.8064
  535TIP3    H223241   1.701   1.448   2.749  0.8469  1.5423  1.5491
  536TIP3   OH223242   1.188   5.530   0.864  0.0361  0.4512  0.3333
  536TIP3    H123243   1.209   5.489   0.780 -1.6908  2.1219 -1.0163
  536TIP3    H223244   1.267   5.518   0.917  0.7798 -1.6247 -1.1065
  537TIP3   OH223245   5.149   5.873   8.087 -0.2268 -0.6991 -0.4934
  537TIP3    H123246   5.151   5.869   7.991  2.2307 -1.9284 -0.4412
  537TIP3    H223247   5.203   5.949   8.109  0.3978 -1.2700 -0.0471
  538TIP3   OH223248   3.383   1.263   1.790 -0.1373  0.5502  0.1181
  538TIP3    H123249   3.426   1.189   1.748 -0.4142  0.7472 -0.5346
  538TIP3    H223250   3.289   1.248   1.774 -0.2706  0.5013  0.8889
  539TIP3   OH223251   4.266   6.409   1.127 -0.4767  0.0296 -0.1677
  539TIP3    H123252   4.301   6.322   1.144 -2.0091 -0.5866 -0.0398
  539TIP3    H223253   4.250   6.411   1.033 -2.1770 -0.5317  0.0812
  540TIP3   OH223254   4.163   3.782   2.450  0.7232  0.2548  0.2356
  540TIP3    H123255   4.133   3.782   2.541  2.5905  0.4959  0.9142
  540TIP3    H223256   4.208   3.698   2.440 -1.0271 -0.5679 -1.0635
  541TIP3   OH223257   4.994   2.229   8.639 -0.4060  0.4014 -0.0237
  541TIP3    H123258   4.982   2.140   8.672  0.2913 -1.0592 -3.2271
  541TIP3    H223259   4.906   2.263   8.625 -0.7513 -0.8712 -1.1717
  542TIP3   OH223260   4.743   0.656   8.355  0.5037  0.0437  0.0276
  542TIP3    H123261   4.750   0.712   8.433  3.1596  1.7630 -1.2818
  542TIP3    H223262   4.698   0.578   8.386 -0.2487  1.4373  2.8208
  543TIP3   OH223263   0.742   4.401   1.757  0.7046  0.2381 -0.4103
  543TIP3    H123264   0.783   4.441   1.834  0.2609 -0.9907  0.4986
  543TIP3    H223265   0.726   4.310   1.783 -3.0045  0.7205 -0.4764
  544TIP3   OH223266   3.005   2.817   1.060  0.5983  0.0004 -0.2837
  544TIP3    H123267   3.006   2.842   1.152 -2.6452  1.6338 -0.5542
  544TIP3    H223268   3.035   2.895   1.014  1.3115 -0.4941 -0.6729
  545TIP3   OH223269   5.113   4.556   2.168 -0.2834 -0.0849  0.2571
  545TIP3    H123270   5.095   4.478   2.115  0.1297 -0.0320  0.0389
  545TIP3    H223271   5.108   4.525   2.259 -5.5217  0.6600  0.5328
  546TIP3   OH223272   1.299   1.134   2.609  0.2041  0.2317  0.3602
  546TIP3    H123273   1.336   1.197   2.547  0.7276  0.3847  0.8243
  546TIP3    H223274   1.331   1.163   2.695 -0.3275 -0.1108  0.6809
  547TIP3   OH223275   3.256   5.973   1.818 -0.1411 -0.4769  0.0201
  547TIP3    H123276   3.334   5.919   1.830  0.7925  0.4103 -1.7354
  547TIP3    H223277   3.239   6.011   1.905  0.5412 -1.7490  0.7317
  548TIP3   OH223278   4.843   4.957   8.352  0.0484  0.1012  0.6158
  548TIP3    H123279   4.910   5.002   8.301 -0.3567  0.7960  0.6824
  548TIP3    H223280   4.828   5.014   8.427  1.3075 -1.3447  2.0519
  549TIP3   OH223281   2.836   5.805   3.254 -0.2316  0.8460  0.7784
  549TIP3    H123282   2.798   5.882   3.296 -1.8203  0.1449  0.7216
  549TIP3    H223283   2.899   5.771   3.317  0.7719  2.3537  0.6590
  550TIP3   OH223284   5.064   5.475   1.644 -0.3709 -0.1725 -0.3097
  550TIP3    H123285   5.132   5.541   1.629  0.6475 -0.7892  1.3170
  550TIP3    H223286   5.006   5.513   1.710  0.3294 -0.9233  0.7811
  551TIP3   OH223287   1.182   3.903   8.267  0.0818  0.3574 -0.3615
  551TIP3    H123288   1.262   3.951   8.244 -0.8484  2.7938  1.1614
  551TIP3    H223289   1.111   3.954   8.228 -0.8894 -0.5770  0.1194
  552TIP3   OH223290   3.760   5.551   1.381  0.5078 -0.0204 -0.7515
  552TIP3    H123291   3.812   5.594   1.313  3.1473 -0.9185  0.5662
  552TIP3    H223292   3.823   5.529   1.449 -2.0379  1.2087  2.2685
  553TIP3   OH223293   0.273   6.340   2.564 -0.0666 -0.2401  0.5678
  553TIP3    H123294   0.284   6.373   2.653  1.5072 -0.2229  0.4000
  553TIP3    H223295   0.212   6.267   2.572  0.7084 -0.7736  1.7966
  554TIP3   OH223296   0.796   3.115   7.393 -0.3635  0.1949  0.1761
  554TIP3    H123297   0.881   3.154   7.373  0.8675 -1.7985  1.2378
  554TIP3    H223298   0.776   3.061   7.316  0.3482 -0.9355  0.7639
  555TIP3   OH223299   4.890   0.060   8.236  0.2283 -0.7616 -0.2674
  555TIP3    H123300   4.822   0.113   8.194  0.8825  2.7784  2.6507
  555TIP3    H223301   4.972   0.102   8.211  1.1948 -2.9369 -1.0339
  556TIP3   OH223302   0.697   1.381   2.132  0.0165 -0.1565  0.2194
  556TIP3    H123303   0.643   1.306   2.106 -0.9855  0.5259  0.2506
  556TIP3    H223304   0.633   1.449   2.154  0.8969  0.4862  0.8480
  557TIP3   OH223305   3.468   2.487   1.173  0.1177 -0.3955  0.4285
  557TIP3    H123306   3.439   2.479   1.264 -1.2452 -0.7209 -0.0113
  557TIP3    H223307   3.461   2.580   1.154 -4.0044 -0.7071 -0.6357
  558TIP3   OH223308   3.914   2.500   7.200 -0.1788  0.0606  0.5115
  558TIP3    H123309   3.969   2.462   7.131  1.7674  0.1360  1.9441
  558TIP3    H223310   3.903   2.591   7.174  1.1756  0.2874  0.6276
  559TIP3   OH223311   5.315   0.446   2.564  1.0199  0.4105 -0.2215
  559TIP3    H123312   5.405   0.441   2.531  1.3735 -0.6246  0.8211
  559TIP3    H223313   5.267   0.385   2.508  1.6006 -1.2747  1.0323
  560TIP3   OH223314   1.560   5.395   0.646 -0.3297 -0.5172  0.3522
  560TIP3    H123315   1.560   5.490   0.631 -1.5849 -0.7068 -1.1447
  560TIP3    H223316   1.622   5.361   0.582  0.9406 -0.6588  1.6048
  561TIP3   OH223317   5.813   5.203   7.905 -0.5423  0.1976  0.4235
  561TIP3    H123318   5.848   5.287   7.933  0.4929  0.3145 -1.1305
  561TIP3    H223319   5.718   5.217   7.901 -0.3501  1.4474 -0.2836
  562TIP3   OH223320   4.566   5.353   1.386  0.2104 -0.7725 -0.0654
  562TIP3    H123321   4.577   5.375   1.479 -1.9480 -0.3290  0.1280
  562TIP3    H223322   4.504   5.280   1.386 -0.1202 -0.4987 -1.1731
  563TIP3   OH223323   0.088   6.755   1.345 -0.0741 -0.0798  0.3019
  563TIP3    H123324   0.017   6.699   1.380  0.2938 -0.3291  0.6610
  563TIP3    H223325   0.096   6.825   1.410 -0.7762  0.6039 -0.3266
  564TIP3   OH223326   0.663   1.006   2.517 -0.1347  0.0074  0.0224
  564TIP3    H123327   0.588   1.040   2.567  0.2307  1.9227 -0.6578
  564TIP3    H223328   0.623   0.959   2.444 -0.6598 -0.5022  0.6210
  565TIP3   OH223329   2.543   5.272   0.993 -0.2069  0.7043  0.1414
  565TIP3    H123330   2.559   5.365   0.983  1.3267  0.7644  2.5114
  565TIP3    H223331   2.456   5.266   1.032 -0.2551  1.1420  0.0980
  566TIP3   OH223332   6.205   3.558   2.526 -0.4230 -0.1875  0.6248
  566TIP3    H123333   6.246   3.503   2.593  0.6528  1.1527  1.1067
  566TIP3    H223334   6.153   3.497   2.474 -0.9983 -1.3358  2.4401
  567TIP3   OH223335   1.801   2.259   0.046 -0.4907 -0.0550  0.2222
  567TIP3    H123336   1.778   2.351   0.063 -1.5428 -0.6530  2.3696
  567TIP3    H223337   1.793   2.250  -0.049 -0.8970  1.9353  0.0171
  568TIP3   OH223338   2.997   3.783   2.695  0.0556  0.9470 -0.2283
  568TIP3    H123339   2.982   3.690   2.712 -0.3335  1.1753  0.7294
  568TIP3    H223340   3.002   3.823   2.782 -0.6919  1.9657 -0.6292
  569TIP3   OH223341   2.932   6.367   1.429  0.2346 -0.1355 -0.8090
  569TIP3    H123342   2.839   6.360   1.408 -0.0915  2.9612 -0.8529
  569TIP3    H223343   2.934   6.382   1.524  0.8558 -1.6222 -0.5482
  570TIP3   OH223344   5.891   6.531   0.904  0.1956  0.1173  0.2590
  570TIP3    H123345   5.807   6.516   0.946  0.9544 -2.9155  0.9451
  570TIP3    H223346   5.955   6.525   0.975  1.1403  0.1295 -0.5636
  571TIP3   OH223347   3.267   0.866   2.532 -0.6899  0.1159 -0.5048
  571TIP3    H123348   3.205   0.832   2.595  0.5221 -1.8387 -0.2829
  571TIP3    H223349   3.289   0.953   2.564 -0.8533 -0.4494  1.2183
  572TIP3   OH223350   6.140   6.071   2.271  0.0734  0.5685 -0.3271
  572TIP3    H123351   6.187   6.131   2.214  1.4567 -0.8301 -0.7193
  572TIP3    H223352   6.181   6.081   2.357 -1.7206  2.3537  0.3988
  573TIP3   OH223353   3.819   2.679   0.537  0.3738  0.3081  0.1094
  573TIP3    H123354   3.758   2.741   0.496 -0.0605 -0.9267 -1.1974
  573TIP3    H223355   3.873   2.733   0.594 -0.6068  1.7452 -0.2574
  574TIP3   OH223356   0.600   2.078   1.015  0.6285  0.1778  0.7351
  574TIP3    H123357   0.579   2.007   1.075  3.1782  0.8862  2.6353
  574TIP3    H223358   0.655   2.037   0.948 -0.4653 -0.1833  0.0197
  575TIP3   OH223359   0.942   0.921   1.361  0.0372  0.0275 -0.0494
  575TIP3    H123360   0.901   0.917   1.274 -3.0048 -0.7232  1.3033
  575TIP3    H223361   0.893   0.988   1.408 -0.3898 -1.6600  2.0299
  576TIP3   OH223362   6.054   0.942   7.512 -0.2365 -0.4813  0.1895
  576TIP3    H123363   6.126   0.895   7.470 -1.0566 -0.8105 -0.9106
  576TIP3    H223364   6.058   0.916   7.604  1.2497 -0.2061  0.2129
  577TIP3   OH223365   2.440   2.783   2.689  0.3625  0.0418 -0.0651
  577TIP3    H123366   2.470   2.721   2.755 -1.5302 -2.6168 -1.5088
  577TIP3    H223367   2.457   2.739   2.605  2.3324  3.1257 -1.4468
  578TIP3   OH223368   3.203   5.767   8.405  0.2488  0.2977  0.1565
  578TIP3    H123369   3.239   5.854   8.420  0.7493  0.1865 -0.3663
  578TIP3    H223370   3.109   5.782   8.390  0.6402  1.0108 -1.9615
  579TIP3   OH223371   3.576   5.607   7.982 -0.6774  0.3763 -0.0232
  579TIP3    H123372   3.638   5.670   7.946 -0.7984  0.9374  0.7453
  579TIP3    H223373   3.493   5.654   7.987 -1.0051 -0.1524 -0.3745
  580TIP3   OH223374   5.662   5.114   0.149 -0.0199  0.3777 -0.3867
  580TIP3    H123375   5.576   5.138   0.182  0.5816  0.9036  0.8761
  580TIP3    H223376   5.715   5.193   0.161  0.7984 -0.1370 -0.5428
  581TIP3   OH223377   2.976   5.944   2.350  0.4991  0.2120  0.7366
  581TIP3    H123378   2.931   6.008   2.294 -0.2341  1.1347  2.2966
  581TIP3    H223379   3.054   5.990   2.381  1.5460 -0.7138 -0.4210
  582TIP3   OH223380   0.971   5.033   7.379  0.6046  0.4521  0.7151
  582TIP3    H123381   1.060   5.000   7.392  0.2581 -2.1003 -2.2461
  582TIP3    H223382   0.968   5.059   7.287 -2.1354 -1.2815  0.1869
  583TIP3   OH223383   5.675   1.435   1.445 -0.3213  0.2199 -0.4122
  583TIP3    H123384   5.746   1.445   1.381  0.0013 -2.9155 -0.6689
  583TIP3    H223385   5.600   1.409   1.393 -0.3431 -1.2758  0.3314
  584TIP3   OH223386   5.139   5.919   1.653  0.2293 -0.1854  0.3071
  584TIP3    H123387   5.193   5.928   1.732 -0.2313  2.8379  0.3852
  584TIP3    H223388   5.053   5.953   1.679  0.3118  1.7718 -1.6733
  585TIP3   OH223389   1.710   3.099   8.277 -0.0718  0.0623  0.1827
  585TIP3    H123390   1.696   3.091   8.182 -0.0919  1.4069  0.0476
  585TIP3    H223391   1.623   3.120   8.311  0.0454  0.1813  0.4089
  586TIP3   OH223392   5.773   3.681   8.545  0.9718 -0.6437 -0.7118
  586TIP3    H123393   5.688   3.675   8.500  0.5385 -3.5604  0.3071
  586TIP3    H223394   5.750   3.713   8.633  1.1543  0.0047 -0.8929
  587TIP3   OH223395   4.810   4.714   7.325  0.2385  0.8109  0.0775
  587TIP3    H123396   4.742   4.658   7.288  0.9241 -1.3518  1.8551
  587TIP3    H223397   4.884   4.703   7.265  0.9875 -1.8136  1.3120
  588TIP3   OH223398   3.605   6.027   3.379  0.6296 -0.3140 -0.1565
  588TIP3    H123399   3.697   6.054   3.372  0.4471 -0.0324 -1.6597
  588TIP3    H223400   3.560   6.074   3.309 -0.6002 -0.7397  0.3229
  589TIP3   OH223401   6.883   2.869   8.654 -0.8782  0.4071  0.0747
  589TIP3    H123402   6.870   2.784   8.696 -1.5606  0.2126 -0.5068
  589TIP3    H223403   6.948   2.853   8.586  0.7003  0.8556  1.4095
  590TIP3   OH223404   0.643   5.760   2.994  0.3850 -0.4424 -0.1492
  590TIP3    H123405   0.644   5.688   2.930  1.2076 -0.7388  0.1870
  590TIP3    H223406   0.600   5.723   3.071 -0.3279 -0.1780 -0.4060
  591TIP3   OH223407   2.898   6.282   0.445  0.0675 -0.6382  0.2085
  591TIP3    H123408   2.810   6.296   0.410 -0.1797 -0.4797  0.8894
  591TIP3    H223409   2.893   6.197   0.488  0.6987 -1.3974 -1.1469
  592TIP3   OH223410   0.046   4.651   3.015 -0.2595  0.4569  0.0583
  592TIP3    H123411   0.096   4.725   3.050  1.3901 -0.9295  0.8182
  592TIP3    H223412   0.008   4.610   3.093 -2.0130  1.0310 -0.4481
  593TIP3   OH223413   5.567   2.311   7.940 -0.0889  0.3076  0.5764
  593TIP3    H123414   5.498   2.247   7.921  0.8413 -0.8550  1.0261
  593TIP3    H223415   5.561   2.374   7.867 -1.6753  0.3011  0.6667
  594TIP3   OH223416   1.064   1.034   0.395 -0.2944  0.1001 -0.0146
  594TIP3    H123417   1.071   1.112   0.340 -2.9221  0.4091  0.0024
  594TIP3    H223418   1.041   0.964   0.333 -0.8246 -0.0545  0.3529
  595TIP3   OH223419   6.138   4.570   0.605  0.1304  0.3111 -0.4850
  595TIP3    H123420   6.058   4.535   0.646 -0.0021 -0.5183 -1.3918
  595TIP3    H223421   6.181   4.619   0.674  0.5584 -2.0750  1.0487
  596TIP3   OH223422   0.703   5.802   2.305  0.3404  0.4556 -0.0555
  596TIP3    H123423   0.638   5.765   2.246  1.1932 -0.5075 -0.4246
  596TIP3    H223424   0.786   5.763   2.278  1.0990  1.7096  0.3576
  597TIP3   OH223425   5.582   5.738   0.948  0.3325 -0.3860 -0.2221
  597TIP3    H123426   5.598   5.795   1.024  0.9744 -0.1418 -0.5357
  597TIP3    H223427   5.571   5.798   0.875 -0.2217 -0.6252 -0.3395
  598TIP3   OH223428   1.450   6.781   7.128  0.9834  0.0146 -0.6070
  598TIP3    H123429   1.359   6.800   7.102  1.2359  1.7890 -0.3194
  598TIP3    H223430   1.443   6.750   7.218  0.7274  1.1928 -0.2037
  599TIP3   OH223431   5.911   0.676   2.729 -0.3062  0.0956 -0.1199
  599TIP3    H123432   5.863   0.752   2.698  0.3587 -0.7950 -3.8107
  599TIP3    H223433   6.000   0.708   2.743 -0.0079  0.0337 -1.7442
  600TIP3   OH223434   6.615   5.509   1.707 -0.1832 -0.0046  0.3797
  600TIP3    H123435   6.654   5.448   1.770 -0.0211  0.0261  0.3084
  600TIP3    H223436   6.632   5.470   1.621 -0.2663  0.0342  0.3455
  601TIP3   OH223437   3.264   1.592   3.109  0.5365 -0.2139 -0.0562
  601TIP3    H123438   3.245   1.505   3.144 -0.2261  0.2123  0.6086
  601TIP3    H223439   3.322   1.632   3.174  1.1188 -0.3177 -0.5008
  602TIP3   OH223440   1.017   2.164   2.713 -0.4084 -0.5912 -0.8582
  602TIP3    H123441   0.961   2.168   2.636  1.6973 -3.7522 -2.7378
  602TIP3    H223442   0.960   2.130   2.782 -1.7453  0.1304 -1.5489
  603TIP3   OH223443   6.043   0.414   0.430  0.3652  0.2086 -0.1038
  603TIP3    H123444   6.080   0.339   0.477  0.8355 -0.1697 -1.0506
  603TIP3    H223445   6.119   0.465   0.402  0.0438  1.1019  0.6183
  604TIP3   OH223446   4.240   2.182   0.131 -0.4850 -0.4585  0.1419
  604TIP3    H123447   4.224   2.135   0.048  0.5521  0.4268 -0.5818
  604TIP3    H223448   4.163   2.238   0.141 -0.7185 -0.7268 -0.1166
  605TIP3   OH223449   3.003   6.582   1.852 -0.6530 -0.5552  0.3451
  605TIP3    H123450   3.028   6.665   1.894 -0.9619  0.6616 -1.7389
  605TIP3    H223451   2.908   6.588   1.842 -0.3897  0.3631 -2.6447
  606TIP3   OH223452   2.560   3.315   0.476  0.1239  0.1726  0.1956
  606TIP3    H123453   2.614   3.377   0.524 -1.5996  0.5414  1.7374
  606TIP3    H223454   2.533   3.363   0.397  1.2353  0.2905 -0.1400
  607TIP3   OH223455   3.008   0.590   2.064  0.5931  0.1358 -0.2572
  607TIP3    H123456   2.932   0.547   2.104  1.0383 -0.6659 -0.2508
  607TIP3    H223457   3.010   0.557   1.974  1.0438 -0.0053 -0.2003
  608TIP3   OH223458   4.456   1.609   0.667 -0.1268  0.2730  0.2357
  608TIP3    H123459   4.440   1.523   0.627 -0.5043  0.5480 -0.2240
  608TIP3    H223460   4.490   1.662   0.595 -0.1327  0.5751  0.4571
  609TIP3   OH223461   1.527   4.077   1.380 -0.3426  0.6129 -0.6653
  609TIP3    H123462   1.586   4.109   1.312 -0.7489  1.1695 -0.7606
  609TIP3    H223463   1.548   4.131   1.457 -0.0097  0.1101 -0.3994
  610TIP3   OH223464   4.355   2.048   1.076 -0.1440  0.4408  0.2028
  610TIP3    H123465   4.345   2.142   1.059  0.5157  0.5167  0.1910
  610TIP3    H223466   4.410   2.017   1.003 -0.3908  0.0405  0.1883
  611TIP3   OH223467   2.655   5.519   0.949  0.2630  0.7611  0.5597
  611TIP3    H123468   2.736   5.568   0.964  1.6939 -1.1316 -0.5186
  611TIP3    H223469   2.588   5.587   0.940  1.7713  2.4194  1.1043
  612TIP3   OH223470   4.978   3.113   0.859  0.3209  0.4785  0.2140
  612TIP3    H123471   4.925   3.062   0.798  1.2186 -1.0335  0.6218
  612TIP3    H223472   4.928   3.192   0.876 -0.2252  0.6507 -2.0047
  613TIP3   OH223473   4.138   1.121   0.089 -0.1773 -0.3133 -0.8622
  613TIP3    H123474   4.057   1.146   0.131 -0.2526 -2.4743  0.4288
  613TIP3    H223475   4.113   1.052   0.028  0.4385  0.3817 -1.9402
  614TIP3   OH223476   0.264   6.119   3.360  0.1822  0.0028 -0.0426
  614TIP3    H123477   0.317   6.190   3.397  0.4457  0.8923 -2.0097
  614TIP3    H223478   0.218   6.159   3.287 -3.2870 -0.7193  1.5241
  615TIP3   OH223479   1.210   4.452   1.723 -0.4849  0.1813  0.1484
  615TIP3    H123480   1.156   4.398   1.665  2.2017 -1.2149 -1.2325
  615TIP3    H223481   1.287   4.475   1.670  0.5025  1.7314  2.1120
  616TIP3   OH223482   0.297   1.883   1.782  0.1681  0.4319 -0.3651
  616TIP3    H123483   0.209   1.883   1.820 -0.1166 -0.2687 -1.0166
  616TIP3    H223484   0.297   1.810   1.721  1.1868  0.4689 -0.4208
  617TIP3   OH223485   0.410   5.166   0.718  0.1970 -0.2797  0.1881
  617TIP3    H123486   0.434   5.225   0.789 -0.2678 -1.5901  1.4773
  617TIP3    H223487   0.483   5.171   0.657  0.6802  0.7479  0.8257
  618TIP3   OH223488   0.454   0.232   1.359  0.4633  0.1512 -0.0855
  618TIP3    H123489   0.363   0.225   1.329  0.6880  1.6096 -1.2114
  618TIP3    H223490   0.470   0.326   1.367  0.8878 -0.0922  3.3426
  619TIP3   OH223491   6.410   6.441   2.617  0.5226 -0.8842 -0.3905
  619TIP3    H123492   6.419   6.362   2.671  1.3421 -0.4159  0.1674
  619TIP3    H223493   6.477   6.431   2.550  1.1852 -0.2734  0.1728
  620TIP3   OH223494   0.359   6.075   1.540 -0.1423 -0.1081  0.6218
  620TIP3    H123495   0.359   6.154   1.593 -0.6188  0.1835  0.1997
  620TIP3    H223496   0.347   6.004   1.603 -0.1900  0.1959  0.9579
  621TIP3   OH223497   0.722   3.521   2.803  0.8599 -0.2305 -0.4385
  621TIP3    H123498   0.664   3.575   2.751  0.7267  0.6629  0.6014
  621TIP3    H223499   0.808   3.563   2.796  0.3162  1.5417  2.2065
  622TIP3   OH223500   1.491   1.970   0.377 -0.3690  0.8000  0.2842
  622TIP3    H123501   1.418   2.031   0.369  0.7477  2.7672  3.2933
  622TIP3    H223502   1.561   2.008   0.323 -1.1962 -0.6613 -1.9504
  623TIP3   OH223503   1.711   6.570   0.080 -0.1525  0.2195 -0.3481
  623TIP3    H123504   1.631   6.615   0.053  0.4366  1.1159 -0.6490
  623TIP3    H223505   1.770   6.640   0.110  0.3851 -0.4549  0.2407
  624TIP3   OH223506   6.340   2.511   2.681 -0.4349 -0.3705  0.0040
  624TIP3    H123507   6.433   2.518   2.658  0.2886 -0.4673  2.6452
  624TIP3    H223508   6.315   2.598   2.711 -0.6392 -0.8212  1.1824
  625TIP3   OH223509   3.034   1.302   0.857 -0.0547 -0.0970 -0.4149
  625TIP3    H123510   2.975   1.377   0.848  0.3454  0.1580 -0.9421
  625TIP3    H223511   2.976   1.226   0.854 -0.6419  0.2036  1.5839
  626TIP3   OH223512   4.411   6.314   3.129  0.6572 -0.2030 -0.7436
  626TIP3    H123513   4.460   6.395   3.119  1.2207 -0.6482 -1.6519
  626TIP3    H223514   4.321   6.342   3.145  0.8274  0.5995 -1.1587
  627TIP3   OH223515   4.160   6.286   0.656 -0.2988 -0.3182 -0.7989
  627TIP3    H123516   4.219   6.347   0.611  0.4179  0.5733  1.1984
  627TIP3    H223517   4.102   6.343   0.708 -0.9978 -1.2860 -0.4804
  628TIP3   OH223518   0.559   0.394   1.080 -0.3340 -0.2324 -0.3262
  628TIP3    H123519   0.576   0.486   1.101  0.5327 -0.3386 -0.5118
  628TIP3    H223520   0.631   0.346   1.122 -0.7994 -0.8312 -0.2002
  629TIP3   OH223521   2.541   5.487   3.177 -0.2798 -0.4219  0.7359
  629TIP3    H123522   2.551   5.402   3.133  0.0782 -0.0412  0.0659
  629TIP3    H223523   2.449   5.510   3.163 -0.1255 -0.2158  0.0058
  630TIP3   OH223524   1.920   5.319   2.038  0.6084  0.6963 -0.4783
  630TIP3    H123525   1.926   5.229   2.003 -1.4618  0.4916 -0.3968
  630TIP3    H223526   1.918   5.308   2.133 -1.1275  0.6666 -0.4828
  631TIP3   OH223527   1.312   4.171   8.272  0.0986  0.4237  0.3197
  631TIP3    H123528   1.374   4.207   8.335  0.7566  0.7460 -0.4859
  631TIP3    H223529   1.289   4.245   8.216  0.2054 -0.0420 -0.3520
  632TIP3   OH223530   6.218   0.690   0.021  0.6387  0.0431 -0.0369
  632TIP3    H123531   6.185   0.615  -0.028 -0.4101  1.2675 -1.2761
  632TIP3    H223532   6.313   0.684   0.013  0.5312 -0.5063 -1.1095
  633TIP3   OH223533   0.491   5.857   7.676  0.0413 -1.1797  0.0223
  633TIP3    H123534   0.556   5.882   7.610 -1.5310  1.5983 -0.6111
  633TIP3    H223535   0.502   5.762   7.686  1.2559 -1.4840 -3.2114
  634TIP3   OH223536   2.280   4.303   7.490 -0.0810 -0.0089 -0.2488
  634TIP3    H123537   2.297   4.394   7.468  2.3250 -0.3234  0.0728
  634TIP3    H223538   2.191   4.304   7.526  0.4745  2.5146  1.3314
  635TIP3   OH223539   1.576   4.567   1.942  0.0380 -0.1979  0.0803
  635TIP3    H123540   1.484   4.590   1.953  0.3273  1.1359 -0.1780
  635TIP3    H223541   1.624   4.647   1.962  0.9156  0.5988 -4.2112
  636TIP3   OH223542   4.857   3.406   8.684 -0.4815  0.4411 -0.2178
  636TIP3    H123543   4.825   3.468   8.619  0.9514  0.6929 -0.6972
  636TIP3    H223544   4.842   3.450   8.768  1.6352  2.0286 -0.5943
  637TIP3   OH223545   2.993   4.753   1.761  0.4898  0.1354 -0.0660
  637TIP3    H123546   3.020   4.781   1.674 -1.5259  0.7622 -0.5412
  637TIP3    H223547   3.055   4.683   1.784  1.4786  0.4234 -1.6843
  638TIP3   OH223548   4.979   5.438   0.728 -0.1509  0.1700  0.1174
  638TIP3    H123549   4.894   5.412   0.693 -0.8894  0.7118  1.4517
  638TIP3    H223550   5.013   5.359   0.771 -1.2008  0.6316  1.8752
  639TIP3   OH223551   0.221   6.654   2.545  0.1081  0.6183  0.6334
  639TIP3    H123552   0.142   6.642   2.492  0.4330 -0.3903  0.3591
  639TIP3    H223553   0.212   6.742   2.582 -2.0208 -0.1128  2.0591
  640TIP3   OH223554   4.480   3.913   8.199  0.3457  0.1851  0.1956
  640TIP3    H123555   4.406   3.936   8.255  0.4798  4.7004 -1.1226
  640TIP3    H223556   4.447   3.922   8.110  1.5566 -1.6324 -0.5089
  641TIP3   OH223557   5.538   1.464   1.891 -0.9860  0.0889 -0.1984
  641TIP3    H123558   5.597   1.505   1.955 -0.4526 -0.7240 -0.1621
  641TIP3    H223559   5.558   1.371   1.896 -0.7940  0.0365 -1.7167
  642TIP3   OH223560   6.661   3.269   2.577  0.4368  0.1580  0.0210
  642TIP3    H123561   6.736   3.266   2.636  1.5558 -2.1645 -1.3829
  642TIP3    H223562   6.666   3.188   2.527 -3.3313 -0.3528  0.1755
  643TIP3   OH223563   5.612   1.988   3.311 -0.7081  0.2177  0.1822
  643TIP3    H123564   5.690   2.036   3.338  0.6887 -2.2535  0.9247
  643TIP3    H223565   5.630   1.961   3.221 -0.0486 -1.4105  0.7518
  644TIP3   OH223566   0.909   0.476   7.770 -0.2443 -0.6880 -0.0113
  644TIP3    H123567   0.944   0.547   7.824  2.7714 -1.8805 -0.2224
  644TIP3    H223568   0.933   0.500   7.680  0.6544 -1.8412 -0.1024
  645TIP3   OH223569   2.861   3.612   1.693  0.0800  0.2025 -0.0880
  645TIP3    H123570   2.876   3.693   1.742  0.8977  0.5414 -0.8630
  645TIP3    H223571   2.943   3.598   1.645 -0.7898  0.0540 -1.5805
  646TIP3   OH223572   2.099   4.666   0.241 -0.2201 -0.2400  0.2005
  646TIP3    H123573   2.162   4.725   0.281  1.5790 -1.8745 -0.0576
  646TIP3    H223574   2.068   4.611   0.312  0.5680 -1.0662 -0.0784
  647TIP3   OH223575   1.015   4.966   8.608  0.4660  0.3964  0.2049
  647TIP3    H123576   0.977   5.002   8.688 -1.9111 -0.5018 -0.4242
  647TIP3    H223577   1.074   4.897   8.639  1.3078  1.5217  1.2167
  648TIP3   OH223578   1.351   4.122   0.544 -0.5921  0.0759 -0.0228
  648TIP3    H123579   1.444   4.141   0.532 -0.4606 -0.0574  0.7106
  648TIP3    H223580   1.345   4.027   0.540 -0.6731  0.0762  0.0953
  649TIP3   OH223581   6.669   5.462   7.273  0.0063 -0.6116 -0.4624
  649TIP3    H123582   6.641   5.518   7.201 -0.1078 -0.4712 -0.3117
  649TIP3    H223583   6.679   5.522   7.347  0.5976 -0.6749 -0.4840
  650TIP3   OH223584   5.220   6.851   0.748 -0.0418 -0.0824 -0.1880
  650TIP3    H123585   5.244   6.884   0.835  0.1885 -0.1096 -0.2416
  650TIP3    H223586   5.174   6.769   0.766 -1.2828  0.6187 -0.0103
  651TIP3   OH223587   6.697   0.501   0.279 -0.0614  0.3300 -0.3149
  651TIP3    H123588   6.776   0.480   0.328  0.0871 -2.1104 -1.4292
  651TIP3    H223589   6.727   0.513   0.189 -0.7403  1.2825 -0.4301
  652TIP3   OH223590   5.846   5.474   0.465 -1.1915  0.0095  0.0092
  652TIP3    H123591   5.760   5.511   0.445 -0.6925  0.9267 -0.5147
  652TIP3    H223592   5.841   5.448   0.557 -1.4762  1.6869  0.5047
  653TIP3   OH223593   5.075   6.825   1.633  0.0955  0.0461  0.4874
  653TIP3    H123594   5.110   6.854   1.548  0.1007 -0.4844  0.3049
  653TIP3    H223595   5.152   6.816   1.689  0.2748 -1.1519  0.0763
  654TIP3   OH223596   1.916   6.689   7.556 -0.0227  0.1323 -0.4939
  654TIP3    H123597   1.821   6.681   7.557 -0.1298  1.2573  0.0864
  654TIP3    H223598   1.942   6.656   7.470 -0.9312 -0.2302 -0.6432
  655TIP3   OH223599   2.122   0.052   8.043 -0.6509  0.4204 -0.2377
  655TIP3    H123600   2.190  -0.001   8.003 -0.7697 -0.0151  0.1340
  655TIP3    H223601   2.040   0.013   8.014 -0.7381 -0.0284  0.5883
  656TIP3   OH223602   2.748   3.783   2.213 -0.7145 -0.2168  0.2975
  656TIP3    H123603   2.776   3.810   2.300  0.1574 -2.4164  0.7668
  656TIP3    H223604   2.782   3.850   2.154  1.1605 -0.1385  1.3901
  657TIP3   OH223605   1.265   6.821   8.621 -0.0959  0.1645  0.2254
  657TIP3    H123606   1.352   6.787   8.638 -0.6886 -1.2593  0.5676
  657TIP3    H223607   1.235   6.773   8.543 -0.1663  1.4219 -0.5402
  658TIP3   OH223608   4.275   5.485   0.057  0.2741 -0.2453  0.4019
  658TIP3    H123609   4.320   5.532  -0.014  1.1965 -0.5895  0.7430
  658TIP3    H223610   4.345   5.439   0.103 -0.2751  0.1945  1.7180
  659TIP3   OH223611   0.296   3.616   8.187  0.1154 -0.4381  0.1961
  659TIP3    H123612   0.285   3.543   8.248  0.6365 -0.0795  0.7269
  659TIP3    H223613   0.298   3.574   8.100 -1.1832 -0.8918  0.3729
  660TIP3   OH223614   2.338   3.033   2.732  0.2326  0.1590 -0.1032
  660TIP3    H123615   2.367   2.947   2.705 -0.7794 -0.2937  0.1952
  660TIP3    H223616   2.374   3.044   2.820 -0.5732 -0.4546  0.3201
  661TIP3   OH223617   0.412   1.538   2.827 -0.6501  0.0312  0.3300
  661TIP3    H123618   0.435   1.631   2.823  0.5468 -0.2766 -0.6309
  661TIP3    H223619   0.325   1.537   2.866  0.6456  1.3347  3.6368
  662TIP3   OH223620   3.053   1.989   7.678  0.3177  0.2703  0.1485
  662TIP3    H123621   3.057   2.075   7.718  0.8860  0.0876  0.4889
  662TIP3    H223622   3.057   2.007   7.584  3.5692  0.5213  0.1942
  663TIP3   OH223623   5.785   6.301   7.825 -0.1781 -0.1509  0.3507
  663TIP3    H123624   5.788   6.247   7.746  0.7181  0.1643  0.1667
  663TIP3    H223625   5.736   6.248   7.888 -0.0019 -0.8352 -0.0815
  664TIP3   OH223626   1.442   5.787   7.969 -0.3645 -0.1343  0.4403
  664TIP3    H123627   1.397   5.704   7.983 -0.7747  0.3237  2.0463
  664TIP3    H223628   1.390   5.833   7.903 -0.9862 -0.5207  0.6577
  665TIP3   OH223629   2.164   2.251   0.897 -0.1249  0.7749  0.3083
  665TIP3    H123630   2.190   2.319   0.959 -1.2721  0.6151  0.9900
  665TIP3    H223631   2.216   2.175   0.921 -0.1063  0.8998  0.6682
  666TIP3   OH223632   5.501   2.678   8.406 -0.2217  0.8479 -0.3864
  666TIP3    H123633   5.456   2.690   8.322 -1.5153  0.4752  0.2295
  666TIP3    H223634   5.433   2.644   8.465  1.5402 -2.9725 -0.2508
  667TIP3   OH223635   1.690   5.517   7.795 -0.5794  0.6286  0.8560
  667TIP3    H123636   1.708   5.608   7.820  1.5951 -0.0128  1.9019
  667TIP3    H223637   1.776   5.482   7.772 -1.0842 -1.6137  2.1033
  668TIP3   OH223638   3.068   6.844   1.941 -0.1991 -0.3609  0.3136
  668TIP3    H123639   3.159   6.859   1.914  0.0458 -1.0142  0.7260
  668TIP3    H223640   3.070   6.854   2.037 -0.6712  0.1303  0.2766
  669TIP3   OH223641   5.798   4.139   7.723  0.6107  0.5266 -1.3269
  669TIP3    H123642   5.754   4.202   7.665  0.3625  1.4849 -0.1241
  669TIP3    H223643   5.781   4.171   7.811  1.1465 -0.8108 -0.7124
  670TIP3   OH223644   4.862   2.441   8.485 -0.2554 -0.1039 -0.2149
  670TIP3    H123645   4.887   2.510   8.547  1.2345 -0.5050 -0.3176
  670TIP3    H223646   4.803   2.484   8.423 -0.8454  0.5959  0.7905
  671TIP3   OH223647   5.201   0.777   8.241  0.5224 -0.4380  0.4503
  671TIP3    H123648   5.212   0.781   8.146  1.1675 -1.0967  0.4851
  671TIP3    H223649   5.228   0.863   8.272 -2.1361  0.7207 -0.1486
  672TIP3   OH223650   2.684   2.868   8.564  0.0632 -0.1173  0.4283
  672TIP3    H123651   2.645   2.906   8.486  0.0744 -0.2969  0.3355
  672TIP3    H223652   2.744   2.801   8.532  0.9562  0.6009  0.5370
  673TIP3   OH223653   2.720   0.319   0.170  0.1149 -0.2005 -0.4212
  673TIP3    H123654   2.761   0.341   0.087  0.2949  1.1983  0.0048
  673TIP3    H223655   2.658   0.249   0.149 -0.2396  0.4936 -1.8454
  674TIP3   OH223656   6.064   4.330   1.770  0.5748  0.2675 -0.1816
  674TIP3    H123657   6.106   4.253   1.734 -0.1395 -0.2367  0.0467
  674TIP3    H223658   6.004   4.360   1.701  0.5603  0.3829 -0.1193
  675TIP3   OH223659   2.601   3.534   8.396  0.6072 -0.4516 -0.3671
  675TIP3    H123660   2.571   3.444   8.380  0.7194 -0.2591 -1.7256
  675TIP3    H223661   2.626   3.567   8.310  0.0152  1.0901  0.0148
  676TIP3   OH223662   1.317   0.652   2.211 -0.5698  0.3755  0.6250
  676TIP3    H123663   1.280   0.565   2.222 -1.2065  0.4797 -0.5810
  676TIP3    H223664   1.394   0.653   2.268 -0.4710 -1.0230  0.5321
  677TIP3   OH223665   4.422   5.472   1.167  0.2424  0.0928  0.6528
  677TIP3    H123666   4.485   5.517   1.224  0.3453 -0.1868  0.7605
  677TIP3    H223667   4.438   5.379   1.182  1.4542 -0.0240 -1.1009
  678TIP3   OH223668   5.498   6.226   2.701  0.3321  0.4626  0.1009
  678TIP3    H123669   5.573   6.211   2.758  0.6224 -0.2101 -0.4399
  678TIP3    H223670   5.458   6.139   2.691  0.0373  0.6496 -0.3714
  679TIP3   OH223671   2.567   4.424   0.125  0.5022  0.1691  0.6330
  679TIP3    H123672   2.622   4.468   0.061  1.7045 -1.0513  0.7766
  679TIP3    H223673   2.560   4.485   0.198 -2.0553  2.1918 -1.1229
  680TIP3   OH223674   4.045   5.240   2.153 -0.5171 -0.2163  0.1279
  680TIP3    H123675   4.103   5.311   2.181 -0.6640 -0.0522  0.0199
  680TIP3    H223676   4.105   5.168   2.130 -0.2547  0.4304 -1.3625
  681TIP3   OH223677   0.763   5.876   0.539  0.3155 -0.4529  0.1670
  681TIP3    H123678   0.696   5.813   0.511 -0.0342  0.3325 -0.8311
  681TIP3    H223679   0.752   5.883   0.633 -1.5984  0.3048 -0.0820
  682TIP3   OH223680   1.497   4.521   0.380 -0.5627 -0.5048 -0.5888
  682TIP3    H123681   1.585   4.486   0.369 -0.6775 -1.9415  2.2421
  682TIP3    H223682   1.457   4.513   0.293  1.3514 -1.9872 -1.4051
  683TIP3   OH223683   4.874   2.604   1.357 -0.3352  0.1685 -0.3093
  683TIP3    H123684   4.842   2.691   1.380 -0.1203  0.3807 -0.8273
  683TIP3    H223685   4.895   2.564   1.442  0.9565  1.1365 -0.1386
  684TIP3   OH223686   6.404   0.594   8.065 -0.1838 -0.1243 -0.3758
  684TIP3    H123687   6.389   0.500   8.052  0.7839 -0.4082  0.4457
  684TIP3    H223688   6.436   0.626   7.980  1.8289 -1.0457 -0.0177
  685TIP3   OH223689   6.426   2.885   1.241  0.2309  0.1004 -0.0927
  685TIP3    H123690   6.360   2.819   1.221  1.0979 -0.2209 -2.1020
  685TIP3    H223691   6.423   2.945   1.167 -0.1739  2.0855  1.4384
  686TIP3   OH223692   2.324   3.388   0.746  0.6506 -0.4687  0.5596
  686TIP3    H123693   2.416   3.364   0.737  0.7931  0.5179 -0.8893
  686TIP3    H223694   2.323   3.483   0.746 -0.4305 -0.4489 -0.4822
  687TIP3   OH223695   2.642   0.375   3.046  0.1573 -0.0721 -0.4991
  687TIP3    H123696   2.599   0.393   3.130 -0.8954 -1.9165 -0.5775
  687TIP3    H223697   2.635   0.456   2.997 -0.2520  0.6882  0.7647
  688TIP3   OH223698   5.663   1.996   8.566  0.7252  0.0826 -0.0756
  688TIP3    H123699   5.586   1.944   8.588  0.4548 -0.0235 -1.1866
  688TIP3    H223700   5.707   2.012   8.649 -0.1300 -0.4392  0.4860
  689TIP3   OH223701   1.065   4.239   0.010  0.6009  0.4599  0.0652
  689TIP3    H123702   1.055   4.146  -0.008 -0.6854  0.7951 -1.0690
  689TIP3    H223703   1.100   4.276  -0.071 -0.4838  1.2157 -0.0760
  690TIP3   OH223704   4.319   4.490   0.706  0.1329 -0.2100  0.7224
  690TIP3    H123705   4.349   4.452   0.624 -1.1096  0.8469 -0.2778
  690TIP3    H223706   4.315   4.584   0.688 -1.5826 -0.0996  1.4960
  691TIP3   OH223707   2.431   6.687   0.246 -0.0922 -0.7037  0.0023
  691TIP3    H123708   2.448   6.710   0.155 -0.3491 -1.8175 -0.3405
  691TIP3    H223709   2.518   6.686   0.287  0.0674 -0.6462 -0.3302
  692TIP3   OH223710   3.524   4.123   8.449 -0.5218  0.4955  0.4974
  692TIP3    H123711   3.575   4.124   8.368 -1.5369 -1.6323 -0.2387
  692TIP3    H223712   3.563   4.053   8.501  0.4178  2.1391  2.1105
  693TIP3   OH223713   5.796   5.642   1.690  0.0450  0.1623  0.0103
  693TIP3    H123714   5.786   5.611   1.600  0.7938 -0.1805  0.0318
  693TIP3    H223715   5.814   5.735   1.682  0.6590  0.0298 -0.2370
  694TIP3   OH223716   6.506   6.313   7.569 -0.2398 -0.8136  0.7199
  694TIP3    H123717   6.421   6.270   7.567  0.2065 -1.7633 -1.8382
  694TIP3    H223718   6.569   6.243   7.553  0.7294  0.3113 -0.7258
  695TIP3   OH223719   4.486   3.213   0.673  0.3081  0.0133 -0.0441
  695TIP3    H123720   4.423   3.284   0.684  0.8729  0.6598 -0.8529
  695TIP3    H223721   4.489   3.199   0.578  1.8649  0.4443 -0.0758
  696TIP3   OH223722   1.170   0.776   2.007  0.4039  0.7767 -0.8010
  696TIP3    H123723   1.232   0.740   2.071 -0.2663 -0.0329 -0.5755
  696TIP3    H223724   1.190   0.729   1.926  1.8243  2.4143 -1.4532
  697TIP3   OH223725   3.548   2.748   1.547 -0.6063 -0.8448 -0.2595
  697TIP3    H123726   3.525   2.791   1.465 -0.5246 -1.4195 -0.5850
  697TIP3    H223727   3.469   2.700   1.572 -0.1974 -1.7865 -0.7213
  698TIP3   OH223728   5.567   3.146   7.388 -0.0125  0.6166 -0.3215
  698TIP3    H123729   5.541   3.083   7.456  0.6687  1.2791  0.5861
  698TIP3    H223730   5.489   3.156   7.333 -0.0875 -1.0975 -0.5631
  699TIP3   OH223731   0.470   6.332   1.306 -0.7300  0.2376 -0.1983
  699TIP3    H123732   0.462   6.424   1.280 -1.0433 -0.1128 -1.4046
  699TIP3    H223733   0.399   6.287   1.260  0.1561 -0.8031 -0.5941
  700TIP3   OH223734   0.082   5.006   2.392  0.4234  0.3812  0.6764
  700TIP3    H123735   0.076   4.996   2.297 -0.7396 -0.5258  0.8287
  700TIP3    H223736   0.018   5.074   2.413  0.0259 -0.0459  0.8874
  701TIP3   OH223737   0.105   4.540   1.106 -0.9528 -0.2851  0.1825
  701TIP3    H123738   0.104   4.614   1.046 -2.1897 -0.5434 -0.1432
  701TIP3    H223739   0.043   4.477   1.069 -0.7470 -1.0220  1.0280
  702TIP3   OH223740   3.217   4.037   2.408  0.2667  0.3081 -0.0126
  702TIP3    H123741   3.255   4.102   2.467 -1.8678  1.5489  0.1153
  702TIP3    H223742   3.271   4.042   2.329  0.9059  1.3591  0.4635
  703TIP3   OH223743   4.143   6.281   2.891  0.0157 -0.0266  0.6194
  703TIP3    H123744   4.071   6.341   2.874  0.1892 -0.3599 -1.6629
  703TIP3    H223745   4.101   6.196   2.903 -0.0341 -0.1285 -0.1970
  704TIP3   OH223746   4.997   2.674   8.276 -0.1877 -0.2454  0.1681
  704TIP3    H123747   4.907   2.664   8.244 -0.3416 -1.1663  0.8271
  704TIP3    H223748   5.040   2.592   8.250  1.0277  0.9453 -1.8209
  705TIP3   OH223749   5.804   3.358   0.478 -0.0501  0.2562  0.6051
  705TIP3    H123750   5.731   3.407   0.441  1.1196  0.0653 -2.2160
  705TIP3    H223751   5.878   3.378   0.420  1.4088 -1.8511  1.6071
  706TIP3   OH223752   2.660   0.924   0.069 -0.7109 -1.0485  0.3514
  706TIP3    H123753   2.695   0.874  -0.005 -0.2424  0.4316 -0.4570
  706TIP3    H223754   2.582   0.967   0.033 -0.8832 -0.8723  0.9301
  707TIP3   OH223755   5.669   0.806   0.082  0.3969 -0.3713  0.1179
  707TIP3    H123756   5.708   0.888   0.052 -0.0314 -0.3674 -0.4549
  707TIP3    H223757   5.691   0.801   0.175  2.5377 -0.8173 -0.3596
  708TIP3   OH223758   3.656   5.901   7.483  0.0859 -0.0796  0.1245
  708TIP3    H123759   3.622   5.986   7.511 -0.0123  0.0186 -0.2909
  708TIP3    H223760   3.726   5.881   7.546  1.2346  1.0853 -0.7552
  709TIP3   OH223761   4.799   1.038   8.178 -0.3309 -0.0722  0.8752
  709TIP3    H123762   4.745   1.115   8.162  0.1164  0.3086  1.1543
  709TIP3    H223763   4.885   1.074   8.200  0.3369 -0.6754 -0.6222
  710TIP3   OH223764   2.928   2.693   2.148 -0.0047 -0.2523  0.7135
  710TIP3    H123765   2.989   2.648   2.089  2.3369  4.3156 -0.8840
  710TIP3    H223766   2.843   2.684   2.106  1.0480 -0.0565 -1.6306
  711TIP3   OH223767   0.654   5.792   8.573 -0.7731  0.6488  0.4365
  711TIP3    H123768   0.666   5.883   8.601  0.1159  0.5803  0.3096
  711TIP3    H223769   0.736   5.770   8.528  0.0749 -1.0064  2.6313
  712TIP3   OH223770   5.392   0.386   2.836  0.3219 -0.0853  0.6213
  712TIP3    H123771   5.467   0.433   2.873  0.3926 -0.0933  0.4879
  712TIP3    H223772   5.393   0.408   2.743  1.1384 -1.3901  0.2995
  713TIP3   OH223773   4.795   1.067   0.708  0.2173 -0.1540  0.4448
  713TIP3    H123774   4.880   1.107   0.723  0.0530  0.8915 -1.1195
  713TIP3    H223775   4.773   1.092   0.618 -2.4503  0.9610  1.3188
  714TIP3   OH223776   5.293   0.001   7.771 -0.3237 -0.1369 -0.2882
  714TIP3    H123777   5.303   0.090   7.805 -1.5600 -0.6980  1.6900
  714TIP3    H223778   5.338   0.003   7.687  0.6007  2.0672  0.1779
  715TIP3   OH223779   6.667   3.901   0.669  0.1487  0.1996  0.6005
  715TIP3    H123780   6.606   3.906   0.742 -0.3673  1.5843  0.1096
  715TIP3    H223781   6.691   3.992   0.651  1.7650 -0.2481  0.2764
  716TIP3   OH223782   2.009   0.715   1.622 -0.3676 -0.5283  0.1323
  716TIP3    H123783   1.917   0.730   1.643 -0.7075 -1.2737 -0.7654
  716TIP3    H223784   2.054   0.720   1.707 -0.9007  1.9686  0.3527
  717TIP3   OH223785   2.389   6.488   0.904  0.4900  0.0045  0.3453
  717TIP3    H123786   2.329   6.543   0.954  0.0240 -0.1717 -0.0179
  717TIP3    H223787   2.473   6.535   0.908  0.2331  0.4595  0.5063
  718TIP3   OH223788   1.751   2.659   1.899 -0.1645  0.1661 -0.5361
  718TIP3    H123789   1.758   2.624   1.987 -0.8547 -3.7238 -1.8227
  718TIP3    H223790   1.704   2.742   1.909 -0.2819 -0.1842  2.6966
  719TIP3   OH223791   4.791   3.106   1.757 -0.0292  0.3374  0.6286
  719TIP3    H123792   4.723   3.173   1.769  0.2236  0.5678  0.7619
  719TIP3    H223793   4.865   3.137   1.808  1.3636  1.7285 -1.9973
  720TIP3   OH223794   1.070   3.394   8.545 -0.0360  0.1134 -0.3985
  720TIP3    H123795   0.976   3.377   8.547 -0.0950  0.4908  0.1551
  720TIP3    H223796   1.110   3.307   8.536 -0.3596 -0.3404  1.9367
  721TIP3   OH223797   4.738   5.861   8.432 -0.5653 -0.4804 -0.4196
  721TIP3    H123798   4.793   5.793   8.471  0.6130  0.2429 -0.7594
  721TIP3    H223799   4.657   5.858   8.483 -1.5829 -3.7869 -1.9772
  722TIP3   OH223800   3.431   5.667   8.629 -0.1907 -0.7577 -0.3970
  722TIP3    H123801   3.497   5.602   8.604  0.3260  0.1949 -1.6203
  722TIP3    H223802   3.423   5.724   8.552 -0.7439  0.5234  0.5690
  723TIP3   OH223803   5.302   6.860   7.187  0.7782 -0.1696 -0.3948
  723TIP3    H123804   5.374   6.839   7.246  1.2797  0.0424 -0.9114
  723TIP3    H223805   5.258   6.776   7.171 -0.0233 -0.0561  1.0955
  724TIP3   OH223806   6.867   1.877   1.829 -0.3552  0.3283  0.7578
  724TIP3    H123807   6.877   1.884   1.734 -0.8854  2.7340  0.8047
  724TIP3    H223808   6.822   1.958   1.854 -0.0045 -0.1282  3.0969
  725TIP3   OH223809   5.082   3.752   1.039  0.4853 -0.1152  0.4271
  725TIP3    H123810   5.061   3.685   1.105  0.2226 -0.0423  0.4186
  725TIP3    H223811   5.062   3.835   1.083  0.9158 -0.0359  0.4760
  726TIP3   OH223812   6.590   1.525   3.310  0.1889 -0.7287  0.4326
  726TIP3    H123813   6.684   1.530   3.293 -0.0188 -2.3943 -1.6922
  726TIP3    H223814   6.580   1.448   3.366  0.1687  0.2639  1.8442
  727TIP3   OH223815   5.613   2.518   2.085  0.8523  0.0766 -0.1674
  727TIP3    H123816   5.529   2.485   2.117  0.2871  0.3302 -1.3542
  727TIP3    H223817   5.655   2.442   2.046  0.5810  0.2268 -0.7688
  728TIP3   OH223818   2.418   3.272   7.366 -0.0667  0.4914  0.6560
  728TIP3    H123819   2.332   3.313   7.359 -0.1687  0.0885 -0.8885
  728TIP3    H223820   2.421   3.211   7.292  1.5207  0.4690  0.7105
  729TIP3   OH223821   0.764   2.752   2.211  0.3325  0.4063 -0.4409
  729TIP3    H123822   0.855   2.780   2.199 -0.3083  2.9495  0.0401
  729TIP3    H223823   0.748   2.760   2.305 -0.2296 -0.6883 -0.4215
  730TIP3   OH223824   3.147   2.931   0.573 -0.3955  0.3038  0.2417
  730TIP3    H123825   3.091   2.853   0.573 -0.9127  0.6706 -0.2478
  730TIP3    H223826   3.104   2.992   0.513 -1.2042  1.8256  2.2675
  731TIP3   OH223827   5.418   6.273   1.433 -0.5622  0.6084  0.7550
  731TIP3    H123828   5.368   6.257   1.512 -1.0037  0.3914  0.4355
  731TIP3    H223829   5.379   6.351   1.394 -1.0611  0.0850  0.1861
  732TIP3   OH223830   6.630   2.685   8.070  0.3397 -0.6411  0.8583
  732TIP3    H123831   6.715   2.664   8.031  0.0269 -1.7812  0.7541
  732TIP3    H223832   6.568   2.626   8.026 -0.2487 -0.9364  2.0287
  733TIP3   OH223833   2.281   1.082   0.253  0.0192 -0.5153 -0.2037
  733TIP3    H123834   2.347   1.103   0.319 -0.6593 -1.7253  0.9223
  733TIP3    H223835   2.277   1.159   0.197  0.5232  0.6176  1.2592
  734TIP3   OH223836   3.381   2.935   0.752  0.1526  0.2332 -1.1120
  734TIP3    H123837   3.425   3.017   0.729  0.7731 -0.2837 -1.8481
  734TIP3    H223838   3.297   2.939   0.706  0.1287  0.5066 -1.0450
  735TIP3   OH223839   5.627   3.416   7.315  0.1248  0.9525  0.7141
  735TIP3    H123840   5.573   3.355   7.266  0.8064  1.3178 -0.5364
  735TIP3    H223841   5.691   3.360   7.360  0.5098  0.7084 -0.1232
  736TIP3   OH223842   6.598   0.851   2.467 -0.1388 -0.2265 -0.1811
  736TIP3    H123843   6.647   0.772   2.444  0.3350  0.0221 -0.0256
  736TIP3    H223844   6.660   0.923   2.456 -0.9665  0.3077 -1.7462
  737TIP3   OH223845   2.796   4.957   1.356  0.7534  0.6522  0.4843
  737TIP3    H123846   2.827   4.877   1.313 -1.3080 -0.3201  0.6615
  737TIP3    H223847   2.781   5.018   1.285  0.6459  0.2415  0.1478
  738TIP3   OH223848   1.379   6.185   0.881  0.0812  0.1405 -0.4433
  738TIP3    H123849   1.314   6.161   0.815  0.3509  0.1001 -0.6924
  738TIP3    H223850   1.414   6.269   0.850 -0.2192  0.4223 -0.0400
  739TIP3   OH223851   5.414   2.134   3.088 -0.0148 -0.3480  0.3284
  739TIP3    H123852   5.415   2.118   2.993  1.2554 -0.5510  0.3539
  739TIP3    H223853   5.359   2.065   3.124 -0.2503 -0.4562 -0.2271
  740TIP3   OH223854   6.316   0.325   0.680 -0.4695  0.1674 -0.7649
  740TIP3    H123855   6.356   0.340   0.594  1.5937 -3.8347 -0.7670
  740TIP3    H223856   6.336   0.404   0.730 -0.4150  2.0008 -3.4462
  741TIP3   OH223857   3.412   1.475   1.306  0.2401 -0.3336 -0.5568
  741TIP3    H123858   3.461   1.393   1.302  0.5171 -0.2008  0.0610
  741TIP3    H223859   3.348   1.467   1.235  0.5010 -0.9268 -0.7385
  742TIP3   OH223860   5.969   6.885   2.284 -0.0400  0.4534 -0.0075
  742TIP3    H123861   5.970   6.965   2.337 -0.2052 -1.0087  2.3646
  742TIP3    H223862   5.911   6.826   2.332  0.0026 -1.0607 -1.7412
  743TIP3   OH223863   2.079   4.933   0.311  0.2477  0.6422  0.0986
  743TIP3    H123864   2.035   4.957   0.393  1.1327 -2.3298  1.6122
  743TIP3    H223865   2.172   4.940   0.331  0.4872 -1.1015 -0.2358
  744TIP3   OH223866   6.459   4.194   7.526 -0.7934 -0.3679 -0.4825
  744TIP3    H123867   6.497   4.212   7.440 -1.4554 -0.8750 -0.8874
  744TIP3    H223868   6.534   4.197   7.586 -0.5217  1.4201 -0.8422
  745TIP3   OH223869   4.285   2.741   8.044  0.0721 -0.6377  0.2673
  745TIP3    H123870   4.237   2.792   8.109  0.4413 -3.5406  3.0140
  745TIP3    H223871   4.228   2.740   7.968 -0.9166  1.8984  0.8702
  746TIP3   OH223872   6.082   4.793   3.769 -0.4362  0.2862  0.1337
  746TIP3    H123873   6.151   4.767   3.707 -0.8552  0.1376 -0.2800
  746TIP3    H223874   6.116   4.871   3.811  0.0991  0.0604  0.1242
  747TIP3   OH223875   2.071   6.258   3.119 -0.3485  0.4434 -0.3334
  747TIP3    H123876   2.025   6.232   3.198  1.2264  3.2392  1.6745
  747TIP3    H223877   2.118   6.179   3.091 -0.0101 -0.3431  2.2201
  748TIP3   OH223878   5.675   2.937   1.353 -0.0157  0.0901 -0.5157
  748TIP3    H123879   5.592   2.890   1.341  2.5706 -5.2227 -0.2488
  748TIP3    H223880   5.717   2.932   1.267  1.1116  0.2420  0.0127
  749TIP3   OH223881   6.835   1.533   7.849 -0.3777 -0.0376 -0.0300
  749TIP3    H123882   6.892   1.560   7.921  0.9198 -2.4603 -0.0256
  749TIP3    H223883   6.879   1.563   7.770  1.0106 -1.8585 -0.0238
  750TIP3   OH223884   0.192   2.405   8.270 -0.1533 -0.4146  0.4866
  750TIP3    H123885   0.176   2.447   8.186  0.9906  0.2393  0.5718
  750TIP3    H223886   0.193   2.477   8.334 -0.2947 -0.8169  0.9498
  751TIP3   OH223887   3.652   0.917   3.125  0.5899 -0.7607  0.0038
  751TIP3    H123888   3.734   0.880   3.156  0.2898 -1.9389 -0.5656
  751TIP3    H223889   3.584   0.872   3.175  0.1421 -2.1486 -1.7242
  752TIP3   OH223890   1.504   6.240   1.902 -0.1032  0.3369 -0.1121
  752TIP3    H123891   1.513   6.153   1.943  2.7745  1.8510  2.9760
  752TIP3    H223892   1.437   6.284   1.954  0.8029  1.0070  0.5096
  753TIP3   OH223893   3.291   2.628   0.667  0.2361 -0.6420 -0.1091
  753TIP3    H123894   3.200   2.652   0.688  0.0642 -1.5090  0.2187
  753TIP3    H223895   3.332   2.614   0.753 -0.0232 -2.6537 -0.2491
  754TIP3   OH223896   5.477   3.239   0.667  0.3864 -0.1942  0.1844
  754TIP3    H123897   5.506   3.232   0.577 -3.8079 -2.3677 -1.2548
  754TIP3    H223898   5.440   3.327   0.674 -1.4022 -0.8239 -1.0172
  755TIP3   OH223899   6.221   5.991   0.695  0.0872  0.2656  0.0379
  755TIP3    H123900   6.270   6.049   0.636  0.0168  0.2247 -0.0602
  755TIP3    H223901   6.215   6.040   0.777 -0.7378  0.7690 -0.3090
  756TIP3   OH223902   5.222   5.126   3.131  0.1257  0.0988 -0.0967
  756TIP3    H123903   5.311   5.090   3.133  0.0955  0.0233 -0.1062
  756TIP3    H223904   5.214   5.176   3.212 -0.8620 -2.3671  1.4635
  757TIP3   OH223905   2.758   5.967   0.177 -0.4351 -0.2380 -0.3331
  757TIP3    H123906   2.843   5.979   0.134  0.5749 -1.8212  1.0786
  757TIP3    H223907   2.698   6.025   0.130  1.7048  2.0054 -0.4974
  758TIP3   OH223908   4.744   3.500   1.103 -0.6311  0.0497  0.6300
  758TIP3    H123909   4.817   3.520   1.163 -0.3300 -2.9796  1.4418
  758TIP3    H223910   4.693   3.581   1.101  1.5573  1.5889  1.7600
  759TIP3   OH223911   2.379   3.018   2.196  0.0654 -0.0492  0.0546
  759TIP3    H123912   2.446   3.086   2.182  1.1175 -0.8569  1.0388
  759TIP3    H223913   2.417   2.960   2.261 -1.6462 -0.4965  0.6989
  760TIP3   OH223914   6.881   0.927   1.835 -0.4777  0.1438 -0.1081
  760TIP3    H123915   6.828   0.847   1.836  0.1609 -0.3018 -0.8304
  760TIP3    H223916   6.819   0.996   1.859 -1.0485 -0.5539  0.4966
  761TIP3   OH223917   1.203   0.442   1.899  0.2860  0.2783 -0.4898
  761TIP3    H123918   1.271   0.503   1.873  0.9678 -0.0363  0.4878
  761TIP3    H223919   1.249   0.358   1.910 -0.2768  0.0375  0.0817
  762TIP3   OH223920   4.205   2.933   1.617 -0.4160 -0.1955  0.9865
  762TIP3    H123921   4.272   2.971   1.561 -1.7425 -0.4009 -0.8178
  762TIP3    H223922   4.207   2.839   1.596 -0.8944 -0.2822  1.3132
  763TIP3   OH223923   6.041   0.792   0.204 -0.5352 -0.0762 -0.2009
  763TIP3    H123924   6.034   0.884   0.179  0.3899  0.3333  0.9297
  763TIP3    H223925   6.112   0.758   0.149  0.4681  0.4269  0.7341
  764TIP3   OH223926   5.395   2.460   0.451  0.1325 -0.2099 -0.3454
  764TIP3    H123927   5.396   2.402   0.527 -0.2632 -0.1621 -0.3039
  764TIP3    H223928   5.480   2.505   0.455  0.0822 -0.1457  0.1124
  765TIP3   OH223929   3.579   1.914   0.452 -0.2600 -0.0840 -0.3810
  765TIP3    H123930   3.511   1.972   0.487 -0.2545  0.2989 -0.9856
  765TIP3    H223931   3.661   1.962   0.465  0.3275 -1.6599  2.8777
  766TIP3   OH223932   2.464   1.028   0.485 -0.6431  0.2778  0.3267
  766TIP3    H123933   2.508   1.018   0.569 -0.9848 -0.3916  0.4337
  766TIP3    H223934   2.467   0.941   0.445  1.3995  1.0194 -1.3145
  767TIP3   OH223935   5.085   6.771   8.204  0.1620  0.2895 -0.5368
  767TIP3    H123936   5.003   6.768   8.253 -0.6472 -0.4260 -1.8730
  767TIP3    H223937   5.101   6.680   8.177  0.3245  0.7114 -1.9789
  768TIP3   OH223938   2.764   6.696   8.586  0.3877  0.2153  0.0725
  768TIP3    H123939   2.852   6.664   8.567  0.6589 -0.9278  2.7955
  768TIP3    H223940   2.766   6.788   8.561  1.9528 -0.0793 -1.0561
  769TIP3   OH223941   0.783   1.505   2.655  0.0782 -0.9369 -0.0615
  769TIP3    H123942   0.723   1.497   2.729 -0.5013 -0.1198 -0.4256
  769TIP3    H223943   0.751   1.581   2.605 -0.1273 -2.0421 -1.6860
  770TIP3   OH223944   4.885   5.430   7.362 -0.7188 -0.1185 -0.1685
  770TIP3    H123945   4.957   5.384   7.319 -1.5710 -0.4583 -1.2570
  770TIP3    H223946   4.868   5.506   7.306 -1.9884 -0.6861 -0.5992
  771TIP3   OH223947   6.300   2.723   8.216 -0.2592  0.5212  0.2880
  771TIP3    H123948   6.281   2.664   8.143 -0.6943 -1.7870  2.1391
  771TIP3    H223949   6.218   2.770   8.230 -0.4885  0.2438 -0.1044
  772TIP3   OH223950   6.333   1.734   0.721 -0.3288  0.0491  0.2022
  772TIP3    H123951   6.395   1.661   0.714 -0.2298  0.1849 -0.4345
  772TIP3    H223952   6.260   1.709   0.664  0.6892  1.4029 -1.8123
  773TIP3   OH223953   0.681   1.981   1.610  0.1692 -0.8652 -0.1754
  773TIP3    H123954   0.684   1.945   1.521  0.9048 -0.1698 -0.4388
  773TIP3    H223955   0.626   2.059   1.602 -0.5272 -1.3001  0.1813
  774TIP3   OH223956   5.938   5.925   0.229  0.0140 -0.5032  0.0252
  774TIP3    H123957   5.951   5.993   0.295 -2.1169 -1.2837  1.3303
  774TIP3    H223958   5.843   5.921   0.217  0.2754 -0.4723 -3.0563
  775TIP3   OH223959   1.533   6.474   8.106 -0.1003  0.1981  0.2206
  775TIP3    H123960   1.470   6.452   8.175  0.5263 -2.4745  0.0653
  775TIP3    H223961   1.485   6.458   8.024  0.1363  0.2252  0.0754
  776TIP3   OH223962   1.223   3.478   1.831  0.3879  0.1705 -0.1937
  776TIP3    H123963   1.277   3.553   1.804  1.7039 -0.8628 -0.5535
  776TIP3    H223964   1.188   3.503   1.917  2.2959  0.4969  0.5415
  777TIP3   OH223965   0.779   1.049   7.495 -0.7025 -0.6435  0.2713
  777TIP3    H123966   0.693   1.064   7.454 -0.1331 -1.3205 -1.2642
  777TIP3    H223967   0.766   1.069   7.587 -2.0372  1.0975 -0.2479
  778TIP3   OH223968   6.456   3.599   2.284 -0.3391 -0.1646 -0.0694
  778TIP3    H123969   6.527   3.654   2.252 -0.4782 -0.7878 -1.5342
  778TIP3    H223970   6.382   3.659   2.293 -0.4418 -0.0509 -1.4720
  779TIP3   OH223971   0.452   6.754   0.567  0.2590  0.3092 -0.3002
  779TIP3    H123972   0.463   6.659   0.557  0.8335  0.2722  0.5322
  779TIP3    H223973   0.540   6.786   0.584 -0.1516  0.7540  1.1492
  780TIP3   OH223974   6.551   3.180   0.022  0.2244 -0.5152 -0.4793
  780TIP3    H123975   6.557   3.199  -0.071 -2.2435  1.1654 -0.3920
  780TIP3    H223976   6.600   3.251   0.064  1.4913 -1.3705 -0.4284
  781TIP3   OH223977   4.239   6.464   1.635 -0.0728 -0.4622  0.2373
  781TIP3    H123978   4.288   6.439   1.557 -0.3865 -0.9527  0.1952
  781TIP3    H223979   4.150   6.480   1.604  0.2611  1.4981  0.1209
  782TIP3   OH223980   1.163   1.479   7.741 -0.5521  0.5153 -0.4963
  782TIP3    H123981   1.139   1.442   7.826 -1.1523 -0.7560 -1.1767
  782TIP3    H223982   1.130   1.569   7.743 -2.6156 -0.2008 -0.2096
  783TIP3   OH223983   5.843   4.006   2.163 -0.1774  0.5584 -0.5459
  783TIP3    H123984   5.935   4.004   2.137 -0.0265 -0.0367 -0.0089
  783TIP3    H223985   5.839   4.072   2.232  0.1089 -0.3122  0.3244
  784TIP3   OH223986   3.845   0.333   1.280  0.2524  0.5318 -0.0680
  784TIP3    H123987   3.891   0.398   1.333 -0.2493  0.1697  0.8415
  784TIP3    H223988   3.887   0.250   1.301 -2.2304 -0.2241  2.6647
  785TIP3   OH223989   0.589   3.600   7.912  0.5337  0.2615 -0.2080
  785TIP3    H123990   0.682   3.591   7.891  0.9766  2.0864  0.8192
  785TIP3    H223991   0.566   3.688   7.882  0.3759  1.7208  3.6641
  786TIP3   OH223992   5.086   0.003   1.344  0.6261 -0.2707  0.0527
  786TIP3    H123993   5.062  -0.065   1.281 -0.7907 -0.2732  0.5780
  786TIP3    H223994   5.005   0.049   1.362  0.7596 -0.8957  2.6448
  787TIP3   OH223995   5.109   6.399   2.224 -0.4293  0.3800  0.0257
  787TIP3    H123996   5.182   6.360   2.175 -1.1842 -2.1109  0.7247
  787TIP3    H223997   5.046   6.425   2.157 -0.7253 -1.4168 -0.4276
  788TIP3   OH223998   3.076   5.641   2.064 -0.2932  0.2571  0.4095
  788TIP3    H123999   3.148   5.614   2.121 -0.3689  1.1405  0.9366
  788TIP3    H224000   3.008   5.671   2.124 -0.8393  0.0852 -0.1140
  789TIP3   OH224001   3.331   5.737   0.653  0.3524 -0.5807 -0.2942
  789TIP3    H124002   3.300   5.698   0.734  0.8177  2.2152  1.3519
  789TIP3    H224003   3.288   5.686   0.584 -1.6293 -1.8127  1.7132
  790TIP3   OH224004   5.605   3.787   0.529  0.6749 -0.2847 -0.4292
  790TIP3    H124005   5.587   3.861   0.586  1.3755 -1.0579  0.8326
  790TIP3    H224006   5.529   3.783   0.471 -0.7343 -0.2814  1.3202
  791TIP3   OH224007   0.610   2.040   3.075 -1.1569 -0.2793  0.3783
  791TIP3    H124008   0.531   2.071   3.031 -1.0417 -0.1314  0.2748
  791TIP3    H224009   0.579   2.010   3.161 -1.4771 -1.1371 -0.0250
  792TIP3   OH224010   0.864   0.608   8.519  0.7241 -0.0870 -0.4359
  792TIP3    H124011   0.931   0.675   8.517  2.3697 -1.6580 -1.3485
  792TIP3    H224012   0.827   0.609   8.430  1.8428 -1.3520 -0.9558
  793TIP3   OH224013   2.676   2.879   1.522 -0.1432  0.0435 -0.4590
  793TIP3    H124014   2.580   2.875   1.518 -0.4087  0.9214  2.5284
  793TIP3    H224015   2.699   2.954   1.467 -1.0858 -0.6175 -1.7904
  794TIP3   OH224016   4.786   1.995   1.012 -0.4072  0.2058  0.4461
  794TIP3    H124017   4.795   1.999   1.107  1.1575  0.8586  0.3146
  794TIP3    H224018   4.824   1.911   0.988  0.2587  0.5369  0.3199
  795TIP3   OH224019   0.779   5.978   2.808  0.2551 -0.1829  0.1829
  795TIP3    H124020   0.722   5.926   2.864  1.1933 -0.8988  0.4901
  795TIP3    H224021   0.864   5.933   2.810  0.7423  0.6568 -0.5474
  796TIP3   OH224022   5.822   2.029   2.805 -0.1731  0.6454  0.0037
  796TIP3    H124023   5.896   2.022   2.865  0.6372  0.8007 -0.9488
  796TIP3    H224024   5.781   2.112   2.827 -0.1778  0.4756  0.6563
  797TIP3   OH224025   2.535   1.945   2.125 -0.3013 -0.0726  0.5700
  797TIP3    H124026   2.498   1.957   2.037 -1.1913 -0.1247  0.9253
  797TIP3    H224027   2.627   1.966   2.115 -0.3230 -0.3804 -0.4519
  798TIP3   OH224028   0.808   1.286   1.117 -0.3161 -0.0331 -0.2360
  798TIP3    H124029   0.723   1.325   1.094 -1.9103 -0.0388  4.3858
  798TIP3    H224030   0.856   1.357   1.159  0.4567 -0.8988  0.3878
  799TIP3   OH224031   4.698   4.483   1.508  0.2675  0.2177 -0.4540
  799TIP3    H124032   4.737   4.509   1.425 -0.8561  1.3238 -0.6696
  799TIP3    H224033   4.766   4.500   1.573  0.7289  0.5293 -1.0137
  800TIP3   OH224034   3.301   5.138   8.082  0.4339 -0.6518  0.3286
  800TIP3    H124035   3.218   5.173   8.050 -0.1871 -1.1169  1.3783
  800TIP3    H224036   3.368   5.189   8.036 -0.4062 -0.7573 -1.0894
  801TIP3   OH224037   3.833   1.421   1.733  0.5153  0.1975  0.4944
  801TIP3    H124038   3.808   1.363   1.804  2.1272 -1.2727 -0.0879
  801TIP3    H224039   3.750   1.443   1.690 -0.5272  1.3020  2.8653
  802TIP3   OH224040   4.292   5.083   6.918  0.2383 -0.8783 -0.2265
  802TIP3    H124041   4.387   5.069   6.920  0.4374  0.2177 -0.8761
  802TIP3    H224042   4.272   5.123   7.002  0.6020  0.1897 -0.6266
  803TIP3   OH224043   6.055   3.551   0.744  0.4536 -0.0139 -0.4363
  803TIP3    H124044   5.970   3.508   0.749  0.2621  0.3795 -0.2339
  803TIP3    H224045   6.084   3.556   0.835  1.9536 -2.5992 -0.6805
  804TIP3   OH224046   0.440   2.430   0.404 -0.2130 -0.3878  0.1786
  804TIP3    H124047   0.477   2.439   0.491  1.1936  2.7989 -0.6097
  804TIP3    H224048   0.345   2.437   0.417 -0.1772 -1.9128  1.5678
  805TIP3   OH224049   4.407   3.392   0.006 -0.4528  0.2823 -0.1468
  805TIP3    H124050   4.379   3.448   0.078  0.9146 -0.1865  0.7683
  805TIP3    H224051   4.456   3.321   0.047  0.0647 -0.1855 -1.5035
  806TIP3   OH224052   0.900   2.823   8.076 -0.0965  0.3350  0.7840
  806TIP3    H124053   0.967   2.882   8.040 -1.5040  1.4266 -0.1602
  806TIP3    H224054   0.889   2.755   8.009  0.3267 -0.0655  1.1135
  807TIP3   OH224055   4.620   1.238   8.136  0.1309  0.1586  0.1755
  807TIP3    H124056   4.667   1.319   8.115 -1.3888  0.8369 -0.7782
  807TIP3    H224057   4.627   1.230   8.231  3.1487 -0.4287 -0.0012
  808TIP3   OH224058   4.856   2.722   7.794 -0.0916  0.2292 -0.6425
  808TIP3    H124059   4.789   2.757   7.852  1.4875 -1.2202  2.2787
  808TIP3    H224060   4.829   2.632   7.777  0.3120  0.1332 -0.7864
  809TIP3   OH224061   3.879   2.661   0.981 -0.7066  0.1037 -0.0257
  809TIP3    H124062   3.938   2.600   1.025  0.2726 -0.0665 -1.4913
  809TIP3    H224063   3.929   2.743   0.975 -1.0189  0.2727 -0.3465
  810TIP3   OH224064   5.529   5.691   1.784  0.5181  0.1313 -0.5973
  810TIP3    H124065   5.557   5.750   1.853  0.5738  0.6223 -1.0389
  810TIP3    H224066   5.603   5.687   1.723 -0.0367  0.7885 -1.3420
  811TIP3   OH224067   2.499   0.214   8.196 -0.5175 -0.1356 -0.2668
  811TIP3    H124068   2.570   0.279   8.193 -0.5757 -0.0961 -0.8148
  811TIP3    H224069   2.542   0.132   8.173 -0.4583 -0.2886  0.3598
  812TIP3   OH224070   5.261   4.687   7.394 -0.2931 -0.4334  0.1552
  812TIP3    H124071   5.212   4.606   7.385 -0.2703 -0.4219 -0.0654
  812TIP3    H224072   5.342   4.662   7.436 -1.0474 -0.2592  1.8006
  813TIP3   OH224073   4.010   1.854   8.147 -0.4796  0.2392  0.1710
  813TIP3    H124074   4.070   1.792   8.106 -0.6425  1.1074 -1.4272
  813TIP3    H224075   3.941   1.799   8.185  0.2727 -0.6369  0.3081
  814TIP3   OH224076   5.601   4.472   8.490  0.0563  0.1413  0.1259
  814TIP3    H124077   5.684   4.433   8.516  0.4284  1.1146  0.4390
  814TIP3    H224078   5.613   4.566   8.503 -0.6067  0.4381 -1.1540
  815TIP3   OH224079   2.366   4.323   7.102  0.3320  0.3761  0.3090
  815TIP3    H124080   2.415   4.397   7.066  0.0015  0.9738  1.0384
  815TIP3    H224081   2.287   4.317   7.048  0.3296  0.6006  0.2865
  816TIP3   OH224082   0.383   5.738   8.581  0.1905  0.7618 -0.2623
  816TIP3    H124083   0.470   5.775   8.575  0.6421 -0.2817 -0.4620
  816TIP3    H224084   0.391   5.670   8.648 -0.4479  0.6118 -0.3305
  817TIP3   OH224085   5.183   4.417   3.076 -0.2594  0.1781  0.1537
  817TIP3    H124086   5.265   4.459   3.046 -1.5167  1.4326 -1.7696
  817TIP3    H224087   5.180   4.435   3.170 -0.0583  3.3946 -0.3403
  818TIP3   OH224088   2.630   1.177   7.753  0.7092 -0.7061 -0.1217
  818TIP3    H124089   2.582   1.144   7.829  0.1707  0.7034  0.1772
  818TIP3    H224090   2.607   1.117   7.682  2.2254 -2.8226  1.0752
  819TIP3   OH224091   1.992   5.891   1.599 -0.2126  0.1425 -0.0946
  819TIP3    H124092   1.945   5.823   1.551 -0.0331  0.3427 -0.5557
  819TIP3    H224093   1.925   5.933   1.652  0.2721 -3.2936  3.7854
  820TIP3   OH224094   5.934   2.622   2.077  0.3275 -0.3701 -0.2404
  820TIP3    H124095   5.849   2.595   2.042 -0.7595  1.6479  0.7125
  820TIP3    H224096   5.935   2.588   2.167 -0.8271  2.1216  0.7872
  821TIP3   OH224097   6.066   3.051   1.837 -0.0989 -0.0576  0.2096
  821TIP3    H124098   6.089   3.144   1.842 -2.3545  0.5819 -0.5727
  821TIP3    H224099   6.039   3.028   1.926  0.0722  0.1290  0.3103
  822TIP3   OH224100   2.367   0.764   2.391 -0.1296 -0.4673  0.2641
  822TIP3    H124101   2.375   0.784   2.484 -2.6147  0.4582  0.3485
  822TIP3    H224102   2.379   0.848   2.347  1.0363 -0.9004 -0.3087
  823TIP3   OH224103   2.155   5.438   1.888 -0.0526 -0.4760  0.0073
  823TIP3    H124104   2.106   5.432   1.806  0.8738 -1.4954 -0.4854
  823TIP3    H224105   2.117   5.371   1.944 -1.4779  0.9832  0.8867
  824TIP3   OH224106   4.547   2.086   1.567 -0.6686 -0.0659 -0.4034
  824TIP3    H124107   4.609   2.013   1.567 -0.6201 -0.0241 -0.3908
  824TIP3    H224108   4.540   2.112   1.476  0.2053  0.6773 -0.2721
  825TIP3   OH224109   0.072   6.090   2.377  0.3127 -0.4642 -0.3243
  825TIP3    H124110  -0.001   6.028   2.377 -1.3158  1.3355  1.6929
  825TIP3    H224111   0.078   6.118   2.286 -2.4098  0.2635 -0.3812
  826TIP3   OH224112   3.605   6.239   7.280 -0.7596  0.4686  0.5649
  826TIP3    H124113   3.678   6.209   7.226 -2.7392  0.2498 -2.2459
  826TIP3    H224114   3.611   6.189   7.361  1.0634 -0.9560 -0.3940
  827TIP3   OH224115   6.837   1.790   8.094 -0.0433  0.1201  0.5558
  827TIP3    H124116   6.804   1.879   8.081 -1.4285 -0.4582 -0.1157
  827TIP3    H224117   6.772   1.749   8.150  0.9371 -0.2893  1.4197
  828TIP3   OH224118   4.185   3.251   1.217 -0.3413 -0.1395  0.0227
  828TIP3    H124119   4.095   3.264   1.245 -0.3463  1.2223 -0.5351
  828TIP3    H224120   4.224   3.195   1.284 -1.3303  0.0726  0.7876
  829TIP3   OH224121   3.104   2.577   8.145 -0.0963  0.3964 -0.0677
  829TIP3    H124122   3.078   2.639   8.213 -0.9643 -0.1264  0.0975
  829TIP3    H224123   3.190   2.607   8.116 -0.7135  1.9776 -0.3514
  830TIP3   OH224124   5.768   5.325   2.299  0.2468  0.2002 -0.0458
  830TIP3    H124125   5.729   5.283   2.376  0.1971 -1.9538 -1.1465
  830TIP3    H224126   5.862   5.310   2.308  0.2146 -0.3379 -0.5324
  831TIP3   OH224127   0.028   5.295   2.346 -0.0866 -0.3543  0.3351
  831TIP3    H124128  -0.013   5.244   2.276 -1.2423 -1.4347  1.7515
  831TIP3    H224129   0.084   5.358   2.300 -1.0344 -0.8365 -1.5583
  832TIP3   OH224130   3.386   2.058   0.233 -0.1938  0.0081 -0.4936
  832TIP3    H124131   3.362   2.065   0.326  0.0551 -0.8759 -0.3516
  832TIP3    H224132   3.368   2.145   0.197 -3.2102 -0.4208 -0.2986
  833TIP3   OH224133   6.698   5.869   0.722 -0.0309 -0.2010  0.3829
  833TIP3    H124134   6.634   5.939   0.710 -0.2122 -0.6088 -1.3231
  833TIP3    H224135   6.649   5.798   0.762 -0.8964 -0.8001 -1.6346
  834TIP3   OH224136   6.870   5.133   1.609 -0.2738 -0.4587  0.0573
  834TIP3    H124137   6.891   5.179   1.527 -2.1556  1.3480  0.4940
  834TIP3    H224138   6.920   5.181   1.676 -0.4047 -0.5582  0.2265
  835TIP3   OH224139   0.454   3.367   8.005  0.2079  0.3168 -0.1402
  835TIP3    H124140   0.511   3.439   7.976  1.4450 -0.7277 -0.3662
  835TIP3    H224141   0.366   3.396   7.980  0.8025  1.2407 -1.3021
  836TIP3   OH224142   3.536   1.570   8.620  0.0745  0.1049  0.4026
  836TIP3    H124143   3.454   1.578   8.572  0.4283 -0.5405 -0.3324
  836TIP3    H224144   3.567   1.661   8.629  0.4356  0.2003 -1.3915
  837TIP3   OH224145   4.767   4.631   3.099  0.5959  0.2907  0.2034
  837TIP3    H124146   4.851   4.619   3.143 -0.0037  1.1501  1.6452
  837TIP3    H224147   4.738   4.718   3.126 -0.4400  0.2975 -0.8399
  838TIP3   OH224148   4.856   1.450   2.420  0.1075  0.3351  0.0590
  838TIP3    H124149   4.878   1.538   2.390 -2.1473  0.8923 -0.1245
  838TIP3    H224150   4.760   1.447   2.419 -0.0160 -0.9827  3.2296
  839TIP3   OH224151   1.251   3.249   1.987 -0.1870 -0.2260 -0.3548
  839TIP3    H124152   1.249   3.328   1.933  0.4311 -0.3756 -0.6129
  839TIP3    H224153   1.196   3.269   2.062  0.0598  0.4989 -0.3619
  840TIP3   OH224154   4.519   5.749   1.574  0.1559 -0.1719  0.6816
  840TIP3    H124155   4.510   5.695   1.652  0.1081  0.7830  1.3606
  840TIP3    H224156   4.551   5.690   1.506 -0.2932 -1.1270  1.2888
  841TIP3   OH224157   6.782   5.899   3.754 -0.2829 -0.0398  0.6469
  841TIP3    H124158   6.758   5.958   3.683 -0.9244 -0.0363  0.8619
  841TIP3    H224159   6.773   5.951   3.834  1.7526  0.3743  0.6657
  842TIP3   OH224160   6.070   5.110   7.410  0.1456  0.0146 -0.3633
  842TIP3    H124161   6.046   5.056   7.485  0.4678  0.3199 -0.0364
  842TIP3    H224162   6.085   5.048   7.339 -0.7583 -0.2367 -0.3422
  843TIP3   OH224163   2.386   5.498   2.155 -0.6268  0.4570 -0.2758
  843TIP3    H124164   2.437   5.561   2.206 -0.8558 -0.4377  1.0989
  843TIP3    H224165   2.304   5.487   2.203 -0.0823 -1.8267  0.2550
  844TIP3   OH224166   2.191   5.491   1.457  0.3924 -0.0709 -0.5077
  844TIP3    H124167   2.111   5.479   1.406 -0.4506 -0.9241  0.9583
  844TIP3    H224168   2.160   5.513   1.544  1.7826  0.2645 -0.0833
  845TIP3   OH224169   3.151   3.895   8.588 -0.4107 -0.7875  0.3913
  845TIP3    H124170   3.180   3.844   8.664 -2.0175  0.6754  2.0802
  845TIP3    H224171   3.082   3.841   8.548  0.2117 -1.4112  0.1275
  846TIP3   OH224172   1.500   3.137   0.374  0.3750  0.8074  0.1750
  846TIP3    H124173   1.425   3.196   0.382 -0.7996 -0.5327 -0.6730
  846TIP3    H224174   1.562   3.168   0.440 -1.2589  1.4222  1.4666
  847TIP3   OH224175   5.965   3.995   0.158 -0.0193  0.0709  0.5976
  847TIP3    H124176   5.913   4.046   0.096 -0.6027  0.0366  1.0466
  847TIP3    H224177   5.991   4.057   0.226  0.6766  0.1241  0.2852
  848TIP3   OH224178   1.927   3.397   8.483 -0.4753  0.2029 -0.0994
  848TIP3    H124179   1.950   3.323   8.540  1.0691  0.6472 -0.0984
  848TIP3    H224180   1.834   3.412   8.499 -0.4049 -0.6301  1.2095
  849TIP3   OH224181   5.180   4.764   8.668  0.2263  0.1478  0.2817
  849TIP3    H124182   5.143   4.721   8.591  0.4378  2.1710 -1.0069
  849TIP3    H224183   5.219   4.692   8.719  0.7742 -1.1697 -1.8771
  850TIP3   OH224184   0.056   3.983   2.189 -0.4134  0.3435 -0.6948
  850TIP3    H124185   0.109   4.063   2.198 -0.9291  0.6258 -0.0510
  850TIP3    H224186   0.052   3.947   2.278 -0.9022  0.0637 -0.8255
  851TIP3   OH224187   0.822   6.494   0.650 -0.1212 -0.3783  0.4585
  851TIP3    H124188   0.909   6.515   0.616 -0.5835 -0.6391 -0.9355
  851TIP3    H224189   0.788   6.578   0.681  0.2452 -0.0953  0.1079
  852TIP3   OH224190   3.697   0.696   7.151  0.4438 -0.2024 -0.6166
  852TIP3    H124191   3.705   0.778   7.103  0.7966 -0.1592 -0.4850
  852TIP3    H224192   3.767   0.641   7.117  0.1347 -0.4899 -0.7863
  853TIP3   OH224193   2.981   4.167   0.997  0.8098  0.7283 -0.0755
  853TIP3    H124194   2.921   4.092   0.992  0.4453  1.0529 -0.6810
  853TIP3    H224195   3.046   4.149   0.928  1.3278  0.4533  0.4778
  854TIP3   OH224196   0.850   0.314   1.112 -0.9693 -0.0028 -0.2016
  854TIP3    H124197   0.853   0.269   1.197 -2.3748 -0.1872 -0.2242
  854TIP3    H224198   0.940   0.342   1.096 -0.6836  0.0487  1.3633
  855TIP3   OH224199   0.371   1.593   1.251 -0.0605  0.3135  0.3102
  855TIP3    H124200   0.464   1.580   1.269 -0.1779  0.3412  0.9599
  855TIP3    H224201   0.352   1.532   1.180 -0.1816 -1.8584  2.1014
  856TIP3   OH224202   6.215   6.634   2.586  0.5529  0.3033 -0.0005
  856TIP3    H124203   6.157   6.622   2.661 -0.4350  0.7764 -0.6630
  856TIP3    H224204   6.293   6.583   2.608 -0.3003 -0.7549  0.7059
  857TIP3   OH224205   4.599   4.689   1.808  0.1501  0.1246 -0.4496
  857TIP3    H124206   4.556   4.713   1.726  0.8029  0.8770 -0.5806
  857TIP3    H224207   4.636   4.602   1.792 -3.9427 -2.1096  0.6551
  858TIP3   OH224208   0.621   1.197   8.386 -0.2247 -0.4788  0.3508
  858TIP3    H124209   0.525   1.193   8.384 -0.3829  1.7240  1.1155
  858TIP3    H224210   0.642   1.214   8.478  0.8251  0.4801 -0.0500
  859TIP3   OH224211   0.200   4.564   0.721  0.7249  0.3543  0.0597
  859TIP3    H124212   0.232   4.623   0.653  1.3268  2.1939  1.8580
  859TIP3    H224213   0.143   4.618   0.775  2.8196 -0.0731  2.9078
  860TIP3   OH224214   2.790   4.165   7.592  0.9445  0.2793 -0.0799
  860TIP3    H124215   2.782   4.074   7.563  0.8796  0.5028 -0.7928
  860TIP3    H224216   2.700   4.198   7.591  1.2150  1.1299 -2.4970
  861TIP3   OH224217   2.768   0.861   0.971  0.0814 -0.2343 -0.3542
  861TIP3    H124218   2.819   0.835   1.048  1.3893  0.6152 -0.9154
  861TIP3    H224219   2.796   0.800   0.902 -0.3519 -0.3452 -0.4388
  862TIP3   OH224220   4.677   4.999   2.254 -0.3134  0.1549 -0.2939
  862TIP3    H124221   4.770   4.977   2.244 -0.2970  0.3251 -0.5254
  862TIP3    H224222   4.633   4.947   2.187 -0.1674  1.5500 -1.5270
  863TIP3   OH224223   2.837   2.336   8.109  0.0169 -0.0655 -0.1886
  863TIP3    H124224   2.794   2.299   8.032  0.8046 -1.6512  0.0857
  863TIP3    H224225   2.873   2.419   8.078  0.6004 -0.8211 -1.6493
  864TIP3   OH224226   0.670   6.468   0.924  0.3479 -0.6012  0.1618
  864TIP3    H124227   0.599   6.530   0.910  0.3905  0.0372  2.3549
  864TIP3    H224228   0.626   6.386   0.947  0.3188 -1.0166 -1.2737
  865TIP3   OH224229   5.618   2.290   0.577  0.4230  0.2422  0.3084
  865TIP3    H124230   5.606   2.251   0.490 -0.8988  1.7767 -0.2547
  865TIP3    H224231   5.554   2.246   0.632  1.7097 -1.1989  0.7032
  866TIP3   OH224232   2.486   6.125   8.190 -1.1206 -0.4196  0.2463
  866TIP3    H124233   2.462   6.176   8.267  0.8384 -1.5117  1.6691
  866TIP3    H224234   2.545   6.183   8.141 -0.4140 -0.5819  0.8788
  867TIP3   OH224235   6.311   4.357   1.880  0.3448  0.1059 -0.5260
  867TIP3    H124236   6.352   4.312   1.806  2.6314 -1.7621  1.6870
  867TIP3    H224237   6.219   4.366   1.854  1.4790  2.2002 -4.7184
  868TIP3   OH224238   5.491   5.067   1.114  0.1972 -0.1852 -0.5250
  868TIP3    H124239   5.420   5.029   1.063 -0.2943  0.7741 -0.5809
  868TIP3    H224240   5.453   5.144   1.156  1.3742  0.8174 -1.1902
  869TIP3   OH224241   1.112   1.434   0.524 -0.0321  0.0463  0.1133
  869TIP3    H124242   1.124   1.371   0.452  0.6014  0.6264 -0.2961
  869TIP3    H224243   1.109   1.519   0.481 -0.7731  0.3109  0.6789
  870TIP3   OH224244   2.245   5.925   1.668 -0.8486  0.9484 -0.1779
  870TIP3    H124245   2.154   5.918   1.640 -0.7862  1.4573 -0.5266
  870TIP3    H224246   2.240   5.956   1.758 -1.0208  0.9842 -0.1994
  871TIP3   OH224247   0.359   0.972   8.475  0.5980 -0.7181  0.1473
  871TIP3    H124248   0.279   0.926   8.448  0.1914  1.0571 -1.9879
  871TIP3    H224249   0.327   1.051   8.519  1.0118  0.9336 -2.3130
  872TIP3   OH224250   0.965   3.662   1.050 -0.4438  0.5056 -0.0586
  872TIP3    H124251   1.008   3.745   1.068 -1.6399  1.1733 -0.1925
  872TIP3    H224252   0.934   3.632   1.135 -0.5783  0.5121 -0.1057
  873TIP3   OH224253   1.593   2.555   8.171  0.3403  0.4371 -0.1312
  873TIP3    H124254   1.575   2.566   8.078 -0.4653  0.9353  0.0739
  873TIP3    H224255   1.667   2.613   8.188  1.7699 -1.0789 -0.8285
  874TIP3   OH224256   5.390   6.559   1.607 -0.1430  0.3048  0.1856
  874TIP3    H124257   5.343   6.526   1.531  0.1652 -1.4476  0.7144
  874TIP3    H224258   5.321   6.580   1.670 -0.3217 -0.1600  0.1515
  875TIP3   OH224259   6.629   1.527   2.542 -0.4211  0.0688  0.7183
  875TIP3    H124260   6.673   1.459   2.593  1.6207 -2.9502 -4.2950
  875TIP3    H224261   6.696   1.594   2.528 -0.0098 -0.5222 -0.2350
  876TIP3   OH224262   3.401   4.888   2.166  0.0597 -0.4811 -0.0425
  876TIP3    H124263   3.329   4.825   2.164  0.8044 -1.3934  0.8016
  876TIP3    H224264   3.480   4.834   2.174  0.6889  0.5767  1.1508
  877TIP3   OH224265   6.528   3.241   0.654  0.0085  0.0050 -0.4817
  877TIP3    H124266   6.601   3.186   0.627 -0.6276 -1.2027  0.1665
  877TIP3    H224267   6.478   3.186   0.716 -0.6556  1.3075  0.1765
  878TIP3   OH224268   1.731   2.874   1.143  0.2364  0.1475 -0.4945
  878TIP3    H124269   1.769   2.863   1.231 -0.7197  2.9984  0.3909
  878TIP3    H224270   1.676   2.797   1.131 -1.6158  0.7836  2.5751
  879TIP3   OH224271   3.960   3.921   0.011  0.0539 -0.7589  0.2996
  879TIP3    H124272   3.949   3.950  -0.080 -1.3770 -1.4181  0.2287
  879TIP3    H224273   4.031   3.975   0.045 -2.5304  3.0612  0.2460
  880TIP3   OH224274   1.579   6.248   2.604  0.2000 -0.7163 -0.0076
  880TIP3    H124275   1.593   6.270   2.696  0.2853 -0.1781 -0.1485
  880TIP3    H224276   1.666   6.251   2.565 -0.0529  1.0162 -0.5268
  881TIP3   OH224277   1.029   2.772   8.317  0.3735  1.0142 -0.0654
  881TIP3    H124278   1.067   2.691   8.284 -0.3690 -0.3539  2.1819
  881TIP3    H224279   0.977   2.806   8.244 -0.6099 -1.4367 -0.5934
  882TIP3   OH224280   0.419   3.686   7.534 -0.4807 -0.3282  0.2390
  882TIP3    H124281   0.404   3.635   7.614 -0.5029 -0.8269 -0.0834
  882TIP3    H224282   0.505   3.726   7.547 -1.0485  0.6856  1.0946
  883TIP3   OH224283   6.616   5.241   7.811  0.1974 -0.0617  0.1782
  883TIP3    H124284   6.645   5.172   7.752  0.3886  0.0701  0.1177
  883TIP3    H224285   6.693   5.262   7.863 -0.5243 -1.8220  2.1165
  884TIP3   OH224286   2.344   0.094   0.613 -0.4015 -0.0835  0.4168
  884TIP3    H124287   2.407   0.077   0.684 -1.0807 -1.7566  0.6770
  884TIP3    H224288   2.378   0.171   0.569  2.0914 -1.1539  0.2966
  885TIP3   OH224289   3.750   6.307   1.786  0.2493 -0.4036 -0.1094
  885TIP3    H124290   3.659   6.289   1.763 -0.3555  0.8331  1.1639
  885TIP3    H224291   3.781   6.225   1.825 -0.2479 -0.9002 -0.7373
  886TIP3   OH224292   6.002   5.365   2.091  0.7730 -0.2702 -0.3754
  886TIP3    H124293   5.927   5.417   2.063  0.8479 -0.1429 -0.3402
  886TIP3    H224294   6.078   5.414   2.059  0.9826  1.1240  2.0550
  887TIP3   OH224295   1.579   1.799   0.912  0.5742  0.2858  0.0079
  887TIP3    H124296   1.576   1.834   1.002 -2.6462  0.6011 -0.1120
  887TIP3    H224297   1.591   1.877   0.857  0.4601  0.3485  0.0710
  888TIP3   OH224298   5.410   0.572   8.268 -0.4511 -0.0375  0.0689
  888TIP3    H124299   5.377   0.650   8.222  1.2317 -0.6321 -2.3653
  888TIP3    H224300   5.394   0.591   8.361 -0.7635  2.9020 -0.4633
  889TIP3   OH224301   0.319   6.574   1.288  0.1078  0.0638 -0.7425
  889TIP3    H124302   0.317   6.606   1.378 -0.3322 -1.6447 -0.1182
  889TIP3    H224303   0.305   6.652   1.235  0.8549  1.1804  0.6379
  890TIP3   OH224304   4.741   5.166   8.505  0.0042  0.2020  0.6281
  890TIP3    H124305   4.665   5.110   8.520 -0.5827  0.8122  0.0518
  890TIP3    H224306   4.709   5.255   8.523  1.4185  0.2536  3.4209
  891TIP3   OH224307   3.778   5.385   2.258 -0.4971  0.0169 -0.2301
  891TIP3    H124308   3.835   5.452   2.295 -0.1894 -0.8812  0.9870
  891TIP3    H224309   3.833   5.338   2.195 -0.7599  0.9706 -1.2105
  892TIP3   OH224310   2.178   5.369   3.274  0.0633  0.0610  0.3803
  892TIP3    H124311   2.153   5.446   3.326 -1.0924 -0.0133 -0.0388
  892TIP3    H224312   2.233   5.404   3.204  1.2561  0.2235  1.3601
  893TIP3   OH224313   2.589   0.420   2.636 -0.6066 -0.0247 -0.0010
  893TIP3    H124314   2.632   0.338   2.658 -0.8050 -0.2170 -0.3068
  893TIP3    H224315   2.592   0.423   2.540  2.0769  1.7764  0.0425
  894TIP3   OH224316   2.438   2.505   2.789 -0.1684  0.6243  0.6747
  894TIP3    H124317   2.391   2.472   2.865  1.9231 -2.1373  0.9339
  894TIP3    H224318   2.392   2.468   2.714  0.3814 -0.3732  0.8254
  895TIP3   OH224319   3.860   3.443   8.434  0.1208 -0.6485 -0.9116
  895TIP3    H124320   3.855   3.457   8.339 -0.3217  1.1072 -0.6582
  895TIP3    H224321   3.923   3.508   8.464 -0.2291 -0.7604  0.0825
  896TIP3   OH224322   1.454   3.926   2.755  0.3534 -0.3416  0.2482
  896TIP3    H124323   1.536   3.971   2.737  0.2877 -0.0612  0.6449
  896TIP3    H224324   1.443   3.932   2.850 -0.3945  0.1009  0.1452
  897TIP3   OH224325   3.734   2.661   1.873  0.2333  0.4727 -0.1911
  897TIP3    H124326   3.718   2.642   1.966  3.3731 -0.6924  0.2061
  897TIP3    H224327   3.723   2.577   1.829  2.0069  0.2757 -0.3187
  898TIP3   OH224328   2.854   0.396   8.624 -0.1142  0.1851 -0.0051
  898TIP3    H124329   2.906   0.435   8.554 -0.8219  0.4153 -0.4205
  898TIP3    H224330   2.891   0.309   8.636 -1.2262 -0.6380 -2.0837
  899TIP3   OH224331   0.026   5.706   2.316  0.0950  0.2909  0.1546
  899TIP3    H124332   0.064   5.718   2.403  0.6118  1.7263 -0.2277
  899TIP3    H224333  -0.049   5.649   2.330  0.8901 -0.5007  1.3387
  900TIP3   OH224334   0.527   2.247   1.827  0.0267 -0.5507  0.1094
  900TIP3    H124335   0.555   2.157   1.843 -1.0080 -0.9273 -0.1319
  900TIP3    H224336   0.507   2.281   1.914  0.9384 -0.3675  0.2558
  901TIP3   OH224337   4.191   3.621   1.859  0.2006 -0.1369  0.7440
  901TIP3    H124338   4.142   3.702   1.878  0.6319  0.5738 -1.0404
  901TIP3    H224339   4.176   3.605   1.766 -0.2354 -2.3964  1.1343
  902TIP3   OH224340   4.176   0.996   2.672  0.0455  0.6901 -0.1963
  902TIP3    H124341   4.124   1.004   2.752  1.6452  2.0472  0.7751
  902TIP3    H224342   4.168   0.903   2.648 -2.2043  0.6920  0.2716
  903TIP3   OH224343   5.067   5.243   2.041  0.1896  0.0083  0.2887
  903TIP3    H124344   4.985   5.199   2.020 -1.0351  1.1184  2.4373
  903TIP3    H224345   5.107   5.260   1.956 -0.5426 -2.8116 -0.7077
  904TIP3   OH224346   3.072   6.514   2.173 -0.0107 -0.1373  0.5454
  904TIP3    H124347   3.145   6.459   2.201  1.2684  0.3888 -1.6047
  904TIP3    H224348   3.108   6.603   2.169 -0.9663  0.2495  0.1612
  905TIP3   OH224349   6.007   2.977   2.154  0.3807 -0.1332  0.2364
  905TIP3    H124350   6.063   3.053   2.167  0.3157 -0.0691  0.1416
  905TIP3    H224351   5.919   3.013   2.147  0.2749 -0.2644  0.8012
  906TIP3   OH224352   0.831   5.438   2.680  0.0031  0.4938 -0.4275
  906TIP3    H124353   0.896   5.371   2.657  0.9472  1.4623 -0.6581
  906TIP3    H224354   0.774   5.443   2.603  0.5735  0.6930 -0.8493
  907TIP3   OH224355   6.201   4.788   8.068 -0.4206 -0.0981 -0.2712
  907TIP3    H124356   6.138   4.821   8.133 -0.7598  0.1666 -0.7319
  907TIP3    H224357   6.147   4.747   8.001 -0.0631 -0.4234 -0.3642
  908TIP3   OH224358   1.070   5.863   0.242 -0.3872 -0.4755 -0.3294
  908TIP3    H124359   1.092   5.772   0.258 -0.1006 -0.3172  0.2102
  908TIP3    H224360   0.974   5.864   0.237 -0.3512 -0.9291 -1.1866
  909TIP3   OH224361   1.004   0.971   8.574  0.3965  0.2245 -0.4007
  909TIP3    H124362   1.024   1.044   8.514 -1.0386 -0.0659 -1.2891
  909TIP3    H224363   1.028   0.893   8.525  1.1357  0.0546  0.2206
  910TIP3   OH224364   2.110   0.965   0.422  0.1073 -0.2162 -0.5944
  910TIP3    H124365   2.193   0.941   0.464  1.3983 -0.6887 -3.2240
  910TIP3    H224366   2.135   1.031   0.357 -2.0181  1.5227  0.2425
  911TIP3   OH224367   3.722   4.707   1.894  0.1451  0.2091  0.2824
  911TIP3    H124368   3.809   4.712   1.853  0.9652  0.3989  1.9635
  911TIP3    H224369   3.738   4.664   1.978 -1.1751  1.4407  1.2031
  912TIP3   OH224370   5.924   1.864   8.170  0.1714 -0.0708  0.5091
  912TIP3    H124371   5.869   1.941   8.184  0.6921  0.4390 -0.1586
  912TIP3    H224372   6.011   1.900   8.151  0.2910 -0.8022 -0.4144
  913TIP3   OH224373   0.730   5.465   8.202 -0.5071 -0.2623 -0.3157
  913TIP3    H124374   0.739   5.548   8.249  0.1228 -0.7183  0.3864
  913TIP3    H224375   0.794   5.470   8.131 -0.1954 -0.2973 -0.0407
  914TIP3   OH224376   0.050   4.063   2.594  0.5790 -0.3069  0.1876
  914TIP3    H124377   0.138   4.100   2.586  0.8936 -1.2745 -1.2120
  914TIP3    H224378   0.001   4.128   2.645  1.6868  0.9674 -0.3175
  915TIP3   OH224379   1.770   1.332   0.665  0.1887 -0.6916  0.4169
  915TIP3    H124380   1.750   1.410   0.716  0.7611 -0.1760 -0.1389
  915TIP3    H224381   1.821   1.277   0.725 -1.8877 -1.5625  1.4953
  916TIP3   OH224382   6.541   2.611   0.127 -0.6082  0.2728  0.0185
  916TIP3    H124383   6.470   2.562   0.084 -1.6375  1.0401  0.7980
  916TIP3    H224384   6.514   2.617   0.218  0.5826  0.3914  0.3717
  917TIP3   OH224385   0.487   6.130   3.134 -0.4722  0.2671  1.1220
  917TIP3    H124386   0.546   6.113   3.207  2.2322 -2.1114 -1.3340
  917TIP3    H224387   0.429   6.054   3.131 -0.0407 -0.0515  0.4104
  918TIP3   OH224388   4.497   0.931   1.906  0.2739 -0.1226  0.1012
  918TIP3    H124389   4.574   0.965   1.950  0.0784  1.1643 -0.5189
  918TIP3    H224390   4.441   0.900   1.977  1.5054 -1.4640  0.5401
  919TIP3   OH224391   5.251   3.396   1.796 -0.1032 -0.2232 -0.2626
  919TIP3    H124392   5.267   3.396   1.890 -0.1255 -0.1257 -0.2584
  919TIP3    H224393   5.245   3.303   1.773 -1.7599 -0.2485  0.1315
  920TIP3   OH224394   2.213   0.770   1.066 -0.3736  0.2227 -0.1728
  920TIP3    H124395   2.246   0.680   1.066 -3.9983 -1.2921 -2.1308
  920TIP3    H224396   2.163   0.777   1.147 -0.8121  0.1803 -0.4404
  921TIP3   OH224397   4.999   6.448   8.300  0.6697 -0.1883 -0.3388
  921TIP3    H124398   4.928   6.391   8.271 -0.7132  2.0295 -1.6111
  921TIP3    H224399   5.053   6.460   8.221  1.6205 -0.6475  0.2250
  922TIP3   OH224400   1.908   2.807   0.197  0.3964 -0.6156  0.6291
  922TIP3    H124401   1.819   2.826   0.166  0.6872  0.5186  0.4478
  922TIP3    H224402   1.895   2.755   0.276 -0.3845 -2.6876 -0.7722
  923TIP3   OH224403   1.890   5.742   8.439  1.1371  0.0376 -0.1001
  923TIP3    H124404   1.889   5.817   8.498  0.7904 -0.8204  1.0199
  923TIP3    H224405   1.861   5.777   8.355 -0.9774  0.7952  0.8669
  924TIP3   OH224406   1.602   1.028   1.665  0.2870  0.2003  0.4620
  924TIP3    H124407   1.572   0.942   1.693  1.3907 -0.3939 -0.1066
  924TIP3    H224408   1.524   1.083   1.671 -0.7900 -1.1352 -0.3952
  925TIP3   OH224409   4.164   0.732   2.659  0.1793  0.0126  0.1456
  925TIP3    H124410   4.081   0.693   2.686  0.5721  0.1033  1.5869
  925TIP3    H224411   4.230   0.685   2.711  1.2652 -1.3311 -2.2705
  926TIP3   OH224412   3.795   6.805   7.537  0.5725 -0.3551  0.4756
  926TIP3    H124413   3.877   6.759   7.519 -0.4965 -2.6266  0.9825
  926TIP3    H224414   3.814   6.859   7.614  1.9700  0.3546 -0.3311
  927TIP3   OH224415   4.780   5.613   8.680  0.6770  0.1591 -0.0603
  927TIP3    H124416   4.804   5.704   8.699  1.6196  0.2212 -1.3781
  927TIP3    H224417   4.739   5.581   8.761  2.0766  1.1562  1.0998
  928TIP3   OH224418   0.100   6.449   7.142  0.6471 -0.3442 -0.5069
  928TIP3    H124419   0.049   6.389   7.197 -0.7830  1.9952  0.8915
  928TIP3    H224420   0.168   6.394   7.104 -0.0057 -2.6542  1.3964
  929TIP3   OH224421   4.682   4.415   2.473 -0.2273 -0.4521  0.0639
  929TIP3    H124422   4.701   4.367   2.554 -0.5091 -0.1433  0.3185
  929TIP3    H224423   4.603   4.465   2.494  1.6605  2.4835  0.8191
  930TIP3   OH224424   6.622   4.151   0.380 -0.5955 -0.1289 -0.2172
  930TIP3    H124425   6.527   4.140   0.385 -0.5901 -0.2462 -0.3618
  930TIP3    H224426   6.655   4.062   0.367 -0.3232 -0.4022  1.9817
  931TIP3   OH224427   5.437   0.341   0.226 -0.2678  0.3968 -0.8127
  931TIP3    H124428   5.422   0.424   0.180 -0.4517  0.3335 -0.8663
  931TIP3    H224429   5.419   0.362   0.318 -2.2219 -0.0552 -1.0603
  932TIP3   OH224430   0.676   5.519   1.275 -0.1189 -0.2191  0.5843
  932TIP3    H124431   0.711   5.438   1.238 -0.0855 -0.3307  0.8594
  932TIP3    H224432   0.728   5.588   1.234  2.7800 -0.4741  3.4189
  933TIP3   OH224433   4.432   0.505   6.963 -0.1689 -0.7191  0.4289
  933TIP3    H124434   4.451   0.449   6.888  0.8182 -2.5123  1.9354
  933TIP3    H224435   4.389   0.447   7.026 -1.8443  0.9711  0.9182
  934TIP3   OH224436   3.408   4.189   2.563  0.7278 -0.4417 -0.1372
  934TIP3    H124437   3.478   4.155   2.507  0.3791  0.0051 -0.8620
  934TIP3    H224438   3.441   4.273   2.595  0.1767  0.2202 -1.2318
  935TIP3   OH224439   3.427   4.857   0.679  0.4485 -0.0409  0.1719
  935TIP3    H124440   3.414   4.949   0.656 -0.9324 -0.5049 -1.1229
  935TIP3    H224441   3.422   4.811   0.595  0.9553 -1.3089  0.8125
  936TIP3   OH224442   6.570   0.308   8.386 -0.5593  0.0638  0.0650
  936TIP3    H124443   6.478   0.286   8.403 -0.8883  0.1823 -1.4129
  936TIP3    H224444   6.598   0.244   8.320  0.6752 -0.4697  1.0640
  937TIP3   OH224445   0.031   4.948   8.627 -0.2337 -0.6835  0.5353
  937TIP3    H124446   0.122   4.919   8.618 -0.3827 -1.7708  2.1190
  937TIP3    H224447   0.002   4.965   8.537  1.4965 -0.3738  0.0025
  938TIP3   OH224448   6.878   4.331   2.587  0.0950 -0.0031 -0.4926
  938TIP3    H124449   6.789   4.332   2.553 -0.4031 -0.0696  0.7950
  938TIP3    H224450   6.933   4.325   2.508 -0.9622  1.4504 -1.3932
  939TIP3   OH224451   3.939   0.783   8.214 -0.0855 -0.0565 -0.4719
  939TIP3    H124452   4.005   0.753   8.151 -0.5868 -1.9588 -0.1642
  939TIP3    H224453   3.972   0.751   8.299 -0.3933  0.7668 -0.0393
  940TIP3   OH224454   0.698   0.673   2.081  0.1649 -0.2347  0.4409
  940TIP3    H124455   0.664   0.675   1.991 -0.3285 -4.3778  0.3346
  940TIP3    H224456   0.628   0.710   2.134 -1.1203 -1.0853 -0.5931
  941TIP3   OH224457   5.547   3.509   2.150 -0.4306 -0.7776  0.2034
  941TIP3    H124458   5.554   3.592   2.196  1.8613 -0.0225 -1.3597
  941TIP3    H224459   5.602   3.449   2.199  0.7555 -0.3873 -0.6064
  942TIP3   OH224460   4.119   3.314   1.761 -0.5257  0.0968  0.7207
  942TIP3    H124461   4.159   3.385   1.709 -0.4778 -0.6785 -0.3263
  942TIP3    H224462   4.106   3.353   1.848 -2.5155  2.1121 -0.3871
  943TIP3   OH224463   3.352   3.490   0.681  0.4947 -0.0056 -0.5943
  943TIP3    H124464   3.275   3.529   0.722  0.8210  0.8743 -0.7999
  943TIP3    H224465   3.426   3.524   0.732  0.6738 -2.3983  0.8760
  944TIP3   OH224466   1.432   1.206   1.079 -0.1790 -0.4183  0.3902
  944TIP3    H124467   1.517   1.210   1.124 -0.2262  1.0475  0.3998
  944TIP3    H224468   1.435   1.124   1.031  1.4754 -0.1691 -0.0126
  945TIP3   OH224469   4.632   5.673   0.674  0.1666 -0.0231 -0.5811
  945TIP3    H124470   4.584   5.644   0.597 -1.6941 -0.4223  0.6735
  945TIP3    H224471   4.600   5.618   0.745  0.0789  1.8728  0.9333
  946TIP3   OH224472   5.083   4.904   7.420 -0.5728  0.2903  0.7052
  946TIP3    H124473   5.155   4.841   7.415 -1.8786 -1.1458 -1.3174
  946TIP3    H224474   5.009   4.853   7.453 -1.4115  0.9885 -0.0572
  947TIP3   OH224475   4.934   5.735   8.173  0.5142 -0.0401 -0.1425
  947TIP3    H124476   5.013   5.786   8.153  1.1927 -0.6053  0.9646
  947TIP3    H224477   4.955   5.691   8.255  0.1699 -2.5766 -1.3271
  948TIP3   OH224478   2.105   4.569   1.722 -0.3551 -0.3336  0.7126
  948TIP3    H124479   2.088   4.560   1.628 -1.1774  0.3231  0.7942
  948TIP3    H224480   2.191   4.612   1.727  1.4525 -3.5352  0.2954
  949TIP3   OH224481   4.322   6.680   1.772  0.5288  0.2400 -0.2307
  949TIP3    H124482   4.330   6.623   1.848 -1.4043 -0.4232 -0.4637
  949TIP3    H224483   4.283   6.624   1.704  3.1200  0.5089 -2.0953
  950TIP3   OH224484   5.096   6.276   1.828  0.3792  0.1437  0.0309
  950TIP3    H124485   5.011   6.248   1.863 -0.1341  0.6619 -0.7875
  950TIP3    H224486   5.105   6.366   1.858  0.2052  0.3989 -0.6828
  951TIP3   OH224487   1.360   3.527   2.617  0.3011  0.0864 -0.4090
  951TIP3    H124488   1.332   3.556   2.530  1.0661  0.7363 -0.4442
  951TIP3    H224489   1.450   3.556   2.625 -0.2523  1.5305  1.2478
  952TIP3   OH224490   3.319   6.489   2.299  0.5252  0.6304 -0.1887
  952TIP3    H124491   3.280   6.546   2.365  0.8795  3.2772 -2.1422
  952TIP3    H224492   3.413   6.493   2.315  0.4940 -0.4648  0.4115
  953TIP3   OH224493   2.272   2.020   7.961  0.0877  0.8614 -0.1164
  953TIP3    H124494   2.281   1.930   7.932  1.6323  0.5935  1.1021
  953TIP3    H224495   2.188   2.049   7.924 -0.4296 -1.0519 -0.5250
  954TIP3   OH224496   5.402   3.225   8.003  0.3093  0.4830 -0.5695
  954TIP3    H124497   5.318   3.246   8.043 -0.9496 -3.3298 -0.8178
  954TIP3    H224498   5.467   3.261   8.064 -1.5231  0.1971  1.7134
  955TIP3   OH224499   4.812   5.984   2.016  0.3544  0.3483  0.4211
  955TIP3    H124500   4.730   6.029   2.000  0.1592 -0.1819 -0.1178
  955TIP3    H224501   4.865   6.001   1.938  0.4415  0.0184  0.4052
  956TIP3   OH224502   4.728   4.288   7.925 -0.0093  0.1663 -0.6999
  956TIP3    H124503   4.731   4.203   7.880  2.0900 -0.1908 -0.0318
  956TIP3    H224504   4.682   4.270   8.007 -1.3532  0.1646 -1.4360
  957TIP3   OH224505   0.351   0.255   2.696  0.1499  0.0193 -0.1332
  957TIP3    H124506   0.325   0.340   2.663  4.7147  2.8725  2.5867
  957TIP3    H224507   0.307   0.248   2.781 -0.0301 -0.2395 -0.2466
  958TIP3   OH224508   0.495   6.553   0.129  0.5232 -0.1143 -0.3971
  958TIP3    H124509   0.413   6.503   0.124  0.6981 -0.5910  0.9429
  958TIP3    H224510   0.520   6.568   0.038 -0.4600 -0.9396 -0.8285
  959TIP3   OH224511   0.410   1.219   0.419 -0.1749  0.0968 -0.4775
  959TIP3    H124512   0.503   1.203   0.429 -0.0913  0.6846 -0.2690
  959TIP3    H224513   0.398   1.311   0.445 -0.7687  0.1009 -0.7377
  960TIP3   OH224514   0.408   5.630   2.482  0.2028  0.1320 -0.4471
  960TIP3    H124515   0.487   5.577   2.469  0.4667  0.4774 -0.2784
  960TIP3    H224516   0.440   5.710   2.523 -0.2877  0.1108 -0.0167
  961TIP3   OH224517   1.331   1.230   1.549  0.5333  0.0247  0.0246
  961TIP3    H124518   1.298   1.204   1.463  1.2707 -2.2514  0.3592
  961TIP3    H224519   1.265   1.198   1.610  0.1065  1.4654  0.3474
  962TIP3   OH224520   0.212   0.653   2.203  0.3129 -0.0400 -0.7324
  962TIP3    H124521   0.219   0.563   2.234 -0.9365 -0.1117 -0.6291
  962TIP3    H224522   0.156   0.648   2.125 -1.4987  0.8816  0.4443
  963TIP3   OH224523   4.973   0.624   7.930 -0.1653  0.1338  0.0393
  963TIP3    H124524   5.034   0.693   7.956 -0.0601  0.2819 -0.5707
  963TIP3    H224525   4.892   0.645   7.977  0.3944 -0.3508  1.2362
  964TIP3   OH224526   6.196   4.765   0.433 -0.5370  0.1548  0.3011
  964TIP3    H124527   6.186   4.683   0.482 -2.0979  0.3403  0.3407
  964TIP3    H224528   6.291   4.773   0.418 -0.4707 -2.7633 -1.6349
  965TIP3   OH224529   1.375   0.388   2.480  0.0554  0.3700 -0.1010
  965TIP3    H124530   1.326   0.455   2.528  0.6653  0.7503 -0.0024
  965TIP3    H224531   1.446   0.364   2.539 -0.7377 -1.1052  0.2921
  966TIP3   OH224532   0.079   2.513   8.614 -0.2517  0.1674  0.2913
  966TIP3    H124533  -0.002   2.536   8.568 -0.3092  2.0450  1.2381
  966TIP3    H224534   0.055   2.513   8.706  0.9188  1.3644  0.6368
  967TIP3   OH224535   6.408   2.338   3.532  0.0987 -0.6033  0.6447
  967TIP3    H124536   6.420   2.305   3.621  0.5200 -2.7900 -0.1595
  967TIP3    H224537   6.496   2.363   3.504  0.0149 -0.2101  0.7295
  968TIP3   OH224538   2.225   6.021   1.930 -0.2932 -0.1520 -0.4886
  968TIP3    H124539   2.139   6.062   1.925 -0.6037 -0.7833 -0.3876
  968TIP3    H224540   2.244   6.017   2.024 -0.4933 -0.7094 -0.4708
  969TIP3   OH224541   1.294   1.445   1.740 -0.6923  0.0859 -0.2584
  969TIP3    H124542   1.353   1.513   1.774 -0.7976  0.9920 -1.7960
  969TIP3    H224543   1.351   1.370   1.726 -0.1118  0.5627 -0.5502
  970TIP3   OH224544   6.526   3.511   2.873  0.6232 -0.4098  0.3574
  970TIP3    H124545   6.548   3.430   2.919  0.2703  0.0550  1.3679
  970TIP3    H224546   6.433   3.524   2.892  0.2437 -0.6382 -1.1808
  971TIP3   OH224547   1.596   1.556   0.098 -0.5071  1.2438 -0.3099
  971TIP3    H124548   1.609   1.469   0.061  0.2439  0.8555  0.8023
  971TIP3    H224549   1.681   1.580   0.135 -0.3257  3.0313 -1.7196
  972TIP3   OH224550   6.541   6.500   1.614 -0.0025  0.4167  0.5211
  972TIP3    H124551   6.467   6.526   1.560  0.0372 -0.1811  0.1718
  972TIP3    H224552   6.617   6.540   1.572 -0.0573  0.5548  0.5526
  973TIP3   OH224553   6.134   3.657   1.913  0.3050 -0.1206 -0.1265
  973TIP3    H124554   6.090   3.608   1.982  1.9650 -3.4064 -1.1848
  973TIP3    H224555   6.070   3.664   1.843 -0.2102 -0.0782  0.3451
  974TIP3   OH224556   2.384   4.894   3.363 -0.1102  0.2238 -0.0669
  974TIP3    H124557   2.368   4.802   3.386  1.9534  0.0592  0.9939
  974TIP3    H224558   2.340   4.943   3.433  0.7623 -0.0595  0.6985
  975TIP3   OH224559   4.166   3.347   2.057 -0.1466 -0.3401 -0.1081
  975TIP3    H124560   4.072   3.334   2.043 -0.2778 -0.6957  1.0380
  975TIP3    H224561   4.173   3.439   2.084  0.1342  0.4253 -2.5106
  976TIP3   OH224562   0.399   1.845   7.869 -0.6219  0.3545 -0.0428
  976TIP3    H124563   0.478   1.860   7.817  0.3990 -0.7970  1.1194
  976TIP3    H224564   0.330   1.834   7.804  0.3456  0.4029 -1.1231
  977TIP3   OH224565   2.529   2.573   7.300  0.2053 -0.1399 -0.1456
  977TIP3    H124566   2.599   2.543   7.241  1.1891  1.4733  0.1508
  977TIP3    H224567   2.489   2.646   7.253  0.6839  0.8455  0.9460
  978TIP3   OH224568   1.301   5.808   2.429  0.4609  0.0980 -0.2206
  978TIP3    H124569   1.209   5.822   2.448  0.0069 -0.5951 -1.7322
  978TIP3    H224570   1.340   5.895   2.431 -0.3445  0.4637 -0.1628
  979TIP3   OH224571   5.376   3.101   1.957 -0.1666  0.0132  0.4699
  979TIP3    H124572   5.437   3.099   2.031  0.0308 -1.2601  0.2873
  979TIP3    H224573   5.349   3.193   1.952  1.0904  0.4512  1.0823
  980TIP3   OH224574   4.575   2.164   0.921 -0.3505  0.1823 -0.7064
  980TIP3    H124575   4.619   2.240   0.884  2.6104 -0.3299  1.3799
  980TIP3    H224576   4.641   2.094   0.919 -2.4845 -1.9843 -1.2557
  981TIP3   OH224577   4.337   5.832   1.339 -0.1008  0.7031  0.1941
  981TIP3    H124578   4.413   5.779   1.363 -0.1945  0.0058 -0.9721
  981TIP3    H224579   4.341   5.838   1.243 -1.0031  1.4360  0.1885
  982TIP3   OH224580   3.632   4.330   0.187 -0.2930 -0.4217  0.1339
  982TIP3    H124581   3.599   4.246   0.155 -1.8339  0.2018 -0.0408
  982TIP3    H224582   3.703   4.352   0.127 -1.0030 -0.8127 -0.8969
  983TIP3   OH224583   1.959   5.524   1.315  0.7627 -0.4930 -0.1613
  983TIP3    H124584   1.871   5.487   1.314  1.3223 -2.2060  3.0116
  983TIP3    H224585   1.997   5.496   1.231 -1.2757 -0.7388 -1.0654
  984TIP3   OH224586   2.830   5.960   2.985  0.4632  0.2551 -0.9890
  984TIP3    H124587   2.840   6.051   3.011  0.4886 -0.3559  1.2986
  984TIP3    H224588   2.821   5.912   3.067 -0.0403 -1.7579 -2.1583
  985TIP3   OH224589   0.709   0.029   2.337 -0.6249  0.0144 -0.4303
  985TIP3    H124590   0.647   0.085   2.383 -0.7901 -1.2999  1.0413
  985TIP3    H224591   0.793   0.047   2.377 -0.3927  0.3675 -1.0665
  986TIP3   OH224592   1.621   0.610   2.635  0.1291 -0.3622  0.0947
  986TIP3    H124593   1.607   0.558   2.715 -0.3802 -0.5401 -0.1054
  986TIP3    H224594   1.694   0.668   2.657 -1.3367  1.0661  1.4022
  987TIP3   OH224595   2.000   6.441   1.026  0.1955 -0.1088 -0.3849
  987TIP3    H124596   2.070   6.439   1.092  0.4162 -0.7798 -0.6218
  987TIP3    H224597   2.035   6.496   0.956 -0.0117  0.5496  0.0222
  988TIP3   OH224598   3.846   6.838   2.852  0.1198 -0.7695 -0.5063
  988TIP3    H124599   3.909   6.879   2.911  1.3932 -3.4581  0.1771
  988TIP3    H224600   3.898   6.807   2.778 -1.0211  0.0713 -1.7159
  989TIP3   OH224601   3.255   6.225   0.958 -0.3058 -0.0340  0.4106
  989TIP3    H124602   3.178   6.229   1.014  0.0431  0.9547  0.8487
  989TIP3    H224603   3.249   6.304   0.904 -0.4621 -0.7995 -0.7280
  990TIP3   OH224604   6.684   5.393   2.593  0.4542 -0.1729 -0.0392
  990TIP3    H124605   6.663   5.419   2.683  2.0711  0.8280  0.0926
  990TIP3    H224606   6.759   5.334   2.602  0.2653 -0.5213 -0.6984
  991TIP3   OH224607   1.932   1.652   0.406  0.1706  0.6768  0.5710
  991TIP3    H124608   1.850   1.680   0.447  0.4837  0.9852  0.9940
  991TIP3    H224609   1.910   1.641   0.314 -1.4529 -3.4505  1.2711
  992TIP3   OH224610   5.849   3.833   7.807  0.7363  1.0427 -0.2114
  992TIP3    H124611   5.832   3.860   7.898 -0.8911 -0.8524  0.1003
  992TIP3    H224612   5.780   3.875   7.756  0.0904  0.0683 -0.1698
  993TIP3   OH224613   2.409   2.864   0.852  1.3594 -0.3044  0.0191
  993TIP3    H124614   2.485   2.810   0.832  1.9068 -0.0535  1.3036
  993TIP3    H224615   2.393   2.914   0.772  2.0060 -0.9862 -0.5517
  994TIP3   OH224616   4.158   2.738   0.406  0.1047 -0.5115  0.3786
  994TIP3    H124617   4.157   2.645   0.385 -0.0327 -0.3355 -0.4325
  994TIP3    H224618   4.212   2.778   0.338 -0.7146  0.1382  0.0905
  995TIP3   OH224619   3.021   0.800   7.892  0.1995 -0.1542  0.1794
  995TIP3    H124620   2.952   0.840   7.839 -0.3099  1.2234  1.8241
  995TIP3    H224621   3.087   0.771   7.828 -1.3211 -0.4093 -1.3305
  996TIP3   OH224622   0.907   1.832   0.841 -0.3054  0.3959 -0.1868
  996TIP3    H124623   0.924   1.868   0.928 -0.4044  0.2048 -0.0868
  996TIP3    H224624   0.963   1.754   0.836  0.8813  1.2428 -0.8847
  997TIP3   OH224625   5.986   5.947   1.870  0.1835 -0.3502 -0.3425
  997TIP3    H124626   5.999   5.877   1.935  0.2646 -0.3969 -0.4095
  997TIP3    H224627   6.074   5.978   1.850  0.0971  0.4918  0.4710
  998TIP3   OH224628   6.106   0.972   0.825 -0.5021  0.9731  0.1521
  998TIP3    H124629   6.184   0.980   0.879  0.5492 -2.7691 -0.5246
  998TIP3    H224630   6.038   0.941   0.886  0.4667 -2.4176 -0.2679
  999TIP3   OH224631   2.774   3.088   1.258 -0.4932  0.2262  0.7056
  999TIP3    H124632   2.688   3.130   1.263 -1.0010 -0.7878  0.7915
  999TIP3    H224633   2.834   3.158   1.234 -1.4431  0.8215  0.0249
 1000TIP3   OH224634   6.133   0.179   0.096 -0.1613  0.4055  0.2242
 1000TIP3    H124635   6.159   0.089   0.112 -0.4058  0.1146 -0.9321
 1000TIP3    H224636   6.203   0.231   0.137  0.0272 -0.2963  0.8176
 1001TIP3   OH224637   0.232   5.286   1.927 -0.1268 -0.2614 -0.2283
 1001TIP3    H124638   0.184   5.360   1.889  0.4876  0.1660 -0.2019
 1001TIP3    H224639   0.324   5.303   1.904  0.1227 -0.5591  0.5189
 1002TIP3   OH224640   2.034   4.363   8.041 -0.0971 -0.3443  0.7881
 1002TIP3    H124641   1.972   4.367   7.969 -0.6113  1.0659  1.2669
 1002TIP3    H224642   2.016   4.280   8.084 -1.9761  0.1860  1.1478
 1003TIP3   OH224643   5.368   0.997   8.258  0.3290 -0.2443 -0.0987
 1003TIP3    H124644   5.404   1.076   8.299  1.3451 -1.1006  0.7069
 1003TIP3    H224645   5.377   1.014   8.164  1.3442  0.2621  0.0682
 1004TIP3   OH224646   1.168   2.496   2.162  0.1649 -0.0398  0.3089
 1004TIP3    H124647   1.120   2.442   2.224  0.0331  0.2387  0.4553
 1004TIP3    H224648   1.143   2.463   2.076 -0.4640  0.2417  0.3751
 1005TIP3   OH224649   3.917   6.499   8.036  0.3270 -0.3068 -0.5680
 1005TIP3    H124650   3.835   6.546   8.056  1.4078  1.5725 -0.2895
 1005TIP3    H224651   3.917   6.491   7.941  0.1008  0.2520 -0.6201
 1006TIP3   OH224652   3.015   1.141   0.099  0.4222 -0.1033  0.0343
 1006TIP3    H124653   3.015   1.236   0.114  1.9306 -0.1360  0.3129
 1006TIP3    H224654   2.980   1.105   0.181 -1.1816  0.2282 -0.4582
 1007TIP3   OH224655   0.266   5.531   0.367  0.5047 -0.2744 -0.0626
 1007TIP3    H124656   0.265   5.626   0.366 -2.7102 -0.2141 -0.7443
 1007TIP3    H224657   0.174   5.505   0.367  1.2395 -3.4113  1.0813
 1008TIP3   OH224658   2.970   4.478   1.137 -0.0155 -0.4984 -0.1578
 1008TIP3    H124659   2.959   4.393   1.181 -0.2045 -0.1204  0.5309
 1008TIP3    H224660   3.063   4.499   1.150  0.3805 -1.2632 -1.5594
 1009TIP3   OH224661   3.040   3.111   1.915  0.1837  0.3467  0.7146
 1009TIP3    H124662   3.087   3.160   1.982  1.9205  0.4620 -0.5141
 1009TIP3    H224663   3.065   3.020   1.930  0.7377  0.3937  0.1436
 1010TIP3   OH224664   4.854   5.941   2.307 -0.4152 -0.4249 -0.2183
 1010TIP3    H124665   4.897   6.024   2.328  0.2927 -0.6000 -0.9491
 1010TIP3    H224666   4.840   5.944   2.212 -0.1339 -1.2549 -0.2946
 1011TIP3   OH224667   4.445   5.068   1.116  0.4952  0.3213  0.3168
 1011TIP3    H124668   4.453   4.973   1.128 -0.8788 -0.1848 -2.1323
 1011TIP3    H224669   4.374   5.094   1.175 -3.1153 -1.2972 -2.8745
 1012TIP3   OH224670   5.327   1.432   2.353 -0.2794 -0.0158 -0.3826
 1012TIP3    H124671   5.385   1.449   2.428 -0.8833 -1.1575  0.3732
 1012TIP3    H224672   5.285   1.516   2.336 -0.5004  0.1613  0.8975
 1013TIP3   OH224673   4.476   3.196   2.608  1.1818 -0.1196  0.0081
 1013TIP3    H124674   4.489   3.289   2.588  2.3568 -0.3646 -0.4477
 1013TIP3    H224675   4.526   3.181   2.689 -0.0008 -0.1050  0.7734
 1014TIP3   OH224676   3.214   4.515   7.437  0.0857 -0.0097 -0.0447
 1014TIP3    H124677   3.173   4.558   7.362 -0.2909 -1.7756 -0.9280
 1014TIP3    H224678   3.142   4.466   7.478  0.1710  1.3489  1.8314
 1015TIP3   OH224679   1.593   0.901   8.594  0.1760 -0.7350 -0.1479
 1015TIP3    H124680   1.620   0.992   8.583 -0.5862 -0.3961  0.6440
 1015TIP3    H224681   1.641   0.870   8.671  0.9413 -1.2235 -0.8044
 1016TIP3   OH224682   2.500   4.011   0.930 -0.2943 -0.4421 -0.2725
 1016TIP3    H124683   2.529   3.927   0.894 -1.5932 -1.5388  1.1367
 1016TIP3    H224684   2.539   4.077   0.871  0.3461 -2.0245 -1.6985
 1017TIP3   OH224685   6.565   5.731   3.094  0.5801  0.2245 -0.2733
 1017TIP3    H124686   6.478   5.744   3.133  0.6356  1.8160 -0.6001
 1017TIP3    H224687   6.548   5.691   3.009 -0.0424  2.4883 -1.2715
 1018TIP3   OH224688   4.748   0.526   0.818 -0.4802  0.4729 -0.2841
 1018TIP3    H124689   4.759   0.615   0.784 -2.5259  2.2273  3.0864
 1018TIP3    H224690   4.837   0.494   0.830  0.3172  1.5891 -2.4956
 1019TIP3   OH224691   4.336   6.402   0.480  0.3072  0.0882  0.4847
 1019TIP3    H124692   4.320   6.497   0.487  1.5838  0.2247  1.9412
 1019TIP3    H224693   4.430   6.392   0.494  0.5813 -1.2416 -1.7619
 1020TIP3   OH224694   5.245   1.926   8.679 -0.3464  0.0366 -0.5804
 1020TIP3    H124695   5.229   1.993   8.745  0.1380 -0.1077 -0.3064
 1020TIP3    H224696   5.163   1.877   8.674 -0.3611 -0.0093 -0.0109
 1021TIP3   OH224697   2.388   5.222   2.379  0.2058 -0.3551  0.1228
 1021TIP3    H124698   2.337   5.166   2.437  0.7362  1.6051  2.6611
 1021TIP3    H224699   2.329   5.295   2.360  0.6468 -0.1277 -0.3912
 1022TIP3   OH224700   6.797   6.174   8.318  0.3209  0.0543 -0.0285
 1022TIP3    H124701   6.805   6.262   8.281  0.5420  0.5841  1.2484
 1022TIP3    H224702   6.872   6.126   8.283  1.9224  1.2493  1.5985
 1023TIP3   OH224703   1.380   4.941   1.526 -0.3139  0.3663  0.1063
 1023TIP3    H124704   1.354   4.863   1.577 -4.3199  0.9782 -0.6785
 1023TIP3    H224705   1.356   5.015   1.581  0.7730  1.0746 -0.3389
 1024TIP3   OH224706   4.419   2.393   7.454  0.1802 -0.6262  0.3055
 1024TIP3    H124707   4.354   2.421   7.390  0.4313 -2.6524 -0.9090
 1024TIP3    H224708   4.493   2.361   7.402  1.3131 -0.3011  1.6431
 1025TIP3   OH224709   3.714   6.823   1.812  0.1060 -0.0005 -0.8325
 1025TIP3    H124710   3.637   6.852   1.861  0.9641  0.2548  0.4287
 1025TIP3    H224711   3.728   6.733   1.841 -0.4816 -0.5051 -2.0702
 1026TIP3   OH224712   5.345   5.552   1.951  0.0052 -0.1518 -0.0960
 1026TIP3    H124713   5.411   5.586   1.890 -0.0010  1.2145  0.6200
 1026TIP3    H224714   5.352   5.457   1.943  3.0064 -0.1189  0.9405
 1027TIP3   OH224715   0.705   3.257   0.612  0.0918 -0.3150  0.0402
 1027TIP3    H124716   0.612   3.257   0.634 -0.2888 -0.4808 -1.4564
 1027TIP3    H224717   0.741   3.186   0.665 -0.4417  0.3148  1.2951
 1028TIP3   OH224718   0.557   5.612   7.780  0.2389  0.0848 -0.2411
 1028TIP3    H124719   0.514   5.533   7.813  0.3974  0.6471  1.3839
 1028TIP3    H224720   0.628   5.578   7.724  1.1629 -0.9935  1.4984
 1029TIP3   OH224721   0.191   6.810   2.796 -0.2278 -0.1019 -0.4111
 1029TIP3    H124722   0.145   6.893   2.781 -0.2163  0.2162  1.1678
 1029TIP3    H224723   0.136   6.762   2.858  1.2923  0.0979  1.1606
 1030TIP3   OH224724   0.400   3.118   3.014 -0.2310 -0.5616 -0.0698
 1030TIP3    H124725   0.367   3.153   3.097 -0.6361 -1.0341 -0.0288
 1030TIP3    H224726   0.484   3.162   3.001  0.6827 -1.7417  1.4645
 1031TIP3   OH224727   3.249   6.572   2.576  0.1931 -0.3067  0.2029
 1031TIP3    H124728   3.154   6.574   2.589  0.0531 -0.2951 -0.7676
 1031TIP3    H224729   3.285   6.560   2.664 -0.7125 -0.4567  0.5618
 1032TIP3   OH224730   4.928   2.181   1.682 -0.2344 -0.1401 -0.1380
 1032TIP3    H124731   4.859   2.240   1.652 -0.1909  0.4337  0.8390
 1032TIP3    H224732   4.883   2.116   1.736 -0.4079 -1.5696 -1.9383
 1033TIP3   OH224733   2.566   3.295   3.144  0.1591 -0.4871  0.2519
 1033TIP3    H124734   2.538   3.209   3.114  0.6556 -0.5908  0.0711
 1033TIP3    H224735   2.658   3.283   3.170  0.0098 -0.1872  0.9486
 1034TIP3   OH224736   5.668   3.748   1.409 -0.2525 -0.5350 -0.3675
 1034TIP3    H124737   5.603   3.818   1.418 -1.4140 -1.5264 -0.8709
 1034TIP3    H224738   5.657   3.695   1.488  2.3066  1.1353  1.2733
 1035TIP3   OH224739   3.764   3.972   7.716  0.4367  0.6444  0.2854
 1035TIP3    H124740   3.698   3.917   7.674 -2.7431  3.6623  0.8520
 1035TIP3    H224741   3.837   3.973   7.655 -0.5993 -1.7484 -1.0995
 1036TIP3   OH224742   1.497   5.975   1.958  0.5583  0.4032  0.1236
 1036TIP3    H124743   1.408   5.942   1.965  0.1482  1.2005 -1.0928
 1036TIP3    H224744   1.540   5.944   2.038 -0.7492 -0.1164  0.6555
 1037TIP3   OH224745   3.738   2.129   7.192  0.2098 -0.3043 -0.1225
 1037TIP3    H124746   3.808   2.107   7.253  1.7789  0.1632 -1.6916
 1037TIP3    H224747   3.728   2.052   7.137 -0.3903 -0.2897 -0.0501
 1038TIP3   OH224748   0.823   6.792   8.640 -0.1560  0.3700 -0.1692
 1038TIP3    H124749   0.870   6.783   8.723 -0.0218 -1.7571 -0.4301
 1038TIP3    H224750   0.856   6.874   8.603  0.0307  1.1840  1.6967
 1039TIP3   OH224751   1.076   6.732   2.961 -0.1883  0.0981  0.7328
 1039TIP3    H124752   1.085   6.728   2.866  1.2342  1.3724  0.7736
 1039TIP3    H224753   1.166   6.744   2.993 -0.8140  1.4883  2.1013
 1040TIP3   OH224754   0.784   4.732   2.179 -0.0013  0.1530  0.3583
 1040TIP3    H124755   0.764   4.825   2.172 -0.9071 -0.1141 -0.7893
 1040TIP3    H224756   0.823   4.709   2.095  0.7181 -0.4034  0.8276
 1041TIP3   OH224757   6.348   6.753   3.216 -0.1657 -1.0049  0.5044
 1041TIP3    H124758   6.395   6.786   3.292 -0.7334  1.4008 -0.0723
 1041TIP3    H224759   6.314   6.832   3.173  0.7727 -2.1573 -2.6737
 1042TIP3   OH224760   4.015   0.522   0.818 -0.0400 -0.1280  0.0468
 1042TIP3    H124761   3.942   0.525   0.756 -1.0483  2.1625  1.2089
 1042TIP3    H224762   4.091   0.500   0.765 -1.1451 -0.0229 -1.6699
 1043TIP3   OH224763   6.887   2.203   0.287 -0.2679  0.2083  0.3404
 1043TIP3    H124764   6.862   2.175   0.375 -0.1861  0.5489  0.4732
 1043TIP3    H224765   6.943   2.132   0.255 -0.5675 -0.0761  0.4314
 1044TIP3   OH224766   6.161   6.685   2.303  0.4172  0.8692  0.0682
 1044TIP3    H124767   6.093   6.752   2.298 -0.5347 -0.0777 -0.1155
 1044TIP3    H224768   6.150   6.646   2.390  1.4647  1.4511  0.4725
 1045TIP3   OH224769   0.945   4.552   2.566  0.1927  0.4041 -0.0604
 1045TIP3    H124770   1.029   4.591   2.544 -0.0733  0.4541 -1.0278
 1045TIP3    H224771   0.882   4.623   2.556 -0.0992  0.1048 -0.3800
 1046TIP3   OH224772   0.890   6.866   0.932 -0.4499  0.5086 -0.4800
 1046TIP3    H124773   0.901   6.954   0.895 -0.9448  0.3324 -1.0706
 1046TIP3    H224774   0.977   6.827   0.929  0.3698  1.8858  2.2212
 1047TIP3   OH224775   6.493   0.161   7.309 -0.8254  0.3115 -0.0407
 1047TIP3    H124776   6.447   0.221   7.368 -1.1242  0.8188 -0.7827
 1047TIP3    H224777   6.508   0.212   7.230  1.6522  0.4123  0.4177
 1048TIP3   OH224778   5.509   6.026   8.653  0.2726 -0.1002  0.5126
 1048TIP3    H124779   5.547   6.102   8.695  0.8694  1.1255 -2.0646
 1048TIP3    H224780   5.574   5.997   8.589 -0.9684 -1.1853 -0.3458
 1049TIP3   OH224781   3.533   4.433   0.879 -0.3462  0.4495 -0.1819
 1049TIP3    H124782   3.513   4.522   0.911  0.5952  0.5629  0.1172
 1049TIP3    H224783   3.447   4.392   0.868 -0.7588  0.8831  1.1506
 1050TIP3   OH224784   6.176   0.829   7.772  0.3168  0.2281 -0.3424
 1050TIP3    H124785   6.192   0.752   7.717 -0.4664  0.3143 -0.7207
 1050TIP3    H224786   6.126   0.796   7.846  1.5752  0.0743  0.4559
 1051TIP3   OH224787   1.592   6.010   0.940  0.1353  0.0689 -0.2955
 1051TIP3    H124788   1.573   5.974   1.026  1.8584 -0.0449  0.0707
 1051TIP3    H224789   1.543   6.092   0.936  1.3123  0.9174  1.4777
 1052TIP3   OH224790   3.484   6.812   2.019  0.4974 -0.1811  0.1255
 1052TIP3    H124791   3.415   6.860   2.064  1.4126  1.6047 -0.3031
 1052TIP3    H224792   3.441   6.731   1.990 -1.1962  0.5235  0.5450
 1053TIP3   OH224793   3.699   3.352   7.362  0.6067 -0.2839 -0.4994
 1053TIP3    H124794   3.715   3.403   7.283 -2.7283 -0.1086 -1.1947
 1053TIP3    H224795   3.669   3.266   7.330 -3.7725  0.7236  0.2658
 1054TIP3   OH224796   1.361   2.096   1.014 -0.3107 -1.0346 -0.2448
 1054TIP3    H124797   1.333   2.019   0.966  0.4897 -1.1288 -0.5860
 1054TIP3    H224798   1.385   2.160   0.947 -1.9070 -0.1042  0.0230
 1055TIP3   OH224799   1.173   1.288   0.753  0.3874  0.2481 -0.3521
 1055TIP3    H124800   1.147   1.341   0.677 -1.7028  0.5096  0.4906
 1055TIP3    H224801   1.125   1.206   0.742  1.8151 -0.6070 -0.4394
 1056TIP3   OH224802   2.407   6.528   0.519 -0.0223 -0.5946  0.0175
 1056TIP3    H124803   2.458   6.530   0.438 -0.9751 -1.7288 -0.6302
 1056TIP3    H224804   2.316   6.537   0.491 -0.3392 -0.6001  1.0042
 1057TIP3   OH224805   3.903   2.095   0.412  0.3821 -0.4562  0.1298
 1057TIP3    H124806   3.870   2.006   0.427  1.2151 -0.9152 -0.6985
 1057TIP3    H224807   3.996   2.083   0.394  0.8775  0.7456  1.6440
 1058TIP3   OH224808   2.397   6.252   2.484  0.0401 -0.4655  0.1349
 1058TIP3    H124809   2.319   6.205   2.514  0.5895 -1.2786  0.3390
 1058TIP3    H224810   2.409   6.323   2.548 -1.1668  0.3651 -0.5370
 1059TIP3   OH224811   1.299   5.785   0.089  1.0989 -0.1368  0.2673
 1059TIP3    H124812   1.261   5.871   0.107  0.2057 -0.6794  1.0890
 1059TIP3    H224813   1.224   5.725   0.089  1.8077 -1.0450  0.5979
 1060TIP3   OH224814   3.602   0.942   8.265  0.3535  0.4430 -0.0776
 1060TIP3    H124815   3.666   0.959   8.334 -0.7682  0.5472  0.9830
 1060TIP3    H224816   3.520   0.925   8.312 -0.9229  2.4526 -1.3804
 1061TIP3   OH224817   3.442   5.072   7.691 -0.0571  0.8316 -0.3572
 1061TIP3    H124818   3.376   5.141   7.693 -1.0676  0.0559 -2.8893
 1061TIP3    H224819   3.461   5.059   7.598  3.0843  0.4046  0.2029
 1062TIP3   OH224820   6.248   0.224   8.545  0.0787 -0.7147 -0.1279
 1062TIP3    H124821   6.209   0.222   8.632  0.3077  0.0087 -0.0001
 1062TIP3    H224822   6.324   0.167   8.551 -0.0436 -0.8536  0.0796
 1063TIP3   OH224823   3.203   0.564   8.133 -0.1891  0.0512 -1.0864
 1063TIP3    H124824   3.239   0.608   8.056 -1.1862  1.9917 -0.5170
 1063TIP3    H224825   3.109   0.572   8.124 -0.3313  0.2068  0.2571
 1064TIP3   OH224826   3.732   5.897   1.589 -0.3688 -0.2154 -0.0561
 1064TIP3    H124827   3.714   5.977   1.539  0.8579 -1.0413 -1.9333
 1064TIP3    H224828   3.662   5.837   1.565  0.1547 -0.5717 -0.7385
 1065TIP3   OH224829   0.505   2.331   8.550  0.3892 -0.4193  0.5174
 1065TIP3    H124830   0.417   2.314   8.582 -0.0174 -1.1235 -0.8980
 1065TIP3    H224831   0.552   2.248   8.561  0.0500 -0.8856 -1.2146
 1066TIP3   OH224832   5.458   1.790   1.910 -0.0497 -0.2370  0.1608
 1066TIP3    H124833   5.420   1.705   1.932  1.3475 -0.6953  0.9822
 1066TIP3    H224834   5.515   1.773   1.836  1.5332 -0.4207  1.3583
 1067TIP3   OH224835   0.465   4.090   0.391 -0.8684 -0.3229  0.5186
 1067TIP3    H124836   0.448   4.031   0.464  0.5413 -0.3873  0.8132
 1067TIP3    H224837   0.524   4.157   0.427 -0.7604  0.0654 -0.3596
 1068TIP3   OH224838   3.403   3.504   2.631 -0.3858  0.1535  0.1737
 1068TIP3    H124839   3.472   3.555   2.673  0.3420  0.5175 -1.3829
 1068TIP3    H224840   3.343   3.482   2.702  0.3744  1.3803  1.2465
 1069TIP3   OH224841   5.521   6.350   3.529  0.0627  0.8589  0.9507
 1069TIP3    H124842   5.612   6.321   3.528 -0.0815  0.1624  3.1665
 1069TIP3    H224843   5.527   6.444   3.544  0.4135  0.8811  0.7001
 1070TIP3   OH224844   3.130   1.542   3.590  0.3268  0.0009 -0.0653
 1070TIP3    H124845   3.113   1.572   3.680  0.3269 -0.1310 -0.0209
 1070TIP3    H224846   3.049   1.561   3.543  0.2905 -0.0218 -0.0129
 1071TIP3   OH224847   4.845   0.345   1.186 -0.0335  0.4107 -0.0387
 1071TIP3    H124848   4.819   0.437   1.175  1.5879  0.9814  0.5546
 1071TIP3    H224849   4.941   0.348   1.186  0.2086 -0.6830  4.3809
 1072TIP3   OH224850   3.876   3.720   1.508 -0.4532 -0.4932  0.1576
 1072TIP3    H124851   3.927   3.798   1.487  1.3523 -1.7693 -0.4200
 1072TIP3    H224852   3.788   3.753   1.525 -0.1478  1.4863 -1.6816
 1073TIP3   OH224853   0.942   0.333   0.391 -0.2459 -0.1822 -0.0839
 1073TIP3    H124854   0.916   0.247   0.359 -1.0797 -0.1654  0.5163
 1073TIP3    H224855   0.859   0.381   0.400  0.1533  0.4594  0.2254
 1074TIP3   OH224856   6.539   5.864   2.242  0.0880 -0.6147 -0.5513
 1074TIP3    H124857   6.618   5.881   2.294 -0.5321 -0.7026  0.4323
 1074TIP3    H224858   6.475   5.832   2.305 -0.5930 -1.0065 -1.4269
 1075TIP3   OH224859   1.655   3.451   8.515 -0.3935  0.0054 -0.6467
 1075TIP3    H124860   1.675   3.474   8.606  0.3954  2.0717 -1.3082
 1075TIP3    H224861   1.563   3.421   8.518 -0.8869  1.5300  0.5968
 1076TIP3   OH224862   0.541   3.469   0.190  0.5648  0.4564  0.8319
 1076TIP3    H124863   0.603   3.413   0.237  2.1572  1.7900  0.3877
 1076TIP3    H224864   0.520   3.419   0.111  0.6180 -0.2630  1.2620
 1077TIP3   OH224865   0.768   5.330   1.755 -0.2974  0.3194  0.2314
 1077TIP3    H124866   0.832   5.311   1.686  0.4196  2.2146  0.3096
 1077TIP3    H224867   0.804   5.289   1.834  0.4980  0.8187  0.1338
 1078TIP3   OH224868   2.708   6.195   7.509 -0.1477  0.0151 -0.4950
 1078TIP3    H124869   2.730   6.260   7.442  0.6280  0.1188 -0.1430
 1078TIP3    H224870   2.792   6.165   7.542 -0.5262  0.6776  1.1337
 1079TIP3   OH224871   5.056   1.624   0.962  0.4146 -0.3636 -0.2987
 1079TIP3    H124872   5.102   1.624   0.878 -0.8424  2.3790 -1.1000
 1079TIP3    H224873   4.969   1.589   0.941  0.7217 -1.5816  0.3393
 1080TIP3   OH224874   2.813   2.971   7.418 -0.1110 -0.0239  0.4365
 1080TIP3    H124875   2.736   2.930   7.379 -0.5929  1.4307 -0.1922
 1080TIP3    H224876   2.852   3.022   7.348  1.2083 -0.4059  0.8640
 1081TIP3   OH224877   6.228   0.821   0.403 -0.0163 -0.0157  0.4804
 1081TIP3    H124878   6.208   0.835   0.495  1.2849 -1.2162  0.9818
 1081TIP3    H224879   6.143   0.808   0.361 -0.5191 -1.1563  1.8098
 1082TIP3   OH224880   4.729   2.576   2.715 -0.2681  0.6569  0.4600
 1082TIP3    H124881   4.787   2.650   2.696 -0.4325  0.7625  0.3732
 1082TIP3    H224882   4.787   2.510   2.753 -0.1849  0.9632  0.8629
 1083TIP3   OH224883   3.153   6.599   1.606  0.2019  0.3570 -0.5430
 1083TIP3    H124884   3.210   6.536   1.562 -0.8220 -0.4181 -0.8173
 1083TIP3    H224885   3.163   6.578   1.699 -2.2197 -2.2284 -0.7061
 1084TIP3   OH224886   3.210   2.251   0.605 -0.2307 -0.0418 -0.4696
 1084TIP3    H124887   3.171   2.312   0.543  0.2576 -1.0737 -1.8557
 1084TIP3    H224888   3.274   2.303   0.653  1.4262  0.2173 -2.8058
 1085TIP3   OH224889   0.297   3.272   1.306 -0.0789 -0.0099 -0.4196
 1085TIP3    H124890   0.203   3.259   1.314  0.3651 -2.7211  2.2284
 1085TIP3    H224891   0.332   3.185   1.285  1.9713  0.5357  0.4465
 1086TIP3   OH224892   4.681   0.578   1.101 -0.4636  0.3191 -0.7932
 1086TIP3    H124893   4.627   0.500   1.085  1.4855 -1.6011  1.1671
 1086TIP3    H224894   4.721   0.598   1.017 -1.2157 -0.6313 -1.4023
 1087TIP3   OH224895   1.803   5.284   8.216  0.2105  0.2286 -0.6556
 1087TIP3    H124896   1.849   5.366   8.197  0.5003  0.7287  1.8569
 1087TIP3    H224897   1.734   5.309   8.277 -0.3432 -1.2487 -0.6449
 1088TIP3   OH224898   2.148   4.949   0.619 -0.1028  0.6752 -0.3726
 1088TIP3    H124899   2.202   5.005   0.674 -0.2362 -0.7165  1.2413
 1088TIP3    H224900   2.207   4.880   0.590 -1.0147 -1.1073  1.7698
 1089TIP3   OH224901   6.012   3.801   3.197 -0.0882 -0.6826  0.2394
 1089TIP3    H124902   5.961   3.807   3.278  1.4428  0.3607  1.1853
 1089TIP3    H224903   6.000   3.886   3.155  2.1949  0.2571  1.3579
 1090TIP3   OH224904   6.721   1.406   1.867 -0.0651  0.0828  0.2504
 1090TIP3    H124905   6.769   1.481   1.902  1.6342  1.2381 -4.0150
 1090TIP3    H224906   6.663   1.443   1.800  0.1693 -2.2694 -1.3757
 1091TIP3   OH224907   3.619   2.999   2.434  0.0822 -0.2095  0.5602
 1091TIP3    H124908   3.685   3.055   2.477 -1.4015  0.7694  1.6972
 1091TIP3    H224909   3.653   2.984   2.346  1.5740  0.6873  0.9517
 1092TIP3   OH224910   4.788   1.423   2.057  0.2367 -0.3154  0.2438
 1092TIP3    H124911   4.726   1.353   2.075  0.2537 -0.1767  0.8837
 1092TIP3    H224912   4.874   1.385   2.076  0.3378 -0.4586 -0.4866
 1093TIP3   OH224913   1.436   1.846   8.578 -0.4376  0.4265 -0.1925
 1093TIP3    H124914   1.530   1.866   8.581 -0.4310  0.7023 -1.7655
 1093TIP3    H224915   1.403   1.894   8.502 -1.5546 -0.9712 -0.6295
 1094TIP3   OH224916   5.467   6.749   2.996 -0.2760  0.4142  0.1622
 1094TIP3    H124917   5.541   6.716   2.945  0.0094  0.7998  0.3255
 1094TIP3    H224918   5.505   6.809   3.060 -0.3613 -1.6256  2.2581
 1095TIP3   OH224919   1.547   2.293   1.236  0.2567  0.1547 -0.3320
 1095TIP3    H124920   1.564   2.301   1.330  1.3892  0.8731 -0.5802
 1095TIP3    H224921   1.556   2.200   1.218  0.2821  0.0438  0.2228
 1096TIP3   OH224922   3.882   4.310   0.027  0.8822 -0.3217 -0.4647
 1096TIP3    H124923   3.931   4.377  -0.020 -0.3553 -0.8159 -2.5823
 1096TIP3    H224924   3.942   4.235   0.030  1.2462 -0.0425 -0.5766
 1097TIP3   OH224925   3.219   0.285   0.119 -0.1247 -0.3668 -0.0589
 1097TIP3    H124926   3.255   0.248   0.199 -0.2863  0.9578  0.6436
 1097TIP3    H224927   3.169   0.362   0.147 -1.1487 -0.5315 -1.3052
 1098TIP3   OH224928   3.149   6.824   2.209  0.2941 -0.0506 -0.6591
 1098TIP3    H124929   3.198   6.790   2.283  0.6735  0.5415 -0.6327
 1098TIP3    H224930   3.192   6.907   2.187 -0.2519  0.1283 -1.0874
 1099TIP3   OH224931   2.052   5.186   0.167 -0.2531  0.3177 -0.0727
 1099TIP3    H124932   2.082   5.112   0.220 -0.4842  0.5698  0.4254
 1099TIP3    H224933   1.957   5.184   0.176 -0.4197 -0.4946 -1.6583
 1100TIP3   OH224934   2.486   0.341   1.524 -0.3795  0.0640 -0.8701
 1100TIP3    H124935   2.513   0.331   1.615  1.5759 -3.3407 -1.6429
 1100TIP3    H224936   2.401   0.297   1.519 -1.2960  1.7019 -0.4546
 1101TIP3   OH224937   2.991   5.358   0.076 -0.0484 -0.4781  0.0556
 1101TIP3    H124938   3.011   5.418   0.004  1.8634 -0.5528  0.4570
 1101TIP3    H224939   2.986   5.272   0.034 -0.7341 -0.3047 -0.2302
 1102TIP3   OH224940   6.797   4.752   7.814 -0.0356 -0.4132  0.3261
 1102TIP3    H124941   6.823   4.661   7.798  0.0004 -0.1811 -1.0533
 1102TIP3    H224942   6.737   4.773   7.743 -2.2522 -0.1780  2.1452
 1103TIP3   OH224943   6.327   2.762   7.084  0.3996  0.6743  0.3550
 1103TIP3    H124944   6.250   2.766   7.141  0.6432  0.3088  0.7116
 1103TIP3    H224945   6.322   2.675   7.044 -0.4865  1.3924 -1.1936
 1104TIP3   OH224946   0.628   6.385   1.760  0.0738 -0.4066 -0.3252
 1104TIP3    H124947   0.608   6.476   1.782  0.0333  0.3031 -2.9479
 1104TIP3    H224948   0.692   6.392   1.689  0.8092 -2.4623  0.0844
 1105TIP3   OH224949   0.460   4.908   8.254  0.3741 -0.5165 -0.0064
 1105TIP3    H124950   0.425   4.876   8.337 -2.2680  0.5387 -0.6296
 1105TIP3    H224951   0.453   5.004   8.261 -1.4075 -0.4375 -1.9994
 1106TIP3   OH224952   2.332   3.761   0.996  0.5427  0.7713 -0.3818
 1106TIP3    H124953   2.401   3.784   1.058  0.5131  0.4711 -0.2409
 1106TIP3    H224954   2.374   3.702   0.933 -0.0755 -1.0330  0.8445
 1107TIP3   OH224955   3.209   1.084   1.258  0.0921  0.7668  0.3197
 1107TIP3    H124956   3.168   1.001   1.230  0.3256  0.5759  0.5378
 1107TIP3    H224957   3.226   1.130   1.176  1.4136 -0.1008  0.0661
 1108TIP3   OH224958   0.440   2.324   2.090  0.3054  0.3574  0.0997
 1108TIP3    H124959   0.461   2.414   2.116 -0.4639  0.3007  1.0087
 1108TIP3    H224960   0.489   2.269   2.151 -1.1359  0.2137  1.2028
 1109TIP3   OH224961   3.694   2.574   2.135  0.0869  0.2164  0.6957
 1109TIP3    H124962   3.753   2.636   2.177 -0.0161  0.4729  0.4674
 1109TIP3    H224963   3.682   2.504   2.199  0.4062  0.3085  0.8546
 1110TIP3   OH224964   0.659   1.770   8.396 -0.5946 -0.0346 -0.0861
 1110TIP3    H124965   0.711   1.798   8.321 -0.8129 -0.9050 -0.5758
 1110TIP3    H224966   0.568   1.780   8.367 -0.6921  0.4196  0.3657
 1111TIP3   OH224967   3.411   0.587   8.428 -0.3257  0.4508  0.0725
 1111TIP3    H124968   3.372   0.524   8.368  1.7103  0.1754 -1.0470
 1111TIP3    H224969   3.411   0.542   8.513  0.7543 -0.9559 -0.6312
 1112TIP3   OH224970   3.645   0.543   1.367  0.7455  0.6318  0.2704
 1112TIP3    H124971   3.731   0.585   1.379  2.0974 -1.5987 -0.9366
 1112TIP3    H224972   3.638   0.480   1.438 -0.9137  2.1969  1.5939
 1113TIP3   OH224973   4.187   2.202   1.291  0.1060  0.0732  0.1294
 1113TIP3    H124974   4.094   2.179   1.280 -0.5873  2.4616  0.4658
 1113TIP3    H224975   4.233   2.145   1.229 -1.6679 -0.5480 -0.6898
 1114TIP3   OH224976   4.904   2.022   2.951  0.2029  0.2563  0.6249
 1114TIP3    H124977   4.853   2.103   2.946  0.7347  0.6003  0.6491
 1114TIP3    H224978   4.894   1.993   3.041 -0.8363 -0.2760  0.3578
 1115TIP3   OH224979   5.549   1.582   2.589 -0.0686 -0.2569 -0.1795
 1115TIP3    H124980   5.516   1.670   2.604  0.3028 -0.3240  1.1775
 1115TIP3    H224981   5.582   1.554   2.674 -1.3753 -2.2136 -0.2372
 1116TIP3   OH224982   6.584   5.637   3.365  0.4292  0.1512  0.5068
 1116TIP3    H124983   6.641   5.706   3.399  1.7546 -0.8087  0.3022
 1116TIP3    H224984   6.577   5.656   3.271 -0.0948  0.6146  0.6364
 1117TIP3   OH224985   3.557   4.753   1.087  0.6153  0.2267  0.2790
 1117TIP3    H124986   3.476   4.743   1.037  0.4037  0.3947  0.5782
 1117TIP3    H224987   3.613   4.807   1.032 -0.2540  1.8697  0.9143
 1118TIP3   OH224988   6.260   1.867   6.943 -0.1441 -0.5894 -0.4519
 1118TIP3    H124989   6.191   1.817   6.987 -0.1882 -2.0159 -2.0707
 1118TIP3    H224990   6.324   1.886   7.013 -1.0364 -1.2710  0.5791
 1119TIP3   OH224991   1.792   0.330   2.285 -0.2495 -0.4954  0.0439
 1119TIP3    H124992   1.748   0.263   2.338  0.6106 -1.1222 -0.0110
 1119TIP3    H224993   1.822   0.395   2.348 -0.8731 -0.2785  0.1238
 1120TIP3   OH224994   6.127   0.363   1.279 -0.2197 -0.2693 -0.3208
 1120TIP3    H124995   6.184   0.437   1.260 -0.5695  0.3645  1.0126
 1120TIP3    H224996   6.147   0.299   1.210  1.0213  0.5247 -0.7261
 1121TIP3   OH224997   3.707   0.541   2.028 -0.6460  0.7708 -0.9370
 1121TIP3    H124998   3.624   0.528   1.983 -1.0566 -0.3803  0.0831
 1121TIP3    H224999   3.683   0.560   2.118  0.1799  0.4929 -0.6407
 1122TIP3   OH225000   2.607   4.197   0.735  0.4079 -0.3031 -0.3844
 1122TIP3    H125001   2.529   4.175   0.685 -0.0628 -2.7462  1.2588
 1122TIP3    H225002   2.675   4.212   0.669 -1.5236  2.8969 -1.9257
 1123TIP3   OH225003   2.735   4.944   1.648 -0.0457  0.2906 -0.0256
 1123TIP3    H125004   2.805   4.999   1.614 -0.2060  0.0748 -0.7142
 1123TIP3    H225005   2.735   4.867   1.592 -1.3521  0.6358 -0.5357
 1124TIP3   OH225006   3.218   6.667   8.473  0.0447  0.0424  0.4373
 1124TIP3    H125007   3.304   6.659   8.432 -0.4371 -1.6260 -0.3497
 1124TIP3    H225008   3.173   6.734   8.422  0.7720  0.7249  0.6773
 1125TIP3   OH225009   2.894   0.370   3.143  0.0982 -0.2210  0.0191
 1125TIP3    H125010   2.953   0.441   3.118  1.4304 -1.4406 -0.3984
 1125TIP3    H225011   2.814   0.386   3.092  0.4804  0.8057 -0.2769
 1126TIP3   OH225012   3.830   1.670   0.927  0.5928 -0.1627 -0.5087
 1126TIP3    H125013   3.757   1.617   0.895 -2.2366  0.8767  3.4469
 1126TIP3    H225014   3.868   1.618   0.998  0.5729  1.2797  0.5986
 1127TIP3   OH225015   0.238   1.962   8.486  0.0171  0.1444 -0.0413
 1127TIP3    H125016   0.260   2.041   8.436 -0.4027 -0.5546 -1.3806
 1127TIP3    H225017   0.159   1.985   8.534  1.4385  1.4436  1.8484
 1128TIP3   OH225018   2.319   3.333   8.530  0.2252  0.3505 -0.2516
 1128TIP3    H125019   2.306   3.422   8.496 -1.7454 -0.0064 -0.5558
 1128TIP3    H225020   2.259   3.280   8.479  1.1965 -1.1449  0.1077
 1129TIP3   OH225021   4.365   0.753   7.667 -0.1166  0.2285  0.0533
 1129TIP3    H125022   4.372   0.775   7.760 -0.0158  0.4228  0.0003
 1129TIP3    H225023   4.279   0.711   7.658  0.3642 -0.9054  0.4618
 1130TIP3   OH225024   6.058   1.137   1.224  0.1960 -0.4568 -0.2410
 1130TIP3    H125025   5.973   1.149   1.181 -0.2443  0.5264  0.8425
 1130TIP3    H225026   6.113   1.207   1.189  0.1382 -0.2590  0.0610
 1131TIP3   OH225027   0.013   3.731   1.865 -0.0756 -0.1040  0.4964
 1131TIP3    H125028   0.059   3.774   1.793 -0.3212  0.6314  0.7677
 1131TIP3    H225029   0.071   3.741   1.940  0.3530 -1.2011  0.3348
 1132TIP3   OH225030   0.574   1.770   0.094 -0.4150  0.5493 -0.3032
 1132TIP3    H125031   0.493   1.773   0.042 -0.5470  1.4790 -0.0603
 1132TIP3    H225032   0.544   1.778   0.185 -0.0589  0.6636 -0.1952
 1133TIP3   OH225033   5.558   3.695   2.357  0.1096 -0.6443 -0.3270
 1133TIP3    H125034   5.476   3.673   2.401  0.3371 -0.6593  0.0849
 1133TIP3    H225035   5.626   3.675   2.420  0.3787  0.4427 -0.2561
 1134TIP3   OH225036   1.968   1.383   8.574  0.7123  0.2884  0.0341
 1134TIP3    H125037   1.968   1.395   8.479 -1.6776 -1.2132 -0.2327
 1134TIP3    H225038   2.004   1.465   8.609  2.5078  0.5311 -2.1480
 1135TIP3   OH225039   5.642   6.828   3.204 -0.0907  0.0222 -0.8294
 1135TIP3    H125040   5.671   6.863   3.288  2.1721 -1.0627 -1.0803
 1135TIP3    H225041   5.633   6.734   3.219 -3.6110  0.2394 -0.8234
 1136TIP3   OH225042   2.602   6.234   2.316 -0.1067  0.2444 -0.0935
 1136TIP3    H125043   2.620   6.145   2.284  0.4817 -0.0828  1.0769
 1136TIP3    H225044   2.521   6.225   2.365 -0.0277  0.3466  0.0545
 1137TIP3   OH225045   2.745   2.937   2.574  0.2474  0.0450 -0.5886
 1137TIP3    H125046   2.744   2.864   2.635 -2.4682  1.0172  0.6687
 1137TIP3    H225047   2.830   2.979   2.587  0.7533 -1.3016  0.5968
 1138TIP3   OH225048   1.053   3.184   8.252  0.2391 -0.5395 -0.2951
 1138TIP3    H125049   0.964   3.183   8.288 -0.0817  0.5749 -1.0326
 1138TIP3    H225050   1.045   3.140   8.168 -0.3780  2.5231 -1.9793
 1139TIP3   OH225051   0.558   5.226   8.128  0.4532  0.2140 -0.0911
 1139TIP3    H125052   0.618   5.163   8.166  1.1215  1.3506  0.8088
 1139TIP3    H225053   0.598   5.311   8.145 -0.6398  0.9127 -0.8578
 1140TIP3   OH225054   1.952   6.694   1.601  0.4453 -0.5973  0.4271
 1140TIP3    H125055   1.885   6.707   1.668  0.3141 -1.3002  0.4344
 1140TIP3    H225056   1.903   6.667   1.523  0.6898 -0.7546  0.3283
 1141TIP3   OH225057   4.763   5.736   1.781  0.0224  0.2099 -0.2032
 1141TIP3    H125058   4.688   5.717   1.837  0.0924  0.4720 -0.0159
 1141TIP3    H225059   4.839   5.715   1.835  0.1334  2.1215  0.4514
 1142TIP3   OH225060   6.084   1.854   0.365 -0.0385 -0.5978 -0.0899
 1142TIP3    H125061   6.101   1.824   0.275 -1.2690 -1.3896 -0.0823
 1142TIP3    H225062   6.133   1.792   0.420  0.8074 -0.0446 -0.2040
 1143TIP3   OH225063   1.660   4.389   3.519 -0.0320  0.2977  0.4839
 1143TIP3    H125064   1.728   4.335   3.480 -0.9990  0.7376 -2.0764
 1143TIP3    H225065   1.687   4.479   3.499 -0.8133  0.5239  0.4095
 1144TIP3   OH225066   0.797   2.244   0.058 -0.0332  0.1473 -0.6980
 1144TIP3    H125067   0.770   2.270   0.145  1.6609  0.6311 -0.2813
 1144TIP3    H225068   0.722   2.198   0.022  0.0594 -2.3272  1.9611
 1145TIP3   OH225069   3.604   1.898   0.789  0.3398 -0.0794 -0.1984
 1145TIP3    H125070   3.660   1.964   0.748 -1.2052  1.6113  0.2656
 1145TIP3    H225071   3.626   1.902   0.882  1.8233 -1.8846 -0.4168
 1146TIP3   OH225072   3.730   3.015   2.196 -0.4335 -0.4411 -0.2684
 1146TIP3    H125073   3.788   3.062   2.136 -0.1322  0.1035  0.4424
 1146TIP3    H225074   3.642   3.036   2.166 -0.3422  1.4596  0.6722
 1147TIP3   OH225075   2.154   4.649   8.316  0.0848 -0.2373  0.1625
 1147TIP3    H125076   2.179   4.738   8.338 -1.8038  0.6702 -1.0878
 1147TIP3    H225077   2.206   4.627   8.240  0.4934 -0.1744  0.4229
 1148TIP3   OH225078   4.438   1.339   0.620  0.4507  0.1165  0.1789
 1148TIP3    H125079   4.419   1.319   0.712  0.9995 -0.4988  0.1674
 1148TIP3    H225080   4.374   1.288   0.571  0.3084  0.2636  0.2088
 1149TIP3   OH225081   2.622   3.498   1.723  0.1909  0.1709  0.1412
 1149TIP3    H125082   2.707   3.539   1.740  0.5049  0.6465 -2.1956
 1149TIP3    H225083   2.642   3.422   1.669 -0.7724 -0.4493  0.6340
 1150TIP3   OH225084   3.069   6.206   1.135 -0.1680 -0.3212 -0.3110
 1150TIP3    H125085   3.004   6.170   1.075  2.1244 -1.5317 -2.2467
 1150TIP3    H225086   3.099   6.131   1.186 -1.5166  0.5599  1.9258
 1151TIP3   OH225087   3.945   2.282   1.382  0.1603  0.0394  0.3457
 1151TIP3    H125088   3.860   2.316   1.354  0.7236  2.4003  1.1802
 1151TIP3    H225089   3.924   2.221   1.453 -0.8632 -0.0155  0.0120
 1152TIP3   OH225090   0.352   4.746   2.330  0.2773  0.1138  0.1055
 1152TIP3    H125091   0.297   4.802   2.385 -0.4530 -0.6989  0.2270
 1152TIP3    H225092   0.392   4.805   2.267  0.5095  0.9499  1.0135
 1153TIP3   OH225093   4.299   5.908   0.062 -0.3980 -0.4029  0.3586
 1153TIP3    H125094   4.314   5.898   0.156 -0.7280  0.4892  0.5169
 1153TIP3    H225095   4.281   6.001   0.051  0.1054 -0.4169 -0.6628
 1154TIP3   OH225096   0.929   2.563   0.940  0.0297  0.2528  0.3548
 1154TIP3    H125097   0.973   2.494   0.890  0.1124  2.1536 -2.4621
 1154TIP3    H225098   0.837   2.539   0.940  0.4238 -1.6348  2.6648
 1155TIP3   OH225099   0.166   1.231   2.086 -0.1340 -0.2872  0.2103
 1155TIP3    H125100   0.137   1.313   2.046  0.4261 -0.2907 -0.2057
 1155TIP3    H225101   0.173   1.170   2.013  0.6184 -0.3724  0.3513
 1156TIP3   OH225102   0.327   2.634   8.505  0.0663 -0.4517 -0.1418
 1156TIP3    H125103   0.252   2.693   8.515 -0.0005 -0.3957 -0.9788
 1156TIP3    H225104   0.298   2.551   8.543  0.2174  0.0769  1.2109
 1157TIP3   OH225105   3.818   0.982   0.345  0.5936  0.5102  0.2263
 1157TIP3    H125106   3.825   0.934   0.262  1.7736  0.8274  0.1281
 1157TIP3    H225107   3.865   1.063   0.330  0.2627  0.8549  1.0126
 1158TIP3   OH225108   5.279   1.853   7.908 -0.1093  0.2872  0.3666
 1158TIP3    H125109   5.330   1.773   7.898 -0.0590 -0.1321  3.2291
 1158TIP3    H225110   5.343   1.923   7.894  0.1305 -0.1417 -0.8463
 1159TIP3   OH225111   1.355   3.069   7.332  0.1278 -0.2391  0.3602
 1159TIP3    H125112   1.389   2.984   7.360 -0.8367 -1.0077 -0.7003
 1159TIP3    H225113   1.420   3.103   7.271 -0.1605 -0.9043 -0.3337
 1160TIP3   OH225114   5.914   6.177   0.768  0.0605  0.0466  0.5462
 1160TIP3    H125115   5.917   6.118   0.843  2.4242 -1.8262 -0.8754
 1160TIP3    H225116   5.842   6.144   0.715  0.1541 -0.3775  0.6767
 1161TIP3   OH225117   6.060   6.062   3.464 -0.0653  0.3763 -0.4024
 1161TIP3    H125118   5.988   6.083   3.404 -2.9564 -0.4965  2.4622
 1161TIP3    H225119   6.065   5.967   3.465 -0.1351  0.3634  0.7415
 1162TIP3   OH225120   4.150   3.679   8.377  0.0070 -0.0411 -0.1283
 1162TIP3    H125121   4.116   3.654   8.463  0.7254 -0.9396 -0.0909
 1162TIP3    H225122   4.098   3.755   8.352 -1.7986 -1.1375  0.0792
 1163TIP3   OH225123   4.138   4.414   1.260  0.7163  0.5511  0.1680
 1163TIP3    H125124   4.122   4.475   1.332  0.6962  2.6644 -1.4984
 1163TIP3    H225125   4.223   4.440   1.225  0.8707 -0.6343 -0.3981
 1164TIP3   OH225126   6.871   1.767   0.921 -0.3487 -0.0542 -0.4934
 1164TIP3    H125127   6.820   1.717   0.985  2.0923 -2.0993  0.0070
 1164TIP3    H225128   6.848   1.728   0.836 -1.0360  0.3554 -0.5030
 1165TIP3   OH225129   6.243   5.016   0.323  0.2706  0.2960 -0.8357
 1165TIP3    H125130   6.249   4.970   0.239  0.5726  1.0957 -1.2595
 1165TIP3    H225131   6.217   4.948   0.385  0.3184 -0.3668 -1.5217
 1166TIP3   OH225132   5.217   6.629   7.815 -0.1155  0.0115 -0.0456
 1166TIP3    H125133   5.253   6.717   7.802  0.2514  0.3553  2.5951
 1166TIP3    H225134   5.294   6.574   7.826 -0.3628 -0.4649 -0.6524
 1167TIP3   OH225135   2.494   2.098   1.891  0.4795 -0.1844  0.0972
 1167TIP3    H125136   2.498   2.161   1.819 -0.2867 -0.2913 -0.0527
 1167TIP3    H225137   2.553   2.028   1.865  0.5266 -0.0228 -0.2329
 1168TIP3   OH225138   3.099   4.218   2.669  0.2456 -0.4927  1.0423
 1168TIP3    H125139   3.152   4.149   2.708  2.1947  0.5338  0.3460
 1168TIP3    H225140   3.162   4.274   2.624 -1.3487  1.2970  0.9096
 1169TIP3   OH225141   1.656   3.495   0.084 -0.4170  0.4913 -0.4516
 1169TIP3    H125142   1.567   3.504   0.116  0.1756  0.5881  1.2719
 1169TIP3    H225143   1.705   3.459   0.158  1.1011  0.9996 -1.1623
 1170TIP3   OH225144   5.357   6.753   2.729 -0.6797  0.1970 -0.1242
 1170TIP3    H125145   5.349   6.841   2.765  1.1058  0.0498  0.7632
 1170TIP3    H225146   5.322   6.696   2.797  1.9092 -0.0167  1.1596
 1171TIP3   OH225147   6.812   0.490   0.852 -0.2212 -0.2121 -0.1882
 1171TIP3    H125148   6.776   0.508   0.939 -0.0269 -1.6782  0.2151
 1171TIP3    H225149   6.758   0.418   0.818 -0.6986  0.7461 -1.5657
 1172TIP3   OH225150   3.192   3.825   1.467 -0.5669  0.9367  0.6835
 1172TIP3    H125151   3.169   3.896   1.526 -1.2030  0.6996  0.7266
 1172TIP3    H225152   3.151   3.849   1.384 -0.5499  0.7597  0.6232
 1173TIP3   OH225153   6.312   6.400   3.117 -0.0733 -0.5887  0.2572
 1173TIP3    H125154   6.372   6.381   3.188 -1.3137 -0.9886  1.2403
 1173TIP3    H225155   6.336   6.488   3.088  1.3067 -0.9552  0.2589
 1174TIP3   OH225156   4.956   6.298   2.797  0.0246  0.5254  0.1195
 1174TIP3    H125157   5.019   6.249   2.744 -0.0578 -1.1044  1.4368
 1174TIP3    H225158   4.991   6.292   2.886 -1.5393  0.3006  0.7521
 1175TIP3   OH225159   3.277   2.869   0.211 -0.3363  0.3667 -0.0676
 1175TIP3    H125160   3.232   2.836   0.289 -1.3483 -0.1461 -0.8298
 1175TIP3    H225161   3.360   2.821   0.208 -1.8408 -2.4218 -1.2438
 1176TIP3   OH225162   4.754   0.062   7.578 -0.6067  0.0825  0.3253
 1176TIP3    H125163   4.773  -0.003   7.511  0.1554  0.7148 -0.0947
 1176TIP3    H225164   4.821   0.050   7.645  0.0072  0.9182 -0.1216
 1177TIP3   OH225165   6.299   3.726   1.411  0.3342  0.2308  0.0933
 1177TIP3    H125166   6.378   3.692   1.451  0.7587  1.6967  0.5781
 1177TIP3    H225167   6.242   3.650   1.402  1.1801 -0.5736  1.2057
 1178TIP3   OH225168   5.311   1.349   2.089  0.6421  0.1566 -0.4033
 1178TIP3    H125169   5.396   1.344   2.045 -0.1521 -0.2918 -1.9785
 1178TIP3    H225170   5.331   1.387   2.175  2.2836  1.1304 -1.1462
 1179TIP3   OH225171   1.686   6.394   1.760 -0.1242  0.0161  0.2778
 1179TIP3    H125172   1.623   6.342   1.810 -0.5079 -0.9541 -1.1616
 1179TIP3    H225173   1.648   6.482   1.759 -0.5157 -0.1357  0.9903
 1180TIP3   OH225174   2.733   3.777   7.968  0.2513  0.0189 -0.2234
 1180TIP3    H125175   2.648   3.816   7.988  0.1780  0.9836 -2.2171
 1180TIP3    H225176   2.796   3.843   7.997  0.4576 -1.1799  2.3494
 1181TIP3   OH225177   2.688   2.344   7.875  0.2292  0.0385  0.5474
 1181TIP3    H125178   2.633   2.267   7.886 -0.1781 -0.3335 -3.0879
 1181TIP3    H225179   2.629   2.418   7.890 -0.7314 -0.3785 -0.9914
 1182TIP3   OH225180   5.005   0.482   6.939  0.4088  0.2165  0.3008
 1182TIP3    H125181   5.017   0.424   6.863 -0.9396  2.1100 -1.4807
 1182TIP3    H225182   5.082   0.466   6.993  2.4001  0.0682 -2.3671
 1183TIP3   OH225183   4.925   4.293   1.468  0.6946 -0.3388  0.6716
 1183TIP3    H125184   4.964   4.355   1.406  1.4952 -0.6493  0.8563
 1183TIP3    H225185   4.863   4.345   1.518  1.2538  0.2837  0.7284
 1184TIP3   OH225186   6.126   5.713   2.064  0.3739 -0.2888  0.3958
 1184TIP3    H125187   6.102   5.703   2.156 -0.1935  1.7032  0.4979
 1184TIP3    H225188   6.220   5.730   2.065  0.1861  0.7982  0.7167
 1185TIP3   OH225189   6.116   1.221   8.687 -0.2461 -0.2412 -0.6442
 1185TIP3    H125190   6.198   1.230   8.737 -0.3270 -1.8790 -0.1616
 1185TIP3    H225191   6.125   1.137   8.642 -1.6943 -0.4795 -0.5248
 1186TIP3   OH225192   2.328   1.788   2.714 -0.1359  0.3673  0.2728
 1186TIP3    H125193   2.302   1.786   2.806 -1.6614 -0.0755 -0.1429
 1186TIP3    H225194   2.353   1.698   2.693 -2.3056 -0.1356 -0.3916
 1187TIP3   OH225195   0.806   2.670   0.543  0.2317  0.6715 -0.1073
 1187TIP3    H125196   0.826   2.595   0.488  1.5591  0.3599  0.7672
 1187TIP3    H225197   0.816   2.746   0.485 -0.0627  0.2575 -0.7096
 1188TIP3   OH225198   3.857   3.559   8.184  0.0339  0.0903  0.2690
 1188TIP3    H125199   3.920   3.629   8.168  1.0984 -0.6018  1.2423
 1188TIP3    H225200   3.825   3.534   8.097  3.0814 -1.2883 -0.5902
 1189TIP3   OH225201   0.150   4.629   8.258 -0.1676  0.1887  0.3104
 1189TIP3    H125202   0.172   4.633   8.351 -0.3544 -1.0893  0.4228
 1189TIP3    H225203   0.225   4.586   8.217  0.3125  1.5316 -0.2932
 1190TIP3   OH225204   4.583   1.626   7.521  0.1044 -0.5546  0.5349
 1190TIP3    H125205   4.520   1.554   7.514  1.0037 -1.3691  0.5819
 1190TIP3    H225206   4.652   1.604   7.458 -1.2170  2.0292 -2.0793
 1191TIP3   OH225207   2.437   6.256   0.095  0.1264 -0.0446  0.0241
 1191TIP3    H125208   2.475   6.269   0.008 -0.1007 -0.2089 -0.0993
 1191TIP3    H225209   2.362   6.315   0.097  0.7692  0.7780  0.5120
 1192TIP3   OH225210   3.551   2.278   1.633 -0.5348  0.5806 -0.2112
 1192TIP3    H125211   3.464   2.312   1.655 -0.7230 -0.2095  0.3140
 1192TIP3    H225212   3.548   2.186   1.660  0.5245  0.5873 -0.0238
 1193TIP3   OH225213   3.029   2.539   7.417  0.1488 -0.0339 -0.0234
 1193TIP3    H125214   3.054   2.596   7.490  0.3931 -0.0566 -0.0915
 1193TIP3    H225215   2.995   2.599   7.350 -3.1808 -0.1739  1.3149
 1194TIP3   OH225216   4.020   0.897   1.367 -0.2123  0.0830 -0.3814
 1194TIP3    H125217   4.113   0.886   1.385  0.0589 -0.8685 -2.1625
 1194TIP3    H225218   4.003   0.990   1.384  0.8212  0.0719  0.8551
 1195TIP3   OH225219   5.101   2.330   2.191  0.2922 -0.1830  0.1282
 1195TIP3    H125220   5.053   2.258   2.150  2.9932 -2.1450  0.1930
 1195TIP3    H225221   5.093   2.314   2.285  0.4934 -0.1251  0.1555
 1196TIP3   OH225222   6.289   2.613   1.290 -0.3161 -0.6937 -0.3340
 1196TIP3    H125223   6.305   2.609   1.384 -0.6527 -0.7170 -0.2740
 1196TIP3    H225224   6.194   2.621   1.282 -0.2854 -0.6057 -0.6699
 1197TIP3   OH225225   6.599   0.483   1.711  0.1469 -0.1870  0.3982
 1197TIP3    H125226   6.681   0.436   1.694  1.1634  0.9989  1.7504
 1197TIP3    H225227   6.554   0.431   1.778  1.0898  0.5135  1.6141
 1198TIP3   OH225228   0.305   1.667   0.393 -0.2383  0.6955 -0.0953
 1198TIP3    H125229   0.339   1.756   0.408 -1.9599  1.4731 -0.5831
 1198TIP3    H225230   0.304   1.627   0.480  0.0505  1.3399  0.2142
 1199TIP3   OH225231   4.450   0.967   0.510 -0.0959  0.1815  0.2837
 1199TIP3    H125232   4.396   0.986   0.587 -2.3752  0.2745 -1.2209
 1199TIP3    H225233   4.419   1.029   0.444  1.7806  0.0961 -0.7400
 1200TIP3   OH225234   1.111   4.976   7.788  0.0366 -0.1915  0.3094
 1200TIP3    H125235   1.201   4.988   7.758  0.7108  0.1934  2.3031
 1200TIP3    H225236   1.061   4.959   7.708  1.7078  0.5127 -0.9538
 1201TIP3   OH225237   5.674   4.314   0.598 -0.5877  0.1735 -0.3155
 1201TIP3    H125238   5.733   4.382   0.630 -0.7568 -0.0723  0.5459
 1201TIP3    H225239   5.632   4.353   0.521 -0.3693  0.8823 -0.0873
 1202TIP3   OH225240   2.859   5.750   2.202  0.1793  0.2967 -0.7959
 1202TIP3    H125241   2.909   5.812   2.256 -0.4630  0.1322  0.0054
 1202TIP3    H225242   2.786   5.801   2.169  0.0763  0.1636 -0.7726
 1203TIP3   OH225243   4.887   5.977   1.721  0.1655  0.0936 -0.5562
 1203TIP3    H125244   4.813   6.032   1.696 -0.1206  0.6388  1.2791
 1203TIP3    H225245   4.848   5.894   1.747  0.0187  0.6796  1.2943
 1204TIP3   OH225246   2.282   4.026   3.403 -0.7726 -0.8105 -0.0273
 1204TIP3    H125247   2.361   4.011   3.456 -0.1196  0.1302 -0.6952
 1204TIP3    H225248   2.212   4.038   3.467 -0.1321 -0.3806  0.6101
 1205TIP3   OH225249   0.290   6.273   2.180 -0.1532  0.9026 -0.4033
 1205TIP3    H125250   0.219   6.221   2.142 -0.0191  1.9618 -2.2094
 1205TIP3    H225251   0.365   6.214   2.180 -0.8553 -0.0403  0.9827
 1206TIP3   OH225252   1.012   2.204   7.746 -0.3339 -0.7696  0.0808
 1206TIP3    H125253   0.926   2.214   7.706 -0.4437 -2.1786 -0.0684
 1206TIP3    H225254   1.040   2.116   7.723  1.2705 -0.2538 -0.0838
 1207TIP3   OH225255   3.219   2.258   1.710 -0.6823  0.5568 -0.1427
 1207TIP3    H125256   3.147   2.240   1.770  0.5082 -0.8397  0.9116
 1207TIP3    H225257   3.229   2.353   1.712 -0.7886  0.5512  1.7352
 1208TIP3   OH225258   4.726   3.173   7.438  0.3166  0.3691  0.1178
 1208TIP3    H125259   4.792   3.239   7.419  1.9110 -1.6417 -1.8618
 1208TIP3    H225260   4.733   3.111   7.365 -1.6633 -1.5453  1.4477
 1209TIP3   OH225261   5.632   4.359   0.930 -0.1265  0.2774 -0.1001
 1209TIP3    H125262   5.693   4.425   0.962  2.5281 -3.1729  2.8260
 1209TIP3    H225263   5.686   4.299   0.879 -2.4880  0.3078 -2.9134
 1210TIP3   OH225264   3.025   2.823   8.316 -0.9170 -0.3499 -0.2054
 1210TIP3    H125265   3.059   2.901   8.360 -0.5534 -0.1703 -0.7938
 1210TIP3    H225266   3.004   2.853   8.228  0.5119 -1.2362 -0.8713
 1211TIP3   OH225267   6.424   2.902   1.772 -0.0050 -0.3110 -0.6877
 1211TIP3    H125268   6.425   2.993   1.801  0.8263 -0.8154  0.9692
 1211TIP3    H225269   6.361   2.859   1.828  1.0541 -1.1472 -0.0932
 1212TIP3   OH225270   0.601   3.479   2.178 -0.2039 -0.5331 -0.9750
 1212TIP3    H125271   0.644   3.500   2.095  0.8140 -2.3701 -0.9485
 1212TIP3    H225272   0.523   3.429   2.152  0.9681 -2.5422 -0.8316
 1213TIP3   OH225273   1.321   3.356   0.910 -0.1624 -0.0162 -0.2700
 1213TIP3    H125274   1.401   3.408   0.900 -0.4748  0.5513  0.0713
 1213TIP3    H225275   1.279   3.393   0.988  0.0340 -1.3630  0.5043
 1214TIP3   OH225276   0.838   0.954   0.103  0.4336 -0.1257  0.2109
 1214TIP3    H125277   0.889   0.933   0.025  0.5575  1.3306 -0.1272
 1214TIP3    H225278   0.812   1.046   0.091 -2.9437 -0.9545 -0.0197
 1215TIP3   OH225279   2.912   2.003   0.475 -0.0893 -0.0283 -0.1728
 1215TIP3    H125280   2.928   1.972   0.564 -0.5041  1.3855  0.4276
 1215TIP3    H225281   2.990   2.054   0.453 -0.0598 -0.2343 -0.5604
 1216TIP3   OH225282   4.264   1.733   8.197 -0.1201 -0.4138 -0.1125
 1216TIP3    H125283   4.341   1.708   8.146 -0.6337 -0.5279 -0.8469
 1216TIP3    H225284   4.209   1.654   8.199 -0.7473 -0.0049 -0.5893
 1217TIP3   OH225285   3.945   1.601   1.178  0.1094  0.2530  0.5001
 1217TIP3    H125286   3.937   1.506   1.168 -1.7287  0.2821  1.2661
 1217TIP3    H225287   4.031   1.613   1.218 -0.6403 -1.3341  2.8096
 1218TIP3   OH225288   6.502   1.308   2.359  0.1157  0.3393  0.7212
 1218TIP3    H125289   6.507   1.326   2.265  0.6406 -0.8486  0.5051
 1218TIP3    H225290   6.547   1.382   2.400 -2.3289  2.2381  0.2481
 1219TIP3   OH225291   4.064   6.447   8.474  0.2765  0.2872  0.3428
 1219TIP3    H125292   4.145   6.399   8.456  0.6749  0.9663  0.2877
 1219TIP3    H225293   4.077   6.484   8.561  1.0795  2.4561 -0.6235
 1220TIP3   OH225294   1.032   3.688   8.078  0.1872  0.5033  0.4342
 1220TIP3    H125295   0.980   3.607   8.083  2.1113 -0.9944 -1.7658
 1220TIP3    H225296   1.090   3.684   8.154 -1.8580  1.5092  2.1366
 1221TIP3   OH225297   2.460   1.356   8.215  0.4824  0.3968 -0.1781
 1221TIP3    H125298   2.544   1.399   8.199  0.5388 -0.3688 -2.1608
 1221TIP3    H225299   2.484   1.269   8.248  0.6766 -0.9189 -3.3958
 1222TIP3   OH225300   5.282   1.857   0.650  0.8618  0.3655  0.0354
 1222TIP3    H125301   5.273   1.916   0.724  3.4410 -2.8692  3.3515
 1222TIP3    H225302   5.251   1.772   0.683  0.0529 -0.8395 -3.4229
 1223TIP3   OH225303   6.639   2.275   2.407 -0.4236  0.1115  0.0367
 1223TIP3    H125304   6.703   2.303   2.342 -1.1030  1.1929 -0.2129
 1223TIP3    H225305   6.576   2.348   2.411 -1.6021 -0.8878  0.2983
 1224TIP3   OH225306   1.357   4.760   0.999 -0.2445  0.0382 -0.6165
 1224TIP3    H125307   1.422   4.825   1.025 -0.9859  1.3489 -1.8963
 1224TIP3    H225308   1.298   4.754   1.074  0.6732 -0.3085  0.0986
 1225TIP3   OH225309   2.112   5.783   8.277 -0.5806  0.5415  0.6598
 1225TIP3    H125310   2.135   5.875   8.263 -0.6760  0.7075  1.5125
 1225TIP3    H225311   2.056   5.784   8.355 -0.9723 -0.1887  0.3960
 1226TIP3   OH225312   5.771   6.562   8.367 -0.5726  0.5063 -0.7438
 1226TIP3    H125313   5.702   6.500   8.344 -0.2414 -0.1093 -0.1264
 1226TIP3    H225314   5.728   6.625   8.425 -0.6819  0.2720 -0.5674
 1227TIP3   OH225315   0.589   0.412   2.078 -0.1642 -0.4108 -0.3349
 1227TIP3    H125316   0.600   0.385   1.986  0.5173 -2.3324  0.2758
 1227TIP3    H225317   0.657   0.477   2.092  0.4719 -0.9486 -0.8794
 1228TIP3   OH225318   5.628   2.665   8.656  0.6604  0.1925 -0.0487
 1228TIP3    H125319   5.579   2.686   8.577  1.5846  0.7916 -0.4785
 1228TIP3    H225320   5.720   2.668   8.629  0.9503 -1.1591  0.6762
 1229TIP3   OH225321   0.452   0.500   0.849 -0.5331  0.1564 -0.1334
 1229TIP3    H125322   0.448   0.470   0.940  0.0321 -0.3180 -0.2599
 1229TIP3    H225323   0.545   0.502   0.829 -0.6686 -0.0266 -0.7984
 1230TIP3   OH225324   0.995   1.487   0.145  0.3050  0.0878  0.0623
 1230TIP3    H125325   0.925   1.538   0.186 -0.5434 -0.6718 -0.4103
 1230TIP3    H225326   1.029   1.544   0.076  0.2939  0.5417  0.4279
 1231TIP3   OH225327   2.704   4.723   0.943  0.1885 -0.0693  0.3620
 1231TIP3    H125328   2.665   4.645   0.902 -0.8036  0.6666 -0.1544
 1231TIP3    H225329   2.756   4.763   0.873  0.0536  0.1536  0.3889
 1232TIP3   OH225330   4.818   1.789   0.658  0.2997  0.4624 -0.2790
 1232TIP3    H125331   4.887   1.854   0.647 -0.1194  0.9218 -0.2000
 1232TIP3    H225332   4.845   1.716   0.602 -0.0600  1.3612 -1.6640
 1233TIP3   OH225333   0.785   6.718   1.627 -0.0947 -0.4822  0.0944
 1233TIP3    H125334   0.716   6.767   1.581  1.0093  1.9608  0.8463
 1233TIP3    H225335   0.765   6.626   1.610 -4.2010 -0.0096  1.1925
 1234TIP3   OH225336   1.729   1.692   3.194 -0.0907  1.0102  0.2745
 1234TIP3    H125337   1.707   1.690   3.101 -1.5682  0.4602  0.6102
 1234TIP3    H225338   1.701   1.779   3.223 -1.1421  0.5903  0.5397
 1235TIP3   OH225339   0.078   2.745   2.474  0.2384 -0.0694 -0.0765
 1235TIP3    H125340   0.109   2.677   2.534 -0.6240  0.0490  0.5404
 1235TIP3    H225341  -0.016   2.750   2.492 -0.1788 -0.5006 -1.9423
 1236TIP3   OH225342   0.123   4.311   8.304 -0.2117 -0.4056 -0.7174
 1236TIP3    H125343   0.150   4.277   8.389 -0.5939 -0.3810 -0.5868
 1236TIP3    H225344   0.198   4.293   8.246 -0.2420 -1.0824 -0.5505
 1237TIP3   OH225345   6.666   0.578   1.373 -0.4745  0.0166 -0.4005
 1237TIP3    H125346   6.744   0.599   1.322  0.3476  0.2712  0.9206
 1237TIP3    H225347   6.662   0.645   1.440 -0.4501 -1.3663  1.0401
 1238TIP3   OH225348   1.960   2.580   8.637  0.6079  0.7798 -0.5046
 1238TIP3    H125349   2.006   2.531   8.705  1.9153  0.1189 -1.7993
 1238TIP3    H225350   2.018   2.653   8.616 -0.2911  1.6128 -0.1748
 1239TIP3   OH225351   1.555   2.854   2.002 -0.7583 -0.1712  0.0007
 1239TIP3    H125352   1.575   2.890   2.088  0.1396 -0.3795 -0.1122
 1239TIP3    H225353   1.471   2.810   2.013 -0.6775 -0.1470  0.7529
 1240TIP3   OH225354   6.413   5.417   3.356  0.3048  0.1617  0.3620
 1240TIP3    H125355   6.478   5.486   3.365 -1.6843  1.9071  3.2861
 1240TIP3    H225356   6.329   5.461   3.372 -1.2815 -2.5347  0.1321
 1241TIP3   OH225357   6.807   4.646   8.544  0.1317 -0.5837  0.1123
 1241TIP3    H125358   6.784   4.696   8.622  1.0131 -0.9337  0.6115
 1241TIP3    H225359   6.893   4.609   8.564 -0.1891 -1.7249 -0.5093
 1242TIP3   OH225360   0.396   2.620   1.961 -0.1939 -0.2716 -0.2009
 1242TIP3    H125361   0.373   2.528   1.946 -1.1058  0.0818 -1.0672
 1242TIP3    H225362   0.472   2.635   1.905  0.9440 -0.8802  1.0976
 1243TIP3   OH225363   0.090   5.880   8.225 -0.6159 -0.0742  0.2356
 1243TIP3    H125364   0.107   5.858   8.317 -0.7112  2.6616  1.0164
 1243TIP3    H225365   0.165   5.934   8.200 -0.1450 -1.5221 -1.6331
 1244TIP3   OH225366   1.751   1.115   7.562 -0.6343 -0.0782  0.1358
 1244TIP3    H125367   1.808   1.039   7.575 -1.3266 -0.4176  1.3549
 1244TIP3    H225368   1.780   1.153   7.480  0.8256 -0.7025  0.3375
 1245TIP3   OH225369   6.780   5.218   1.100 -0.1670  1.1690 -0.2796
 1245TIP3    H125370   6.827   5.155   1.046 -0.7365 -0.3780  0.9370
 1245TIP3    H225371   6.771   5.295   1.045 -0.3050 -0.1585 -2.2173
 1246TIP3   OH225372   3.658   6.280   0.043 -0.0435 -0.2537  0.0597
 1246TIP3    H125373   3.702   6.341   0.103  0.3338  1.3102 -1.6933
 1246TIP3    H225374   3.709   6.285  -0.038 -2.0415 -0.1940 -1.2887
 1247TIP3   OH225375   5.411   2.966   1.085  0.0783 -0.1079  0.0926
 1247TIP3    H125376   5.428   3.037   1.147 -0.5918  0.8405 -0.7520
 1247TIP3    H225377   5.323   2.986   1.051  0.3328 -0.7181 -0.9678
 1248TIP3   OH225378   2.200   1.470   7.637 -0.2945  0.1080  0.6073
 1248TIP3    H125379   2.295   1.476   7.639 -0.1624  1.0722 -2.8262
 1248TIP3    H225380   2.170   1.560   7.632 -1.2930 -0.2281  0.1380
 1249TIP3   OH225381   3.478   1.704   1.149  0.3162  0.1702 -0.6685
 1249TIP3    H125382   3.401   1.647   1.155  0.3371  0.2325  0.4199
 1249TIP3    H225383   3.483   1.728   1.057 -0.5979 -0.3457 -0.8646
 1250TIP3   OH225384   0.211   1.518   8.578  0.4345 -0.2368  0.0236
 1250TIP3    H125385   0.297   1.478   8.593  0.1529 -0.4810  1.0558
 1250TIP3    H225386   0.154   1.478   8.643 -0.4178  0.0909 -0.5030
 1251TIP3   OH225387   3.799   3.111   1.184 -0.0610 -0.2560 -0.8572
 1251TIP3    H125388   3.711   3.079   1.164 -0.8217 -1.2428  3.1101
 1251TIP3    H225389   3.844   3.036   1.223  0.7780  1.3558  1.5575
 1252TIP3   OH225390   4.444   4.184   0.656 -0.3362 -0.1174 -0.8556
 1252TIP3    H125391   4.503   4.108   0.649  0.5991  0.1537  2.3216
 1252TIP3    H225392   4.489   4.254   0.610 -0.0629 -0.8770 -1.7815
 1253TIP3   OH225393   3.014   3.408   0.009 -0.2774 -0.2580  0.0834
 1253TIP3    H125394   3.019   3.313   0.013 -0.6148 -0.3212 -0.8276
 1253TIP3    H225395   2.991   3.428  -0.082 -2.3121  0.5835  0.7220
 1254TIP3   OH225396   0.387   6.290   8.528  0.3036 -0.0429  0.3860
 1254TIP3    H125397   0.372   6.196   8.526  1.4864 -0.2373 -0.9679
 1254TIP3    H225398   0.422   6.307   8.616  0.0216 -0.8567  0.6575
 1255TIP3   OH225399   3.658   3.428   7.113  0.2905  0.1189 -0.0002
 1255TIP3    H125400   3.616   3.388   7.036 -1.1386  0.5157  0.5437
 1255TIP3    H225401   3.750   3.435   7.088 -0.3196  1.4458 -2.2315
 1256TIP3   OH225402   5.211   0.317   3.026 -0.1327 -0.1672 -1.1515
 1256TIP3    H125403   5.188   0.398   3.073  0.8863  0.1232 -1.1390
 1256TIP3    H225404   5.278   0.344   2.963  1.3576 -1.2796 -0.1001
 1257TIP3   OH225405   1.177   3.579   0.012  0.2205  0.0244 -0.4051
 1257TIP3    H125406   1.177   3.638  -0.064 -1.4071  1.4606  0.6043
 1257TIP3    H225407   1.111   3.513  -0.010 -1.0199  1.0338  0.1046
 1258TIP3   OH225408   0.541   3.120   1.479  0.2493 -0.4358  0.6625
 1258TIP3    H125409   0.544   3.135   1.384  1.6853 -2.4449  0.3139
 1258TIP3    H225410   0.458   3.075   1.493 -0.9999  1.7700  0.7492
 1259TIP3   OH225411   3.871   0.862   0.096  0.2948 -0.2486 -0.7099
 1259TIP3    H125412   3.793   0.877   0.042  1.4839  1.2317 -2.1043
 1259TIP3    H225413   3.944   0.884   0.039  1.6840 -0.1706  1.0307
 1260TIP3   OH225414   6.790   6.267   7.902  0.3470  0.7668  0.5928
 1260TIP3    H125415   6.809   6.360   7.916  0.6094  0.6512  1.0337
 1260TIP3    H225416   6.840   6.222   7.970  3.2020  0.0064 -1.8019
 1261TIP3   OH225417   4.234   6.210   2.317  0.4323 -0.7345  0.4477
 1261TIP3    H125418   4.228   6.201   2.412  1.4752 -1.3729  0.4707
 1261TIP3    H225419   4.241   6.120   2.285 -1.2648 -0.6090 -0.3580
 1262TIP3   OH225420   1.696   3.381   2.631  0.2007  0.2408  0.2473
 1262TIP3    H125421   1.662   3.466   2.603 -2.1906 -0.7019  0.1052
 1262TIP3    H225422   1.724   3.395   2.721 -0.1719  1.1616  0.2310
 1263TIP3   OH225423   0.166   0.110   1.010  0.4073  0.0736 -0.0186
 1263TIP3    H125424   0.080   0.071   0.995 -0.0497  0.6162  1.0775
 1263TIP3    H225425   0.195   0.140   0.924 -0.9161  0.6995 -0.2673
 1264TIP3   OH225426   0.062   0.164   2.791  0.4385  0.3143  0.0556
 1264TIP3    H125427   0.049   0.257   2.806 -0.9442  0.1370  0.0844
 1264TIP3    H225428   0.065   0.125   2.878 -0.1674  0.1955  0.0276
 1265TIP3   OH225429   6.067   0.124   1.634 -0.3471 -0.4532  0.4171
 1265TIP3    H125430   6.136   0.190   1.632  0.3657 -1.1988 -1.3425
 1265TIP3    H225431   5.993   0.169   1.675  0.9658  0.5272  1.8479
 1266TIP3   OH225432   1.658   6.857   3.465  0.1424 -0.4038 -0.5008
 1266TIP3    H125433   1.644   6.947   3.493  1.1804 -0.6794  0.9762
 1266TIP3    H225434   1.590   6.807   3.510 -1.4562 -0.1960 -2.5564
 1267TIP3   OH225435   2.033   2.420   0.574  0.4891  0.4255  0.5943
 1267TIP3    H125436   1.961   2.439   0.634 -0.2421  0.4072 -0.2591
 1267TIP3    H225437   2.029   2.325   0.562  0.7787  0.4005  0.6883
 1268TIP3   OH225438   0.071   3.422   8.577  0.4254  0.1636 -0.3910
 1268TIP3    H125439   0.035   3.334   8.585  0.1222  0.1903 -1.3462
 1268TIP3    H225440   0.111   3.439   8.662 -0.1335 -0.6154  0.0425
 1269TIP3   OH225441   5.600   0.860   8.276 -0.1163  1.2959 -0.0049
 1269TIP3    H125442   5.510   0.886   8.295 -0.9707 -0.7200 -1.0066
 1269TIP3    H225443   5.615   0.784   8.332 -0.0365 -0.0360 -1.7457
 1270TIP3   OH225444   1.530   1.255   2.260  0.3189  0.7569 -0.0942
 1270TIP3    H125445   1.602   1.312   2.235  0.1144  0.5298 -1.2415
 1270TIP3    H225446   1.507   1.208   2.180 -0.7429  0.4242  0.3855
 1271TIP3   OH225447   6.547   6.157   2.452 -0.0554 -0.2235 -0.5776
 1271TIP3    H125448   6.552   6.076   2.402  0.1299 -0.7445  0.2569
 1271TIP3    H225449   6.595   6.221   2.399  0.9207 -0.9762 -0.6476
 1272TIP3   OH225450   3.865   1.157   2.060 -0.6185 -0.4760  0.0904
 1272TIP3    H125451   3.908   1.238   2.085  0.2967 -1.2843  1.2248
 1272TIP3    H225452   3.790   1.185   2.007  0.0241  1.0631 -0.0567
 1273TIP3   OH225453   3.127   6.174   2.192  0.5549  0.1638 -0.2626
 1273TIP3    H125454   3.103   6.198   2.282  1.9065 -1.2450  0.5358
 1273TIP3    H225455   3.044   6.149   2.151 -0.0587  0.5768  0.6891
 1274TIP3   OH225456   2.701   4.104   1.586  0.7126 -0.1659  0.0344
 1274TIP3    H125457   2.634   4.143   1.530  1.7351  1.5088 -0.0776
 1274TIP3    H225458   2.710   4.165   1.659  0.2736 -1.7050  1.4331
 1275TIP3   OH225459   5.992   3.325   2.464  0.2234  0.2999  0.1313
 1275TIP3    H125460   5.934   3.394   2.431  0.7675  1.1305  0.8620
 1275TIP3    H225461   5.938   3.277   2.527 -0.1137  0.1492 -0.2693
 1276TIP3   OH225462   6.788   2.260   3.602  0.5662  0.8119  0.0581
 1276TIP3    H125463   6.728   2.217   3.541  1.7569  0.5613 -0.9765
 1276TIP3    H225464   6.747   2.345   3.620 -1.3661 -0.3274  1.4290
 1277TIP3   OH225465   1.899   6.515   1.379 -0.1606 -0.2701  0.1560
 1277TIP3    H125466   1.966   6.471   1.326 -1.0143 -2.1061  0.5366
 1277TIP3    H225467   1.816   6.486   1.342 -0.7868  1.4351  0.1367
 1278TIP3   OH225468   4.573   3.140   1.493  0.0838 -0.4875 -0.1228
 1278TIP3    H125469   4.633   3.069   1.517 -0.0929 -0.6934 -0.2878
 1278TIP3    H225470   4.593   3.210   1.556  2.3680  0.4802 -1.7905
 1279TIP3   OH225471   3.488   4.116   1.494  0.0848  0.5503  0.2474
 1279TIP3    H125472   3.412   4.162   1.457  0.4980  1.2674  0.2689
 1279TIP3    H225473   3.557   4.128   1.429  0.6158  1.2288  0.9260
 1280TIP3   OH225474   0.188   2.481   0.308 -0.2666 -0.0536  0.1725
 1280TIP3    H125475   0.133   2.533   0.366 -0.6255  1.1755 -1.2336
 1280TIP3    H225476   0.163   2.390   0.327 -0.3190  0.2960  1.9616
 1281TIP3   OH225477   2.766   5.209   0.816  0.0401 -0.1054 -0.7061
 1281TIP3    H125478   2.766   5.281   0.752  3.8622  1.5690  0.8742
 1281TIP3    H225479   2.690   5.226   0.871  0.2452  2.1755 -1.0112
 1282TIP3   OH225480   4.295   6.744   1.502  0.0988  0.0670 -0.0282
 1282TIP3    H125481   4.267   6.733   1.412  0.0719  1.4434 -0.2096
 1282TIP3    H225482   4.256   6.827   1.530 -1.8573 -1.4295  2.0296
 1283TIP3   OH225483   5.932   1.263   2.892  0.0951 -0.2373  0.0689
 1283TIP3    H125484   5.973   1.288   2.975 -0.0435 -2.0867  0.7373
 1283TIP3    H225485   6.002   1.274   2.827  1.0630 -1.3614  0.8715
 1284TIP3   OH225486   4.138   5.465   0.691  0.0060  0.1047 -0.4629
 1284TIP3    H125487   4.188   5.488   0.769  1.0331  0.1196 -1.0915
 1284TIP3    H225488   4.135   5.546   0.640 -1.0156  0.2025 -0.2598
 1285TIP3   OH225489   2.142   6.350   8.195 -0.2083 -0.7377 -0.5750
 1285TIP3    H125490   2.124   6.348   8.101  0.0488  0.2898 -0.6546
 1285TIP3    H225491   2.170   6.440   8.213  1.5761 -1.3901  0.1380
 1286TIP3   OH225492   5.855   0.639   1.594  0.0384  0.1509  0.3334
 1286TIP3    H125493   5.940   0.614   1.630  0.7892  1.5915 -0.3711
 1286TIP3    H225494   5.857   0.735   1.592 -2.1359  0.2895  1.5757
 1287TIP3   OH225495   4.682   0.791   0.573 -0.0643 -0.0126 -0.2435
 1287TIP3    H125496   4.726   0.851   0.633  0.8023  1.4773 -2.2657
 1287TIP3    H225497   4.595   0.829   0.561  0.3340  0.6496 -1.1798
 1288TIP3   OH225498   1.972   1.832   2.331  0.5568  0.1987 -0.4780
 1288TIP3    H125499   2.032   1.863   2.264  0.8079 -0.6247 -0.6379
 1288TIP3    H225500   2.026   1.820   2.409  0.2735  1.1130 -0.1334
 1289TIP3   OH225501   6.885   3.187   1.275  0.0154  0.2690  0.0625
 1289TIP3    H125502   6.904   3.103   1.233  1.8919 -0.8154  2.7591
 1289TIP3    H225503   6.791   3.182   1.296 -0.2290 -0.4824 -1.0886
 1290TIP3   OH225504   0.633   3.096   7.629 -0.2926 -0.9858  0.0800
 1290TIP3    H125505   0.693   3.097   7.555 -1.2388  0.8640 -0.7049
 1290TIP3    H225506   0.616   3.188   7.648 -1.8415 -1.4490  1.1473
 1291TIP3   OH225507   0.365   5.212   2.287  0.4686  0.0519  0.6472
 1291TIP3    H125508   0.348   5.152   2.215  4.2155  0.3767 -0.7426
 1291TIP3    H225509   0.302   5.283   2.274 -1.7191 -1.8433  0.2794
 1292TIP3   OH225510   6.637   3.751   0.963 -0.5507  0.0458 -0.0700
 1292TIP3    H125511   6.640   3.691   1.037  0.8981 -0.0496 -0.1758
 1292TIP3    H225512   6.695   3.822   0.988 -2.3963  1.5678  0.1447
 1293TIP3   OH225513   3.933   2.617   0.253  0.0988  0.3254  0.0012
 1293TIP3    H125514   3.934   2.706   0.219 -0.0200  0.7719  1.1381
 1293TIP3    H225515   3.926   2.627   0.348  0.3141 -0.8894  0.1644
 1294TIP3   OH225516   6.355   3.993   8.306  0.0930  0.0694 -0.6441
 1294TIP3    H125517   6.362   3.916   8.249 -2.1676 -0.7608  0.0990
 1294TIP3    H225518   6.385   3.962   8.392 -1.7205 -0.3427 -0.1076
 1295TIP3   OH225519   0.405   3.661   2.718  0.2982  0.4828 -0.4047
 1295TIP3    H125520   0.321   3.684   2.677 -0.6478  0.2889  1.2969
 1295TIP3    H225521   0.469   3.665   2.647 -1.1421  0.6975 -1.7439
 1296TIP3   OH225522   4.316   4.842   1.464  0.1066 -0.0947 -0.5399
 1296TIP3    H125523   4.378   4.822   1.535  2.4932  2.4786 -1.6684
 1296TIP3    H225524   4.280   4.928   1.488  0.6463  0.6277 -2.1572
 1297TIP3   OH225525   0.176   4.833   3.187  0.1778  0.0679  0.4810
 1297TIP3    H125526   0.108   4.806   3.249  0.1176  0.3177  0.5233
 1297TIP3    H225527   0.253   4.781   3.212  0.2422  0.3901  0.9587
 1298TIP3   OH225528   1.573   1.940   8.039  0.5815 -0.1420 -0.1543
 1298TIP3    H125529   1.518   2.018   8.037 -0.2451 -0.6941 -2.2743
 1298TIP3    H225530   1.655   1.968   7.999  1.2972  0.2881  1.5679
 1299TIP3   OH225531   1.196   1.491   2.591 -0.3888  0.1376  0.1834
 1299TIP3    H125532   1.127   1.466   2.530  0.0010  1.3555 -0.7986
 1299TIP3    H225533   1.272   1.441   2.563 -0.0279  1.1903 -0.7958
 1300TIP3   OH225534   5.907   0.898   1.510  0.0734 -0.0665 -0.3861
 1300TIP3    H125535   5.914   0.993   1.511 -1.5938  0.1263 -1.6538
 1300TIP3    H225536   5.901   0.875   1.418 -0.8791 -1.2629 -0.0563
 1301TIP3   OH225537   5.911   3.655   0.215 -0.3387  0.4887  0.4439
 1301TIP3    H125538   5.979   3.589   0.200 -1.1264 -0.5648  1.3189
 1301TIP3    H225539   5.921   3.679   0.307  1.7881  3.8097 -0.4663
 1302TIP3   OH225540   3.609   2.629   3.070  0.0129  0.2309 -0.3762
 1302TIP3    H125541   3.581   2.709   3.024 -0.1800 -0.3690 -1.3168
 1302TIP3    H225542   3.531   2.601   3.117 -0.5358 -0.5313 -1.6943
 1303TIP3   OH225543   4.657   1.192   1.840 -0.6843 -0.5310  0.4690
 1303TIP3    H125544   4.715   1.246   1.787 -0.2832  0.7145  2.0824
 1303TIP3    H225545   4.615   1.133   1.778  0.5756  0.1073 -1.0498
 1304TIP3   OH225546   3.631   0.719   0.493 -0.1177 -0.1336  0.5385
 1304TIP3    H125547   3.649   0.757   0.579  2.5380 -0.2156  0.1154
 1304TIP3    H225548   3.717   0.687   0.463 -1.2433 -1.4508 -1.5003
 1305TIP3   OH225549   0.153   3.105   2.897  0.2925 -0.1415  0.1663
 1305TIP3    H125550   0.120   3.024   2.935  0.3662  0.1117  0.7993
 1305TIP3    H225551   0.243   3.112   2.930  0.8839 -0.6416 -1.2478
 1306TIP3   OH225552   4.793   6.013   0.467 -0.4537 -0.3228  0.5118
 1306TIP3    H125553   4.873   6.032   0.417 -1.5149  0.5661 -0.9404
 1306TIP3    H225554   4.819   5.944   0.528  2.0243  1.5693  1.7875
 1307TIP3   OH225555   4.493   0.805   0.296 -0.1994  0.0630  0.2639
 1307TIP3    H125556   4.577   0.800   0.251  0.1156 -2.2074  0.9621
 1307TIP3    H225557   4.513   0.844   0.380  0.5729 -2.0167  1.1251
 1308TIP3   OH225558   6.336   5.358   0.895 -0.0634 -0.3421 -0.0653
 1308TIP3    H125559   6.416   5.363   0.842  0.3611  1.1937  0.6532
 1308TIP3    H225560   6.280   5.427   0.860  0.7125  1.5739  2.1597
 1309TIP3   OH225561   2.617   6.503   7.845  0.5963  0.0294  0.2125
 1309TIP3    H125562   2.653   6.574   7.791 -1.6848  0.5667 -0.7208
 1309TIP3    H225563   2.547   6.544   7.895 -0.5070 -1.4622 -0.0453
 1310TIP3   OH225564   1.482   5.506   0.188 -0.2480  0.1564 -0.7488
 1310TIP3    H125565   1.506   5.598   0.198  0.8146 -0.1371 -0.5348
 1310TIP3    H225566   1.433   5.485   0.268  0.8531  0.1253 -0.0673
 1311TIP3   OH225567   3.643   1.702   2.752 -0.2886  0.0852  0.1087
 1311TIP3    H125568   3.732   1.736   2.745 -0.1749 -0.1373  0.4330
 1311TIP3    H225569   3.652   1.608   2.736 -0.5015  0.1002 -0.1020
 1312TIP3   OH225570   0.727   1.972   3.562 -0.3854  0.6481  0.2179
 1312TIP3    H125571   0.708   1.948   3.472 -0.0248  0.8357  0.0917
 1312TIP3    H225572   0.670   2.048   3.579 -0.3365  0.7118  0.0971
 1313TIP3   OH225573   3.517   3.057   1.161 -0.2100 -0.5975 -0.3443
 1313TIP3    H125574   3.531   3.134   1.107  0.2996 -0.3932  0.0699
 1313TIP3    H225575   3.430   3.026   1.137 -0.8124  0.6531  0.1712
 1314TIP3   OH225576   5.904   2.401   0.460 -0.3601  0.0026 -0.0161
 1314TIP3    H125577   5.958   2.343   0.515  0.4996 -0.9229 -1.7568
 1314TIP3    H225578   5.908   2.362   0.373  0.8542  3.0824 -1.4653
 1315TIP3   OH225579   4.817   4.916   7.062  0.7525  0.4220  0.4705
 1315TIP3    H125580   4.737   4.871   7.037 -0.0272  2.3418 -0.7110
 1315TIP3    H225581   4.885   4.848   7.059 -0.4315 -0.7559 -0.7226
 1316TIP3   OH225582   6.777   2.564   2.964  0.4067 -0.0023 -0.2443
 1316TIP3    H125583   6.861   2.563   2.919  0.9526  0.6846  0.7093
 1316TIP3    H225584   6.739   2.649   2.943 -0.6535 -0.7954 -1.6903
 1317TIP3   OH225585   2.601   2.870   2.333 -0.4907  0.4547 -0.1496
 1317TIP3    H125586   2.563   2.790   2.368  1.5450 -1.1152 -1.2780
 1317TIP3    H225587   2.668   2.895   2.397 -0.4851  0.7036 -0.2509
 1318TIP3   OH225588   1.163   0.769   1.373 -0.1005  0.4578  0.1001
 1318TIP3    H125589   1.186   0.766   1.281 -1.0208 -1.0249 -0.1025
 1318TIP3    H225590   1.079   0.814   1.375 -0.1120  0.4326  0.2137
 1319TIP3   OH225591   1.842   5.018   2.214 -0.0235  0.1235  0.0119
 1319TIP3    H125592   1.905   4.959   2.257  0.9476  0.1695 -1.3119
 1319TIP3    H225593   1.759   5.000   2.259  0.4935 -1.4173  0.4161
 1320TIP3   OH225594   0.217   2.379   2.339 -0.5288 -0.4413 -0.2448
 1320TIP3    H125595   0.230   2.472   2.357 -0.3577 -0.4465 -0.3371
 1320TIP3    H225596   0.305   2.346   2.322 -0.5189 -0.7496  0.3926
 1321TIP3   OH225597   5.399   5.465   0.321  0.3275  0.2685 -0.2629
 1321TIP3    H125598   5.475   5.501   0.366 -0.3635 -0.9461  2.0191
 1321TIP3    H225599   5.330   5.463   0.387 -1.1375 -0.4621 -1.7292
 1322TIP3   OH225600   3.612   4.950   0.404  0.4181 -0.0185  0.7333
 1322TIP3    H125601   3.672   4.935   0.477 -1.9022 -2.8498  2.2664
 1322TIP3    H225602   3.608   4.866   0.358 -2.4982 -0.0393  0.8765
 1323TIP3   OH225603   2.277   2.900   0.425  0.3402  0.0349 -0.1235
 1323TIP3    H125604   2.310   2.814   0.398  2.6410  0.8669 -0.1565
 1323TIP3    H225605   2.330   2.923   0.501  0.2900  1.7533 -0.5662
 1324TIP3   OH225606   2.509   1.355   7.459  0.3304 -0.0716 -0.1176
 1324TIP3    H125607   2.431   1.312   7.424 -0.2278 -0.2685  1.3261
 1324TIP3    H225608   2.498   1.447   7.435 -1.1872  0.2052  1.4427
 1325TIP3   OH225609   1.631   1.877   2.119 -0.1705  0.2137  0.3334
 1325TIP3    H125610   1.715   1.829   2.120 -0.7165 -0.8750 -1.4333
 1325TIP3    H225611   1.656   1.968   2.102  0.6625 -0.1081 -0.2627
 1326TIP3   OH225612   6.504   6.125   2.079 -0.1197  0.1784 -0.1486
 1326TIP3    H125613   6.483   6.112   1.987 -0.0359  0.4766 -0.2115
 1326TIP3    H225614   6.531   6.039   2.110 -0.4862 -0.0004 -0.3130
 1327TIP3   OH225615   2.277   5.397   2.611  0.5462  0.1947  0.5293
 1327TIP3    H125616   2.346   5.416   2.674  0.7199  0.4535  0.2653
 1327TIP3    H225617   2.267   5.302   2.614  1.4653  0.0673 -0.0059
 1328TIP3   OH225618   5.303   5.551   8.073 -0.4360  0.2008  0.3672
 1328TIP3    H125619   5.282   5.513   8.158 -1.7973 -0.0591 -0.0566
 1328TIP3    H225620   5.218   5.558   8.028  0.2744  0.1199 -1.0509
 1329TIP3   OH225621   5.034   3.200   0.087  1.2956  0.5434  0.1458
 1329TIP3    H125622   4.976   3.273   0.065  1.6333  0.5395 -0.7881
 1329TIP3    H225623   5.017   3.134   0.020  1.0424 -0.2254  0.9438
 1330TIP3   OH225624   1.257   3.819   1.930 -0.3802 -0.2971  0.6749
 1330TIP3    H125625   1.298   3.898   1.966 -0.5176  0.0009  0.1902
 1330TIP3    H225626   1.167   3.845   1.910  0.0633 -0.0117 -1.1924
 1331TIP3   OH225627   6.186   4.722   0.819 -0.1124  0.1053  0.1241
 1331TIP3    H125628   6.152   4.661   0.884  0.8752 -0.0795  0.4797
 1331TIP3    H225629   6.229   4.790   0.870  0.3136  0.1755 -0.3190
 1332TIP3   OH225630   1.771   5.286   2.576  0.3326  0.6031  0.1889
 1332TIP3    H125631   1.747   5.195   2.591 -1.5355  1.3096  1.8709
 1332TIP3    H225632   1.690   5.335   2.587  1.4349  2.5587  0.1141
 1333TIP3   OH225633   6.547   2.135   1.453 -0.2242  0.3777  0.5204
 1333TIP3    H125634   6.491   2.089   1.390  0.4166 -1.0770  0.9926
 1333TIP3    H225635   6.497   2.214   1.475 -0.3623  1.0743 -1.9830
 1334TIP3   OH225636   4.749   3.892   8.040  0.4386  0.2475 -0.3104
 1334TIP3    H125637   4.759   3.798   8.059  1.1987  0.8478  2.9493
 1334TIP3    H225638   4.665   3.915   8.081  0.8033  1.1840 -0.0699
 1335TIP3   OH225639   5.125   1.090   1.379 -0.6577  0.0147  0.2667
 1335TIP3    H125640   5.158   1.180   1.380 -0.0137 -0.1474 -1.5302
 1335TIP3    H225641   5.030   1.099   1.385 -0.6086  0.8377 -0.0136
 1336TIP3   OH225642   6.109   3.440   1.670 -0.0132  0.0258 -0.2153
 1336TIP3    H125643   6.116   3.535   1.670 -2.9299  0.4398  2.6792
 1336TIP3    H225644   6.016   3.423   1.651  0.1579 -2.1502  0.5929
 1337TIP3   OH225645   1.658   3.757   8.476 -0.1650  0.6029  0.3600
 1337TIP3    H125646   1.632   3.671   8.509 -0.9266  0.8186  0.3392
 1337TIP3    H225647   1.754   3.753   8.471 -0.1995 -0.2686  0.2771
 1338TIP3   OH225648   0.563   5.041   0.397  0.6061 -0.2657  0.3244
 1338TIP3    H125649   0.632   4.991   0.440  1.7129  1.3878  0.5280
 1338TIP3    H225650   0.581   5.132   0.418 -0.2079  0.4259 -1.6522
 1339TIP3   OH225651   4.147   1.437   1.775 -0.0939  0.2829  0.0196
 1339TIP3    H125652   4.193   1.510   1.818  0.8592 -0.3379  0.0805
 1339TIP3    H225653   4.102   1.478   1.701 -1.0907  1.2273  1.1023
 1340TIP3   OH225654   2.249   1.345   8.430 -0.5855 -0.1222  0.8553
 1340TIP3    H125655   2.307   1.362   8.356 -0.6989  1.8908  1.1758
 1340TIP3    H225656   2.252   1.425   8.482  0.8281 -2.0546  3.9932
 1341TIP3   OH225657   1.955   3.859   2.550 -0.0772  0.0441 -0.3951
 1341TIP3    H125658   1.928   3.773   2.520  0.9786 -0.1856 -0.7268
 1341TIP3    H225659   2.050   3.854   2.556 -0.0759  0.8659  0.5869
 1342TIP3   OH225660   1.952   5.528   8.156  0.0482 -0.1502 -0.4076
 1342TIP3    H125661   2.017   5.530   8.226 -0.8801 -0.1994  0.4757
 1342TIP3    H225662   2.000   5.557   8.078  1.1106 -0.1503  0.2248
 1343TIP3   OH225663   0.830   4.923   8.418 -0.1191  0.0788  0.2004
 1343TIP3    H125664   0.908   4.940   8.472  1.2652 -1.9159 -1.0060
 1343TIP3    H225665   0.826   4.827   8.413 -0.7329  0.1791 -2.4207
 1344TIP3   OH225666   3.745   1.897   6.954 -0.7410  0.0332  0.0694
 1344TIP3    H125667   3.693   1.842   6.894 -0.5762  0.0407 -0.0820
 1344TIP3    H225668   3.683   1.924   7.021 -0.9995  0.2648 -0.2581
 1345TIP3   OH225669   5.698   0.249   0.181  0.0532 -0.4961 -0.3447
 1345TIP3    H125670   5.607   0.267   0.203  0.2085 -0.2428  0.0987
 1345TIP3    H225671   5.744   0.330   0.201  0.6116 -1.0808  0.7994
 1346TIP3   OH225672   0.639   2.226   2.760 -0.0715 -0.5007  0.5936
 1346TIP3    H125673   0.712   2.244   2.820  0.9787 -0.1935 -0.7323
 1346TIP3    H225674   0.620   2.311   2.720  1.0428 -1.1497 -1.4427
 1347TIP3   OH225675   2.653   2.666   0.243  0.2584  0.1035  0.3153
 1347TIP3    H125676   2.565   2.699   0.262  1.1311  1.2861  2.6691
 1347TIP3    H225677   2.692   2.733   0.186  0.0942  0.2551  0.3792
 1348TIP3   OH225678   0.185   1.894   2.101  0.4032 -0.0372 -0.0094
 1348TIP3    H125679   0.180   1.970   2.043 -0.1736  0.0655  0.1731
 1348TIP3    H225680   0.143   1.922   2.182  1.5409 -0.0525  0.6077
 1349TIP3   OH225681   0.099   4.368   1.468 -0.1277 -0.2776 -0.1126
 1349TIP3    H125682   0.015   4.333   1.438 -0.5463  0.9174 -0.4020
 1349TIP3    H225683   0.129   4.424   1.396  0.5760 -0.1269  0.2802
 1350TIP3   OH225684   3.558   0.494   7.442  0.0212  0.1466 -0.2758
 1350TIP3    H125685   3.532   0.523   7.530  0.5554 -1.1915  0.3497
 1350TIP3    H225686   3.486   0.437   7.413 -0.5136  1.1750 -1.0456
 1351TIP3   OH225687   2.787   2.086   3.319 -0.0394  0.4485  0.7445
 1351TIP3    H125688   2.880   2.084   3.293 -0.2311  0.9927  0.0043
 1351TIP3    H225689   2.752   2.002   3.288 -0.0996  0.7973 -0.1638
 1352TIP3   OH225690   5.762   6.303   8.534  0.3164  0.9067 -0.3535
 1352TIP3    H125691   5.682   6.354   8.551 -0.9590 -0.3460 -2.1803
 1352TIP3    H225692   5.782   6.321   8.442  0.1599 -1.3514 -0.8914
 1353TIP3   OH225693   5.456   1.175   8.438 -0.2915 -0.1559 -0.1021
 1353TIP3    H125694   5.415   1.255   8.472  0.1854  0.0983 -0.1045
 1353TIP3    H225695   5.544   1.176   8.476 -0.2160 -0.5827 -0.2604
 1354TIP3   OH225696   2.292   5.655   0.744 -0.1462 -0.5520  0.1163
 1354TIP3    H125697   2.270   5.565   0.720 -0.6298 -0.3944 -0.0277
 1354TIP3    H225698   2.372   5.646   0.797  0.2912 -0.9893 -0.6027
 1355TIP3   OH225699   3.493   2.618   0.461 -0.2080 -0.2217  0.1169
 1355TIP3    H125700   3.411   2.627   0.509  0.6465 -1.3514  1.8589
 1355TIP3    H225701   3.480   2.672   0.382 -2.6160 -0.4192  0.3005
 1356TIP3   OH225702   4.130   2.753   1.209  0.4385  0.0908 -0.2284
 1356TIP3    H125703   4.164   2.816   1.145 -1.1079  0.4992 -0.6882
 1356TIP3    H225704   4.127   2.670   1.163 -1.2285  0.4990 -0.9365
 1357TIP3   OH225705   0.197   6.017   2.989 -0.1081  0.2483 -0.3411
 1357TIP3    H125706   0.224   5.962   3.062  0.6900 -0.1490 -0.9115
 1357TIP3    H225707   0.193   6.106   3.025 -1.9924 -0.2297  0.7384
 1358TIP3   OH225708   2.601   1.962   2.826 -0.5265 -0.3019  0.4477
 1358TIP3    H125709   2.570   1.878   2.861 -1.8764  0.0984  0.2794
 1358TIP3    H225710   2.608   2.019   2.902  1.5918 -0.8745  0.7428
 1359TIP3   OH225711   0.104   2.639   1.950 -0.0628 -0.1261 -0.3942
 1359TIP3    H125712   0.197   2.618   1.960 -0.2403 -1.3465 -1.0860
 1359TIP3    H225713   0.063   2.603   2.029 -0.0864 -0.5916 -0.6128
 1360TIP3   OH225714   2.380   0.096   2.809 -0.5521 -0.6757  0.2365
 1360TIP3    H125715   2.469   0.088   2.843 -0.8413 -1.1542  0.8953
 1360TIP3    H225716   2.330   0.029   2.856 -1.2397 -0.4715 -0.1931
 1361TIP3   OH225717   1.872   3.961   8.315  0.2062  0.2450 -0.2968
 1361TIP3    H125718   1.824   3.968   8.397  0.5149 -1.8374  0.1274
 1361TIP3    H225719   1.821   3.899   8.262  1.7344 -1.0988 -0.2942
 1362TIP3   OH225720   4.657   5.432   0.154  0.0385  0.6405 -0.2366
 1362TIP3    H125721   4.725   5.404   0.216 -0.6660 -1.5296 -0.3712
 1362TIP3    H225722   4.575   5.407   0.195 -0.8151  3.4985  0.0525
 1363TIP3   OH225723   0.374   4.917   8.530 -0.9677 -0.0145 -0.3266
 1363TIP3    H125724   0.339   4.847   8.585 -2.5334  0.3384 -0.8042
 1363TIP3    H225725   0.468   4.914   8.544 -0.8123 -3.0445 -1.3285
 1364TIP3   OH225726   3.266   4.336   0.816 -0.0883  0.0311  0.1207
 1364TIP3    H125727   3.226   4.423   0.812 -1.1839 -0.4850 -0.5550
 1364TIP3    H225728   3.192   4.276   0.811  0.2085 -1.0297  4.3943
 1365TIP3   OH225729   0.365   5.195   7.843  0.3599  0.1132  0.4412
 1365TIP3    H125730   0.407   5.141   7.910  0.9770 -1.1984 -0.9324
 1365TIP3    H225731   0.391   5.153   7.760 -1.6929  0.7177 -0.5502
 1366TIP3   OH225732   1.771   5.237   1.563  0.6453  0.3197  0.3611
 1366TIP3    H125733   1.728   5.160   1.527  0.6191  0.1030  0.8527
 1366TIP3    H225734   1.766   5.302   1.493  0.9656 -0.2291 -0.1793
 1367TIP3   OH225735   6.692   6.849   1.738  0.4823 -0.1649  0.2264
 1367TIP3    H125736   6.768   6.790   1.735  2.0199  1.7271 -0.7350
 1367TIP3    H225737   6.677   6.874   1.647  0.7501  1.8685  0.6689
 1368TIP3   OH225738   2.315   4.177   2.336  0.3671 -0.1008  0.8259
 1368TIP3    H125739   2.241   4.190   2.395  0.5144  0.9007  0.8019
 1368TIP3    H225740   2.391   4.206   2.386  0.3316  2.1967 -0.3323
 1369TIP3   OH225741   5.383   1.106   0.288 -0.1836  0.3353  0.2895
 1369TIP3    H125742   5.442   1.173   0.322  0.1475 -0.6632  1.8001
 1369TIP3    H225743   5.336   1.074   0.365 -1.5231 -0.0416 -0.6351
 1370TIP3   OH225744   3.982   2.146   8.184  0.4594  0.1397  0.0000
 1370TIP3    H125745   3.978   2.195   8.101 -0.9730  1.0311  0.5620
 1370TIP3    H225746   3.996   2.056   8.157  1.8475  0.6493 -1.1243
 1371TIP3   OH225747   1.122   5.631   2.053  0.0571 -0.0600 -0.2397
 1371TIP3    H125748   1.199   5.658   2.004 -0.2084 -0.6672 -1.0090
 1371TIP3    H225749   1.155   5.614   2.142  1.4014 -2.9930 -1.1782
 1372TIP3   OH225750   1.640   6.020   7.068  0.6289 -0.6728 -0.2498
 1372TIP3    H125751   1.612   5.932   7.091 -0.0759 -0.3894  0.0148
 1372TIP3    H225752   1.713   6.038   7.127  0.2504 -0.7819  0.2615
 1373TIP3   OH225753   2.154   0.117   3.251 -0.1458 -0.0153 -0.1142
 1373TIP3    H125754   2.213   0.087   3.321  1.3033 -0.3352 -1.4224
 1373TIP3    H225755   2.196   0.196   3.217 -0.2324 -0.4803 -1.3439
 1374TIP3   OH225756   4.317   2.919   2.323 -0.4460  0.7444 -0.4985
 1374TIP3    H125757   4.293   2.962   2.404  0.1920  0.1521  0.0276
 1374TIP3    H225758   4.336   2.990   2.262 -0.7904  1.1938 -0.0866
 1375TIP3   OH225759   1.248   6.811   0.709 -0.1918  0.2665  0.2313
 1375TIP3    H125760   1.286   6.780   0.627 -2.3125 -0.8028 -0.4328
 1375TIP3    H225761   1.217   6.731   0.753  0.7776  0.8299  2.0376
 1376TIP3   OH225762   0.412   3.339   2.018  0.3431 -0.1189  0.4537
 1376TIP3    H125763   0.405   3.417   1.963 -0.1546 -0.1236  0.4998
 1376TIP3    H225764   0.466   3.279   1.968  0.8353  0.3019  0.4717
 1377TIP3   OH225765   3.847   3.257   1.688 -0.2207 -0.6041  0.2974
 1377TIP3    H125766   3.823   3.348   1.710 -0.3970 -1.4260  4.2683
 1377TIP3    H225767   3.942   3.255   1.695 -0.2889 -0.9039  1.4447
 1378TIP3   OH225768   0.281   3.177   0.040 -0.3570 -0.2632 -0.0374
 1378TIP3    H125769   0.352   3.181  -0.023  0.3851 -0.7378  0.7597
 1378TIP3    H225770   0.210   3.133  -0.006 -1.0643  2.3709 -1.6896
 1379TIP3   OH225771   0.498   4.985   7.333 -0.2798 -0.6167 -0.0376
 1379TIP3    H125772   0.411   4.956   7.308 -1.7361  2.9145  0.3425
 1379TIP3    H225773   0.537   5.017   7.251 -0.1488 -0.2890  0.1514
 1380TIP3   OH225774   1.798   2.049   2.342  0.6942 -0.1209 -0.3524
 1380TIP3    H125775   1.856   1.974   2.360 -1.0859 -1.3793  0.3814
 1380TIP3    H225776   1.855   2.125   2.350  2.4528 -1.3437 -0.5579
 1381TIP3   OH225777   5.955   3.760   8.083  0.1188  0.6037 -0.2596
 1381TIP3    H125778   6.001   3.807   8.152  1.7657 -1.8045  0.4434
 1381TIP3    H225779   5.876   3.726   8.126  0.2446  0.5892 -0.0385
 1382TIP3   OH225780   1.448   0.587   0.380  0.5289  0.0017 -0.1850
 1382TIP3    H125781   1.400   0.590   0.463  1.9756  0.5465  0.6743
 1382TIP3    H225782   1.466   0.494   0.366  0.6596 -0.0573  0.3478
 1383TIP3   OH225783   2.172   5.428   2.345  0.2809  0.3659  0.1993
 1383TIP3    H125784   2.090   5.380   2.358  0.5154 -0.1280 -0.0991
 1383TIP3    H225785   2.201   5.451   2.433  0.7654 -1.0771  0.4426
 1384TIP3   OH225786   2.899   1.665   2.810 -0.1505 -0.0910  0.2494
 1384TIP3    H125787   2.883   1.683   2.903  0.4916  0.7823  0.2108
 1384TIP3    H225788   2.841   1.726   2.764 -2.4429 -2.3015  0.0029
 1385TIP3   OH225789   5.773   4.450   2.528 -0.0396  0.1396  0.0467
 1385TIP3    H125790   5.785   4.355   2.529 -0.8470  0.0301 -0.0089
 1385TIP3    H225791   5.803   4.479   2.614 -1.8329 -0.4396  0.8954
 1386TIP3   OH225792   2.361   4.563   2.048  1.0767  0.7621 -0.3271
 1386TIP3    H125793   2.290   4.500   2.058  1.8748 -0.2662 -0.8777
 1386TIP3    H225794   2.341   4.633   2.110 -0.2616  0.3679 -0.2868
 1387TIP3   OH225795   3.473   2.052   1.801 -0.7994 -0.2565  0.7871
 1387TIP3    H125796   3.489   2.016   1.888  1.1051  0.3591  0.7476
 1387TIP3    H225797   3.485   1.978   1.741  0.1148 -0.2396  0.9241
 1388TIP3   OH225798   4.519   5.301   7.080  0.6958 -0.1149  0.9215
 1388TIP3    H125799   4.533   5.396   7.083 -0.0466 -0.0163  3.2697
 1388TIP3    H225800   4.554   5.269   7.164 -0.5761 -1.6731  0.9007
 1389TIP3   OH225801   1.444   1.573   7.694  0.7574  0.0353 -0.0626
 1389TIP3    H125802   1.506   1.507   7.725  1.6479  0.7788 -0.2044
 1389TIP3    H225803   1.358   1.536   7.711  1.2285 -1.5702 -0.9818
 1390TIP3   OH225804   2.652   1.828   2.381 -0.0331  0.2417 -0.8565
 1390TIP3    H125805   2.560   1.851   2.367  0.2126  0.8616 -1.5066
 1390TIP3    H225806   2.697   1.861   2.303  0.6718 -0.4789 -0.7635
 1391TIP3   OH225807   2.760   3.695   1.177 -0.0911 -0.2323 -0.4959
 1391TIP3    H125808   2.666   3.714   1.179  0.4432  2.8684 -0.2496
 1391TIP3    H225809   2.777   3.650   1.260 -1.1819  0.0965 -0.0722
 1392TIP3   OH225810   2.796   4.099   1.946 -0.0955  0.3055  0.2696
 1392TIP3    H125811   2.703   4.074   1.940  0.0135  0.0040 -0.2973
 1392TIP3    H225812   2.842   4.031   1.896  0.2905  1.2129 -0.6512
 1393TIP3   OH225813   1.498   0.081   0.103  0.0699  0.7217  0.4771
 1393TIP3    H125814   1.565   0.105   0.167  1.7133 -0.1451 -0.8366
 1393TIP3    H225815   1.491   0.157   0.046  1.2109  0.2232 -0.3742
 1394TIP3   OH225816   5.533   0.186   8.432 -0.4336  0.2934 -0.0748
 1394TIP3    H125817   5.538   0.256   8.497 -0.8099 -0.5890  0.9228
 1394TIP3    H225818   5.446   0.195   8.394 -1.4394 -1.0550  1.7419
 1395TIP3   OH225819   6.255   1.560   7.907 -0.4511 -0.0613  0.1061
 1395TIP3    H125820   6.210   1.511   7.838 -1.1398  0.9949 -0.2177
 1395TIP3    H225821   6.327   1.503   7.934 -0.5813 -0.7783 -1.0051
 1396TIP3   OH225822   5.485   0.887   1.423  1.0255 -0.3256  0.1124
 1396TIP3    H125823   5.411   0.861   1.368  0.3724  1.4274  0.0809
 1396TIP3    H225824   5.552   0.821   1.408  0.3643 -0.6041 -1.7786
 1397TIP3   OH225825   6.583   2.889   0.354 -0.6391  0.8891  0.0393
 1397TIP3    H125826   6.671   2.906   0.320 -0.4723 -0.3439 -0.1803
 1397TIP3    H225827   6.526   2.895   0.277 -0.5050 -0.0849 -0.1400
 1398TIP3   OH225828   4.966   3.796   1.522 -0.3106 -0.4762 -0.7327
 1398TIP3    H125829   4.871   3.783   1.522 -0.6614  1.5114  0.9011
 1398TIP3    H225830   4.977   3.881   1.479  1.0172 -1.8243 -3.2616
 1399TIP3   OH225831   3.340   6.472   8.068  0.1598 -0.1751 -0.5019
 1399TIP3    H125832   3.270   6.497   8.128 -1.3021 -0.4137 -2.0541
 1399TIP3    H225833   3.384   6.554   8.047 -1.5215  0.4684 -1.7461
 1400TIP3   OH225834   2.063   5.738   2.209  0.0129  0.3961  0.7797
 1400TIP3    H125835   2.019   5.662   2.246 -1.5844  0.6464 -0.5309
 1400TIP3    H225836   2.152   5.733   2.244 -0.0021 -2.1462  0.5994
 1401TIP3   OH225837   4.823   6.138   8.651  0.0195 -0.8303 -0.2847
 1401TIP3    H125838   4.740   6.162   8.610 -0.2452 -3.6280 -1.5971
 1401TIP3    H225839   4.805   6.055   8.694  1.6974 -0.5280  1.1103
 1402TIP3   OH225840   5.831   0.948   0.878 -0.1191 -0.4687 -0.0271
 1402TIP3    H125841   5.742   0.951   0.914 -0.5544  0.6957 -1.1174
 1402TIP3    H225842   5.819   0.918   0.788  0.6871 -0.9804  0.0246
 1403TIP3   OH225843   2.495   0.875   8.306  0.7133 -0.8604 -0.0974
 1403TIP3    H125844   2.412   0.897   8.264  1.5500 -0.0141 -1.3274
 1403TIP3    H225845   2.512   0.785   8.279 -0.1658 -1.3321  0.8108
 1404TIP3   OH225846   0.154   2.847   8.438 -0.0360 -0.4514 -0.3217
 1404TIP3    H125847   0.200   2.924   8.406 -0.7607  0.3476  0.5021
 1404TIP3    H225848   0.102   2.817   8.364 -0.7290  0.6190 -0.2744
 1405TIP3   OH225849   0.850   0.437   1.729  0.3154  0.3401  0.4534
 1405TIP3    H125850   0.877   0.455   1.819 -0.9069  2.2079  0.4988
 1405TIP3    H225851   0.755   0.422   1.736  0.6329 -2.6291 -0.1463
 1406TIP3   OH225852   0.226   2.083   7.925  0.3036 -0.8892  0.0192
 1406TIP3    H125853   0.293   2.016   7.911  0.7452 -0.3457 -0.5279
 1406TIP3    H225854   0.276   2.161   7.951 -0.2903 -1.0870  1.8922
 1407TIP3   OH225855   4.531   4.959   8.555  0.4755  0.4508 -0.2281
 1407TIP3    H125856   4.540   4.884   8.614  1.1033  0.3334 -0.4703
 1407TIP3    H225857   4.494   4.922   8.475  1.6474  0.2281 -0.6823
 1408TIP3   OH225858   6.356   4.246   2.137  0.5146  0.2819  0.3379
 1408TIP3    H125859   6.384   4.190   2.065 -2.3698  1.7566 -2.1416
 1408TIP3    H225860   6.331   4.328   2.096 -0.0380  1.7026  3.2343
 1409TIP3   OH225861   4.790   6.192   0.218 -0.4020 -1.3440  0.6062
 1409TIP3    H125862   4.820   6.102   0.207  1.2437 -0.6376 -1.3951
 1409TIP3    H225863   4.822   6.238   0.140  0.7139  1.4654  2.5231
 1410TIP3   OH225864   4.676   0.330   7.139 -0.1544  0.6223  0.3602
 1410TIP3    H125865   4.624   0.253   7.116 -1.1836  1.0413  1.1895
 1410TIP3    H225866   4.670   0.387   7.062  2.0819 -0.8124 -0.9934
 1411TIP3   OH225867   3.974   0.843   1.692  0.0527 -0.1384  0.6235
 1411TIP3    H125868   3.930   0.923   1.720  1.6282  1.0876 -0.2726
 1411TIP3    H225869   3.987   0.854   1.598  1.2268 -0.9661  0.6622
 1412TIP3   OH225870   4.970   4.638   7.902  0.1417  0.2297 -0.4119
 1412TIP3    H125871   4.891   4.599   7.864  0.8208 -0.4911 -1.1188
 1412TIP3    H225872   5.042   4.604   7.848  0.7013  3.5638 -2.0366
 1413TIP3   OH225873   0.947   6.883   8.322 -0.8063 -0.2867  0.2224
 1413TIP3    H125874   1.009   6.820   8.359 -0.3906  0.4103  0.7330
 1413TIP3    H225875   0.863   6.838   8.325 -0.1731 -1.7412 -1.6382
 1414TIP3   OH225876   6.809   2.674   0.128  0.0602 -0.1231 -1.0477
 1414TIP3    H125877   6.828   2.687   0.221 -1.3480 -0.7131 -0.6530
 1414TIP3    H225878   6.715   2.656   0.125  0.3348 -1.5060 -2.4372
 1415TIP3   OH225879   3.401   0.837   0.083 -0.0006  0.1574 -0.7118
 1415TIP3    H125880   3.365   0.916   0.124 -1.3565  0.0023 -1.5369
 1415TIP3    H225881   3.349   0.827   0.003  1.5074 -0.4371 -1.6442
 1416TIP3   OH225882   0.974   3.910   2.873 -0.8730  0.4526 -0.2072
 1416TIP3    H125883   1.020   3.847   2.819 -0.3109  1.0856 -0.4807
 1416TIP3    H225884   0.900   3.861   2.910  0.5626 -0.8677  1.0597
 1417TIP3   OH225885   1.400   6.440   0.493 -0.2045  0.1088  0.0154
 1417TIP3    H125886   1.337   6.371   0.469 -1.6130  1.2295  0.3526
 1417TIP3    H225887   1.469   6.433   0.427 -1.8225  0.2954 -1.7911
 1418TIP3   OH225888   1.868   6.798   0.163 -0.1450  0.2355  0.0691
 1418TIP3    H125889   1.809   6.846   0.105 -2.0240  2.8808  3.7292
 1418TIP3    H225890   1.934   6.862   0.189 -0.7326 -0.0329  2.5005
 1419TIP3   OH225891   3.501   6.683   1.184 -0.1117 -0.9821 -0.0763
 1419TIP3    H125892   3.542   6.693   1.098 -0.4425  1.2084 -0.0237
 1419TIP3    H225893   3.425   6.742   1.182  0.1062 -0.5634  1.8519
 1420TIP3   OH225894   0.215   3.522   2.917 -0.0986  0.1066  0.2020
 1420TIP3    H125895   0.198   3.614   2.894 -0.1299  0.5730  1.9978
 1420TIP3    H225896   0.309   3.520   2.937 -0.0283 -0.3453 -0.1637
 1421TIP3   OH225897   0.347   6.727   0.841  0.1410  0.2361  0.2290
 1421TIP3    H125898   0.422   6.734   0.901 -0.1693  1.2694  0.5080
 1421TIP3    H225899   0.376   6.770   0.761 -0.1720  0.7070  0.3635
 1422TIP3   OH225900   5.510   2.059   8.182 -0.1596 -0.1597 -0.2331
 1422TIP3    H125901   5.435   2.092   8.232 -1.1857 -1.9019 -0.5449
 1422TIP3    H225902   5.571   2.028   8.249 -1.4979 -2.4294  0.0211
 1423TIP3   OH225903   6.566   1.818   1.576  0.1378  0.3127 -0.0907
 1423TIP3    H125904   6.482   1.860   1.592 -0.6227 -0.0682 -2.6303
 1423TIP3    H225905   6.631   1.884   1.599 -0.8368  0.7395  1.5659
 1424TIP3   OH225906   1.971   3.114   1.193 -0.1685 -0.5524 -0.1067
 1424TIP3    H125907   1.892   3.160   1.165  1.2574  0.8252 -2.1810
 1424TIP3    H225908   1.977   3.038   1.134 -0.1611 -0.8842  0.3186
 1425TIP3   OH225909   3.982   0.167   0.168  0.0865 -0.1231 -0.1426
 1425TIP3    H125910   4.041   0.224   0.217  0.1326 -0.1067 -0.2159
 1425TIP3    H225911   3.905   0.158   0.223 -0.1152  0.3846 -0.3321
 1426TIP3   OH225912   0.564   2.849   0.998 -0.0651 -0.2373  0.0945
 1426TIP3    H125913   0.622   2.853   0.922  0.5684 -0.9240  0.5185
 1426TIP3    H225914   0.495   2.788   0.972 -0.3752  0.2739 -0.2735
 1427TIP3   OH225915   1.407   6.683   7.400  0.0004  0.2478  0.4759
 1427TIP3    H125916   1.461   6.685   7.479 -1.1738 -0.8275  1.3336
 1427TIP3    H225917   1.318   6.696   7.431 -0.3555  1.1456 -0.8367
 1428TIP3   OH225918   4.788   4.643   0.898 -0.0116 -0.2164  0.0051
 1428TIP3    H125919   4.848   4.695   0.952  0.8211 -1.9228  0.7930
 1428TIP3    H225920   4.701   4.670   0.927  0.3625  1.3059 -0.1814
 1429TIP3   OH225921   5.460   6.688   1.032  0.2356 -0.4737 -0.3882
 1429TIP3    H125922   5.538   6.647   1.069 -0.3479 -1.1978  0.0696
 1429TIP3    H225923   5.387   6.633   1.062 -0.5145  0.5651 -0.2451
 1430TIP3   OH225924   1.497   4.369   8.338  0.3155  0.8234 -0.4879
 1430TIP3    H125925   1.581   4.331   8.362 -0.8766 -1.4936  0.3571
 1430TIP3    H225926   1.501   4.378   8.242  1.1846 -0.0940 -0.5517
 1431TIP3   OH225927   2.913   4.642   0.275 -0.4892  0.2611  0.2905
 1431TIP3    H125928   3.001   4.679   0.284 -0.0574 -0.7124  0.2027
 1431TIP3    H225929   2.855   4.719   0.274  0.1543  0.8494  2.5084
 1432TIP3   OH225930   5.550   0.141   1.724 -0.7408 -0.1530  0.4656
 1432TIP3    H125931   5.483   0.101   1.669 -0.6614 -0.0031  0.2584
 1432TIP3    H225932   5.546   0.092   1.806 -0.0130 -1.1788 -0.1027
 1433TIP3   OH225933   1.058   5.171   2.877  0.0671 -0.0775  0.0858
 1433TIP3    H125934   1.115   5.190   2.951  1.7014 -0.6296 -0.9774
 1433TIP3    H225935   1.028   5.082   2.891 -1.5833  0.6112  1.2641
 1434TIP3   OH225936   0.055   1.094   2.281 -0.5321  0.0423 -0.6814
 1434TIP3    H125937   0.101   1.161   2.230  1.2072 -0.0907  0.6480
 1434TIP3    H225938  -0.013   1.062   2.221 -2.2700  3.7760 -1.0112
 1435TIP3   OH225939   2.476   6.010   7.477  0.1324  0.6782  0.2707
 1435TIP3    H125940   2.560   6.053   7.492  0.3584  0.1948  0.4391
 1435TIP3    H225941   2.439   6.054   7.401 -0.0418  1.7437  0.9516
 1436TIP3   OH225942   2.880   6.385   2.675  0.7346  0.3623  0.1916
 1436TIP3    H125943   2.799   6.335   2.663  0.4482  0.5738  1.1770
 1436TIP3    H225944   2.896   6.426   2.589 -0.6555  0.9947  0.2060
 1437TIP3   OH225945   2.651   6.252   1.484  0.0189  0.3581  0.0597
 1437TIP3    H125946   2.671   6.175   1.537  1.5007  0.8480  0.2606
 1437TIP3    H225947   2.608   6.216   1.406  0.6228 -0.6643  0.1766
 1438TIP3   OH225948   5.028   1.921   1.307 -0.1211 -0.6688  0.5005
 1438TIP3    H125949   5.034   2.015   1.295  1.3994 -0.5978  1.6634
 1438TIP3    H225950   4.934   1.904   1.318 -0.3511  0.7603  0.8353
 1439TIP3   OH225951   5.648   4.141   0.357  0.1978 -0.6415  0.2191
 1439TIP3    H125952   5.739   4.162   0.332 -0.5837  0.3753 -2.0580
 1439TIP3    H225953   5.644   4.161   0.451  1.8461  1.1306 -0.0243
 1440TIP3   OH225954   3.055   0.302   2.201 -0.3282  0.5010  0.4708
 1440TIP3    H125955   3.070   0.315   2.107 -0.6413  1.0834  0.4944
 1440TIP3    H225956   3.114   0.364   2.244 -1.0714  1.1290  0.6179
 1441TIP3   OH225957   6.076   4.575   8.687  0.2787  0.1053  0.0537
 1441TIP3    H125958   6.144   4.575   8.754 -0.5138  1.1560  0.8989
 1441TIP3    H225959   6.124   4.576   8.604  1.2771 -0.6403  0.5978
 1442TIP3   OH225960   0.828   3.835   0.707 -0.0275  0.3793 -0.0836
 1442TIP3    H125961   0.817   3.754   0.657  0.6782  0.2767 -0.0796
 1442TIP3    H225962   0.912   3.871   0.677  0.1065  0.6344  0.5814
 1443TIP3   OH225963   2.704   2.339   3.246  0.2669 -0.3322  0.3488
 1443TIP3    H125964   2.724   2.249   3.221  0.0040 -0.5799  0.9856
 1443TIP3    H225965   2.620   2.332   3.292 -0.8412  0.5383 -1.4600
 1444TIP3   OH225966   4.177   0.181   1.223  0.5534  0.2612 -0.0787
 1444TIP3    H125967   4.250   0.156   1.165  0.1532 -0.2359 -0.3717
 1444TIP3    H225968   4.127   0.100   1.235  0.6437  0.3465  0.9912
 1445TIP3   OH225969   5.074   0.641   1.857 -0.2789 -0.2982  0.5772
 1445TIP3    H125970   5.013   0.571   1.834 -1.9422  1.0052  0.7638
 1445TIP3    H225971   5.060   0.655   1.951 -1.5321  1.6258  0.1630
 1446TIP3   OH225972   2.103   1.491   7.333  0.1762  0.3510  0.0887
 1446TIP3    H125973   2.159   1.566   7.313  0.1885 -0.0322 -1.4782
 1446TIP3    H225974   2.153   1.440   7.397  0.0629  1.7703  1.3652
 1447TIP3   OH225975   2.890   6.291   0.868  0.0535 -0.4190 -0.2067
 1447TIP3    H125976   2.898   6.202   0.904  2.0160 -0.7737 -1.3739
 1447TIP3    H225977   2.835   6.280   0.790 -0.1104 -0.5115 -0.0797
 1448TIP3   OH225978   2.427   5.964   1.076 -0.1494  0.3601 -0.5833
 1448TIP3    H125979   2.341   5.974   1.116  0.7339  0.9328  1.2790
 1448TIP3    H225980   2.459   6.053   1.063  0.2954  0.1513 -0.9610
 1449TIP3   OH225981   6.367   2.025   2.672  0.5896 -0.1094  0.0170
 1449TIP3    H125982   6.350   2.057   2.584  1.2497 -0.9432 -0.4212
 1449TIP3    H225983   6.459   2.045   2.687  0.0539  1.7090  1.2459
 1450TIP3   OH225984   6.801   2.142   1.728  0.5988 -0.4941  0.4076
 1450TIP3    H125985   6.868   2.203   1.759 -0.2736  0.7776 -0.1464
 1450TIP3    H225986   6.804   2.148   1.633 -0.2614 -0.4704  0.3745
 1451TIP3   OH225987   5.231   5.869   3.243 -0.3171 -0.2179  0.0491
 1451TIP3    H125988   5.154   5.885   3.187  0.4447  0.4964 -0.8254
 1451TIP3    H225989   5.194   5.836   3.325 -1.6263  0.9603 -0.0296
 1452TIP3   OH225990   2.204   5.326   8.073  0.5274 -0.2980 -0.0502
 1452TIP3    H125991   2.168   5.395   8.129 -1.6079 -1.0833 -0.3471
 1452TIP3    H225992   2.244   5.373   8.000 -0.6942  0.6459 -0.1410
 1453TIP3   OH225993   6.748   1.266   7.886 -0.3923 -0.3057  0.0052
 1453TIP3    H125994   6.786   1.207   7.820 -0.1518  0.3135 -0.4197
 1453TIP3    H225995   6.782   1.353   7.863 -1.0748  0.0686  0.3731
 1454TIP3   OH225996   6.151   3.503   0.457 -0.4124  0.2683  0.4906
 1454TIP3    H125997   6.233   3.552   0.452  0.0878 -0.3287  2.2134
 1454TIP3    H225998   6.104   3.544   0.530 -0.8376 -0.5542  0.6807
 1455TIP3   OH225999   3.256   0.882   7.238  0.0452  0.4221 -0.4232
 1455TIP3    H126000   3.205   0.806   7.208 -1.1454 -0.1157  2.5657
 1455TIP3    H226001   3.347   0.851   7.237 -0.3725 -0.9337  0.3294
 1456TIP3   OH226002   4.551   0.925   8.132 -0.6297  0.1563 -0.1264
 1456TIP3    H126003   4.633   0.973   8.122 -1.5459  1.5599 -1.2237
 1456TIP3    H226004   4.505   0.972   8.202 -1.6153  1.0629 -1.3399
 1457TIP3   OH226005   0.411   6.007   8.431  0.0140  0.0248 -0.4219
 1457TIP3    H126006   0.407   5.916   8.458  0.2649  0.2743  0.4711
 1457TIP3    H226007   0.476   6.009   8.361 -0.1233 -0.5090 -0.5646
 1458TIP3   OH226008   3.578   3.825   0.925 -0.4749 -0.5400 -0.6032
 1458TIP3    H126009   3.519   3.866   0.862 -0.4047 -1.5404 -1.3378
 1458TIP3    H226010   3.632   3.897   0.957 -0.2874 -0.0602 -1.9444
 1459TIP3   OH226011   4.980   2.160   1.990 -0.3276  0.6055 -0.7258
 1459TIP3    H126012   4.923   2.085   2.010 -0.9400  0.6321 -2.1918
 1459TIP3    H226013   5.049   2.123   1.936  0.6865  0.7122  0.4537
 1460TIP3   OH226014   3.506   0.875   1.402  0.1073  0.5175 -0.6758
 1460TIP3    H126015   3.499   0.833   1.488 -1.8862  1.7346 -0.1786
 1460TIP3    H226016   3.593   0.914   1.403  0.5555 -0.4205  0.3294
 1461TIP3   OH226017   6.307   1.143   0.190  0.0501 -0.7907  0.6610
 1461TIP3    H126018   6.367   1.068   0.185 -1.0740 -1.7051  0.2710
 1461TIP3    H226019   6.364   1.219   0.202  1.3046 -1.5747 -0.0718
 1462TIP3   OH226020   3.716   3.752   8.401  0.2038 -0.3331 -0.2210
 1462TIP3    H126021   3.789   3.814   8.402 -1.8893  2.3706 -0.8330
 1462TIP3    H226022   3.744   3.683   8.342  2.1281  0.7623 -0.6892
 1463TIP3   OH226023   6.722   0.145   1.935 -0.8568  0.4525 -0.1784
 1463TIP3    H126024   6.648   0.146   1.995 -0.7411 -0.4047 -0.0125
 1463TIP3    H226025   6.692   0.092   1.861  0.4262 -2.1458  1.0203
 1464TIP3   OH226026   6.493   2.436   8.018 -0.7935  0.0778  0.1887
 1464TIP3    H126027   6.516   2.440   7.925 -1.7110 -1.6752 -0.1486
 1464TIP3    H226028   6.524   2.350   8.047  0.8880  1.1953  1.9352
 1465TIP3   OH226029   0.221   1.563   3.195 -0.0793  0.2423  0.3601
 1465TIP3    H126030   0.304   1.611   3.188  0.4257 -0.3322  1.8872
 1465TIP3    H226031   0.169   1.614   3.256 -0.1522 -0.3241  0.7777
 1466TIP3   OH226032   4.894   0.643   7.600 -0.3402 -0.4095  0.1059
 1466TIP3    H126033   4.907   0.599   7.684 -0.4592 -0.9300 -0.1438
 1466TIP3    H226034   4.951   0.596   7.539 -0.9971 -0.6687 -0.3141
 1467TIP3   OH226035   0.271   2.945   1.879 -0.1982  0.0538  0.3207
 1467TIP3    H126036   0.251   3.034   1.850  0.1306  0.4897  1.3821
 1467TIP3    H226037   0.367   2.942   1.886 -0.2909  0.3971  2.5553
 1468TIP3   OH226038   4.783   6.646   8.546 -0.0720 -0.0741  0.3418
 1468TIP3    H126039   4.828   6.642   8.462  1.0975  1.1082  0.8823
 1468TIP3    H226040   4.754   6.737   8.553 -1.1027 -0.4198  0.7555
 1469TIP3   OH226041   0.085   5.474   1.697  0.3157 -0.4983 -0.3717
 1469TIP3    H126042   0.058   5.563   1.676 -1.3183 -0.6402  0.9224
 1469TIP3    H226043   0.117   5.438   1.614 -0.4089  0.7960 -1.2473
 1470TIP3   OH226044   3.397   4.544   1.560  0.5074  0.0757 -0.3282
 1470TIP3    H126045   3.410   4.632   1.596  0.9619 -1.0818  2.5577
 1470TIP3    H226046   3.471   4.494   1.592 -0.6591 -1.8049 -0.4389
 1471TIP3   OH226047   4.604   2.616   1.951  0.3924  0.2749  0.3192
 1471TIP3    H126048   4.554   2.698   1.961 -1.8289 -1.0826  0.9776
 1471TIP3    H226049   4.607   2.602   1.856 -0.0369  0.6652  0.2415
 1472TIP3   OH226050   2.380   5.154   1.964  0.4776  0.1219 -0.2677
 1472TIP3    H126051   2.459   5.101   1.958  0.7306  0.5394 -0.6972
 1472TIP3    H226052   2.315   5.107   1.912  0.8267  0.4453 -1.0158
 1473TIP3   OH226053   6.727   2.844   0.577 -0.0493  0.1229  0.5517
 1473TIP3    H126054   6.672   2.777   0.617  2.7738 -3.0681 -0.5030
 1473TIP3    H226055   6.699   2.846   0.485  0.6373 -0.4965  0.3229
 1474TIP3   OH226056   5.492   2.400   0.936  0.1464  0.0309 -0.3729
 1474TIP3    H126057   5.509   2.481   0.983  3.2380  0.5269 -2.0273
 1474TIP3    H226058   5.539   2.333   0.986 -1.2070 -0.5341  0.2013
 1475TIP3   OH226059   5.003   1.892   7.943 -0.1239 -0.3436 -0.4146
 1475TIP3    H126060   5.092   1.907   7.909  0.1853  2.0799  1.2431
 1475TIP3    H226061   5.017   1.840   8.022 -0.2328 -0.2730 -0.3505
 1476TIP3   OH226062   1.086   3.215   1.135  0.6489 -0.4253 -0.2506
 1476TIP3    H126063   0.999   3.246   1.159  1.5126  1.6617  0.4330
 1476TIP3    H226064   1.143   3.291   1.149  2.4967 -1.5665 -1.2004
 1477TIP3   OH226065   6.277   2.122   8.281  0.3794  0.2588 -0.7172
 1477TIP3    H126066   6.283   2.217   8.270  2.3117  0.0188 -2.3339
 1477TIP3    H226067   6.367   2.092   8.272 -0.3269 -1.8317 -1.2828
 1478TIP3   OH226068   3.073   0.835   2.721 -0.0708  0.6001 -0.2288
 1478TIP3    H126069   2.993   0.782   2.722 -0.5938  1.3856  0.0163
 1478TIP3    H226070   3.127   0.797   2.790 -0.6045  0.6315  0.2131
 1479TIP3   OH226071   2.915   4.735   8.643  0.5668 -0.3407  0.2836
 1479TIP3    H126072   2.981   4.742   8.574 -0.8562  1.3455 -0.9918
 1479TIP3    H226073   2.910   4.822   8.681 -0.7509 -0.5002  0.5192
 1480TIP3   OH226074   5.736   6.057   0.576  0.5040 -0.8444 -0.2327
 1480TIP3    H126075   5.734   6.120   0.503  1.2910 -1.5252 -0.8599
 1480TIP3    H226076   5.699   5.977   0.540  0.2380 -0.9861  0.3386
 1481TIP3   OH226077   5.927   1.717   0.906  0.2653 -0.1427 -0.7840
 1481TIP3    H126078   6.000   1.779   0.905 -0.7773  1.1352 -1.1956
 1481TIP3    H226079   5.850   1.772   0.889 -0.9199 -1.2916  0.6807
 1482TIP3   OH226080   2.401   4.348   1.678  0.0672 -0.0371  0.6609
 1482TIP3    H126081   2.440   4.299   1.605 -0.5468 -0.7800  0.8170
 1482TIP3    H226082   2.472   4.354   1.742  0.9015  1.4178 -0.3370
 1483TIP3   OH226083   5.064   2.215   0.466  0.4006 -0.8044 -0.2151
 1483TIP3    H126084   5.057   2.309   0.483  1.0365 -1.1109  2.0341
 1483TIP3    H226085   5.158   2.198   0.461  0.3033 -1.4124 -0.0236
 1484TIP3   OH226086   0.431   1.399   0.682  0.4726  0.1717  0.1291
 1484TIP3    H126087   0.346   1.426   0.716  1.0349  1.2773  0.6892
 1484TIP3    H226088   0.438   1.306   0.706 -1.1996 -0.3515 -1.2348
 1485TIP3   OH226089   6.082   1.051   0.571  0.0076  0.0970  0.2307
 1485TIP3    H126090   6.094   1.031   0.664 -0.2144 -0.2740  0.1813
 1485TIP3    H226091   6.142   1.124   0.555  1.0123 -0.6795  0.3586
 1486TIP3   OH226092   2.975   3.350   1.477  0.5957  0.1912  0.5094
 1486TIP3    H126093   3.002   3.441   1.461 -0.5605  0.5590  0.5164
 1486TIP3    H226094   3.052   3.308   1.514  1.3151  1.0343  0.0206
 1487TIP3   OH226095   3.857   5.221   8.312 -0.5269  0.5985 -0.1885
 1487TIP3    H126096   3.762   5.207   8.312 -0.7902  1.9655  1.7403
 1487TIP3    H226097   3.867   5.313   8.335  1.2744  0.7443 -1.3872
 1488TIP3   OH226098   6.461   6.792   0.540  0.7160 -0.1323 -0.6026
 1488TIP3    H126099   6.370   6.790   0.509  0.5597  3.7782 -0.9308
 1488TIP3    H226100   6.507   6.846   0.476  3.0004 -0.9472  0.2466
 1489TIP3   OH226101   3.090   1.437   7.089 -0.0738  0.5057  0.1916
 1489TIP3    H126102   3.156   1.409   7.026 -1.1132 -0.2934 -0.5698
 1489TIP3    H226103   3.131   1.422   7.174  0.9537  0.6162 -0.2691
 1490TIP3   OH226104   2.873   6.060   2.135  0.4203  0.3309 -0.0289
 1490TIP3    H126105   2.800   6.005   2.103 -0.9103  1.2786  1.2587
 1490TIP3    H226106   2.881   6.128   2.069 -0.8389  1.0209  0.4877
 1491TIP3   OH226107   1.615   1.727   1.553 -0.4794  0.3970 -0.2456
 1491TIP3    H126108   1.537   1.740   1.607  0.7520  0.5714  1.5831
 1491TIP3    H226109   1.664   1.809   1.563  0.4194 -0.0980 -0.5267
 1492TIP3   OH226110   6.603   0.082   7.602  0.6031  0.6096 -0.8196
 1492TIP3    H126111   6.524   0.130   7.627  0.5750 -0.4309  1.3330
 1492TIP3    H226112   6.635   0.044   7.684  1.6475 -1.4776 -2.1011
 1493TIP3   OH226113   1.112   5.347   2.673 -0.0049  0.0407 -0.6227
 1493TIP3    H126114   1.076   5.277   2.728 -2.2634  3.6938  3.1773
 1493TIP3    H226115   1.192   5.373   2.719  0.9197 -0.0751 -2.1076
 1494TIP3   OH226116   6.062   4.563   1.030  0.6126 -0.2087 -0.4656
 1494TIP3    H126117   6.106   4.582   1.113  1.2407  2.1697 -1.2525
 1494TIP3    H226118   5.978   4.525   1.055  1.2728 -0.6541  1.1956
 1495TIP3   OH226119   0.739   0.561   7.345  0.2583 -0.4916 -0.1216
 1495TIP3    H126120   0.818   0.560   7.291 -0.6340  0.4203 -1.5404
 1495TIP3    H226121   0.693   0.480   7.322 -0.3391  0.1086 -1.1355
 1496TIP3   OH226122   5.088   3.214   0.369 -0.1776 -0.4020  0.0273
 1496TIP3    H126123   5.165   3.257   0.406  1.0259 -1.1235 -1.4977
 1496TIP3    H226124   5.103   3.215   0.274 -3.5061  2.1780 -0.6830
 1497TIP3   OH226125   3.474   2.770   0.935  0.4657 -0.4497 -0.3333
 1497TIP3    H126126   3.452   2.833   0.866  0.2692 -1.0091 -0.7883
 1497TIP3    H226127   3.390   2.734   0.962  0.5989 -0.7017 -0.2550
 1498TIP3   OH226128   4.275   2.111   2.105 -0.2640  0.3158  0.0222
 1498TIP3    H126129   4.198   2.163   2.126 -0.0335  0.9177 -0.6011
 1498TIP3    H226130   4.336   2.127   2.177  0.4556  2.2355 -0.9540
 1499TIP3   OH226131   3.235   4.431   2.520  0.2432  0.3359  0.3616
 1499TIP3    H126132   3.329   4.415   2.524  0.0653 -0.6269  0.9667
 1499TIP3    H226133   3.225   4.520   2.554  0.8156 -0.0513  1.6150
 1500TIP3   OH226134   4.009   1.239   0.324  0.5474  0.5777  0.1310
 1500TIP3    H126135   4.012   1.327   0.363  1.6837  0.2489  0.8299
 1500TIP3    H226136   3.980   1.254   0.234 -2.3456  1.3540  1.0667
 1501TIP3   OH226137   1.205   6.640   3.355  0.5156 -0.5014 -0.3642
 1501TIP3    H126138   1.269   6.694   3.308  0.4496 -1.2030 -1.2744
 1501TIP3    H226139   1.231   6.649   3.447 -0.8367  2.8911 -0.1680
 1502TIP3   OH226140   2.674   6.871   2.625 -0.2786  0.0071 -0.3842
 1502TIP3    H126141   2.707   6.946   2.674 -3.0042  0.8450  0.3657
 1502TIP3    H226142   2.691   6.893   2.533  0.0066  1.0096 -0.0997
 1503TIP3   OH226143   6.202   1.659   0.516  0.3464  0.3340 -0.4473
 1503TIP3    H126144   6.115   1.630   0.545  1.7181 -1.7865  2.0195
 1503TIP3    H226145   6.226   1.597   0.447  0.8883 -0.7599  0.6869
 1504TIP3   OH226146   5.833   2.551   1.009 -0.0644  0.2557  0.1747
 1504TIP3    H126147   5.813   2.505   1.091 -0.1839 -1.0088 -0.5442
 1504TIP3    H226148   5.757   2.608   0.995 -0.9815 -0.9961 -0.0748
 1505TIP3   OH226149   3.493   5.857   0.414  0.3796  0.3555 -0.4269
 1505TIP3    H126150   3.538   5.823   0.492  0.3096 -0.5468 -0.7650
 1505TIP3    H226151   3.531   5.808   0.341  1.2122  1.9513 -1.1120
 1506TIP3   OH226152   6.598   6.617   0.357 -0.3334  0.1706  1.0709
 1506TIP3    H126153   6.551   6.588   0.278 -1.2106  0.2558  1.5478
 1506TIP3    H226154   6.680   6.568   0.355 -0.3145  0.2085  0.0758
 1507TIP3   OH226155   4.437   2.597   8.270 -0.0300  0.6114 -0.4896
 1507TIP3    H126156   4.446   2.640   8.185 -2.0215  1.4935 -0.3245
 1507TIP3    H226157   4.382   2.657   8.321  0.5655 -0.2198  1.1920
 1508TIP3   OH226158   1.277   6.694   8.105 -0.5367 -0.2318 -0.6855
 1508TIP3    H126159   1.219   6.618   8.093 -0.5871 -0.0498 -1.7330
 1508TIP3    H226160   1.344   6.683   8.037 -0.7323  0.8227 -1.0706
 1509TIP3   OH226161   0.290   4.451   2.495  0.0775  0.8181  0.0474
 1509TIP3    H126162   0.304   4.544   2.479  1.2798  0.6378 -0.0528
 1509TIP3    H226163   0.209   4.430   2.448 -1.2095  2.1791  1.5220
 1510TIP3   OH226164   0.948   6.672   2.192  0.6972 -0.3404  0.0174
 1510TIP3    H126165   0.993   6.635   2.116  0.4808  0.2213 -0.3913
 1510TIP3    H226166   0.864   6.702   2.157  1.4849  2.0093 -0.0251
 1511TIP3   OH226167   4.185   0.340   2.863  0.2656 -0.3629  0.0758
 1511TIP3    H126168   4.182   0.267   2.925  0.2088 -0.3084  0.1383
 1511TIP3    H226169   4.103   0.333   2.814 -0.9077  1.0239  1.6661
 1512TIP3   OH226170   1.429   4.633   8.391 -0.3345 -0.3784  0.2721
 1512TIP3    H126171   1.394   4.665   8.308  0.3098 -2.1828 -0.7694
 1512TIP3    H226172   1.448   4.540   8.374  2.7355 -0.0810  1.4357
 1513TIP3   OH226173   3.424   6.427   0.427 -0.4356 -0.3151 -0.0075
 1513TIP3    H126174   3.328   6.425   0.420 -0.4220 -1.1047 -0.1047
 1513TIP3    H226175   3.450   6.336   0.415  0.3706 -0.0297 -0.4589
 1514TIP3   OH226176   5.596   0.553   2.888  0.1702  0.2266 -0.1660
 1514TIP3    H126177   5.628   0.618   2.951  2.3400 -0.5768 -0.3537
 1514TIP3    H226178   5.599   0.598   2.803 -3.3422  1.5198  0.2001
 1515TIP3   OH226179   1.189   2.476   8.610 -0.4687 -0.3939  0.0514
 1515TIP3    H126180   1.240   2.429   8.676 -1.3738 -0.6207  0.6119
 1515TIP3    H226181   1.240   2.555   8.592  1.1130 -1.5782 -0.9348
 1516TIP3   OH226182   2.891   3.903   1.409 -0.6561  0.1258  0.4539
 1516TIP3    H126183   2.847   3.962   1.348 -1.2292 -2.2249 -1.5725
 1516TIP3    H226184   2.820   3.864   1.459 -0.6359 -1.1584 -0.4658
 1517TIP3   OH226185   0.844   2.984   1.080 -0.2204 -0.2571 -0.3063
 1517TIP3    H126186   0.909   2.950   1.018  0.8788  1.8392 -0.3772
 1517TIP3    H226187   0.814   3.066   1.041 -1.5797 -0.2810  0.6185
 1518TIP3   OH226188   1.751   2.944   8.573  0.4651 -0.2430 -0.4460
 1518TIP3    H126189   1.816   3.014   8.574  1.8875 -1.4925 -0.7263
 1518TIP3    H226190   1.734   2.926   8.666  0.9308 -0.2523 -0.3588
 1519TIP3   OH226191   2.539   0.987   0.896 -0.1312 -0.5339  0.0723
 1519TIP3    H126192   2.463   0.929   0.887 -0.8531  0.2686  0.7822
 1519TIP3    H226193   2.607   0.932   0.934  0.2625 -1.7472 -2.2383
 1520TIP3   OH226194   6.187   1.817   2.736  0.4845 -0.3624  0.0313
 1520TIP3    H126195   6.236   1.890   2.699  0.8326 -0.4025  0.4011
 1520TIP3    H226196   6.196   1.828   2.831 -0.9592  0.1223  0.1336
 1521TIP3   OH226197   0.492   2.984   0.271  0.2136 -0.2120  0.4370
 1521TIP3    H126198   0.520   2.955   0.358  0.0990 -0.3854  0.4173
 1521TIP3    H226199   0.500   2.905   0.217 -1.1570 -0.4989  0.6234
 1522TIP3   OH226200   6.607   2.173   2.674  0.6230  0.0376 -0.2252
 1522TIP3    H126201   6.635   2.217   2.595  1.5438  2.5165  1.3708
 1522TIP3    H226202   6.606   2.241   2.741  1.3354 -2.2097  2.2569
 1523TIP3   OH226203   5.927   4.846   1.405 -0.1894 -0.1210  0.7064
 1523TIP3    H126204   5.889   4.862   1.318 -1.0546 -0.6022  0.9838
 1523TIP3    H226205   6.014   4.811   1.387 -0.1617  0.2722  0.0397
 1524TIP3   OH226206   0.809   4.463   1.477 -0.2201 -0.1007  0.0348
 1524TIP3    H126207   0.803   4.403   1.551  0.4583  0.3182  0.4430
 1524TIP3    H226208   0.719   4.473   1.447 -0.2980 -1.6890 -0.3569
 1525TIP3   OH226209   1.742   1.418   2.224 -0.2361  0.6215 -0.1806
 1525TIP3    H126210   1.802   1.450   2.156  0.1260  0.4780  0.0667
 1525TIP3    H226211   1.703   1.497   2.261 -2.6020  0.6624 -2.4385
 1526TIP3   OH226212   5.872   4.461   8.248  0.0620  1.0166  0.0125
 1526TIP3    H126213   5.942   4.397   8.239 -0.1449  0.7626  0.2057
 1526TIP3    H226214   5.850   4.460   8.341  0.4925  1.8287  0.1385
 1527TIP3   OH226215   4.479   3.424   7.984  0.2260  0.1102 -0.4200
 1527TIP3    H126216   4.482   3.364   8.059  0.7366  1.0585  0.3564
 1527TIP3    H226217   4.515   3.374   7.911  1.7181 -0.1902  0.4799
 1528TIP3   OH226218   0.964   6.187   1.144  0.0601 -0.2910 -0.3694
 1528TIP3    H126219   0.892   6.148   1.094  1.7094 -1.4499 -1.9859
 1528TIP3    H226220   1.042   6.161   1.096  1.6021  0.5455  1.5818
 1529TIP3   OH226221   3.529   4.334   0.443  0.0833 -0.1800  0.2764
 1529TIP3    H126222   3.545   4.330   0.349  0.4728 -0.9225  0.3671
 1529TIP3    H226223   3.593   4.275   0.481  1.9485  2.3100  1.2825
 1530TIP3   OH226224   6.502   0.297   1.896  0.3621  0.1140  0.1334
 1530TIP3    H126225   6.487   0.214   1.851  0.4726 -0.3579  0.9385
 1530TIP3    H226226   6.450   0.291   1.976 -0.0911  1.0732 -0.0724
 1531TIP3   OH226227   3.222   3.444   8.244  0.3662 -0.2880 -0.0563
 1531TIP3    H126228   3.137   3.427   8.202 -0.5280  0.0345  1.5081
 1531TIP3    H226229   3.254   3.524   8.203 -0.8631  0.4583  0.3681
 1532TIP3   OH226230   4.445   1.187   7.762  0.1010 -0.4925  0.1060
 1532TIP3    H126231   4.360   1.229   7.752 -0.4052 -1.6351 -0.6693
 1532TIP3    H226232   4.451   1.127   7.687  1.3294 -0.8649  0.4753
 1533TIP3   OH226233   5.440   5.176   0.311  0.1602  0.0060  0.0702
 1533TIP3    H126234   5.376   5.137   0.370 -0.4310  0.2418 -0.4157
 1533TIP3    H226235   5.406   5.263   0.291 -0.7434 -0.8238 -2.2850
 1534TIP3   OH226236   5.711   0.821   0.338 -0.4838 -0.5361  1.0055
 1534TIP3    H126237   5.786   0.763   0.353 -0.5509 -0.6332  0.9714
 1534TIP3    H226238   5.642   0.784   0.393 -0.0202  0.5347  2.3458
 1535TIP3   OH226239   1.980   0.752   7.798  0.0538  0.5923 -0.2347
 1535TIP3    H126240   2.038   0.818   7.835  0.3554 -0.3136  0.9377
 1535TIP3    H226241   1.932   0.717   7.872 -1.8595  1.1481 -1.1499
 1536TIP3   OH226242   0.748   6.289   2.790  0.5214 -0.1733 -0.5981
 1536TIP3    H126243   0.717   6.202   2.812 -0.7636 -0.1842 -2.2587
 1536TIP3    H226244   0.790   6.278   2.704  0.8026  0.7399 -0.5883
 1537TIP3   OH226245   5.756   2.386   1.222 -0.5665  0.1198 -0.0236
 1537TIP3    H126246   5.775   2.429   1.305 -0.7142  0.8561 -0.3584
 1537TIP3    H226247   5.669   2.348   1.233  0.0845 -1.2402  0.7163
 1538TIP3   OH226248   5.610   0.476   0.479 -0.5233  0.2163 -0.3724
 1538TIP3    H126249   5.631   0.383   0.466 -1.3885 -0.1358  0.6321
 1538TIP3    H226250   5.514   0.479   0.479 -0.5426  1.3976 -2.2130
 1539TIP3   OH226251   0.951   0.153   2.438 -0.1279 -0.0237  0.4438
 1539TIP3    H126252   1.012   0.103   2.493  0.3435  0.4290  0.3505
 1539TIP3    H226253   0.994   0.157   2.352  0.0430  0.8777  0.5580
 1540TIP3   OH226254   2.729   3.087   8.155  0.0247 -0.6003  0.6695
 1540TIP3    H126255   2.781   3.167   8.144 -1.4774  0.5814  1.7435
 1540TIP3    H226256   2.746   3.036   8.075 -0.6697  1.7832 -1.0961
 1541TIP3   OH226257   3.848   6.187   3.254  0.3947  0.4943  0.5005
 1541TIP3    H126258   3.899   6.262   3.282  0.6744  0.6007 -0.2614
 1541TIP3    H226259   3.912   6.124   3.221  0.0740  0.4695 -0.1004
 1542TIP3   OH226260   5.573   5.821   0.609 -0.4221 -0.2237 -0.1809
 1542TIP3    H126261   5.535   5.734   0.625 -0.4757 -0.0491  0.7345
 1542TIP3    H226262   5.663   5.803   0.583 -0.4505 -0.5554 -0.0598
 1543TIP3   OH226263   1.122   2.071   2.095 -0.2558 -0.8344  0.0411
 1543TIP3    H126264   1.138   2.119   2.176 -2.1236 -1.0948  0.6137
 1543TIP3    H226265   1.084   1.988   2.123  0.2839 -1.4845 -1.0599
 1544TIP3   OH226266   2.063   0.895   2.406  0.3252  0.1356  0.0876
 1544TIP3    H126267   2.105   0.959   2.464  0.9451  1.6712 -1.9578
 1544TIP3    H226268   2.125   0.884   2.334 -1.4178  0.0536 -1.4528
 1545TIP3   OH226269   6.142   2.917   2.993  0.4896 -0.4603 -0.0971
 1545TIP3    H126270   6.050   2.940   3.006  0.6876  0.1344  0.2778
 1545TIP3    H226271   6.185   3.001   2.974  1.0313 -0.6777  0.1656
 1546TIP3   OH226272   2.799   2.553   0.968 -0.0129 -0.3834  0.3381
 1546TIP3    H126273   2.871   2.501   0.933 -0.0443 -0.9142  1.0509
 1546TIP3    H226274   2.819   2.563   1.061 -1.9223 -2.3855  1.0418
 1547TIP3   OH226275   1.398   6.790   1.883  0.7658 -0.4025  0.0742
 1547TIP3    H126276   1.453   6.858   1.843  1.3267 -0.6843  0.3534
 1547TIP3    H226277   1.308   6.820   1.868  0.9515 -0.5138 -1.4186
 1548TIP3   OH226278   5.454   2.403   2.269  0.2347  0.3857  0.6827
 1548TIP3    H126279   5.380   2.463   2.261 -0.3915 -0.3122  1.1311
 1548TIP3    H226280   5.477   2.405   2.362  1.0811  0.9335  0.4753
 1549TIP3   OH226281   4.962   4.665   7.559  0.3752  0.5819  0.5363
 1549TIP3    H126282   4.908   4.666   7.479  0.9785  1.4112  0.1230
 1549TIP3    H226283   4.996   4.576   7.564 -0.5240  0.2190  0.4599
 1550TIP3   OH226284   2.090   6.368   1.939 -0.4297 -1.0343 -0.0683
 1550TIP3    H126285   2.122   6.454   1.912 -1.0068 -0.4743  0.9855
 1550TIP3    H226286   2.140   6.307   1.885  2.2165 -0.1919  1.2634
 1551TIP3   OH226287   1.510   0.078   8.222  0.7137  0.0486 -0.6894
 1551TIP3    H126288   1.578   0.058   8.158  0.7769  0.4035 -0.7356
 1551TIP3    H226289   1.548   0.146   8.278  0.3647  0.3153 -0.7712
 1552TIP3   OH226290   2.025   2.773   8.345  0.1871 -0.2669 -0.4717
 1552TIP3    H126291   1.995   2.855   8.307  1.6021  0.8156  0.6777
 1552TIP3    H226292   1.972   2.706   8.302 -0.9303  1.2267 -1.4908
 1553TIP3   OH226293   1.353   0.787   8.485  0.3177  0.4056 -0.3656
 1553TIP3    H126294   1.412   0.861   8.498 -3.5977  3.8700 -0.0786
 1553TIP3    H226295   1.323   0.764   8.573 -0.5874  0.4376 -0.6514
 1554TIP3   OH226296   3.158   0.518   0.643 -0.3445 -0.3801 -0.1401
 1554TIP3    H126297   3.211   0.594   0.667 -1.7202  0.7806 -0.6482
 1554TIP3    H226298   3.122   0.486   0.726 -0.6202  0.1838 -0.0425
 1555TIP3   OH226299   4.067   4.952   1.088 -0.3588 -0.1213  0.4037
 1555TIP3    H126300   4.017   4.933   1.167 -0.2485 -0.4186  0.4013
 1555TIP3    H226301   4.025   4.901   1.019 -0.1630 -0.2345  0.3665
 1556TIP3   OH226302   0.711   6.106   2.240  0.5213 -0.2974  0.1442
 1556TIP3    H126303   0.618   6.115   2.257  0.5409  0.0410  0.0879
 1556TIP3    H226304   0.734   6.019   2.273  0.6449  0.4823  2.2877
 1557TIP3   OH226305   6.363   4.413   3.169  0.3133 -0.5485 -0.4939
 1557TIP3    H126306   6.421   4.354   3.217  0.6108  0.8515  0.9607
 1557TIP3    H226307   6.287   4.360   3.147  0.8551 -1.6401  0.2068
 1558TIP3   OH226308   3.157   4.038   1.266  0.1769 -0.1231 -0.4512
 1558TIP3    H126309   3.129   3.954   1.231 -1.0711 -0.0172  0.2466
 1558TIP3    H226310   3.076   4.086   1.282  0.8508  1.0457 -0.4163
 1559TIP3   OH226311   1.123   5.624   0.551 -0.1108  0.2778  0.1574
 1559TIP3    H126312   1.134   5.529   0.549 -0.2435  0.2687 -0.2549
 1559TIP3    H226313   1.091   5.642   0.639  0.4931  0.0062  0.4338
 1560TIP3   OH226314   1.500   3.173   2.117 -0.4815  0.3274 -0.0041
 1560TIP3    H126315   1.431   3.199   2.057  0.7526  0.5641 -1.3758
 1560TIP3    H226316   1.574   3.230   2.096  0.6244 -0.8803  0.4073
 1561TIP3   OH226317   2.211   3.706   7.967 -0.5543 -0.1409 -0.6722
 1561TIP3    H126318   2.118   3.713   7.988 -0.3204  0.6316  0.1745
 1561TIP3    H226319   2.217   3.735   7.876 -1.3295 -1.6797 -1.2499
 1562TIP3   OH226320   5.472   4.699   8.244 -0.3456  0.0967  0.1356
 1562TIP3    H126321   5.552   4.749   8.230  1.0455 -1.4227  2.1580
 1562TIP3    H226322   5.411   4.762   8.283  0.4142  0.8808  0.0865
 1563TIP3   OH226323   5.856   3.381   0.751 -0.1304  0.2886 -0.3041
 1563TIP3    H126324   5.779   3.348   0.798  0.2564 -0.1390  0.0359
 1563TIP3    H226325   5.828   3.385   0.659  0.1555 -2.1938 -0.5777
 1564TIP3   OH226326   6.734   0.428   2.622 -0.1620 -0.0172  0.0484
 1564TIP3    H126327   6.703   0.337   2.620 -1.0882  0.2424 -3.2154
 1564TIP3    H226328   6.657   0.479   2.645 -0.0960  0.0962  0.0164
 1565TIP3   OH226329   3.741   1.184   7.184 -0.2077  0.1029  0.1716
 1565TIP3    H126330   3.663   1.200   7.237 -0.2421 -0.1280  0.1901
 1565TIP3    H226331   3.809   1.240   7.223 -0.0457 -0.5920  0.8892
 1566TIP3   OH226332   3.236   6.838   1.526 -0.1479  0.3996  0.6123
 1566TIP3    H126333   3.147   6.843   1.492 -0.2182  1.5607  0.9257
 1566TIP3    H226334   3.240   6.754   1.572 -1.0072  0.2484  0.4184
 1567TIP3   OH226335   5.973   2.949   8.364  0.2823 -0.0078 -0.0385
 1567TIP3    H126336   5.929   3.031   8.385  1.0924  0.5191 -0.3650
 1567TIP3    H226337   6.026   2.929   8.442 -1.7485 -1.5093  1.0386
 1568TIP3   OH226338   2.869   1.055   1.569  1.3912  0.5671 -0.3752
 1568TIP3    H126339   2.834   1.026   1.485  2.8326 -0.9651 -0.4741
 1568TIP3    H226340   2.908   0.977   1.608  0.7307  1.2267  1.7614
 1569TIP3   OH226341   4.537   0.982   2.802 -0.3630 -0.1884  0.2436
 1569TIP3    H126342   4.452   1.004   2.839  0.0017 -1.5355  1.9726
 1569TIP3    H226343   4.522   0.903   2.750  0.1287 -1.5800  2.1220
 1570TIP3   OH226344   6.826   0.417   7.846  0.1971 -0.7002  0.1697
 1570TIP3    H126345   6.887   0.452   7.781  1.0454  0.5041  1.5401
 1570TIP3    H226346   6.789   0.494   7.888 -0.0132 -1.4382  1.3892
 1571TIP3   OH226347   4.425   4.434   1.502  0.1484 -0.6913  0.5083
 1571TIP3    H126348   4.521   4.430   1.502  0.3496  1.8766  1.7675
 1571TIP3    H226349   4.403   4.485   1.424 -0.2114 -1.2587  0.2329
 1572TIP3   OH226350   5.586   6.697   1.335 -0.9805  0.2309  0.0315
 1572TIP3    H126351   5.596   6.605   1.361 -0.3129  0.6647  1.4035
 1572TIP3    H226352   5.658   6.713   1.274  0.5921  0.5283  1.8634
 1573TIP3   OH226353   2.588   2.935   1.087 -0.3297 -0.2348  0.2447
 1573TIP3    H126354   2.593   3.002   1.019 -1.9141 -1.6317 -1.3591
 1573TIP3    H226355   2.656   2.959   1.150 -1.2710  3.2473  0.1275
 1574TIP3   OH226356   5.915   0.883   8.043  0.8151 -0.3382 -0.5920
 1574TIP3    H126357   5.985   0.820   8.059  2.2791  1.1971 -0.7563
 1574TIP3    H226358   5.896   0.920   8.129 -0.0846 -0.9967 -0.4858
 1575TIP3   OH226359   3.484   6.144   1.936 -0.2075 -0.0718 -0.0687
 1575TIP3    H126360   3.484   6.049   1.952 -0.1868 -0.1662 -0.6314
 1575TIP3    H226361   3.567   6.175   1.973 -0.9939  0.0137  1.7696
 1576TIP3   OH226362   1.111   2.802   0.649 -0.3646  0.2767 -0.5775
 1576TIP3    H126363   1.078   2.812   0.738 -1.5628 -1.9520 -0.6943
 1576TIP3    H226364   1.061   2.864   0.598  0.8197  2.0836  0.3471
 1577TIP3   OH226365   6.666   2.100   0.453  0.3755 -0.0212 -0.4889
 1577TIP3    H126366   6.609   2.088   0.377 -2.3111  0.2752  1.3447
 1577TIP3    H226367   6.620   2.163   0.508  1.1273 -1.7846  2.3502
 1578TIP3   OH226368   6.557   6.100   1.809  0.0983 -0.1839  0.3383
 1578TIP3    H126369   6.575   6.193   1.822 -0.5928 -0.2032  1.6216
 1578TIP3    H226370   6.577   6.084   1.716  1.7559  0.8638  0.4830
 1579TIP3   OH226371   5.275   0.130   8.343  0.2118  0.1921  0.7292
 1579TIP3    H126372   5.284   0.052   8.289 -0.9912  2.1425 -2.6444
 1579TIP3    H226373   5.194   0.116   8.392 -0.6596 -0.2412 -0.7741
 1580TIP3   OH226374   4.547   5.516   0.902  0.0446 -0.3865  0.4652
 1580TIP3    H126375   4.505   5.516   0.988 -0.3798  0.3277  0.2656
 1580TIP3    H226376   4.606   5.441   0.904  0.8006  0.2068  1.7663
 1581TIP3   OH226377   3.353   4.245   1.292  0.5111  0.2200  0.7618
 1581TIP3    H126378   3.339   4.284   1.206  0.1955 -0.5685  0.4498
 1581TIP3    H226379   3.317   4.157   1.285  2.7359 -0.7493  0.9313
 1582TIP3   OH226380   0.610   6.696   0.329 -0.2562  0.0383 -0.1048
 1582TIP3    H126381   0.543   6.725   0.391  0.6313 -1.5875  1.7023
 1582TIP3    H226382   0.560   6.658   0.256 -1.3739 -1.1945  1.2313
 1583TIP3   OH226383   2.639   2.613   3.255  0.9667 -0.5751 -0.1589
 1583TIP3    H126384   2.644   2.518   3.258  0.6776 -0.6161 -0.8524
 1583TIP3    H226385   2.675   2.637   3.169  3.1438  0.1024  0.8685
 1584TIP3   OH226386   4.369   3.046   7.673 -0.1820  0.3566  0.1073
 1584TIP3    H126387   4.393   3.104   7.601 -0.4960 -0.8654 -1.0150
 1584TIP3    H226388   4.321   3.103   7.734  0.9323  1.6228 -0.1562
 1585TIP3   OH226389   4.678   1.144   8.672  0.2165 -0.5236  0.6067
 1585TIP3    H126390   4.611   1.208   8.694  0.9592  0.1285  0.9844
 1585TIP3    H226391   4.671   1.134   8.577  1.8343  2.1384  0.1117
 1586TIP3   OH226392   5.742   1.529   8.599 -0.2918 -0.5220 -0.2687
 1586TIP3    H126393   5.722   1.620   8.579 -0.2028 -0.2887  0.6746
 1586TIP3    H226394   5.742   1.485   8.514 -0.2573  0.3692 -0.7377
 1587TIP3   OH226395   6.740   1.843   7.450 -0.0045  0.5844  0.2553
 1587TIP3    H126396   6.706   1.933   7.449  0.0311  0.5961 -1.3002
 1587TIP3    H226397   6.716   1.807   7.365  1.4348 -0.3383  0.2173
 1588TIP3   OH226398   4.310   6.671   2.105 -0.5323  0.5552  0.5091
 1588TIP3    H126399   4.265   6.750   2.132 -0.5208  0.3512  1.1594
 1588TIP3    H226400   4.242   6.614   2.069 -0.6808  0.5160  0.8542
 1589TIP3   OH226401   3.597   6.550   2.390  0.0890  0.0545 -0.3771
 1589TIP3    H126402   3.669   6.503   2.348  1.5425  2.6321 -0.9294
 1589TIP3    H226403   3.608   6.533   2.484 -1.8000 -3.8087 -0.6391
 1590TIP3   OH226404   1.433   0.313   2.780 -0.2924  0.3593  0.2856
 1590TIP3    H126405   1.474   0.378   2.837  2.8352 -0.0741 -1.2749
 1590TIP3    H226406   1.477   0.231   2.802 -2.0562 -0.6678  0.1493
 1591TIP3   OH226407   5.276   2.544   8.569  0.1689 -0.1712  0.5881
 1591TIP3    H126408   5.224   2.464   8.564  0.0463 -0.1879  1.9318
 1591TIP3    H226409   5.366   2.515   8.560  0.2733 -0.7178  2.9121
 1592TIP3   OH226410   1.050   6.487   0.388 -0.5874 -0.1179  0.6542
 1592TIP3    H126411   1.098   6.570   0.382 -1.9279  0.5940 -1.4173
 1592TIP3    H226412   1.118   6.419   0.378  0.1700  0.8375 -1.3943
 1593TIP3   OH226413   1.874   1.051   2.301 -0.0943 -0.1168 -0.5722
 1593TIP3    H126414   1.946   0.998   2.337  0.3422  0.9457  0.1399
 1593TIP3    H226415   1.894   1.056   2.207 -0.8304 -2.2563 -0.8928
 1594TIP3   OH226416   5.125   2.520   0.489  0.3242 -1.1815 -0.9402
 1594TIP3    H126417   5.149   2.577   0.562  0.1480 -1.9401 -0.2721
 1594TIP3    H226418   5.207   2.506   0.442  1.2728 -3.4527  1.1140
 1595TIP3   OH226419   3.504   4.478   7.137 -0.0065 -0.0757 -0.6914
 1595TIP3    H126420   3.463   4.461   7.053  0.2223 -0.7256 -0.6729
 1595TIP3    H226421   3.518   4.573   7.138  1.4051 -0.2410 -2.0448
 1596TIP3   OH226422   4.172   6.433   8.080 -0.4625 -0.5411  0.4170
 1596TIP3    H126423   4.084   6.469   8.068  0.0645  0.8636  0.5175
 1596TIP3    H226424   4.229   6.510   8.080  0.5988 -1.2671  2.0358
 1597TIP3   OH226425   5.564   3.414   1.066  0.6101  0.2711  0.6993
 1597TIP3    H126426   5.614   3.425   1.147 -0.0168  0.5549  1.0527
 1597TIP3    H226427   5.587   3.327   1.035  1.5928  0.5313  0.6726
 1598TIP3   OH226428   2.943   1.962   7.931  0.1999 -0.3456 -0.2779
 1598TIP3    H126429   2.996   1.969   7.851 -0.6865 -0.5385 -0.8916
 1598TIP3    H226430   3.007   1.965   8.002  0.9260  0.8669 -0.9473
 1599TIP3   OH226431   6.692   3.098   2.231 -0.0269 -0.1466  0.4225
 1599TIP3    H126432   6.755   3.119   2.301 -0.3247  1.9839  0.1281
 1599TIP3    H226433   6.656   3.183   2.206 -0.6168 -0.9741 -1.7019
 1600TIP3   OH226434   0.494   0.963   2.281  0.3710  0.0911  0.4306
 1600TIP3    H126435   0.462   0.880   2.245 -1.2102  0.0673  1.7135
 1600TIP3    H226436   0.555   0.997   2.216 -2.5449  0.2647 -2.4781
 1601TIP3   OH226437   2.711   5.332   7.385 -0.2419  0.2585  0.2661
 1601TIP3    H126438   2.795   5.348   7.341  1.4831  0.1083  3.2268
 1601TIP3    H226439   2.701   5.237   7.383 -0.9049  0.3304 -0.9394
 1602TIP3   OH226440   2.317   6.389   3.120  0.1335 -0.1935 -0.0624
 1602TIP3    H126441   2.308   6.358   3.210 -1.4719 -1.6814 -0.6713
 1602TIP3    H226442   2.231   6.424   3.098  0.2722 -0.5607 -1.2547
 1603TIP3   OH226443   1.386   6.732   2.612 -0.3518  0.4520 -0.0483
 1603TIP3    H126444   1.395   6.743   2.706 -0.5008  0.6168 -0.0525
 1603TIP3    H226445   1.388   6.821   2.577 -1.4175  0.4734 -0.0957
 1604TIP3   OH226446   5.952   0.622   3.124 -0.2763  0.3151  0.4896
 1604TIP3    H126447   6.044   0.598   3.139 -0.3644 -0.7664 -0.5713
 1604TIP3    H226448   5.947   0.714   3.150  1.4122  0.7505 -0.5616
 1605TIP3   OH226449   4.986   4.292   2.906 -0.3874  0.5573 -0.6028
 1605TIP3    H126450   5.066   4.280   2.957 -0.4137 -0.8080 -0.8271
 1605TIP3    H226451   4.915   4.281   2.969 -0.4520 -2.2499 -1.0059
 1606TIP3   OH226452   1.986   4.089   3.313  0.0125 -0.7800 -0.2181
 1606TIP3    H126453   1.901   4.132   3.301  0.9582  0.3995 -3.4589
 1606TIP3    H226454   2.016   4.120   3.399 -1.5737  1.0331 -0.2534
 1607TIP3   OH226455   3.667   5.429   0.125 -0.5465 -0.4341 -0.4399
 1607TIP3    H126456   3.656   5.337   0.148 -0.5464 -0.1894  0.5747
 1607TIP3    H226457   3.720   5.466   0.196 -0.2534  0.2704 -1.0103
 1608TIP3   OH226458   5.512   6.793   1.922  0.6414 -0.3769 -0.2467
 1608TIP3    H126459   5.530   6.721   1.861  2.0866  0.9443 -1.4563
 1608TIP3    H226460   5.590   6.797   1.977 -0.6810 -1.6189  1.8767
 1609TIP3   OH226461   2.123   0.415   8.325  0.2065  0.0990  0.1072
 1609TIP3    H126462   2.195   0.432   8.385  0.1340 -1.8273  0.8186
 1609TIP3    H226463   2.165   0.375   8.249  0.0825  0.7646 -0.3178
 1610TIP3   OH226464   4.754   6.812   0.591  0.3608  0.6814 -0.1413
 1610TIP3    H126465   4.816   6.806   0.518 -0.3972  1.5540 -0.8835
 1610TIP3    H226466   4.736   6.721   0.615  1.6770  0.4170 -0.1253
 1611TIP3   OH226467   6.379   5.781   2.423  0.0015 -0.2068  0.0006
 1611TIP3    H126468   6.351   5.694   2.452 -0.4661 -0.0758 -0.0509
 1611TIP3    H226469   6.396   5.828   2.505 -0.1886 -0.1996  0.0346
 1612TIP3   OH226470   2.057   6.230   2.750 -0.0428 -0.5116 -0.0274
 1612TIP3    H126471   2.005   6.151   2.767 -0.9212 -0.2408 -1.3342
 1612TIP3    H226472   2.055   6.240   2.655  5.0651 -2.2240 -0.6009
 1613TIP3   OH226473   4.446   5.907   8.308  0.4441  0.1113  0.4944
 1613TIP3    H126474   4.464   5.819   8.276  0.5459  0.2675  0.1208
 1613TIP3    H226475   4.525   5.957   8.288  0.1509  0.4406  0.1520
 1614TIP3   OH226476   5.674   0.135   1.444  0.1901  0.2581  0.0266
 1614TIP3    H126477   5.665   0.159   1.536 -2.7802  0.1877 -0.1601
 1614TIP3    H226478   5.721   0.209   1.405 -0.5019  1.3577  1.2062
 1615TIP3   OH226479   3.442   0.782   3.246 -0.3449 -0.2342 -0.5901
 1615TIP3    H126480   3.381   0.765   3.317 -0.7769  0.7690 -0.7065
 1615TIP3    H226481   3.432   0.706   3.187 -0.3475 -0.8173  0.1483
 1616TIP3   OH226482   4.703   3.600   1.823  0.8150  0.2816 -0.7302
 1616TIP3    H126483   4.720   3.693   1.806 -1.3259  0.6041 -1.4248
 1616TIP3    H226484   4.628   3.601   1.882  0.3135 -1.0088 -1.3273
 1617TIP3   OH226485   4.975   2.739   2.101 -0.0641 -0.2787 -0.0719
 1617TIP3    H126486   4.910   2.671   2.118 -0.4418  0.0847 -0.0271
 1617TIP3    H226487   5.003   2.723   2.011 -0.8990  0.1095 -0.4170
 1618TIP3   OH226488   2.887   0.722   1.351 -0.0792 -0.3467  0.5334
 1618TIP3    H126489   2.832   0.790   1.388  0.1587  0.6843 -0.8895
 1618TIP3    H226490   2.972   0.733   1.395 -0.0579  0.2626  0.3568
 1619TIP3   OH226491   1.351   6.527   1.036 -0.4173 -0.1480  0.5248
 1619TIP3    H126492   1.426   6.483   1.078  0.5123  1.2932  0.4516
 1619TIP3    H226493   1.375   6.532   0.944 -0.2922  0.8619  0.5967
 1620TIP3   OH226494   2.873   6.006   7.642  0.4095  0.2899 -0.1738
 1620TIP3    H126495   2.821   5.932   7.610  2.5615 -1.1004 -0.7189
 1620TIP3    H226496   2.914   5.974   7.723 -1.1584  2.0880  1.4098
 1621TIP3   OH226497   1.455   4.521   1.260 -0.1257 -0.3342 -0.0212
 1621TIP3    H126498   1.544   4.552   1.274  0.3123 -1.1587 -0.8839
 1621TIP3    H226499   1.464   4.446   1.202 -1.3756 -0.5174 -0.0161
 1622TIP3   OH226500   3.202   2.457   0.270  0.0615 -0.1045 -0.6385
 1622TIP3    H126501   3.262   2.390   0.237  0.6168 -0.2718  0.6438
 1622TIP3    H226502   3.121   2.443   0.220  0.1981 -1.6709 -0.4751
 1623TIP3   OH226503   0.509   3.171   1.834  0.6872 -0.1752 -0.3831
 1623TIP3    H126504   0.557   3.106   1.785  1.0974  0.3796 -0.7283
 1623TIP3    H226505   0.423   3.176   1.792  0.5499 -0.7038 -0.1660
 1624TIP3   OH226506   3.529   5.412   2.142  0.4427  0.1258 -0.0560
 1624TIP3    H126507   3.518   5.322   2.111 -0.2153 -1.1907  3.5787
 1624TIP3    H226508   3.618   5.414   2.178 -0.1652  0.3623  1.4850
 1625TIP3   OH226509   1.410   0.594   1.875 -0.1662  0.0538 -0.0807
 1625TIP3    H126510   1.475   0.562   1.936 -1.4151  1.9380  2.4161
 1625TIP3    H226511   1.420   0.689   1.876 -2.2257  0.3363 -0.3949
 1626TIP3   OH226512   1.859   5.984   0.579  0.3187 -0.1710  0.1281
 1626TIP3    H126513   1.916   5.916   0.543  0.0015 -0.0355 -0.6564
 1626TIP3    H226514   1.885   5.992   0.670  0.0324 -1.7047  0.3684
 1627TIP3   OH226515   5.091   2.640   1.876  0.3647 -0.9313 -0.4918
 1627TIP3    H126516   5.170   2.695   1.878 -0.3997  0.3957  3.8288
 1627TIP3    H226517   5.122   2.553   1.899  1.0431 -1.5466 -3.3788
 1628TIP3   OH226518   6.198   2.354   0.938  0.0688  0.5286 -0.7294
 1628TIP3    H126519   6.158   2.274   0.903 -1.5013  0.7190  0.5043
 1628TIP3    H226520   6.186   2.347   1.033 -1.0896  2.6953 -0.6630
 1629TIP3   OH226521   3.520   4.210   7.194 -0.2159  0.0229  0.6421
 1629TIP3    H126522   3.584   4.165   7.140 -1.4448  0.1049 -0.9598
 1629TIP3    H226523   3.538   4.303   7.181 -0.7817  0.0499  0.0101
 1630TIP3   OH226524   3.431   5.335   0.932 -0.5437 -0.5566 -0.7858
 1630TIP3    H126525   3.379   5.415   0.938  0.3415  0.0564 -1.1510
 1630TIP3    H226526   3.381   5.271   0.983 -1.1070  0.3017 -0.2187
 1631TIP3   OH226527   3.998   2.406   1.132  0.2784  0.2574  0.0615
 1631TIP3    H126528   4.036   2.401   1.220  1.2274 -0.2083 -0.3568
 1631TIP3    H226529   4.036   2.331   1.086 -1.9338 -0.8585 -0.0967
 1632TIP3   OH226530   0.338   2.246   1.232  0.6984 -0.0883 -0.5048
 1632TIP3    H126531   0.294   2.188   1.170  0.6920 -0.8448  0.1902
 1632TIP3    H226532   0.409   2.286   1.181 -0.5614  0.8888 -1.5342
 1633TIP3   OH226533   2.374   3.261   8.208  0.6513 -0.8015 -0.6674
 1633TIP3    H126534   2.303   3.255   8.272  0.1359  1.1350 -0.9803
 1633TIP3    H226535   2.453   3.270   8.260  0.4703 -1.2557 -0.3104
 1634TIP3   OH226536   0.354   4.615   3.296  0.2266  0.4661  0.0489
 1634TIP3    H126537   0.424   4.551   3.305  1.5154  2.0185  2.4734
 1634TIP3    H226538   0.275   4.568   3.322  1.0024 -0.3936  0.9732
 1635TIP3   OH226539   4.597   1.746   0.845 -0.0000  0.4409  0.4734
 1635TIP3    H126540   4.675   1.748   0.789 -0.6287 -0.7066 -0.5040
 1635TIP3    H226541   4.537   1.687   0.799 -1.0472  0.4991  1.7266
 1636TIP3   OH226542   2.189   0.453   2.163  0.9311 -0.5060  0.2931
 1636TIP3    H126543   2.201   0.497   2.247  0.1264 -1.4416  0.9285
 1636TIP3    H226544   2.113   0.396   2.176 -0.8167  1.1666 -1.8512
 1637TIP3   OH226545   6.158   5.686   8.417 -0.5553  0.4120 -0.3412
 1637TIP3    H126546   6.141   5.732   8.335  0.2914 -0.3189 -0.9371
 1637TIP3    H226547   6.172   5.595   8.392 -1.7153 -0.1185  0.7707
 1638TIP3   OH226548   5.144   5.302   7.844  0.0153  0.3533  0.2910
 1638TIP3    H126549   5.152   5.296   7.749 -1.5555  0.3719  0.1232
 1638TIP3    H226550   5.141   5.395   7.863 -1.0817  0.3529  0.1889
 1639TIP3   OH226551   3.063   0.592   8.555  0.4585 -0.2798 -0.0216
 1639TIP3    H126552   2.999   0.602   8.626 -0.2466 -0.4874 -0.6125
 1639TIP3    H226553   3.147   0.613   8.596  0.2108 -1.4283  1.1452
 1640TIP3   OH226554   2.217   4.114   0.195 -0.8135  0.1579  0.0054
 1640TIP3    H126555   2.304   4.092   0.227 -0.8805  0.5793  0.4750
 1640TIP3    H226556   2.232   4.176   0.123 -0.5143 -2.5765 -2.4815
 1641TIP3   OH226557   3.157   5.340   7.426 -0.7271 -0.3982  0.2539
 1641TIP3    H126558   3.165   5.411   7.362  0.8900 -0.7503  0.0318
 1641TIP3    H226559   3.141   5.385   7.509 -1.5521  0.1190 -0.1717
 1642TIP3   OH226560   2.813   6.076   0.622 -0.3282 -0.0197  0.7674
 1642TIP3    H126561   2.889   6.034   0.663 -1.0140 -1.9406  0.1758
 1642TIP3    H226562   2.742   6.012   0.632 -1.1510  0.5172 -1.1595
 1643TIP3   OH226563   3.048   3.966   0.516 -0.0649  0.0805 -0.1856
 1643TIP3    H126564   3.063   3.975   0.422  1.4537 -0.8937 -0.0791
 1643TIP3    H226565   3.074   3.875   0.535 -0.5521  0.2055  1.1337
 1644TIP3   OH226566   0.327   2.524   1.080 -0.1931  0.2631 -0.1385
 1644TIP3    H126567   0.409   2.565   1.053 -0.4731  0.1160 -1.2505
 1644TIP3    H226568   0.281   2.505   0.998 -1.2507  0.1576  0.4592
 1645TIP3   OH226569   0.870   0.839   1.101 -0.3893 -0.3157 -0.1999
 1645TIP3    H126570   0.947   0.782   1.100 -0.0072  0.1747  0.3224
 1645TIP3    H226571   0.821   0.815   1.023  0.7506 -0.0195 -1.0357
 1646TIP3   OH226572   6.015   3.493   2.136 -1.1100 -0.5195  0.2659
 1646TIP3    H126573   5.940   3.443   2.167 -1.2967 -0.1830  0.3636
 1646TIP3    H226574   6.007   3.578   2.179 -1.5739  0.0820 -0.9783
 1647TIP3   OH226575   0.754   1.836   1.840  0.0826 -0.1506 -0.1327
 1647TIP3    H126576   0.662   1.848   1.859  0.7971  1.6163  2.7678
 1647TIP3    H226577   0.772   1.899   1.770 -0.8712 -0.4647 -0.6752
 1648TIP3   OH226578   3.637   1.912   8.383 -0.0015  0.6798  0.1717
 1648TIP3    H126579   3.702   1.862   8.334  1.4539 -0.3134  2.8685
 1648TIP3    H226580   3.644   2.001   8.349  1.2387  0.1543 -1.0476
 1649TIP3   OH226581   6.424   4.650   7.860  0.1893  0.2014  0.2012
 1649TIP3    H126582   6.473   4.657   7.943  0.5995 -1.5255  0.1412
 1649TIP3    H226583   6.339   4.616   7.886 -1.4867  4.0121  0.4171
 1650TIP3   OH226584   2.535   2.315   7.435 -0.2204 -0.0277  0.7606
 1650TIP3    H126585   2.478   2.382   7.475 -0.4417  0.3373 -0.1468
 1650TIP3    H226586   2.618   2.325   7.481 -0.1639  1.0761  0.4524
 1651TIP3   OH226587   2.541   2.623   0.756  0.6004  0.0144 -0.5521
 1651TIP3    H126588   2.570   2.540   0.794  0.7642  0.8119  1.1507
 1651TIP3    H226589   2.449   2.609   0.735  0.0134  0.0172  1.7338
 1652TIP3   OH226590   4.044   3.910   2.978 -0.3462 -0.3939 -0.3173
 1652TIP3    H126591   4.135   3.923   3.002  0.0063  0.1781 -1.8460
 1652TIP3    H226592   4.001   3.883   3.059  0.6627  1.7956  1.0375
 1653TIP3   OH226593   6.269   3.134   1.559  0.8085  0.1876 -0.2560
 1653TIP3    H126594   6.242   3.198   1.624  0.8963  1.2296 -1.2245
 1653TIP3    H226595   6.362   3.118   1.578  0.2500 -1.4446  1.4341
 1654TIP3   OH226596   0.161   1.462   2.875  0.5744 -0.3135  0.2007
 1654TIP3    H126597   0.099   1.516   2.827 -0.9763 -0.8557  1.5059
 1654TIP3    H226598   0.109   1.388   2.907  2.0893 -1.2520  0.6092
 1655TIP3   OH226599   1.178   6.215   0.691  0.7633 -0.3054  0.4554
 1655TIP3    H126600   1.185   6.148   0.622 -0.1634 -0.8521  0.8738
 1655TIP3    H226601   1.084   6.229   0.702  0.9285  0.4747  0.9525
 1656TIP3   OH226602   2.583   0.240   2.070  0.0205  0.1275  0.7846
 1656TIP3    H126603   2.523   0.259   2.142  1.2530 -0.2824  1.9409
 1656TIP3    H226604   2.612   0.150   2.086  0.9516  0.3221  0.2463
 1657TIP3   OH226605   6.357   3.461   1.422  0.0095 -0.5976  0.2958
 1657TIP3    H126606   6.340   3.413   1.503  0.7054 -0.7638  0.3551
 1657TIP3    H226607   6.361   3.393   1.355 -0.7995 -0.4373  0.0751
 1658TIP3   OH226608   1.708   3.367   2.123  0.2774 -0.3519 -0.4538
 1658TIP3    H126609   1.754   3.392   2.203 -0.1771  1.7949 -0.7932
 1658TIP3    H226610   1.778   3.341   2.062  0.7656 -0.3255  0.0905
 1659TIP3   OH226611   6.121   0.465   8.637  0.2040 -0.0565 -0.2409
 1659TIP3    H126612   6.184   0.397   8.611  0.8720  0.2323  0.5698
 1659TIP3    H226613   6.036   0.421   8.633  0.2752 -0.1370 -2.5333
 1660TIP3   OH226614   4.833   4.366   7.273 -0.5703 -0.0172  0.3598
 1660TIP3    H126615   4.772   4.438   7.254  0.2512  0.7249  0.4791
 1660TIP3    H226616   4.863   4.383   7.362  1.7206  1.0924 -0.5393
 1661TIP3   OH226617   5.514   4.107   7.856 -0.3265 -0.5214  0.2240
 1661TIP3    H126618   5.565   4.185   7.877 -2.0379  0.4632  0.9049
 1661TIP3    H226619   5.463   4.090   7.935  1.0503 -3.2348  0.6403
 1662TIP3   OH226620   1.542   6.449   2.838 -0.1498 -0.6008 -0.2488
 1662TIP3    H126621   1.561   6.360   2.869  0.2256 -0.5488 -0.3230
 1662TIP3    H226622   1.626   6.482   2.806 -0.4728 -0.5597 -1.0810
 1663TIP3   OH226623   2.964   0.580   1.784 -0.0249 -0.2145  0.4059
 1663TIP3    H126624   3.053   0.587   1.749 -0.5653  0.6838 -0.8874
 1663TIP3    H226625   2.937   0.490   1.764  1.0324 -0.9316  2.0089
 1664TIP3   OH226626   3.143   2.210   1.219 -0.5473  0.5066  0.0040
 1664TIP3    H126627   3.175   2.120   1.213 -1.3211  0.2840 -1.1469
 1664TIP3    H226628   3.169   2.239   1.307 -0.1774 -0.7861  0.3456
 1665TIP3   OH226629   5.448   2.961   8.161  0.2387  0.3568  0.3021
 1665TIP3    H126630   5.369   2.908   8.166  0.6878 -0.2209  1.8009
 1665TIP3    H226631   5.421   3.047   8.195 -0.5273  1.2248 -2.2698
 1666TIP3   OH226632   0.189   0.343   7.561  0.0816 -0.1072 -0.2374
 1666TIP3    H126633   0.278   0.376   7.568  0.4498 -1.2982  0.9137
 1666TIP3    H226634   0.134   0.415   7.591  0.6445  0.6037 -0.8754
 1667TIP3   OH226635   6.481   0.792   0.850 -0.4440  0.0712  0.1474
 1667TIP3    H126636   6.494   0.886   0.851 -1.8332  0.2774 -0.0020
 1667TIP3    H226637   6.503   0.765   0.761  0.4416  0.1566  0.3244
 1668TIP3   OH226638   3.041   3.573   2.281 -0.8181  0.9019 -0.1361
 1668TIP3    H126639   3.023   3.575   2.187 -0.6739  0.5717 -0.1718
 1668TIP3    H226640   3.035   3.664   2.309  0.2628  1.1433 -0.6698
 1669TIP3   OH226641   5.736   0.190   8.009 -0.3336  0.3852  1.0228
 1669TIP3    H126642   5.694   0.261   7.958 -1.1181 -0.9194 -0.2328
 1669TIP3    H226643   5.778   0.235   8.082 -0.8181  2.1529  0.2787
 1670TIP3   OH226644   6.796   1.575   3.074 -0.0470 -0.1514 -0.1056
 1670TIP3    H126645   6.878   1.579   3.124  0.1215  1.0808 -0.4615
 1670TIP3    H226646   6.797   1.488   3.034  0.9568 -0.2486  0.1064
 1671TIP3   OH226647   0.191   5.585   2.636 -0.4399  0.0728  0.0057
 1671TIP3    H126648   0.274   5.597   2.590 -0.3284 -0.0467  0.1759
 1671TIP3    H226649   0.215   5.569   2.727 -0.6903  1.1683  0.2853
 1672TIP3   OH226650   1.160   1.175   2.249 -0.3420 -0.7634 -0.0227
 1672TIP3    H126651   1.249   1.141   2.262 -0.0583 -0.2152 -0.4910
 1672TIP3    H226652   1.117   1.160   2.333  1.2669  2.2097  1.4846
 1673TIP3   OH226653   0.187   4.735   0.493 -0.3314  0.2712 -0.3551
 1673TIP3    H126654   0.258   4.694   0.443 -1.4504 -1.0853 -0.9110
 1673TIP3    H226655   0.146   4.795   0.431 -1.0844 -0.6626 -0.7940
 1674TIP3   OH226656   2.474   4.077   0.296  1.0349  0.2554 -0.2672
 1674TIP3    H126657   2.526   4.087   0.375  0.3894 -1.6851  0.4684
 1674TIP3    H226658   2.539   4.073   0.225  1.6079  2.0496  0.1114
 1675TIP3   OH226659   0.058   0.471   8.498 -0.1313  0.2709  0.0488
 1675TIP3    H126660   0.023   0.535   8.435  1.4090  0.3331 -0.7777
 1675TIP3    H226661   0.069   0.391   8.446 -0.0026 -0.0348  0.5453
 1676TIP3   OH226662   0.650   1.417   1.349 -0.0777 -0.1193 -0.3157
 1676TIP3    H126663   0.626   1.461   1.430 -1.3239  1.4737 -1.5062
 1676TIP3    H226664   0.746   1.414   1.351 -0.0073  1.7127  0.2948
 1677TIP3   OH226665   5.819   5.933   1.639 -0.3655 -0.4884 -0.5226
 1677TIP3    H126666   5.871   5.950   1.718 -0.5810 -1.5347 -0.1321
 1677TIP3    H226667   5.880   5.947   1.567 -0.4856  1.6520 -0.2589
 1678TIP3   OH226668   4.556   3.267   1.156 -0.6630 -0.3956  0.4039
 1678TIP3    H126669   4.568   3.345   1.102  2.6961 -1.0510  0.0287
 1678TIP3    H226670   4.540   3.302   1.244 -2.3114  0.6637 -0.2749
 1679TIP3   OH226671   0.863   0.665   0.307  0.6556 -0.4193 -0.1259
 1679TIP3    H126672   0.781   0.709   0.329  0.6571 -0.5082  0.0553
 1679TIP3    H226673   0.836   0.591   0.253  0.6375 -0.3066 -0.2729
 1680TIP3   OH226674   2.134   3.276   2.461  0.4136 -0.6084  0.0516
 1680TIP3    H126675   2.158   3.184   2.458  2.8950 -0.0412  0.2176
 1680TIP3    H226676   2.155   3.304   2.550 -0.1615  0.1565 -0.0433
 1681TIP3   OH226677   3.084   0.225   0.998 -0.0176 -0.2343 -0.7587
 1681TIP3    H126678   3.067   0.191   0.910  0.1594  0.7565 -1.1905
 1681TIP3    H226679   3.155   0.289   0.986  0.6847 -0.8006  0.2644
 1682TIP3   OH226680   6.684   2.128   1.967  0.1868 -0.0171 -0.1410
 1682TIP3    H126681   6.718   2.136   1.878  0.6438  1.2791  0.1319
 1682TIP3    H226682   6.734   2.192   2.018 -2.4187  1.7646  0.3564
 1683TIP3   OH226683   3.300   1.004   7.718 -0.6185 -0.7003 -0.4251
 1683TIP3    H126684   3.228   1.018   7.656  0.0125 -0.2753 -1.0794
 1683TIP3    H226685   3.298   0.910   7.735 -0.7375 -0.8484 -1.1871
 1684TIP3   OH226686   5.738   0.055   8.329  0.2504 -0.3148 -0.8468
 1684TIP3    H126687   5.675   0.119   8.362  0.0457 -0.7714 -0.3271
 1684TIP3    H226688   5.823   0.090   8.356  0.1939  0.0958 -1.1934
 1685TIP3   OH226689   3.940   2.138   7.856  0.0921 -0.9325  0.4603
 1685TIP3    H126690   3.899   2.112   7.773 -0.7714 -1.7384  1.1168
 1685TIP3    H226691   3.910   2.228   7.870  2.9500  0.5346 -1.7352
 1686TIP3   OH226692   1.005   1.077   2.496  0.2030  0.0477  0.5329
 1686TIP3    H126693   0.994   1.168   2.526  0.4127 -0.5816  2.6754
 1686TIP3    H226694   0.917   1.049   2.473  0.2854  1.1206 -1.3354
 1687TIP3   OH226695   4.336   5.469   2.076 -0.3235  0.2394  0.0169
 1687TIP3    H126696   4.270   5.535   2.095 -1.6873 -1.1581  0.3743
 1687TIP3    H226697   4.351   5.425   2.160  1.6583  0.9887  0.1215
 1688TIP3   OH226698   3.992   1.324   8.584 -1.2420 -0.5856  0.3163
 1688TIP3    H126699   4.051   1.383   8.631  0.7083 -2.0826 -0.1314
 1688TIP3    H226700   3.929   1.296   8.651 -0.8917  0.3158  1.0535
 1689TIP3   OH226701   6.243   2.161   6.939 -0.5816  0.0903 -0.3805
 1689TIP3    H126702   6.336   2.148   6.918 -0.4684  0.5023 -0.1524
 1689TIP3    H226703   6.207   2.073   6.944 -0.4781 -0.0373 -1.6770
 1690TIP3   OH226704   3.145   2.561   1.999 -0.1451 -0.0668 -0.3728
 1690TIP3    H126705   3.125   2.470   1.976 -0.7171 -0.4416  1.4644
 1690TIP3    H226706   3.241   2.566   1.999 -0.1145 -0.3366 -1.5995
 1691TIP3   OH226707   1.117   1.867   3.094 -0.1500 -0.2218  0.1539
 1691TIP3    H126708   1.196   1.916   3.118  0.3141 -1.1215  0.5274
 1691TIP3    H226709   1.050   1.897   3.155  0.6231 -1.3721  1.6376
 1692TIP3   OH226710   1.565   0.001   3.167 -0.5796  0.0849 -0.1446
 1692TIP3    H126711   1.567  -0.079   3.219  2.4448 -0.5975 -1.1470
 1692TIP3    H226712   1.591   0.070   3.229 -2.1346  0.2005  0.4438
 1693TIP3   OH226713   2.508   3.414   0.220 -0.1126 -0.1497  0.2961
 1693TIP3    H126714   2.416   3.399   0.194  0.2049 -2.9319  0.4456
 1693TIP3    H226715   2.550   3.444   0.139 -0.5519 -1.9945 -0.6816
 1694TIP3   OH226716   2.144   3.930   1.735  0.3468  0.5850 -0.3276
 1694TIP3    H126717   2.143   4.004   1.796 -0.4245  0.7808 -0.5634
 1694TIP3    H226718   2.177   3.968   1.653 -0.3558  0.7451 -0.5386
 1695TIP3   OH226719   0.238   0.789   1.851 -0.4249 -0.0630  0.1453
 1695TIP3    H126720   0.175   0.861   1.854 -1.3215 -0.8621  1.1656
 1695TIP3    H226721   0.188   0.712   1.880  0.7017 -0.9575 -0.2131
 1696TIP3   OH226722   3.923   2.194   1.634  0.1368  0.1442 -0.1707
 1696TIP3    H126723   3.928   2.148   1.717 -1.1251  0.3109  0.0282
 1696TIP3    H226724   3.850   2.256   1.646 -0.1533  0.0720 -1.4310
 1697TIP3   OH226725   1.454   4.258   2.945 -0.1012  0.4156  0.5369
 1697TIP3    H126726   1.458   4.321   3.017  0.2939  0.1046  0.7890
 1697TIP3    H226727   1.542   4.257   2.908 -0.3726  0.7766 -0.1322
 1698TIP3   OH226728   3.448   2.302   8.029 -0.3911 -0.4503  0.3173
 1698TIP3    H126729   3.369   2.336   7.987  0.4148 -0.1205 -0.9860
 1698TIP3    H226730   3.517   2.313   7.964 -0.0355 -4.7797 -0.3462
 1699TIP3   OH226731   4.428   0.606   7.928 -0.2240 -0.2425 -0.2260
 1699TIP3    H126732   4.512   0.644   7.953  0.0149 -1.2962  0.6627
 1699TIP3    H226733   4.446   0.513   7.919 -1.5393 -0.6911  1.2396
 1700TIP3   OH226734   0.223   0.163   7.963 -0.5127 -0.3762  0.0681
 1700TIP3    H126735   0.259   0.246   7.931 -0.6078  0.2037  1.3988
 1700TIP3    H226736   0.259   0.097   7.903 -0.1311  0.5735 -0.7879
 1701TIP3   OH226737   2.215   5.860   7.212  0.3812  0.0357  0.0451
 1701TIP3    H126738   2.272   5.938   7.213 -1.7497  1.6842  0.6446
 1701TIP3    H226739   2.137   5.889   7.165 -0.3902 -1.8373  0.1136
 1702TIP3   OH226740   0.344   1.112   1.397 -0.5296  0.5155  0.0559
 1702TIP3    H126741   0.370   1.170   1.325 -2.1051 -0.5899 -1.4761
 1702TIP3    H226742   0.252   1.093   1.380 -0.9048  0.0628  2.2966
 1703TIP3   OH226743   5.873   0.251   1.765  0.1668  0.3721 -0.0564
 1703TIP3    H126744   5.818   0.330   1.767 -1.3658 -0.5490 -1.8622
 1703TIP3    H226745   5.823   0.186   1.815 -0.6324 -0.5657 -1.9671
 1704TIP3   OH226746   5.234   0.743   7.966 -0.4777  0.1854 -0.1787
 1704TIP3    H126747   5.215   0.788   7.884 -0.8236  0.6482  0.1513
 1704TIP3    H226748   5.327   0.760   7.982 -0.5733  0.6577 -0.1314
 1705TIP3   OH226749   0.778   1.136   2.310 -0.8176  0.1996  0.1137
 1705TIP3    H126750   0.740   1.106   2.392 -1.4355 -0.3190 -0.3446
 1705TIP3    H226751   0.722   1.209   2.282 -0.6018  0.3842  0.1608
 1706TIP3   OH226752   5.638   2.755   7.192 -0.1608  0.3046 -0.1215
 1706TIP3    H126753   5.558   2.794   7.225  0.1245 -0.5240  1.6811
 1706TIP3    H226754   5.708   2.810   7.227  0.1063  0.5349 -0.9889
 1707TIP3   OH226755   3.841   3.138   2.534  0.6170 -0.2444  0.0657
 1707TIP3    H126756   3.857   3.208   2.597  2.3126 -2.2023  1.9686
 1707TIP3    H226757   3.907   3.151   2.466 -0.3346  1.0732 -0.6544
 1708TIP3   OH226758   1.440   4.477   8.074 -0.2578 -0.5887 -0.1313
 1708TIP3    H126759   1.478   4.562   8.052  0.6188 -0.8653  0.2557
 1708TIP3    H226760   1.480   4.417   8.011 -0.3821 -0.8176  0.0096
 1709TIP3   OH226761   5.368   1.252   7.464  0.0663 -0.0899 -0.2018
 1709TIP3    H126762   5.276   1.248   7.491  0.0802 -0.0874 -0.1520
 1709TIP3    H226763   5.412   1.192   7.525  0.7161  2.7704  2.3996
 1710TIP3   OH226764   3.387   5.117   7.094 -0.7031 -0.2473  0.5958
 1710TIP3    H126765   3.437   5.150   7.169  1.1772  1.5543 -1.2777
 1710TIP3    H226766   3.436   5.041   7.064  0.0208  0.5035 -0.2125
 1711TIP3   OH226767   1.833   3.664   2.387  0.2428 -0.6713 -0.0993
 1711TIP3    H126768   1.742   3.691   2.397  0.2059 -0.8165 -0.0333
 1711TIP3    H226769   1.832   3.570   2.406  0.5572 -0.4951  0.8678
 1712TIP3   OH226770   3.925   5.058   2.918  0.2663  0.3703  0.3014
 1712TIP3    H126771   3.863   5.007   2.970 -0.5698  0.6982 -0.3507
 1712TIP3    H226772   3.898   5.149   2.930  1.6384  0.6747  1.3196
 1713TIP3   OH226773   2.082   1.840   2.589  0.3639  0.3794  0.0608
 1713TIP3    H126774   2.059   1.770   2.650 -1.8731 -1.8904 -3.0654
 1713TIP3    H226775   2.177   1.835   2.581  0.4588 -0.8012  1.5525
 1714TIP3   OH226776   3.402   1.717   2.600  0.6133 -0.3504  0.1213
 1714TIP3    H126777   3.477   1.754   2.646  0.5739 -1.7473  1.3714
 1714TIP3    H226778   3.343   1.687   2.669 -0.9646  0.3892 -0.8310
 1715TIP3   OH226779   4.438   5.488   7.900  0.1092  0.3747  0.1940
 1715TIP3    H126780   4.438   5.582   7.918 -0.1034  0.1603  1.3721
 1715TIP3    H226781   4.363   5.475   7.841 -1.4214  0.6107  2.0114
 1716TIP3   OH226782   5.379   6.783   8.189 -0.1923 -0.6090 -0.1015
 1716TIP3    H126783   5.432   6.814   8.115  0.0709 -1.0805 -0.1135
 1716TIP3    H226784   5.289   6.785   8.157 -0.0364 -1.2775 -0.6074
 1717TIP3   OH226785   3.872   6.143   7.648 -0.0394  0.2081 -0.0514
 1717TIP3    H126786   3.902   6.218   7.597  0.4032 -0.0831 -0.2232
 1717TIP3    H226787   3.909   6.156   7.735  0.4896 -0.0816 -0.2271
 1718TIP3   OH226788   5.694   0.775   3.308 -0.3679 -0.1001 -0.6546
 1718TIP3    H126789   5.650   0.859   3.292 -0.8661 -0.4537 -1.1928
 1718TIP3    H226790   5.624   0.717   3.338 -0.1875 -0.5456 -1.0789
 1719TIP3   OH226791   5.260   5.530   2.690 -0.6883  0.8313  0.3432
 1719TIP3    H126792   5.272   5.601   2.626 -1.3130  0.1613 -0.5331
 1719TIP3    H226793   5.265   5.450   2.639  3.3058 -0.0207  1.7322
 1720TIP3   OH226794   0.075   4.671   1.935  0.3125 -0.0664  0.3248
 1720TIP3    H126795   0.070   4.638   1.845 -1.2053  0.5387  0.1517
 1720TIP3    H226796   0.016   4.747   1.935  0.1639 -0.1656  1.8701
 1721TIP3   OH226797   5.794   6.601   7.140 -0.2398  0.3530 -0.0484
 1721TIP3    H126798   5.798   6.680   7.194  0.0966  0.4004 -0.1390
 1721TIP3    H226799   5.734   6.543   7.186 -1.2311  1.0267 -0.4575
 1722TIP3   OH226800   4.361   2.315   1.005  0.1580 -0.1936 -0.2452
 1722TIP3    H126801   4.451   2.289   0.982  0.1694 -1.1258  0.7748
 1722TIP3    H226802   4.373   2.385   1.069  0.1458  0.2180 -0.6886
 1723TIP3   OH226803   4.216   5.234   0.324  0.2591  0.8546 -0.1608
 1723TIP3    H126804   4.231   5.211   0.416 -0.6398 -0.9126 -0.3959
 1723TIP3    H226805   4.140   5.292   0.327 -0.8233 -0.5090  0.1537
 1724TIP3   OH226806   0.601   5.114   1.566  0.5121  0.7809  0.1292
 1724TIP3    H126807   0.688   5.091   1.534  0.5700 -0.0291  0.8355
 1724TIP3    H226808   0.596   5.209   1.555  0.9880  0.6912 -1.1028
 1725TIP3   OH226809   6.559   1.864   0.828  0.6940  0.5409 -0.1648
 1725TIP3    H126810   6.473   1.829   0.804  0.4325  1.5784 -0.8319
 1725TIP3    H226811   6.619   1.790   0.820  0.0726  0.1059 -0.9391
 1726TIP3   OH226812   0.765   3.571   8.317 -0.0396 -0.6701  0.2174
 1726TIP3    H126813   0.713   3.650   8.301 -0.2173 -0.5491  1.3308
 1726TIP3    H226814   0.851   3.604   8.342 -0.3620 -0.7937  1.5480
 1727TIP3   OH226815   0.234   1.186   8.679 -0.5896 -0.0812 -0.6532
 1727TIP3    H126816   0.309   1.234   8.643  0.3802 -0.2243  1.0874
 1727TIP3    H226817   0.175   1.253   8.711 -0.4590  0.0092 -0.5996
 1728TIP3   OH226818   4.056   0.069   2.986 -0.1206 -0.2616 -0.6565
 1728TIP3    H126819   4.105   0.122   3.049 -0.6077 -1.2081  0.5569
 1728TIP3    H226820   4.110  -0.009   2.975 -0.6427 -0.6507 -0.4488
 1729TIP3   OH226821   1.562   0.617   2.343 -0.3592  0.0623  0.8654
 1729TIP3    H126822   1.637   0.648   2.292 -0.4636 -1.8061 -0.5453
 1729TIP3    H226823   1.597   0.601   2.431  0.5782  0.4124  0.5644
 1730TIP3   OH226824   6.663   4.511   1.658 -0.1037  0.1512 -0.4458
 1730TIP3    H126825   6.586   4.455   1.649  0.5824 -0.5518 -2.4174
 1730TIP3    H226826   6.669   4.557   1.574  0.7036  1.4238  0.2736
 1731TIP3   OH226827   2.095   1.775   0.760 -0.3402  0.7884 -0.2276
 1731TIP3    H126828   2.128   1.843   0.701  0.0508  1.0614  0.3089
 1731TIP3    H226829   2.147   1.784   0.839  0.9716 -1.3179 -0.7825
 1732TIP3   OH226830   2.126   1.203   0.022 -0.3965 -0.2444  0.3109
 1732TIP3    H126831   2.108   1.118  -0.018 -1.5222 -0.4091  1.1320
 1732TIP3    H226832   2.059   1.261  -0.014  0.5875  0.4150 -0.5346
 1733TIP3   OH226833   1.125   0.595   0.797  0.1257 -0.1097  0.1211
 1733TIP3    H126834   1.091   0.562   0.880  1.0791  0.6857  0.8594
 1733TIP3    H226835   1.069   0.556   0.730 -2.8160  1.8450  1.2866
 1734TIP3   OH226836   0.564   6.600   8.560  0.0072 -0.5116  0.2985
 1734TIP3    H126837   0.476   6.633   8.541 -0.3219 -0.4669  1.7945
 1734TIP3    H226838   0.617   6.632   8.488 -1.2640 -0.8518 -0.8395
 1735TIP3   OH226839   2.292   4.813   1.052 -0.3291  0.4859  0.6878
 1735TIP3    H126840   2.202   4.822   1.082 -1.4578  1.5484 -2.5348
 1735TIP3    H226841   2.299   4.723   1.021 -0.6092  0.6383  0.1573
 1736TIP3   OH226842   5.840   0.021   7.757  0.4917  1.5029  0.5363
 1736TIP3    H126843   5.820  -0.010   7.846 -0.4193  0.9623  0.1508
 1736TIP3    H226844   5.792   0.103   7.749 -0.9980  0.6049 -0.1061
 1737TIP3   OH226845   5.332   2.147   2.219  0.1660 -0.0160  0.5787
 1737TIP3    H126846   5.377   2.134   2.136 -1.2057 -3.0859  0.1996
 1737TIP3    H226847   5.303   2.238   2.216  0.7746  0.1640 -1.9833
 1738TIP3   OH226848   1.533   1.217   0.396 -0.0533 -0.0298 -0.8133
 1738TIP3    H126849   1.528   1.155   0.323 -1.0945 -1.7223  0.6134
 1738TIP3    H226850   1.453   1.201   0.447  1.3335  0.0147  1.5139
 1739TIP3   OH226851   5.489   3.513   8.319  0.4283  0.2126  0.2001
 1739TIP3    H126852   5.409   3.564   8.307 -0.6964 -0.9790  2.1294
 1739TIP3    H226853   5.465   3.424   8.294  0.5141 -0.5500  2.5979
 1740TIP3   OH226854   0.677   4.774   1.733 -0.3436  0.1338  0.5708
 1740TIP3    H126855   0.663   4.738   1.821 -0.9767 -0.6588  0.1544
 1740TIP3    H226856   0.602   4.744   1.683  1.2132 -1.4943 -0.9091
 1741TIP3   OH226857   4.816   3.614   8.487  0.2747 -0.3668 -0.6416
 1741TIP3    H126858   4.743   3.644   8.432  0.2300  1.7025  0.4384
 1741TIP3    H226859   4.829   3.685   8.549  1.5185 -1.8395  0.8679
 1742TIP3   OH226860   2.833   5.166   1.828  0.1882 -0.1020 -0.1832
 1742TIP3    H126861   2.840   5.161   1.733 -0.1426 -0.3351 -0.1991
 1742TIP3    H226862   2.896   5.102   1.860 -2.7545 -3.3865 -0.3538
 1743TIP3   OH226863   3.679   6.788   1.525 -0.7142 -0.3961 -0.4338
 1743TIP3    H126864   3.588   6.770   1.551 -1.3437  2.2149 -0.5075
 1743TIP3    H226865   3.723   6.810   1.607 -0.8071  0.6920 -0.6580
 1744TIP3   OH226866   4.268   1.642   0.227  0.2372 -0.1410  0.5070
 1744TIP3    H126867   4.236   1.649   0.317  2.0418  1.2100  1.1101
 1744TIP3    H226868   4.348   1.589   0.234  0.9376  0.8034 -0.1216
 1745TIP3   OH226869   5.257   4.823   2.928 -0.5957 -0.2703  0.2594
 1745TIP3    H126870   5.317   4.841   2.855 -0.4686 -1.3588  0.0831
 1745TIP3    H226871   5.314   4.819   3.005 -0.5731 -0.3129  0.2404
 1746TIP3   OH226872   5.565   2.226   2.713 -0.1349  0.4266 -0.2558
 1746TIP3    H126873   5.485   2.175   2.727 -0.6961  1.3704  0.0003
 1746TIP3    H226874   5.574   2.279   2.791  1.3509 -0.4480  0.2064
 1747TIP3   OH226875   6.799   2.247   1.451  0.4659  0.1478  0.0141
 1747TIP3    H126876   6.712   2.209   1.450  0.8559 -0.9121  1.7162
 1747TIP3    H226877   6.850   2.196   1.388  0.7392 -1.6511  1.5952
 1748TIP3   OH226878   0.593   4.688   8.152 -0.0791 -0.2695 -0.5182
 1748TIP3    H126879   0.535   4.612   8.160  1.7109 -1.4804  2.3743
 1748TIP3    H226880   0.535   4.763   8.161 -1.3273 -1.4256  2.4907
 1749TIP3   OH226881   6.878   0.893   1.355 -0.4372  0.7594  0.3137
 1749TIP3    H126882   6.791   0.909   1.392  0.4129  1.6997  2.0107
 1749TIP3    H226883   6.904   0.977   1.318 -0.1747  0.5233 -0.0437
 1750TIP3   OH226884   5.721   3.257   0.081 -0.2856 -0.1902  0.1279
 1750TIP3    H126885   5.683   3.258  -0.007  2.9182  2.5290 -1.4841
 1750TIP3    H226886   5.688   3.337   0.122  0.6361  0.1868  0.1605
 1751TIP3   OH226887   6.607   3.133   1.332 -0.2825  0.8232  0.0807
 1751TIP3    H126888   6.575   3.058   1.383  1.4088  1.1585  1.7760
 1751TIP3    H226889   6.540   3.148   1.265 -0.8044 -1.9901 -0.1226
 1752TIP3   OH226890   0.487   1.463   0.281  0.4407 -0.0535  0.7295
 1752TIP3    H126891   0.426   1.534   0.302 -0.2691 -0.8057  1.2451
 1752TIP3    H226892   0.570   1.508   0.261 -0.3046  0.9894 -0.1186
 1753TIP3   OH226893   2.562   5.248   3.044  0.1341 -0.3843  0.7943
 1753TIP3    H126894   2.499   5.177   3.060 -1.0336  0.3111 -0.5433
 1753TIP3    H226895   2.646   5.204   3.037 -0.7333 -1.8766 -1.4373
 1754TIP3   OH226896   1.514   3.954   8.073 -0.6082 -0.2480  0.2655
 1754TIP3    H126897   1.556   3.955   8.159  2.4127 -3.1549 -0.9637
 1754TIP3    H226898   1.479   4.043   8.063  2.3399  1.4305  2.8810
 1755TIP3   OH226899   1.745   4.915   1.077 -0.3175  0.0581  0.0938
 1755TIP3    H126900   1.827   4.899   1.030 -1.3887  1.8903 -2.6204
 1755TIP3    H226901   1.757   5.000   1.118 -1.3489  1.0913 -1.6505
 1756TIP3   OH226902   3.344   5.188   0.543  0.5297 -0.0011  0.0205
 1756TIP3    H126903   3.264   5.222   0.584  0.0407 -1.1653  0.0836
 1756TIP3    H226904   3.399   5.162   0.617  0.2171 -0.8323 -0.0250
 1757TIP3   OH226905   4.092   5.695   0.003  0.1081  0.1226 -0.3843
 1757TIP3    H126906   4.150   5.760   0.042 -1.1196  1.4668 -0.6961
 1757TIP3    H226907   4.137   5.611   0.015  2.2625  1.1431 -0.9779
 1758TIP3   OH226908   3.965   1.550   7.923  0.1355  0.0304  0.6629
 1758TIP3    H126909   3.902   1.477   7.929  1.0688 -0.9516 -0.7664
 1758TIP3    H226910   4.012   1.548   8.006 -0.0462 -0.8310  0.7566
 1759TIP3   OH226911   4.707   6.337   7.997 -0.3201 -0.1236 -0.2707
 1759TIP3    H126912   4.629   6.328   7.942 -0.7421 -0.2127  0.3339
 1759TIP3    H226913   4.676   6.382   8.076  0.4201  0.6426 -0.4015
 1760TIP3   OH226914   1.967   3.452   3.089 -0.6985 -0.3399 -0.3879
 1760TIP3    H126915   1.910   3.395   3.141 -0.8815  1.1060  1.0917
 1760TIP3    H226916   2.052   3.408   3.090 -0.0833  0.5688  3.0756
 1761TIP3   OH226917   4.564   3.207   2.317  0.0584 -0.6786  0.4735
 1761TIP3    H126918   4.493   3.165   2.267  0.0465  0.1704 -0.2460
 1761TIP3    H226919   4.519   3.272   2.370  0.4335  1.3525 -1.5338
 1762TIP3   OH226920   2.386   6.838   2.246 -0.1522 -0.3404  0.4738
 1762TIP3    H126921   2.470   6.860   2.207 -0.6927  1.9177  0.3974
 1762TIP3    H226922   2.342   6.784   2.181  0.1462  0.8547 -0.7599
 1763TIP3   OH226923   0.423   4.367   2.753 -0.2666 -1.0287  0.0287
 1763TIP3    H126924   0.420   4.377   2.658 -1.2590 -1.2434  0.0245
 1763TIP3    H226925   0.499   4.419   2.781 -0.8874  0.3284 -0.7186
 1764TIP3   OH226926   4.322   3.038   8.612 -0.1682  0.0085  0.5792
 1764TIP3    H126927   4.415   3.052   8.593 -0.4923  0.0327 -1.1990
 1764TIP3    H226928   4.315   3.047   8.707  1.4702  1.0548  0.6446
 1765TIP3   OH226929   0.047   2.396   0.610 -0.2518  0.6030 -0.0656
 1765TIP3    H126930  -0.027   2.434   0.562  0.6533 -2.3443 -4.4205
 1765TIP3    H226931   0.016   2.310   0.638  0.6728  0.4554  0.5463
 1766TIP3   OH226932   3.661   2.730   1.115 -0.1086  0.1826 -0.0007
 1766TIP3    H126933   3.596   2.752   1.048 -1.3345 -1.9442  0.3913
 1766TIP3    H226934   3.733   2.691   1.066 -0.3524  0.0081 -0.2270
 1767TIP3   OH226935   4.045   3.073   0.153  0.0520  0.3881  0.4972
 1767TIP3    H126936   4.058   3.160   0.117 -0.4163  0.7630  1.2181
 1767TIP3    H226937   4.016   3.088   0.244 -1.8611 -0.4541  0.0825
 1768TIP3   OH226938   3.321   4.929   8.264 -0.1742  0.6100 -0.0138
 1768TIP3    H126939   3.313   5.001   8.202  1.5220  1.6936  0.9724
 1768TIP3    H226940   3.339   4.971   8.348 -0.5736 -0.9085  0.8769
 1769TIP3   OH226941   3.749   2.405   1.793 -0.7510  0.6908 -0.2308
 1769TIP3    H126942   3.684   2.351   1.748 -1.5148  0.9789  0.5074
 1769TIP3    H226943   3.754   2.368   1.881  0.5695  0.2744 -0.4488
 1770TIP3   OH226944   2.568   3.781   0.486 -0.5982  0.0019 -0.2098
 1770TIP3    H126945   2.518   3.824   0.417 -0.5040  2.8775  1.3197
 1770TIP3    H226946   2.660   3.801   0.466 -0.4991 -0.0803  0.1506
 1771TIP3   OH226947   5.037   6.620   0.850 -0.0052 -0.1282  0.1251
 1771TIP3    H126948   5.073   6.584   0.769 -1.2273 -0.4815 -0.2726
 1771TIP3    H226949   4.943   6.617   0.839 -0.1954  0.0313  1.4763
 1772TIP3   OH226950   1.830   2.340   1.524 -0.2068 -0.1894 -0.2822
 1772TIP3    H126951   1.795   2.416   1.477 -0.4278 -0.0063  0.1722
 1772TIP3    H226952   1.768   2.270   1.507 -1.0764  0.2544  0.9014
 1773TIP3   OH226953   0.291   0.221   0.782  0.1651  0.2419 -0.3770
 1773TIP3    H126954   0.251   0.205   0.696 -0.1468 -0.2081 -0.1513
 1773TIP3    H226955   0.271   0.313   0.801  0.2250  0.3405 -0.7801
 1774TIP3   OH226956   1.581   1.297   1.812 -0.2789  0.6874  0.2154
 1774TIP3    H126957   1.573   1.350   1.733 -1.4802 -1.0809 -0.9217
 1774TIP3    H226958   1.664   1.251   1.801 -0.9175 -0.3187 -0.5471
 1775TIP3   OH226959   6.726   4.535   7.609  0.4155 -0.6047  0.4304
 1775TIP3    H126960   6.688   4.504   7.526 -1.4527  1.7784  0.2889
 1775TIP3    H226961   6.766   4.619   7.587 -1.4494  0.8429  2.1203
 1776TIP3   OH226962   3.927   5.377   1.633 -0.3579  0.1697  0.0786
 1776TIP3    H126963   3.908   5.285   1.650  0.3066  0.2394  1.2574
 1776TIP3    H226964   3.893   5.424   1.709 -1.5020  1.0221 -0.9134
 1777TIP3   OH226965   6.433   5.820   8.350 -0.5509 -0.0051  0.2150
 1777TIP3    H126966   6.463   5.770   8.275  0.3333  1.2950 -0.3288
 1777TIP3    H226967   6.362   5.767   8.388 -0.2918 -1.1733 -0.8918
 1778TIP3   OH226968   4.693   6.074   8.251  0.4268 -0.6501  0.5718
 1778TIP3    H126969   4.737   6.014   8.190  1.4593  0.7494 -0.1349
 1778TIP3    H226970   4.712   6.038   8.338  2.8460 -0.2568  0.2844
 1779TIP3   OH226971   1.577   5.929   2.829 -0.2451  0.2185 -0.3350
 1779TIP3    H126972   1.493   5.898   2.865 -0.0476 -0.5111 -0.4992
 1779TIP3    H226973   1.586   5.882   2.747  0.7515 -0.3705  0.1001
 1780TIP3   OH226974   5.502   2.736   1.945  0.2635 -0.2632 -0.8169
 1780TIP3    H126975   5.537   2.671   2.006  0.1680 -2.5668 -3.0724
 1780TIP3    H226976   5.575   2.754   1.885  0.1399  1.4292 -0.5163
 1781TIP3   OH226977   1.863   1.737   2.098 -0.3350  0.3484  0.3077
 1781TIP3    H126978   1.859   1.641   2.094  0.8390  0.2790  0.3073
 1781TIP3    H226979   1.884   1.756   2.189 -3.7738  0.7999  1.1315
 1782TIP3   OH226980   2.957   2.368   0.813 -0.2380 -0.0931  0.1977
 1782TIP3    H126981   3.040   2.378   0.860 -0.8870 -0.4340  1.4812
 1782TIP3    H226982   2.981   2.368   0.721  1.1147  0.4590  0.5237
 1783TIP3   OH226983   0.513   3.251   8.597 -0.4649 -0.0126  0.0523
 1783TIP3    H126984   0.543   3.209   8.677 -1.4514 -0.6762  0.1014
 1783TIP3    H226985   0.556   3.336   8.596  1.4905 -0.9623  0.0275
 1784TIP3   OH226986   4.805   4.924   8.033  0.1288  0.1238  0.0885
 1784TIP3    H126987   4.879   4.969   8.073 -0.9867  2.1361  0.0490
 1784TIP3    H226988   4.816   4.832   8.058  0.7821  0.8906  3.0329
 1785TIP3   OH226989   0.723   1.464   3.207 -0.1919 -0.5607 -0.1637
 1785TIP3    H126990   0.818   1.474   3.209 -0.1807 -0.5514 -0.6922
 1785TIP3    H226991   0.690   1.539   3.257  0.0264  0.2541 -1.2229
 1786TIP3   OH226992   2.637   4.439   7.817  0.2518  0.6045  0.0388
 1786TIP3    H126993   2.600   4.359   7.780 -0.2373 -0.0004  1.7321
 1786TIP3    H226994   2.607   4.509   7.759 -0.8342 -0.2322 -0.4428
 1787TIP3   OH226995   3.207   2.685   0.399  0.6627 -0.2989 -0.0985
 1787TIP3    H126996   3.234   2.666   0.489 -2.2581  0.4026  1.0395
 1787TIP3    H226997   3.191   2.599   0.360 -1.2268 -0.5863  1.1966
 1788TIP3   OH226998   0.276   3.790   1.680  0.2267  0.1752 -0.4168
 1788TIP3    H126999   0.349   3.803   1.619  0.7841 -0.2035  0.1638
 1788TIP3    H227000   0.202   3.835   1.638  0.3863 -0.7761 -1.7901
 1789TIP3   OH227001   1.394   0.799   2.616 -0.5829  0.1644 -0.4393
 1789TIP3    H127002   1.477   0.842   2.592 -0.4855  0.9385  1.1049
 1789TIP3    H227003   1.407   0.707   2.595  0.3728  0.4143 -0.9886
 1790TIP3   OH227004   4.234   2.491   0.741  0.5230 -0.1104 -0.3720
 1790TIP3    H127005   4.193   2.575   0.720 -0.5774 -0.2713  1.0304
 1790TIP3    H227006   4.167   2.442   0.787  1.8144 -0.9890  0.6402
 1791TIP3   OH227007   1.300   2.426   0.778 -0.4512 -0.0735 -0.0695
 1791TIP3    H127008   1.356   2.418   0.855 -2.4541  3.5109  1.9934
 1791TIP3    H227009   1.213   2.400   0.809 -0.9856 -0.2804 -1.6686
 1792TIP3   OH227010   0.916   1.135   8.172 -0.3718  0.5923  0.2076
 1792TIP3    H127011   0.901   1.109   8.263 -0.8282 -0.8870 -0.2466
 1792TIP3    H227012   0.913   1.230   8.172 -1.4694  0.5777  1.5569
 1793TIP3   OH227013   1.429   1.100   8.385  0.1287  0.6835 -0.0045
 1793TIP3    H127014   1.418   1.094   8.480 -0.4279 -0.1627 -0.1139
 1793TIP3    H227015   1.488   1.027   8.363  0.2746  0.8891 -0.3065
 1794TIP3   OH227016   1.082   3.546   2.049 -0.2357  0.1765 -0.0128
 1794TIP3    H127017   1.035   3.619   2.009  1.9587  2.3231  1.0553
 1794TIP3    H227018   1.038   3.531   2.133 -1.0229 -0.1305 -0.4727
 1795TIP3   OH227019   1.397   1.360   8.209  0.1615 -0.2239  0.1038
 1795TIP3    H127020   1.397   1.297   8.282 -1.1418  0.2822  0.5637
 1795TIP3    H227021   1.465   1.327   8.150  0.1974 -1.5104  0.8126
 1796TIP3   OH227022   0.572   5.382   2.177 -0.3685 -0.5737 -0.4065
 1796TIP3    H127023   0.519   5.323   2.231 -0.9379  0.5787  0.3637
 1796TIP3    H227024   0.511   5.452   2.153  0.5272  0.2081 -0.4338
 1797TIP3   OH227025   6.042   5.589   7.826 -0.4704 -0.3876 -0.2137
 1797TIP3    H127026   6.009   5.554   7.743 -0.0465 -0.5605 -0.3167
 1797TIP3    H227027   6.003   5.676   7.833 -0.7667 -0.5002 -0.4351
 1798TIP3   OH227028   6.552   3.492   0.052 -0.1099  0.1055 -0.1203
 1798TIP3    H127029   6.460   3.478   0.030 -0.3334 -2.6143  1.9361
 1798TIP3    H227030   6.591   3.528  -0.028 -3.0749  2.3644 -0.7463
 1799TIP3   OH227031   2.281   5.540   1.187 -0.3330  0.2465 -0.0035
 1799TIP3    H127032   2.190   5.543   1.155 -1.5260 -3.0523  2.5479
 1799TIP3    H227033   2.273   5.551   1.282  1.6440 -2.2121  0.5284
 1800TIP3   OH227034   5.394   6.452   8.253 -0.8164  0.3505  0.0714
 1800TIP3    H127035   5.375   6.519   8.187 -3.4490 -1.7910 -1.6022
 1800TIP3    H227036   5.417   6.374   8.201 -0.0981 -0.6758  1.8468
 1801TIP3   OH227037   3.705   2.922   8.215 -0.4131 -0.2313 -0.5731
 1801TIP3    H127038   3.728   2.975   8.139 -1.2478 -1.7151 -1.9336
 1801TIP3    H227039   3.743   2.836   8.197  0.3823 -0.3214  1.2755
 1802TIP3   OH227040   4.913   4.050   1.690 -0.3571  0.2178  0.2186
 1802TIP3    H127041   4.954   4.053   1.604  0.5731  0.4087  0.6557
 1802TIP3    H227042   4.882   4.139   1.706  3.3001  1.3998  1.8471
 1803TIP3   OH227043   4.556   6.182   8.539  0.4797 -0.2114 -0.1865
 1803TIP3    H127044   4.475   6.148   8.501  1.1336 -3.3838  0.9731
 1803TIP3    H227045   4.536   6.274   8.559 -1.2065  0.4992 -4.2052
 1804TIP3   OH227046   2.157   0.108   1.071  0.0208  0.5013  0.6685
 1804TIP3    H127047   2.243   0.115   1.031 -0.2804 -1.0676 -0.3360
 1804TIP3    H227048   2.146   0.015   1.090 -1.9858  0.4261 -0.5602
 1805TIP3   OH227049   4.270   2.174   0.515 -0.4623 -0.5624  0.6869
 1805TIP3    H127050   4.275   2.266   0.491 -1.4196  0.5365  4.0702
 1805TIP3    H227051   4.359   2.152   0.542  0.2122 -1.2966 -1.8761
 1806TIP3   OH227052   4.844   5.288   7.684 -0.2599  0.4615  0.1336
 1806TIP3    H127053   4.898   5.292   7.763 -2.3828  1.6270  1.6245
 1806TIP3    H227054   4.783   5.216   7.702 -1.1273  1.1086 -0.1606
 1807TIP3   OH227055   3.772   3.278   0.551 -0.4532  0.1835 -0.3649
 1807TIP3    H127056   3.768   3.363   0.507  0.7766  0.2484 -0.3720
 1807TIP3    H227057   3.844   3.232   0.508 -1.0390 -0.8296 -0.2909
 1808TIP3   OH227058   2.293   0.102   1.601  0.3485 -0.1265 -0.3562
 1808TIP3    H127059   2.200   0.122   1.616  0.6573  1.4027 -0.3312
 1808TIP3    H227060   2.331   0.098   1.689  0.4819  0.1744 -0.3995
 1809TIP3   OH227061   2.035   1.016   1.411  0.5405  0.2983  0.1081
 1809TIP3    H127062   1.964   1.075   1.439  0.7936  0.5348  0.2603
 1809TIP3    H227063   2.079   1.064   1.341 -0.4654 -0.5466 -1.1441
 1810TIP3   OH227064   3.114   1.344   7.698 -0.4486  1.0570  0.3584
 1810TIP3    H127065   3.082   1.263   7.658 -0.4565  1.0719  0.3347
 1810TIP3    H227066   3.178   1.378   7.636 -1.0009  1.4705  0.0006
 1811TIP3   OH227067   5.841   4.474   1.619 -0.0366 -0.0085 -0.0083
 1811TIP3    H127068   5.918   4.532   1.618  0.0952 -0.1792  0.1371
 1811TIP3    H227069   5.767   4.534   1.630  0.0699  0.1637 -0.2264
 1812TIP3   OH227070   1.393   2.111   1.720 -0.5619  0.5033 -0.0416
 1812TIP3    H127071   1.303   2.090   1.744  0.1020 -1.2968  1.1343
 1812TIP3    H227072   1.410   2.196   1.761 -1.2977  0.2044  0.9097
 1813TIP3   OH227073   4.866   3.337   8.032  0.0718  0.2551  0.3728
 1813TIP3    H127074   4.795   3.278   8.059 -1.0080  1.7014  0.8234
 1813TIP3    H227075   4.833   3.380   7.953  0.6889  0.5191  0.2541
 1814TIP3   OH227076   1.757   5.179   1.106 -0.2154  0.1053  0.3611
 1814TIP3    H127077   1.720   5.225   1.031  0.6516 -0.1224 -0.2250
 1814TIP3    H227078   1.849   5.163   1.081 -0.3541 -1.4771  0.7597
 1815TIP3   OH227079   4.380   3.719   2.060  0.2311  0.3580  0.3467
 1815TIP3    H127080   4.318   3.749   1.994  1.1351  0.3394 -0.5339
 1815TIP3    H227081   4.333   3.653   2.110 -0.3672  0.1515 -0.4800
 1816TIP3   OH227082   4.057   1.487   8.175 -0.0731 -0.3897 -0.0778
 1816TIP3    H127083   4.031   1.469   8.265 -1.8147  0.9122 -0.2588
 1816TIP3    H227084   4.103   1.408   8.147  1.4422 -0.4368  2.2475
 1817TIP3   OH227085   3.448   4.774   7.181  0.9997 -0.2218 -0.3157
 1817TIP3    H127086   3.520   4.814   7.134  1.2993 -0.2618  0.1105
 1817TIP3    H227087   3.375   4.776   7.119  1.3053  0.0105 -0.6688
 1818TIP3   OH227088   1.745   4.217   1.520 -0.0627  0.3730 -0.5733
 1818TIP3    H127089   1.720   4.202   1.611  0.5735  2.5933  0.0376
 1818TIP3    H227090   1.829   4.174   1.511 -0.2444 -0.0713 -0.1934
 1819TIP3   OH227091   1.225   2.670   2.577 -0.1370 -0.3333  0.6675
 1819TIP3    H127092   1.180   2.750   2.552 -0.5470 -1.0887 -1.1817
 1819TIP3    H227093   1.174   2.636   2.651  0.1220  1.1448  1.5556
 1820TIP3   OH227094   4.891   0.132   0.815  0.2134 -0.1095  0.3748
 1820TIP3    H127095   4.876   0.051   0.766  0.2219  0.2358 -0.2162
 1820TIP3    H227096   4.928   0.104   0.898  2.5581 -0.6053 -0.7504
 1821TIP3   OH227097   4.181   0.353   2.405 -0.3084 -0.5167  0.3977
 1821TIP3    H127098   4.217   0.396   2.482  1.0564  1.8485 -1.4150
 1821TIP3    H227099   4.257   0.335   2.349 -1.4310  0.3857 -1.5390
 1822TIP3   OH227100   2.651   6.325   0.679  0.4870  1.1010  0.4940
 1822TIP3    H127101   2.686   6.238   0.660 -0.1946  0.7285  0.9263
 1822TIP3    H227102   2.556   6.315   0.672  0.4469  2.1838 -1.0608
 1823TIP3   OH227103   3.186   4.130   0.015 -0.1257 -0.4165  0.3266
 1823TIP3    H127104   3.107   4.181   0.032  1.1352  1.0730  2.0893
 1823TIP3    H227105   3.157   4.060  -0.044 -2.5577  0.5520  0.2587
 1824TIP3   OH227106   5.260   2.139   0.170 -0.8167 -0.2397  0.5971
 1824TIP3    H127107   5.219   2.213   0.125  0.4135  0.8228  1.1770
 1824TIP3    H227108   5.293   2.175   0.252  3.6806 -0.2584 -0.9387
 1825TIP3   OH227109   3.233   2.638   0.988  0.7542  0.1094  0.0585
 1825TIP3    H127110   3.151   2.672   1.024  0.1774  0.5845 -1.6396
 1825TIP3    H227111   3.217   2.544   0.978  0.6119  0.1143  0.2186
 1826TIP3   OH227112   2.349   6.016   7.870 -0.1605  0.0349  0.0768
 1826TIP3    H127113   2.341   5.956   7.945  1.3278 -1.3930 -0.8418
 1826TIP3    H227114   2.444   6.025   7.857 -0.3493  2.2779 -0.1150
 1827TIP3   OH227115   4.145   5.035   0.111  0.5786 -0.4813  0.0114
 1827TIP3    H127116   4.189   5.103   0.162  0.5068 -0.2605 -0.2205
 1827TIP3    H227117   4.068   5.011   0.162 -0.3029  0.7821 -0.6794
 1828TIP3   OH227118   2.633   4.421   0.487 -0.1082 -1.0487 -0.1870
 1828TIP3    H127119   2.625   4.515   0.470  1.9989  0.0314  3.8028
 1828TIP3    H227120   2.545   4.394   0.515 -0.2588  0.2594  0.6640
 1829TIP3   OH227121   5.617   5.803   1.498 -0.3630  0.0915  0.0362
 1829TIP3    H127122   5.544   5.865   1.500  1.4778  2.5054 -1.7243
 1829TIP3    H227123   5.685   5.844   1.551  0.5130 -1.0258 -0.1889
 1830TIP3   OH227124   4.143   1.540   7.707 -0.7137 -0.1948  0.4558
 1830TIP3    H127125   4.093   1.526   7.787 -1.5446 -1.9024 -0.2941
 1830TIP3    H227126   4.078   1.572   7.644 -0.2695  0.2615  0.2288
 1831TIP3   OH227127   5.202   5.912   0.315 -0.1256  0.5936 -0.1967
 1831TIP3    H127128   5.199   5.989   0.371  0.6611 -0.0638  0.7851
 1831TIP3    H227129   5.144   5.848   0.358 -1.4936  0.9068 -1.4778
 1832TIP3   OH227130   1.090   4.817   0.457  0.5580 -0.3933 -0.0649
 1832TIP3    H127131   1.091   4.803   0.552 -0.4278 -0.5743 -0.0745
 1832TIP3    H227132   1.168   4.870   0.440  0.1045  0.6656  1.0007
 1833TIP3   OH227133   1.314   5.176   1.660 -0.4962 -0.0880  0.0118
 1833TIP3    H127134   1.338   5.267   1.640  2.7171 -0.6740  0.6988
 1833TIP3    H227135   1.266   5.182   1.743 -0.1672  0.9772  0.1423
 1834TIP3   OH227136   2.920   2.763   1.521 -0.1513  0.2042  0.2660
 1834TIP3    H127137   2.842   2.816   1.502  0.0358 -0.3618 -2.5038
 1834TIP3    H227138   2.886   2.686   1.568 -1.4253 -0.3647 -1.4884
 1835TIP3   OH227139   3.053   2.708   7.807  0.3222 -0.1154 -0.0459
 1835TIP3    H127140   2.998   2.646   7.760  0.5747  0.1364 -0.6905
 1835TIP3    H227141   3.088   2.765   7.739  0.5599  0.3679  0.4712
 1836TIP3   OH227142   0.695   1.617   8.154  0.7395  0.7851  1.1363
 1836TIP3    H127143   0.608   1.653   8.172  0.5072  1.6549 -1.3641
 1836TIP3    H227144   0.754   1.692   8.161  0.4094  1.6236 -2.9427
 1837TIP3   OH227145   6.598   6.516   8.306 -0.1270  0.3942  0.1610
 1837TIP3    H127146   6.530   6.451   8.324  0.7343 -1.0602 -1.4228
 1837TIP3    H227147   6.644   6.527   8.389 -0.8336 -0.3792  0.6682
 1838TIP3   OH227148   5.782   4.213   8.008  0.2106 -0.4861 -0.9566
 1838TIP3    H127149   5.866   4.236   8.048  0.0462 -1.5590  0.0982
 1838TIP3    H227150   5.726   4.287   8.026  0.6976 -0.1199 -0.9199
 1839TIP3   OH227151   0.609   3.246   2.882  0.1071 -0.4797 -1.0291
 1839TIP3    H127152   0.687   3.191   2.884 -0.3196 -1.0792  0.1585
 1839TIP3    H227153   0.640   3.332   2.854  1.9846  0.4155  3.1116
 1840TIP3   OH227154   0.037   1.674   3.372 -0.6020 -0.2385 -0.2054
 1840TIP3    H127155   0.037   1.647   3.464 -2.1045 -1.0288 -0.4141
 1840TIP3    H227156  -0.019   1.751   3.370  1.3305  1.2529 -0.1057
 1841TIP3   OH227157   4.937   1.254   0.266 -0.2243 -0.5150  0.1961
 1841TIP3    H127158   5.025   1.247   0.230  0.4213  1.7350  1.1635
 1841TIP3    H227159   4.884   1.196   0.211  1.6111 -0.9565 -1.2065
 1842TIP3   OH227160   0.879   0.229   0.026  0.0333  0.3580 -0.0502
 1842TIP3    H127161   0.799   0.237  -0.026  0.9336  1.2917 -1.3623
 1842TIP3    H227162   0.849   0.204   0.114 -1.8051  2.0125 -0.1445
 1843TIP3   OH227163   4.041   0.925   0.825  0.1198  0.2333  0.4058
 1843TIP3    H127164   4.078   0.845   0.863 -0.7122 -0.6474 -0.5785
 1843TIP3    H227165   4.034   0.906   0.732 -1.1246  1.0430  0.3177
 1844TIP3   OH227166   6.612   2.621   0.663 -0.5235  0.4564 -0.0347
 1844TIP3    H127167   6.624   2.526   0.667  1.8961  0.7458  2.3065
 1844TIP3    H227168   6.535   2.638   0.717 -0.2454 -0.1079  0.5548
 1845TIP3   OH227169   5.093   4.009   8.374 -0.1128 -0.0111  0.1647
 1845TIP3    H127170   5.182   3.979   8.356 -0.7808 -1.2582 -1.2683
 1845TIP3    H227171   5.080   3.990   8.467  1.0400 -0.0011  0.3465
 1846TIP3   OH227172   1.216   1.766   1.745  0.0724 -0.5714  0.6586
 1846TIP3    H127173   1.161   1.736   1.673  0.1975 -1.4370  0.9041
 1846TIP3    H227174   1.272   1.691   1.765  3.2679  1.0816 -1.3211
 1847TIP3   OH227175   4.391   0.116   0.280 -0.4653  0.1287  0.1965
 1847TIP3    H127176   4.397   0.023   0.302 -0.9828  0.1246  0.3554
 1847TIP3    H227177   4.414   0.121   0.188 -1.3788 -0.2987 -0.0739
 1848TIP3   OH227178   0.767   5.922   0.144 -0.1215 -0.0752  0.4212
 1848TIP3    H127179   0.784   5.995   0.204 -0.1311  0.0978  0.2168
 1848TIP3    H227180   0.740   5.965   0.062 -0.6933 -0.3218  0.4778
 1849TIP3   OH227181   2.028   2.744   7.973 -0.2930 -0.0962 -0.8267
 1849TIP3    H127182   2.072   2.756   7.889  1.1530  0.5864  0.0018
 1849TIP3    H227183   2.077   2.799   8.034 -0.2030 -1.9613  0.8523
 1850TIP3   OH227184   6.864   2.033   1.025 -0.6937  0.5839 -0.3270
 1850TIP3    H127185   6.896   1.946   1.001  0.1195  0.8326 -0.1703
 1850TIP3    H227186   6.867   2.035   1.120  0.9258  1.3674 -0.3638
 1851TIP3   OH227187   1.455   5.445   7.674  0.1825 -0.3115 -0.1576
 1851TIP3    H127188   1.428   5.528   7.634  1.1128 -0.6738 -1.5768
 1851TIP3    H227189   1.534   5.467   7.722  0.3818 -0.3609 -0.4638
 1852TIP3   OH227190   1.041   5.962   2.144 -0.2780 -0.0623  0.6556
 1852TIP3    H127191   0.998   5.929   2.065  1.7604 -1.6446  0.1037
 1852TIP3    H227192   1.046   6.057   2.131  0.9714 -0.3681 -1.6942
 1853TIP3   OH227193   2.274   0.615   7.520  0.2015 -0.3011  0.5336
 1853TIP3    H127194   2.317   0.678   7.578  0.1179 -0.2211  0.5083
 1853TIP3    H227195   2.335   0.603   7.448  0.1587 -0.1484  0.4720
 1854TIP3   OH227196   0.922   4.957   3.166 -0.3030 -0.0583 -0.0782
 1854TIP3    H127197   0.932   4.867   3.197  2.1226 -0.3681 -1.4914
 1854TIP3    H227198   0.981   5.008   3.222 -1.9878  0.8156  1.0082
 1855TIP3   OH227199   6.127   1.121   2.602 -0.2440  0.0367  0.4117
 1855TIP3    H127200   6.134   1.200   2.548  1.2893 -0.3226  0.0208
 1855TIP3    H227201   6.192   1.061   2.565  0.9158 -0.2160  2.6869
 1856TIP3   OH227202   2.180   2.999   8.551 -0.4821 -0.1672  0.0344
 1856TIP3    H127203   2.237   2.968   8.481 -1.0367 -2.1540  0.3936
 1856TIP3    H227204   2.173   2.925   8.611 -2.1166  0.5844  0.8466
 1857TIP3   OH227205   2.930   0.665   2.408  0.0427  0.1592 -0.9218
 1857TIP3    H127206   2.920   0.584   2.457  0.2720  0.9819  0.5564
 1857TIP3    H227207   3.023   0.670   2.388  0.0676  0.1581 -0.8090
 1858TIP3   OH227208   0.464   1.815   8.172 -0.4186  0.0245  0.1942
 1858TIP3    H127209   0.374   1.796   8.198 -1.2531  2.1356 -0.9179
 1858TIP3    H227210   0.463   1.811   8.076  0.6842  0.0689  0.1697
 1859TIP3   OH227211   3.736   2.136   0.712 -0.1677  0.0293 -0.4239
 1859TIP3    H127212   3.711   2.221   0.674  0.7103  0.3315 -0.3329
 1859TIP3    H227213   3.797   2.158   0.782 -0.0449 -0.6778 -0.3034
 1860TIP3   OH227214   3.243   1.269   2.279  0.7704  0.8004 -0.1909
 1860TIP3    H127215   3.309   1.288   2.213 -0.1379  2.1411 -0.7476
 1860TIP3    H227216   3.247   1.342   2.340  0.0784  0.6990 -0.0083
 1861TIP3   OH227217   5.738   5.320   8.532 -0.2437  0.3433 -0.5310
 1861TIP3    H127218   5.820   5.272   8.548 -1.3851 -0.9002  2.3263
 1861TIP3    H227219   5.752   5.404   8.576  0.2681  1.0744 -2.0257
 1862TIP3   OH227220   2.189   6.725   3.201 -0.8439  0.4603  0.5217
 1862TIP3    H127221   2.262   6.671   3.231 -2.5388 -2.5547 -0.4170
 1862TIP3    H227222   2.190   6.800   3.261  2.5071  0.2091  1.0049
 1863TIP3   OH227223   6.557   4.764   0.745  0.0795 -1.1411 -0.0003
 1863TIP3    H127224   6.499   4.828   0.705 -0.3707 -0.9227  0.9807
 1863TIP3    H227225   6.607   4.814   0.810  2.1608 -1.0791 -1.5260
 1864TIP3   OH227226   3.919   5.573   7.309  0.5373 -0.0708 -0.1995
 1864TIP3    H127227   3.915   5.484   7.275  1.3277  0.3658 -1.5145
 1864TIP3    H227228   3.858   5.622   7.254  0.4665  0.3092  0.2072
 1865TIP3   OH227229   0.958   0.356   7.453  1.1072  0.4816  0.2144
 1865TIP3    H127230   0.898   0.431   7.455  0.1552 -0.1720 -1.4557
 1865TIP3    H227231   1.040   0.391   7.420  0.1250  0.5308 -2.3984
 1866TIP3   OH227232   2.178   0.889   3.522 -0.8169  0.1470  0.2824
 1866TIP3    H127233   2.173   0.796   3.543 -0.5198 -0.0216 -0.3517
 1866TIP3    H227234   2.171   0.892   3.427  0.7144  0.6283  0.1483
 1867TIP3   OH227235   3.426   0.007   0.026  0.3096 -0.0445  0.5561
 1867TIP3    H127236   3.521   0.003   0.037  0.5585 -2.4096 -1.5780
 1867TIP3    H227237   3.395   0.055   0.103  3.1507  0.2510  1.6315
 1868TIP3   OH227238   3.256   3.405   2.328  0.1854  0.4831  0.4051
 1868TIP3    H127239   3.176   3.452   2.304  0.5790  0.6639 -0.5847
 1868TIP3    H227240   3.247   3.319   2.287  0.7860  0.7340 -0.2703
 1869TIP3   OH227241   5.697   1.194   8.577  0.0737 -0.0802 -0.1068
 1869TIP3    H127242   5.766   1.257   8.558 -0.3882  0.7102  0.7766
 1869TIP3    H227243   5.732   1.111   8.544  1.3189  0.3502  0.0473
 1870TIP3   OH227244   5.792   5.546   8.682 -0.1311  0.3336 -0.1326
 1870TIP3    H127245   5.725   5.603   8.645 -0.0775 -0.8825 -2.2591
 1870TIP3    H227246   5.861   5.606   8.712 -1.1808  1.4754  0.0708
 1871TIP3   OH227247   1.261   3.806   0.218  0.0535  0.1769  0.1514
 1871TIP3    H127248   1.253   3.753   0.139 -0.0197  1.2051 -0.5569
 1871TIP3    H227249   1.191   3.774   0.275 -0.6037  0.1461 -0.6483
 1872TIP3   OH227250   0.885   0.324   8.086 -0.2726 -0.2542  0.0536
 1872TIP3    H127251   0.869   0.403   8.137 -0.4694 -0.0130 -0.3755
 1872TIP3    H227252   0.826   0.259   8.123 -3.1818  0.8791 -2.1508
 1873TIP3   OH227253   0.138   5.586   7.964  0.1054 -0.1848  0.3973
 1873TIP3    H127254   0.054   5.618   7.997 -0.6543 -0.4335 -1.1736
 1873TIP3    H227255   0.193   5.663   7.958 -0.4075  0.1828  0.3554
 1874TIP3   OH227256   5.229   0.188   1.614  0.0581  0.1832 -0.1086
 1874TIP3    H127257   5.197   0.269   1.653  0.6052  1.3331 -1.9281
 1874TIP3    H227258   5.263   0.137   1.688  0.0008  1.7373  1.0258
 1875TIP3   OH227259   2.009   2.729   7.586  0.4277 -0.4380  0.8019
 1875TIP3    H127260   1.991   2.638   7.609 -0.9353 -0.1896  0.8212
 1875TIP3    H227261   2.082   2.754   7.642  0.3434 -1.3020  1.3169
 1876TIP3   OH227262   4.144   0.709   0.988  0.2016 -0.4344  0.3105
 1876TIP3    H127263   4.194   0.641   1.032  0.8287 -0.1411  0.0555
 1876TIP3    H227264   4.069   0.663   0.951 -0.6320 -0.6285  2.0890
 1877TIP3   OH227265   0.209   6.467   0.149 -0.6326 -0.4146 -0.5594
 1877TIP3    H127266   0.205   6.552   0.193 -0.7815 -1.1207  0.8417
 1877TIP3    H227267   0.198   6.403   0.219  1.9969 -1.6906 -1.1980
 1878TIP3   OH227268   2.199   1.288   1.370 -0.2408 -0.5102 -0.6019
 1878TIP3    H127269   2.190   1.256   1.280  0.7292  0.5486 -1.1020
 1878TIP3    H227270   2.210   1.383   1.361  4.6818 -0.7585  0.1718
 1879TIP3   OH227271   5.917   0.484   0.924  0.2417  0.4697 -0.0192
 1879TIP3    H127272   6.006   0.516   0.909  0.3274  0.0440 -0.4524
 1879TIP3    H227273   5.917   0.396   0.887 -0.7642  0.9962 -1.3499
 1880TIP3   OH227274   2.509   2.990   3.428  0.4620  0.1799 -0.5582
 1880TIP3    H127275   2.475   2.901   3.434  1.2242 -0.0721  0.0913
 1880TIP3    H227276   2.564   2.990   3.349 -0.8201  0.5385 -1.5037
 1881TIP3   OH227277   6.398   5.790   2.024  0.0292  0.4652  0.3953
 1881TIP3    H127278   6.443   5.825   2.101 -3.1160 -1.2473  3.2682
 1881TIP3    H227279   6.439   5.705   2.008  0.3544  0.5947  0.5498
 1882TIP3   OH227280   3.356   1.364   2.759 -0.6704 -0.1605  0.2226
 1882TIP3    H127281   3.319   1.435   2.706  0.7821 -0.6972 -1.6099
 1882TIP3    H227282   3.447   1.389   2.773  0.9362 -2.9670 -3.3244
 1883TIP3   OH227283   4.817   6.265   1.923 -0.2909  0.1091  0.2296
 1883TIP3    H127284   4.739   6.255   1.869 -0.0252  1.1407 -0.3638
 1883TIP3    H227285   4.794   6.334   1.985  1.2765  3.0467 -2.1996
 1884TIP3   OH227286   0.076   1.398   2.550  0.1029 -0.3618 -0.0157
 1884TIP3    H127287   0.102   1.465   2.487 -2.2983  0.4674 -0.2106
 1884TIP3    H227288   0.141   1.329   2.539  0.2994  0.1432 -2.7758
 1885TIP3   OH227289   5.404   4.960   1.772  0.3953  0.3552  0.0965
 1885TIP3    H127290   5.376   4.882   1.820 -0.2435  0.8380  0.5178
 1885TIP3    H227291   5.343   4.965   1.698  2.0469 -1.0242 -1.4817
 1886TIP3   OH227292   1.747   2.542   2.679 -0.2779  0.0279 -0.6051
 1886TIP3    H127293   1.748   2.545   2.774  1.9918  0.5908 -0.5768
 1886TIP3    H227294   1.737   2.449   2.658 -0.5929 -0.1186  0.1915
 1887TIP3   OH227295   4.658   1.224   2.248 -0.1047  0.1383  0.0972
 1887TIP3    H127296   4.694   1.299   2.295  0.5127 -0.6752  0.9790
 1887TIP3    H227297   4.566   1.246   2.235 -0.1821  0.6030  1.2901
 1888TIP3   OH227298   4.601   6.269   3.366  0.1859  0.4508  0.6467
 1888TIP3    H127299   4.561   6.341   3.317 -2.5589  0.0699  2.1440
 1888TIP3    H227300   4.560   6.190   3.332  1.9313 -0.3247  0.1985
 1889TIP3   OH227301   5.472   5.301   2.014 -0.0756  1.3547 -0.3948
 1889TIP3    H127302   5.540   5.368   2.005  1.4323 -0.0469  0.0690
 1889TIP3    H227303   5.453   5.299   2.108  0.2163  0.8321 -0.3438
 1890TIP3   OH227304   2.153   0.483   7.947 -0.2644 -0.4808 -0.8232
 1890TIP3    H127305   2.205   0.421   7.999 -1.9277 -0.4523  1.0025
 1890TIP3    H227306   2.154   0.563   7.999  1.2080  0.8337 -2.7766
 1891TIP3   OH227307   6.195   2.619   0.458  0.8999  0.2924 -0.3576
 1891TIP3    H127308   6.203   2.678   0.533  0.1347 -0.6734  0.5336
 1891TIP3    H227309   6.282   2.617   0.419  1.1798  1.2325  0.1954
 1892TIP3   OH227310   0.236   0.924   0.540  0.2657 -0.5438  1.0129
 1892TIP3    H127311   0.203   0.912   0.451  0.4370  1.0542  0.6989
 1892TIP3    H227312   0.316   0.871   0.543 -0.0576 -1.0745  0.4104
 1893TIP3   OH227313   6.347   0.564   0.506  0.1785  0.7204 -0.5217
 1893TIP3    H127314   6.321   0.542   0.417  0.1949  0.4373 -0.4575
 1893TIP3    H227315   6.276   0.619   0.539  0.6421  1.6632 -1.0457
 1894TIP3   OH227316   3.131   3.423   2.794 -0.8062  0.0868 -0.3393
 1894TIP3    H127317   3.109   3.430   2.701  0.7611  0.5008 -0.7108
 1894TIP3    H227318   3.051   3.448   2.839 -0.9820  2.0624 -1.6070
 1895TIP3   OH227319   1.994   3.063   0.218 -0.3020 -0.2310 -0.2464
 1895TIP3    H127320   1.957   3.107   0.294 -2.2930  0.3926 -1.4933
 1895TIP3    H227321   1.955   2.975   0.219  1.3955 -1.0284  0.6194
 1896TIP3   OH227322   5.945   1.294   0.755 -0.4214  0.0265 -0.9266
 1896TIP3    H127323   5.937   1.285   0.850 -2.3600  3.1361 -0.6512
 1896TIP3    H227324   5.869   1.247   0.720 -1.7169  1.7733 -0.6057
 1897TIP3   OH227325   2.248   1.756   7.920  0.3352 -0.2974 -0.2688
 1897TIP3    H127326   2.210   1.740   7.833  2.0533  2.3348 -1.6412
 1897TIP3    H227327   2.297   1.676   7.939  0.0386 -0.8825 -1.7953
 1898TIP3   OH227328   4.679   0.152   8.084 -0.3015  0.8537 -0.2410
 1898TIP3    H127329   4.687   0.246   8.101  0.5760  0.7103  0.1836
 1898TIP3    H227330   4.585   0.134   8.091 -0.2402  1.1477  2.7632
 1899TIP3   OH227331   5.391   2.876   7.285  0.0028  0.3863 -0.2539
 1899TIP3    H127332   5.297   2.885   7.266  0.2384 -1.1651 -2.6011
 1899TIP3    H227333   5.404   2.924   7.367 -2.1551  3.8224 -1.7023
 1900TIP3   OH227334   1.998   6.562   2.734 -0.2874 -0.0648  0.1289
 1900TIP3    H127335   2.090   6.554   2.758 -0.1621  2.1148  0.6746
 1900TIP3    H227336   1.999   6.595   2.644 -0.5488 -0.6340 -0.0832
 1901TIP3   OH227337   2.624   1.270   2.614  0.1557 -0.2837 -0.3278
 1901TIP3    H127338   2.673   1.235   2.688  2.2470 -0.5542 -1.7494
 1901TIP3    H227339   2.628   1.365   2.625 -3.1959 -0.2588  2.0730
 1902TIP3   OH227340   2.094   2.987   2.484  0.7490 -0.2365 -0.5825
 1902TIP3    H127341   2.169   2.932   2.460  1.0522  0.4518 -1.2552
 1902TIP3    H227342   2.019   2.942   2.446  0.8916 -0.6378 -0.3909
 1903TIP3   OH227343   1.973   0.676   2.037  0.5444 -0.2208  0.1179
 1903TIP3    H127344   2.024   0.595   2.037 -0.3339 -0.7833  0.6099
 1903TIP3    H227345   2.033   0.741   2.074  1.4319 -0.5226 -0.7527
 1904TIP3   OH227346   0.026   5.741   7.443  0.1586  0.2536 -0.6979
 1904TIP3    H127347   0.101   5.713   7.495 -0.1916 -0.6601 -0.6623
 1904TIP3    H227348   0.035   5.836   7.437  1.3852  0.1515 -0.8075
 1905TIP3   OH227349   6.494   0.266   2.353  0.9617  0.4805  0.0417
 1905TIP3    H127350   6.409   0.242   2.390  1.3038  0.4387  0.8044
 1905TIP3    H227351   6.477   0.274   2.259  0.4598 -1.0622 -0.0212
 1906TIP3   OH227352   4.499   5.858   8.579  0.3288  0.2562 -0.1734
 1906TIP3    H127353   4.438   5.869   8.651  2.0542 -0.4454  1.4843
 1906TIP3    H227354   4.445   5.867   8.500 -1.8862 -0.3286  1.1819
 1907TIP3   OH227355   5.281   5.840   1.206  0.0737 -0.1475  0.3898
 1907TIP3    H127356   5.213   5.802   1.262 -0.7419 -3.2091 -2.3928
 1907TIP3    H227357   5.361   5.832   1.258 -0.9368 -1.0103  1.9056
 1908TIP3   OH227358   1.484   3.570   1.148 -0.4126 -0.0984 -0.3657
 1908TIP3    H127359   1.565   3.523   1.127 -0.2465 -0.8162  1.6353
 1908TIP3    H227360   1.512   3.659   1.169 -0.0624 -0.4598  0.7508
 1909TIP3   OH227361   2.791   0.064   8.498 -0.0427 -0.0968 -0.1570
 1909TIP3    H127362   2.878   0.035   8.468 -0.3754 -2.6824  1.1331
 1909TIP3    H227363   2.804   0.088   8.589 -0.3416  1.4092 -0.4878
 1910TIP3   OH227364   3.503   1.345   0.343 -0.1037  0.0832 -0.1625
 1910TIP3    H127365   3.553   1.266   0.322  1.1247  0.7441  0.1962
 1910TIP3    H227366   3.504   1.396   0.262 -0.7945 -0.1986 -0.3575
 1911TIP3   OH227367   3.531   1.030   1.718  0.3667  0.2005 -0.2587
 1911TIP3    H127368   3.590   0.991   1.653 -0.4718 -0.0143 -0.9141
 1911TIP3    H227369   3.488   0.955   1.760 -0.7183  0.3606 -1.0173
 1912TIP3   OH227370   2.347   2.076   0.119 -0.2857  0.6102  0.1773
 1912TIP3    H127371   2.386   1.999   0.078 -2.2215 -0.1541 -0.2997
 1912TIP3    H227372   2.421   2.135   0.132  0.9504 -0.5578 -1.1558
 1913TIP3   OH227373   1.627   2.995   2.276  0.3841 -0.2531  0.4418
 1913TIP3    H127374   1.604   3.040   2.357  0.8019 -0.4131  0.6551
 1913TIP3    H227375   1.595   3.052   2.206 -1.8979 -1.1297  0.7110
 1914TIP3   OH227376   4.593   1.639   1.879 -0.7801 -0.2118  0.3892
 1914TIP3    H127377   4.617   1.565   1.935  0.1020  0.1878  0.5579
 1914TIP3    H227378   4.521   1.682   1.926 -0.7242 -0.4724  0.7152
 1915TIP3   OH227379   6.767   6.642   1.471  0.0900 -0.3395 -0.4987
 1915TIP3    H127380   6.781   6.608   1.383 -0.1635  0.0628 -0.6938
 1915TIP3    H227381   6.703   6.712   1.461 -1.0884 -1.2842  0.2158
 1916TIP3   OH227382   1.050   5.609   8.697 -0.1998 -0.3942  0.3903
 1916TIP3    H127383   1.000   5.536   8.661 -2.8847  1.3111  0.3574
 1916TIP3    H227384   1.043   5.598   8.792 -1.9790  0.5588  0.4238
 1917TIP3   OH227385   6.423   1.420   0.762 -0.3143 -0.2774 -0.5173
 1917TIP3    H127386   6.454   1.451   0.677 -2.6075  0.7480 -1.0409
 1917TIP3    H227387   6.347   1.366   0.742 -0.8223 -0.1243  0.8664
 1918TIP3   OH227388   6.446   0.041   1.827 -0.0232 -0.0875  0.0434
 1918TIP3    H127389   6.376  -0.025   1.824  0.2558 -0.3707 -1.6382
 1918TIP3    H227390   6.526  -0.008   1.807  0.3144  0.6067 -0.3473
 1919TIP3   OH227391   0.683   2.345   0.291 -0.3679 -0.8065  0.5206
 1919TIP3    H127392   0.724   2.361   0.376  0.0112  2.4458 -0.1487
 1919TIP3    H227393   0.598   2.388   0.298  0.0195  0.2634 -0.9866
 1920TIP3   OH227394   6.474   5.425   0.456 -0.1018  0.2378 -0.0640
 1920TIP3    H127395   6.413   5.374   0.403  1.0437 -0.9856 -0.2275
 1920TIP3    H227396   6.552   5.434   0.402  0.6178  0.0426  0.9209
 1921TIP3   OH227397   6.321   6.476   7.292  0.5507 -0.4223 -1.0584
 1921TIP3    H127398   6.261   6.448   7.223  1.6077 -2.4790 -1.1967
 1921TIP3    H227399   6.338   6.397   7.343  0.3700  0.8857  1.1600
 1922TIP3   OH227400   1.957   1.747   1.302  0.1915  0.0963  0.2050
 1922TIP3    H127401   1.961   1.803   1.225  1.1276  1.2256  1.0368
 1922TIP3    H227402   2.047   1.718   1.315 -0.1284 -0.8848  0.3212
 1923TIP3   OH227403   4.863   1.392   1.741  0.5094 -0.2197  0.3350
 1923TIP3    H127404   4.839   1.446   1.666 -0.2290  0.1621  0.8320
 1923TIP3    H227405   4.855   1.450   1.816  0.4823 -0.8091  0.7984
 1924TIP3   OH227406   6.838   0.142   7.339  0.4557 -0.3190 -0.3661
 1924TIP3    H127407   6.918   0.153   7.391  0.7751  0.5351 -1.0150
 1924TIP3    H227408   6.867   0.093   7.261  0.2526 -0.4101 -0.3843
 1925TIP3   OH227409   4.429   6.352   2.784 -0.3568 -0.9889 -0.1428
 1925TIP3    H127410   4.519   6.328   2.806 -0.0015 -1.2475 -1.7687
 1925TIP3    H227411   4.393   6.387   2.866  1.9128  1.2234  0.0536
 1926TIP3   OH227412   5.385   5.415   7.594 -0.1678 -0.1545  0.7640
 1926TIP3    H127413   5.478   5.440   7.592 -0.1459 -0.0549  2.0468
 1926TIP3    H227414   5.385   5.324   7.566  0.1121  0.2972 -0.8406
 1927TIP3   OH227415   2.880   6.294   1.958  1.2152  0.2761 -0.3132
 1927TIP3    H127416   2.788   6.310   1.939  0.6717 -1.6859  0.4628
 1927TIP3    H227417   2.911   6.376   1.997 -0.7629  0.3060  1.3703
 1928TIP3   OH227418   1.393   4.467   1.512  0.1096  0.1084 -0.0388
 1928TIP3    H127419   1.402   4.473   1.417 -1.7490 -2.1846 -0.4729
 1928TIP3    H227420   1.478   4.437   1.543  0.0826 -1.4274 -1.3233
 1929TIP3   OH227421   3.636   1.349   2.230 -0.3219 -0.8731 -0.4759
 1929TIP3    H127422   3.565   1.343   2.166  0.0122  0.8920 -1.0572
 1929TIP3    H227423   3.616   1.428   2.280  0.6171 -1.0171  0.1483
 1930TIP3   OH227424   3.666   6.501   3.240 -0.2733 -0.2009 -0.3161
 1930TIP3    H127425   3.645   6.576   3.185 -2.7499  0.0183  0.7952
 1930TIP3    H227426   3.733   6.533   3.300 -0.7161  0.8818 -0.3790
 1931TIP3   OH227427   4.257   2.983   0.624  0.4792  0.0823  0.1759
 1931TIP3    H127428   4.286   2.919   0.690  0.1170 -0.6050 -0.3116
 1931TIP3    H227429   4.290   2.949   0.541 -0.0158  0.3449 -0.1346
 1932TIP3   OH227430   4.640   3.755   1.076 -0.5979  0.6504  0.0802
 1932TIP3    H127431   4.624   3.844   1.106 -0.4745  0.6776  0.0686
 1932TIP3    H227432   4.670   3.765   0.986  0.2761  0.6691  0.3572
 1933TIP3   OH227433   4.149   4.935   7.580  0.2312  0.0185  1.0345
 1933TIP3    H127434   4.114   4.949   7.668 -0.7884  1.6765  0.4117
 1933TIP3    H227435   4.132   4.842   7.561 -0.2023 -0.1679  2.2938
 1934TIP3   OH227436   0.629   2.933   7.955 -0.4422  0.1122 -0.6507
 1934TIP3    H127437   0.591   2.939   7.868  1.1303  0.5927 -1.3461
 1934TIP3    H227438   0.632   2.839   7.973 -0.2434 -0.0225 -1.3680
 1935TIP3   OH227439   3.902   4.588   8.282  0.3563  0.7998  0.6443
 1935TIP3    H127440   3.914   4.681   8.300  0.5478  1.2866 -1.6492
 1935TIP3    H227441   3.811   4.570   8.305 -0.0651  1.8979 -0.1031
 1936TIP3   OH227442   2.341   4.749   0.512 -0.4997 -0.0486 -0.1138
 1936TIP3    H127443   2.418   4.803   0.531 -0.9407  0.5716 -0.0732
 1936TIP3    H227444   2.347   4.676   0.574  0.0946 -0.0413 -0.1601
 1937TIP3   OH227445   0.882   5.636   2.164  0.6889  0.0740  0.5943
 1937TIP3    H127446   0.960   5.654   2.111  0.1394 -1.3359 -0.7929
 1937TIP3    H227447   0.861   5.545   2.144 -1.8478  0.6753  0.2187
 1938TIP3   OH227448   0.375   3.541   0.375 -0.0036 -0.1302  0.0827
 1938TIP3    H127449   0.427   3.523   0.297 -1.2752  3.0037 -1.6727
 1938TIP3    H227450   0.426   3.605   0.425 -0.8839  0.8132 -0.2014
 1939TIP3   OH227451   4.337   5.864   7.567 -0.3958  0.0706 -0.4306
 1939TIP3    H127452   4.359   5.944   7.519  1.0274 -0.4230 -0.6405
 1939TIP3    H227453   4.257   5.887   7.616  0.0606  1.6616 -0.3647
 1940TIP3   OH227454   5.410   6.866   8.675  0.1113  0.2016  0.4330
 1940TIP3    H127455   5.378   6.828   8.593  1.4161 -1.4353  0.6122
 1940TIP3    H227456   5.331   6.883   8.726 -0.6500 -0.1516 -0.5911
 1941TIP3   OH227457   6.420   3.859   6.909 -0.0949  0.1115  0.8630
 1941TIP3    H127458   6.400   3.769   6.885  1.3330 -1.3572  4.5102
 1941TIP3    H227459   6.354   3.882   6.975 -0.3421  1.7314  0.1087
 1942TIP3   OH227460   1.340   5.423   2.842  0.6359  0.2505  0.3259
 1942TIP3    H127461   1.305   5.357   2.902  1.3412 -0.6978 -0.2789
 1942TIP3    H227462   1.297   5.504   2.868 -1.1793 -0.6575  0.3091
 1943TIP3   OH227463   2.164   5.943   0.518 -0.5404  0.6692  0.1363
 1943TIP3    H127464   2.183   5.943   0.612  1.2063  0.1981 -0.1837
 1943TIP3    H227465   2.206   6.022   0.485  1.6113 -0.7191 -0.6933
 1944TIP3   OH227466   2.221   3.987   8.099 -0.0384  0.3858 -0.3161
 1944TIP3    H127467   2.183   3.965   8.014  0.7980 -2.1235 -0.1259
 1944TIP3    H227468   2.146   3.989   8.159 -0.3962 -0.1240 -0.7297
 1945TIP3   OH227469   5.540   3.008   2.258  0.8994 -0.5529  0.8311
 1945TIP3    H127470   5.569   2.918   2.271 -1.0704 -1.4642 -0.7154
 1945TIP3    H227471   5.445   3.004   2.254  0.7175  1.6770  1.1706
 1946TIP3   OH227472   5.890   2.558   2.347  0.1780  0.5878  0.6698
 1946TIP3    H127473   5.948   2.495   2.388  1.3508  0.9625 -0.3470
 1946TIP3    H227474   5.808   2.552   2.397  0.9745 -0.1800  1.9290
 1947TIP3   OH227475   4.962   1.369   1.282 -0.6125  0.3312 -0.7196
 1947TIP3    H127476   4.946   1.329   1.197 -0.1656  0.1496 -0.7221
 1947TIP3    H227477   4.936   1.302   1.346 -1.0704  0.5157 -0.7099
 1948TIP3   OH227478   4.291   6.701   0.241  0.0601  0.6289 -0.8840
 1948TIP3    H127479   4.252   6.662   0.319  1.5707 -0.2265 -0.5076
 1948TIP3    H227480   4.219   6.708   0.178 -0.6882 -0.9007 -0.2348
 1949TIP3   OH227481   5.868   4.219   0.849 -0.2505  0.0223 -0.0136
 1949TIP3    H127482   5.888   4.224   0.942  0.0436 -1.4225  0.0161
 1949TIP3    H227483   5.908   4.137   0.820 -2.4044 -0.7912 -0.8932
 1950TIP3   OH227484   5.779   1.033   7.860  0.0192 -0.0585  0.4081
 1950TIP3    H127485   5.732   0.979   7.797 -1.6051 -0.1101  1.5938
 1950TIP3    H227486   5.819   0.969   7.920 -0.5114  0.0223  0.8508
 1951TIP3   OH227487   3.880   0.456   1.555  0.4720  0.2294 -0.1287
 1951TIP3    H127488   3.969   0.481   1.531  1.5791 -1.0369  2.3409
 1951TIP3    H227489   3.868   0.490   1.644 -0.7088 -1.4227  0.3890
 1952TIP3   OH227490   5.603   2.596   0.322 -0.0141 -0.1176  0.0959
 1952TIP3    H127491   5.612   2.517   0.269 -1.1284 -0.9741  1.1065
 1952TIP3    H227492   5.674   2.653   0.294 -0.2910 -0.7028 -1.9748
 1953TIP3   OH227493   3.522   5.527   1.876 -0.1084  0.4152  0.0694
 1953TIP3    H127494   3.550   5.449   1.828 -0.1536 -0.0339  0.7715
 1953TIP3    H227495   3.604   5.571   1.899 -0.0005 -0.3449  1.1942
 1954TIP3   OH227496   6.880   2.325   3.074 -0.0683 -0.1665  0.9655
 1954TIP3    H127497   6.815   2.258   3.098 -0.5885  0.3366  0.9617
 1954TIP3    H227498   6.831   2.406   3.070  0.2245 -0.0327 -0.7009
 1955TIP3   OH227499   2.203   6.469   7.501 -1.0731 -0.0293 -0.4284
 1955TIP3    H127500   2.152   6.450   7.422 -0.0902  0.6589 -1.2405
 1955TIP3    H227501   2.291   6.437   7.481 -1.0057 -0.6154  0.7168
 1956TIP3   OH227502   2.143   4.309   1.743 -0.0076 -0.5671  0.2295
 1956TIP3    H127503   2.234   4.311   1.712 -0.3395  0.4774 -0.7249
 1956TIP3    H227504   2.124   4.399   1.767 -0.9307 -0.6887 -0.0139
 1957TIP3   OH227505   4.306   1.393   1.232  0.2592 -0.0940 -0.8155
 1957TIP3    H127506   4.265   1.339   1.300  2.1743  0.5066  0.9109
 1957TIP3    H227507   4.255   1.474   1.232 -0.6912 -0.6642 -1.2237
 1958TIP3   OH227508   5.694   5.056   1.322  0.0892  0.2786 -0.0162
 1958TIP3    H127509   5.654   5.054   1.235 -2.0283 -2.2966  0.8764
 1958TIP3    H227510   5.647   5.126   1.368 -1.6735 -0.9771  0.2012
 1959TIP3   OH227511   4.749   3.936   7.103  0.3540  0.0155 -0.3364
 1959TIP3    H127512   4.708   3.876   7.041 -1.3305 -0.8525  1.4787
 1959TIP3    H227513   4.807   3.990   7.050 -2.2207  0.4848 -2.9448
 1960TIP3   OH227514   4.164   5.017   7.874 -0.8623 -0.2244  0.4596
 1960TIP3    H127515   4.208   5.101   7.860 -3.6730  1.4562  1.0237
 1960TIP3    H227516   4.172   5.001   7.968 -1.5595  0.1760  0.5933
 1961TIP3   OH227517   2.955   4.266   0.114  0.5777  0.1276 -0.1589
 1961TIP3    H127518   2.918   4.339   0.064 -3.2440 -1.5792 -0.1648
 1961TIP3    H227519   2.952   4.295   0.205 -0.6313  0.1253 -0.1853
 1962TIP3   OH227520   4.699   3.020   1.053  0.0559 -0.2945 -0.0582
 1962TIP3    H127521   4.705   3.034   0.959 -1.0586  0.8583  0.0198
 1962TIP3    H227522   4.653   3.097   1.086 -1.0644 -1.4572  1.2101
 1963TIP3   OH227523   0.312   1.812   0.955  0.5850 -0.3901 -0.6353
 1963TIP3    H127524   0.263   1.731   0.972  1.5236 -0.9479 -0.4863
 1963TIP3    H227525   0.331   1.809   0.861 -0.0942  0.0713 -0.7858
 1964TIP3   OH227526   5.839   6.504   2.300  0.2104 -0.4258  0.6190
 1964TIP3    H127527   5.824   6.453   2.220  1.3369  0.7938 -0.4080
 1964TIP3    H227528   5.934   6.504   2.311  0.6592  4.0221 -1.2904
 1965TIP3   OH227529   0.707   6.267   8.291  0.0458  0.5136  0.7277
 1965TIP3    H127530   0.617   6.268   8.257  0.5160 -0.3396 -0.6260
 1965TIP3    H227531   0.705   6.327   8.365 -1.7082  0.2868  0.9078
 1966TIP3   OH227532   5.219   5.824   8.382  0.0812  0.0397 -0.2328
 1966TIP3    H127533   5.134   5.866   8.396  0.1444 -0.0715  0.4979
 1966TIP3    H227534   5.215   5.791   8.292 -0.6126  0.1123 -0.2304
 1967TIP3   OH227535   6.068   2.124   0.860 -0.5302 -0.3139  0.0797
 1967TIP3    H127536   6.093   2.035   0.885 -1.6639 -0.9641 -0.9732
 1967TIP3    H227537   6.000   2.149   0.923 -0.9592 -0.6102 -0.2639
 1968TIP3   OH227538   3.901   0.640   0.575  0.2008 -0.2794 -0.2067
 1968TIP3    H127539   3.974   0.702   0.571  0.5880 -0.6325  0.8219
 1968TIP3    H227540   3.853   0.666   0.654  0.9361 -1.8559  0.8219
 1969TIP3   OH227541   0.799   5.241   7.875 -0.7162 -0.1330  0.1711
 1969TIP3    H127542   0.737   5.217   7.805  0.6611 -1.2699 -0.7141
 1969TIP3    H227543   0.816   5.160   7.921  0.5195  0.0338  0.0476
 1970TIP3   OH227544   3.833   4.612   7.826 -0.0772  0.5035  0.6887
 1970TIP3    H127545   3.863   4.702   7.812 -1.3645  0.6409 -1.6681
 1970TIP3    H227546   3.894   4.558   7.775 -0.1821  0.1613  0.9157
 1971TIP3   OH227547   1.026   5.569   7.216  0.1368  0.3033  0.3569
 1971TIP3    H127548   1.098   5.508   7.204 -0.2260 -0.1672  0.5060
 1971TIP3    H227549   1.065   5.645   7.259  0.2946 -0.4949  1.6598
 1972TIP3   OH227550   1.282   4.732   1.260  0.5966  0.1703  0.3075
 1972TIP3    H127551   1.233   4.729   1.342  0.7832  0.0340  0.4170
 1972TIP3    H227552   1.348   4.663   1.270 -0.4401 -0.9870 -0.6374
 1973TIP3   OH227553   6.159   6.538   2.874  0.2083  0.8554 -0.5372
 1973TIP3    H127554   6.124   6.472   2.814 -0.6115  0.3029  0.5026
 1973TIP3    H227555   6.249   6.511   2.890 -0.5298 -0.9564  1.0324
 1974TIP3   OH227556   0.391   5.076   2.881  0.6453  0.0092 -0.0651
 1974TIP3    H127557   0.310   5.088   2.930  0.7161 -0.2990  0.1309
 1974TIP3    H227558   0.404   4.982   2.879 -1.0879 -0.2866 -3.5393
 1975TIP3   OH227559   4.955   5.624   2.963 -0.0615  0.2142 -1.0891
 1975TIP3    H127560   4.903   5.550   2.993  0.3879  0.2870 -0.0646
 1975TIP3    H227561   4.895   5.698   2.965  0.1777  0.3991  0.5881
 1976TIP3   OH227562   6.169   0.754   0.668  0.0325 -0.3338  0.3411
 1976TIP3    H127563   6.152   0.835   0.715 -1.5650 -1.7991  2.4676
 1976TIP3    H227564   6.187   0.689   0.737 -1.0350 -2.2931 -1.1228
 1977TIP3   OH227565   2.335   2.585   8.267 -0.4879 -0.2729  0.0915
 1977TIP3    H127566   2.269   2.522   8.236 -0.9973  0.1317  0.3310
 1977TIP3    H227567   2.359   2.554   8.354 -1.1512  0.1587  0.4423
 1978TIP3   OH227568   0.491   6.238   0.965 -0.6629 -0.3826 -0.9359
 1978TIP3    H127569   0.411   6.263   1.012 -0.1114 -1.0503  0.3962
 1978TIP3    H227570   0.519   6.156   1.006  0.8584 -0.0269 -1.1994
 1979TIP3   OH227571   4.761   4.290   1.768  0.4674  1.3045  0.2289
 1979TIP3    H127572   4.666   4.296   1.758  0.4635  0.5294 -0.2790
 1979TIP3    H227573   4.783   4.361   1.828 -0.5421  0.9248  1.0885
 1980TIP3   OH227574   4.049   3.734   0.715 -0.1377  0.5991 -0.0812
 1980TIP3    H127575   4.125   3.700   0.669  1.2842  3.4405 -0.0364
 1980TIP3    H227576   3.974   3.698   0.668  1.2550  0.2576 -2.1417
 1981TIP3   OH227577   1.133   6.371   1.895 -0.4152  0.3508 -0.5192
 1981TIP3    H127578   1.187   6.449   1.885 -1.2688  0.9577 -0.5465
 1981TIP3    H227579   1.070   6.375   1.823 -1.0117  0.0965 -0.0313
 1982TIP3   OH227580   2.365   1.500   2.625  1.0831 -0.1087 -0.2357
 1982TIP3    H127581   2.283   1.451   2.627  1.2276 -0.3441  0.7477
 1982TIP3    H227582   2.387   1.509   2.532  0.6954 -1.3065 -0.4517
 1983TIP3   OH227583   5.550   6.873   7.977 -0.5920  0.4780  0.8329
 1983TIP3    H127584   5.625   6.928   8.001  0.3791 -0.9193  1.0915
 1983TIP3    H227585   5.492   6.932   7.929  1.5778  1.1417 -1.1271
 1984TIP3   OH227586   0.895   3.637   7.609  0.2431  0.8460  0.1220
 1984TIP3    H127587   0.878   3.578   7.682 -0.1936  0.2581 -0.4402
 1984TIP3    H227588   0.814   3.688   7.601 -0.8315 -0.9971 -1.6776
 1985TIP3   OH227589   3.279   0.043   0.883 -0.0067 -0.2036  0.9246
 1985TIP3    H127590   3.312  -0.041   0.916  0.6563 -0.0695  0.6292
 1985TIP3    H227591   3.216   0.018   0.815  1.3785 -0.4889 -0.3141
 1986TIP3   OH227592   0.150   1.657   7.969  0.0127 -0.3931 -0.1627
 1986TIP3    H127593   0.087   1.720   8.004 -0.2820 -1.4556  1.3154
 1986TIP3    H227594   0.172   1.691   7.882 -0.2718  1.6184  0.5038
 1987TIP3   OH227595   3.101   0.289   1.932 -0.0349  0.2027  0.2635
 1987TIP3    H127596   3.166   0.224   1.907  0.1753  0.0740  1.0949
 1987TIP3    H227597   3.017   0.246   1.920  0.1037 -0.2441  0.8526
 1988TIP3   OH227598   6.382   0.857   1.818 -0.0806 -0.2310  0.6328
 1988TIP3    H127599   6.338   0.942   1.823  0.0605 -0.2064  2.0408
 1988TIP3    H227600   6.441   0.864   1.744  0.7942  1.3421  1.4258
 1989TIP3   OH227601   0.487   5.204   8.456  0.6965  0.7581 -0.2504
 1989TIP3    H127602   0.549   5.149   8.503  0.5767  1.7446  1.1339
 1989TIP3    H227603   0.418   5.144   8.429  0.8004  0.1288  0.7996
 1990TIP3   OH227604   5.804   0.022   1.889 -0.9748 -0.1308  0.1517
 1990TIP3    H127605   5.776  -0.017   1.806  1.0670 -0.9704 -0.1866
 1990TIP3    H227606   5.789  -0.047   1.954 -1.0941 -0.0342  0.2281
 1991TIP3   OH227607   0.087   6.235   8.103  0.4124 -0.0231  0.7344
 1991TIP3    H127608   0.168   6.187   8.119  0.4359 -0.0192  0.6323
 1991TIP3    H227609   0.111   6.327   8.109  0.3039 -0.0281  1.2243
 1992TIP3   OH227610   2.676   5.242   0.104  1.0453 -0.1799 -0.0938
 1992TIP3    H127611   2.700   5.309   0.168  1.4468 -0.1081 -0.3130
 1992TIP3    H227612   2.582   5.255   0.090  1.2737  0.9370 -0.7978
 1993TIP3   OH227613   1.048   4.254   7.385 -0.5536 -0.5530  0.1860
 1993TIP3    H127614   0.977   4.296   7.433 -1.5758 -1.1495 -0.7508
 1993TIP3    H227615   1.052   4.166   7.422  0.0772 -0.3514  0.6090
 1994TIP3   OH227616   3.412   6.742   0.404 -0.2704 -0.0166 -0.4207
 1994TIP3    H127617   3.457   6.710   0.326 -0.4224  0.3327 -0.6509
 1994TIP3    H227618   3.320   6.746   0.379 -0.1626  1.3750 -0.6627
 1995TIP3   OH227619   4.084   4.013   2.325  0.2184 -0.1273 -0.1015
 1995TIP3    H127620   4.130   3.931   2.339 -1.6824 -1.2624 -0.1608
 1995TIP3    H227621   3.995   3.997   2.357 -0.2769  1.8282 -0.3477
 1996TIP3   OH227622   1.016   2.746   1.243 -0.2263  0.3928 -0.1704
 1996TIP3    H127623   0.931   2.762   1.283 -0.2041 -1.2771  0.6362
 1996TIP3    H227624   1.064   2.695   1.308 -0.2716 -2.6555 -2.2989
 1997TIP3   OH227625   4.380   6.591   8.293 -0.0041 -0.2527  0.4734
 1997TIP3    H127626   4.299   6.631   8.325 -0.3921 -0.2526 -0.4925
 1997TIP3    H227627   4.444   6.662   8.292 -0.4422  0.1431 -0.3505
 1998TIP3   OH227628   1.800   5.749   0.149  0.3741 -0.1965 -0.6078
 1998TIP3    H127629   1.739   5.721   0.217  1.1659  0.3377  0.3484
 1998TIP3    H227630   1.760   5.828   0.112  0.3974  0.0498 -0.1087
 1999TIP3   OH227631   1.755   4.803   1.965  0.1818  0.4982  0.0585
 1999TIP3    H127632   1.687   4.815   2.032  1.5024  1.3084  1.3156
 1999TIP3    H227633   1.812   4.879   1.975  2.4466 -1.1252  0.4746
 2000TIP3   OH227634   1.289   3.806   2.235 -0.7958  0.5327 -0.2210
 2000TIP3    H127635   1.234   3.810   2.156 -1.0482 -0.4307 -0.1158
 2000TIP3    H227636   1.308   3.712   2.246  1.2927  0.8888 -0.5244
 2001TIP3   OH227637   3.765   6.055   1.092 -0.4824 -0.0833 -0.5735
 2001TIP3    H127638   3.736   6.009   1.014  0.0896 -1.0080 -0.2550
 2001TIP3    H227639   3.782   5.986   1.157 -0.5339  0.6344  0.2311
 2002TIP3   OH227640   4.702   2.541   8.277 -0.1929  0.7594  0.0250
 2002TIP3    H127641   4.720   2.508   8.189  0.5599 -2.1642  1.1584
 2002TIP3    H227642   4.611   2.569   8.274 -1.0652 -1.9047 -1.0500
 2003TIP3   OH227643   0.419   4.734   2.965 -0.1044 -0.1800 -0.0842
 2003TIP3    H127644   0.440   4.749   3.058  2.1906  0.9014 -0.7151
 2003TIP3    H227645   0.470   4.656   2.942  0.8862  0.6860 -0.8943
 2004TIP3   OH227646   1.745   3.984   2.683 -0.0909 -0.3112  0.0670
 2004TIP3    H127647   1.792   3.930   2.747  2.5985  1.0902 -0.5444
 2004TIP3    H227648   1.794   3.972   2.602 -0.2316  1.9235 -0.4222
 2005TIP3   OH227649   3.354   4.204   8.134 -0.2335 -0.1205 -0.1043
 2005TIP3    H127650   3.440   4.161   8.134  0.5013  1.1587 -2.6690
 2005TIP3    H227651   3.306   4.160   8.204  2.1003 -1.6876  0.6521
 2006TIP3   OH227652   5.571   2.523   7.750  0.2097  0.7595 -0.0659
 2006TIP3    H127653   5.478   2.540   7.735 -0.3379 -0.4163  1.6768
 2006TIP3    H227654   5.610   2.610   7.759 -0.5657  1.2834 -1.4982
 2007TIP3   OH227655   1.609   3.795   2.969  0.1273  0.2942 -0.7853
 2007TIP3    H127656   1.672   3.851   3.014 -0.4627  1.1635 -1.0158
 2007TIP3    H227657   1.636   3.706   2.991  1.3182  0.6512 -0.7285
 2008TIP3   OH227658   5.580   5.488   8.394  0.5493 -0.7252 -0.1458
 2008TIP3    H127659   5.577   5.558   8.460  0.9904 -1.4532  0.6690
 2008TIP3    H227660   5.633   5.419   8.435  0.8221 -1.1998 -1.2677
 2009TIP3   OH227661   0.512   2.227   1.550  0.3728  0.0565  0.6236
 2009TIP3    H127662   0.492   2.251   1.640  0.9589  2.5766  0.1570
 2009TIP3    H227663   0.595   2.272   1.531  0.7713 -1.2030 -0.8946
 2010TIP3   OH227664   1.630   3.555   0.492 -0.2245 -0.0027  0.3349
 2010TIP3    H127665   1.548   3.520   0.456  0.5986 -0.8348 -0.7923
 2010TIP3    H227666   1.651   3.630   0.437 -0.2126  0.2111  0.6253
 2011TIP3   OH227667   0.256   3.263   7.316  0.4958  0.4222 -0.0344
 2011TIP3    H127668   0.174   3.293   7.355  0.0301  0.9118 -1.3657
 2011TIP3    H227669   0.318   3.334   7.334  0.1694  0.8436 -0.5436
 2012TIP3   OH227670   3.235   2.095   0.968  0.1886 -0.3269  0.1826
 2012TIP3    H127671   3.290   2.165   0.932 -1.7350  1.4296  0.4309
 2012TIP3    H227672   3.280   2.068   1.048  0.3836  1.5436  0.7602
 2013TIP3   OH227673   4.942   5.622   2.675  0.1563  0.3176 -0.2089
 2013TIP3    H127674   4.985   5.608   2.759  0.2441 -1.4074 -0.5199
 2013TIP3    H227675   4.994   5.690   2.632 -0.1774  1.5806  1.3119
 2014TIP3   OH227676   6.623   0.131   8.202 -0.1658  0.2543 -0.0774
 2014TIP3    H127677   6.701   0.132   8.146  0.1338  1.3552  0.3232
 2014TIP3    H227678   6.617   0.042   8.235  2.7471  0.8217  2.3637
 2015TIP3   OH227679   2.762   3.473   2.331  0.3561 -0.4303  0.0452
 2015TIP3    H127680   2.849   3.505   2.308 -0.0915  0.8711  0.0842
 2015TIP3    H227681   2.754   3.389   2.285  0.5505  0.7659 -2.3393
 2016TIP3   OH227682   4.605   6.514   3.202 -0.1131 -0.0021  0.0927
 2016TIP3    H127683   4.553   6.569   3.144 -0.7977 -0.4798  0.2347
 2016TIP3    H227684   4.689   6.559   3.209 -0.7382  1.1614  0.4196
 2017TIP3   OH227685   4.506   5.148   1.722  0.1289  0.2048  0.1808
 2017TIP3    H127686   4.506   5.178   1.813 -1.1545  1.1822 -0.1018
 2017TIP3    H227687   4.582   5.091   1.715  0.4652  0.4141  1.7672
 2018TIP3   OH227688   1.543   5.151   2.030 -0.3987 -0.2929  0.4466
 2018TIP3    H127689   1.609   5.146   1.961 -1.1972 -0.2922 -0.3161
 2018TIP3    H227690   1.560   5.234   2.074  1.4286 -1.1975  1.6120
 2019TIP3   OH227691   0.956   1.813   2.416 -0.1184 -0.4417  0.1072
 2019TIP3    H127692   0.915   1.836   2.499  1.1843 -0.2444  0.7218
 2019TIP3    H227693   0.924   1.725   2.397  0.2923 -0.8671  1.3068
 2020TIP3   OH227694   0.645   6.469   7.650  0.1571 -0.0938  0.3830
 2020TIP3    H127695   0.691   6.490   7.569  0.0296 -1.3331 -0.0246
 2020TIP3    H227696   0.605   6.552   7.676  0.3436  0.3664 -0.7235
 2021TIP3   OH227697   0.862   6.682   1.901  0.3057 -0.1740  0.0281
 2021TIP3    H127698   0.813   6.741   1.958  2.0076  1.4006 -0.0616
 2021TIP3    H227699   0.834   6.704   1.812  0.0039 -0.4001  0.0665
 2022TIP3   OH227700   6.262   4.862   0.093 -0.4402  0.1991 -0.5722
 2022TIP3    H127701   6.350   4.883   0.061  0.4912 -0.3912  1.4311
 2022TIP3    H227702   6.273   4.780   0.141 -2.2993 -0.3801 -1.0524
 2023TIP3   OH227703   1.610   3.517   8.135 -0.5183 -0.0333  0.1316
 2023TIP3    H127704   1.598   3.468   8.054  1.9000  1.4622 -1.2551
 2023TIP3    H227705   1.522   3.527   8.170 -1.5964 -1.1550 -2.0374
 2024TIP3   OH227706   5.630   3.334   8.130  0.0647  0.0582 -0.2178
 2024TIP3    H127707   5.685   3.285   8.068 -2.2901 -1.0095 -1.6183
 2024TIP3    H227708   5.690   3.363   8.198  2.3743 -0.8063 -1.7658
 2025TIP3   OH227709   0.618   6.772   0.947 -0.1813  0.3368  0.7656
 2025TIP3    H127710   0.710   6.798   0.937  0.2123 -0.2730  2.4520
 2025TIP3    H227711   0.575   6.849   0.984  0.0828  0.0077  1.7896
 2026TIP3   OH227712   0.960   6.280   8.164 -0.5741  0.2563  0.2296
 2026TIP3    H127713   0.930   6.214   8.103  0.2420 -0.4210  0.5400
 2026TIP3    H227714   0.881   6.308   8.210 -1.4220  1.6614 -1.9158
 2027TIP3   OH227715   0.940   4.679   1.927  0.8428  0.6654  0.0907
 2027TIP3    H127716   0.977   4.751   1.876 -1.5454 -0.1597 -3.1012
 2027TIP3    H227717   0.984   4.601   1.895 -0.3556  0.1807 -0.4449
 2028TIP3   OH227718   1.890   3.888   2.905 -0.3460 -0.2441  0.0733
 2028TIP3    H127719   1.862   3.893   2.996  0.0852 -0.1498  0.2069
 2028TIP3    H227720   1.896   3.794   2.887 -0.5732 -0.2636  0.0962
 2029TIP3   OH227721   2.395   6.591   2.387 -0.0871  0.1975 -0.5138
 2029TIP3    H127722   2.408   6.539   2.308  0.0181 -0.5180 -0.0469
 2029TIP3    H227723   2.383   6.680   2.357  0.2961 -0.0161 -1.3096
 2030TIP3   OH227724   6.101   2.739   7.239  0.0005 -0.0495 -0.1149
 2030TIP3    H127725   6.019   2.705   7.202 -0.5721 -0.1840  1.2178
 2030TIP3    H227726   6.139   2.665   7.286  0.8740  0.0290 -0.6749
 2031TIP3   OH227727   0.839   6.088   0.345 -0.7060  0.0703 -0.0573
 2031TIP3    H127728   0.795   6.156   0.396  0.6385  0.4362  0.6546
 2031TIP3    H227729   0.843   6.012   0.403 -0.2832  0.0851 -0.0650
 2032TIP3   OH227730   3.237   6.186   7.930  0.5001  0.7170 -0.1359
 2032TIP3    H127731   3.319   6.142   7.908 -0.0346 -0.2145 -0.3190
 2032TIP3    H227732   3.188   6.188   7.847 -0.4047 -0.3718  0.3468
 2033TIP3   OH227733   1.708   3.533   3.070 -0.3664 -0.0348  0.2077
 2033TIP3    H127734   1.712   3.442   3.039 -1.2879  0.3529 -1.1400
 2033TIP3    H227735   1.798   3.565   3.064 -0.1982 -0.5761 -0.2302
 2034TIP3   OH227736   2.170   4.141   7.826  0.3162  0.0143  0.1678
 2034TIP3    H127737   2.195   4.228   7.859  1.6858 -1.1020  2.3678
 2034TIP3    H227738   2.252   4.091   7.827 -0.7708 -1.8692  0.9168
 2035TIP3   OH227739   6.247   3.772   2.332 -0.1425 -0.4139  0.6806
 2035TIP3    H127740   6.283   3.861   2.338  1.2549 -0.7715 -1.3466
 2035TIP3    H227741   6.232   3.746   2.422  0.5655  1.4450  1.3835
 2036TIP3   OH227742   5.680   5.685   2.319  0.2595 -0.2487  0.3998
 2036TIP3    H127743   5.619   5.666   2.391 -0.1047  0.2700  0.2366
 2036TIP3    H227744   5.757   5.722   2.362 -0.2007  0.6335  0.4825
 2037TIP3   OH227745   4.230   1.202   1.844  0.0365  0.2772 -0.5605
 2037TIP3    H127746   4.236   1.188   1.938  1.2834 -0.9630 -0.7861
 2037TIP3    H227747   4.205   1.294   1.834 -0.2944  0.3672  0.9750
 2038TIP3   OH227748   1.203   0.202   0.261 -0.8827 -0.6709  0.1654
 2038TIP3    H127749   1.170   0.209   0.171 -2.7318 -1.0688  0.7685
 2038TIP3    H227750   1.169   0.280   0.304  1.0292  0.1702  0.2707
 2039TIP3   OH227751   0.192   1.110   1.851 -0.2086  0.0761  0.4119
 2039TIP3    H127752   0.116   1.052   1.849 -1.5112  1.7542 -1.0939
 2039TIP3    H227753   0.198   1.146   1.763 -0.2094  3.1405  1.5401
 2040TIP3   OH227754   2.465   1.663   8.083  0.4354  0.2525 -0.3015
 2040TIP3    H127755   2.536   1.624   8.032  1.6343 -0.3829  1.7347
 2040TIP3    H227756   2.491   1.650   8.174 -1.9706  0.6642  0.5151
 2041TIP3   OH227757   3.554   0.463   2.259 -0.8577  0.0595 -0.0356
 2041TIP3    H127758   3.624   0.404   2.232 -0.3365  0.9290 -0.6172
 2041TIP3    H227759   3.475   0.410   2.254 -0.2952 -0.8415  0.3092
 2042TIP3   OH227760   6.703   6.788   7.197 -0.3870 -0.1232 -0.2851
 2042TIP3    H127761   6.772   6.764   7.135 -0.7361 -0.6180 -0.4862
 2042TIP3    H227762   6.648   6.710   7.203  1.6469 -1.5530  3.4338
 2043TIP3   OH227763   2.564   1.000   3.284  0.2529 -0.0610 -0.1971
 2043TIP3    H127764   2.500   1.061   3.246  1.7218  0.5637 -1.7692
 2043TIP3    H227765   2.636   1.000   3.222  1.9010 -0.5778  1.6418
 2044TIP3   OH227766   3.451   2.559   1.977 -0.6652 -0.0597  0.5566
 2044TIP3    H127767   3.541   2.567   2.010 -0.7381  2.1401  0.3456
 2044TIP3    H227768   3.441   2.465   1.959  1.0470 -0.5926  2.0491
 2045TIP3   OH227769   6.777   1.053   0.914 -0.4919 -1.2052 -0.2689
 2045TIP3    H127770   6.810   1.042   0.825  0.7834 -1.4597  0.2043
 2045TIP3    H227771   6.772   0.964   0.949 -1.4403 -1.1426 -0.2402
 2046TIP3   OH227772   0.789   5.925   0.827  0.9424 -0.8632 -0.3790
 2046TIP3    H127773   0.761   5.932   0.918  0.5016  0.8328 -0.6215
 2046TIP3    H227774   0.879   5.893   0.833  1.1782 -0.0525  0.6932
 2047TIP3   OH227775   4.890   0.751   1.191  0.8733 -0.2218  0.3428
 2047TIP3    H127776   4.825   0.682   1.203 -0.0984  0.0214 -2.6445
 2047TIP3    H227777   4.928   0.764   1.278 -1.6990 -1.7153  1.8132
 2048TIP3   OH227778   0.071   6.853   7.706  0.0570  0.0317  0.7400
 2048TIP3    H127779   0.157   6.827   7.740 -0.5148 -1.0398  1.4400
 2048TIP3    H227780   0.089   6.926   7.646  1.3363  0.4693  1.6313
 2049TIP3   OH227781   4.147   2.473   8.550  0.0756  0.2119 -0.3025
 2049TIP3    H127782   4.237   2.441   8.549  0.1788  0.5006 -1.9067
 2049TIP3    H227783   4.097   2.405   8.507 -0.6546 -0.3559  1.3623
 2050TIP3   OH227784   2.704   2.242   8.609 -0.0162  0.2211  0.6273
 2050TIP3    H127785   2.699   2.190   8.529 -3.3425  1.6790 -0.3009
 2050TIP3    H227786   2.776   2.304   8.593  0.6969 -0.8264 -0.3472
 2051TIP3   OH227787   3.315   1.817   0.078 -0.4627  0.1822  0.6591
 2051TIP3    H127788   3.313   1.908   0.107 -2.8734  0.3642  0.1266
 2051TIP3    H227789   3.389   1.812   0.018 -2.5051  2.8953 -2.4416
 2052TIP3   OH227790   3.260   1.057   0.171 -0.3014 -0.0453  0.2332
 2052TIP3    H127791   3.287   1.109   0.247  0.5106 -0.7186  0.4211
 2052TIP3    H227792   3.174   1.092   0.148  0.0836  1.1764  0.5331
 2053TIP3   OH227793   0.282   4.893   7.204  0.3643 -0.1226 -0.0364
 2053TIP3    H127794   0.205   4.863   7.251  0.2161  0.2676 -0.0219
 2053TIP3    H227795   0.292   4.832   7.131  0.7555 -0.8964  0.6479
 2054TIP3   OH227796   5.715   1.699   7.782 -0.8352 -0.2808  0.3274
 2054TIP3    H127797   5.735   1.788   7.811  1.8269 -0.8169  0.3731
 2054TIP3    H227798   5.732   1.700   7.688 -1.7503 -0.5226  0.1499
 2055TIP3   OH227799   5.014   5.045   1.673 -0.5152  0.1796 -0.5426
 2055TIP3    H127800   5.086   5.105   1.694 -1.9056  1.2389  1.5618
 2055TIP3    H227801   5.056   4.960   1.662  1.1413  0.8863  0.0327
 2056TIP3   OH227802   3.384   2.275   1.949 -0.4702  0.3869 -0.1140
 2056TIP3    H127803   3.388   2.209   1.881  1.1589 -0.3106  0.6023
 2056TIP3    H227804   3.291   2.281   1.972 -1.0863  0.7796 -2.4695
 2057TIP3   OH227805   3.514   3.168   0.508 -0.4255  0.0324 -0.6810
 2057TIP3    H127806   3.450   3.230   0.474 -1.4002  0.3816  1.6212
 2057TIP3    H227807   3.595   3.219   0.516 -0.8837  0.6645 -0.0061
 2058TIP3   OH227808   2.877   6.379   7.701 -0.3693 -0.8725 -0.4111
 2058TIP3    H127809   2.837   6.389   7.787 -2.0472 -0.4621 -1.1921
 2058TIP3    H227810   2.941   6.309   7.712  0.3597  0.0148  1.4486
 2059TIP3   OH227811   4.081   2.866   8.233 -0.0232 -0.3819 -0.0594
 2059TIP3    H127812   4.093   2.954   8.267 -0.6055 -0.8579  1.4570
 2059TIP3    H227813   3.987   2.860   8.214 -0.0707 -0.8299  0.2978
 2060TIP3   OH227814   2.895   0.024   1.103 -0.2147 -0.0413  0.1925
 2060TIP3    H127815   2.959   0.062   1.042 -1.1462 -0.3242 -0.9914
 2060TIP3    H227816   2.843  -0.036   1.049 -0.9963 -0.3843  1.2993
 2061TIP3   OH227817   0.500   3.458   1.186  0.1829 -0.4213  0.1914
 2061TIP3    H127818   0.495   3.547   1.222  0.8021  0.3629 -1.5773
 2061TIP3    H227819   0.422   3.414   1.221 -0.0987  0.7790  1.1438
 2062TIP3   OH227820   5.507   2.461   8.168 -0.2639  0.2664 -0.3075
 2062TIP3    H127821   5.500   2.555   8.151 -1.4645  0.1322 -0.6476
 2062TIP3    H227822   5.503   2.421   8.081  0.1969 -0.1033 -0.1603
 2063TIP3   OH227823   2.594   1.116   8.311 -0.2365 -0.1116 -0.5452
 2063TIP3    H127824   2.581   1.023   8.331 -0.0125 -0.4998 -2.0439
 2063TIP3    H227825   2.677   1.118   8.263 -0.2251  0.8658 -0.4917
 2064TIP3   OH227826   2.829   5.794   0.364  0.1114  0.4141 -0.0375
 2064TIP3    H127827   2.777   5.870   0.337 -2.2181 -1.5517 -1.4058
 2064TIP3    H227828   2.878   5.769   0.286  0.8351  0.4563  0.3947
 2065TIP3   OH227829   3.739   3.517   0.105 -0.0041 -0.1874  0.1357
 2065TIP3    H127830   3.801   3.560   0.046 -0.0320  0.5907  0.6640
 2065TIP3    H227831   3.701   3.447   0.052  0.9842 -0.3849 -0.3364
 2066TIP3   OH227832   6.109   3.331   1.914  0.7065 -0.5703 -0.4913
 2066TIP3    H127833   6.108   3.395   1.843  3.5930  0.0276 -0.0876
 2066TIP3    H227834   6.073   3.380   1.989  0.4796 -0.2531 -0.8006
 2067TIP3   OH227835   5.857   6.758   1.161  0.1272  0.1323 -0.3251
 2067TIP3    H127836   5.947   6.738   1.135 -0.0217  0.3198 -1.0000
 2067TIP3    H227837   5.865   6.787   1.252  0.3099 -3.1860  0.8521
 2068TIP3   OH227838   3.666   2.410   7.853  0.8056 -0.6312 -0.0174
 2068TIP3    H127839   3.624   2.453   7.778 -0.5013  0.3559  1.2466
 2068TIP3    H227840   3.758   2.435   7.846  0.2694  1.5674  0.0960
 2069TIP3   OH227841   3.934   1.975   7.294  0.1211  0.1403  0.4472
 2069TIP3    H127842   3.929   1.892   7.246  1.6459  1.3371 -1.9974
 2069TIP3    H227843   4.024   2.005   7.280 -0.5597  2.5090  0.6791
 2070TIP3   OH227844   2.294   3.716   0.054 -0.3500  0.2622 -0.0148
 2070TIP3    H127845   2.344   3.781   0.005  2.9411 -1.1186  1.1961
 2070TIP3    H227846   2.239   3.673  -0.011  1.5178  0.6032 -1.9207
 2071TIP3   OH227847   4.947   3.121   8.517 -0.3953 -0.2258 -0.3629
 2071TIP3    H127848   4.903   3.045   8.555 -1.3236  0.5296  0.1115
 2071TIP3    H227849   4.987   3.088   8.436  0.7655 -1.6331  0.7301
 2072TIP3   OH227850   3.193   2.737   1.580 -0.5014 -0.0727 -0.2822
 2072TIP3    H127851   3.113   2.764   1.535 -0.9865  1.5108  1.3963
 2072TIP3    H227852   3.235   2.819   1.606  0.7498 -0.9030  0.4328
 2073TIP3   OH227853   5.871   2.108   0.156  0.9102  0.2669 -0.2874
 2073TIP3    H127854   5.876   2.083   0.248 -1.1340  1.8870  0.3314
 2073TIP3    H227855   5.898   2.200   0.155 -0.1971  0.5961 -1.1236
 2074TIP3   OH227856   1.505   5.040   8.045 -0.2540 -0.4951 -0.2025
 2074TIP3    H127857   1.414   5.047   8.072 -0.3069 -2.4788  0.3010
 2074TIP3    H227858   1.502   5.008   7.955 -0.0728 -1.1077  0.0022
 2075TIP3   OH227859   6.122   4.263   1.483  0.2140  0.4347  0.1206
 2075TIP3    H127860   6.206   4.280   1.527  0.8109 -0.2399 -0.7126
 2075TIP3    H227861   6.120   4.168   1.471 -0.7901  0.4190  0.3338
 2076TIP3   OH227862   5.971   1.378   2.084 -0.3183  0.5278 -0.4422
 2076TIP3    H127863   5.976   1.319   2.159 -1.4365  0.3806 -0.4599
 2076TIP3    H227864   6.038   1.443   2.100  0.0113  0.0262  0.2716
 2077TIP3   OH227865   3.264   2.644   8.551 -0.0176 -0.4650 -0.0441
 2077TIP3    H127866   3.206   2.630   8.627  1.5573  0.2611  1.3565
 2077TIP3    H227867   3.215   2.704   8.495 -0.5680  0.3087  1.2066
 2078TIP3   OH227868   4.665   2.006   8.020  0.1252  0.0409  0.5061
 2078TIP3    H127869   4.717   1.990   8.099 -0.5116 -0.1793  0.8915
 2078TIP3    H227870   4.704   1.951   7.953 -0.1169 -0.7576  1.0080
 2079TIP3   OH227871   4.933   5.744   2.118  0.4242  0.5609 -0.2733
 2079TIP3    H127872   4.965   5.785   2.199 -2.5118 -1.2554  1.9944
 2079TIP3    H227873   4.884   5.814   2.074 -1.7531  0.4923  1.8708
 2080TIP3   OH227874   4.245   0.405   8.555 -0.9890  0.1320 -0.2369
 2080TIP3    H127875   4.298   0.472   8.600 -1.8207  0.0854  0.8522
 2080TIP3    H227876   4.194   0.455   8.491  0.3230  0.1800 -1.2990
 2081TIP3   OH227877   1.197   2.372   1.622 -0.4269  0.5202  0.1659
 2081TIP3    H127878   1.233   2.330   1.544 -0.8232  0.6322 -0.0798
 2081TIP3    H227879   1.213   2.465   1.608  0.3816  0.4669  0.6742
 2082TIP3   OH227880   0.935   0.492   1.985  0.5902  0.1491 -0.0921
 2082TIP3    H127881   0.902   0.403   1.999  1.1208  0.2323  2.0369
 2082TIP3    H227882   1.030   0.482   1.985  0.6504  0.7416  0.3453
 2083TIP3   OH227883   2.393   4.719   8.652  0.3400 -0.3027  0.0970
 2083TIP3    H127884   2.377   4.812   8.667 -1.3120 -0.3859 -0.9378
 2083TIP3    H227885   2.310   4.676   8.674  0.6154 -1.3571 -0.8370
 2084TIP3   OH227886   0.528   1.693   2.566  0.3034  0.1134 -0.7404
 2084TIP3    H127887   0.560   1.766   2.619 -1.8090 -0.5988  1.7483
 2084TIP3    H227888   0.432   1.701   2.570  0.0541 -1.4942 -2.3024
 2085TIP3   OH227889   4.004   6.518   0.709 -0.6498 -0.4543 -0.0623
 2085TIP3    H127890   3.984   6.608   0.737 -1.3891 -0.8270  0.6361
 2085TIP3    H227891   3.918   6.477   0.698 -0.4141 -0.4007 -2.7066
 2086TIP3   OH227892   4.778   3.318   8.384 -0.5490  0.0299 -0.0357
 2086TIP3    H127893   4.845   3.289   8.446 -1.2443 -0.5605  0.4558
 2086TIP3    H227894   4.817   3.305   8.298 -0.1796 -0.6745  0.2374
 2087TIP3   OH227895   5.393   4.181   1.661  0.1544 -0.1193  0.3917
 2087TIP3    H127896   5.433   4.175   1.747 -0.2288  1.1322  0.6742
 2087TIP3    H227897   5.313   4.129   1.668 -0.0770  0.2954  0.9221
 2088TIP3   OH227898   1.374   4.173   7.926  0.4924  0.0463  1.2379
 2088TIP3    H127899   1.296   4.169   7.870  0.9059  1.3010  0.5420
 2088TIP3    H227900   1.431   4.236   7.883  1.5913 -0.3087  2.1401
 2089TIP3   OH227901   0.874   3.122   2.927 -0.4902 -0.1374  0.5992
 2089TIP3    H127902   0.940   3.055   2.942 -0.6015 -0.4196 -0.1274
 2089TIP3    H227903   0.840   3.142   3.015  0.2818 -0.2657  0.9327
 2090TIP3   OH227904   6.424   0.605   7.779  0.4821 -0.8343 -0.1812
 2090TIP3    H127905   6.336   0.596   7.744  0.2991 -0.8598  0.2780
 2090TIP3    H227906   6.468   0.666   7.720  0.3402 -1.2773 -0.7505
 2091TIP3   OH227907   4.679   6.285   2.893 -0.1288 -0.1450 -0.6025
 2091TIP3    H127908   4.694   6.222   2.964 -0.4739  1.0889  0.6155
 2091TIP3    H227909   4.763   6.293   2.849  0.2956 -0.3607  0.1561
 2092TIP3   OH227910   5.499   1.130   7.662  0.5302  0.0577 -0.3345
 2092TIP3    H127911   5.519   1.040   7.689 -1.3258 -0.3695 -0.3007
 2092TIP3    H227912   5.461   1.171   7.740 -3.5250 -0.7540 -1.6577
 2093TIP3   OH227913   6.142   3.216   2.257  0.1196  0.1399  0.6400
 2093TIP3    H127914   6.209   3.278   2.230  0.2442 -0.2917 -0.0655
 2093TIP3    H227915   6.105   3.254   2.337  2.0797 -0.2494  1.7943
 2094TIP3   OH227916   4.861   5.089   0.051 -0.3744 -0.3894  0.4716
 2094TIP3    H127917   4.956   5.077   0.054 -0.3668 -0.7153 -0.5170
 2094TIP3    H227918   4.845   5.130  -0.034 -1.1829 -1.0643  0.2869
 2095TIP3   OH227919   0.081   0.907   8.436 -0.3600 -0.0985  0.2862
 2095TIP3    H127920  -0.013   0.921   8.433 -0.1723  2.5225  2.5179
 2095TIP3    H227921   0.098   0.875   8.525  0.9373  0.8189  0.4022
 2096TIP3   OH227922   3.106   5.754   1.165  0.4303 -0.2193  0.2342
 2096TIP3    H127923   3.145   5.821   1.221  0.3751  0.2012 -0.2195
 2096TIP3    H227924   3.173   5.685   1.159 -0.0478 -0.8622  1.8252
 2097TIP3   OH227925   4.518   3.323   7.710 -0.6914 -0.1430 -0.0135
 2097TIP3    H127926   4.511   3.378   7.632 -0.8158  1.6531  1.2256
 2097TIP3    H227927   4.609   3.291   7.708 -0.8197 -0.4902 -1.1041
 2098TIP3   OH227928   4.804   0.551   1.442  0.3073 -0.1690  0.6570
 2098TIP3    H127929   4.727   0.502   1.413 -0.3395  1.2002 -0.0648
 2098TIP3    H227930   4.797   0.552   1.537  0.4573 -1.6204  0.7089
 2099TIP3   OH227931   6.775   3.666   0.205 -0.5630 -0.0962 -0.7322
 2099TIP3    H127932   6.720   3.597   0.167 -0.8901 -0.2857  0.0690
 2099TIP3    H227933   6.773   3.649   0.299 -2.2786  2.1379 -0.2668
 2100TIP3   OH227934   0.148   6.477   3.475 -0.1643 -0.3824 -0.7992
 2100TIP3    H127935   0.102   6.420   3.537  1.6057 -1.2044 -0.1525
 2100TIP3    H227936   0.234   6.436   3.465  1.0383  1.9244 -0.6427
 2101TIP3   OH227937   1.108   5.549   2.933  0.1290  0.0474 -0.5691
 2101TIP3    H127938   1.049   5.500   2.991  1.1500 -0.9817 -0.3596
 2101TIP3    H227939   1.053   5.574   2.859 -0.6470 -0.5967 -0.2350
 2102TIP3   OH227940   6.395   1.687   8.199  0.2708 -0.0298  0.1425
 2102TIP3    H127941   6.409   1.780   8.182 -1.6174  0.6221  1.8270
 2102TIP3    H227942   6.371   1.651   8.113  0.3493  1.1669 -0.4106
 2103TIP3   OH227943   5.907   1.380   7.844 -0.2404  0.2332  0.1951
 2103TIP3    H127944   5.865   1.360   7.928 -0.3373  0.2680  0.1553
 2103TIP3    H227945   5.837   1.370   7.779  0.1825 -1.3032 -0.0697
 2104TIP3   OH227946   3.974   0.579   2.100  0.7896 -0.9668  0.1459
 2104TIP3    H127947   3.884   0.564   2.070  1.2755  0.2114 -2.0540
 2104TIP3    H227948   3.979   0.532   2.184 -3.0776  2.0852  2.4385
 2105TIP3   OH227949   4.904   0.777   2.484 -0.3096 -0.0088  0.1768
 2105TIP3    H127950   4.998   0.789   2.468 -0.0844 -0.4789  1.1164
 2105TIP3    H227951   4.863   0.803   2.401  0.6008  0.7668 -0.0518
 2106TIP3   OH227952   6.697   6.570   2.033 -0.4749  0.1878 -0.1975
 2106TIP3    H127953   6.605   6.579   2.057 -0.6575  1.9831 -1.3807
 2106TIP3    H227954   6.701   6.490   1.981 -0.6301 -1.9896  2.8495
 2107TIP3   OH227955   2.383   0.973   1.409 -0.4779 -0.2793 -0.0458
 2107TIP3    H127956   2.419   1.055   1.443 -1.2219 -0.5223  1.4343
 2107TIP3    H227957   2.303   0.960   1.459 -1.0573 -1.2524 -1.1871
 2108TIP3   OH227958   2.526   6.757   8.691 -0.4786  0.7077  0.5356
 2108TIP3    H127959   2.613   6.723   8.668 -0.8251 -0.5112  0.9729
 2108TIP3    H227960   2.482   6.771   8.607 -1.2468 -2.4163  0.3213
 2109TIP3   OH227961   3.325   0.753   0.653 -0.8944  0.0708  0.3429
 2109TIP3    H127962   3.399   0.803   0.690 -0.0992 -1.0036  0.2553
 2109TIP3    H227963   3.340   0.755   0.559 -0.7183 -0.5208  0.3533
 2110TIP3   OH227964   4.545   0.746   2.639 -0.2109  0.4482 -0.5704
 2110TIP3    H127965   4.568   0.766   2.548  1.4093  2.2997  0.1670
 2110TIP3    H227966   4.576   0.656   2.652  1.7234  0.9880 -1.1919
 2111TIP3   OH227967   3.924   3.916   0.859  0.0193 -0.4364  0.0854
 2111TIP3    H127968   3.940   3.867   0.778  1.5405 -0.4872  0.3964
 2111TIP3    H227969   3.889   3.851   0.920 -0.0690 -0.6447 -0.1864
 2112TIP3   OH227970   5.686   3.432   1.310 -0.6234 -0.0710 -0.2522
 2112TIP3    H127971   5.700   3.357   1.368 -2.0139 -0.7352 -0.7215
 2112TIP3    H227972   5.602   3.468   1.337  0.5725  2.1360  0.7801
 2113TIP3   OH227973   1.339   3.365   0.412  0.5131 -0.6581 -0.0730
 2113TIP3    H127974   1.253   3.329   0.391  0.4504 -1.1889  1.0241
 2113TIP3    H227975   1.322   3.427   0.483  0.7817  0.7109 -1.1632
 2114TIP3   OH227976   4.707   3.884   0.847  0.1670 -0.0877 -0.1092
 2114TIP3    H127977   4.651   3.901   0.771  1.2267 -0.2364 -0.9440
 2114TIP3    H227978   4.796   3.880   0.812  0.7125  0.0666  1.1757
 2115TIP3   OH227979   1.171   1.443   1.256 -0.1993  0.6096 -0.2795
 2115TIP3    H127980   1.223   1.367   1.282 -1.4752 -0.4915 -0.8253
 2115TIP3    H227981   1.218   1.479   1.180 -0.5608 -0.7627 -1.1804
 2116TIP3   OH227982   3.216   1.327   8.110  0.7503  0.5075  0.3423
 2116TIP3    H127983   3.192   1.419   8.109  1.0275  0.5844 -0.6597
 2116TIP3    H227984   3.214   1.301   8.018 -1.6818 -1.1326  0.7796
 2117TIP3   OH227985   0.758   5.751   2.564  0.2316  0.1674  0.1134
 2117TIP3    H127986   0.711   5.761   2.481 -1.7155  0.3129  1.1829
 2117TIP3    H227987   0.699   5.787   2.630  1.4989 -0.4403  1.6522
 2118TIP3   OH227988   3.453   3.214   0.108  0.3661  0.7073  0.0358
 2118TIP3    H127989   3.478   3.176   0.024 -2.3013  1.5083 -1.2591
 2118TIP3    H227990   3.393   3.151   0.146  0.1894  1.1480  0.4982
 2119TIP3   OH227991   3.350   3.534   1.097  0.5479  0.0061 -0.2216
 2119TIP3    H127992   3.429   3.546   1.151  0.8257  2.1204 -1.0038
 2119TIP3    H227993   3.370   3.578   1.015 -1.0898 -0.2814 -0.8125
 2120TIP3   OH227994   2.057   6.209   2.473 -0.3082  0.3334 -1.0322
 2120TIP3    H127995   2.020   6.121   2.466  1.3032 -0.4390 -0.5099
 2120TIP3    H227996   2.060   6.240   2.382  0.1082 -0.6135 -1.3642
 2121TIP3   OH227997   0.809   1.762   7.874  0.0674  0.1443 -1.1311
 2121TIP3    H127998   0.777   1.685   7.921 -0.5135 -0.2876 -2.2082
 2121TIP3    H227999   0.902   1.767   7.898 -0.5289  0.8952  1.3186
 2122TIP3   OH228000   1.432   5.038   1.243 -0.1853  0.3123 -0.1823
 2122TIP3    H128001   1.402   4.962   1.293 -2.2370  1.7160  0.8989
 2122TIP3    H228002   1.460   5.003   1.159  0.5270 -1.7951  0.8727
 2123TIP3   OH228003   0.644   6.567   2.152  0.4611 -0.0407 -0.6948
 2123TIP3    H128004   0.618   6.479   2.126  1.5834  0.2728 -3.1968
 2123TIP3    H228005   0.562   6.616   2.157 -0.0020 -0.7139 -1.4519
 2124TIP3   OH228006   4.818   1.223   7.834 -0.7434 -0.0811 -0.1347
 2124TIP3    H128007   4.764   1.290   7.792 -0.7240 -0.4310 -0.7260
 2124TIP3    H228008   4.845   1.166   7.763  1.7724  1.0078 -0.1640
 2125TIP3   OH228009   0.547   4.077   1.457 -0.9215  0.4720 -0.3953
 2125TIP3    H128010   0.498   4.139   1.511  1.4368  1.1716  1.0909
 2125TIP3    H228011   0.550   4.118   1.370 -1.1779  1.3994  0.0209
 2126TIP3   OH228012   3.003   2.046   1.580 -0.4169 -0.5575  0.3126
 2126TIP3    H128013   3.046   2.125   1.612 -2.0664  1.7243 -2.6049
 2126TIP3    H228014   2.912   2.057   1.609 -0.9199 -0.7135 -1.1465
 2127TIP3   OH228015   4.477   4.937   7.199  0.7014  0.0898 -0.3683
 2127TIP3    H128016   4.526   4.902   7.125  1.3218 -0.1145  0.1322
 2127TIP3    H228017   4.457   5.027   7.174  0.4324 -0.1389 -1.0096
 2128TIP3   OH228018   5.135   2.349   7.643 -0.3934  0.4459 -0.2685
 2128TIP3    H128019   5.200   2.289   7.607 -2.0382  0.4007 -3.5162
 2128TIP3    H228020   5.088   2.297   7.709  1.2021 -0.2898  0.3257
 2129TIP3   OH228021   5.144   2.852   0.222  0.3095  0.0398 -0.6577
 2129TIP3    H128022   5.197   2.905   0.281  1.1852 -0.1637 -1.2345
 2129TIP3    H228023   5.202   2.780   0.196 -0.2317 -0.1624 -1.3369
 2130TIP3   OH228024   5.828   2.988   2.460 -0.4776 -0.3295 -0.4936
 2130TIP3    H128025   5.830   3.051   2.388  0.5548  0.3844  0.1451
 2130TIP3    H228026   5.831   3.041   2.539  0.1906 -1.1604  0.0546
 2131TIP3   OH228027   3.903   0.675   2.721 -0.3564  0.6397  0.3766
 2131TIP3    H128028   3.832   0.714   2.772  0.4198  1.6029  0.7562
 2131TIP3    H228029   3.859   0.615   2.661 -1.8038  3.3755 -1.4851
 2132TIP3   OH228030   3.030   2.932   2.267  0.0177 -0.2315 -0.4812
 2132TIP3    H128031   3.115   2.953   2.229  0.2317  1.2661  0.7192
 2132TIP3    H228032   2.991   2.869   2.206  2.1458 -1.3033 -0.8311
 2133TIP3   OH228033   5.435   6.432   0.639 -0.2586  0.6771  0.1137
 2133TIP3    H128034   5.341   6.424   0.656  0.1641 -2.4709  1.7354
 2133TIP3    H228035   5.450   6.377   0.562  0.5569 -1.1980  1.5405
 2134TIP3   OH228036   2.115   5.611   7.913 -0.3242 -0.1815  0.7256
 2134TIP3    H128037   2.120   5.705   7.931  0.9761  0.1709 -1.2364
 2134TIP3    H228038   2.081   5.605   7.824  1.4394 -1.4763  0.0986
 2135TIP3   OH228039   2.547   2.101   3.078  0.2826 -0.4408 -0.1264
 2135TIP3    H128040   2.499   2.019   3.084 -0.3461 -0.0227  0.9868
 2135TIP3    H228041   2.534   2.142   3.164 -2.0398  2.2554 -1.6129
 2136TIP3   OH228042   0.510   4.041   2.254  0.1924  0.4336 -0.3692
 2136TIP3    H128043   0.575   4.055   2.323 -0.2077  0.4549  0.0060
 2136TIP3    H228044   0.560   4.047   2.173  0.5708  0.9765 -0.1029
 2137TIP3   OH228045   3.638   1.291   7.843 -0.3836  0.0462  0.3178
 2137TIP3    H128046   3.599   1.356   7.785  0.1115 -0.9442 -1.1958
 2137TIP3    H228047   3.569   1.226   7.856 -0.0490 -0.4576 -0.3572
 2138TIP3   OH228048   6.818   1.632   8.495 -0.5900 -0.7203 -0.5556
 2138TIP3    H128049   6.751   1.627   8.426  1.1479  0.2871 -2.4272
 2138TIP3    H228050   6.877   1.559   8.475 -0.5419 -0.9722  0.4668
 2139TIP3   OH228051   5.330   2.144   0.434  0.8004  0.1265 -1.0050
 2139TIP3    H128052   5.385   2.177   0.505 -0.2710 -0.1412 -0.0211
 2139TIP3    H228053   5.345   2.050   0.434 -2.0989 -0.5084  1.5715
 2140TIP3   OH228054   3.922   0.650   1.324  0.3263  0.1836 -0.1519
 2140TIP3    H128055   3.992   0.596   1.360  1.6626  0.2235 -2.4658
 2140TIP3    H228056   3.959   0.738   1.322  0.0944  0.2767 -1.0088
 2141TIP3   OH228057   5.219   1.260   0.150  0.4715  0.3661 -0.8853
 2141TIP3    H128058   5.276   1.193   0.188 -0.5207  0.1848  0.3545
 2141TIP3    H228059   5.272   1.340   0.150  0.2368  0.6410  1.9440
 2142TIP3   OH228060   4.360   0.332   7.165 -0.1587  0.0201 -0.3306
 2142TIP3    H128061   4.302   0.303   7.235 -2.0207  0.2170 -1.7005
 2142TIP3    H228062   4.409   0.255   7.140 -0.5956 -0.4276  0.1738
 2143TIP3   OH228063   6.566   5.119   1.980 -0.4011 -0.1651  0.4600
 2143TIP3    H128064   6.549   5.025   1.986 -2.7364  0.0824 -0.9607
 2143TIP3    H228065   6.575   5.136   1.886 -0.3136  1.0607  0.6769
 2144TIP3   OH228066   1.216   6.391   1.208  0.4162 -0.2772 -0.0609
 2144TIP3    H128067   1.260   6.429   1.132 -1.3708 -0.3337 -1.1731
 2144TIP3    H228068   1.274   6.411   1.281  2.2519 -0.3195 -1.4301
 2145TIP3   OH228069   3.242   5.692   1.567  0.2229  0.1793 -0.0895
 2145TIP3    H128070   3.157   5.679   1.525  0.5517 -1.4479 -0.3143
 2145TIP3    H228071   3.248   5.621   1.631  0.8795  1.0438  0.8429
 2146TIP3   OH228072   2.951   0.338   1.438  0.2501  0.3646 -0.3014
 2146TIP3    H128073   2.929   0.394   1.364 -0.0163  0.0875 -0.4307
 2146TIP3    H228074   2.957   0.250   1.401  1.5476  0.4134 -0.2757
 2147TIP3   OH228075   0.424   2.755   2.196  0.0834 -0.2802 -0.4052
 2147TIP3    H128076   0.386   2.714   2.118  1.0298 -1.8056 -0.1202
 2147TIP3    H228077   0.519   2.746   2.183  0.2520 -0.8558  1.0514
 2148TIP3   OH228078   4.671   1.821   2.505 -0.1552  0.4820 -0.4027
 2148TIP3    H128079   4.736   1.824   2.434 -0.3641  1.6961 -0.5670
 2148TIP3    H228080   4.589   1.845   2.462 -0.7648 -1.1503 -0.2203
 2149TIP3   OH228081   6.017   5.728   0.053 -0.0479  0.2543  0.6155
 2149TIP3    H128082   6.008   5.786   0.128  1.4267 -0.0547  1.0582
 2149TIP3    H228083   6.067   5.780  -0.011 -0.6477  0.2522  0.1392
 2150TIP3   OH228084   4.418   1.345   2.215 -1.0130  0.0670 -0.0545
 2150TIP3    H128085   4.364   1.422   2.197 -2.2140 -0.4513  1.1490
 2150TIP3    H228086   4.356   1.272   2.211 -0.9541 -0.3516  3.5437
 2151TIP3   OH228087   6.714   3.658   8.203 -0.4079  0.3986 -0.2523
 2151TIP3    H128088   6.785   3.721   8.210 -1.8480  1.9746  1.0243
 2151TIP3    H228089   6.755   3.573   8.222  0.8437  1.4818  2.3758
 2152TIP3   OH228090   6.501   5.952   0.365 -0.4321 -0.4772  0.6780
 2152TIP3    H128091   6.429   5.941   0.303 -0.2903 -2.6330  0.8048
 2152TIP3    H228092   6.550   5.870   0.359  1.7303  0.7304  0.9873
 2153TIP3   OH228093   3.604   5.145   0.096 -0.3797 -0.1831  0.3321
 2153TIP3    H128094   3.511   5.137   0.075 -0.3948 -1.5165  0.7935
 2153TIP3    H228095   3.606   5.172   0.188 -0.3173  6.0216 -1.0920
 2154TIP3   OH228096   6.850   6.213   2.618  0.1883 -0.0474 -0.1296
 2154TIP3    H128097   6.825   6.145   2.681  0.8188  0.3011  0.5247
 2154TIP3    H228098   6.875   6.166   2.539 -1.4534 -0.4561 -0.4435
 2155TIP3   OH228099   1.837   3.735   1.316 -0.1730  0.8458  0.2527
 2155TIP3    H128100   1.880   3.666   1.267 -0.0113  1.4675 -0.4970
 2155TIP3    H228101   1.801   3.691   1.393 -1.1624 -0.3195 -0.8184
 2156TIP3   OH228102   1.578   0.417   7.298 -0.1737 -0.3703  0.1243
 2156TIP3    H128103   1.660   0.370   7.311  0.4456  0.6112 -0.1403
 2156TIP3    H228104   1.522   0.355   7.251  0.1759 -1.2706  0.8553
 2157TIP3   OH228105   6.114   2.651   8.595  0.1129 -0.0648  0.2844
 2157TIP3    H128106   6.037   2.696   8.560  0.8693  1.9787  1.0554
 2157TIP3    H228107   6.127   2.576   8.537 -0.8571  1.0849 -1.5131
 2158TIP3   OH228108   1.243   6.667   0.458 -0.3601 -0.5371  0.2534
 2158TIP3    H128109   1.283   6.582   0.474 -0.9609 -1.2094 -1.5728
 2158TIP3    H228110   1.281   6.696   0.376 -2.5457 -0.5840 -0.8450
 2159TIP3   OH228111   2.131   1.880   8.185  0.4198  0.4376  0.3011
 2159TIP3    H128112   2.188   1.954   8.206  0.4397  0.3519  0.5550
 2159TIP3    H228113   2.158   1.854   8.097  0.0546  1.0633 -0.0028
 2160TIP3   OH228114   4.712   0.033   8.500 -0.3122  0.0868  0.1792
 2160TIP3    H128115   4.686   0.120   8.531  0.2407  0.4294 -0.3210
 2160TIP3    H228116   4.802   0.044   8.469 -0.4104 -0.5583 -0.3378
 2161TIP3   OH228117   5.858   3.343   1.585 -0.4007  0.9362 -0.0609
 2161TIP3    H128118   5.923   3.324   1.518  1.8763 -0.7547  2.4236
 2161TIP3    H228119   5.806   3.263   1.592 -1.1487  1.3888 -0.3187
 2162TIP3   OH228120   6.775   3.912   7.964 -0.6103  0.7263 -0.4534
 2162TIP3    H128121   6.862   3.936   7.932 -0.5593  1.0768 -0.0670
 2162TIP3    H228122   6.766   3.961   8.046 -1.7812  1.9053 -1.2323
 2163TIP3   OH228123   6.857   0.541   0.052 -0.1531 -0.4900  0.0427
 2163TIP3    H128124   6.900   0.536  -0.033 -0.1663  0.4651 -0.0316
 2163TIP3    H228125   6.926   0.520   0.115 -0.6116 -3.3158 -0.2548
 2164TIP3   OH228126   0.926   6.392   0.908 -1.0200  0.1035  0.0708
 2164TIP3    H128127   0.838   6.430   0.917 -1.6152 -0.8602 -1.3229
 2164TIP3    H228128   0.915   6.321   0.844  0.8619  0.2689 -0.4922
 2165TIP3   OH228129   0.200   5.445   2.177 -0.2479 -0.0081  0.0347
 2165TIP3    H128130   0.203   5.401   2.092 -1.4020 -1.6961  0.8226
 2165TIP3    H228131   0.264   5.516   2.169  1.7168 -1.8013 -1.3237
 2166TIP3   OH228132   6.651   2.492   3.653 -0.2643 -0.6557  0.1373
 2166TIP3    H128133   6.641   2.540   3.571  2.1248  0.2271  0.2978
 2166TIP3    H228134   6.591   2.534   3.713  0.3271  0.8497 -0.2883
 2167TIP3   OH228135   3.829   5.842   7.679  0.1826 -0.4350 -0.3968
 2167TIP3    H128136   3.890   5.805   7.743  0.8956  1.5650  0.1353
 2167TIP3    H228137   3.864   5.928   7.659 -1.2552 -0.1314 -1.8248
 2168TIP3   OH228138   0.485   6.055   7.935 -0.3278 -0.0546 -0.1724
 2168TIP3    H128139   0.504   5.971   7.893 -0.8498 -0.1569 -0.2080
 2168TIP3    H228140   0.564   6.107   7.919 -1.3568  0.7817 -3.4672
 2169TIP3   OH228141   2.490   4.898   2.887 -0.4133  0.5908  0.2067
 2169TIP3    H128142   2.467   4.948   2.966  1.3188 -1.2365  1.9718
 2169TIP3    H228143   2.585   4.886   2.893 -0.2303  0.4159 -2.2098
 2170TIP3   OH228144   5.537   1.919   0.146 -0.3790 -0.3935  0.4572
 2170TIP3    H128145   5.533   1.825   0.167  0.0084 -0.0245  2.3109
 2170TIP3    H228146   5.447   1.948   0.150 -0.5499 -0.7381 -0.5043
 2171TIP3   OH228147   5.207   1.017   1.665 -0.3752  0.3791 -0.4078
 2171TIP3    H128148   5.121   1.051   1.692 -0.4382  0.1228 -0.2757
 2171TIP3    H228149   5.201   1.011   1.570 -0.7295 -0.2072 -0.3580
 2172TIP3   OH228150   3.887   1.741   0.313  0.4969 -0.0985  0.4487
 2172TIP3    H128151   3.800   1.734   0.275  0.7614 -2.3622  0.1034
 2172TIP3    H228152   3.895   1.663   0.369  1.7929  0.7870  1.5816
 2173TIP3   OH228153   3.264   5.296   7.761  0.4354 -0.1698  0.2650
 2173TIP3    H128154   3.211   5.369   7.730 -0.1161 -0.7995 -0.2985
 2173TIP3    H228155   3.211   5.257   7.832  0.1275 -0.8039 -0.3045
 2174TIP3   OH228156   1.723   4.601   2.518  0.1984  0.1009 -0.1385
 2174TIP3    H128157   1.633   4.582   2.490  0.5329 -0.0680 -1.1364
 2174TIP3    H228158   1.712   4.661   2.592 -0.7599 -0.6808  0.3819
 2175TIP3   OH228159   6.002   3.321   1.338 -0.2143 -0.2070  0.5869
 2175TIP3    H128160   6.002   3.416   1.328  4.4554  0.0719  1.0304
 2175TIP3    H228161   6.004   3.288   1.249 -0.8870  0.1207  0.4413
 2176TIP3   OH228162   3.445   1.997   2.609 -0.5397 -0.1282  0.5046
 2176TIP3    H128163   3.416   1.925   2.665 -1.0291 -0.9867 -0.8029
 2176TIP3    H228164   3.364   2.040   2.583 -0.3122  0.2827  0.4751
 2177TIP3   OH228165   2.560   5.840   8.261 -0.3004  0.6983  0.8414
 2177TIP3    H128166   2.500   5.895   8.311  0.4049  1.6934  0.6296
 2177TIP3    H228167   2.591   5.775   8.324 -0.5553  1.0138  1.3011
 2178TIP3   OH228168   0.438   0.866   1.258  0.6557 -0.2146 -0.0001
 2178TIP3    H128169   0.413   0.958   1.263  0.7164 -0.2320  0.7898
 2178TIP3    H228170   0.493   0.852   1.335  0.4788 -0.9580 -0.0020
 2179TIP3   OH228171   3.393   4.673   2.357  0.2134  0.9017 -0.7959
 2179TIP3    H128172   3.444   4.733   2.411  1.4822 -1.9597  1.4094
 2179TIP3    H228173   3.313   4.658   2.407  0.2358  0.1951 -0.9682
 2180TIP3   OH228174   2.618   5.413   1.285 -0.1775 -0.1718  0.1510
 2180TIP3    H128175   2.577   5.464   1.215 -0.2909  1.1138  1.1073
 2180TIP3    H228176   2.704   5.390   1.251 -0.2622  0.3740 -0.4463
 2181TIP3   OH228177   0.331   2.734   1.551  0.0106 -0.4720  0.3671
 2181TIP3    H128178   0.419   2.703   1.574 -0.5865 -1.8503  0.9487
 2181TIP3    H228179   0.314   2.693   1.466 -0.1764 -0.4493  0.3943
 2182TIP3   OH228180   5.660   0.389   2.663 -0.2817 -0.0430  0.5386
 2182TIP3    H128181   5.679   0.394   2.569 -2.0365  2.9288  0.2179
 2182TIP3    H228182   5.740   0.418   2.706 -0.1087  0.5544 -0.1599
 2183TIP3   OH228183   4.971   2.940   7.959 -0.1278  0.3094 -0.4123
 2183TIP3    H128184   4.958   2.883   7.884  0.9895  0.3915 -0.6877
 2183TIP3    H228185   5.055   2.982   7.943 -0.6829  1.6424  0.0477
 2184TIP3   OH228186   5.215   6.857   1.032  0.3156 -0.3421  0.0082
 2184TIP3    H128187   5.140   6.885   1.085  1.7331  1.0778  1.3839
 2184TIP3    H228188   5.206   6.762   1.026 -0.7007 -0.3893  1.6228
 2185TIP3   OH228189   6.797   2.981   1.538 -1.0507 -0.6706  0.1323
 2185TIP3    H128190   6.799   2.945   1.449 -1.1509 -0.7836  0.1755
 2185TIP3    H228191   6.836   2.912   1.592  0.4382 -0.0068 -0.0348
 2186TIP3   OH228192   6.629   4.169   0.709 -0.1984  0.5301 -0.0211
 2186TIP3    H128193   6.542   4.209   0.712  0.1090  1.3012 -0.9679
 2186TIP3    H228194   6.672   4.210   0.634  0.2636 -1.3139 -0.8308
 2187TIP3   OH228195   2.800   0.397   7.897  0.0141 -0.3685 -0.3330
 2187TIP3    H128196   2.722   0.355   7.862 -2.0887  1.4367  1.8805
 2187TIP3    H228197   2.840   0.441   7.822 -1.0247 -1.3744 -1.5185
 2188TIP3   OH228198   6.113   5.406   0.039  0.3660 -0.1863  0.7161
 2188TIP3    H128199   6.069   5.491   0.036 -1.1363 -0.9661 -0.4472
 2188TIP3    H228200   6.050   5.345   0.002  1.1743 -1.9428  2.0860
 2189TIP3   OH228201   6.303   4.212   8.071 -0.1663 -0.7200 -0.0392
 2189TIP3    H128202   6.332   4.159   8.145  2.1519  0.4183 -0.0364
 2189TIP3    H228203   6.374   4.274   8.056 -1.4217  0.3839 -1.9904
 2190TIP3   OH228204   2.428   3.112   7.938 -0.4683 -0.7235  0.4110
 2190TIP3    H128205   2.518   3.099   7.967 -0.0454  1.8513  0.4303
 2190TIP3    H228206   2.377   3.108   8.019 -0.0012  0.6135  0.7906
 2191TIP3   OH228207   3.838   0.592   0.168 -0.6227  0.4022  0.4348
 2191TIP3    H128208   3.862   0.685   0.167 -0.5650  0.4094 -1.6037
 2191TIP3    H228209   3.900   0.551   0.107  1.0042 -1.4624  3.1245
 2192TIP3   OH228210   2.969   0.786   0.528 -0.1247 -0.1291  0.2130
 2192TIP3    H128211   3.011   0.872   0.536 -1.2296  0.4209  0.3775
 2192TIP3    H228212   3.035   0.724   0.557  1.1131  0.5569 -1.0407
 2193TIP3   OH228213   1.261   5.198   1.936 -0.3586 -0.5522  0.2459
 2193TIP3    H128214   1.341   5.152   1.962  1.0040  1.6489  0.2243
 2193TIP3    H228215   1.225   5.232   2.019 -1.2812 -1.4966  0.2515
 2194TIP3   OH228216   6.476   6.813   1.002 -0.0706  0.8111 -0.8766
 2194TIP3    H128217   6.411   6.755   0.962  0.2361  0.5254 -0.9698
 2194TIP3    H228218   6.511   6.762   1.076  0.6074  0.6432 -1.2999
 2195TIP3   OH228219   2.763   6.028   3.411  0.2432 -0.2895  0.4390
 2195TIP3    H128220   2.833   6.085   3.443 -1.2248  2.9390 -1.5447
 2195TIP3    H228221   2.690   6.043   3.472 -0.8333  1.8060 -1.2059
 2196TIP3   OH228222   5.332   3.610   2.472  0.2028  0.4690  0.0366
 2196TIP3    H128223   5.278   3.555   2.416 -0.0377 -0.9258  1.5489
 2196TIP3    H228224   5.270   3.657   2.527  0.4593 -0.5253  1.2225
 2197TIP3   OH228225   6.794   1.980   2.826 -0.3982 -0.2980  0.0432
 2197TIP3    H128226   6.785   1.959   2.919 -0.9175 -1.2688 -0.2104
 2197TIP3    H228227   6.704   1.977   2.792 -0.2308  0.2197 -0.4520
 2198TIP3   OH228228   6.708   0.861   2.973  0.0208  0.1307  0.5680
 2198TIP3    H128229   6.722   0.843   2.880 -0.2849  0.4016  0.4689
 2198TIP3    H228230   6.755   0.943   2.989  1.3232 -0.6559  0.9947
 2199TIP3   OH228231   6.131   3.212   0.633  0.1299 -0.0633  0.1043
 2199TIP3    H128232   6.145   3.289   0.578 -0.9743 -0.7226 -1.1522
 2199TIP3    H228233   6.183   3.143   0.593 -1.4245 -0.7977 -0.7328
 2200TIP3   OH228234   4.056   1.393   2.683 -0.0846 -0.0116 -0.6896
 2200TIP3    H128235   3.979   1.372   2.736 -1.7850  3.1877 -1.6208
 2200TIP3    H228236   4.116   1.435   2.744 -0.1530 -0.2367 -0.4629
 2201TIP3   OH228237   3.562   5.701   2.359  0.4349  0.1119  0.1522
 2201TIP3    H128238   3.617   5.649   2.418 -1.3494 -0.2067  1.6118
 2201TIP3    H228239   3.474   5.695   2.396 -0.5622  0.8379 -1.9475
 2202TIP3   OH228240   2.570   3.728   0.106 -0.6313  0.5802  0.8046
 2202TIP3    H128241   2.474   3.731   0.106 -0.6625 -0.2142  1.1165
 2202TIP3    H228242   2.592   3.647   0.153  0.1432 -0.3487 -1.0503
 2203TIP3   OH228243   5.895   0.226   2.519 -0.0074 -0.8477 -0.0994
 2203TIP3    H128244   5.967   0.287   2.535 -1.2234  0.5060  0.4702
 2203TIP3    H228245   5.890   0.173   2.599  0.7359 -1.3833 -0.3950
 2204TIP3   OH228246   5.557   0.715   2.642 -0.8240 -0.4998  0.3118
 2204TIP3    H128247   5.520   0.801   2.621  0.6946  0.6349  1.9428
 2204TIP3    H228248   5.564   0.670   2.558  0.0759  1.7335 -0.8926
 2205TIP3   OH228249   0.888   3.454   8.109  0.2968  0.2072  0.5678
 2205TIP3    H128250   0.852   3.472   8.196 -0.8068 -0.7694  0.3494
 2205TIP3    H228251   0.867   3.361   8.094  1.4988  0.0500 -0.2661
 2206TIP3   OH228252   6.619   2.590   3.405  0.3481 -0.2729  0.1624
 2206TIP3    H128253   6.575   2.545   3.333  0.5354 -1.9471  1.0543
 2206TIP3    H228254   6.590   2.681   3.397  0.3029 -0.4347 -1.9513
 2207TIP3   OH228255   5.191   1.794   1.129  0.4510  0.1230  0.1515
 2207TIP3    H128256   5.140   1.734   1.074  0.4170  0.8325 -0.6171
 2207TIP3    H228257   5.138   1.805   1.208  0.1210 -0.3006 -0.0060
 2208TIP3   OH228258   6.125   6.408   1.680  0.5416 -0.5338  0.2163
 2208TIP3    H128259   6.085   6.331   1.642 -2.7342  0.7819  0.6891
 2208TIP3    H228260   6.062   6.479   1.664  2.0956  1.4571  2.2147
 2209TIP3   OH228261   3.982   4.421   7.669  0.0866  0.3629 -0.1870
 2209TIP3    H128262   4.045   4.418   7.597  0.3630  0.2891  0.0570
 2209TIP3    H228263   4.004   4.345   7.723 -2.1252 -1.4859 -1.6883
 2210TIP3   OH228264   1.179   6.427   8.098 -0.2020  0.6544 -0.5689
 2210TIP3    H128265   1.104   6.378   8.132  0.0439 -0.4457 -1.5700
 2210TIP3    H228266   1.204   6.381   8.018  3.4098 -0.7996  1.2148
 2211TIP3   OH228267   1.644   0.077   1.886 -0.3806 -0.6676 -0.6752
 2211TIP3    H128268   1.685   0.157   1.854  0.6753 -1.3544 -1.0661
 2211TIP3    H228269   1.663   0.077   1.980 -1.9284  0.4184 -0.3024
 2212TIP3   OH228270   5.922   5.838   7.819 -0.0333 -0.4661 -0.8669
 2212TIP3    H128271   5.899   5.886   7.740 -2.0739 -0.6664 -0.4531
 2212TIP3    H228272   5.956   5.905   7.879  2.5910 -0.4740 -2.2125
 2213TIP3   OH228273   5.840   2.681   8.454  0.0958 -0.1849 -0.1339
 2213TIP3    H128274   5.829   2.763   8.407  0.2715  0.2732  0.6122
 2213TIP3    H228275   5.862   2.617   8.386  0.8585  0.5729 -0.6206
 2214TIP3   OH228276   4.771   4.191   0.926 -0.1625  0.1839 -0.3370
 2214TIP3    H128277   4.819   4.263   0.885 -0.3501  0.0989 -0.7084
 2214TIP3    H228278   4.679   4.209   0.906 -0.1919 -0.2931 -0.6581
 2215TIP3   OH228279   6.058   4.866   2.428 -0.1052  0.3570  0.3570
 2215TIP3    H128280   6.064   4.817   2.510  0.2628 -0.0781  0.0759
 2215TIP3    H228281   6.149   4.891   2.408  0.4729 -2.9376 -1.9350
 2216TIP3   OH228282   1.301   2.736   8.573 -0.2999  0.6159 -0.4606
 2216TIP3    H128283   1.311   2.827   8.601  2.1722  0.4973 -0.7818
 2216TIP3    H228284   1.329   2.736   8.482  1.7358 -0.7813  0.1088
 2217TIP3   OH228285   1.085   0.424   1.587  0.2936 -0.1926 -0.2195
 2217TIP3    H128286   0.992   0.428   1.609  0.5956  3.2166  0.9745
 2217TIP3    H228287   1.130   0.419   1.671  1.2160  0.3675 -0.6526
 2218TIP3   OH228288   0.383   4.690   7.059 -0.0805  0.2124  0.4139
 2218TIP3    H128289   0.313   4.636   7.023 -1.5185  1.7889  0.6791
 2218TIP3    H228290   0.461   4.667   7.008 -1.2512 -0.1633 -1.2774
 2219TIP3   OH228291   4.948   4.949   2.914 -0.8747  0.3982 -0.4295
 2219TIP3    H128292   5.008   4.935   2.841 -0.4698  1.0528 -0.2299
 2219TIP3    H228293   4.983   4.897   2.986 -1.7057 -0.8743 -0.9139
 2220TIP3   OH228294   1.713   4.458   3.149  0.3931  0.1113  0.0598
 2220TIP3    H128295   1.799   4.465   3.108  0.9923  1.2741  1.4337
 2220TIP3    H228296   1.715   4.521   3.221 -1.3588 -0.3527  0.5730
 2221TIP3   OH228297   1.652   4.156   1.773  0.1364 -0.0339  0.3765
 2221TIP3    H128298   1.666   4.086   1.836 -1.2415 -0.0565  0.7000
 2221TIP3    H228299   1.574   4.129   1.724  0.7183  0.3587 -0.8086
 2222TIP3   OH228300   2.022   0.769   8.392  0.0142 -0.1600  0.2027
 2222TIP3    H128301   1.933   0.753   8.361  0.3736 -0.8415 -0.5120
 2222TIP3    H228302   2.040   0.697   8.452  0.4366 -0.6000 -0.4375
 2223TIP3   OH228303   5.649   0.269   1.145  0.5621  0.0473 -0.1381
 2223TIP3    H128304   5.663   0.177   1.120  1.1273  0.2071 -0.4373
 2223TIP3    H228305   5.621   0.312   1.064  2.5327  0.5971 -0.5878
 2224TIP3   OH228306   5.047   0.222   1.865  0.2834  0.1218 -0.4161
 2224TIP3    H128307   5.016   0.294   1.920 -0.6225  0.7262 -1.6895
 2224TIP3    H228308   5.044   0.146   1.923 -2.8721  0.2724 -0.1975
 2225TIP3   OH228309   2.450   1.311   0.042 -0.2573 -0.4904 -0.2481
 2225TIP3    H128310   2.410   1.326   0.127 -1.9407 -0.7702 -0.9517
 2225TIP3    H228311   2.502   1.390   0.025  1.4016 -1.0774  1.6810
 2226TIP3   OH228312   5.948   5.690   2.955 -0.3861 -1.3220  0.0951
 2226TIP3    H128313   5.868   5.665   3.003 -0.9809  0.7719  0.3300
 2226TIP3    H228314   5.982   5.764   3.005  0.9846 -1.3562 -0.7606
 2227TIP3   OH228315   2.104   5.996   1.352  0.7794 -0.1393  0.0629
 2227TIP3    H128316   2.194   6.011   1.382  0.4167  0.3138  0.9502
 2227TIP3    H228317   2.059   5.959   1.429  0.4533 -1.3047 -0.6684
 2228TIP3   OH228318   1.390   1.637   8.283  0.3354 -0.0557 -0.2878
 2228TIP3    H128319   1.428   1.554   8.252 -1.0782 -1.1120  0.6706
 2228TIP3    H228320   1.311   1.611   8.330 -1.0998  1.9703 -1.4055
 2229TIP3   OH228321   1.547   1.402   1.529  0.6834 -0.1462  0.0790
 2229TIP3    H128322   1.526   1.443   1.446  1.4798  1.7022  0.7478
 2229TIP3    H228323   1.480   1.334   1.540  0.4796 -0.3272 -1.9646
 2230TIP3   OH228324   1.599   2.454   7.878  0.1012 -0.0819  0.7735
 2230TIP3    H128325   1.647   2.496   7.807  1.9993 -1.0188  1.4334
 2230TIP3    H228326   1.514   2.433   7.840  0.5864  0.6238 -0.8014
 2231TIP3   OH228327   0.872   6.762   0.376  0.3527  0.1297  0.0075
 2231TIP3    H128328   0.779   6.742   0.379  0.3799 -0.1395 -0.7627
 2231TIP3    H228329   0.906   6.733   0.461 -0.1770 -0.1982  0.1116
 2232TIP3   OH228330   6.662   0.214   3.248  0.2746  0.0477 -0.1816
 2232TIP3    H128331   6.708   0.130   3.241 -0.5290 -0.3688 -0.6523
 2232TIP3    H228332   6.626   0.229   3.160 -1.3319 -0.1498  0.4138
 2233TIP3   OH228333   1.921   0.490   2.448  0.2830  0.2669  0.5056
 2233TIP3    H128334   1.911   0.581   2.477  0.7855  0.4065  0.2523
 2233TIP3    H228335   2.014   0.481   2.427  0.5214 -0.7104  1.8439
 2234TIP3   OH228336   1.334   5.901   3.214  0.7996  0.3520  0.2962
 2234TIP3    H128337   1.320   5.865   3.127  0.3739  0.4011  0.3442
 2234TIP3    H228338   1.325   5.995   3.203  0.1829  0.3196  0.4976
 2235TIP3   OH228339   3.936   6.780   0.232  0.0616  0.5634 -0.0755
 2235TIP3    H128340   3.911   6.801   0.321 -0.6311  1.2321 -0.4165
 2235TIP3    H228341   3.988   6.856   0.203 -1.4830  1.3517 -0.9276
 2236TIP3   OH228342   3.571   1.080   8.025  0.4957 -0.4651  0.0442
 2236TIP3    H128343   3.664   1.105   8.016  0.6142 -1.3345 -1.4965
 2236TIP3    H228344   3.562   1.053   8.116  1.4418  0.8505  0.5602
 2237TIP3   OH228345   2.735   6.588   0.603 -0.3284 -0.8304 -0.5886
 2237TIP3    H128346   2.721   6.580   0.509 -0.4566 -0.2803 -0.6172
 2237TIP3    H228347   2.703   6.505   0.639  0.5189 -1.4044 -1.1157
 2238TIP3   OH228348   6.042   1.485   1.043 -0.6114 -0.0989  0.5745
 2238TIP3    H128349   6.001   1.560   1.000 -0.0488  0.2061  0.5492
 2238TIP3    H228350   6.035   1.414   0.980  0.4812  0.4254 -0.1820
 2239TIP3   OH228351   1.374   4.686   2.895  0.1425 -0.3119 -0.2254
 2239TIP3    H128352   1.362   4.652   2.807 -0.5221 -0.4192 -0.1007
 2239TIP3    H228353   1.374   4.609   2.951 -1.8749 -0.1152  0.1120
 2240TIP3   OH228354   1.647   2.488   0.765  0.0951 -0.3537  0.2764
 2240TIP3    H128355   1.738   2.513   0.784  0.3593 -1.6999  0.9114
 2240TIP3    H228356   1.618   2.552   0.701  1.2603  0.5456  0.6094
 2241TIP3   OH228357   4.541   4.720   0.043  0.1765 -0.7669  0.1909
 2241TIP3    H128358   4.590   4.657   0.096 -1.0519 -1.0382  1.0316
 2241TIP3    H228359   4.450   4.706   0.067 -0.1994  0.7340 -0.2710
 2242TIP3   OH228360   2.271   3.351   0.118  0.6528  0.1618  0.3691
 2242TIP3    H128361   2.288   3.345   0.024  0.2386  1.2386  0.2035
 2242TIP3    H228362   2.282   3.262   0.150 -0.8082 -0.5711 -0.9777
 2243TIP3   OH228363   4.241   3.093   8.084  0.4952  1.0451 -0.8793
 2243TIP3    H128364   4.180   3.159   8.053 -0.3842  0.1411 -1.1069
 2243TIP3    H228365   4.260   3.120   8.174 -0.7371  0.9991 -0.5837
 2244TIP3   OH228366   0.298   2.225   2.652 -0.5336 -0.3944  0.3373
 2244TIP3    H128367   0.336   2.194   2.734 -0.7409  1.8578  1.3411
 2244TIP3    H228368   0.204   2.233   2.671 -0.6441 -0.2422 -0.2585
 2245TIP3   OH228369   4.900   6.748   2.242  0.0494  0.5284 -0.3150
 2245TIP3    H128370   4.823   6.737   2.298 -0.3188 -0.1259 -0.9403
 2245TIP3    H228371   4.974   6.735   2.301 -0.3008  1.3247  0.3285
 2246TIP3   OH228372   2.112   1.383   2.593 -0.4126  0.2404 -0.4578
 2246TIP3    H128373   2.041   1.357   2.651 -0.6884  1.5513 -0.1831
 2246TIP3    H228374   2.073   1.382   2.505 -1.1926  2.2549 -0.1799
 2247TIP3   OH228375   4.231   5.904   0.895 -0.1453  0.2751 -0.5352
 2247TIP3    H128376   4.156   5.844   0.898  0.4889 -0.6006 -1.5606
 2247TIP3    H228377   4.307   5.849   0.908  0.3965  0.9948 -0.5805
 2248TIP3   OH228378   6.611   6.121   1.526 -0.1847 -0.3175 -0.2414
 2248TIP3    H128379   6.677   6.179   1.487 -0.6178  2.3412  2.5460
 2248TIP3    H228380   6.529   6.144   1.483 -0.4415  1.6536  1.1756
 2249TIP3   OH228381   1.327   2.799   2.798  0.2471  0.3261  0.1624
 2249TIP3    H128382   1.277   2.880   2.808  1.1600  1.1417 -1.4680
 2249TIP3    H228383   1.314   2.775   2.706  0.5313 -1.0290  0.4579
 2250TIP3   OH228384   5.920   6.882   2.658  0.6279  0.2085  0.0829
 2250TIP3    H128385   5.869   6.831   2.595  1.3479  0.5569 -0.8117
 2250TIP3    H228386   5.894   6.848   2.743 -0.4439 -0.2103 -0.3962
 2251TIP3   OH228387   6.003   4.548   3.028  0.4976 -0.1060  0.3231
 2251TIP3    H128388   6.032   4.560   3.118 -3.5559  0.0886  1.8385
 2251TIP3    H228389   5.998   4.453   3.017  2.1082 -0.1523 -0.1634
 2252TIP3   OH228390   0.365   5.886   1.734  0.0081  0.2975 -0.4383
 2252TIP3    H128391   0.323   5.806   1.704 -1.7157  0.6548  0.8629
 2252TIP3    H228392   0.454   5.860   1.758 -0.7835 -1.4300  0.7673
 2253TIP3   OH228393   2.586   0.114   2.966  0.0241  0.1230 -0.5348
 2253TIP3    H128394   2.665   0.062   2.982  0.3913  0.6597 -0.5731
 2253TIP3    H228395   2.608   0.201   2.998  0.2106  0.8134 -2.4195
 2254TIP3   OH228396   4.640   5.708   8.194  0.5583 -0.5761  0.1573
 2254TIP3    H128397   4.735   5.713   8.197  0.6125 -1.2380 -0.1762
 2254TIP3    H228398   4.620   5.617   8.216  0.1251 -0.9949 -1.7669
 2255TIP3   OH228399   3.788   1.218   0.788  0.0421 -0.6122 -0.3859
 2255TIP3    H128400   3.812   1.132   0.754 -2.1161 -1.3614 -0.1557
 2255TIP3    H228401   3.828   1.280   0.727 -0.9187 -1.8462 -2.3800
 2256TIP3   OH228402   4.922   4.378   0.770 -0.0128 -0.4011  0.2926
 2256TIP3    H128403   4.867   4.454   0.786  0.6599  0.7366 -2.2974
 2256TIP3    H228404   5.012   4.411   0.779  0.2812 -1.0243 -0.2889
 2257TIP3   OH228405   6.871   0.728   3.225 -0.4601 -0.6120  0.3053
 2257TIP3    H128406   6.922   0.781   3.164 -0.6071 -0.9885 -0.1453
 2257TIP3    H228407   6.803   0.787   3.257 -0.1249 -0.2913  0.4343
 2258TIP3   OH228408   5.245   6.653   2.175  0.2125 -0.4202  0.0211
 2258TIP3    H128409   5.276   6.639   2.085  0.4479 -0.3862  0.0976
 2258TIP3    H228410   5.203   6.570   2.198 -0.3375 -0.2416 -0.3178
 2259TIP3   OH228411   3.072   1.618   2.281 -0.2358  0.2374  0.7525
 2259TIP3    H128412   3.143   1.596   2.342 -0.5768 -2.0232  0.4203
 2259TIP3    H228413   3.000   1.560   2.306 -0.7024 -0.0749 -1.1921
 2260TIP3   OH228414   5.967   4.527   7.321  0.5273 -0.9818  0.1651
 2260TIP3    H128415   5.875   4.553   7.319  0.5544 -0.9010 -0.1275
 2260TIP3    H228416   6.014   4.604   7.289  0.7011 -1.0065  0.3545
 2261TIP3   OH228417   1.081   1.616   0.797  0.3248  0.1810 -0.5461
 2261TIP3    H128418   1.101   1.568   0.716 -0.3342 -1.8304  0.4238
 2261TIP3    H228419   1.167   1.641   0.832  0.6396  0.5391 -1.5277
 2262TIP3   OH228420   0.802   3.050   8.229  0.3888  0.6703  0.0336
 2262TIP3    H128421   0.796   3.118   8.161  0.3066  0.1688 -0.4678
 2262TIP3    H228422   0.817   2.969   8.180 -0.4097  0.1904  0.5653
 2263TIP3   OH228423   2.568   3.722   2.442 -0.3799  0.4212 -0.4728
 2263TIP3    H128424   2.588   3.710   2.534  0.6771 -2.1563 -0.9652
 2263TIP3    H228425   2.480   3.758   2.440 -0.1090  1.3007  1.5201
 2264TIP3   OH228426   2.169   4.549   8.603 -0.2521  0.3335 -0.1526
 2264TIP3    H128427   2.164   4.607   8.528  1.8910  0.6223 -0.1408
 2264TIP3    H228428   2.117   4.591   8.671  0.7330  1.9544 -0.3547
 2265TIP3   OH228429   5.422   6.533   3.149  0.2071 -0.2160 -0.0717
 2265TIP3    H128430   5.339   6.489   3.129  1.2492 -1.4124 -2.0660
 2265TIP3    H228431   5.423   6.610   3.093  1.0095 -0.9727 -1.1581
 2266TIP3   OH228432   2.853   2.607   8.030  1.0053 -0.1084 -0.3485
 2266TIP3    H128433   2.936   2.586   8.071  1.0836  0.9718  0.0805
 2266TIP3    H228434   2.866   2.694   7.992  0.0132  0.1833 -0.0582
 2267TIP3   OH228435   4.211   1.795   1.717 -0.0153  0.0022  0.7464
 2267TIP3    H128436   4.124   1.761   1.695  0.0817  0.5807 -0.6148
 2267TIP3    H228437   4.195   1.858   1.787 -0.4609 -1.2002  1.7632
 2268TIP3   OH228438   6.668   1.078   8.188  0.9248 -0.3234  0.0889
 2268TIP3    H128439   6.659   1.172   8.177  2.7001 -0.1171  0.1288
 2268TIP3    H228440   6.622   1.041   8.113  1.5242  0.6374 -0.7796
 2269TIP3   OH228441   6.102   0.535   1.993  0.1774 -0.2232 -0.6000
 2269TIP3    H128442   6.081   0.443   1.982 -0.1829 -0.4258  1.4175
 2269TIP3    H228443   6.028   0.571   2.042  0.9159  0.8286 -0.2281
 2270TIP3   OH228444   1.918   2.067   8.207 -0.7066 -0.4591 -0.1677
 2270TIP3    H128445   1.907   2.047   8.114 -0.6564 -0.2930 -0.2107
 2270TIP3    H228446   1.988   2.009   8.236 -0.1704  0.0404 -0.4268
 2271TIP3   OH228447   0.243   5.205   8.082  0.1594  0.1050 -0.0663
 2271TIP3    H128448   0.279   5.186   7.995  2.3670  1.1294  0.5640
 2271TIP3    H228449   0.319   5.221   8.137 -1.2184  0.2053  1.9166
 2272TIP3   OH228450   4.447   0.107   0.003 -0.1248  0.1869  0.6252
 2272TIP3    H128451   4.515   0.172  -0.015 -0.2493  0.0859 -0.2699
 2272TIP3    H228452   4.373   0.134  -0.051 -0.3409 -0.4289  0.5989
 2273TIP3   OH228453   5.800   5.156   0.732 -0.3764  0.0547 -0.2026
 2273TIP3    H128454   5.858   5.232   0.733  0.3229 -0.4496 -1.0609
 2273TIP3    H228455   5.809   5.117   0.819  0.7591 -0.1494 -0.4002
 2274TIP3   OH228456   6.367   5.212   7.678 -0.3780  0.2916 -0.2463
 2274TIP3    H128457   6.447   5.262   7.668 -0.0524 -0.1869 -0.0510
 2274TIP3    H228458   6.303   5.275   7.712  0.0094  0.5848 -0.0666
 2275TIP3   OH228459   1.084   1.690   1.512 -0.6957 -0.6480  0.1180
 2275TIP3    H128460   1.088   1.595   1.515 -2.0008 -0.6961  0.5129
 2275TIP3    H228461   1.008   1.710   1.458 -0.4562  0.1842  0.0666
 2276TIP3   OH228462   4.991   0.404   8.524  0.1702  0.0179 -0.4037
 2276TIP3    H128463   5.002   0.442   8.436 -0.0726  0.6538 -0.1616
 2276TIP3    H228464   5.066   0.436   8.573  0.7126 -0.9438 -0.5768
 2277TIP3   OH228465   6.460   1.349   1.357 -0.3050 -0.3596 -0.5464
 2277TIP3    H128466   6.555   1.336   1.368 -0.1502  0.7280 -0.4826
 2277TIP3    H228467   6.437   1.414   1.424 -0.9170  0.0785 -1.1746
 2278TIP3   OH228468   1.089   4.473   0.162 -0.1721 -0.1069 -0.0407
 2278TIP3    H128469   0.998   4.493   0.182  0.1458  0.7354  0.6406
 2278TIP3    H228470   1.085   4.407   0.093 -1.2985  0.5533 -0.6368
 2279TIP3   OH228471   1.465   3.125   7.842  0.7781  0.2810  0.2808
 2279TIP3    H128472   1.400   3.191   7.868 -0.0807  0.3985 -1.9405
 2279TIP3    H228473   1.416   3.044   7.835  0.9318  0.2611 -0.8998
 2280TIP3   OH228474   0.625   5.013   1.860  0.2062  0.0990 -0.1414
 2280TIP3    H128475   0.653   4.930   1.822 -0.2941  0.1997 -0.7446
 2280TIP3    H228476   0.595   5.065   1.785  1.1720  1.0939  0.1338
 2281TIP3   OH228477   0.329   6.687   8.002  0.4844 -0.0428 -0.8084
 2281TIP3    H128478   0.422   6.664   8.002  0.6971  0.7572 -0.1040
 2281TIP3    H228479   0.320   6.748   7.929  0.6164  0.2608 -0.5723
 2282TIP3   OH228480   1.661   5.232   0.846  0.2302  0.0793  0.3885
 2282TIP3    H128481   1.626   5.311   0.805  0.1804 -0.2229 -0.1767
 2282TIP3    H228482   1.753   5.230   0.821  0.0135 -0.5380 -0.4394
 2283TIP3   OH228483   6.434   1.709   0.301 -0.7093 -1.1962 -0.2486
 2283TIP3    H128484   6.440   1.805   0.295 -0.7843 -1.1606  0.2355
 2283TIP3    H228485   6.354   1.687   0.252  0.0964 -1.1544 -1.6495
 2284TIP3   OH228486   0.692   2.434   8.378 -0.3169  0.2581 -0.1924
 2284TIP3    H128487   0.637   2.392   8.444  0.2529 -0.4716 -0.1719
 2284TIP3    H228488   0.723   2.514   8.421  1.2357 -0.9150  1.0159
 2285TIP3   OH228489   4.918   4.954   7.770  0.4610 -0.9446 -0.0348
 2285TIP3    H128490   4.872   4.904   7.838  0.3700 -0.3501  0.3527
 2285TIP3    H228491   4.877   4.927   7.688 -1.7017  0.7015  0.4130
 2286TIP3   OH228492   6.023   4.242   8.181  0.0415  0.2073 -0.1196
 2286TIP3    H128493   6.035   4.160   8.229  1.2952  1.1144  1.1963
 2286TIP3    H228494   6.107   4.257   8.138 -0.6730  0.0558 -1.6496
 2287TIP3   OH228495   4.189   6.715   1.193  0.0521  0.0499 -0.1532
 2287TIP3    H128496   4.247   6.653   1.148 -1.8877 -0.9343 -1.3932
 2287TIP3    H228497   4.162   6.776   1.125 -0.6189  0.3212  0.3487
 2288TIP3   OH228498   1.179   6.593   3.794 -0.4965 -0.0229 -0.0603
 2288TIP3    H128499   1.167   6.656   3.865 -0.7000 -1.1248  0.9185
 2288TIP3    H228500   1.148   6.639   3.716  0.9976  1.7171  0.2874
 2289TIP3   OH228501   1.529   1.246   8.674 -0.1736  0.1369 -0.2739
 2289TIP3    H128502   1.594   1.230   8.606 -0.4769  1.1958 -0.8379
 2289TIP3    H228503   1.451   1.276   8.626 -0.2837  1.2165  0.5488
 2290TIP3   OH228504   2.197   3.682   1.880  0.1927 -0.2113 -0.7266
 2290TIP3    H128505   2.135   3.612   1.860  1.6014 -1.9013  0.4953
 2290TIP3    H228506   2.176   3.751   1.817 -2.2113 -1.1125 -1.0143
 2291TIP3   OH228507   3.281   2.895   7.685  0.1948  0.0967  0.1836
 2291TIP3    H128508   3.205   2.886   7.627 -0.0742 -0.8877  0.6736
 2291TIP3    H228509   3.256   2.965   7.745  1.0346  2.1558 -1.6929
 2292TIP3   OH228510   4.974   1.641   0.125  0.6621 -0.5169  0.2042
 2292TIP3    H128511   4.980   1.733   0.150 -0.8050 -0.4763  0.4950
 2292TIP3    H228512   5.050   1.600   0.166  1.4472  0.5895 -0.1026
 2293TIP3   OH228513   1.453   6.768   3.614  0.4146  0.2550  0.1057
 2293TIP3    H128514   1.478   6.766   3.706  0.1599  1.4209  0.2213
 2293TIP3    H228515   1.359   6.786   3.616  0.2472 -0.5223 -0.3756
 2294TIP3   OH228516   1.547   6.720   0.653  0.0972 -0.1432 -0.0471
 2294TIP3    H128517   1.546   6.736   0.559 -2.2802  0.0808 -0.0540
 2294TIP3    H228518   1.531   6.806   0.692 -0.7592 -0.5185  0.4585
 2295TIP3   OH228519   4.953   6.616   2.005 -0.1694 -0.1481 -0.1178
 2295TIP3    H128520   4.896   6.639   1.932  0.0008  0.5712 -0.0373
 2295TIP3    H228521   4.921   6.669   2.078  2.2082  2.4156 -0.7347
 2296TIP3   OH228522   4.269   6.532   2.382  0.5464  0.1059  0.1211
 2296TIP3    H128523   4.178   6.501   2.378  0.2829  0.8712  0.1228
 2296TIP3    H228524   4.292   6.550   2.291  0.7394 -0.1925  0.1083
 2297TIP3   OH228525   1.607   0.322   8.655  0.5710 -0.0785 -0.4195
 2297TIP3    H128526   1.679   0.382   8.674 -0.4765  0.7930  1.0795
 2297TIP3    H228527   1.530   0.378   8.649 -0.3514 -1.1849  0.4428
 2298TIP3   OH228528   3.363   6.195   2.554  0.5822 -0.3242 -0.3343
 2298TIP3    H128529   3.353   6.204   2.649  0.1773  0.2672 -0.4270
 2298TIP3    H228530   3.452   6.225   2.536 -0.2494  2.2988 -0.4561
 2299TIP3   OH228531   0.486   5.409   1.828 -0.2249  0.0951  0.5730
 2299TIP3    H128532   0.576   5.391   1.801  0.1497  1.0647  1.1252
 2299TIP3    H228533   0.495   5.462   1.907 -1.2905 -0.2932  0.9784
 2300TIP3   OH228534   4.310   2.417   2.309  0.2900  0.1144 -0.3311
 2300TIP3    H128535   4.343   2.398   2.221 -0.8333 -0.1223 -0.7236
 2300TIP3    H228536   4.299   2.512   2.311  1.9840  0.3221  0.1841
 2301TIP3   OH228537   0.758   4.384   8.600 -0.0828 -0.1528  0.1147
 2301TIP3    H128538   0.831   4.435   8.564  0.2155 -1.3481 -1.0329
 2301TIP3    H228539   0.799   4.328   8.666 -0.2573  0.3667  0.6788
 2302TIP3   OH228540   1.999   1.523   0.971 -0.2255  0.3754  0.2025
 2302TIP3    H128541   2.044   1.467   0.908 -0.2907  0.3093  0.2134
 2302TIP3    H228542   2.029   1.611   0.952  0.8928  0.1972  1.0339
 2303TIP3   OH228543   1.265   3.044   2.387  0.2461 -0.1725 -0.2065
 2303TIP3    H128544   1.358   3.044   2.365 -0.0754 -1.4023 -1.7570
 2303TIP3    H228545   1.220   3.048   2.302 -1.1071 -0.5262  0.4600
 2304TIP3   OH228546   5.012   6.506   2.660 -0.0720  0.1176  0.5552
 2304TIP3    H128547   4.986   6.425   2.704  1.5600 -0.2450  0.9311
 2304TIP3    H228548   5.100   6.488   2.627  1.0244  2.2270  2.0426
 2305TIP3   OH228549   4.527   2.686   0.997 -0.0921 -0.4134 -0.2622
 2305TIP3    H128550   4.494   2.605   1.034  0.1104  0.1614  1.2485
 2305TIP3    H228551   4.623   2.676   0.997 -0.0274  0.1037  0.6479
 2306TIP3   OH228552   2.257   3.900   0.663  0.1342 -0.1475  0.0008
 2306TIP3    H128553   2.192   3.893   0.593  0.5337 -1.8600 -0.2431
 2306TIP3    H228554   2.212   3.948   0.733 -1.9548 -2.4948  0.4041
 2307TIP3   OH228555   5.928   6.420   6.981  0.4266 -0.2156  0.0740
 2307TIP3    H128556   5.864   6.465   7.035  2.1728  0.0004  2.1155
 2307TIP3    H228557   5.954   6.485   6.916 -0.8447 -0.0688 -0.3129
 2308TIP3   OH228558   0.718   0.577   0.706 -0.6318  0.1775 -0.2070
 2308TIP3    H128559   0.736   0.496   0.657 -2.0961 -0.3443  0.0550
 2308TIP3    H228560   0.773   0.643   0.665  2.0270 -1.3035  0.7430
 2309TIP3   OH228561   2.172   1.079   1.167 -0.2753 -0.4530  0.3203
 2309TIP3    H128562   2.151   1.004   1.111 -0.5750 -0.3210  0.2550
 2309TIP3    H228563   2.248   1.120   1.125 -3.0931  2.2822 -2.5715
 2310TIP3   OH228564   3.982   3.517   7.284 -0.0313 -0.4294  0.3122
 2310TIP3    H128565   3.949   3.499   7.196 -0.4157 -1.0628  0.5811
 2310TIP3    H228566   3.992   3.612   7.287 -0.2518 -0.3824 -0.3324
 2311TIP3   OH228567   2.870   1.165   1.113 -0.2672  0.5520 -0.3714
 2311TIP3    H128568   2.792   1.112   1.131 -0.7179  1.4256  0.2876
 2311TIP3    H228569   2.942   1.101   1.111 -1.0897 -0.4137 -1.9697
 2312TIP3   OH228570   1.025   2.816   0.929  0.1511  0.1747  0.2386
 2312TIP3    H128571   1.078   2.837   1.006 -0.6386  1.6885  0.4056
 2312TIP3    H228572   0.986   2.731   0.950 -1.6324  1.4211  2.4510
 2313TIP3   OH228573   1.410   3.856   0.502 -0.1218  0.3703 -0.5130
 2313TIP3    H128574   1.401   3.851   0.407 -0.4003  0.1842 -0.4799
 2313TIP3    H228575   1.379   3.771   0.533 -0.9932  0.7954 -0.1898
 2314TIP3   OH228576   2.820   1.015   8.169  0.0018  0.2323 -0.0686
 2314TIP3    H128577   2.870   1.036   8.091  0.1012 -0.7151 -0.2729
 2314TIP3    H228578   2.886   0.991   8.234 -0.0336  1.6708  0.5429
 2315TIP3   OH228579   2.849   0.345   0.799  0.3943  0.6414  0.2710
 2315TIP3    H128580   2.810   0.259   0.779  0.7088  0.8397 -1.3413
 2315TIP3    H228581   2.808   0.371   0.881 -0.2772 -0.7144  0.4037
 2316TIP3   OH228582   0.270   5.865   3.433  0.2753 -0.4819 -0.5390
 2316TIP3    H128583   0.241   5.955   3.421 -0.7927 -0.4321  1.9833
 2316TIP3    H228584   0.193   5.818   3.466  1.2961 -1.8993 -0.0620
 2317TIP3   OH228585   6.804   4.875   2.617 -0.2600 -0.5103 -0.3549
 2317TIP3    H128586   6.867   4.856   2.547 -0.1713 -0.1896 -0.3637
 2317TIP3    H228587   6.838   4.954   2.659 -0.5065 -0.4970 -0.1787
 2318TIP3   OH228588   4.852   5.727   7.521  0.5455  0.4454  0.0063
 2318TIP3    H128589   4.890   5.812   7.499  0.7622  0.4968  0.5720
 2318TIP3    H228590   4.766   5.727   7.480 -0.9865  2.3598  2.8854
 2319TIP3   OH228591   5.690   0.133   3.416  0.5574  0.0987 -0.2154
 2319TIP3    H128592   5.692   0.073   3.491  1.7504  0.1052 -0.2182
 2319TIP3    H228593   5.659   0.215   3.453  1.3066  0.1546  0.3326
 2320TIP3   OH228594   1.263   0.991   0.960  0.1772 -0.1380 -0.3567
 2320TIP3    H128595   1.188   1.043   0.988  0.6160  0.5816 -0.4904
 2320TIP3    H228596   1.238   0.958   0.873  0.9885  2.2324 -1.5884
 2321TIP3   OH228597   3.928   6.410   1.609  0.1448  0.0159  0.4205
 2321TIP3    H128598   3.924   6.372   1.521  2.5907  1.4933 -0.4109
 2321TIP3    H228599   3.876   6.349   1.663 -0.5935 -1.4777 -1.8099
 2322TIP3   OH228600   4.331   1.005   7.959 -0.1446 -0.1778  0.0240
 2322TIP3    H128601   4.376   1.043   7.883  1.3762 -0.9145  0.5249
 2322TIP3    H228602   4.402   0.982   8.019 -1.2617 -0.6715  1.1734
 2323TIP3   OH228603   3.463   1.420   0.592 -0.3710  0.1804 -0.4028
 2323TIP3    H128604   3.455   1.393   0.500  0.5238 -0.1260 -0.4037
 2323TIP3    H228605   3.517   1.499   0.589 -0.9430  0.5875 -0.1917
 2324TIP3   OH228606   5.022   5.565   0.159 -0.1748  0.6619 -0.2541
 2324TIP3    H128607   5.054   5.488   0.113  1.2082  0.0749  1.5653
 2324TIP3    H228608   4.944   5.591   0.111 -0.9816 -2.1669 -0.6642
 2325TIP3   OH228609   2.175   6.687   7.668 -0.0684 -0.5505  0.5551
 2325TIP3    H128610   2.178   6.605   7.619  1.5854 -0.1242 -0.1080
 2325TIP3    H228611   2.083   6.716   7.662 -0.6649 -2.3081  0.7825
 2326TIP3   OH228612   3.177   0.036   7.756 -0.3631  0.1288 -0.8648
 2326TIP3    H128613   3.202  -0.052   7.727 -0.7960  0.4327 -2.2393
 2326TIP3    H228614   3.226   0.095   7.699 -0.1779  0.7980 -0.0423
 2327TIP3   OH228615   0.160   4.577   0.191 -0.4036  0.0224 -0.1685
 2327TIP3    H128616   0.194   4.499   0.235  0.2190 -0.3067 -1.2099
 2327TIP3    H228617   0.103   4.544   0.122 -1.5771  0.5455  0.4988
 2328TIP3   OH228618   4.824   4.221   8.509 -0.1488  0.5090  0.1979
 2328TIP3    H128619   4.750   4.169   8.478  0.5633 -1.0720  1.0099
 2328TIP3    H228620   4.820   4.302   8.458 -1.9351  0.1203 -0.3540
 2329TIP3   OH228621   2.249   6.200   0.407 -0.2529 -0.3938  0.1435
 2329TIP3    H128622   2.225   6.205   0.315 -0.0248 -0.4216  0.0838
 2329TIP3    H228623   2.331   6.151   0.409  0.5263  0.8591  0.2224
 2330TIP3   OH228624   1.845   3.374   2.403 -0.0819 -0.1697  0.4642
 2330TIP3    H128625   1.935   3.343   2.401 -0.3048 -0.8531 -1.6507
 2330TIP3    H228626   1.821   3.372   2.495  1.9491 -0.2561  1.0422
 2331TIP3   OH228627   3.892   3.737   1.085  0.4931 -0.2654 -0.7219
 2331TIP3    H128628   3.950   3.690   1.145 -0.8976  0.5523  1.4246
 2331TIP3    H228629   3.806   3.698   1.101 -0.1114  0.7938 -1.3151
 2332TIP3   OH228630   0.832   2.006   2.924  0.7760 -0.2056  0.8752
 2332TIP3    H128631   0.762   2.040   2.981 -0.8505 -0.7538 -0.7106
 2332TIP3    H228632   0.898   1.972   2.985 -1.7333 -2.5176  2.4946
 2333TIP3   OH228633   1.292   5.752   3.527 -0.5391  0.0845  0.0133
 2333TIP3    H128634   1.251   5.716   3.448  0.5691 -2.6291  0.5808
 2333TIP3    H228635   1.371   5.795   3.495 -0.2764 -0.6976 -0.4243
 2334TIP3   OH228636   4.497   2.100   1.906  0.1471 -0.4325  0.0285
 2334TIP3    H128637   4.432   2.048   1.955 -0.9409  0.6086 -0.2799
 2334TIP3    H228638   4.561   2.125   1.972  0.3849 -1.6548  0.2995
 2335TIP3   OH228639   2.891   1.624   8.652  0.4359 -0.1399 -0.6302
 2335TIP3    H128640   2.982   1.621   8.624  0.2540 -1.2111 -1.1469
 2335TIP3    H228641   2.893   1.667   8.737  1.3058  0.7364 -1.0824
 2336TIP3   OH228642   3.005   6.118   2.668 -0.6286 -0.0411  0.6839
 2336TIP3    H128643   3.043   6.048   2.721  0.2383  0.0900  0.2509
 2336TIP3    H228644   2.940   6.159   2.726 -3.1169 -2.8195  0.1297
 2337TIP3   OH228645   0.650   3.701   0.316  0.3904 -0.5139 -0.3768
 2337TIP3    H128646   0.618   3.632   0.259 -0.3190  0.2725 -0.9607
 2337TIP3    H228647   0.581   3.713   0.382  0.4636 -0.2946 -0.3377
 2338TIP3   OH228648   2.168   1.951   1.533  0.4882  0.4216 -0.2601
 2338TIP3    H128649   2.134   1.978   1.449  0.2220 -1.2479 -0.7224
 2338TIP3    H228650   2.092   1.949   1.591  0.0189 -1.7586 -0.8861
 2339TIP3   OH228651   4.274   5.081   1.625 -0.3173  0.4482 -0.1564
 2339TIP3    H128652   4.239   5.130   1.699  0.3697 -0.3475  0.7061
 2339TIP3    H228653   4.369   5.093   1.631 -0.1315 -1.0215  0.1094
 2340TIP3   OH228654   1.569   1.908   1.786 -0.1123  0.1456  0.2733
 2340TIP3    H128655   1.621   1.943   1.858 -0.4184 -0.9613  1.0506
 2340TIP3    H228656   1.506   1.977   1.766  1.6557  1.5415 -0.7331
 2341TIP3   OH228657   5.096   1.481   8.047 -0.7673  0.4813 -0.5185
 2341TIP3    H128658   5.159   1.480   8.119 -1.2877 -1.6925 -0.0115
 2341TIP3    H228659   5.149   1.477   7.968 -0.2311  1.4966 -0.2346
 2342TIP3   OH228660   0.876   3.748   2.042  0.0534 -0.3609  0.4136
 2342TIP3    H128661   0.821   3.678   2.006  0.0132 -0.3015  0.3576
 2342TIP3    H228662   0.847   3.757   2.133 -3.0068  2.4715 -0.6049
 2343TIP3   OH228663   5.060   4.267   7.066  0.5235  0.2202 -0.0047
 2343TIP3    H128664   5.014   4.331   7.120 -0.9652 -2.3700  2.0603
 2343TIP3    H228665   5.146   4.259   7.106 -0.0793 -0.6610  1.1464
 2344TIP3   OH228666   6.272   6.555   1.506  0.5400 -0.6469  0.4899
 2344TIP3    H128667   6.231   6.490   1.562  0.2047 -1.9394 -1.1891
 2344TIP3    H228668   6.233   6.638   1.533 -0.2499 -1.3480  1.5573
 2345TIP3   OH228669   0.828   5.677   7.981 -0.1927  0.2535 -0.3266
 2345TIP3    H128670   0.816   5.700   8.073  0.1536 -2.1799  0.4077
 2345TIP3    H228671   0.821   5.760   7.934 -4.1553  1.1380  1.4683
 2346TIP3   OH228672   3.897   3.073   7.824  0.2153  0.6115 -0.2264
 2346TIP3    H128673   3.877   2.980   7.814  0.0478  0.6878 -0.6392
 2346TIP3    H228674   3.990   3.075   7.847  0.4795  0.3773 -1.1895
 2347TIP3   OH228675   0.111   4.075   0.408 -0.0243  0.5330  0.1358
 2347TIP3    H128676   0.119   4.084   0.503 -1.1912 -0.1604  0.3231
 2347TIP3    H228677   0.163   3.997   0.387 -0.1642  0.4011  0.2753
 2348TIP3   OH228678   6.858   5.479   7.750  0.1716 -0.3873  0.0157
 2348TIP3    H128679   6.845   5.389   7.781 -1.6537  0.4783  2.0721
 2348TIP3    H228680   6.935   5.510   7.798 -0.8226 -0.0439  1.4755
 2349TIP3   OH228681   6.597   2.405   1.720 -0.3304  0.2992  0.9744
 2349TIP3    H128682   6.523   2.460   1.746 -1.6072 -0.7123 -0.2981
 2349TIP3    H228683   6.556   2.327   1.682  1.4102 -0.3167  0.2460
 2350TIP3   OH228684   3.513   1.182   7.342 -0.1533  0.2519 -0.4039
 2350TIP3    H128685   3.423   1.154   7.358 -0.3799  1.7896  1.3835
 2350TIP3    H228686   3.513   1.276   7.364  1.9999  0.1548  0.2158
 2351TIP3   OH228687   1.344   5.592   3.131  0.0051  0.3643  0.6802
 2351TIP3    H128688   1.358   5.498   3.122  2.1714  0.5850  1.2893
 2351TIP3    H228689   1.296   5.602   3.213 -0.6890 -0.2205  0.3560
 2352TIP3   OH228690   3.704   1.081   1.172  0.3576  0.1284  0.3292
 2352TIP3    H128691   3.781   1.058   1.120 -0.2300 -0.9795 -0.0920
 2352TIP3    H228692   3.688   1.173   1.152  1.1406  0.1704 -0.1463
 2353TIP3   OH228693   5.866   5.678   8.138 -0.6873  0.3811 -0.9710
 2353TIP3    H128694   5.835   5.734   8.209  0.1418 -0.4451  0.0818
 2353TIP3    H228695   5.960   5.694   8.134 -0.3535 -1.1558 -0.3826
 2354TIP3   OH228696   4.403   1.864   0.163 -0.0406  1.0131  0.0364
 2354TIP3    H128697   4.340   1.791   0.165 -1.3502  2.0892 -0.1214
 2354TIP3    H228698   4.415   1.882   0.070  1.6025 -0.0556  0.0039
 2355TIP3   OH228699   6.683   1.526   0.322  0.1995 -0.1964 -0.2694
 2355TIP3    H128700   6.683   1.524   0.226 -0.1867  0.2868 -0.2801
 2355TIP3    H228701   6.775   1.532   0.346  0.2455  0.6500 -0.6311
 2356TIP3   OH228702   0.127   4.055   7.919  0.3548  0.7784  0.6780
 2356TIP3    H128703   0.187   4.010   7.978 -0.7777 -0.5481  0.8777
 2356TIP3    H228704   0.168   4.048   7.833 -0.3568 -1.8825  0.4564
 2357TIP3   OH228705   3.291   5.684   2.459  0.2836 -0.0552  0.3296
 2357TIP3    H128706   3.273   5.778   2.464  0.3742 -0.0606  0.9298
 2357TIP3    H228707   3.206   5.644   2.441  0.0579  0.0774  1.0316
 2358TIP3   OH228708   0.632   1.340   8.120 -0.1354  0.2642 -0.2677
 2358TIP3    H128709   0.619   1.272   8.187 -0.1128  0.7167  0.2085
 2358TIP3    H228710   0.659   1.418   8.171  1.2210  0.2487 -0.9054
 2359TIP3   OH228711   5.319   2.610   7.463  0.4569 -0.0399 -0.0279
 2359TIP3    H128712   5.335   2.537   7.404  0.7933 -1.0471  1.2593
 2359TIP3    H228713   5.402   2.657   7.467  1.0560 -1.1352  1.1488
 2360TIP3   OH228714   4.186   1.220   2.156  0.2842  0.0181 -0.1503
 2360TIP3    H128715   4.111   1.277   2.138  0.3388  1.4671  3.4679
 2360TIP3    H228716   4.146   1.139   2.188  0.0443  1.2853  3.1687
 2361TIP3   OH228717   0.087   5.167   0.850  0.1280 -0.0263 -0.1623
 2361TIP3    H128718   0.073   5.075   0.829 -0.4000  0.0537 -0.1869
 2361TIP3    H228719   0.090   5.211   0.765 -2.4858  0.3653 -0.1571
 2362TIP3   OH228720   5.395   3.854   8.362  0.2790  0.1174  0.0794
 2362TIP3    H128721   5.439   3.805   8.432  0.5518 -0.4880 -0.5059
 2362TIP3    H228722   5.323   3.798   8.335 -0.6886  0.9731  0.8210
 2363TIP3   OH228723   0.972   5.087   2.609  0.8461 -0.4321  0.0187
 2363TIP3    H128724   0.993   5.110   2.699  0.9401 -0.7688  0.0869
 2363TIP3    H228725   0.962   4.992   2.611 -1.1631 -0.2617  0.0803
 2364TIP3   OH228726   4.471   3.486   1.326  0.1677 -0.4085  0.1491
 2364TIP3    H128727   4.545   3.527   1.371  0.5542 -0.9193 -0.0087
 2364TIP3    H228728   4.419   3.446   1.396  0.4511 -0.6983  0.1956
 2365TIP3   OH228729   4.829   3.809   2.740 -0.4459  0.1332  0.1588
 2365TIP3    H128730   4.873   3.894   2.744 -1.0758  0.4291  1.1582
 2365TIP3    H228731   4.876   3.755   2.804  1.4482 -1.0407 -2.0769
 2366TIP3   OH228732   0.192   6.055   0.971 -0.1485  0.3044  0.2999
 2366TIP3    H128733   0.159   5.968   0.947 -1.2612  0.7745  0.0894
 2366TIP3    H228734   0.212   6.048   1.064  1.0055 -0.5427  0.0202
 2367TIP3   OH228735   0.138   3.377   2.456 -0.5697  0.2235  0.5202
 2367TIP3    H128736   0.067   3.418   2.407 -1.1662 -1.2514  0.1041
 2367TIP3    H228737   0.192   3.334   2.389  2.1078  3.1930  0.5365
 2368TIP3   OH228738   0.784   5.729   8.272 -0.9103 -0.7077  0.7527
 2368TIP3    H128739   0.779   5.815   8.229 -1.1870 -1.4870 -0.8815
 2368TIP3    H228740   0.831   5.746   8.354 -3.7534  1.5802  2.0960
 2369TIP3   OH228741   5.337   6.626   7.393 -0.3253 -0.2401  0.5166
 2369TIP3    H128742   5.255   6.652   7.350 -0.5481 -1.5020  0.1544
 2369TIP3    H228743   5.364   6.705   7.441 -1.5057  0.3406  0.2772
 2370TIP3   OH228744   1.436   4.203   8.655  0.4357 -0.5730  0.2622
 2370TIP3    H128745   1.460   4.122   8.609  0.5756 -0.3575 -0.0467
 2370TIP3    H228746   1.370   4.176   8.719 -1.8764 -0.4490 -1.9326
 2371TIP3   OH228747   6.393   1.762   1.146 -0.2950 -0.5276  0.9470
 2371TIP3    H128748   6.421   1.695   1.084  0.1025 -0.9947  1.6078
 2371TIP3    H228749   6.424   1.730   1.231 -1.3439 -0.2017  1.4754
 2372TIP3   OH228750   3.865   1.080   1.790 -0.3047 -0.0404  0.2070
 2372TIP3    H128751   3.882   1.091   1.884  0.4397  0.9751 -0.0222
 2372TIP3    H228752   3.771   1.094   1.781 -0.2458  0.7720  0.7061
 2373TIP3   OH228753   4.423   6.761   8.591 -0.1129 -0.0011  0.1810
 2373TIP3    H128754   4.435   6.848   8.628 -0.2952  0.7004 -1.3406
 2373TIP3    H228755   4.475   6.762   8.510 -0.2013 -1.2730  0.0816
 2374TIP3   OH228756   0.766   0.069   2.728 -0.3987 -0.5855 -0.3559
 2374TIP3    H128757   0.750   0.062   2.822 -0.5093 -1.7422 -0.4448
 2374TIP3    H228758   0.810  -0.013   2.705  0.3700  0.0398 -1.1679
 2375TIP3   OH228759   2.439   0.550   7.832 -0.0057 -0.3952 -0.0871
 2375TIP3    H128760   2.421   0.627   7.778 -0.2703 -0.7218 -0.4715
 2375TIP3    H228761   2.408   0.574   7.919 -2.5973 -0.9871 -0.7486
 2376TIP3   OH228762   6.097   0.015   0.517 -0.2051 -0.0464 -0.0191
 2376TIP3    H128763   6.180   0.055   0.490 -0.0000 -1.8805 -2.4736
 2376TIP3    H228764   6.039   0.029   0.443 -1.8692  0.4379  1.3179
 2377TIP3   OH228765   0.893   0.810   7.434 -0.2136 -0.3202  0.0153
 2377TIP3    H128766   0.864   0.831   7.345  0.1900 -0.7234 -0.2146
 2377TIP3    H228767   0.872   0.888   7.485 -1.9149 -0.6699 -0.0889
 2378TIP3   OH228768   4.176   1.657   1.379 -0.2038 -0.6460  0.6091
 2378TIP3    H128769   4.257   1.707   1.369  0.0039 -1.2777 -1.1479
 2378TIP3    H228770   4.112   1.722   1.409  0.7910 -0.0109  1.4138
 2379TIP3   OH228771   0.085   4.871   1.528 -0.3085 -0.2001  0.1549
 2379TIP3    H128772   0.081   4.955   1.573  0.1073 -0.8583  1.4879
 2379TIP3    H228773   0.175   4.841   1.542 -0.2440 -0.5636 -0.9088
 2380TIP3   OH228774   5.950   4.805   8.520  0.0418  0.0427  0.3479
 2380TIP3    H128775   5.910   4.884   8.557 -2.0341 -0.6775 -0.2228
 2380TIP3    H228776   5.980   4.755   8.596 -0.4622  0.4624  0.8315
 2381TIP3   OH228777   1.874   1.243   7.345 -0.0652  0.3677 -0.0201
 2381TIP3    H128778   1.908   1.333   7.339  0.0620  0.3179 -0.0397
 2381TIP3    H228779   1.952   1.188   7.346 -0.1497  0.2451 -0.2130
 2382TIP3   OH228780   1.997   6.872   2.880 -0.2684 -0.4067 -0.2858
 2382TIP3    H128781   2.067   6.807   2.877  2.0265  1.9005 -0.8223
 2382TIP3    H228782   1.967   6.872   2.971 -0.1715 -1.9895 -0.2337
 2383TIP3   OH228783   6.818   5.525   2.864  0.0708 -0.5752 -0.3925
 2383TIP3    H128784   6.862   5.541   2.947  0.9337  1.1597 -1.1204
 2383TIP3    H228785   6.732   5.490   2.887 -0.6460  2.0506  1.3770
 2384TIP3   OH228786   0.400   6.467   0.460  0.2447  0.1047  0.5947
 2384TIP3    H128787   0.425   6.433   0.546  0.4166 -1.8762 -0.1890
 2384TIP3    H228788   0.310   6.439   0.448  0.8946 -1.6076 -0.7455
 2385TIP3   OH228789   4.992   3.051   8.234 -0.2838 -0.7960 -0.1655
 2385TIP3    H128790   4.999   3.022   8.143  1.4585 -0.0654 -0.2938
 2385TIP3    H228791   4.898   3.049   8.252 -0.7987  0.3163 -2.4005
 2386TIP3   OH228792   0.312   6.262   7.105 -0.0108  0.9279  0.4466
 2386TIP3    H128793   0.264   6.212   7.171  0.6425 -2.0343 -1.1653
 2386TIP3    H228794   0.403   6.234   7.116  0.0489 -0.0103 -1.9382
 2387TIP3   OH228795   0.315   6.511   2.274  0.4217 -0.1892 -0.4479
 2387TIP3    H128796   0.340   6.559   2.195 -0.0500 -0.4337 -0.7541
 2387TIP3    H228797   0.309   6.420   2.245 -0.0667 -0.2367 -0.2079
 2388TIP3   OH228798   2.556   4.008   2.271 -0.8962  0.3316 -0.4315
 2388TIP3    H128799   2.465   4.037   2.263 -0.8415  0.4414 -0.6746
 2388TIP3    H228800   2.566   3.939   2.206 -0.7478  0.4717 -0.5621
 2389TIP3   OH228801   0.317   0.323   1.998  0.9106  0.4304 -0.3875
 2389TIP3    H128802   0.276   0.321   2.084 -0.9039 -0.5020 -1.2290
 2389TIP3    H228803   0.396   0.375   2.011  1.1648 -0.4275  2.0249
 2390TIP3   OH228804   3.518   3.387   1.287 -0.0678 -0.0076  0.1994
 2390TIP3    H128805   3.594   3.442   1.304  0.5945 -0.5393 -0.9793
 2390TIP3    H228806   3.550   3.298   1.296 -1.0602 -0.2530  1.7656
 2391TIP3   OH228807   4.614   1.215   7.246 -0.5939 -0.3897 -0.3184
 2391TIP3    H128808   4.630   1.282   7.312  0.7726 -1.5529  0.5706
 2391TIP3    H228809   4.530   1.175   7.271  0.3522 -1.4430  1.2851
 2392TIP3   OH228810   5.692   2.430   7.297 -0.0721 -0.1392 -0.0546
 2392TIP3    H128811   5.606   2.457   7.265 -0.0862 -2.4332 -2.2375
 2392TIP3    H228812   5.685   2.335   7.309  2.7999 -0.8691 -2.9133
 2393TIP3   OH228813   0.644   0.714   7.578 -0.1785 -0.0708  0.1160
 2393TIP3    H128814   0.691   0.669   7.508  1.0155  0.5148  0.5131
 2393TIP3    H228815   0.630   0.803   7.545 -0.4833 -0.0707  0.2390
 2394TIP3   OH228816   1.749   4.157   7.985 -0.1422  0.0747  0.6061
 2394TIP3    H128817   1.819   4.112   7.938 -0.9488  0.6118 -1.1738
 2394TIP3    H228818   1.712   4.090   8.043  1.5024 -0.3417  1.2228
 2395TIP3   OH228819   1.774   1.003   8.072  0.3444  0.6470 -0.3668
 2395TIP3    H128820   1.756   1.082   8.124  0.5818  0.7326 -0.4120
 2395TIP3    H228821   1.854   1.024   8.024 -1.0182  1.3870 -2.4148
 2396TIP3   OH228822   3.896   2.578   8.636 -0.2100 -0.2293  0.6867
 2396TIP3    H128823   3.979   2.530   8.631 -0.8008 -1.5698  2.5068
 2396TIP3    H228824   3.832   2.519   8.597 -0.6914 -0.3166  1.5667
 2397TIP3   OH228825   0.348   1.073   1.059 -0.4657  0.2390 -0.1567
 2397TIP3    H128826   0.389   1.140   1.115 -1.2591  0.9789 -0.4322
 2397TIP3    H228827   0.263   1.111   1.035 -0.6612 -0.6056 -0.8409
 2398TIP3   OH228828   0.380   0.314   3.946 -0.3636 -0.2983  0.0129
 2398TIP3    H128829   0.335   0.239   3.907 -1.4039  0.5083 -0.3976
 2398TIP3    H228830   0.378   0.381   3.877 -1.3861  0.8315  1.0777
 2399TIP3   OH228831   6.513   1.831   2.774 -0.2852 -0.2131 -0.2867
 2399TIP3    H128832   6.441   1.876   2.730 -0.4821  0.1119  0.3646
 2399TIP3    H228833   6.470   1.763   2.826 -0.0178 -0.9194 -0.9703
 2400TIP3   OH228834   4.794   2.548   2.155 -0.0323  0.3257  0.6363
 2400TIP3    H128835   4.750   2.487   2.213  0.9046 -1.3243 -0.3239
 2400TIP3    H228836   4.724   2.582   2.099 -0.4224 -0.6324  0.5264
 2401TIP3   OH228837   6.284   3.173   0.855  0.1326  0.1400  0.0223
 2401TIP3    H128838   6.296   3.267   0.868 -0.7865  0.0509  1.9627
 2401TIP3    H228839   6.222   3.167   0.782 -1.1232  1.1314  0.9548
 2402TIP3   OH228840   1.976   0.135   0.778  0.2253  0.8065  0.1502
 2402TIP3    H128841   1.981   0.111   0.870 -1.3707  1.9269  0.5844
 2402TIP3    H228842   1.996   0.054   0.731  0.5213  0.0739  1.4772
 2403TIP3   OH228843   1.714   0.829   2.745  0.8234 -0.3453 -0.4873
 2403TIP3    H128844   1.789   0.853   2.801  0.9510 -0.8197 -0.4503
 2403TIP3    H228845   1.669   0.912   2.729  0.7215 -0.2156  0.4114
 2404TIP3   OH228846   6.514   2.471   3.177 -0.1412  0.3359 -0.5804
 2404TIP3    H128847   6.482   2.511   3.096  1.0921  0.8054 -0.8698
 2404TIP3    H228848   6.572   2.401   3.148 -1.1206 -0.6970 -0.0782
 2405TIP3   OH228849   3.540   3.517   1.598  0.2565 -0.1334 -0.3069
 2405TIP3    H128850   3.601   3.452   1.562  1.2865  0.5366  0.1536
 2405TIP3    H228851   3.550   3.593   1.540  1.5930  0.7916  1.0677
 2406TIP3   OH228852   6.639   3.064   0.885 -0.1650  0.2157  0.0957
 2406TIP3    H128853   6.727   3.030   0.874  0.0797  0.5015  1.0693
 2406TIP3    H228854   6.645   3.124   0.959 -1.1374  0.3885  0.0553
 2407TIP3   OH228855   2.174   0.667   2.660 -0.0011  0.4134  0.4061
 2407TIP3    H128856   2.258   0.640   2.696 -1.4069  0.1697  3.8721
 2407TIP3    H228857   2.143   0.736   2.720 -3.8271 -1.9884  1.5497
 2408TIP3   OH228858   2.904   4.881   7.812  0.4950 -0.1802  0.1170
 2408TIP3    H128859   2.874   4.793   7.791 -0.1973  0.1919 -0.5344
 2408TIP3    H228860   2.831   4.938   7.785  0.8737  0.5754  0.6461
 2409TIP3   OH228861   0.378   4.881   0.764 -0.3359  0.7533  0.7042
 2409TIP3    H128862   0.337   4.848   0.683 -0.2921  0.5728  0.7554
 2409TIP3    H228863   0.371   4.976   0.756  0.1690  0.7563  0.2255
 2410TIP3   OH228864   6.794   0.141   0.381 -0.2532 -0.6991  0.0495
 2410TIP3    H128865   6.861   0.191   0.334 -1.5685  0.0505 -1.1025
 2410TIP3    H228866   6.769   0.071   0.320 -1.8382  0.1682 -0.3680
 2411TIP3   OH228867   2.106   6.553   0.818 -0.1939 -0.0261  0.6862
 2411TIP3    H128868   2.112   6.490   0.746  1.4340 -1.0629  1.6862
 2411TIP3    H228869   2.143   6.633   0.782  0.9513 -0.6400  0.4421
 2412TIP3   OH228870   5.280   0.114   2.830  0.2903  0.1263  0.3785
 2412TIP3    H128871   5.200   0.074   2.864  1.4893 -1.0852  1.9400
 2412TIP3    H228872   5.275   0.205   2.859 -1.4972  0.6635 -1.4221
 2413TIP3   OH228873   2.168   4.511   0.761  0.4071 -0.1656  0.1437
 2413TIP3    H128874   2.142   4.425   0.794  1.3076 -1.2673 -1.8467
 2413TIP3    H228875   2.085   4.557   0.747 -0.1586 -1.2206 -0.0644
 2414TIP3   OH228876   5.249   5.939   2.133 -0.0995  0.1230 -0.0782
 2414TIP3    H128877   5.276   5.854   2.168  1.1010 -0.0582 -1.3649
 2414TIP3    H228878   5.253   5.998   2.209  1.0030 -0.5531  0.4172
 2415TIP3   OH228879   0.517   5.840   1.168 -0.4115 -0.1120 -0.4059
 2415TIP3    H128880   0.496   5.758   1.214 -2.0235  0.0463 -0.8072
 2415TIP3    H228881   0.460   5.905   1.208  0.6648  0.7796 -0.2802
 2416TIP3   OH228882   4.560   4.749   1.536  0.3384  0.0083  0.8608
 2416TIP3    H128883   4.586   4.660   1.510  0.2067  0.4394 -0.8518
 2416TIP3    H228884   4.608   4.806   1.476 -2.2464  0.9354 -0.4676
 2417TIP3   OH228885   2.427   1.250   2.447 -0.5415 -0.7217 -0.5759
 2417TIP3    H128886   2.501   1.245   2.508  0.6162 -1.4503 -1.9758
 2417TIP3    H228887   2.437   1.336   2.405 -2.2620  0.4914  1.2962
 2418TIP3   OH228888   1.019   5.958   3.671  0.0814 -0.4157  0.2728
 2418TIP3    H128889   0.929   5.927   3.674 -0.2940  0.2787 -1.9147
 2418TIP3    H228890   1.071   5.879   3.658 -0.4071 -0.6651 -0.2342
 2419TIP3   OH228891   6.001   6.065   8.273  0.2628 -0.2920 -0.6951
 2419TIP3    H128892   6.026   6.157   8.261  2.1247 -0.7418 -0.6044
 2419TIP3    H228893   5.910   6.061   8.243 -1.1023  2.2432  2.3918
 2420TIP3   OH228894   2.891   3.556   2.025  0.2141 -0.5920 -0.1999
 2420TIP3    H128895   2.893   3.473   1.978 -1.3925 -0.6901 -0.1755
 2420TIP3    H228896   2.972   3.601   2.000 -0.3061 -0.8706 -2.6408
 2421TIP3   OH228897   2.988   2.466   0.485 -0.9212 -0.6622  1.0474
 2421TIP3    H128898   2.892   2.466   0.490 -1.0638 -0.1361 -0.7630
 2421TIP3    H228899   3.007   2.490   0.394  0.9462  3.6764  2.2953
 2422TIP3   OH228900   3.502   4.400   8.497  0.3472  0.6804  0.6191
 2422TIP3    H128901   3.424   4.420   8.549  0.1941  0.5800  0.4295
 2422TIP3    H228902   3.500   4.305   8.486 -0.2158  0.7981 -0.4881
 2423TIP3   OH228903   4.117   0.833   0.542  0.2609 -0.1896 -0.2136
 2423TIP3    H128904   4.192   0.798   0.591 -0.2343  0.3000  0.9305
 2423TIP3    H228905   4.131   0.802   0.453  1.2608 -1.0160  0.1972
 2424TIP3   OH228906   2.159   0.213   8.666 -0.1157 -0.3802 -0.2193
 2424TIP3    H128907   2.149   0.306   8.685 -1.3551 -0.5845  0.2364
 2424TIP3    H228908   2.080   0.172   8.702  0.5227 -1.6489 -0.1793
 2425TIP3   OH228909   5.068   6.868   2.905 -0.0388  0.4485  0.3682
 2425TIP3    H128910   5.003   6.824   2.851  0.0368  1.2675 -0.4171
 2425TIP3    H228911   5.019   6.902   2.980 -0.6120  1.4289 -0.4306
 2426TIP3   OH228912   2.041   5.908   7.958  0.6242 -0.4823  0.2813
 2426TIP3    H128913   2.058   5.923   7.865 -1.1393 -2.1762 -0.3831
 2426TIP3    H228914   2.051   5.994   7.998  2.4614  0.1014 -1.2717
 2427TIP3   OH228915   2.701   6.471   3.392  0.0173  0.1513  0.4608
 2427TIP3    H128916   2.732   6.516   3.313 -2.1938  2.1048  0.5838
 2427TIP3    H228917   2.772   6.482   3.455  0.5848  1.2588 -0.3272
 2428TIP3   OH228918   2.721   3.049   0.760 -0.1044 -0.3753  0.1872
 2428TIP3    H128919   2.784   3.088   0.700 -0.1831 -3.1005 -1.8259
 2428TIP3    H228920   2.753   2.960   0.774 -1.6665 -0.7205  1.9282
 2429TIP3   OH228921   0.688   3.836   7.655 -0.1014 -0.0934  0.3566
 2429TIP3    H128922   0.721   3.846   7.744  0.0302  0.0398  0.2942
 2429TIP3    H228923   0.642   3.919   7.638 -0.6996 -0.3807  0.5388
 2430TIP3   OH228924   6.604   4.328   7.879 -0.0272 -0.5130 -0.0420
 2430TIP3    H128925   6.696   4.337   7.902 -0.3587 -1.3354  1.8718
 2430TIP3    H228926   6.577   4.245   7.920 -1.6462 -0.1934 -0.3732
 2431TIP3   OH228927   6.075   4.014   7.930  0.1893  0.2085 -0.5698
 2431TIP3    H128928   6.074   3.982   8.020  1.8252 -1.1905 -0.9902
 2431TIP3    H228929   6.146   4.078   7.927  1.5369 -1.2408 -1.2682
 2432TIP3   OH228930   1.095   5.837   1.675 -0.0252  0.4538  0.2307
 2432TIP3    H128931   1.050   5.759   1.642 -0.0800  0.3007  0.6636
 2432TIP3    H228932   1.149   5.867   1.601 -2.2827  1.7805 -1.0238
 2433TIP3   OH228933   3.913   4.136   7.904 -0.1077  0.6881 -0.7820
 2433TIP3    H128934   3.848   4.103   7.843 -0.6756 -0.7848  0.5489
 2433TIP3    H228935   3.874   4.216   7.940 -0.3392  0.8393 -1.3649
 2434TIP3   OH228936   4.248   4.620   7.713  0.7311  0.1860 -0.6449
 2434TIP3    H128937   4.199   4.557   7.765  1.6479 -0.8915 -1.0642
 2434TIP3    H228938   4.190   4.643   7.641  0.1861  0.2525 -0.1870
 2435TIP3   OH228939   2.564   1.033   7.960 -0.4084  0.2515 -0.2274
 2435TIP3    H128940   2.633   1.054   8.023 -0.4787  1.2125 -0.4597
 2435TIP3    H228941   2.499   0.984   8.011  0.1584 -0.1459  0.1257
 2436TIP3   OH228942   2.091   5.954   8.514  0.2762 -0.3123 -0.6483
 2436TIP3    H128943   2.116   5.883   8.573  1.3245  1.2346  0.8587
 2436TIP3    H228944   2.046   6.018   8.570  0.7488  0.9325 -1.6252
 2437TIP3   OH228945   3.567   1.883   2.951  0.1706 -0.5448 -0.7036
 2437TIP3    H128946   3.594   1.831   2.875  0.8083  0.8578 -1.4727
 2437TIP3    H228947   3.639   1.875   3.013 -0.0499 -1.1286 -0.5075
 2438TIP3   OH228948   0.393   5.901   0.806 -0.4980 -0.4413  0.0049
 2438TIP3    H128949   0.331   5.963   0.846 -0.2208 -0.4779  0.4881
 2438TIP3    H228950   0.474   5.950   0.797 -1.2183  0.4569 -2.9535
 2439TIP3   OH228951   3.806   2.842   7.755 -0.0186  0.1676 -0.7743
 2439TIP3    H128952   3.864   2.782   7.707  0.1320  0.7543 -1.3406
 2439TIP3    H228953   3.732   2.854   7.696  0.2280  0.9985 -0.9234
 2440TIP3   OH228954   4.346   2.350   1.473 -0.2076  0.2582 -0.6864
 2440TIP3    H128955   4.307   2.274   1.429 -2.3968  0.7847  0.2351
 2440TIP3    H228956   4.288   2.423   1.452  0.1939  1.0740  0.8507
 2441TIP3   OH228957   3.925   3.424   7.032  0.6932 -0.3027  0.3637
 2441TIP3    H128958   3.992   3.462   6.975 -1.4100  1.3391 -1.1518
 2441TIP3    H228959   3.900   3.342   6.989  0.7827 -0.2605  0.2309
 2442TIP3   OH228960   3.655   6.254   2.575  0.0702  0.2233 -0.4154
 2442TIP3    H128961   3.674   6.348   2.578 -0.5847  0.3405  0.5305
 2442TIP3    H228962   3.739   6.212   2.591  0.3230  0.6553 -0.6002
 2443TIP3   OH228963   4.668   0.481   2.773 -0.4899  0.1358 -0.2222
 2443TIP3    H128964   4.648   0.542   2.843 -0.7426  0.1219 -0.2801
 2443TIP3    H228965   4.742   0.429   2.805  0.0895  0.8345 -0.3895
 2444TIP3   OH228966   0.473   0.476   0.268 -1.1780  0.2166 -0.1594
 2444TIP3    H128967   0.441   0.560   0.237  0.4411  0.4643 -1.2944
 2444TIP3    H228968   0.438   0.412   0.205 -1.1582  0.2287 -0.1827
 2445TIP3   OH228969   1.430   2.531   1.512 -0.1661 -0.0077  0.3987
 2445TIP3    H128970   1.431   2.590   1.588  1.0910  0.2332  0.2140
 2445TIP3    H228971   1.346   2.549   1.470 -2.0488 -1.8817  3.0400
 2446TIP3   OH228972   3.586   5.957   7.857  0.0485  0.2201 -0.8661
 2446TIP3    H128973   3.600   5.921   7.769 -0.5206  0.2371 -0.9666
 2446TIP3    H228974   3.557   6.047   7.842 -1.3570 -0.1765 -0.7223
 2447TIP3   OH228975   3.137   1.201   1.661  0.0124  0.1039  0.0250
 2447TIP3    H128976   3.094   1.117   1.639 -0.9885  0.1729  1.5906
 2447TIP3    H228977   3.123   1.255   1.583 -0.5355 -0.7240 -0.4754
 2448TIP3   OH228978   4.136   2.425   0.450  0.3982 -0.9692  0.0423
 2448TIP3    H128979   4.151   2.448   0.541 -1.3458  1.2732 -0.1702
 2448TIP3    H228980   4.042   2.410   0.443  0.4726 -0.9458 -1.4137
 2449TIP3   OH228981   0.324   1.151   8.219 -0.3323 -0.1931  0.3885
 2449TIP3    H128982   0.292   1.211   8.286 -2.0577 -2.8531  2.1497
 2449TIP3    H228983   0.250   1.141   8.159  0.1956 -0.0324 -0.3027
 2450TIP3   OH228984   2.655   0.596   1.237  0.0515 -0.5284  0.2877
 2450TIP3    H128985   2.723   0.642   1.287 -1.1132  0.5893  0.9126
 2450TIP3    H228986   2.590   0.663   1.218 -0.3190 -1.3130 -1.3501
 2451TIP3   OH228987   5.593   5.693   8.584  0.2487 -0.2252 -0.5583
 2451TIP3    H128988   5.500   5.704   8.604  0.1192 -2.9824  0.7374
 2451TIP3    H228989   5.629   5.782   8.588 -1.7339  0.5803  2.1248
 2452TIP3   OH228990   6.389   3.790   2.814 -0.2088 -0.1258  0.0512
 2452TIP3    H128991   6.324   3.744   2.867 -1.6819  3.3964  1.6139
 2452TIP3    H228992   6.346   3.806   2.731 -1.1854  1.5955  0.8419
 2453TIP3   OH228993   0.957   4.475   8.441  0.1091 -0.5522 -0.5850
 2453TIP3    H128994   1.011   4.544   8.403 -0.0494  0.6869  1.3029
 2453TIP3    H228995   1.015   4.400   8.450  1.2335  0.3892  0.3194
 2454TIP3   OH228996   3.821   6.172   0.366 -0.7791  0.0671  0.0943
 2454TIP3    H128997   3.726   6.169   0.376 -0.6706  0.4832  1.3961
 2454TIP3    H228998   3.855   6.187   0.455  0.4559  0.8776 -0.4801
 2455TIP3   OH228999   5.088   5.236   2.881 -0.7707  0.2380  0.2145
 2455TIP3    H129000   5.096   5.178   2.805  1.5426  0.7821 -0.0102
 2455TIP3    H229001   5.118   5.183   2.955 -1.5558  0.2045  0.5199
 2456TIP3   OH229002   5.268   4.893   3.340 -0.0505  0.9055  0.3302
 2456TIP3    H129003   5.244   4.969   3.288  1.0773  0.2149 -1.2856
 2456TIP3    H229004   5.355   4.914   3.375  0.3178  0.3499 -0.2141
 2457TIP3   OH229005   1.297   2.147   0.330  0.0099  0.3670 -0.2668
 2457TIP3    H129006   1.319   2.181   0.243  0.0735 -0.7432 -0.7023
 2457TIP3    H229007   1.346   2.203   0.391 -0.2626  1.3365 -0.9210
 2458TIP3   OH229008   5.260   1.332   1.673 -0.0528 -0.1174 -0.0193
 2458TIP3    H129009   5.293   1.243   1.666  1.6885  0.4785  0.1366
 2458TIP3    H229010   5.260   1.364   1.582  0.8661  0.2396  0.1018
 2459TIP3   OH229011   4.207   0.434   1.062  0.0438 -0.1077 -0.5650
 2459TIP3    H129012   4.195   0.386   1.143 -2.1056  1.0736 -0.0995
 2459TIP3    H229013   4.172   0.376   0.994  0.4046 -0.4685 -0.4458
 2460TIP3   OH229014   5.792   5.391   3.065  0.2559 -0.0727 -1.0781
 2460TIP3    H129015   5.859   5.371   3.131 -3.1936 -1.0493  2.5333
 2460TIP3    H229016   5.772   5.483   3.080 -0.8991 -0.4299 -0.2716
 2461TIP3   OH229017   1.384   3.416   8.566 -0.1570 -0.0060 -0.2015
 2461TIP3    H129018   1.323   3.342   8.558  1.6938 -1.8391  1.4870
 2461TIP3    H229019   1.351   3.465   8.642 -0.4927  0.0207 -0.3602
 2462TIP3   OH229020   6.603   4.638   8.090  0.5132 -0.1144  0.5031
 2462TIP3    H129021   6.652   4.701   8.038  1.5635  0.1805  1.8236
 2462TIP3    H229022   6.669   4.577   8.123 -0.2830 -0.9584  0.5972
 2463TIP3   OH229023   1.635   1.084   2.720  0.0386  0.0633  0.3425
 2463TIP3    H129024   1.672   1.134   2.647 -1.5120 -1.5555 -1.6924
 2463TIP3    H229025   1.554   1.129   2.742 -0.8693 -0.9090 -0.8428
 2464TIP3   OH229026   0.904   0.079   1.646 -0.9068  0.1134 -0.5408
 2464TIP3    H129027   0.866  -0.008   1.657 -2.6222  0.9000  0.1776
 2464TIP3    H229028   0.850   0.120   1.578 -1.8003  1.4638  0.9196
 2465TIP3   OH229029   0.649   5.634   0.493 -0.5392  1.3823 -0.0578
 2465TIP3    H129030   0.585   5.573   0.530  0.2293  0.7669  0.2971
 2465TIP3    H229031   0.677   5.591   0.411  1.5745  0.1485  1.2230
 2466TIP3   OH229032   2.092   2.294   7.471  0.1958  0.2607 -0.4718
 2466TIP3    H129033   2.162   2.360   7.473 -0.9349  1.5510 -1.3623
 2466TIP3    H229034   2.029   2.324   7.536  0.1904 -0.5745 -0.0834
 2467TIP3   OH229035   6.588   6.495   3.284 -0.3306  0.1550  1.0698
 2467TIP3    H129036   6.674   6.520   3.318 -0.0813  0.1407  0.4632
 2467TIP3    H229037   6.525   6.537   3.344  0.0885  1.5739  0.5545
 2468TIP3   OH229038   3.769   3.148   0.807  0.0612  0.3757  0.1812
 2468TIP3    H129039   3.687   3.180   0.844  0.9396  2.5850  0.3594
 2468TIP3    H229040   3.788   3.210   0.736  1.4933 -0.1915  0.0524
 2469TIP3   OH229041   0.753   6.120   1.727 -0.5707 -0.4234  0.2809
 2469TIP3    H129042   0.712   6.203   1.750  1.0341  0.4055  0.3077
 2469TIP3    H229043   0.832   6.145   1.678  0.0321 -1.9153  0.4256
 2470TIP3   OH229044   3.480   1.355   8.111  0.2841 -0.1635 -0.6194
 2470TIP3    H129045   3.498   1.265   8.085 -1.2208 -0.4586 -0.7620
 2470TIP3    H229046   3.385   1.363   8.104  0.2306  0.9639  0.8872
 2471TIP3   OH229047   4.711   1.048   2.054 -1.2843  0.3143  0.0885
 2471TIP3    H129048   4.707   1.092   1.969  0.3658 -0.5962 -0.5044
 2471TIP3    H229049   4.713   1.120   2.118  1.0621  1.1715 -0.8361
 2472TIP3   OH229050   4.605   2.412   7.155  0.0313 -0.3139  0.5300
 2472TIP3    H129051   4.580   2.330   7.197  0.5538 -1.2838 -0.9589
 2472TIP3    H229052   4.658   2.385   7.080 -0.9973  1.2781 -0.8546
 2473TIP3   OH229053   5.642   0.648   8.473 -0.2811  0.0025 -0.1490
 2473TIP3    H129054   5.733   0.673   8.489 -0.5090  0.4689  0.4649
 2473TIP3    H229055   5.629   0.570   8.527 -0.4348  0.3325  0.2993
 2474TIP3   OH229056   3.726   2.345   1.228 -0.4919 -0.2105  0.0317
 2474TIP3    H129057   3.658   2.412   1.215 -0.4658 -0.2779 -0.4658
 2474TIP3    H229058   3.796   2.370   1.168  0.0792  0.0506  0.7894
 2475TIP3   OH229059   2.395   2.445   8.512 -0.2852  0.1186 -0.1199
 2475TIP3    H129060   2.465   2.481   8.567  0.6657 -0.7024 -0.7607
 2475TIP3    H229061   2.338   2.397   8.572  0.2878 -0.0822  0.2639
 2476TIP3   OH229062   1.853   1.400   7.676  0.0033  0.2585  0.4072
 2476TIP3    H129063   1.825   1.480   7.630  0.8491  0.5870  0.4537
 2476TIP3    H229064   1.801   1.330   7.635  1.5204  0.3665 -1.8898
 2477TIP3   OH229065   4.009   2.484   8.159 -0.5093 -0.3651 -0.0314
 2477TIP3    H129066   4.035   2.556   8.217 -0.8086 -0.6971  0.5181
 2477TIP3    H229067   3.916   2.500   8.141 -0.5513 -0.5663  0.0118
 2478TIP3   OH229068   1.525   5.726   8.349 -0.6820  0.0266  0.2370
 2478TIP3    H129069   1.597   5.674   8.311  0.5956  0.4056  2.0007
 2478TIP3    H229070   1.505   5.791   8.282  0.9921  0.2267 -0.1161
 2479TIP3   OH229071   0.367   4.428   0.950  0.0127  0.3519 -0.6102
 2479TIP3    H129072   0.355   4.468   0.864  1.1152  1.9741 -0.0774
 2479TIP3    H229073   0.286   4.447   0.997  0.0400  0.9294 -0.7826
 2480TIP3   OH229074   4.196   1.565   2.306 -0.0358 -0.2160 -0.2461
 2480TIP3    H129075   4.188   1.642   2.364 -0.6664  1.0588 -1.9488
 2480TIP3    H229076   4.120   1.511   2.327 -0.5763  0.5170 -0.2831
 2481TIP3   OH229077   0.217   3.374   0.545  0.0483  0.3348 -0.1851
 2481TIP3    H129078   0.129   3.362   0.511 -0.3895 -0.8671  1.2424
 2481TIP3    H229079   0.263   3.422   0.477 -1.8870  1.5989 -0.6773
 2482TIP3   OH229080   1.242   0.839   0.721 -0.4344  0.4867  0.2193
 2482TIP3    H129081   1.211   0.755   0.754  1.2123  0.0376  0.7421
 2482TIP3    H229082   1.338   0.832   0.724 -0.2544  1.8652 -1.0538
 2483TIP3   OH229083   4.791   2.946   1.317 -0.6634  0.1169 -0.0336
 2483TIP3    H129084   4.751   2.944   1.231  0.6629  3.2403 -0.8853
 2483TIP3    H229085   4.839   3.029   1.319  1.3708 -0.9469  2.8138
 2484TIP3   OH229086   2.523   6.632   7.455  0.1817  0.4089 -0.4593
 2484TIP3    H129087   2.595   6.633   7.393  0.1412 -0.6205 -0.5391
 2484TIP3    H229088   2.511   6.540   7.477 -1.5448  0.4717 -0.9482
 2485TIP3   OH229089   3.476   5.309   7.971 -0.4011 -0.0020  0.7478
 2485TIP3    H129090   3.456   5.394   7.932  0.4998 -0.4931 -0.8376
 2485TIP3    H229091   3.568   5.293   7.951  0.4881  0.1921  4.0573
 2486TIP3   OH229092   4.828   1.619   1.568  0.1704  0.4455  0.0410
 2486TIP3    H129093   4.847   1.602   1.476  0.1190 -0.3234  0.1697
 2486TIP3    H229094   4.912   1.647   1.606  0.5337 -0.6729  0.0880
 2487TIP3   OH229095   1.115   0.273   2.738  0.4323 -0.1620 -0.0456
 2487TIP3    H129096   1.198   0.228   2.753 -1.1334 -2.8730  1.2103
 2487TIP3    H229097   1.051   0.203   2.730 -2.3307  1.7675  2.6492
 2488TIP3   OH229098   5.777   1.236   8.031  0.2340 -0.1390  0.2025
 2488TIP3    H129099   5.763   1.169   7.964 -1.9700 -0.3070  0.7738
 2488TIP3    H229100   5.765   1.190   8.114 -1.8283  0.9927  0.6006
 2489TIP3   OH229101   3.319   1.779   6.922 -0.6138 -0.2839 -0.4282
 2489TIP3    H129102   3.341   1.686   6.908 -2.2754 -0.8023  0.2205
 2489TIP3    H229103   3.403   1.820   6.941  0.0416 -1.8404  0.2287
 2490TIP3   OH229104   0.487   3.795   3.099 -0.2992 -0.3886 -0.3002
 2490TIP3    H129105   0.394   3.813   3.109 -0.2226 -0.9844  2.5827
 2490TIP3    H229106   0.491   3.706   3.065 -0.7692 -0.1620 -0.9545
 2491TIP3   OH229107   1.354   5.020   2.775 -0.7737 -0.4717  0.1465
 2491TIP3    H129108   1.298   4.982   2.843 -0.5670 -2.0900 -0.5445
 2491TIP3    H229109   1.389   4.945   2.727  2.1223  0.4501  0.6157
 2492TIP3   OH229110   5.622   2.178   0.305  0.5169  0.0475  0.2846
 2492TIP3    H129111   5.617   2.258   0.253  1.0482  0.1394  0.3678
 2492TIP3    H229112   5.563   2.117   0.261  1.4968 -0.1181 -0.8621
 2493TIP3   OH229113   6.701   0.702   1.862  0.2441  0.4906  0.6167
 2493TIP3    H129114   6.674   0.613   1.840  0.6042  0.8514 -1.5382
 2493TIP3    H229115   6.684   0.710   1.956  0.5998 -1.9673  0.9558
 2494TIP3   OH229116   4.291   3.675   1.558 -0.9592 -0.0458 -0.3081
 2494TIP3    H129117   4.234   3.598   1.555 -2.5062  1.0073  0.5242
 2494TIP3    H229118   4.231   3.749   1.567  0.5406  1.1337  0.5450
 2495TIP3   OH229119   0.173   4.130   8.523 -0.0666 -0.5158 -0.4777
 2495TIP3    H129120   0.256   4.128   8.572  0.6994 -2.4850 -1.7132
 2495TIP3    H229121   0.116   4.187   8.574  1.9323  0.6288  0.6056
 2496TIP3   OH229122   3.019   0.115   2.401  0.0463  0.1219  0.2330
 2496TIP3    H129123   3.017   0.190   2.342 -1.4381  0.9530  1.2785
 2496TIP3    H229124   3.049   0.042   2.347 -1.4798  0.7909 -1.6169
 2497TIP3   OH229125   5.026   0.679   0.971 -0.1934  0.1248 -0.4734
 2497TIP3    H129126   5.103   0.737   0.975  2.1257 -2.7699  1.9595
 2497TIP3    H229127   4.981   0.692   1.054  1.0732 -2.2165  0.6925
 2498TIP3   OH229128   2.941   0.565   2.733 -0.3467  0.5608  0.5131
 2498TIP3    H129129   2.904   0.509   2.664 -0.4054  0.4141  0.6628
 2498TIP3    H229130   3.034   0.571   2.711  0.0708 -1.1998  1.5604
 2499TIP3   OH229131   1.508   5.972   0.676  0.0661  0.2528 -0.0419
 2499TIP3    H129132   1.513   5.952   0.770 -1.1591  1.2522  0.2636
 2499TIP3    H229133   1.552   6.056   0.667 -2.0727  1.4842  0.1395
 2500TIP3   OH229134   4.256   4.327   8.400 -0.2476  0.2087 -0.1771
 2500TIP3    H129135   4.305   4.340   8.481  0.1106 -0.0119 -0.3564
 2500TIP3    H229136   4.314   4.359   8.331 -0.9658  1.3671 -0.2619
 2501TIP3   OH229137   5.316   4.033   8.055  0.0158  0.2292  0.4952
 2501TIP3    H129138   5.244   4.025   8.118 -0.9480  0.5088 -0.5273
 2501TIP3    H229139   5.295   3.968   7.987  0.4641  0.6532 -0.0564
 2502TIP3   OH229140   1.175   0.106   1.618 -0.0145  0.4837 -0.1898
 2502TIP3    H129141   1.186   0.070   1.706 -0.3585 -2.4693 -1.2420
 2502TIP3    H229142   1.080   0.107   1.604  0.0714 -0.2316 -0.9211
 2503TIP3   OH229143   0.901   5.887   7.773 -0.2334 -0.1513 -0.5191
 2503TIP3    H129144   0.969   5.844   7.825 -1.0642  3.0304  3.8125
 2503TIP3    H229145   0.948   5.930   7.702  1.8938 -0.4004  0.6600
 2504TIP3   OH229146   2.420   0.327   0.293  0.2241 -0.3937  0.1389
 2504TIP3    H129147   2.490   0.298   0.351  0.2788  1.5859  1.1644
 2504TIP3    H229148   2.451   0.307   0.205  0.9101 -1.8763  0.6900
 2505TIP3   OH229149   6.492   4.936   8.657 -0.0205  0.5330  0.3176
 2505TIP3    H129150   6.509   4.852   8.614 -3.0911 -0.1972  0.2896
 2505TIP3    H229151   6.447   4.988   8.591 -2.6578  0.2657  1.7516
 2506TIP3   OH229152   6.253   0.215   2.452  0.3009 -0.0565  0.2320
 2506TIP3    H129153   6.231   0.151   2.519 -1.2784  0.1255 -0.0824
 2506TIP3    H229154   6.190   0.286   2.464 -0.7096 -0.4707 -2.0688
 2507TIP3   OH229155   3.488   4.071   0.078 -0.2359 -0.2476  0.3220
 2507TIP3    H129156   3.407   4.071   0.026  0.5811  0.3624 -0.9815
 2507TIP3    H229157   3.539   3.998   0.044  0.4055  0.2914  0.1096
 2508TIP3   OH229158   0.599   4.148   7.963  0.6054  0.6371  0.5344
 2508TIP3    H129159   0.689   4.175   7.947  0.4689  0.8906  0.1817
 2508TIP3    H229160   0.586   4.074   7.902  1.4568 -1.2717  2.5224
 2509TIP3   OH229161   0.802   3.921   0.256  0.8203  0.0139 -0.0659
 2509TIP3    H129162   0.736   3.860   0.290  1.4142 -0.1293  0.8469
 2509TIP3    H229163   0.801   3.994   0.317  1.2798  0.1702 -0.2432
 2510TIP3   OH229164   5.021   6.148   8.205  0.6645  0.0069 -1.0119
 2510TIP3    H129165   5.107   6.121   8.170  1.1418  0.0502  0.0796
 2510TIP3    H229166   4.960   6.133   8.133  1.5590 -0.2318 -1.7394
 2511TIP3   OH229167   5.513   6.446   1.821  0.4142 -0.2917 -0.1178
 2511TIP3    H129168   5.562   6.365   1.807  2.2744  0.5952  0.8943
 2511TIP3    H229169   5.494   6.478   1.732  3.4944  0.3220 -0.6955
 2512TIP3   OH229170   5.418   2.430   2.600 -0.1758  0.1260 -0.1054
 2512TIP3    H129171   5.419   2.334   2.604  0.9074  0.0464 -1.4685
 2512TIP3    H229172   5.369   2.457   2.678  0.0483 -1.5041  0.6389
 2513TIP3   OH229173   5.023   5.825   8.685 -0.2190  0.5908 -0.1639
 2513TIP3    H129174   5.061   5.897   8.635  1.3730  1.4467  2.1245
 2513TIP3    H229175   5.096   5.765   8.700 -0.9085 -0.1535  0.2971
 2514TIP3   OH229176   3.097   3.816   2.946 -0.1382  0.1789 -0.2890
 2514TIP3    H129177   3.162   3.746   2.940  0.9827  1.1027  0.5167
 2514TIP3    H229178   3.047   3.796   3.024  2.0690  1.7133  1.6727
 2515TIP3   OH229179   5.444   0.583   1.215 -0.2515  0.4584 -0.2924
 2515TIP3    H129180   5.490   0.597   1.132  0.4573  0.1893  0.0475
 2515TIP3    H229181   5.501   0.623   1.281 -0.4412  0.0098  0.1482
 2516TIP3   OH229182   6.276   3.447   2.145  0.2845 -0.3244 -0.2401
 2516TIP3    H129183   6.189   3.466   2.180  0.7734  2.2387 -0.2344
 2516TIP3    H229184   6.336   3.474   2.214  1.1219 -1.3626 -0.5390
 2517TIP3   OH229185   2.242   5.106   1.376  0.3205  0.5840 -0.5799
 2517TIP3    H129186   2.265   5.153   1.295 -1.7092  2.6955 -0.0244
 2517TIP3    H229187   2.324   5.064   1.402  1.7437  2.0917 -2.2697
 2518TIP3   OH229188   2.117   3.316   1.393 -0.4771  0.5441  0.0005
 2518TIP3    H129189   2.102   3.261   1.317  0.7533  1.0768 -0.6629
 2518TIP3    H229190   2.131   3.255   1.465  0.2215 -0.0147 -0.5921
 2519TIP3   OH229191   5.187   6.217   2.942 -0.0007  0.4498  0.5391
 2519TIP3    H129192   5.240   6.292   2.915 -0.5980  0.1311 -1.7813
 2519TIP3    H229193   5.221   6.144   2.890 -1.3652 -0.2061  0.5167
 2520TIP3   OH229194   5.784   2.257   8.097 -0.2985 -0.4254  0.0747
 2520TIP3    H129195   5.724   2.308   8.042  0.8649 -2.2594 -3.1278
 2520TIP3    H229196   5.740   2.173   8.109  0.5661 -0.9125 -0.1589
 2521TIP3   OH229197   6.154   5.251   1.616 -0.3818  0.1535  0.7682
 2521TIP3    H129198   6.082   5.240   1.555  1.5333  0.4020 -1.7029
 2521TIP3    H229199   6.181   5.342   1.607  0.1368  0.1273  1.8059
 2522TIP3   OH229200   2.523   6.801   0.709  0.0798  0.0432 -0.0999
 2522TIP3    H129201   2.595   6.845   0.664 -0.5760  1.2348 -0.0196
 2522TIP3    H229202   2.532   6.709   0.683  1.2126  0.2820 -0.6311
 2523TIP3   OH229203   5.679   1.939   3.052 -0.0531  0.2013 -0.3097
 2523TIP3    H129204   5.702   2.027   3.024 -1.1616  1.0755  1.3582
 2523TIP3    H229205   5.619   1.907   2.985  1.3011  0.2021 -1.5628
 2524TIP3   OH229206   0.113   1.660   1.389 -0.1697 -0.0123  0.3290
 2524TIP3    H129207   0.185   1.663   1.326 -0.3761 -1.5679 -0.0250
 2524TIP3    H229208   0.050   1.599   1.350 -0.2443 -1.1217  2.1014
 2525TIP3   OH229209   6.536   6.574   0.782 -0.0470 -0.1762  1.1479
 2525TIP3    H129210   6.507   6.490   0.816  0.8098 -0.4058  1.3330
 2525TIP3    H229211   6.462   6.633   0.796  0.0655 -0.4081  2.8866
 2526TIP3   OH229212   2.229   6.322   1.544 -0.0985  0.1488  0.3721
 2526TIP3    H129213   2.137   6.314   1.569  0.2274 -0.0767  1.6082
 2526TIP3    H229214   2.246   6.245   1.489 -0.8678  0.6852 -0.6337
 2527TIP3   OH229215   6.726   1.246   7.429 -0.0430  0.5567  0.2709
 2527TIP3    H129216   6.819   1.257   7.449  0.0476  0.2821  0.0042
 2527TIP3    H229217   6.695   1.335   7.411 -0.2916  0.9251  2.2821
 2528TIP3   OH229218   1.484   2.990   1.757 -0.3351 -0.3141 -0.5421
 2528TIP3    H129219   1.517   2.958   1.841 -0.6209  0.7073 -0.0236
 2528TIP3    H229220   1.397   2.950   1.749 -0.7905  0.4920  0.2125
 2529TIP3   OH229221   4.227   3.397   7.323  0.8857  0.3167  0.2532
 2529TIP3    H129222   4.274   3.477   7.298  0.2373  0.6136 -0.0536
 2529TIP3    H229223   4.135   3.422   7.320  0.7084 -0.2468  0.8794
 2530TIP3   OH229224   0.405   3.552   0.818 -0.3697  0.1044 -0.3879
 2530TIP3    H129225   0.318   3.546   0.777  0.4372  0.5639 -2.2880
 2530TIP3    H229226   0.394   3.614   0.890 -2.1248 -1.6259  0.9397
 2531TIP3   OH229227   1.646   5.039   1.436  0.0204 -0.2774  0.0439
 2531TIP3    H129228   1.591   5.058   1.360 -0.1663  0.8002  0.4345
 2531TIP3    H229229   1.584   5.021   1.507  0.1213  1.2100  0.5548
 2532TIP3   OH229230   3.281   3.152   2.582  0.1578  0.1882 -0.2170
 2532TIP3    H129231   3.336   3.228   2.564 -1.3270  1.3044 -0.1916
 2532TIP3    H229232   3.285   3.101   2.500  1.2779  0.1875 -0.1814
 2533TIP3   OH229233   6.103   3.524   7.342  0.1213 -0.2534 -0.1447
 2533TIP3    H129234   6.066   3.460   7.282 -0.6278 -0.4589  0.5109
 2533TIP3    H229235   6.082   3.609   7.302  1.1269 -0.3944 -1.0173
 2534TIP3   OH229236   3.505   0.695   1.626  0.1577 -0.6451  0.0477
 2534TIP3    H129237   3.570   0.722   1.691 -0.1520 -0.4784  0.2936
 2534TIP3    H229238   3.527   0.605   1.605 -0.0083 -0.8456  0.7171
 2535TIP3   OH229239   4.377   1.947   8.598  0.3195 -0.0057 -0.1506
 2535TIP3    H129240   4.453   2.004   8.608 -0.0163  0.5630 -0.7656
 2535TIP3    H229241   4.337   1.974   8.515 -0.8224  0.0333  0.3951
 2536TIP3   OH229242   1.788   4.317   8.312 -0.2355 -0.3350 -0.0390
 2536TIP3    H129243   1.838   4.269   8.245  0.1793  1.0833 -0.7814
 2536TIP3    H229244   1.852   4.333   8.382  0.0670  0.5343 -0.5080
 2537TIP3   OH229245   6.710   2.495   0.395 -0.3203  0.4699  0.1863
 2537TIP3    H129246   6.665   2.436   0.455  0.2466  1.3905  1.5711
 2537TIP3    H229247   6.723   2.443   0.315  0.4811 -1.4183  1.4538
 2538TIP3   OH229248   0.456   1.484   0.995  0.0683 -0.0671 -0.7433
 2538TIP3    H129249   0.446   1.442   0.909 -0.3038  2.5690 -2.0688
 2538TIP3    H229250   0.518   1.555   0.980 -0.1696  0.5945  1.1370
 2539TIP3   OH229251   6.625   2.226   8.526  0.1100 -0.2082 -0.2958
 2539TIP3    H129252   6.706   2.272   8.504 -0.9311  0.8691 -2.1311
 2539TIP3    H229253   6.617   2.158   8.459  0.0078 -0.9924  0.4970
 2540TIP3   OH229254   2.723   1.479   8.139 -0.5298 -0.2320 -0.2337
 2540TIP3    H129255   2.792   1.425   8.100 -0.7144 -1.7268  1.4031
 2540TIP3    H229256   2.752   1.495   8.229 -2.9356 -2.2003  1.0077
 2541TIP3   OH229257   4.137   4.999   8.160  0.4861 -0.3775  0.0634
 2541TIP3    H129258   4.139   5.091   8.186 -0.7232 -0.4120  0.3151
 2541TIP3    H229259   4.061   4.962   8.205  1.5871 -1.7873  0.8568
 2542TIP3   OH229260   4.551   0.728   1.304  0.2279  0.1264  0.0699
 2542TIP3    H129261   4.546   0.679   1.386  3.5195  1.5731  1.3484
 2542TIP3    H229262   4.581   0.664   1.240 -1.8702 -0.9029  0.0145
 2543TIP3   OH229263   2.074   4.643   7.775  0.1006  0.2231  0.3108
 2543TIP3    H129264   2.035   4.564   7.739 -0.1198 -0.0111  1.0309
 2543TIP3    H229265   2.104   4.693   7.699 -0.5126 -0.1599 -0.1891
 2544TIP3   OH229266   3.251   1.771   7.750  0.3505  0.4279 -0.3997
 2544TIP3    H129267   3.224   1.863   7.753  0.2934  0.3988  0.0729
 2544TIP3    H229268   3.260   1.751   7.657  1.4418  1.2238 -0.4802
 2545TIP3   OH229269   2.869   1.481   7.772 -0.0263 -0.0544 -0.5996
 2545TIP3    H129270   2.947   1.499   7.720  0.3450  0.4348  0.0969
 2545TIP3    H229271   2.902   1.436   7.850 -0.5664 -0.7669 -0.7682
 2546TIP3   OH229272   5.242   5.094   2.191 -0.3540 -0.1020  0.2269
 2546TIP3    H129273   5.195   5.157   2.136 -0.5040 -0.9314 -0.6107
 2546TIP3    H229274   5.299   5.148   2.245 -1.2290  0.8289  0.2525
 2547TIP3   OH229275   5.321   5.814   8.643 -0.2482  0.4119  0.2249
 2547TIP3    H129276   5.376   5.888   8.670  2.1924 -0.1652 -2.6313
 2547TIP3    H229277   5.303   5.830   8.550  0.1422 -2.4057 -0.4290
 2548TIP3   OH229278   5.968   2.089   1.230  0.2212  0.1284 -0.1937
 2548TIP3    H129279   6.002   2.176   1.250 -1.6866  0.2478  3.3272
 2548TIP3    H229280   5.904   2.104   1.161 -1.1476  1.8357  1.3569
 2549TIP3   OH229281   3.685   3.086   1.795  0.4205  0.1614  0.4542
 2549TIP3    H129282   3.682   3.009   1.738 -2.7296 -1.1926  2.2194
 2549TIP3    H229283   3.747   3.145   1.752 -0.0268 -1.6872 -3.0917
 2550TIP3   OH229284   2.172   5.606   0.023  0.2920 -0.3754  0.8242
 2550TIP3    H129285   2.163   5.548   0.099 -2.9550 -2.5115 -0.9383
 2550TIP3    H229286   2.133   5.689   0.051  0.6204 -0.5841  1.9425
 2551TIP3   OH229287   3.795   2.459   7.444  0.0751 -0.6304 -0.1881
 2551TIP3    H129288   3.731   2.390   7.426 -0.3767 -0.3338  0.2563
 2551TIP3    H229289   3.836   2.476   7.360 -1.1298 -0.1318 -0.6879
 2552TIP3   OH229290   3.292   3.432   8.700 -0.2511  0.2510 -0.4866
 2552TIP3    H129291   3.202   3.426   8.732 -0.5781 -1.3307 -1.5763
 2552TIP3    H229292   3.340   3.366   8.750  0.0713  0.3425 -0.6697
 2553TIP3   OH229293   1.192   6.634   2.010 -0.1427 -0.3695 -0.6920
 2553TIP3    H129294   1.274   6.661   1.968 -0.6155  0.9065 -0.8584
 2553TIP3    H229295   1.196   6.674   2.097 -0.1329 -1.1819 -0.3112
 2554TIP3   OH229296   5.493   5.313   8.102 -0.7349 -0.2080 -0.3645
 2554TIP3    H129297   5.494   5.251   8.029 -0.7474  1.0059 -1.4520
 2554TIP3    H229298   5.483   5.399   8.060 -0.8106  0.5298  1.0818
 2555TIP3   OH229299   6.473   2.012   0.190 -0.0167  0.3093 -0.1862
 2555TIP3    H129300   6.523   1.975   0.118 -0.9217  0.1905 -0.7770
 2555TIP3    H229301   6.461   2.104   0.166 -0.2296  0.2950 -0.1392
 2556TIP3   OH229302   3.234   0.579   1.749  0.0328  0.6715  0.0181
 2556TIP3    H129303   3.276   0.493   1.754  1.0123  1.2062  1.5721
 2556TIP3    H229304   3.297   0.634   1.703 -0.9809  0.3760 -1.8002
 2557TIP3   OH229305   2.701   0.758   7.790  0.3531  0.0784 -0.1476
 2557TIP3    H129306   2.654   0.823   7.843 -0.7860  0.5002 -1.6058
 2557TIP3    H229307   2.771   0.808   7.748 -0.8467  0.5390 -1.6866
 2558TIP3   OH229308   5.731   2.733   1.764 -0.6381 -0.0516  0.4335
 2558TIP3    H129309   5.803   2.695   1.714 -1.1723 -0.5554  0.0427
 2558TIP3    H229310   5.653   2.685   1.736 -1.2375  0.9264  0.3685
 2559TIP3   OH229311   4.944   4.937   0.349 -0.1427 -0.3036  0.1324
 2559TIP3    H129312   4.956   4.844   0.328 -1.7587 -1.0235  2.0387
 2559TIP3    H229313   4.853   4.955   0.327  0.0499  0.7271  0.1510
 2560TIP3   OH229314   4.059   1.037   7.711 -0.1088  0.4549  0.1386
 2560TIP3    H129315   4.023   0.984   7.640  0.3808  0.2219  0.0645
 2560TIP3    H229316   4.059   0.978   7.786  1.1709  0.0890 -0.1291
 2561TIP3   OH229317   6.107   1.187   8.307  0.5614 -0.3871 -0.0132
 2561TIP3    H129318   6.186   1.183   8.254  0.0773  1.2239 -0.9057
 2561TIP3    H229319   6.043   1.134   8.259 -0.1876  1.8706 -1.7061
 2562TIP3   OH229320   3.393   0.343   1.732 -0.0006  0.2390  0.0943
 2562TIP3    H129321   3.468   0.346   1.673  0.5190 -1.2215  0.6448
 2562TIP3    H229322   3.323   0.302   1.681 -0.8162  2.5258 -0.7682
 2563TIP3   OH229323   2.280   0.144   8.441 -0.1107 -0.7964 -0.6029
 2563TIP3    H129324   2.368   0.176   8.458 -0.8031  1.9043 -1.5096
 2563TIP3    H229325   2.231   0.167   8.520 -0.4166 -0.4517 -0.8890
 2564TIP3   OH229326   6.044   2.022   2.977  0.2960 -0.7944  0.0776
 2564TIP3    H129327   6.021   2.061   3.062  1.9218 -0.1544  0.2724
 2564TIP3    H229328   6.134   1.991   2.989  0.1277 -1.8144 -1.0598
 2565TIP3   OH229329   1.919   4.853   1.442  0.1537  0.3743 -0.3634
 2565TIP3    H129330   1.972   4.906   1.383  0.5486  2.5244  1.7387
 2565TIP3    H229331   1.832   4.894   1.439 -0.0598 -0.0645 -0.1701
 2566TIP3   OH229332   0.816   3.181   7.991 -0.7379  0.0648  0.0138
 2566TIP3    H129333   0.898   3.200   7.945 -1.6631 -0.2696 -1.8292
 2566TIP3    H229334   0.775   3.111   7.941 -1.7772 -0.3742  1.4045
 2567TIP3   OH229335   6.629   3.364   2.236  0.0065 -0.5672  0.1300
 2567TIP3    H129336   6.559   3.425   2.260 -0.3238 -0.4892 -0.9440
 2567TIP3    H229337   6.705   3.392   2.287  0.0353  1.1512 -0.7893
 2568TIP3   OH229338   0.747   5.460   0.292  0.3896  0.5113 -0.1585
 2568TIP3    H129339   0.700   5.381   0.265  1.5845  0.0501 -0.9990
 2568TIP3    H229340   0.722   5.526   0.227 -2.1406  1.4897  1.6207
 2569TIP3   OH229341   1.920   1.498   1.994 -0.1306 -0.9760 -0.8411
 2569TIP3    H129342   1.975   1.427   1.961 -0.1545 -0.4530 -2.0951
 2569TIP3    H229343   1.881   1.536   1.915 -0.3372  0.2400 -0.1793
 2570TIP3   OH229344   0.831   2.221   2.158  0.1449 -0.0271 -0.3313
 2570TIP3    H129345   0.828   2.135   2.199 -0.7844  0.5468  0.8778
 2570TIP3    H229346   0.841   2.204   2.065  0.0936 -1.4332 -0.0903
 2571TIP3   OH229347   4.015   3.486   7.800 -0.7430  0.0656 -0.1427
 2571TIP3    H129348   4.050   3.543   7.732  1.8748 -1.0732  0.1351
 2571TIP3    H229349   3.954   3.429   7.755  0.6341 -0.3925 -1.5145
 2572TIP3   OH229350   4.298   0.528   2.150  0.5874 -0.0983 -0.1331
 2572TIP3    H129351   4.327   0.600   2.094  2.1629 -0.9294 -0.4296
 2572TIP3    H229352   4.319   0.557   2.239  3.1712 -0.9712 -0.3759
 2573TIP3   OH229353   2.297   4.087   2.682 -0.0932 -0.1160 -0.2546
 2573TIP3    H129354   2.211   4.127   2.695  0.1150  0.0820  0.5933
 2573TIP3    H229355   2.282   3.993   2.693 -0.2916 -0.1333 -0.6441
 2574TIP3   OH229356   2.574   0.513   8.625  0.7131  0.4314 -0.9751
 2574TIP3    H129357   2.647   0.450   8.629  0.1151 -0.2259  0.9032
 2574TIP3    H229358   2.616   0.598   8.618  1.6931  0.0502 -0.1005
 2575TIP3   OH229359   2.335   4.605   7.051  0.1402  0.4655  0.5253
 2575TIP3    H129360   2.407   4.659   7.019 -0.8757  1.8369  0.4952
 2575TIP3    H229361   2.303   4.650   7.129  0.4041 -1.0524  1.5672
 2576TIP3   OH229362   2.300   5.516   3.078 -0.2525 -0.7153  0.1348
 2576TIP3    H129363   2.270   5.607   3.082  1.9729  0.0611  0.8051
 2576TIP3    H229364   2.236   5.472   3.023 -0.7758  1.5421 -1.1964
 2577TIP3   OH229365   6.669   4.484   1.013  0.1287 -0.0690 -0.5253
 2577TIP3    H129366   6.623   4.409   1.051 -2.7455  1.6913 -0.2857
 2577TIP3    H229367   6.658   4.473   0.919  1.1701 -0.7594 -0.5877
 2578TIP3   OH229368   5.444   0.090   7.533 -0.0694 -0.1028  0.3834
 2578TIP3    H129369   5.506   0.112   7.602 -0.0516  0.1809  0.2763
 2578TIP3    H229370   5.481   0.128   7.453  0.1749 -0.8748  0.1164
 2579TIP3   OH229371   3.577   5.925   7.228  0.1915  0.0817  0.0968
 2579TIP3    H129372   3.593   5.941   7.321  1.4070  2.2713 -0.4426
 2579TIP3    H229373   3.505   5.984   7.206 -0.5913 -0.9632 -0.2248
 2580TIP3   OH229374   6.638   6.366   1.821 -0.3525  0.2584 -0.2738
 2580TIP3    H129375   6.733   6.366   1.808 -0.2734 -0.9362  0.1400
 2580TIP3    H229376   6.605   6.424   1.753  0.6720  0.6491 -0.4623
 2581TIP3   OH229377   1.657   0.534   7.861 -0.3315 -0.1322  0.2790
 2581TIP3    H129378   1.713   0.473   7.812 -1.3574  0.2487 -1.4386
 2581TIP3    H229379   1.719   0.597   7.898  0.4383  0.0433 -1.2294
 2582TIP3   OH229380   5.346   3.322   8.517  0.3428 -0.3897  0.2504
 2582TIP3    H129381   5.251   3.333   8.514  0.4739  1.1001  0.7919
 2582TIP3    H229382   5.363   3.241   8.468 -1.2412 -0.9612  0.5943
 2583TIP3   OH229383   2.643   1.582   7.885 -0.3663  0.1221  0.0152
 2583TIP3    H129384   2.716   1.566   7.825  0.2712 -1.5192  1.1411
 2583TIP3    H229385   2.668   1.536   7.965 -2.1894  0.3830  0.7822
 2584TIP3   OH229386   3.512   1.957   7.098 -0.1411  0.2439 -0.3301
 2584TIP3    H129387   3.480   1.923   7.181  1.9777 -0.0323  0.4333
 2584TIP3    H229388   3.473   2.045   7.092 -0.8451  0.0161  0.6194
 2585TIP3   OH229389   1.725   2.764   7.380  0.5939 -0.1258  0.1046
 2585TIP3    H129390   1.792   2.807   7.327  1.6545 -0.9554  0.7358
 2585TIP3    H229391   1.769   2.687   7.415  0.2824  0.9481  3.0780
 2586TIP3   OH229392   0.590   0.153   0.845  0.4550 -0.0488 -0.1496
 2586TIP3    H129393   0.575   0.187   0.934 -0.7514 -0.9909  0.0342
 2586TIP3    H229394   0.507   0.168   0.799  1.0281  0.3156 -1.0958
 2587TIP3   OH229395   1.740   2.622   8.484 -0.2700 -0.1651 -0.5884
 2587TIP3    H129396   1.828   2.615   8.520 -0.8287  0.3950  0.9463
 2587TIP3    H229397   1.728   2.715   8.467  0.0479 -0.4230 -2.4975
 2588TIP3   OH229398   6.760   4.668   1.226 -0.2285  0.0455  0.6529
 2588TIP3    H129399   6.834   4.609   1.238 -0.5189 -0.5956 -0.5259
 2588TIP3    H229400   6.712   4.632   1.151 -0.2849  1.9207 -0.2745
 2589TIP3   OH229401   3.921   1.685   2.712  0.4765 -0.5059  0.1956
 2589TIP3    H129402   3.906   1.603   2.759  0.9379 -0.5582  0.2644
 2589TIP3    H229403   4.002   1.720   2.750  1.4445 -1.0670 -1.2613
 2590TIP3   OH229404   0.439   5.608   2.053  0.6317 -0.2523 -0.8102
 2590TIP3    H129405   0.519   5.641   2.011 -0.3980  1.3851 -1.5942
 2590TIP3    H229406   0.387   5.687   2.069 -1.2552 -1.3647 -1.2383
 2591TIP3   OH229407   4.405   4.483   1.221 -0.0863  0.2882 -0.4982
 2591TIP3    H129408   4.440   4.500   1.133 -1.3773  0.6073 -0.9638
 2591TIP3    H229409   4.455   4.407   1.252  1.3612  1.0119 -0.9263
 2592TIP3   OH229410   4.853   1.006   0.105 -0.2589 -0.0937  0.3119
 2592TIP3    H129411   4.786   1.061   0.063  0.5724  0.0745 -0.8404
 2592TIP3    H229412   4.908   0.976   0.032  1.9177  1.1168  1.3651
 2593TIP3   OH229413   4.374   3.646   7.849  0.1307 -0.0166 -0.1899
 2593TIP3    H129414   4.340   3.586   7.782  1.0104 -0.0820 -0.5976
 2593TIP3    H229415   4.405   3.589   7.919  0.1970 -0.0027 -0.2071
 2594TIP3   OH229416   4.314   3.369   1.523 -0.1733  0.1388  0.2314
 2594TIP3    H129417   4.404   3.376   1.556 -0.1112  1.0910 -0.1071
 2594TIP3    H229418   4.275   3.299   1.575  0.5546  0.1870  0.8688
 2595TIP3   OH229419   3.292   1.186   1.013  0.4735 -0.1458  0.0638
 2595TIP3    H129420   3.297   1.115   0.949  2.5225 -0.2453  0.2687
 2595TIP3    H229421   3.356   1.251   0.982 -0.0152  0.7613  0.8919
 2596TIP3   OH229422   2.934   2.072   7.391 -0.0377  0.5810 -0.1614
 2596TIP3    H129423   2.858   2.067   7.333 -1.7406 -0.4853  1.9911
 2596TIP3    H229424   2.989   1.999   7.365  0.1853  1.2533 -1.6341
 2597TIP3   OH229425   2.537   3.517   1.285 -0.1303  0.1639 -0.4211
 2597TIP3    H129426   2.555   3.430   1.248 -0.4368  0.1660 -0.5777
 2597TIP3    H229427   2.612   3.535   1.342 -0.9073 -1.0038  1.0519
 2598TIP3   OH229428   1.035   5.882   2.388  0.2729  0.4821 -0.2091
 2598TIP3    H129429   1.013   5.908   2.298 -0.0508  1.5349  0.1595
 2598TIP3    H229430   0.950   5.872   2.431  0.4464  1.2240  0.3167
 2599TIP3   OH229431   6.197   0.052   8.248  0.1564 -0.1063  0.5622
 2599TIP3    H129432   6.256  -0.022   8.260 -0.6065 -0.7904  0.1578
 2599TIP3    H229433   6.167   0.045   8.157 -0.3573  0.3730  0.6895
 2600TIP3   OH229434   1.627   4.432   1.710 -0.4427 -0.1620  0.3629
 2600TIP3    H129435   1.597   4.471   1.791  0.2525 -1.1790  1.1355
 2600TIP3    H229436   1.638   4.339   1.730 -1.0347 -0.5857 -1.1239
 2601TIP3   OH229437   2.997   5.778   1.764  0.0959  0.7412  0.1452
 2601TIP3    H129438   3.060   5.846   1.787 -0.4362  1.4525 -0.4388
 2601TIP3    H229439   2.962   5.806   1.679  0.1748 -0.4922 -0.3077
 2602TIP3   OH229440   3.716   4.101   7.041 -0.4129  0.2864 -0.2314
 2602TIP3    H129441   3.784   4.037   7.020 -1.1755 -0.9035  0.8037
 2602TIP3    H229442   3.668   4.112   6.959 -0.3816 -0.6063 -0.3768
 2603TIP3   OH229443   6.209   3.179   2.899  0.6259  0.1022 -0.0508
 2603TIP3    H129444   6.258   3.261   2.898  1.4395 -0.3833 -0.5645
 2603TIP3    H229445   6.192   3.159   2.807 -0.2428  0.0844  0.1038
 2604TIP3   OH229446   2.556   5.559   2.375  0.1101  0.0034  0.3504
 2604TIP3    H129447   2.567   5.479   2.426 -1.8638  0.2025  1.1772
 2604TIP3    H229448   2.504   5.617   2.431 -0.9545  0.7573 -1.3082
 2605TIP3   OH229449   0.304   3.522   1.843  0.1717 -0.0068 -0.3814
 2605TIP3    H129450   0.215   3.486   1.833  0.0317  0.3152 -0.3100
 2605TIP3    H229451   0.315   3.579   1.767 -0.4644  1.5554  0.6654
 2606TIP3   OH229452   2.728   5.678   1.861  0.2990  0.4223 -0.6584
 2606TIP3    H129453   2.695   5.735   1.931  0.4366 -1.8647  1.4177
 2606TIP3    H229454   2.650   5.656   1.810 -0.9641 -1.9714  1.9967
 2607TIP3   OH229455   6.831   3.411   2.989  0.2443 -0.2327  0.3003
 2607TIP3    H129456   6.924   3.427   3.001  0.2033  1.5005 -1.2150
 2607TIP3    H229457   6.791   3.498   2.991 -1.3808 -0.9617  1.1078
 2608TIP3   OH229458   6.813   2.134   0.773 -0.2587  0.1844 -0.3289
 2608TIP3    H129459   6.857   2.095   0.848 -0.8701 -0.4936 -0.3155
 2608TIP3    H229460   6.720   2.129   0.794 -0.4892 -0.7968 -1.4990
 2609TIP3   OH229461   0.825   4.451   0.217  0.0509  0.1754  0.2401
 2609TIP3    H129462   0.770   4.380   0.184 -0.9805  2.2705 -3.0676
 2609TIP3    H229463   0.858   4.419   0.301 -3.7919 -2.4384  1.0254
 2610TIP3   OH229464   6.422   0.297   0.101 -0.9389 -0.3803  0.6962
 2610TIP3    H129465   6.461   0.228   0.048 -1.4197 -1.8594  2.1772
 2610TIP3    H229466   6.461   0.287   0.188 -1.1080  1.1477  0.9939
 2611TIP3   OH229467   3.633   1.801   2.439  0.7522  0.1556  0.8806
 2611TIP3    H129468   3.724   1.820   2.464  0.5265  0.6151  1.3845
 2611TIP3    H229469   3.582   1.871   2.481  0.0437 -0.7278  1.5127
 2612TIP3   OH229470   2.322   2.479   7.492  0.3329 -0.5863  0.1517
 2612TIP3    H129471   2.321   2.548   7.558  0.5563  1.0740 -1.5083
 2612TIP3    H229472   2.364   2.519   7.416 -0.3684 -2.2712 -1.1872
 2613TIP3   OH229473   5.842   5.538   2.634 -0.2157  0.1827  0.6785
 2613TIP3    H129474   5.823   5.614   2.580 -0.9944  0.1777  0.9340
 2613TIP3    H229475   5.895   5.481   2.578 -0.4141  0.4940  0.1687
 2614TIP3   OH229476   2.339   5.747   8.077 -0.4412  0.5373  0.1663
 2614TIP3    H129477   2.260   5.784   8.116 -0.0053 -0.0688  1.7331
 2614TIP3    H229478   2.410   5.797   8.117  0.0469 -0.4437  0.5475
 2615TIP3   OH229479   0.443   5.472   0.588  0.0644  0.3143  0.1849
 2615TIP3    H129480   0.378   5.405   0.568 -1.4813  1.7818  0.0815
 2615TIP3    H229481   0.402   5.524   0.657  2.3316 -0.3855  2.1975
 2616TIP3   OH229482   1.024   6.127   7.883  0.2353 -0.0760 -0.2410
 2616TIP3    H129483   1.054   6.040   7.909 -1.1025 -0.7736 -0.9562
 2616TIP3    H229484   1.091   6.159   7.823  0.5225 -0.7814 -0.3019
 2617TIP3   OH229485   6.691   4.879   0.962  0.0359  0.1069  0.0317
 2617TIP3    H129486   6.770   4.886   1.015  0.9347  2.0912 -1.4331
 2617TIP3    H229487   6.630   4.942   1.000 -0.7395 -1.1191  0.8996
 2618TIP3   OH229488   6.098   1.366   1.615 -0.4885  0.4365 -1.0508
 2618TIP3    H129489   6.053   1.355   1.698 -0.0645  2.3554 -0.4929
 2618TIP3    H229490   6.054   1.307   1.555 -0.8092 -0.9980  0.5206
 2619TIP3   OH229491   4.641   5.462   7.544 -0.2282 -0.7309 -0.5028
 2619TIP3    H129492   4.633   5.399   7.473 -2.5206 -1.0443 -0.0510
 2619TIP3    H229493   4.555   5.505   7.548  1.4796  3.1477 -1.3835
 2620TIP3   OH229494   1.586   6.761   7.617 -0.0190  0.6406  0.4356
 2620TIP3    H129495   1.640   6.835   7.646  1.4369 -0.2944  0.2319
 2620TIP3    H229496   1.499   6.781   7.650  0.7689  1.4376  2.2035
 2621TIP3   OH229497   4.084   5.910   0.368  0.0274 -0.0961 -0.3571
 2621TIP3    H129498   4.005   5.907   0.313  1.6203 -0.0473 -2.8382
 2621TIP3    H229499   4.122   5.996   0.350  1.0872 -0.4495  0.1023
 2622TIP3   OH229500   5.569   2.990   7.926 -0.1293 -0.1343 -0.6001
 2622TIP3    H129501   5.522   2.965   8.006 -1.2631 -1.7156 -1.7075
 2622TIP3    H229502   5.551   3.083   7.915  0.8895  0.3706  1.5137
 2623TIP3   OH229503   0.710   4.169   7.435  0.0719  0.3698  0.0157
 2623TIP3    H129504   0.623   4.130   7.444 -0.0813  0.6101 -0.3984
 2623TIP3    H229505   0.738   4.144   7.347  0.7265 -0.3104  0.3999
 2624TIP3   OH229506   3.931   5.570   2.400 -0.2295  0.4545 -0.2584
 2624TIP3    H129507   3.904   5.661   2.404 -1.9219 -0.0244  0.1488
 2624TIP3    H229508   3.884   5.527   2.472  0.6986 -0.6982 -0.3011
 2625TIP3   OH229509   0.971   3.243   3.402 -0.0861 -0.1085 -0.0780
 2625TIP3    H129510   0.946   3.151   3.414 -0.2978 -0.0032  0.3437
 2625TIP3    H229511   0.888   3.291   3.412  0.0290  0.1267 -0.2604
 2626TIP3   OH229512   3.453   3.903   2.696 -0.2443 -0.0541 -0.1138
 2626TIP3    H129513   3.429   3.979   2.643 -0.5925 -2.0206 -3.0360
 2626TIP3    H229514   3.546   3.890   2.680 -0.0209  0.1190  0.9403
 2627TIP3   OH229515   3.864   0.296   7.871 -0.3135  0.1695 -0.0579
 2627TIP3    H129516   3.936   0.358   7.871  0.2804 -0.5036 -0.3286
 2627TIP3    H229517   3.884   0.236   7.799 -0.5628 -0.6818  0.5607
 2628TIP3   OH229518   0.621   3.983   8.669  0.2672 -0.2569 -0.1109
 2628TIP3    H129519   0.545   3.968   8.726 -0.4352  1.0864 -0.6467
 2628TIP3    H229520   0.631   3.901   8.621 -0.3824 -0.7081  0.4900
 2629TIP3   OH229521   3.136   0.013   0.283  0.4748 -0.2157 -0.0278
 2629TIP3    H129522   3.072   0.084   0.277  0.2783 -0.3326  0.6241
 2629TIP3    H229523   3.142  -0.022   0.194 -1.0165 -0.7665  0.0757
 2630TIP3   OH229524   0.607   6.611   1.223 -0.8063 -0.7715 -0.2562
 2630TIP3    H129525   0.533   6.661   1.188  1.1417  2.0698 -0.6566
 2630TIP3    H229526   0.594   6.610   1.317 -0.9665  0.4299 -0.2524
 2631TIP3   OH229527   4.840   2.950   8.699 -0.7111  0.1468 -0.0076
 2631TIP3    H129528   4.846   2.977   8.790  0.7465  0.2590 -0.1106
 2631TIP3    H229529   4.843   2.855   8.702  1.2825  0.1619  0.0014
 2632TIP3   OH229530   1.254   5.495   1.525 -0.0981  0.9754  0.2333
 2632TIP3    H129531   1.189   5.481   1.593 -0.9138  1.5441 -0.4078
 2632TIP3    H229532   1.262   5.590   1.517  0.7635  0.9150  0.2521
 2633TIP3   OH229533   0.353   4.439   2.173  0.1693 -0.2583  0.7515
 2633TIP3    H129534   0.260   4.461   2.185  0.3376  0.3568  1.0018
 2633TIP3    H229535   0.370   4.372   2.240  0.3899  1.0883  2.1014
 2634TIP3   OH229536   3.909   1.217   1.390  0.1647 -0.0744 -0.1203
 2634TIP3    H129537   3.825   1.259   1.410  0.4254  0.7433 -0.6951
 2634TIP3    H229538   3.948   1.200   1.476  0.4496  1.6988  0.1500
 2635TIP3   OH229539   5.037   4.649   8.445  0.1646  0.0126  0.3116
 2635TIP3    H129540   4.946   4.674   8.461  0.2587  0.5128  0.0912
 2635TIP3    H229541   5.035   4.601   8.362  0.0867 -0.0800  0.3663
 2636TIP3   OH229542   0.586   2.633   1.603 -0.3328  0.3049  0.2823
 2636TIP3    H129543   0.652   2.616   1.535  1.2282  2.0755  1.2703
 2636TIP3    H229544   0.612   2.578   1.676  0.1365  1.0654  0.7028
 2637TIP3   OH229545   1.972   1.177   0.819 -0.1360 -0.0293 -0.6758
 2637TIP3    H129546   2.064   1.187   0.796 -0.2135 -0.4983 -1.1960
 2637TIP3    H229547   1.964   1.088   0.852 -0.3681  0.0713 -0.4507
 2638TIP3   OH229548   5.182   4.033   1.761  0.0974  0.6615 -0.7199
 2638TIP3    H129549   5.190   4.099   1.831 -0.3726  1.6547 -1.5797
 2638TIP3    H229550   5.088   4.026   1.745  0.1335 -0.3343 -0.5526
 2639TIP3   OH229551   2.093   3.046   0.835 -0.0376  0.3461 -0.2153
 2639TIP3    H129552   2.084   3.034   0.740 -0.5652 -1.3244 -0.0049
 2639TIP3    H229553   2.021   3.104   0.859 -1.8737 -1.6806 -0.4783
 2640TIP3   OH229554   0.727   0.037   8.052  0.6653  0.1419  0.4421
 2640TIP3    H129555   0.679  -0.042   8.027  1.0047 -0.2051  0.8772
 2640TIP3    H229556   0.817   0.021   8.023  1.0969 -0.3154  1.9624
 2641TIP3   OH229557   2.763   1.973   8.182  0.0032 -0.6080 -0.5208
 2641TIP3    H129558   2.845   1.924   8.193  1.6439  1.8934 -0.6743
 2641TIP3    H229559   2.731   1.947   8.096  1.3200 -0.7317 -0.9971
 2642TIP3   OH229560   3.764   4.065   7.337 -0.2911 -0.2795 -0.5942
 2642TIP3    H129561   3.751   4.128   7.266 -1.1090  1.3239  0.8863
 2642TIP3    H229562   3.820   4.110   7.400  0.4331 -1.6677 -0.1946
 2643TIP3   OH229563   1.994   4.534   0.484 -0.0952 -0.5072 -0.6327
 2643TIP3    H129564   2.075   4.487   0.506 -1.4309 -2.9720 -0.7079
 2643TIP3    H229565   1.963   4.568   0.568 -0.3060 -1.8427 -0.1383
 2644TIP3   OH229566   5.607   6.795   7.370 -0.3284  0.2903 -0.6938
 2644TIP3    H129567   5.694   6.782   7.333 -0.3780 -0.4878 -0.5625
 2644TIP3    H229568   5.585   6.885   7.349  0.5873  0.5531 -0.5570
 2645TIP3   OH229569   3.203   4.938   0.040 -0.4023  0.1150 -0.0061
 2645TIP3    H129570   3.258   5.013   0.014  0.2659  0.3681  1.9726
 2645TIP3    H229571   3.211   4.877  -0.034  2.2505  0.3202 -0.0117
 2646TIP3   OH229572   0.593   3.321   2.539 -0.2738 -0.0609  0.3651
 2646TIP3    H129573   0.542   3.242   2.522  0.8983 -0.7724 -0.0059
 2646TIP3    H229574   0.684   3.292   2.533  0.2210  0.7778  2.7598
 2647TIP3   OH229575   5.205   5.051   7.930 -0.5573 -0.3213  0.3511
 2647TIP3    H129576   5.189   4.989   7.858 -2.3538  0.0001  0.4479
 2647TIP3    H229577   5.177   5.135   7.895 -0.8704 -0.0628  1.2179
 2648TIP3   OH229578   6.586   1.926   7.755 -0.1077 -0.5464  0.4213
 2648TIP3    H129579   6.631   1.939   7.838  1.3475  3.0709 -0.7573
 2648TIP3    H229580   6.656   1.930   7.689 -1.5430 -0.2890 -1.1421
 2649TIP3   OH229581   0.555   0.161   0.548  0.1259 -0.6426 -0.3399
 2649TIP3    H129582   0.606   0.088   0.582 -0.4180 -0.1073  1.8176
 2649TIP3    H229583   0.464   0.140   0.573  0.1057  1.3445  1.6528
 2650TIP3   OH229584   1.607   3.759   0.845 -0.2719 -0.1474 -0.5034
 2650TIP3    H129585   1.649   3.808   0.774 -1.1422 -0.2851 -1.1197
 2650TIP3    H229586   1.586   3.826   0.911 -2.8988  0.6417 -2.0119
 2651TIP3   OH229587   5.618   6.856   2.636  0.4686  0.0406  0.7039
 2651TIP3    H129588   5.540   6.802   2.652  1.2577 -1.0145  1.0577
 2651TIP3    H229589   5.624   6.912   2.713  1.1923 -1.2871  1.6418
 2652TIP3   OH229590   3.310   4.139   0.579 -0.0476 -0.0538  0.1681
 2652TIP3    H129591   3.267   4.216   0.615 -0.0843 -0.4560  1.0140
 2652TIP3    H229592   3.288   4.140   0.485  0.3729  1.2230  0.0712
 2653TIP3   OH229593   3.681   1.675   0.568 -0.5282  0.3637 -0.6796
 2653TIP3    H129594   3.652   1.738   0.502  2.3412  1.6717 -0.8031
 2653TIP3    H229595   3.710   1.728   0.641  0.9567 -0.8545 -0.3368
 2654TIP3   OH229596   3.260   4.164   2.015 -0.6287 -0.0750 -0.0642
 2654TIP3    H129597   3.187   4.109   2.045  0.1936 -0.8821  0.5256
 2654TIP3    H229598   3.314   4.177   2.094  1.1969 -1.6037 -0.9800
 2655TIP3   OH229599   0.041   3.687   8.598 -0.0100  0.3681  0.0031
 2655TIP3    H129600   0.041   3.600   8.559 -0.1178  0.1794  0.4216
 2655TIP3    H229601   0.133   3.713   8.601  0.2652 -0.6813  1.9829
 2656TIP3   OH229602   4.960   6.213   2.366  0.2181  0.1219 -0.5076
 2656TIP3    H129603   4.880   6.263   2.380  0.0238 -0.6516  1.3704
 2656TIP3    H229604   5.028   6.280   2.354 -0.0036  0.9233  2.1048
 2657TIP3   OH229605   5.480   3.773   8.611  0.0241  0.3260 -0.3601
 2657TIP3    H129606   5.422   3.701   8.637  2.4013 -1.4630  0.3836
 2657TIP3    H229607   5.541   3.783   8.685  3.3950 -0.9646 -2.7133
 2658TIP3   OH229608   3.358   2.367   8.541  0.6589  0.1946  0.0186
 2658TIP3    H129609   3.369   2.459   8.563 -1.1718  0.6882 -0.8933
 2658TIP3    H229610   3.314   2.368   8.456 -1.3806 -1.4354  0.9563
 2659TIP3   OH229611   4.553   3.978   0.175 -0.3526 -0.3298  0.0327
 2659TIP3    H129612   4.540   3.884   0.160 -0.5671 -0.1704 -0.8066
 2659TIP3    H229613   4.487   4.020   0.120 -1.6087  0.2696  1.8901
 2660TIP3   OH229614   1.635   3.395   7.902 -1.1358  0.4353  1.2507
 2660TIP3    H129615   1.591   3.369   7.821 -0.9936  0.8211  1.0500
 2660TIP3    H229616   1.720   3.427   7.874 -0.4468 -0.9403  1.6956
 2661TIP3   OH229617   1.760   0.739   2.201 -0.1344 -0.3264 -0.1864
 2661TIP3    H129618   1.704   0.773   2.131 -0.6229 -0.7044  0.0159
 2661TIP3    H229619   1.838   0.707   2.155  0.3216  1.0265 -0.3809
 2662TIP3   OH229620   4.884   0.730   2.766 -0.0094  0.0015 -0.3260
 2662TIP3    H129621   4.913   0.646   2.803 -0.1958  0.5632  1.1324
 2662TIP3    H229622   4.899   0.720   2.672  1.5312 -1.0633 -0.0145
 2663TIP3   OH229623   1.851   6.767   0.941  0.2016 -0.0613  0.1133
 2663TIP3    H129624   1.760   6.743   0.951 -0.3694  1.3860 -1.1233
 2663TIP3    H229625   1.879   6.723   0.860  0.0921  0.7769 -0.3970
 2664TIP3   OH229626   4.723   0.337   8.634 -0.4956 -0.0422  0.2708
 2664TIP3    H129627   4.802   0.352   8.581 -1.9995 -1.6805 -2.7104
 2664TIP3    H229628   4.750   0.355   8.724  3.2658 -0.5437 -0.6082
 2665TIP3   OH229629   4.311   1.102   2.928 -0.2172 -0.0784  0.3997
 2665TIP3    H129630   4.247   1.103   2.857  0.6573  2.8859 -0.4763
 2665TIP3    H229631   4.264   1.137   3.003 -0.5919 -1.3692  0.7915
 2666TIP3   OH229632   1.455   4.823   2.593  0.1106  0.2966 -0.0170
 2666TIP3    H129633   1.541   4.795   2.624 -0.4070 -0.8372  0.4247
 2666TIP3    H229634   1.437   4.766   2.519 -0.8042 -0.3505  0.6811
 2667TIP3   OH229635   6.662   3.255   0.336  0.2107 -0.5286  0.2520
 2667TIP3    H129636   6.622   3.192   0.276 -0.7634  0.8184 -0.5955
 2667TIP3    H229637   6.699   3.202   0.406  0.2780 -2.0863 -0.9034
 2668TIP3   OH229638   1.052   4.496   1.321  0.6946  0.4507  0.3052
 2668TIP3    H129639   1.063   4.583   1.361 -0.7492  1.4546 -1.3107
 2668TIP3    H229640   0.971   4.462   1.360  0.9084  0.1162  0.4581
 2669TIP3   OH229641   5.187   2.373   1.930  0.0177  0.3199 -0.0627
 2669TIP3    H129642   5.139   2.367   2.013  0.8779  0.4444  0.4547
 2669TIP3    H229643   5.223   2.286   1.916  0.9287  0.6183  0.3532
 2670TIP3   OH229644   6.782   2.431   1.933 -0.8512  0.2037  0.2123
 2670TIP3    H129645   6.738   2.493   1.991  0.4612  1.8012 -0.4348
 2670TIP3    H229646   6.717   2.411   1.865 -1.5051  0.3337  0.7863
 2671TIP3   OH229647   6.372   1.093   1.650  0.5485  0.2657  0.0041
 2671TIP3    H129648   6.448   1.137   1.611  0.5461  0.0498 -0.2480
 2671TIP3    H229649   6.313   1.079   1.576  0.5347 -0.1292  0.0868
 2672TIP3   OH229650   2.759   6.767   8.034  0.0767 -0.0033 -0.8712
 2672TIP3    H129651   2.827   6.707   8.004  0.6548  0.9656 -1.5549
 2672TIP3    H229652   2.719   6.799   7.953 -1.5769 -0.9678 -0.4765
 2673TIP3   OH229653   2.194   2.455   7.810 -0.3181 -0.6030 -0.1773
 2673TIP3    H129654   2.240   2.506   7.743  1.2806 -3.1508 -1.1727
 2673TIP3    H229655   2.101   2.469   7.791  0.0912 -0.6863 -2.5377
 2674TIP3   OH229656   0.855   2.475   2.538 -0.3773  0.3268  0.4226
 2674TIP3    H129657   0.776   2.459   2.589  0.7090  1.4578  2.5900
 2674TIP3    H229658   0.834   2.551   2.483 -1.6387 -1.0640 -1.1409
 2675TIP3   OH229659   5.420   2.981   7.542  0.4804 -0.4940  0.3269
 2675TIP3    H129660   5.418   2.898   7.590  1.8035 -0.6564  0.1334
 2675TIP3    H229661   5.341   3.027   7.570  0.2051 -1.4328  1.1374
 2676TIP3   OH229662   5.287   0.913   8.550 -0.3297 -0.1756 -0.0370
 2676TIP3    H129663   5.324   0.993   8.513 -1.6158 -0.1511 -1.3635
 2676TIP3    H229664   5.324   0.908   8.638  0.8419  1.1340 -0.4184
 2677TIP3   OH229665   3.310   4.022   2.891 -0.1096  0.3820  0.2313
 2677TIP3    H129666   3.364   3.976   2.826  0.0235  0.0924  0.5434
 2677TIP3    H229667   3.242   3.959   2.914  0.8608 -0.1887  1.6733
 2678TIP3   OH229668   1.083   5.062   0.787 -0.2798  0.0592 -0.0776
 2678TIP3    H129669   1.171   5.070   0.825  0.9422 -2.5622 -2.0359
 2678TIP3    H229670   1.083   5.123   0.714  0.1111 -0.2775 -0.3644
 2679TIP3   OH229671   5.745   3.033   7.541 -0.3712 -0.2899  0.0033
 2679TIP3    H129672   5.705   3.088   7.473  1.0009  0.6873 -0.0645
 2679TIP3    H229673   5.793   3.094   7.597  1.1976 -1.3859 -0.0608
 2680TIP3   OH229674   5.267   4.213   1.950 -0.0928  0.6147 -0.2797
 2680TIP3    H129675   5.344   4.270   1.946 -0.0464  0.4886 -1.2546
 2680TIP3    H229676   5.204   4.263   2.002  1.4231 -0.2543  2.6102
 2681TIP3   OH229677   1.096   6.458   8.498 -0.6837 -1.0531  0.1417
 2681TIP3    H129678   1.060   6.464   8.587 -1.1699 -0.4293 -0.0907
 2681TIP3    H229679   1.127   6.368   8.491  0.2002 -0.8501  1.2593
 2682TIP3   OH229680   5.125   3.010   1.078  0.1762 -0.2597  0.3950
 2682TIP3    H129681   5.082   2.930   1.108  0.3603 -1.4106 -2.1671
 2682TIP3    H229682   5.068   3.044   1.010  1.2890  0.4725 -0.2058
 2683TIP3   OH229683   5.671   2.768   7.801 -0.1946 -0.1789 -0.4703
 2683TIP3    H129684   5.718   2.777   7.718  1.4892 -1.0126  0.3544
 2683TIP3    H229685   5.639   2.856   7.820  2.3585  0.7858 -0.3331
 2684TIP3   OH229686   6.186   0.984   1.441 -0.1944 -0.7416  0.1571
 2684TIP3    H129687   6.125   1.036   1.388 -1.0293 -0.2692  1.5554
 2684TIP3    H229688   6.130   0.936   1.502  0.8046 -0.6151  1.1962
 2685TIP3   OH229689   6.121   4.998   2.696 -0.3880 -0.1551 -0.2841
 2685TIP3    H129690   6.171   5.056   2.753 -1.3145 -0.8357  1.3150
 2685TIP3    H229691   6.077   5.056   2.634  0.5360  0.6233 -0.2328
 2686TIP3   OH229692   1.286   3.351   8.202  0.4946  0.2848 -0.1574
 2686TIP3    H129693   1.223   3.288   8.236  0.8923  0.0737  0.1826
 2686TIP3    H229694   1.257   3.435   8.236  0.6515  0.1285  0.3617
 2687TIP3   OH229695   3.606   0.821   1.936 -0.2136  0.1067 -0.1519
 2687TIP3    H129696   3.680   0.877   1.960 -0.3371  0.0042  0.4905
 2687TIP3    H229697   3.562   0.803   2.020 -0.0190 -1.1723 -0.3137
 2688TIP3   OH229698   1.622   1.734   8.236 -0.4493 -0.2730  0.3690
 2688TIP3    H129699   1.535   1.705   8.265  0.2682 -3.1417 -0.0451
 2688TIP3    H229700   1.604   1.810   8.181 -2.4457  0.7777  2.3185
 2689TIP3   OH229701   5.907   3.951   0.766 -0.1815  0.1770  0.0908
 2689TIP3    H129702   5.871   3.869   0.798  1.4627  0.4168  2.8955
 2689TIP3    H229703   5.998   3.931   0.744 -0.2173  0.9172 -0.8115
 2690TIP3   OH229704   0.883   5.376   8.680  0.5562 -0.0374 -0.2083
 2690TIP3    H129705   0.848   5.305   8.734  0.6152 -0.1186 -0.2762
 2690TIP3    H229706   0.805   5.415   8.639  0.4989  0.1134  0.0421
 2691TIP3   OH229707   4.310   5.818   2.523 -0.1580  0.4455  0.9666
 2691TIP3    H129708   4.341   5.890   2.578 -0.1009  0.6696  0.6392
 2691TIP3    H229709   4.375   5.811   2.454  0.2469 -0.4226  1.4208
 2692TIP3   OH229710   2.188   5.411   0.673  0.0681  0.3265  0.2138
 2692TIP3    H129711   2.148   5.355   0.740 -1.1551 -0.0971 -0.8385
 2692TIP3    H229712   2.204   5.353   0.599  1.4018  0.7953  0.0942
 2693TIP3   OH229713   4.920   0.771   0.450  0.0477 -0.6651  0.1609
 2693TIP3    H129714   4.827   0.785   0.464  0.2705 -0.1365  1.2371
 2693TIP3    H229715   4.953   0.740   0.535  1.3237  1.8627  0.7085
 2694TIP3   OH229716   6.531   4.039   7.918 -0.2400 -0.1083  1.0474
 2694TIP3    H129717   6.619   4.003   7.933  0.1096  0.0166 -0.6068
 2694TIP3    H229718   6.472   3.964   7.931  0.1782 -0.4101  1.2224
 2695TIP3   OH229719   0.467   4.868   0.214 -0.3876  0.1490 -0.5279
 2695TIP3    H129720   0.536   4.805   0.235 -0.7553 -0.1336 -0.1648
 2695TIP3    H229721   0.485   4.944   0.270 -1.0799 -0.4086  0.4799
 2696TIP3   OH229722   3.427   6.784   3.283  0.0115 -0.6968 -0.4020
 2696TIP3    H129723   3.487   6.755   3.215  1.3564  0.5255  0.2251
 2696TIP3    H229724   3.446   6.728   3.358  0.8330  0.0908 -0.0055
 2697TIP3   OH229725   3.976   0.039   2.048 -0.5006  0.1873  0.0321
 2697TIP3    H129726   4.021  -0.007   1.977 -1.1533  1.2150 -1.0891
 2697TIP3    H229727   4.044   0.058   2.111 -0.0623 -1.5724  0.1551
 2698TIP3   OH229728   2.662   6.182   1.224 -0.1752 -0.0447 -0.4925
 2698TIP3    H129729   2.712   6.102   1.242  0.7863  0.6056 -0.2264
 2698TIP3    H229730   2.644   6.179   1.130  1.1050  0.1244 -0.7606
 2699TIP3   OH229731   3.990   0.155   2.334 -0.0666 -0.3396 -0.4661
 2699TIP3    H129732   4.056   0.221   2.357 -0.3346 -0.7871  1.8961
 2699TIP3    H229733   3.961   0.121   2.419 -1.5800 -1.8836 -1.5507
 2700TIP3   OH229734   1.478   6.675   3.309  0.0650  0.2856 -0.2026
 2700TIP3    H129735   1.478   6.704   3.400  2.2770 -1.6787  0.5318
 2700TIP3    H229736   1.452   6.583   3.313  1.1536 -0.1108 -1.4107
 2701TIP3   OH229737   4.986   3.950   1.170  0.4062 -0.3487 -0.2427
 2701TIP3    H129738   4.907   3.952   1.116  0.9600  1.6655 -1.0819
 2701TIP3    H229739   4.960   3.991   1.252  0.4001 -0.2867 -0.2752
 2702TIP3   OH229740   6.002   3.686   1.662 -0.5704 -0.0681  0.1048
 2702TIP3    H129741   6.014   3.748   1.590  0.5802 -1.1234 -0.6307
 2702TIP3    H229742   5.910   3.659   1.654 -1.2551  1.8797  0.7500
 2703TIP3   OH229743   1.866   1.609   0.155  0.4968  0.3463 -0.4474
 2703TIP3    H129744   1.865   1.648   0.068  1.9761  1.2541 -0.0984
 2703TIP3    H229745   1.947   1.558   0.158 -0.4086 -1.1415 -0.1839
 2704TIP3   OH229746   0.141   0.009   0.123 -0.4558  0.3001  0.5699
 2704TIP3    H129747   0.223   0.010   0.074 -1.2277 -0.0125 -0.7580
 2704TIP3    H229748   0.095  -0.069   0.093 -1.9951  1.3802 -0.0161
 2705TIP3   OH229749   3.032   1.136   1.975  0.4469  0.2702 -0.7737
 2705TIP3    H129750   3.028   1.217   1.924  0.4750  1.2942  0.7605
 2705TIP3    H229751   3.015   1.164   2.065  2.6828 -1.0999  0.1478
 2706TIP3   OH229752   5.832   4.374   7.535 -0.0441 -0.1446  0.5732
 2706TIP3    H129753   5.791   4.447   7.489  0.0693  0.2081  1.0361
 2706TIP3    H229754   5.856   4.312   7.465 -2.0388 -0.7117  0.3388
 2707TIP3   OH229755   6.183   3.982   1.510  0.5650 -0.4365  0.0839
 2707TIP3    H129756   6.115   3.957   1.448  0.0741  1.1368 -0.0720
 2707TIP3    H229757   6.258   3.926   1.489  0.8609  0.8613 -2.8042
 2708TIP3   OH229758   3.016   3.485   8.422  0.1419  0.2140  0.5662
 2708TIP3    H129759   3.099   3.475   8.376 -1.1826 -3.0606 -1.4881
 2708TIP3    H229760   2.994   3.577   8.411  1.7524  0.4029 -2.1694
 2709TIP3   OH229761   0.946   6.460   3.621 -0.6397 -0.5847  0.2803
 2709TIP3    H129762   1.027   6.491   3.662 -1.7383  1.4738  1.0098
 2709TIP3    H229763   0.964   6.368   3.601  1.2913 -0.6512  1.9423
 2710TIP3   OH229764   6.448   5.190   0.624 -0.0183  0.5050  0.2447
 2710TIP3    H129765   6.421   5.273   0.585 -0.2085 -0.1721 -1.1332
 2710TIP3    H229766   6.510   5.152   0.560 -0.4650 -0.7199  0.5072
 2711TIP3   OH229767   2.122   4.605   8.039  0.0853 -0.3828  0.4795
 2711TIP3    H129768   2.098   4.627   7.949 -1.3296  0.1014  0.9567
 2711TIP3    H229769   2.111   4.510   8.045  0.5079 -0.4627  0.0640
 2712TIP3   OH229770   4.611   5.397   8.585  0.9755 -0.3751 -0.5459
 2712TIP3    H129771   4.554   5.471   8.563  0.5709 -0.7480 -0.7792
 2712TIP3    H229772   4.647   5.419   8.671  2.9768  1.3485 -1.7222
 2713TIP3   OH229773   0.083   6.539   8.401  0.2226 -0.2791 -0.2920
 2713TIP3    H129774   0.061   6.616   8.454  1.3718 -1.2143  1.6283
 2713TIP3    H229775   0.059   6.464   8.456 -0.6874 -1.3485 -2.0398
 2714TIP3   OH229776   0.731   0.562   2.892 -0.7726  0.1531 -0.5872
 2714TIP3    H129777   0.779   0.644   2.890 -0.7247  0.1172 -0.9583
 2714TIP3    H229778   0.665   0.571   2.824 -1.2081  0.1492 -0.1688
 2715TIP3   OH229779   6.270   0.488   0.244 -0.1982  0.6920 -0.1563
 2715TIP3    H129780   6.310   0.429   0.180 -3.0189 -0.9023 -0.6290
 2715TIP3    H229781   6.260   0.571   0.196  3.1315  1.4939  0.2799
 2716TIP3   OH229782   3.861   2.748   8.025 -0.0811 -0.0487 -0.0910
 2716TIP3    H129783   3.948   2.718   8.002  0.5032  1.2232  0.3556
 2716TIP3    H229784   3.813   2.748   7.942  0.3021 -0.8395 -0.3201
 2717TIP3   OH229785   5.458   2.243   8.564  0.3118  0.0455 -0.8130
 2717TIP3    H129786   5.520   2.179   8.598  1.9988  0.8396 -2.2493
 2717TIP3    H229787   5.401   2.193   8.505 -0.3035 -0.6426  0.3283
 2718TIP3   OH229788   5.186   5.533   8.546  0.4997 -0.9863 -0.1307
 2718TIP3    H129789   5.175   5.581   8.464  0.6319 -2.4381 -1.0225
 2718TIP3    H229790   5.273   5.558   8.577  0.9862 -1.4071 -1.1117
 2719TIP3   OH229791   2.699   0.979   1.317  0.8554  0.3820  0.4908
 2719TIP3    H129792   2.662   0.903   1.274  1.2761  1.2229 -1.4572
 2719TIP3    H229793   2.625   1.038   1.332  0.3570 -0.7506  2.9180
 2720TIP3   OH229794   1.641   4.718   2.763 -0.5361 -0.4981 -0.7683
 2720TIP3    H129795   1.555   4.709   2.806  0.9941 -0.9136  2.4754
 2720TIP3    H229796   1.698   4.755   2.830  1.8254  0.0105 -2.9100
 2721TIP3   OH229797   2.628   4.919   7.903 -0.0932 -0.4668 -0.3231
 2721TIP3    H129798   2.649   4.852   7.838  0.0750 -1.0333  0.3024
 2721TIP3    H229799   2.537   4.903   7.926 -0.4556  0.3599 -1.1368
 2722TIP3   OH229800   4.697   3.039   0.773 -0.1822  0.4942  0.0361
 2722TIP3    H129801   4.644   3.111   0.738 -0.6094 -0.3098 -1.0416
 2722TIP3    H229802   4.655   2.960   0.738  2.8836 -0.1540 -2.6221
 2723TIP3   OH229803   0.877   2.888   0.127 -1.0854 -0.3049  0.1735
 2723TIP3    H129804   0.931   2.893   0.048 -1.0514  2.2692  0.2775
 2723TIP3    H229805   0.788   2.878   0.094 -1.0052  0.1237 -0.1886
 2724TIP3   OH229806   6.582   6.866   1.431  0.7075  0.0390 -0.9481
 2724TIP3    H129807   6.520   6.937   1.445 -0.4571 -1.2868  1.2734
 2724TIP3    H229808   6.625   6.887   1.349 -1.2012  2.1078 -1.5124
 2725TIP3   OH229809   5.917   5.310   1.058 -0.8629 -0.4068  0.2820
 2725TIP3    H129810   5.912   5.403   1.080 -1.1395 -0.1875 -0.6757
 2725TIP3    H229811   5.952   5.308   0.969  1.2499 -1.3242  1.0785
 2726TIP3   OH229812   3.785   2.210   2.495 -0.1104 -0.5888 -0.0517
 2726TIP3    H129813   3.777   2.181   2.586 -0.4728 -0.4004 -0.0201
 2726TIP3    H229814   3.864   2.263   2.494 -1.4502  1.5529  0.7472
 2727TIP3   OH229815   5.093   0.745   1.437 -1.0698  0.5524 -0.3599
 2727TIP3    H129816   5.151   0.811   1.399 -0.3647  0.5008  0.6088
 2727TIP3    H229817   5.107   0.667   1.383 -0.8714  0.7861 -0.6496
 2728TIP3   OH229818   2.901   1.522   0.842  0.1211 -0.0955  0.2622
 2728TIP3    H129819   2.979   1.579   0.838 -0.2023  0.2851 -2.6737
 2728TIP3    H229820   2.871   1.516   0.752 -3.0966 -0.5391  1.2348
 2729TIP3   OH229821   5.465   0.693   2.077  0.0763  0.5437 -0.1130
 2729TIP3    H129822   5.546   0.694   2.027 -1.7629  1.9582 -3.3662
 2729TIP3    H229823   5.410   0.628   2.033 -1.0279  0.5272  1.2022
 2730TIP3   OH229824   1.712   5.784   7.889 -0.3745 -0.4050 -0.0312
 2730TIP3    H129825   1.639   5.794   7.828 -0.1813  0.9404 -0.0848
 2730TIP3    H229826   1.783   5.834   7.849  0.8323 -2.2557 -0.3284
 2731TIP3   OH229827   4.592   6.267   1.720 -0.5494  0.1706 -0.1063
 2731TIP3    H129828   4.618   6.301   1.634 -1.2872 -0.9552 -0.8006
 2731TIP3    H229829   4.586   6.172   1.708  0.0997 -0.0906  1.4043
 2732TIP3   OH229830   4.628   1.675   1.106 -0.8035  0.1615  0.5692
 2732TIP3    H129831   4.628   1.695   1.013 -1.7777  0.9878  0.7378
 2732TIP3    H229832   4.555   1.726   1.142  0.2148  0.6927  1.9601
 2733TIP3   OH229833   1.148   4.364   7.753 -0.0840  0.0898  0.0311
 2733TIP3    H129834   1.084   4.379   7.683 -0.7691  2.3990  1.0720
 2733TIP3    H229835   1.185   4.278   7.733 -0.5205  0.4877 -2.9430
 2734TIP3   OH229836   2.377   0.786   7.717  0.5527  0.0038  0.3899
 2734TIP3    H129837   2.432   0.855   7.680 -0.3973  1.0435  0.8659
 2734TIP3    H229838   2.317   0.832   7.775 -0.2788 -1.2014  0.5165
 2735TIP3   OH229839   4.655   2.609   1.674  0.2904  0.1099 -0.4335
 2735TIP3    H129840   4.740   2.575   1.644  0.6709  1.2162 -0.6714
 2735TIP3    H229841   4.649   2.696   1.635 -0.4531  0.4941  0.4894
 2736TIP3   OH229842   4.287   2.148   8.090 -0.6755 -0.3828  0.3043
 2736TIP3    H129843   4.271   2.079   8.027  2.4851 -1.7719  0.7982
 2736TIP3    H229844   4.245   2.226   8.053 -1.6910 -1.8658 -1.8217
 2737TIP3   OH229845   4.997   6.000   8.455  0.0734 -0.0115  0.3958
 2737TIP3    H129846   4.972   6.070   8.395  0.8201  0.8015  1.0090
 2737TIP3    H229847   4.915   5.971   8.495 -0.2211  0.6268  0.2574
 2738TIP3   OH229848   4.078   0.298   1.713 -0.6793 -0.1957  0.5906
 2738TIP3    H129849   4.011   0.230   1.699 -0.7856  0.1843 -0.9888
 2738TIP3    H229850   4.152   0.251   1.751 -1.9948 -0.5313  2.9567
 2739TIP3   OH229851   6.558   1.425   8.580  0.0451 -0.1484  0.0642
 2739TIP3    H129852   6.605   1.412   8.662  0.2032 -1.3132 -0.1993
 2739TIP3    H229853   6.539   1.337   8.548 -1.4633  0.2842 -0.3289
 2740TIP3   OH229854   4.999   1.783   8.580  0.5473  0.2047  0.1754
 2740TIP3    H129855   4.964   1.742   8.659 -1.0067  0.8601 -0.1303
 2740TIP3    H229856   4.953   1.739   8.508 -0.7589  2.0177 -0.1826
 2741TIP3   OH229857   3.035   5.447   0.371 -0.1087  0.2228 -0.4426
 2741TIP3    H129858   2.953   5.457   0.420 -1.0850 -0.6915 -1.8305
 2741TIP3    H229859   3.009   5.447   0.279  1.3726 -0.7539 -0.9053
 2742TIP3   OH229860   3.213   3.739   0.501 -0.7447 -0.1699  0.1205
 2742TIP3    H129861   3.231   3.726   0.408 -0.6243  0.3883  0.0609
 2742TIP3    H229862   3.299   3.732   0.544 -0.6122  0.7844  0.0385
 2743TIP3   OH229863   3.354   4.615   7.675 -0.3268 -0.4201 -0.4019
 2743TIP3    H129864   3.421   4.641   7.612  1.0242  2.2350  1.9682
 2743TIP3    H229865   3.310   4.541   7.632  2.5586 -0.8311 -3.0371
 2744TIP3   OH229866   1.322   4.173   0.273 -0.0020  0.0623  0.0234
 2744TIP3    H129867   1.243   4.220   0.247  1.2617  1.5192 -1.3680
 2744TIP3    H229868   1.311   4.157   0.367 -0.5815  3.0816  0.5730
 2745TIP3   OH229869   2.858   2.701   7.231 -0.8007 -0.0675  0.0545
 2745TIP3    H129870   2.838   2.611   7.206  0.1307  0.1453 -1.5394
 2745TIP3    H229871   2.772   2.744   7.235 -1.2553 -0.9970  0.8462
 2746TIP3   OH229872   6.050   3.356   8.098 -0.7640  0.0778 -0.4670
 2746TIP3    H129873   6.094   3.421   8.043 -1.2184  0.5458 -0.2828
 2746TIP3    H229874   6.117   3.290   8.114 -0.8340 -0.4435 -2.1870
 2747TIP3   OH229875   2.327   0.853   0.111  0.2204 -0.4505 -0.3900
 2747TIP3    H129876   2.411   0.862   0.155  0.2324 -1.6644 -0.1304
 2747TIP3    H229877   2.275   0.926   0.143  1.2173  0.4259 -0.6885
 2748TIP3   OH229878   6.145   0.778   1.667  0.6809 -0.4056  0.4201
 2748TIP3    H129879   6.188   0.727   1.598 -1.7553 -3.1542  0.7563
 2748TIP3    H229880   6.211   0.787   1.736  1.5291 -2.2016 -0.1185
 2749TIP3   OH229881   4.676   2.567   7.605  0.5725 -0.0955 -0.0207
 2749TIP3    H129882   4.659   2.658   7.582  2.2004  0.8268  2.1206
 2749TIP3    H229883   4.631   2.554   7.688  1.2161 -0.9207  0.2136
 2750TIP3   OH229884   3.416   3.404   8.464 -0.1310  0.2431  0.7886
 2750TIP3    H129885   3.386   3.451   8.542  0.7570  2.2234  0.0244
 2750TIP3    H229886   3.379   3.455   8.391  0.5443 -0.4978 -0.0934
 2751TIP3   OH229887   1.338   1.670   0.895 -0.7927  0.1456  0.5395
 2751TIP3    H129888   1.428   1.699   0.907 -1.0722  1.4925 -0.4314
 2751TIP3    H229889   1.329   1.594   0.953  0.8177  0.2707  0.9852
 2752TIP3   OH229890   6.226   0.565   2.267  0.5190  0.0737  0.0580
 2752TIP3    H129891   6.225   0.519   2.183 -0.2149 -0.9281  0.5921
 2752TIP3    H229892   6.272   0.647   2.249 -0.5423  0.3642 -1.5688
 2753TIP3   OH229893   4.550   2.143   0.024 -0.4156 -0.0219 -0.0393
 2753TIP3    H129894   4.468   2.169  -0.019 -1.1709 -0.2779  1.2109
 2753TIP3    H229895   4.619   2.175  -0.035 -1.4065 -0.1056 -1.2859
 2754TIP3   OH229896   5.393   3.507   0.365 -0.2125 -0.3874  0.1603
 2754TIP3    H129897   5.365   3.597   0.383 -1.5521 -0.6162 -0.6280
 2754TIP3    H229898   5.335   3.477   0.295  0.7566 -1.5986 -0.1660
 2755TIP3   OH229899   0.603   2.575   0.027  0.6558 -0.3050  0.4077
 2755TIP3    H129900   0.565   2.526  -0.046  1.3382  0.2021 -0.3037
 2755TIP3    H229901   0.672   2.518   0.061  0.7951 -0.2523  0.2140
 2756TIP3   OH229902   5.405   6.887   1.499  0.1313  0.0378 -0.1071
 2756TIP3    H129903   5.381   6.795   1.486 -0.7909 -0.1218  2.3028
 2756TIP3    H229904   5.490   6.896   1.456  1.1779 -2.4629  1.2487
 2757TIP3   OH229905   3.729   1.476   8.074  0.4310 -0.5350  0.0252
 2757TIP3    H129906   3.642   1.434   8.075 -0.1006  0.4580 -1.3426
 2757TIP3    H229907   3.781   1.424   8.135 -1.2734 -0.8369  1.3172
 2758TIP3   OH229908   2.523   1.690   1.585 -0.0720  0.0193 -0.3553
 2758TIP3    H129909   2.504   1.607   1.628 -1.6441  0.8544  0.6310
 2758TIP3    H229910   2.618   1.700   1.594  0.2823 -1.9779 -1.1444
 2759TIP3   OH229911   4.499   2.990   8.311 -0.5015  0.3130  0.0833
 2759TIP3    H129912   4.572   2.933   8.335 -1.4813 -1.3343 -0.7560
 2759TIP3    H229913   4.467   2.956   8.228 -2.6679  0.5733  0.7615
 2760TIP3   OH229914   6.467   2.598   0.407 -0.3716 -0.7193  0.3441
 2760TIP3    H129915   6.555   2.566   0.388 -0.2289  0.4549 -1.1419
 2760TIP3    H229916   6.481   2.672   0.466 -0.2549  0.1927 -0.8056
 2761TIP3   OH229917   6.810   5.038   8.364  0.1078 -0.5938  0.3837
 2761TIP3    H129918   6.887   4.997   8.324  1.0154  1.2131  0.1484
 2761TIP3    H229919   6.740   4.974   8.354  1.2698 -1.7554 -0.6047
 2762TIP3   OH229920   4.343   4.753   7.356 -0.3968  0.0675 -0.5550
 2762TIP3    H129921   4.344   4.794   7.443  0.2336 -1.5396  0.2414
 2762TIP3    H229922   4.404   4.805   7.304 -0.8815  1.1317 -0.0895
 2763TIP3   OH229923   4.214   5.441   0.949  0.7503  0.5468 -0.0986
 2763TIP3    H129924   4.189   5.349   0.950 -3.2122  1.4442  1.0355
 2763TIP3    H229925   4.291   5.446   1.005  2.0239 -2.1767 -1.3892
 2764TIP3   OH229926   3.639   4.612   8.316  0.4214  0.3897  0.6492
 2764TIP3    H129927   3.577   4.661   8.261 -0.2540 -1.7181 -0.5849
 2764TIP3    H229928   3.585   4.544   8.357  1.8473 -1.4260 -0.3610
 2765TIP3   OH229929   1.167   3.031   1.840 -0.0649 -0.8157 -1.0620
 2765TIP3    H129930   1.071   3.036   1.846  0.0095 -0.4420 -0.0405
 2765TIP3    H229931   1.198   3.102   1.895  0.8105 -0.6455 -1.7594
 2766TIP3   OH229932   6.806   1.864   3.078  0.1972  0.1368  0.3710
 2766TIP3    H129933   6.806   1.769   3.062 -2.0949  0.1978 -0.1922
 2766TIP3    H229934   6.785   1.872   3.171 -1.8041  0.1096 -0.0523
 2767TIP3   OH229935   3.589   1.969   7.546 -0.0006 -0.3385 -0.1984
 2767TIP3    H129936   3.501   1.992   7.574 -0.5333  1.3812 -2.9917
 2767TIP3    H229937   3.577   1.909   7.472  1.1811 -0.3258 -0.4229
 2768TIP3   OH229938   2.723   4.060   1.246  0.1552 -0.3282  0.2819
 2768TIP3    H129939   2.790   4.066   1.179 -0.3075 -1.4683 -0.3127
 2768TIP3    H229940   2.713   4.150   1.279  0.6024  0.1903 -0.9593
 2769TIP3   OH229941   5.169   3.270   1.288  0.0894  0.1563  0.2860
 2769TIP3    H129942   5.211   3.214   1.222  2.1916  2.9702 -0.9612
 2769TIP3    H229943   5.076   3.249   1.281  0.6013 -2.0422 -1.1604
 2770TIP3   OH229944   5.275   2.554   1.145  0.6819  0.5234  0.2415
 2770TIP3    H129945   5.227   2.489   1.093  1.1691  0.3724 -0.0272
 2770TIP3    H229946   5.213   2.625   1.158 -0.2130 -0.4246  1.4013
 2771TIP3   OH229947   1.278   3.092   0.878 -0.4443  0.4437  0.2349
 2771TIP3    H129948   1.191   3.082   0.916 -0.6829 -1.5656 -0.7033
 2771TIP3    H229949   1.303   3.182   0.898 -2.0470  0.5688  1.9263
 2772TIP3   OH229950   5.330   1.636   1.467  0.1593  0.0284 -0.0040
 2772TIP3    H129951   5.328   1.731   1.455  0.4372 -0.2096 -2.6309
 2772TIP3    H229952   5.406   1.621   1.523 -0.4946  1.3724  1.3307
 2773TIP3   OH229953   4.899   0.315   2.751 -0.1545  0.0291  0.3092
 2773TIP3    H129954   4.972   0.255   2.771  1.8627  2.1424 -0.3372
 2773TIP3    H229955   4.896   0.318   2.656 -1.8974 -0.8803  0.2945
 2774TIP3   OH229956   4.001   1.834   7.549 -0.1576 -0.1656  0.0621
 2774TIP3    H129957   3.963   1.910   7.506 -0.2049 -0.3949 -0.3118
 2774TIP3    H229958   4.020   1.863   7.638 -2.3066 -0.3771  0.6379
 2775TIP3   OH229959   4.578   4.068   8.476 -0.0401 -0.0512 -0.1594
 2775TIP3    H129960   4.513   4.137   8.461 -0.7219 -0.7870 -0.6334
 2775TIP3    H229961   4.527   3.992   8.504  0.6565 -0.5289 -0.1581
 2776TIP3   OH229962   6.264   3.451   7.590 -0.7163  0.4708  0.2982
 2776TIP3    H129963   6.292   3.373   7.543 -0.9544  1.1627 -1.0480
 2776TIP3    H229964   6.205   3.496   7.530 -2.3423  0.5883  1.8952
 2777TIP3   OH229965   3.807   5.850   0.262 -0.8551  0.5900  0.0534
 2777TIP3    H129966   3.763   5.768   0.239 -0.5530  0.4453 -0.0129
 2777TIP3    H229967   3.794   5.858   0.356 -1.1254  0.6099  0.0163
 2778TIP3   OH229968   0.722   5.274   1.127  0.3905  0.1993 -0.0304
 2778TIP3    H129969   0.794   5.264   1.065 -0.3660 -1.5062 -0.6832
 2778TIP3    H229970   0.737   5.205   1.192  0.2742  0.9228  0.7773
 2779TIP3   OH229971   3.350   3.637   0.279 -0.0822  0.4017 -0.2413
 2779TIP3    H129972   3.434   3.677   0.256  0.7608 -1.2158 -0.0555
 2779TIP3    H229973   3.372   3.549   0.307 -1.5774  0.7316  2.2641
 2780TIP3   OH229974   5.879   5.587   1.939 -0.0777  0.3146  0.0238
 2780TIP3    H129975   5.851   5.611   1.851 -1.4031 -1.2486 -0.0334
 2780TIP3    H229976   5.971   5.613   1.943  0.1601 -0.0519 -2.0089
 2781TIP3   OH229977   5.121   4.915   2.007 -0.7817 -0.2990 -0.5164
 2781TIP3    H129978   5.177   4.978   2.052 -0.1472 -1.7262  0.7611
 2781TIP3    H229979   5.180   4.846   1.978 -1.4924 -0.4302 -1.7222
 2782TIP3   OH229980   6.540   6.556   1.144 -0.3367  0.1455 -0.5491
 2782TIP3    H129981   6.460   6.548   1.196  0.3149 -2.2704  0.2088
 2782TIP3    H229982   6.526   6.497   1.069 -0.6220  2.3773 -2.3734
 2783TIP3   OH229983   6.677   2.375   2.815 -0.4186 -0.6565  1.0495
 2783TIP3    H129984   6.673   2.440   2.745 -1.3972 -1.1465  0.6297
 2783TIP3    H229985   6.689   2.426   2.895 -2.4287  0.1603  0.8875
 2784TIP3   OH229986   6.276   6.218   7.413 -0.1846 -0.4117  0.0138
 2784TIP3    H129987   6.315   6.131   7.414  1.0882  0.1235 -0.8984
 2784TIP3    H229988   6.189   6.206   7.451  1.3892 -1.3289  3.7725
 2785TIP3   OH229989   6.839   1.100   0.201 -0.2234 -0.1256  0.1643
 2785TIP3    H129990   6.928   1.100   0.237 -1.2360  1.4063  3.0270
 2785TIP3    H229991   6.795   1.029   0.247 -1.3151  1.2694  1.3609
 2786TIP3   OH229992   5.716   0.629   0.800  0.6011  0.0620  0.2090
 2786TIP3    H129993   5.703   0.657   0.709 -1.0330  1.0507  0.7168
 2786TIP3    H229994   5.784   0.562   0.794  0.4508  0.0130 -1.7576
 2787TIP3   OH229995   6.837   1.655   1.985  0.3789  0.3698 -0.1084
 2787TIP3    H129996   6.845   1.726   1.921  0.1458  0.0339 -0.5198
 2787TIP3    H229997   6.759   1.677   2.036 -1.2656 -0.8840 -1.9326
 2788TIP3   OH229998   6.639   0.286   0.854 -0.6958  0.5655  0.0321
 2788TIP3    H129999   6.578   0.269   0.926  0.9957  0.7145  1.5631
 2788TIP3    H230000   6.636   0.206   0.800 -1.8245  0.3686  0.3661
 2789TIP3   OH230001   0.875   1.789   0.363 -0.2219 -0.2758  0.2051
 2789TIP3    H130002   0.939   1.852   0.329 -1.0725  0.3307 -0.3106
 2789TIP3    H230003   0.825   1.838   0.427 -1.3581 -0.1989 -0.7137
 2790TIP3   OH230004   4.541   4.962   0.637  0.3504 -0.5001 -0.3962
 2790TIP3    H130005   4.531   5.002   0.550  0.8685 -1.0695 -0.7282
 2790TIP3    H230006   4.623   4.912   0.631 -0.1960 -1.4801  0.0556
 2791TIP3   OH230007   3.686   2.134   2.733 -0.0031  0.4889 -0.5432
 2791TIP3    H130008   3.609   2.081   2.717 -0.1778  0.0872  1.3531
 2791TIP3    H230009   3.752   2.071   2.764  0.0432  1.2320  0.9425
 2792TIP3   OH230010   3.732   6.146   2.076 -0.1555  0.0943  0.2042
 2792TIP3    H130011   3.755   6.069   2.128  0.0096 -0.3668 -0.5367
 2792TIP3    H230012   3.734   6.219   2.139 -2.4193 -0.7763  1.4116
 2793TIP3   OH230013   2.088   3.652   0.942 -0.5597  0.0793 -0.0456
 2793TIP3    H130014   2.044   3.728   0.903  0.5273  1.4518  1.3015
 2793TIP3    H230015   2.170   3.687   0.976  0.7098 -2.0357 -0.7759
 2794TIP3   OH230016   1.564   5.694   1.461 -0.7035 -0.2873  0.2356
 2794TIP3    H130017   1.548   5.732   1.375  1.2095 -0.1970 -0.1146
 2794TIP3    H230018   1.521   5.608   1.458 -0.7961 -0.2132 -0.7340
 2795TIP3   OH230019   6.077   2.728   1.866 -0.7032 -0.6405  0.7667
 2795TIP3    H130020   6.047   2.687   1.785 -1.0984 -0.8389  1.0065
 2795TIP3    H230021   6.005   2.712   1.928 -0.8927  0.4553  0.8523
 2796TIP3   OH230022   4.853   1.156   1.422  0.0460 -0.1231  0.8068
 2796TIP3    H130023   4.829   1.067   1.450 -0.1348  0.1562  1.5569
 2796TIP3    H230024   4.771   1.197   1.398  0.2143 -0.3963 -0.2567
 2797TIP3   OH230025   4.795   3.316   7.774  0.1346  0.1191  0.3885
 2797TIP3    H130026   4.839   3.234   7.751  0.1875  0.1562  0.3570
 2797TIP3    H230027   4.833   3.380   7.714 -0.5340 -0.0053 -0.1758
 2798TIP3   OH230028   2.675   5.077   1.130  0.2599  0.6421 -0.3930
 2798TIP3    H130029   2.620   5.003   1.103 -0.2786  0.9010 -0.0225
 2798TIP3    H230030   2.624   5.155   1.106 -0.4284  0.8936  1.6671
 2799TIP3   OH230031   4.343   0.957   2.411  0.0513  0.0874 -0.4010
 2799TIP3    H130032   4.364   1.043   2.450 -0.0874  0.5923 -1.4176
 2799TIP3    H230033   4.248   0.952   2.414  0.0863 -0.2759  0.1601
 2800TIP3   OH230034   4.563   5.454   8.249  0.0233 -0.9821 -0.0442
 2800TIP3    H130035   4.504   5.444   8.324 -0.2926 -1.5464 -0.3593
 2800TIP3    H230036   4.525   5.397   8.182 -0.0991  0.0519 -0.8717
 2801TIP3   OH230037   4.256   1.233   2.600  0.1411  0.1745 -0.1975
 2801TIP3    H130038   4.197   1.308   2.607 -0.8217 -0.4777 -0.9974
 2801TIP3    H230039   4.201   1.158   2.622  1.1549 -0.2915  0.8321
 2802TIP3   OH230040   0.950   3.638   2.744 -0.5483  0.3064 -0.6095
 2802TIP3    H130041   0.983   3.665   2.659  0.7463 -1.0279 -0.5570
 2802TIP3    H230042   1.027   3.608   2.792 -1.3178  0.5979  0.8760
 2803TIP3   OH230043   1.626   0.941   2.381  0.2389  0.2680  0.3455
 2803TIP3    H130044   1.693   1.007   2.364 -1.2348  1.4340 -1.2340
 2803TIP3    H230045   1.666   0.858   2.355  0.4198  1.1943 -2.7197
 2804TIP3   OH230046   2.475   6.072   0.422 -0.1241 -0.4592  0.4276
 2804TIP3    H130047   2.524   6.031   0.494  0.0993 -1.8289 -0.4725
 2804TIP3    H230048   2.443   5.999   0.370  0.3508  0.5084 -1.3072
 2805TIP3   OH230049   0.545   6.424   7.362 -0.5272 -0.4074  0.2223
 2805TIP3    H130050   0.454   6.455   7.363  0.1699  1.8615  1.2383
 2805TIP3    H230051   0.591   6.488   7.308  0.2242 -2.5300 -1.7966
 2806TIP3   OH230052   3.312   1.966   2.868  0.0819 -0.1580 -0.0063
 2806TIP3    H130053   3.400   1.944   2.896 -0.3970 -1.6747  0.4235
 2806TIP3    H230054   3.310   2.061   2.866  1.6506 -0.1024  0.1988
 2807TIP3   OH230055   2.183   4.421   2.236  0.2040  0.1088 -0.0024
 2807TIP3    H130056   2.131   4.347   2.203 -0.2517  0.6153 -0.4433
 2807TIP3    H230057   2.252   4.380   2.288 -1.0787 -0.5732  1.2640
 2808TIP3   OH230058   2.610   3.596   1.987 -0.2400  0.0052  0.1132
 2808TIP3    H130059   2.705   3.603   1.997  0.0014 -0.1444 -1.7113
 2808TIP3    H230060   2.598   3.564   1.898 -2.0241  0.6099  0.1007
 2809TIP3   OH230061   4.108   5.995   2.422  0.0302 -0.0280 -0.2602
 2809TIP3    H130062   4.168   5.932   2.461  1.3485  2.2786  1.7358
 2809TIP3    H230063   4.023   5.976   2.462 -0.0671 -1.7212 -1.1971
 2810TIP3   OH230064   4.224   4.409   0.127  0.0614  0.3274 -0.3355
 2810TIP3    H130065   4.152   4.436   0.184  1.9517  0.0460  2.3820
 2810TIP3    H230066   4.303   4.444   0.169  1.7898 -1.8419 -1.5179
 2811TIP3   OH230067   3.142   3.154   7.756  0.3403  0.1009  0.4562
 2811TIP3    H130068   3.182   3.239   7.737  1.4998 -0.7586 -1.2215
 2811TIP3    H230069   3.056   3.158   7.714  1.9063 -0.8674 -3.3323
 2812TIP3   OH230070   4.336   4.397   0.449 -0.4049  0.0810  0.5529
 2812TIP3    H130071   4.300   4.310   0.431 -1.6531  0.8952 -1.0183
 2812TIP3    H230072   4.392   4.416   0.374 -0.2582  0.6973  0.8114
 2813TIP3   OH230073   0.935   3.453   1.770  0.5241 -0.0097 -0.1885
 2813TIP3    H130074   0.929   3.424   1.679 -2.3920 -0.6805  0.1314
 2813TIP3    H230075   1.029   3.464   1.785  1.2299 -1.7062 -2.6834
 2814TIP3   OH230076   0.639   2.468   2.220 -0.0356  0.1883  0.1777
 2814TIP3    H130077   0.704   2.528   2.184 -1.2612  0.6746 -1.3687
 2814TIP3    H230078   0.683   2.383   2.224  1.8603  1.2010  2.7760
 2815TIP3   OH230079   0.740   0.073   3.017 -0.1577 -0.2452  0.0228
 2815TIP3    H130080   0.662   0.056   3.070 -0.2077 -1.1293 -0.3210
 2815TIP3    H230081   0.743   0.168   3.008 -1.3241 -0.2182 -0.1472
 2816TIP3   OH230082   3.687   5.927   0.866 -0.0270  0.4636 -1.0564
 2816TIP3    H130083   3.616   5.878   0.907 -0.0677  0.1818 -1.4582
 2816TIP3    H230084   3.732   5.862   0.811  0.6077  0.6068 -0.7179
 2817TIP3   OH230085   4.508   1.567   1.389  0.2612  0.1498  0.5075
 2817TIP3    H130086   4.452   1.501   1.348 -0.1324  0.5082  0.4730
 2817TIP3    H230087   4.529   1.628   1.318  1.5100 -0.5095  0.2690
 2818TIP3   OH230088   1.261   0.396   2.233 -0.2916 -0.2759 -0.4502
 2818TIP3    H130089   1.299   0.366   2.315  0.1967 -0.8796 -0.8904
 2818TIP3    H230090   1.327   0.374   2.166 -1.0495 -0.5810 -1.1179
 2819TIP3   OH230091   4.910   5.986   7.692 -0.1005  0.0488 -0.0867
 2819TIP3    H130092   4.815   5.980   7.701 -0.1620  0.8879 -0.1601
 2819TIP3    H230093   4.924   6.014   7.602  0.1435  1.6420  0.4226
 2820TIP3   OH230094   3.888   3.988   1.476 -0.2791 -0.7359  0.0211
 2820TIP3    H130095   3.948   4.042   1.425 -0.6629  0.3320  0.6636
 2820TIP3    H230096   3.834   4.051   1.524  0.4985 -1.6894  2.2688
 2821TIP3   OH230097   0.948   5.436   8.015 -0.4692  0.0734 -0.3613
 2821TIP3    H130098   0.885   5.385   7.963  0.9224 -2.8085  0.6038
 2821TIP3    H230099   0.928   5.527   7.992 -2.4115 -0.8669 -3.0066
 2822TIP3   OH230100   6.043   6.387   2.684  0.3772 -0.2286  0.0914
 2822TIP3    H130101   6.125   6.339   2.676 -0.3361 -1.7690  1.4594
 2822TIP3    H230102   5.982   6.339   2.628  0.5048  1.2514 -1.3838
 2823TIP3   OH230103   5.996   6.301   0.240  0.7533  0.4504 -0.4150
 2823TIP3    H130104   6.025   6.376   0.188  0.4880  0.8508  0.0054
 2823TIP3    H230105   5.969   6.236   0.175  0.6370  0.8564 -0.7797
 2824TIP3   OH230106   4.108   6.810   1.832  0.0157 -0.1678 -0.1084
 2824TIP3    H130107   4.179   6.749   1.813  0.5259  1.0820 -2.6290
 2824TIP3    H230108   4.034   6.778   1.781 -0.3648  0.1239  0.2526
 2825TIP3   OH230109   6.559   0.275   2.995  0.1022  0.0133  0.5302
 2825TIP3    H130110   6.478   0.304   3.039  0.5276  0.3921  1.0738
 2825TIP3    H230111   6.547   0.302   2.904 -0.7248 -0.6456  0.4199
 2826TIP3   OH230112   4.510   2.240   7.940 -0.2889 -0.0958  0.1611
 2826TIP3    H130113   4.462   2.208   8.017  0.2855  0.6495  0.8485
 2826TIP3    H230114   4.591   2.188   7.940  0.4908  1.0644  1.0827
 2827TIP3   OH230115   2.782   1.481   8.395  0.6347 -0.3999  0.0097
 2827TIP3    H130116   2.716   1.550   8.401  2.8855  1.8556  1.0521
 2827TIP3    H230117   2.764   1.424   8.470  0.3703  0.7007  0.8089
 2828TIP3   OH230118   1.078   5.898   2.795 -0.2484 -0.3163  0.4074
 2828TIP3    H130119   1.077   5.811   2.755 -0.2952  0.3853 -1.2327
 2828TIP3    H230120   1.101   5.956   2.722  0.0282  1.0147  1.5260
 2829TIP3   OH230121   4.860   0.144   2.125  0.0083  0.2866  0.7623
 2829TIP3    H130122   4.835   0.226   2.168  0.9294 -0.5231  3.0169
 2829TIP3    H230123   4.829   0.076   2.184  1.3136 -0.9085  0.1325
 2830TIP3   OH230124   1.110   6.434   2.312  0.3411 -0.5385 -0.5711
 2830TIP3    H130125   1.098   6.526   2.335  1.4990 -0.3245 -0.7900
 2830TIP3    H230126   1.198   6.412   2.343 -1.1911 -2.6611  2.9538
 2831TIP3   OH230127   6.591   0.028   0.763 -0.0580  0.2572  0.1214
 2831TIP3    H130128   6.544  -0.003   0.840  1.3005  0.2901  1.0125
 2831TIP3    H230129   6.533   0.009   0.689 -1.0136 -0.5929  1.0563
 2832TIP3   OH230130   6.664   4.481   3.084 -0.3781  0.0406  0.1946
 2832TIP3    H130131   6.635   4.520   3.167 -1.2757  0.0542 -0.1211
 2832TIP3    H230132   6.619   4.532   3.017  3.5648  2.9719 -0.5918
 2833TIP3   OH230133   2.257   3.540   1.325 -0.3837 -0.0677  0.4992
 2833TIP3    H130134   2.237   3.453   1.362 -1.8288 -0.5657 -1.2768
 2833TIP3    H230135   2.347   3.533   1.294 -1.1077 -1.6983 -1.4634
 2834TIP3   OH230136   6.738   5.745   2.698 -0.2783 -0.1913  0.3646
 2834TIP3    H130137   6.745   5.665   2.749 -1.3391 -0.6449 -0.1548
 2834TIP3    H230138   6.827   5.763   2.669  0.2182 -0.3197  1.7535
 2835TIP3   OH230139   6.487   6.294   1.318  0.4154 -0.3037  0.5276
 2835TIP3    H130140   6.553   6.364   1.320  1.2513 -1.0692  0.2562
 2835TIP3    H230141   6.473   6.278   1.224  1.4313 -1.5978  0.5781
 2836TIP3   OH230142   5.307   0.138   0.551  0.0599 -1.1210  0.6797
 2836TIP3    H130143   5.266   0.080   0.616 -0.8702 -1.7014 -0.3959
 2836TIP3    H230144   5.269   0.111   0.468  0.4151  0.3490  0.0190
 2837TIP3   OH230145   4.560   3.715   0.161  0.0345 -0.5597  0.3568
 2837TIP3    H130146   4.624   3.654   0.198  1.5308  0.7831  0.0763
 2837TIP3    H230147   4.475   3.680   0.189  0.8202 -2.7044  0.2962
 2838TIP3   OH230148   1.818   2.634   2.175  0.5979 -0.4082  0.3354
 2838TIP3    H130149   1.901   2.592   2.154  1.5118  0.8837  1.2038
 2838TIP3    H230150   1.767   2.566   2.219  1.0609 -1.3101 -0.4880
 2839TIP3   OH230151   0.173   3.395   8.021 -0.3450 -0.4763  0.4398
 2839TIP3    H130152   0.093   3.420   7.976  0.3791  0.7633 -0.1970
 2839TIP3    H230153   0.146   3.381   8.112 -1.5295 -1.4897 -0.0397
 2840TIP3   OH230154   6.202   1.383   2.450 -0.1837 -0.4332 -0.3400
 2840TIP3    H130155   6.258   1.443   2.500  0.7248 -0.7763 -0.9204
 2840TIP3    H230156   6.261   1.345   2.385 -0.6106 -2.3337  0.3398
 2841TIP3   OH230157   6.757   1.367   0.549 -0.5263 -0.2542 -0.0477
 2841TIP3    H130158   6.780   1.387   0.640 -2.4514  1.2082  0.1732
 2841TIP3    H230159   6.691   1.298   0.554 -0.1358 -0.6645 -0.3919
 2842TIP3   OH230160   0.816   4.015   1.537  0.2871  0.1997  0.7094
 2842TIP3    H130161   0.793   3.922   1.539 -2.4061  0.8122  0.8828
 2842TIP3    H230162   0.740   4.058   1.498  0.6377  2.5715  2.4457
 2843TIP3   OH230163   2.930   0.204   0.301 -0.2828  0.3311 -0.1577
 2843TIP3    H130164   2.853   0.255   0.275 -0.4624  0.8724  1.3861
 2843TIP3    H230165   2.959   0.243   0.383  2.8125  1.3724 -1.5905
 2844TIP3   OH230166   5.048   0.934   8.445 -0.5340 -0.1129  0.3534
 2844TIP3    H130167   5.051   0.973   8.357 -1.0333 -2.1731 -0.6316
 2844TIP3    H230168   5.139   0.913   8.464 -0.7547 -3.3283 -1.4930
 2845TIP3   OH230169   5.129   0.574   3.602  0.1603 -0.2856  0.2839
 2845TIP3    H130170   5.062   0.506   3.597  0.8174 -0.9437  0.3809
 2845TIP3    H230171   5.126   0.617   3.516  0.8616 -1.5194 -0.3812
 2846TIP3   OH230172   4.693   5.142   7.891  0.3616 -0.0919 -0.2554
 2846TIP3    H130173   4.621   5.105   7.942  0.3956  2.9408  2.2939
 2846TIP3    H230174   4.769   5.089   7.914 -0.1383 -0.3566  0.8305
 2847TIP3   OH230175   1.961   1.837   1.726 -0.2110 -0.0326  0.5122
 2847TIP3    H130176   1.904   1.768   1.759  0.9015 -0.4674  1.5871
 2847TIP3    H230177   1.907   1.883   1.661 -1.0162 -1.7985 -0.1388
 2848TIP3   OH230178   2.895   3.995   7.996  0.0016  0.3729 -0.0058
 2848TIP3    H130179   2.972   4.017   7.943  0.7618  0.9595  1.2988
 2848TIP3    H230180   2.834   4.067   7.979 -1.4157 -1.3638 -3.0677
 2849TIP3   OH230181   6.128   5.187   0.595  0.5620  0.8812 -0.3571
 2849TIP3    H130182   6.217   5.157   0.575  1.1325  1.5627  1.0083
 2849TIP3    H230183   6.085   5.193   0.510  1.6570  0.0315 -0.9944
 2850TIP3   OH230184   2.771   1.895   0.766  0.1787  0.1130 -0.0563
 2850TIP3    H130185   2.756   1.836   0.692  1.9219  0.0469 -0.3814
 2850TIP3    H230186   2.754   1.840   0.843 -0.6933 -0.0832 -0.3668
 2851TIP3   OH230187   5.915   4.603   6.996 -0.0571 -0.0128 -0.3213
 2851TIP3    H130188   5.949   4.689   7.020 -0.7910  0.8170 -2.0190
 2851TIP3    H230189   5.842   4.623   6.936 -0.4809 -1.8098 -0.4507
 2852TIP3   OH230190   3.445   6.240   8.187  0.3844 -0.5451  0.0092
 2852TIP3    H130191   3.515   6.270   8.130 -0.7295 -1.3293 -1.8695
 2852TIP3    H230192   3.366   6.245   8.133 -1.1819  1.0197  2.2544
 2853TIP3   OH230193   1.196   3.571   2.829 -0.4022 -0.9914 -0.5490
 2853TIP3    H130194   1.167   3.481   2.841 -2.6039 -0.8679 -3.7179
 2853TIP3    H230195   1.250   3.568   2.749 -1.8042  0.6375 -1.6341
 2854TIP3   OH230196   3.773   2.271   0.273  0.1345  0.1866  0.0999
 2854TIP3    H130197   3.710   2.292   0.342  0.9589 -1.0020  1.2599
 2854TIP3    H230198   3.833   2.208   0.313  0.3287 -0.9766 -1.8793
 2855TIP3   OH230199   6.537   2.587   1.096 -0.1808  0.4220  0.2581
 2855TIP3    H130200   6.451   2.604   1.135  0.5034  1.8970  1.1693
 2855TIP3    H230201   6.597   2.582   1.171  0.7114  0.5672 -0.4340
 2856TIP3   OH230202   2.471   5.736   1.712  0.3190 -0.3332  0.3578
 2856TIP3    H130203   2.440   5.716   1.801 -0.6369 -0.1385  0.0797
 2856TIP3    H230204   2.400   5.787   1.673  0.8891 -0.1043 -0.4023
 2857TIP3   OH230205   1.431   3.107   1.258  0.6795  0.0181  0.4092
 2857TIP3    H130206   1.369   3.158   1.310  1.6318 -0.6488  2.3027
 2857TIP3    H230207   1.376   3.055   1.199 -0.4843  0.3395  1.1847
 2858TIP3   OH230208   4.079   6.744   7.807  0.1788 -0.1556 -0.5031
 2858TIP3    H130209   4.145   6.676   7.826  0.0276 -0.6377 -1.6197
 2858TIP3    H230210   4.061   6.733   7.714 -3.1895 -1.5659  0.1879
 2859TIP3   OH230211   0.761   4.198   0.103  0.4283  0.3604  0.3245
 2859TIP3    H130212   0.698   4.150   0.050 -0.5418 -0.6050  2.2535
 2859TIP3    H230213   0.788   4.136   0.171 -0.3492  2.2582  2.5047
 2860TIP3   OH230214   2.336   1.660   7.326  0.0016  0.2558 -0.5560
 2860TIP3    H130215   2.377   1.609   7.256 -0.3059  1.0946 -1.3688
 2860TIP3    H230216   2.395   1.649   7.401  0.9468  0.2423 -1.2710
 2861TIP3   OH230217   4.321   0.977   1.693  0.3952  0.6559  0.4802
 2861TIP3    H130218   4.393   0.940   1.744  1.2660  0.0601 -1.1081
 2861TIP3    H230219   4.294   1.054   1.743  1.0838  0.0036  1.9092
 2862TIP3   OH230220   1.912   5.303   2.346  0.1096 -0.2005 -0.1791
 2862TIP3    H130221   1.887   5.224   2.299  1.6825 -0.3348 -0.8437
 2862TIP3    H230222   1.872   5.293   2.433  1.0107 -2.1645  0.0492
 2863TIP3   OH230223   4.365   6.062   1.516  0.1377 -0.1235 -0.5931
 2863TIP3    H130224   4.351   5.995   1.448  1.8776 -0.1503 -0.9701
 2863TIP3    H230225   4.392   6.013   1.593 -0.3104  0.0340 -0.3284
 2864TIP3   OH230226   2.178   1.598   2.393  0.3504 -0.6296  0.0930
 2864TIP3    H130227   2.131   1.560   2.467 -0.7872 -1.1283 -0.8427
 2864TIP3    H230228   2.123   1.577   2.317  1.3519  0.0854 -0.8577
 2865TIP3   OH230229   0.491   5.313   2.785 -0.5085  0.2780 -0.5143
 2865TIP3    H130230   0.455   5.304   2.697 -0.6969 -1.6009 -0.2887
 2865TIP3    H230231   0.429   5.267   2.841 -1.2219  2.7968  0.8813
 2866TIP3   OH230232   2.358   5.671   2.528 -0.0352 -0.4092 -0.9942
 2866TIP3    H130233   2.392   5.691   2.616  0.1642  0.0326 -1.1682
 2866TIP3    H230234   2.298   5.598   2.542  0.0849 -0.4202 -0.5050
 2867TIP3   OH230235   6.515   2.079   7.023 -0.4450 -0.1285  0.1267
 2867TIP3    H130236   6.507   1.991   7.059  3.2327 -0.3060  0.9001
 2867TIP3    H230237   6.487   2.070   6.932 -2.2647 -1.5319  0.7741
 2868TIP3   OH230238   4.344   2.684   2.606 -0.4250 -0.0400  0.8750
 2868TIP3    H130239   4.387   2.600   2.591  0.0176  0.3216  0.0724
 2868TIP3    H230240   4.253   2.661   2.625 -0.1257 -0.7457  1.5075
 2869TIP3   OH230241   1.714   1.647   2.896  0.0085 -0.8921 -0.3771
 2869TIP3    H130242   1.684   1.727   2.852 -0.4995 -0.4482  0.7452
 2869TIP3    H230243   1.652   1.580   2.870 -0.8424 -0.4172  0.3870
 2870TIP3   OH230244   5.448   5.996   1.650 -0.3883 -0.4899  0.3840
 2870TIP3    H130245   5.392   6.047   1.593 -1.2567 -1.7350  0.0817
 2870TIP3    H230246   5.429   6.027   1.738  1.8348  2.3039  0.0342
 2871TIP3   OH230247   6.472   1.133   7.733 -0.0442  0.1355  0.1825
 2871TIP3    H130248   6.549   1.113   7.680 -0.0488 -0.2135  0.3086
 2871TIP3    H230249   6.474   1.228   7.743  1.1354  0.0118  1.3392
 2872TIP3   OH230250   4.575   4.582   2.081  0.3182  0.0257  0.5731
 2872TIP3    H130251   4.554   4.655   2.024 -0.5544 -1.5877 -1.2829
 2872TIP3    H230252   4.589   4.622   2.167 -1.0643  2.2469 -0.1491
 2873TIP3   OH230253   6.742   4.271   1.439  0.2420  0.0845  0.2802
 2873TIP3    H130254   6.787   4.227   1.511  0.2656  2.3872  1.7623
 2873TIP3    H230255   6.652   4.282   1.470  0.1152  0.6265 -0.2654
 2874TIP3   OH230256   6.561   6.447   2.295 -0.3921  1.2307  0.1107
 2874TIP3    H130257   6.619   6.470   2.368 -2.5886  2.4658  1.6120
 2874TIP3    H230258   6.513   6.528   2.276 -2.3172  0.0616 -0.3396
 2875TIP3   OH230259   4.657   2.218   8.467 -0.5345  0.3222 -0.8558
 2875TIP3    H130260   4.742   2.261   8.452  0.0876 -1.0430 -1.3760
 2875TIP3    H230261   4.596   2.264   8.409  0.0601  0.6588 -1.2237
 2876TIP3   OH230262   5.033   3.809   0.511  0.9342 -0.1564 -0.1645
 2876TIP3    H130263   4.960   3.749   0.498  0.9334 -0.3825  0.8085
 2876TIP3    H230264   4.995   3.883   0.560  1.7328 -1.2200  2.2237
 2877TIP3   OH230265   6.289   0.034   1.293 -0.2939 -0.0861  0.1289
 2877TIP3    H130266   6.347   0.093   1.342 -1.4420  1.2760 -0.1014
 2877TIP3    H230267   6.201   0.058   1.321 -0.8464 -0.9822 -0.7764
 2878TIP3   OH230268   3.420   0.163   1.447 -0.1410 -0.1616  0.1131
 2878TIP3    H130269   3.375   0.079   1.452 -2.1845  0.5260 -3.3486
 2878TIP3    H230270   3.351   0.228   1.460  0.8132  0.9605 -0.2320
 2879TIP3   OH230271   0.969   5.124   1.606 -0.4356 -0.5339  0.0492
 2879TIP3    H130272   0.956   5.088   1.518 -1.9369  0.0532  0.0062
 2879TIP3    H230273   1.012   5.208   1.592  0.3270 -0.9320 -0.0423
 2880TIP3   OH230274   5.200   3.132   7.783  0.3123 -0.2311  0.6378
 2880TIP3    H130275   5.215   3.216   7.739 -2.0376  0.6411  1.3471
 2880TIP3    H230276   5.236   3.144   7.870 -0.5462  0.2863  0.9332
 2881TIP3   OH230277   0.053   4.592   2.569 -0.0639 -0.0467  0.2408
 2881TIP3    H130278  -0.022   4.613   2.624  0.1967 -1.2545  1.0928
 2881TIP3    H230279   0.074   4.501   2.590  1.5090  0.1952 -0.1360
 2882TIP3   OH230280   6.734   3.983   2.013  0.1957  0.6040  0.0351
 2882TIP3    H130281   6.705   4.071   2.039  0.0364 -0.3040  3.3963
 2882TIP3    H230282   6.813   3.968   2.065 -0.4751 -1.6727  0.5029
 2883TIP3   OH230283   2.374   6.518   8.530  0.7617 -0.1823  0.5330
 2883TIP3    H130284   2.395   6.611   8.524  1.3429 -0.3808 -0.7035
 2883TIP3    H230285   2.335   6.508   8.618  1.5096  1.0486  1.0280
 2884TIP3   OH230286   4.711   4.126   1.459 -0.2528  0.3542 -0.5552
 2884TIP3    H130287   4.753   4.210   1.475 -0.6847  0.4634  0.0337
 2884TIP3    H230288   4.622   4.149   1.431  0.0303  0.1239 -1.6794
 2885TIP3   OH230289   6.859   6.665   0.109 -0.5053  0.4754  0.0647
 2885TIP3    H130290   6.814   6.581   0.117  0.2666 -0.1584 -1.8074
 2885TIP3    H230291   6.800   6.728   0.152 -2.0163 -0.7111 -0.1947
 2886TIP3   OH230292   3.922   4.384   1.657 -0.5578 -0.1539 -0.8097
 2886TIP3    H130293   3.940   4.470   1.694  1.6543 -1.3117  1.0497
 2886TIP3    H230294   4.008   4.348   1.636 -1.4208 -1.9223 -1.5141
 2887TIP3   OH230295   4.715   6.489   2.107 -0.2737 -0.0199  0.0729
 2887TIP3    H130296   4.683   6.580   2.108 -0.0523  0.0773 -0.7741
 2887TIP3    H230297   4.720   6.465   2.199 -0.3224  0.8364  0.3133
 2888TIP3   OH230298   6.141   4.479   7.931 -0.1095  0.4378  0.0093
 2888TIP3    H130299   6.172   4.474   7.841  0.3179  0.9352  0.1257
 2888TIP3    H230300   6.158   4.391   7.967  0.9706  0.6258  0.0032
 2889TIP3   OH230301   4.679   0.557   2.442  0.3463 -0.3453  0.5397
 2889TIP3    H130302   4.640   0.643   2.424  0.9387 -0.0927  0.4083
 2889TIP3    H230303   4.738   0.572   2.516  0.6158 -0.5862  0.3790
 2890TIP3   OH230304   2.051   4.954   1.224  0.8347 -0.0233  0.2741
 2890TIP3    H130305   2.043   5.035   1.174  0.6283  0.1520  0.5911
 2890TIP3    H230306   2.124   4.970   1.284  0.5868  0.0426  0.5564
 2891TIP3   OH230307   3.645   1.486   0.151  0.2738  0.1463 -0.0952
 2891TIP3    H130308   3.648   1.572   0.194  1.3383  0.9419 -1.6662
 2891TIP3    H230309   3.612   1.504   0.063 -1.7564 -1.4313  0.2473
 2892TIP3   OH230310   2.399   0.711   2.031 -0.4532  0.1315 -0.0315
 2892TIP3    H130311   2.367   0.656   1.959 -0.9061  1.1233 -0.6026
 2892TIP3    H230312   2.464   0.768   1.991 -0.1459  0.1789  0.5161
 2893TIP3   OH230313   6.632   6.104   8.550 -0.2349  0.2350 -0.3423
 2893TIP3    H130314   6.580   6.124   8.473 -1.2865  0.3875  0.3966
 2893TIP3    H230315   6.722   6.128   8.525 -0.5318  0.1400 -1.5580
 2894TIP3   OH230316   1.443   4.161   2.505 -0.5423 -0.5151 -0.1414
 2894TIP3    H130317   1.497   4.217   2.449 -0.9148  0.0421  0.0391
 2894TIP3    H230318   1.458   4.073   2.473 -1.8912 -0.0817 -2.1422
 2895TIP3   OH230319   6.273   1.214   2.151  0.1831  0.6076 -0.6267
 2895TIP3    H130320   6.344   1.277   2.161  0.7548 -0.0006 -0.8491
 2895TIP3    H230321   6.261   1.207   2.057 -0.4570  1.0129 -0.5842
 2896TIP3   OH230322   3.385   0.164   7.530 -0.0772  0.0126  0.1119
 2896TIP3    H130323   3.464   0.116   7.506 -1.2538 -2.7063  1.2647
 2896TIP3    H230324   3.363   0.213   7.451  2.4108  0.4200 -0.4143
 2897TIP3   OH230325   0.238   5.550   0.770 -0.0407 -0.5261  0.5495
 2897TIP3    H130326   0.227   5.470   0.718  0.7061  0.4760 -1.2667
 2897TIP3    H230327   0.151   5.591   0.770 -0.3862 -1.2339  1.3506
 2898TIP3   OH230328   5.366   5.490   7.284  0.5204  0.1491 -0.2872
 2898TIP3    H130329   5.410   5.575   7.292  0.7347  0.0807 -0.6979
 2898TIP3    H230330   5.351   5.461   7.374  1.8129 -0.0891 -0.1351
 2899TIP3   OH230331   0.536   5.751   8.026  0.7127  0.2832 -0.3668
 2899TIP3    H130332   0.526   5.678   8.087  1.0731  0.1417 -0.4747
 2899TIP3    H230333   0.558   5.710   7.942  0.5502  0.4963 -0.5141
 2900TIP3   OH230334   3.764   0.287   2.223 -0.3915 -0.4882 -0.4998
 2900TIP3    H130335   3.851   0.270   2.260 -0.7487  0.0882  0.6356
 2900TIP3    H230336   3.748   0.212   2.166  0.7737 -0.6959 -0.5845
 2901TIP3   OH230337   5.857   0.387   8.401  0.5875 -0.0567  0.1771
 2901TIP3    H130338   5.903   0.309   8.433  0.6740  0.5511  1.6177
 2901TIP3    H230339   5.774   0.387   8.449  0.5692  0.7085  0.1548
 2902TIP3   OH230340   3.312   1.131   2.612 -0.3964  0.2557 -0.0046
 2902TIP3    H130341   3.221   1.160   2.598 -0.4276  0.8330  1.2324
 2902TIP3    H230342   3.347   1.195   2.674  0.8823  0.0688 -0.5241
 2903TIP3   OH230343   6.682   6.148   1.056 -0.1208 -0.1433  0.3716
 2903TIP3    H130344   6.693   6.129   0.963 -1.4125 -1.7960  0.5076
 2903TIP3    H230345   6.618   6.219   1.059  0.6473  0.5828 -0.0032
 2904TIP3   OH230346   5.416   6.050   1.052 -0.5925 -0.7052  0.2006
 2904TIP3    H130347   5.331   6.029   1.013 -0.0376  0.9140 -2.0511
 2904TIP3    H230348   5.480   6.028   0.985  0.5808  0.4406  0.8906
 2905TIP3   OH230349   6.159   6.365   0.862  0.4056 -0.4479 -0.0414
 2905TIP3    H130350   6.254   6.365   0.857  0.3495 -0.5471 -1.5455
 2905TIP3    H230351   6.136   6.273   0.878  0.5140 -0.8450 -1.9039
 2906TIP3   OH230352   1.382   6.489   8.344  0.0557 -0.2895 -0.0904
 2906TIP3    H130353   1.406   6.522   8.431  0.9122  0.0994 -0.4598
 2906TIP3    H230354   1.288   6.504   8.338 -0.0851 -0.6611  0.9103
 2907TIP3   OH230355   2.688   3.730   2.694 -0.4045 -0.7384  0.2209
 2907TIP3    H130356   2.773   3.725   2.738 -0.3954 -0.0590  0.2989
 2907TIP3    H230357   2.632   3.779   2.755 -0.6272 -0.5032 -0.1631
 2908TIP3   OH230358   2.338   2.854   8.241  0.1606  0.4235 -0.0567
 2908TIP3    H130359   2.320   2.765   8.271  1.2035  0.6629  1.4090
 2908TIP3    H230360   2.252   2.891   8.222 -0.3148 -0.7371 -0.2364
 2909TIP3   OH230361   6.797   5.433   0.884 -0.4914  0.1508  0.3031
 2909TIP3    H130362   6.812   5.392   0.799  2.9081  3.6176 -1.0528
 2909TIP3    H230363   6.714   5.480   0.874 -0.6994 -0.3940 -0.6360
 2910TIP3   OH230364   3.479   2.649   8.363 -0.2136 -0.4442  0.1489
 2910TIP3    H130365   3.405   2.659   8.422  1.1582  3.4822  1.5469
 2910TIP3    H230366   3.478   2.729   8.310  1.8297 -1.2543 -1.2240
 2911TIP3   OH230367   3.281   4.492   2.143 -0.1398 -0.7609 -0.0636
 2911TIP3    H130368   3.331   4.544   2.206  3.1190 -0.2885 -2.7215
 2911TIP3    H230369   3.243   4.422   2.195  2.1181 -0.2684  2.4994
 2912TIP3   OH230370   6.878   3.141   8.592  0.5088 -0.4887  0.2543
 2912TIP3    H130371   6.878   3.117   8.500  0.0054  1.4364 -0.2801
 2912TIP3    H230372   6.851   3.061   8.638 -2.4366 -0.6398 -1.5222
 2913TIP3   OH230373   6.059   6.356   8.231  0.9735 -0.1867 -0.2210
 2913TIP3    H130374   6.136   6.412   8.221  1.4070 -1.0803 -2.5855
 2913TIP3    H230375   5.985   6.416   8.230  1.5673  0.5965  0.9249
 2914TIP3   OH230376   3.151   6.439   7.821 -0.3263  0.2198  0.4581
 2914TIP3    H130377   3.145   6.374   7.751  2.3614  0.3094  0.0093
 2914TIP3    H230378   3.207   6.398   7.887 -0.7507  1.0971  1.3917
 2915TIP3   OH230379   1.618   6.541   2.151  0.3210 -0.2866  0.1360
 2915TIP3    H130380   1.674   6.568   2.078  0.5547 -1.3669 -0.0969
 2915TIP3    H230381   1.645   6.451   2.170 -0.0019 -0.1496  1.3114
 2916TIP3   OH230382   4.138   6.167   0.395 -0.1841  0.3983 -0.0947
 2916TIP3    H130383   4.074   6.231   0.364 -0.0934  0.1030 -0.8950
 2916TIP3    H230384   4.157   6.195   0.485 -1.2882  0.5892  0.0869
 2917TIP3   OH230385   1.267   3.078   0.590  0.7276 -0.1536  0.5215
 2917TIP3    H130386   1.281   3.034   0.673 -1.0883 -1.3228  0.2586
 2917TIP3    H230387   1.215   3.156   0.612 -0.5254 -0.9343  0.4197
 2918TIP3   OH230388   1.948   2.282   2.348 -0.1970  0.6121  0.0371
 2918TIP3    H130389   1.905   2.357   2.389  1.1367  1.0715  0.6648
 2918TIP3    H230390   2.042   2.298   2.362  0.2447  0.0334 -1.9171
 2919TIP3   OH230391   0.199   3.043   0.276 -0.5015 -0.1495 -0.2205
 2919TIP3    H130392   0.268   2.977   0.265 -2.1037 -1.6471 -2.2957
 2919TIP3    H230393   0.219   3.109   0.210 -0.4644 -0.0349 -0.0943
 2920TIP3   OH230394   1.033   1.018   0.658  0.0600  0.1513  0.3173
 2920TIP3    H130395   1.091   0.942   0.656 -2.4481 -1.8667  0.5580
 2920TIP3    H230396   1.025   1.044   0.566 -0.1223 -0.7541  0.0675
 2921TIP3   OH230397   2.901   1.421   2.395 -0.1434  0.3508 -0.1095
 2921TIP3    H130398   2.970   1.405   2.459 -0.8800 -1.5264  0.2890
 2921TIP3    H230399   2.831   1.463   2.445  0.1220  0.8668 -0.1711
 2922TIP3   OH230400   3.579   1.718   2.175  0.5000  0.3399 -0.6977
 2922TIP3    H130401   3.501   1.666   2.194  0.4971  0.6514  0.2313
 2922TIP3    H230402   3.607   1.750   2.261  0.7290  1.5250 -1.1924
 2923TIP3   OH230403   3.539   2.929   7.616  0.0974  0.3478  0.1471
 2923TIP3    H130404   3.554   2.877   7.537 -0.3686  2.4391 -1.3985
 2923TIP3    H230405   3.444   2.934   7.623  0.1000  2.3629 -0.7443
 2924TIP3   OH230406   4.596   0.062   7.221 -0.4257 -0.1036  0.0521
 2924TIP3    H130407   4.627  -0.029   7.228  1.2541  0.4382  0.1979
 2924TIP3    H230408   4.544   0.076   7.300  0.1631 -0.6355  0.5457
 2925TIP3   OH230409   2.654   4.449   8.222 -0.1923  0.0176 -0.1223
 2925TIP3    H130410   2.697   4.511   8.282  0.8091 -0.3886 -0.4138
 2925TIP3    H230411   2.666   4.364   8.263 -0.5441 -0.1285 -0.3151
 2926TIP3   OH230412   3.063   0.453   1.197 -0.4067 -0.0170  0.1360
 2926TIP3    H130413   3.155   0.452   1.224 -0.2618 -2.2546 -0.2412
 2926TIP3    H230414   3.055   0.379   1.137 -2.4085  0.2994 -0.0404
 2927TIP3   OH230415   3.349   2.093   8.595  0.0069  0.5397 -0.5564
 2927TIP3    H130416   3.435   2.114   8.630 -0.6446  1.1186  0.7942
 2927TIP3    H230417   3.318   2.175   8.557 -1.9819  1.9576  3.5189
 2928TIP3   OH230418   0.128   6.035   1.841  0.0056  0.0097 -0.0493
 2928TIP3    H130419   0.217   6.000   1.837  0.0784  0.0906  0.6826
 2928TIP3    H230420   0.103   6.048   1.750  1.2935  1.3592 -0.2624
 2929TIP3   OH230421   2.973   6.590   7.970 -0.2609 -0.3739 -0.9123
 2929TIP3    H130422   3.023   6.571   8.050 -1.5063 -1.3383 -0.3243
 2929TIP3    H230423   3.037   6.580   7.900  0.7201 -0.1061 -0.0949
 2930TIP3   OH230424   1.428   4.190   3.456 -0.0667  0.0116  0.2115
 2930TIP3    H130425   1.503   4.191   3.516 -1.2502 -1.7748  1.8150
 2930TIP3    H230426   1.378   4.269   3.478 -1.4155 -1.4605  2.9440
 2931TIP3   OH230427   4.980   6.307   1.508  0.3429 -0.0031  0.0418
 2931TIP3    H130428   4.912   6.360   1.468  0.0789 -1.1482 -1.1045
 2931TIP3    H230429   4.934   6.249   1.569  0.3198 -0.5431 -0.4805
 2932TIP3   OH230430   5.142   4.195   2.382  0.0008 -0.4144  0.3749
 2932TIP3    H130431   5.189   4.129   2.331  0.2820 -0.7819  1.0866
 2932TIP3    H230432   5.056   4.156   2.397 -0.3277 -0.0071 -0.4001
 2933TIP3   OH230433   0.472   0.117   3.639  0.6371 -0.2380 -0.2666
 2933TIP3    H130434   0.434   0.144   3.555  0.3795  3.5832  0.8807
 2933TIP3    H230435   0.401   0.130   3.702  1.9572  0.9313  1.0510
 2934TIP3   OH230436   6.289   5.435   8.327 -0.7864  0.2018  0.1681
 2934TIP3    H130437   6.247   5.413   8.243 -2.3459  1.2542  0.6418
 2934TIP3    H230438   6.329   5.353   8.355  0.7203  0.0438 -2.0938
 2935TIP3   OH230439   0.228   5.564   2.933 -0.2433  0.7528  0.2107
 2935TIP3    H130440   0.310   5.530   2.969  0.2057  0.6459 -0.8881
 2935TIP3    H230441   0.170   5.571   3.009  0.6295  0.3963  0.9302
 2936TIP3   OH230442   3.218   0.313   2.894 -0.3808  0.8001  0.5542
 2936TIP3    H130443   3.259   0.285   2.812  1.5801 -0.5989  1.9072
 2936TIP3    H230444   3.134   0.351   2.868 -0.1085 -0.1873 -2.0138
 2937TIP3   OH230445   4.607   6.112   1.340 -0.1207  0.3606  0.3523
 2937TIP3    H130446   4.627   6.192   1.389 -0.2602  0.7908 -0.2820
 2937TIP3    H230447   4.675   6.050   1.367  2.0046  1.6989 -1.5432
 2938TIP3   OH230448   4.064   2.915   8.545 -0.3682  0.4939  0.2773
 2938TIP3    H130449   4.140   2.957   8.586 -0.9147  1.2475  0.5579
 2938TIP3    H230450   3.998   2.985   8.540 -0.8069  0.0398 -0.5913
 2939TIP3   OH230451   0.269   6.197   0.375 -0.4866  0.1826  0.3188
 2939TIP3    H130452   0.238   6.182   0.464 -1.8484 -2.1481 -0.4672
 2939TIP3    H230453   0.352   6.150   0.370 -1.6540 -1.9347 -0.3045
 2940TIP3   OH230454   3.866   2.405   0.541  0.3720  0.1807 -0.1514
 2940TIP3    H130455   3.791   2.376   0.490  0.7207  0.0097 -0.5726
 2940TIP3    H230456   3.842   2.493   0.570  0.6268  0.7381 -1.5652
 2941TIP3   OH230457   5.679   6.340   8.216 -0.0048  0.2762 -0.1245
 2941TIP3    H130458   5.683   6.416   8.157 -0.0155 -0.5241 -1.1797
 2941TIP3    H230459   5.681   6.264   8.157 -0.2809 -0.5388  0.9008
 2942TIP3   OH230460   2.568   6.320   0.333 -0.5742  0.1420 -0.3115
 2942TIP3    H130461   2.556   6.237   0.380  1.7035 -0.2665 -0.3377
 2942TIP3    H230462   2.536   6.302   0.244  2.4924 -1.7668 -1.2046
 2943TIP3   OH230463   0.992   0.399   0.661  0.6906  0.2625 -0.9137
 2943TIP3    H130464   0.979   0.369   0.571  2.0441 -2.2023 -0.3659
 2943TIP3    H230465   0.951   0.333   0.716  0.5472  1.3298  0.3276
 2944TIP3   OH230466   3.028   4.047   7.751 -0.0973  0.1786  0.3297
 2944TIP3    H130467   3.036   3.999   7.669 -0.2988 -0.4910  0.6967
 2944TIP3    H230468   2.964   4.116   7.732 -0.2672 -0.0744 -0.0219
 2945TIP3   OH230469   4.050   3.504   2.467 -0.4106 -0.1398 -0.3416
 2945TIP3    H130470   4.133   3.539   2.434 -1.3189 -0.1766 -2.9024
 2945TIP3    H230471   4.072   3.417   2.500  0.2815 -1.1436 -3.1380
 2946TIP3   OH230472   1.314   5.969   8.221 -0.3112  0.0250 -0.3115
 2946TIP3    H130473   1.397   5.971   8.174 -0.5212  2.7445 -0.7362
 2946TIP3    H230474   1.330   6.019   8.300 -0.9946 -1.3072  0.7126
 2947TIP3   OH230475   3.059   1.595   2.580  0.5414 -0.2239  0.1550
 2947TIP3    H130476   3.025   1.681   2.555  2.4072  0.2888 -0.7344
 2947TIP3    H230477   3.099   1.610   2.666 -1.3755 -0.8358  1.2173
 2948TIP3   OH230478   1.728   5.950   1.736 -0.4695 -0.1983 -0.3092
 2948TIP3    H130479   1.677   5.979   1.811  0.1811  0.6527 -0.1922
 2948TIP3    H230480   1.758   5.862   1.760 -0.4542 -0.0217  0.3242
 2949TIP3   OH230481   5.827   4.707   0.914  0.2171  0.0645  0.5292
 2949TIP3    H130482   5.735   4.712   0.940 -0.0741 -3.0563  0.4398
 2949TIP3    H230483   5.872   4.761   0.978 -1.6578  1.7838  0.5016
 2950TIP3   OH230484   1.859   1.231   1.750 -0.3614  0.0665  0.0723
 2950TIP3    H130485   1.863   1.259   1.659 -1.6993  0.7816  0.2117
 2950TIP3    H230486   1.910   1.150   1.752 -1.0920 -0.4815 -1.5175
 2951TIP3   OH230487   5.956   1.769   2.604  0.2388 -0.8405  0.3481
 2951TIP3    H130488   5.982   1.690   2.557  1.7348  0.1362 -0.5775
 2951TIP3    H230489   6.033   1.790   2.658  0.4521  0.7379 -0.5032
 2952TIP3   OH230490   3.594   4.074   8.145  0.7784  0.0847  0.1750
 2952TIP3    H130491   3.585   3.991   8.099  0.2951  0.2122  0.0311
 2952TIP3    H230492   3.688   4.089   8.149  0.8301  0.7664 -2.0708
 2953TIP3   OH230493   6.397   6.847   0.235  0.0988  0.1185  0.4584
 2953TIP3    H130494   6.396   6.751   0.232  0.4682  0.1364 -1.4104
 2953TIP3    H230495   6.407   6.874   0.144  0.2833  1.9450  0.9759
 2954TIP3   OH230496   2.226   1.009   8.438  0.5249  0.2891  0.5621
 2954TIP3    H130497   2.190   1.026   8.351  1.6915  0.6883  0.1305
 2954TIP3    H230498   2.234   1.095   8.479  0.6730  0.1734  0.7810
 2955TIP3   OH230499   3.772   3.994   0.289  0.4795  0.0801 -0.0427
 2955TIP3    H130500   3.748   4.081   0.319  1.5245  0.1791  0.5539
 2955TIP3    H230501   3.838   4.009   0.221 -0.1171 -0.2215 -0.7020
 2956TIP3   OH230502   2.549   1.377   1.179  0.0128 -0.0931 -0.5372
 2956TIP3    H130503   2.538   1.471   1.188  0.1206 -0.2651  1.9458
 2956TIP3    H230504   2.633   1.366   1.134 -0.1422  0.9744 -1.1089
 2957TIP3   OH230505   5.257   1.670   2.254 -0.0008 -0.5896 -0.0942
 2957TIP3    H130506   5.203   1.746   2.276  1.6362  0.4973  0.3480
 2957TIP3    H230507   5.249   1.663   2.159 -1.1604 -0.6716 -0.0119
 2958TIP3   OH230508   2.699   0.971   0.324  0.1883  0.6383 -0.4707
 2958TIP3    H130509   2.646   0.901   0.362 -1.9663  2.2040 -0.4390
 2958TIP3    H230510   2.700   0.952   0.230 -1.5030  1.1901 -0.6440
 2959TIP3   OH230511   0.619   5.250   0.577 -0.4653 -0.0390 -0.0694
 2959TIP3    H130512   0.576   5.334   0.563  0.4567  0.3321 -0.7560
 2959TIP3    H230513   0.704   5.273   0.613  0.5336 -0.5523 -1.9825
 2960TIP3   OH230514   5.632   6.786   0.098  0.3377 -0.2980  0.4355
 2960TIP3    H130515   5.542   6.786   0.065  1.1615 -0.3580 -2.0187
 2960TIP3    H230516   5.684   6.822   0.026  2.2306  0.2834  2.0068
 2961TIP3   OH230517   5.277   2.957   8.632 -0.8343 -0.5096 -0.4128
 2961TIP3    H130518   5.236   3.003   8.705 -1.8405 -3.4628  1.0357
 2961TIP3    H230519   5.351   2.910   8.672  1.9388  1.8625 -2.3245
 2962TIP3   OH230520   4.294   2.260   8.542  0.0181  0.2561  0.4637
 2962TIP3    H130521   4.343   2.271   8.460 -0.4523  2.2009  0.4040
 2962TIP3    H230522   4.203   2.253   8.514 -0.3185  2.4717  0.8525
 2963TIP3   OH230523   4.766   2.018   1.835  0.6542 -0.1763  0.4963
 2963TIP3    H130524   4.674   2.023   1.861  0.5550  1.0163  0.0089
 2963TIP3    H230525   4.787   1.925   1.836 -0.5629 -0.4642  0.6050
 2964TIP3   OH230526   4.747   5.320   0.658 -0.6403  0.6756 -0.7161
 2964TIP3    H130527   4.694   5.306   0.579 -0.0307 -1.9122 -0.7590
 2964TIP3    H230528   4.740   5.238   0.706  0.4350  1.5702  1.0684
 2965TIP3   OH230529   6.831   4.119   1.671  0.2902  0.5391  1.0092
 2965TIP3    H130530   6.896   4.057   1.639  1.1631  1.7766  0.2785
 2965TIP3    H230531   6.750   4.068   1.675  0.4441 -0.1386 -1.7844
 2966TIP3   OH230532   0.035   3.814   0.782  0.0881  0.5283 -0.4492
 2966TIP3    H130533   0.066   3.727   0.759 -1.6932 -0.5569  1.0531
 2966TIP3    H230534  -0.045   3.826   0.729 -1.1134  0.1468  1.2127
 2967TIP3   OH230535   0.353   3.672   2.270 -0.0554 -0.2696 -0.3836
 2967TIP3    H130536   0.351   3.754   2.319 -1.0219 -0.1058 -0.6676
 2967TIP3    H230537   0.378   3.606   2.334  2.3350  0.4462 -0.4969
 2968TIP3   OH230538   4.166   0.033   0.586  0.6505 -0.1058  0.5570
 2968TIP3    H130539   4.117   0.115   0.595 -1.7524 -1.3264 -0.2553
 2968TIP3    H230540   4.196   0.032   0.495 -0.9135 -0.8400 -0.0052
 2969TIP3   OH230541   5.547   4.116   2.741  0.1529  0.0589 -0.4528
 2969TIP3    H130542   5.613   4.062   2.784  0.4473  0.4959 -0.3505
 2969TIP3    H230543   5.553   4.201   2.785  0.1100  0.3583 -1.0151
 2970TIP3   OH230544   6.620   4.508   2.227 -0.4868 -0.3589  0.1349
 2970TIP3    H130545   6.693   4.562   2.255 -2.0603  1.0927  1.6786
 2970TIP3    H230546   6.583   4.554   2.151  0.5422 -1.4616 -1.0989
 2971TIP3   OH230547   4.129   0.798   1.903  0.4705  0.2782 -0.6736
 2971TIP3    H130548   4.068   0.830   1.836 -0.2393 -0.5152 -0.4176
 2971TIP3    H230549   4.121   0.703   1.900 -0.6195  0.2515  1.4851
 2972TIP3   OH230550   0.594   0.353   1.796  0.0996 -0.0917 -0.0629
 2972TIP3    H130551   0.529   0.404   1.747  0.1412  0.6364  0.6304
 2972TIP3    H230552   0.590   0.266   1.757 -1.6595 -0.2095  0.2997
 2973TIP3   OH230553   0.495   4.549   8.580 -0.1022  0.2689  0.1615
 2973TIP3    H130554   0.518   4.456   8.580 -0.7288  0.0373  2.5221
 2973TIP3    H230555   0.547   4.587   8.510  2.7676 -1.2900  1.2890
 2974TIP3   OH230556   4.889   4.194   8.224  0.2646  0.0023 -0.5519
 2974TIP3    H130557   4.916   4.135   8.294 -0.2731  0.4835  0.0818
 2974TIP3    H230558   4.965   4.249   8.208  0.6397 -0.6059 -0.8791
 2975TIP3   OH230559   2.589   6.400   2.960  1.0987 -0.1114  0.1817
 2975TIP3    H130560   2.617   6.471   3.019  0.9061 -0.4731  0.7107
 2975TIP3    H230561   2.570   6.445   2.877  0.7403  0.4936  0.5805
 2976TIP3   OH230562   2.576   3.183   0.948 -0.5318 -0.1045  0.4647
 2976TIP3    H130563   2.485   3.182   0.919 -0.4490  0.8142  0.1533
 2976TIP3    H230564   2.626   3.149   0.874 -0.3625  1.8591 -0.3750
 2977TIP3   OH230565   6.709   4.254   2.082 -0.4426  0.3127 -0.3995
 2977TIP3    H130566   6.652   4.320   2.121 -1.2230 -0.6202  0.0559
 2977TIP3    H230567   6.784   4.304   2.050 -0.5229  1.2991  0.8751
 2978TIP3   OH230568   6.311   5.116   2.852  0.4483 -0.0870  0.0516
 2978TIP3    H130569   6.395   5.134   2.809  0.5335  0.0664  0.2811
 2978TIP3    H230570   6.298   5.190   2.910  0.3103 -0.2755  0.2605
 2979TIP3   OH230571   2.460   0.743   1.540 -0.1577  0.3444  0.6108
 2979TIP3    H130572   2.535   0.773   1.591 -0.2844 -0.1202  1.0904
 2979TIP3    H230573   2.426   0.822   1.498  0.1187  0.6911  1.0286
 2980TIP3   OH230574   0.277   3.762   8.494  0.2901  0.0761  0.1608
 2980TIP3    H130575   0.219   3.728   8.426  0.1093 -1.1179  0.8885
 2980TIP3    H230576   0.312   3.843   8.456  0.1001 -0.4808 -1.3001
 2981TIP3   OH230577   6.417   2.433   2.047 -0.5000  0.3563 -0.2249
 2981TIP3    H130578   6.328   2.430   2.083 -0.8684  0.8509 -1.0614
 2981TIP3    H230579   6.435   2.343   2.020 -0.3139  0.0273  0.9276
 2982TIP3   OH230580   6.269   3.757   3.104 -0.3197 -0.5522 -0.4187
 2982TIP3    H130581   6.271   3.683   3.044  0.8448 -0.3791 -0.6031
 2982TIP3    H230582   6.177   3.764   3.130 -0.7343 -1.0077 -1.7015
 2983TIP3   OH230583   6.759   4.833   0.533 -0.3096  0.4095 -0.8128
 2983TIP3    H130584   6.682   4.831   0.477 -0.0486 -1.2171 -1.1815
 2983TIP3    H230585   6.793   4.743   0.530 -0.5175  0.0974  2.2617
 2984TIP3   OH230586   0.579   0.186   2.554 -0.1241  0.3424 -0.0725
 2984TIP3    H130587   0.653   0.142   2.597  0.2696 -0.2165 -1.2640
 2984TIP3    H230588   0.530   0.227   2.626  2.0030  1.7820  0.6710
 2985TIP3   OH230589   3.215   5.809   0.325  0.2948 -0.6671  0.3180
 2985TIP3    H130590   3.227   5.852   0.241 -1.5065 -0.6331  0.0526
 2985TIP3    H230591   3.295   5.830   0.374 -0.4168  2.9260  0.1929
 2986TIP3   OH230592   4.406   3.678   1.159 -0.0843  0.3032  0.0392
 2986TIP3    H130593   4.484   3.722   1.125 -0.0556 -1.0299 -1.7288
 2986TIP3    H230594   4.440   3.611   1.217  0.0021  0.6386  0.3833
 2987TIP3   OH230595   4.594   5.000   0.139  0.3282 -0.2305 -0.2408
 2987TIP3    H130596   4.595   4.916   0.093  0.2447  0.6547 -1.9091
 2987TIP3    H230597   4.683   5.034   0.129  0.2149  0.1293 -0.0346
 2988TIP3   OH230598   4.765   4.299   2.236 -0.0354  0.4999  0.0131
 2988TIP3    H130599   4.681   4.313   2.194 -0.1232  0.3794  0.1480
 2988TIP3    H230600   4.749   4.318   2.328  0.1602  0.7811 -0.0089
 2989TIP3   OH230601   6.870   5.245   3.199 -0.2733  0.0763  0.9073
 2989TIP3    H130602   6.962   5.251   3.224 -0.1117  0.5698  0.2116
 2989TIP3    H230603   6.826   5.312   3.252  0.1121  1.3143 -0.2707
 2990TIP3   OH230604   1.513   3.557   2.202  0.5534  0.2027 -0.1292
 2990TIP3    H130605   1.580   3.488   2.197  2.3135  1.8798 -0.6947
 2990TIP3    H230606   1.524   3.607   2.121 -1.5120  0.4542 -0.3034
 2991TIP3   OH230607   0.650   1.080   0.985  0.4086 -0.4581  0.1072
 2991TIP3    H130608   0.566   1.067   1.029  0.2213  0.9502  0.2270
 2991TIP3    H230609   0.690   1.154   1.031  0.5981  0.4942 -1.5103
 2992TIP3   OH230610   0.074   5.970   1.545 -0.2074 -0.4863 -0.0882
 2992TIP3    H130611   0.051   5.928   1.462 -1.9567  1.0714 -0.4508
 2992TIP3    H230612   0.048   6.061   1.534  0.0245 -0.1142  1.9918
 2993TIP3   OH230613   6.042   0.664   1.343 -0.4063  0.0024 -0.0972
 2993TIP3    H130614   6.136   0.657   1.331 -0.3297  0.8141 -0.0618
 2993TIP3    H230615   6.022   0.612   1.420  0.0637  0.1270  0.1065
 2994TIP3   OH230616   2.570   2.967   8.337  0.1906  0.0996 -1.0562
 2994TIP3    H130617   2.482   2.950   8.301  0.1305 -1.4171 -0.2794
 2994TIP3    H230618   2.618   3.006   8.264 -0.9791  0.5062 -1.6467
 2995TIP3   OH230619   2.794   4.431   0.913  0.6026 -0.2622 -0.3132
 2995TIP3    H130620   2.834   4.467   0.993  1.7317 -1.1209 -0.4636
 2995TIP3    H230621   2.834   4.344   0.903 -1.7811 -1.4684 -0.1482
 2996TIP3   OH230622   6.532   1.120   3.286  0.3261  0.1902 -0.2805
 2996TIP3    H130623   6.567   1.186   3.345  1.8049 -1.2925  0.6079
 2996TIP3    H230624   6.547   1.155   3.198  2.0587  0.6077  0.1485
 2997TIP3   OH230625   3.603   1.119   0.085 -0.4517  0.7160 -0.1543
 2997TIP3    H130626   3.560   1.073   0.157  1.3340 -1.1022 -0.1817
 2997TIP3    H230627   3.548   1.102   0.009 -0.4292 -0.4179  0.0776
 2998TIP3   OH230628   6.824   6.650   7.020 -0.0638 -0.1094 -0.9573
 2998TIP3    H130629   6.734   6.625   6.998  0.0791 -0.3969 -1.2226
 2998TIP3    H230630   6.856   6.578   7.074  0.0958 -0.1288 -1.0798
 2999TIP3   OH230631   2.552   2.253   0.166 -0.1518 -0.4943 -0.0427
 2999TIP3    H130632   2.593   2.210   0.091 -1.1346 -0.7475 -0.4412
 2999TIP3    H230633   2.612   2.236   0.239  1.7460  1.2567 -1.0952
 3000TIP3   OH230634   2.819   6.706   2.191  0.7831  0.7589  0.6321
 3000TIP3    H130635   2.783   6.654   2.262  0.4751  0.6791  0.4244
 3000TIP3    H230636   2.903   6.666   2.170  0.7571  0.6288  0.7792
 3001TIP3   OH230637   1.365   0.455   0.814  0.0072  0.1391 -0.2559
 3001TIP3    H130638   1.294   0.515   0.835  0.2768  0.3140  0.1681
 3001TIP3    H230639   1.325   0.368   0.815 -0.1181  0.2045  0.3637
 3002TIP3   OH230640   3.392   4.180   2.245 -0.5952 -0.1363 -0.4006
 3002TIP3    H130641   3.441   4.146   2.320 -0.7683 -0.2344 -0.3327
 3002TIP3    H230642   3.446   4.252   2.212 -0.3438 -0.3200 -0.3969
 3003TIP3   OH230643   0.181   2.503   2.596 -0.4348  0.0760 -0.3904
 3003TIP3    H130644   0.263   2.463   2.626 -1.2451 -2.3200 -1.1615
 3003TIP3    H230645   0.156   2.452   2.519 -2.4555  1.0109 -0.4070
 3004TIP3   OH230646   2.978   5.379   1.962  0.1175 -0.2004 -0.1903
 3004TIP3    H130647   3.038   5.333   2.021 -0.0230  0.0012  0.1110
 3004TIP3    H230648   2.947   5.311   1.902 -1.3902 -0.9043  1.2916
 3005TIP3   OH230649   5.021   0.389   0.823  0.6656  0.2665 -0.4684
 3005TIP3    H130650   5.085   0.367   0.890 -0.4352 -1.1565  0.1844
 3005TIP3    H230651   4.983   0.305   0.798 -2.1179  1.1523  0.4185
 3006TIP3   OH230652   2.706   2.545   2.229  0.2985 -0.5775 -0.0209
 3006TIP3    H130653   2.666   2.558   2.143  1.5060 -0.3511 -0.5658
 3006TIP3    H230654   2.798   2.568   2.217  0.2736  0.5579  1.6010
 3007TIP3   OH230655   2.720   4.827   0.246  0.2244  0.6277 -0.5913
 3007TIP3    H130656   2.771   4.880   0.185  1.3355  1.1293  0.7144
 3007TIP3    H230657   2.695   4.888   0.316  1.5076 -0.5056  0.9372
 3008TIP3   OH230658   3.141   6.884   8.697  0.5651 -0.6181  0.1285
 3008TIP3    H130659   3.117   6.833   8.620 -0.3390  0.1022 -0.0812
 3008TIP3    H230660   3.237   6.881   8.699  0.5496 -2.0075 -0.0728
 3009TIP3   OH230661   0.302   3.709   1.039  0.3601 -0.0589 -0.0202
 3009TIP3    H130662   0.318   3.701   1.133  0.8536 -1.1378 -0.1679
 3009TIP3    H230663   0.216   3.669   1.026 -0.0495  0.7740  0.0582
 3010TIP3   OH230664   3.586   5.380   8.578 -0.1014  0.1620 -0.6803
 3010TIP3    H130665   3.591   5.387   8.673  0.1528 -0.7341 -0.6142
 3010TIP3    H230666   3.614   5.290   8.559  0.8865  0.6548 -1.6766
 3011TIP3   OH230667   5.144   5.312   7.232 -0.2401  0.1290 -0.1387
 3011TIP3    H130668   5.218   5.372   7.247 -0.7679  0.8390 -0.3300
 3011TIP3    H230669   5.179   5.247   7.172  0.8283 -0.7010  1.3056
 3012TIP3   OH230670   4.592   1.277   2.942 -0.0652  0.4334  0.2436
 3012TIP3    H130671   4.566   1.187   2.962 -0.4454  0.6183  0.5778
 3012TIP3    H230672   4.515   1.330   2.963  0.9283  1.1393  2.3703
 3013TIP3   OH230673   2.680   6.739   1.404 -0.4720  0.4815  0.1335
 3013TIP3    H130674   2.619   6.672   1.435  0.6528 -0.9467 -0.6163
 3013TIP3    H230675   2.752   6.738   1.467 -0.3397  0.8204 -0.0044
 3014TIP3   OH230676   1.388   1.914   2.007  0.4048 -0.7843  0.0170
 3014TIP3    H130677   1.469   1.884   2.050  0.7226  0.4704  0.3483
 3014TIP3    H230678   1.385   1.867   1.924  0.7571 -1.8702  0.6063
 3015TIP3   OH230679   4.113   5.396   1.427 -0.2567  0.2040 -0.2719
 3015TIP3    H130680   4.047   5.399   1.496  1.3431 -0.3942  1.3866
 3015TIP3    H230681   4.064   5.380   1.347 -2.2333  1.2923  0.6478
 3016TIP3   OH230682   0.413   0.558   1.719 -0.3968 -0.6936 -0.5853
 3016TIP3    H130683   0.409   0.541   1.624 -0.9859  0.5269 -0.7978
 3016TIP3    H230684   0.338   0.615   1.736 -0.1942 -0.7661  0.5978
 3017TIP3   OH230685   6.175   3.917   0.627  0.2073  0.4846  0.2454
 3017TIP3    H130686   6.225   3.837   0.644  0.1892  0.1192 -1.2905
 3017TIP3    H230687   6.136   3.903   0.541  1.3187  2.6921 -0.6923
 3018TIP3   OH230688   5.240   4.163   0.511 -0.2824 -0.2727  0.4468
 3018TIP3    H130689   5.210   4.168   0.420 -1.1305  0.8444  0.7655
 3018TIP3    H230690   5.166   4.126   0.558 -0.0874 -0.2076  0.8026
 3019TIP3   OH230691   5.318   4.410   2.764  0.6236 -0.2479  0.2617
 3019TIP3    H130692   5.322   4.480   2.830 -0.3829 -0.6775  0.8048
 3019TIP3    H230693   5.292   4.332   2.814  2.8666 -1.3249 -0.1148
 3020TIP3   OH230694   1.273   6.777   1.101 -0.0024  0.1464  0.1135
 3020TIP3    H130695   1.211   6.775   1.174  0.3620  0.5243  0.4327
 3020TIP3    H230696   1.270   6.689   1.065 -1.5362  0.4226 -0.5537
 3021TIP3   OH230697   4.118   0.534   1.477 -0.3311  0.0808 -1.1111
 3021TIP3    H130698   4.190   0.471   1.484  0.5074  1.0641 -0.4450
 3021TIP3    H230699   4.149   0.610   1.526 -1.8750  0.5085 -0.7456
 3022TIP3   OH230700   0.040   5.820   0.945  0.2790  0.0471 -0.2495
 3022TIP3    H130701   0.055   5.736   0.988 -1.8413  0.3369  1.2505
 3022TIP3    H230702  -0.055   5.828   0.941  0.4179  1.2822 -2.6734
 3023TIP3   OH230703   4.772   4.640   8.119 -0.0740 -0.0474 -0.0017
 3023TIP3    H130704   4.763   4.556   8.074 -0.8726  0.0767 -0.0914
 3023TIP3    H230705   4.857   4.636   8.161  0.6954 -0.1668 -1.5130
 3024TIP3   OH230706   0.691   1.099   1.332 -0.1826 -0.3365  0.3027
 3024TIP3    H130707   0.629   1.169   1.353 -0.2326 -0.2773 -0.0339
 3024TIP3    H230708   0.744   1.135   1.260 -0.1122 -0.5899  0.2274
 3025TIP3   OH230709   4.226   2.681   8.422 -0.1260  0.4549  0.1735
 3025TIP3    H130710   4.165   2.616   8.456  0.0298 -0.4452 -1.2046
 3025TIP3    H230711   4.170   2.753   8.392 -0.5964 -0.5622 -1.5069
 3026TIP3   OH230712   1.702   6.848   1.592  0.6861 -0.2783 -0.6022
 3026TIP3    H130713   1.677   6.939   1.611  1.6889 -0.1700  0.3379
 3026TIP3    H230714   1.782   6.855   1.540  0.8547 -0.6242 -0.3941
 3027TIP3   OH230715   1.119   2.022   1.506 -0.4533  0.2246 -0.2352
 3027TIP3    H130716   1.208   2.009   1.538 -0.7950 -0.5041  0.4718
 3027TIP3    H230717   1.069   2.047   1.583 -0.7892  1.0179 -0.7045
 3028TIP3   OH230718   5.343   5.968   0.567  0.2024  0.0955 -0.3966
 3028TIP3    H130719   5.425   5.921   0.578 -0.4095 -0.6013  1.6026
 3028TIP3    H230720   5.276   5.906   0.595 -0.8288  1.3378 -0.0289
 3029TIP3   OH230721   3.999   0.458   8.698 -0.0814  0.0345 -0.2371
 3029TIP3    H130722   4.066   0.456   8.629  0.4884 -1.8571  0.3062
 3029TIP3    H230723   4.002   0.370   8.736 -0.1650  1.1019  2.4144
 3030TIP3   OH230724   2.821   3.952   0.974 -0.0990  0.0084  0.0997
 3030TIP3    H130725   2.835   3.861   0.999  0.0080  0.7301  2.9307
 3030TIP3    H230726   2.728   3.956   0.950  0.0639 -0.9574 -0.7841
 3031TIP3   OH230727   5.258   4.307   1.400 -0.2261 -0.2408  0.1997
 3031TIP3    H130728   5.257   4.215   1.376 -1.2754  0.0532 -1.0052
 3031TIP3    H230729   5.325   4.346   1.344  0.2838 -0.2745  0.7754
 3032TIP3   OH230730   6.762   1.531   7.492  0.3870  0.0768  0.0795
 3032TIP3    H130731   6.836   1.496   7.543  0.6246 -1.8667 -1.4616
 3032TIP3    H230732   6.781   1.624   7.483  0.6620  0.3726  2.9162
 3033TIP3   OH230733   5.732   2.663   1.408  0.2700 -0.3448 -0.3870
 3033TIP3    H130734   5.708   2.753   1.387 -0.6905 -1.2185 -3.5480
 3033TIP3    H230735   5.659   2.630   1.460 -0.0941  0.2679 -0.5010
 3034TIP3   OH230736   3.073   6.670   1.181 -0.2669  0.0472 -0.2558
 3034TIP3    H130737   3.126   6.748   1.166 -0.4828  0.3154  0.3261
 3034TIP3    H230738   2.984   6.697   1.158 -0.5751  0.4144  1.2175
 3035TIP3   OH230739   1.712   6.295   1.302  0.4246  0.4078 -0.4891
 3035TIP3    H130740   1.699   6.247   1.383  2.3376  2.4734  1.1902
 3035TIP3    H230741   1.807   6.294   1.288  0.3027  1.6134 -1.6800
 3036TIP3   OH230742   1.230   5.126   8.068 -0.1605 -0.2482  0.1999
 3036TIP3    H130743   1.288   5.182   8.016 -1.7474  0.7211 -0.5965
 3036TIP3    H230744   1.160   5.185   8.097 -1.6614 -1.7088 -0.2905
 3037TIP3   OH230745   0.252   2.948   0.915  0.5650 -0.1260  0.1204
 3037TIP3    H130746   0.292   2.873   0.872  0.0975 -0.2263 -0.1448
 3037TIP3    H230747   0.220   3.003   0.843  3.5638  1.8642  0.1246
 3038TIP3   OH230748   6.787   6.861   3.223 -0.3389  0.1836  0.1333
 3038TIP3    H130749   6.810   6.826   3.309 -0.3406 -1.7690 -0.6223
 3038TIP3    H230750   6.709   6.812   3.197  0.7692 -0.6779 -1.8050
 3039TIP3   OH230751   5.329   6.405   1.089  1.1374  0.3821 -0.2289
 3039TIP3    H130752   5.409   6.401   1.037  1.1682 -3.0146 -0.1686
 3039TIP3    H230753   5.281   6.325   1.066 -0.2766  0.2338  2.7279
 3040TIP3   OH230754   3.868   6.394   7.519  0.7670 -0.0664  0.4122
 3040TIP3    H130755   3.922   6.400   7.440  0.6254 -1.8443  0.1246
 3040TIP3    H230756   3.781   6.420   7.490 -0.0778 -3.7464 -1.0017
 3041TIP3   OH230757   0.727   3.143   8.478  0.0027  0.3733  0.1658
 3041TIP3    H130758   0.632   3.142   8.493 -0.2639 -0.3308 -1.2771
 3041TIP3    H230759   0.739   3.082   8.405  1.6359  0.0861  0.6487
 3042TIP3   OH230760   5.681   0.640   1.381 -0.6158 -0.2522 -0.0569
 3042TIP3    H130761   5.722   0.608   1.301 -0.9304  1.1931 -0.8219
 3042TIP3    H230762   5.729   0.597   1.452  0.0866 -1.0454 -0.9917
 3043TIP3   OH230763   3.230   1.305   0.355 -0.4614 -0.1129  0.3183
 3043TIP3    H130764   3.223   1.285   0.449 -0.1988  0.2466  0.4174
 3043TIP3    H230765   3.324   1.311   0.338 -0.4228 -2.1739 -0.4140
 3044TIP3   OH230766   4.745   4.434   8.360  0.1498  0.0652  0.1087
 3044TIP3    H130767   4.769   4.509   8.415  0.3107 -0.8480  1.3181
 3044TIP3    H230768   4.657   4.455   8.328 -0.3174  0.2385  1.4334
 3045TIP3   OH230769   6.511   5.875   2.768  0.4233  0.4281  0.1418
 3045TIP3    H130770   6.446   5.806   2.754  0.7079  0.2777 -0.4711
 3045TIP3    H230771   6.591   5.841   2.728  0.2039  1.7042 -1.5007
 3046TIP3   OH230772   6.647   6.812   8.388 -0.0084 -0.0851  0.2899
 3046TIP3    H130773   6.733   6.797   8.426 -1.0425 -1.0195  2.4337
 3046TIP3    H230774   6.592   6.837   8.462 -1.1930  2.4026 -1.3149
 3047TIP3   OH230775   4.974   0.317   7.644 -0.4421  0.9733  0.3052
 3047TIP3    H130776   5.045   0.353   7.697 -0.9070  1.6302  0.4976
 3047TIP3    H230777   4.967   0.226   7.673  0.5027  0.8225  0.0799
 3048TIP3   OH230778   3.620   3.166   8.322 -0.3362 -0.3732  0.3623
 3048TIP3    H130779   3.639   3.072   8.327 -1.0774 -0.6387 -1.1933
 3048TIP3    H230780   3.665   3.195   8.243  0.2981  0.7060  1.0994
 3049TIP3   OH230781   0.435   1.896   0.719 -0.6041 -0.3431  0.3671
 3049TIP3    H130782   0.482   1.814   0.708 -0.8448 -0.3943 -0.3065
 3049TIP3    H230783   0.394   1.912   0.634  1.1466  1.5443 -0.2114
 3050TIP3   OH230784   5.176   5.312   8.677 -0.1465  0.2170 -0.0354
 3050TIP3    H130785   5.176   5.390   8.621 -0.2442  1.1808  1.2420
 3050TIP3    H230786   5.152   5.240   8.619 -2.3885  1.5007 -0.8265
 3051TIP3   OH230787   3.062   4.182   0.703 -0.1258  0.1644 -0.4930
 3051TIP3    H130788   3.065   4.098   0.659 -2.0616 -0.0878 -0.2363
 3051TIP3    H230789   2.988   4.228   0.663 -0.3840  0.9166  0.7735
 3052TIP3   OH230790   1.458   0.331   0.230 -0.5048 -0.7810  0.1763
 3052TIP3    H130791   1.389   0.267   0.251 -0.1333 -1.2780 -0.0830
 3052TIP3    H230792   1.411   0.404   0.190 -1.2002  0.1198  2.4969
 3053TIP3   OH230793   4.592   0.863   7.295  0.7019 -0.2634 -0.5724
 3053TIP3    H130794   4.496   0.864   7.299  0.5788 -2.7553  3.4762
 3053TIP3    H230795   4.613   0.798   7.229 -0.5121 -1.1504 -0.1147
 3054TIP3   OH230796   5.853   3.703   0.484 -0.7257  0.0716 -0.5100
 3054TIP3    H130797   5.872   3.653   0.564 -1.2887  2.2515  1.0873
 3054TIP3    H230798   5.759   3.720   0.488 -0.7038  0.4664 -1.4691
 3055TIP3   OH230799   2.080   5.234   0.479 -0.2576 -0.0694  0.4380
 3055TIP3    H130800   2.141   5.190   0.420  1.3896  1.1748  1.1462
 3055TIP3    H230801   2.035   5.298   0.424  0.7650  0.6051  0.3679
 3056TIP3   OH230802   3.628   5.323   3.179 -0.0853 -0.0823  0.3825
 3056TIP3    H130803   3.592   5.410   3.200 -0.2044 -0.5016  2.0991
 3056TIP3    H230804   3.551   5.272   3.152  0.1877  0.6955 -2.0409
 3057TIP3   OH230805   3.589   6.160   8.412  0.0243 -0.4242 -0.1297
 3057TIP3    H130806   3.651   6.231   8.430 -0.7348  0.5729 -1.2646
 3057TIP3    H230807   3.553   6.181   8.326 -0.1233 -2.2927 -0.5649
 3058TIP3   OH230808   0.763   5.384   0.804 -0.1621  0.7589 -0.1645
 3058TIP3    H130809   0.787   5.408   0.714  1.2271 -1.7867 -0.5429
 3058TIP3    H230810   0.834   5.329   0.835 -1.0711  0.7838  2.2114
 3059TIP3   OH230811   0.211   1.874   2.826  0.3097 -0.2187 -0.3327
 3059TIP3    H130812   0.118   1.883   2.846  0.8661 -1.6788  3.9185
 3059TIP3    H230813   0.213   1.830   2.741 -2.7737  1.4806 -1.4318
 3060TIP3   OH230814   1.996   4.294   0.873  0.6023 -0.5081  0.2897
 3060TIP3    H130815   2.010   4.215   0.924  1.5930 -0.5733 -0.0494
 3060TIP3    H230816   1.901   4.303   0.866  0.4671 -1.0433  1.2761
 3061TIP3   OH230817   5.549   5.255   2.675  0.3555 -0.2899 -0.5034
 3061TIP3    H130818   5.558   5.298   2.760  2.2531  0.3877 -1.0046
 3061TIP3    H230819   5.455   5.252   2.660 -0.0619 -0.8535  1.8138
 3062TIP3   OH230820   1.826   1.931   1.494 -0.2525 -0.6811  0.3678
 3062TIP3    H130821   1.864   1.862   1.440 -1.2215 -1.3575  0.5234
 3062TIP3    H230822   1.798   1.998   1.431  0.9616 -0.2638  0.2379
 3063TIP3   OH230823   5.981   0.136   8.425 -0.8141  0.6139 -0.1477
 3063TIP3    H130824   6.051   0.131   8.361  0.6413 -0.4154  1.4349
 3063TIP3    H230825   5.986   0.054   8.474 -1.0815  1.7889  2.0169
 3064TIP3   OH230826   0.074   1.407   0.341  0.0221  0.8581  0.6013
 3064TIP3    H130827   0.038   1.416   0.430 -1.2501  0.4022  0.1671
 3064TIP3    H230828   0.083   1.313   0.328  0.1719  0.9199  0.2391
 3065TIP3   OH230829   3.255   5.559   1.820  0.1026 -0.0186 -0.8577
 3065TIP3    H130830   3.229   5.645   1.850 -0.3322 -0.7743  1.0508
 3065TIP3    H230831   3.345   5.548   1.851 -0.3764 -0.8368  0.3264
 3066TIP3   OH230832   2.107   5.344   8.619  0.5804  0.1046  0.0112
 3066TIP3    H130833   2.083   5.283   8.689  0.4362  0.7097  0.5045
 3066TIP3    H230834   2.156   5.412   8.664  1.6308 -0.1712 -0.7018
 3067TIP3   OH230835   0.228   4.839   0.975  0.4066 -0.0439  0.2877
 3067TIP3    H130836   0.292   4.797   1.033  0.2172 -1.5244 -0.5186
 3067TIP3    H230837   0.273   4.849   0.892  0.3276  1.0736  0.3689
 3068TIP3   OH230838   0.200   1.749   8.259 -0.1776 -0.0816  0.2442
 3068TIP3    H130839   0.175   1.826   8.309  0.2375  0.7199 -0.7385
 3068TIP3    H230840   0.138   1.747   8.186  0.0650 -0.4438  0.0444
 3069TIP3   OH230841   1.450   4.484   3.086 -0.4893 -0.4924 -0.0729
 3069TIP3    H130842   1.402   4.503   3.167 -0.6561 -0.1407 -0.2540
 3069TIP3    H230843   1.542   4.480   3.113 -0.4804  0.2728  0.0199
 3070TIP3   OH230844   0.255   2.424   1.481  0.5038  0.6235 -0.8174
 3070TIP3    H130845   0.331   2.410   1.538 -1.2927  0.2167  1.6023
 3070TIP3    H230846   0.270   2.364   1.407  2.2958  0.2134 -0.1830
 3071TIP3   OH230847   0.762   2.914   0.417 -0.1231 -0.1205  0.2179
 3071TIP3    H130848   0.791   2.940   0.329  0.2781  2.2263  0.9752
 3071TIP3    H230849   0.822   2.959   0.476 -0.0263 -2.1114  1.7413
 3072TIP3   OH230850   4.413   6.647   7.496  0.2998  0.0821  0.2654
 3072TIP3    H130851   4.398   6.741   7.488 -1.7196 -0.3179 -1.8522
 3072TIP3    H230852   4.400   6.628   7.589  0.4676  1.8449  0.6747
 3073TIP3   OH230853   5.233   3.678   8.245 -0.3806  0.2591  0.3269
 3073TIP3    H130854   5.154   3.646   8.287 -1.4843  2.1789 -0.1904
 3073TIP3    H230855   5.210   3.687   8.153 -0.4600  3.2140  0.5380
 3074TIP3   OH230856   2.044   1.200   2.070  0.5694  0.0735  0.8055
 3074TIP3    H130857   2.075   1.244   1.991 -0.4826 -1.1688 -0.3389
 3074TIP3    H230858   2.119   1.204   2.130  1.0548  1.9238  0.1531
 3075TIP3   OH230859   4.831   5.716   1.483  0.0725  0.5605 -0.0544
 3075TIP3    H130860   4.856   5.809   1.483 -0.8430  0.8668 -2.1934
 3075TIP3    H230861   4.813   5.696   1.575  0.7265  2.3769  0.5105
 3076TIP3   OH230862   5.730   4.908   2.327 -0.4240  0.3341 -0.0098
 3076TIP3    H130863   5.816   4.931   2.291  0.1259 -0.6339  0.6559
 3076TIP3    H230864   5.675   4.893   2.250  1.0143 -2.8272 -0.5829
 3077TIP3   OH230865   0.789   4.989   2.090  0.4294  0.0455  0.4667
 3077TIP3    H130866   0.733   5.030   2.024 -0.8284  0.1552  1.5376
 3077TIP3    H230867   0.877   5.020   2.071  0.0864  0.1187 -1.1013
 3078TIP3   OH230868   5.188   3.645   1.389 -0.3014 -0.3267 -0.6718
 3078TIP3    H130869   5.117   3.700   1.421 -0.1097 -1.1238  1.2976
 3078TIP3    H230870   5.247   3.636   1.464  2.4288  1.0897 -2.4640
 3079TIP3   OH230871   2.280   0.081   7.317 -0.1852  0.6566  0.5482
 3079TIP3    H130872   2.350   0.146   7.310  0.0233  0.4275  0.4882
 3079TIP3    H230873   2.205   0.122   7.274  0.0181  0.7576  0.2854
 3080TIP3   OH230874   0.041   4.327   1.931  0.0099  0.1757 -0.3870
 3080TIP3    H130875  -0.013   4.254   1.902  0.9089 -1.0857  0.9391
 3080TIP3    H230876   0.065   4.373   1.851 -2.8945  0.7573 -1.0221
 3081TIP3   OH230877   1.414   6.080   2.447  0.5876  0.3683  0.1049
 3081TIP3    H130878   1.464   6.145   2.497  1.2718  0.9011 -1.2375
 3081TIP3    H230879   1.386   6.126   2.368 -0.4025 -0.4892 -0.0713
 3082TIP3   OH230880   6.704   5.069   7.636 -0.2352  0.2445  0.1603
 3082TIP3    H130881   6.780   5.047   7.583 -0.2404 -0.7155  0.5308
 3082TIP3    H230882   6.673   4.985   7.670 -0.3048  0.8127  1.5864
 3083TIP3   OH230883   2.523   6.223   0.975  0.2529  0.0219 -0.2993
 3083TIP3    H130884   2.493   6.191   0.890  0.6805 -1.0610 -0.0549
 3083TIP3    H230885   2.501   6.317   0.974 -1.0955 -0.2648 -1.0044
 3084TIP3   OH230886   4.645   6.571   2.861  0.5758  0.0563  0.0634
 3084TIP3    H130887   4.660   6.476   2.862  0.3713  0.0286  0.6716
 3084TIP3    H230888   4.563   6.583   2.907 -0.5801  0.3437 -1.9416
 3085TIP3   OH230889   6.402   3.677   1.959 -0.7622  0.3253  0.0098
 3085TIP3    H130890   6.411   3.607   2.024  0.0214  0.0423 -0.3944
 3085TIP3    H230891   6.314   3.666   1.924 -0.7725 -0.2337  0.2045
 3086TIP3   OH230892   4.958   1.951   2.536  0.2582  0.2827 -0.3249
 3086TIP3    H130893   5.008   1.963   2.617 -0.6273 -2.7105  0.7904
 3086TIP3    H230894   4.893   2.022   2.537  1.1433  1.1150  0.8358
 3087TIP3   OH230895   4.748   6.419   2.396 -0.5599 -0.5484 -0.5110
 3087TIP3    H130896   4.792   6.501   2.419  0.9732 -1.5369  0.2140
 3087TIP3    H230897   4.664   6.424   2.442  0.0639  0.0397  0.5998
 3088TIP3   OH230898   1.056   3.324   2.849  0.0345 -0.0216  0.3131
 3088TIP3    H130899   1.034   3.344   2.758 -0.2890 -2.3323 -0.1838
 3088TIP3    H230900   0.973   3.295   2.887  0.6118 -1.2940  0.6520
 3089TIP3   OH230901   2.427   3.943   8.558 -0.2059  0.2818 -0.2589
 3089TIP3    H130902   2.470   4.029   8.553 -0.2907  0.3893  0.7948
 3089TIP3    H230903   2.348   3.954   8.505  0.7891  0.2200 -1.8449
 3090TIP3   OH230904   0.778   0.351   3.072 -0.4314  0.1599  0.3851
 3090TIP3    H130905   0.790   0.409   3.147 -0.8976  0.5687  0.1494
 3090TIP3    H230906   0.772   0.409   2.997  0.5123 -0.2705 -0.0405
 3091TIP3   OH230907   3.493   0.761   7.311 -0.5918 -0.4798 -0.1806
 3091TIP3    H130908   3.498   0.706   7.390  0.3557  0.3855  0.3827
 3091TIP3    H230909   3.563   0.728   7.255  0.1722  0.3124  0.2822
 3092TIP3   OH230910   1.387   5.423   0.420 -0.2300 -0.0119  0.1850
 3092TIP3    H130911   1.450   5.436   0.491 -0.8270  1.6754  0.4345
 3092TIP3    H230912   1.307   5.394   0.464 -0.1323 -0.5636  0.0165
 3093TIP3   OH230913   5.660   6.560   3.254 -0.1558 -0.0871 -0.1556
 3093TIP3    H130914   5.691   6.475   3.284 -0.8301 -0.3398 -0.1459
 3093TIP3    H230915   5.578   6.540   3.208  0.4513  0.3685 -1.4991
 3094TIP3   OH230916   1.958   3.540   1.175  0.8834  0.2333 -0.1881
 3094TIP3    H130917   2.024   3.492   1.224  0.3876  0.4236  0.6760
 3094TIP3    H230918   2.005   3.573   1.098  1.5712 -0.3939 -0.0466
 3095TIP3   OH230919   3.469   0.769   8.022  0.2669 -0.2136  0.4722
 3095TIP3    H130920   3.398   0.815   8.068 -0.8000 -0.7573 -0.5822
 3095TIP3    H230921   3.442   0.770   7.930  1.2555 -1.1101  0.1619
 3096TIP3   OH230922   0.703   3.731   2.290  0.3515 -0.4272  0.0249
 3096TIP3    H130923   0.713   3.636   2.285 -0.4767 -0.6066  1.4271
 3096TIP3    H230924   0.617   3.748   2.253  0.5293 -0.1938 -0.2938
 3097TIP3   OH230925   5.292   5.029   1.502 -0.0708  0.1834 -0.1155
 3097TIP3    H130926   5.232   5.092   1.463  1.2555  1.6804  0.1858
 3097TIP3    H230927   5.302   4.961   1.435 -1.6363  0.1746 -0.3792
 3098TIP3   OH230928   5.828   2.911   7.304 -0.0633  0.1916  0.5598
 3098TIP3    H130929   5.835   2.938   7.395  0.6148  2.1964 -0.0339
 3098TIP3    H230930   5.919   2.906   7.273 -0.3130  0.4721 -0.2457
 3099TIP3   OH230931   5.838   5.458   1.472  0.2212 -0.1188  0.0841
 3099TIP3    H130932   5.837   5.408   1.553  0.0047  0.3975  0.4075
 3099TIP3    H230933   5.923   5.503   1.473  0.3366 -0.3329 -0.1122
 3100TIP3   OH230934   6.608   0.486   8.586  0.4790 -0.5854 -0.0315
 3100TIP3    H130935   6.634   0.425   8.517  2.2743 -0.8027  0.7744
 3100TIP3    H230936   6.689   0.503   8.635 -0.2964  1.2469  0.7065
 3101TIP3   OH230937   6.315   3.017   0.570  0.2029 -0.4147  0.4637
 3101TIP3    H130938   6.342   3.047   0.483 -0.1339  0.7532  0.7411
 3101TIP3    H230939   6.386   2.960   0.599  0.0798 -1.2236 -0.7754
 3102TIP3   OH230940   4.332   0.946   1.403  0.6944  0.0975  0.3689
 3102TIP3    H130941   4.324   0.946   1.498  1.7928 -0.0859  0.4787
 3102TIP3    H230942   4.391   0.873   1.384 -1.6228 -1.6609 -0.6658
 3103TIP3   OH230943   1.804   2.019   0.557  0.2922  0.3141  0.1108
 3103TIP3    H130944   1.799   1.935   0.511  3.3323  0.3743 -0.5352
 3103TIP3    H230945   1.780   1.999   0.647  0.1524 -1.0650 -0.2129
 3104TIP3   OH230946   6.712   2.020   2.282 -0.2570  0.2662 -0.0899
 3104TIP3    H130947   6.792   2.057   2.246  0.1821  0.4417  1.0193
 3104TIP3    H230948   6.677   2.089   2.338  0.5301 -0.9013  1.9529
 3105TIP3   OH230949   5.946   1.320   7.273 -0.2972 -0.4867 -0.2690
 3105TIP3    H130950   5.977   1.346   7.360 -0.0380 -1.1725 -0.1426
 3105TIP3    H230951   6.009   1.360   7.213  0.3539 -1.1496 -0.0571
 3106TIP3   OH230952   3.738   3.572   1.284 -0.9976 -0.4495  0.2526
 3106TIP3    H130953   3.810   3.569   1.346 -1.1358 -0.4148  0.4159
 3106TIP3    H230954   3.678   3.638   1.319 -0.2620  0.8393 -0.8225
 3107TIP3   OH230955   0.964   6.623   1.153 -0.5662  0.1250  0.1525
 3107TIP3    H130956   0.916   6.595   1.075 -2.6067 -0.5330  1.5557
 3107TIP3    H230957   0.902   6.677   1.201  0.4121 -0.0111  1.6171
 3108TIP3   OH230958   4.829   5.587   0.517  0.0762  0.1931 -0.2684
 3108TIP3    H130959   4.818   5.502   0.476 -1.2367  0.2066  0.0311
 3108TIP3    H230960   4.787   5.579   0.603  1.3444  0.6635  0.4385
 3109TIP3   OH230961   6.291   0.979   3.143  0.1985 -0.1481  0.1067
 3109TIP3    H130962   6.352   1.018   3.206 -1.4255 -0.8350  2.2444
 3109TIP3    H230963   6.333   0.898   3.115  1.2536  0.5076 -0.2762
 3110TIP3   OH230964   6.158   1.521   8.185  0.1381  0.0843 -0.0638
 3110TIP3    H130965   6.167   1.426   8.192  2.3808  0.1732 -1.0580
 3110TIP3    H230966   6.188   1.542   8.097 -0.9059  1.6947 -0.0820
 3111TIP3   OH230967   3.168   6.172   0.590  0.4462 -0.3077 -0.0834
 3111TIP3    H130968   3.155   6.263   0.617  1.0256 -1.0004  2.8944
 3111TIP3    H230969   3.251   6.147   0.630 -0.6024 -2.6939  0.7827
 3112TIP3   OH230970   1.640   4.864   7.359  0.3845 -0.1305  0.4443
 3112TIP3    H130971   1.561   4.822   7.326  1.0523  0.3094 -1.9084
 3112TIP3    H230972   1.663   4.928   7.291  1.9936  0.7153  1.7183
 3113TIP3   OH230973   1.498   4.742   3.728  0.3332 -0.5142 -0.1691
 3113TIP3    H130974   1.583   4.702   3.749  0.0574 -1.1914 -0.2994
 3113TIP3    H230975   1.499   4.749   3.632  1.0629  1.3675 -0.0505
 3114TIP3   OH230976   0.893   5.705   1.199 -0.1592 -0.5854  0.7897
 3114TIP3    H130977   0.969   5.751   1.161 -0.7077  0.6027  1.0658
 3114TIP3    H230978   0.838   5.686   1.123 -0.5567  0.4514  0.7994
 3115TIP3   OH230979   4.120   1.614   3.278  0.1919 -0.2197 -0.0558
 3115TIP3    H130980   4.086   1.545   3.221 -0.8961  0.6769 -0.5277
 3115TIP3    H230981   4.159   1.678   3.218  0.7112 -0.1585  0.3403
 3116TIP3   OH230982   5.514   2.839   0.135 -0.3519 -0.2431 -0.6107
 3116TIP3    H130983   5.595   2.826   0.085 -0.3110 -0.1739 -0.5632
 3116TIP3    H230984   5.480   2.751   0.149  0.9854 -0.5078  1.4614
 3117TIP3   OH230985   5.919   0.420   2.828 -0.2751  0.4751  0.2732
 3117TIP3    H130986   6.006   0.427   2.867  0.1715 -0.7328 -0.4548
 3117TIP3    H230987   5.907   0.502   2.781  1.6885 -0.3857 -1.9470
 3118TIP3   OH230988   0.103   2.014   0.121 -0.6147 -0.6279 -0.6156
 3118TIP3    H130989   0.092   2.054   0.035  0.3353  1.8474  0.3313
 3118TIP3    H230990   0.162   1.939   0.106 -0.3827 -0.1689 -2.0953
 3119TIP3   OH230991   4.961   0.428   2.003 -0.4344 -0.1630  0.0011
 3119TIP3    H130992   4.871   0.403   1.980 -0.7898  1.5385 -0.5677
 3119TIP3    H230993   4.950   0.497   2.069  0.4760 -0.3328  0.3379
 3120TIP3   OH230994   6.058   5.721   7.198  0.3431  0.2330  0.1323
 3120TIP3    H130995   6.064   5.794   7.137  0.0847 -1.0207 -1.4699
 3120TIP3    H230996   5.973   5.730   7.240 -0.9100 -0.5922 -2.0704
 3121TIP3   OH230997   2.500   5.414   0.666 -0.0324 -0.0105 -0.6330
 3121TIP3    H130998   2.485   5.504   0.693 -0.0899 -0.2022 -0.0059
 3121TIP3    H230999   2.595   5.409   0.651  0.3508 -0.3963  1.5132
 3122TIP3   OH231000   1.104   2.449   1.156 -0.8405  0.9267  0.6354
 3122TIP3    H131001   1.135   2.402   1.078  0.4127 -0.7638  2.0666
 3122TIP3    H231002   1.096   2.540   1.127  0.8777  0.6047 -1.1262
 3123TIP3   OH231003   5.989   2.408   2.671  0.1711  0.3846  0.0407
 3123TIP3    H131004   5.975   2.488   2.722  0.5537  0.7750 -0.4514
 3123TIP3    H231005   6.053   2.358   2.722  0.2517  0.5901  0.1437
 3124TIP3   OH231006   4.146   5.783   1.856  0.5295  0.0078  0.4102
 3124TIP3    H131007   4.072   5.782   1.796 -0.1490  1.1536  1.1875
 3124TIP3    H231008   4.108   5.802   1.942  1.6165 -0.2989  0.9888
 3125TIP3   OH231009   6.109   0.443   2.501  0.7667  0.1605  0.4669
 3125TIP3    H131010   6.139   0.473   2.416  0.5549  2.1964  1.0738
 3125TIP3    H231011   6.163   0.491   2.564  0.0842 -0.4017  1.5114
 3126TIP3   OH231012   6.004   5.399   2.449  0.1644  0.8774  0.6778
 3126TIP3    H131013   6.044   5.413   2.363  2.7144  0.9516  1.7812
 3126TIP3    H231014   6.008   5.305   2.463 -2.1119  0.6140 -0.0521
 3127TIP3   OH231015   3.510   3.691   2.211 -0.5566  0.1633 -0.1898
 3127TIP3    H131016   3.517   3.666   2.119  0.6566  0.4708 -0.2078
 3127TIP3    H231017   3.568   3.767   2.220 -1.2174  0.5777  0.6743
 3128TIP3   OH231018   4.138   1.941   0.751  0.1084 -0.4673 -0.4266
 3128TIP3    H131019   4.141   1.906   0.662  0.4992 -2.4822  0.3195
 3128TIP3    H231020   4.227   1.972   0.767 -0.1959  0.7766 -1.0350
 3129TIP3   OH231021   3.345   5.877   7.688 -0.8543 -0.5821 -0.1759
 3129TIP3    H131022   3.286   5.849   7.758 -0.7915  0.9140  0.5183
 3129TIP3    H231023   3.381   5.960   7.718  0.2704 -0.5889 -1.3728
 3130TIP3   OH231024   1.231   2.314   2.589 -0.6674 -0.6197 -0.2266
 3130TIP3    H131025   1.192   2.390   2.546  1.0881  0.7253  0.3967
 3130TIP3    H231026   1.172   2.296   2.663 -0.3138  1.2174  0.5765
 3131TIP3   OH231027   1.976   5.963   2.369 -0.1444  0.2594 -0.0918
 3131TIP3    H131028   1.995   5.893   2.307  1.2611  0.8524 -0.3842
 3131TIP3    H231029   1.943   5.919   2.447 -0.0496 -0.6538 -0.5629
 3132TIP3   OH231030   6.436   2.549   8.408  0.6206 -0.0800 -0.7547
 3132TIP3    H131031   6.390   2.619   8.361 -1.7949 -1.5598 -0.7442
 3132TIP3    H231032   6.400   2.468   8.372  1.3842 -1.2982  1.0619
 3133TIP3   OH231033   4.070   1.610   7.345 -0.2102 -0.0082  0.1229
 3133TIP3    H131034   4.061   1.680   7.410  2.9190  1.7390 -1.0989
 3133TIP3    H231035   4.036   1.648   7.264  1.0812 -0.0194 -0.4446
 3134TIP3   OH231036   3.580   3.183   6.965  0.1029  0.2558  0.0025
 3134TIP3    H131037   3.670   3.205   6.941 -0.2364  0.8644 -0.7714
 3134TIP3    H231038   3.575   3.088   6.955  0.7037  0.2002  0.2078
 3135TIP3   OH231039   1.381   6.046   1.412 -0.1775  0.2200 -0.3772
 3135TIP3    H131040   1.436   6.076   1.484 -0.4123 -1.6447  0.6417
 3135TIP3    H231041   1.296   6.089   1.426  0.2926  1.2501 -0.5999
 3136TIP3   OH231042   2.111   2.663   2.156  0.4906 -0.0024 -0.2396
 3136TIP3    H131043   2.110   2.707   2.071 -3.6302  0.0635 -0.3529
 3136TIP3    H231044   2.145   2.575   2.138  2.7244  0.9819 -1.2284
 3137TIP3   OH231045   4.598   1.239   1.367  0.3058  0.1046 -0.8075
 3137TIP3    H131046   4.570   1.278   1.450 -1.3159 -1.7127 -0.4382
 3137TIP3    H231047   4.567   1.300   1.301 -1.1816  0.0404 -0.2004
 3138TIP3   OH231048   1.617   0.232   1.608  0.3462  0.0174  0.8605
 3138TIP3    H131049   1.527   0.235   1.576  0.4641 -1.1087  0.3970
 3138TIP3    H231050   1.665   0.290   1.549 -0.1328  0.9632  1.3699
 3139TIP3   OH231051   3.222   0.085   0.567 -0.2802  0.3104  0.0954
 3139TIP3    H131052   3.150   0.147   0.559 -0.2813  0.4088  0.8364
 3139TIP3    H231053   3.215   0.031   0.488 -1.5927 -0.1358  0.4921
 3140TIP3   OH231054   4.697   3.323   2.108 -0.4465  0.2321  0.2591
 3140TIP3    H131055   4.661   3.405   2.074  0.1333  0.6590  0.6666
 3140TIP3    H231056   4.629   3.290   2.168 -0.5711  0.5479  0.2925
 3141TIP3   OH231057   1.710   2.298   2.541 -0.2345 -0.2088 -0.2290
 3141TIP3    H131058   1.704   2.328   2.451  0.0794 -1.7220 -0.7724
 3141TIP3    H231059   1.629   2.250   2.557 -1.7409  2.5449  1.3280
 3142TIP3   OH231060   5.273   4.345   7.976 -0.1021 -0.5259  0.1483
 3142TIP3    H131061   5.294   4.389   8.059 -0.3652 -0.9830  0.4627
 3142TIP3    H231062   5.300   4.254   7.990  0.7135 -0.4028 -0.6063
 3143TIP3   OH231063   4.098   4.621   1.473  0.0082 -0.5550 -0.3497
 3143TIP3    H131064   4.168   4.683   1.451 -0.3597 -0.5306 -1.5426
 3143TIP3    H231065   4.049   4.664   1.543  0.6482 -0.1645 -0.1327
 3144TIP3   OH231066   6.122   0.923   2.154 -0.0612 -0.0665  0.0195
 3144TIP3    H131067   6.077   0.851   2.111 -0.1911 -1.1419  1.8663
 3144TIP3    H231068   6.142   0.984   2.083 -4.2540  0.4541 -0.9709
 3145TIP3   OH231069   3.229   5.861   8.114 -0.1607 -0.3185  0.0824
 3145TIP3    H131070   3.312   5.898   8.145 -0.7976  2.4558 -1.1729
 3145TIP3    H231071   3.162   5.919   8.151 -1.5890 -2.4246  0.9744
 3146TIP3   OH231072   1.980   3.258   1.676  0.2675  0.1052 -0.1451
 3146TIP3    H131073   1.996   3.340   1.723  2.1366 -0.6743  0.6786
 3146TIP3    H231074   1.947   3.198   1.742 -0.1256 -0.1028 -0.5261
 3147TIP3   OH231075   2.427   2.396   0.359  0.4979  0.8240  0.1591
 3147TIP3    H131076   2.370   2.472   0.344  0.0596  0.5403  0.3591
 3147TIP3    H231077   2.453   2.367   0.272 -2.7657 -1.3805 -0.2552
 3148TIP3   OH231078   0.722   3.506   1.931 -0.0845  0.5278 -0.1384
 3148TIP3    H131079   0.804   3.482   1.889 -0.3227  0.3072 -0.4787
 3148TIP3    H231080   0.655   3.485   1.867 -0.3115  2.1332 -0.4659
 3149TIP3   OH231081   5.596   6.437   2.558 -0.1064  0.0876 -0.3713
 3149TIP3    H131082   5.572   6.492   2.633 -1.4774 -0.1216 -0.6201
 3149TIP3    H231083   5.554   6.353   2.576 -1.3737  0.3528 -1.8418
 3150TIP3   OH231084   0.098   5.827   2.585  0.2419  0.0573 -0.1483
 3150TIP3    H131085   0.116   5.733   2.589  2.4375  0.3133 -1.9725
 3150TIP3    H231086   0.155   5.866   2.650 -0.1990  0.2073  0.1568
 3151TIP3   OH231087   6.095   2.933   7.434 -0.3873 -0.2985 -0.1178
 3151TIP3    H131088   6.171   2.950   7.491 -1.4158 -0.7061  1.4500
 3151TIP3    H231089   6.130   2.880   7.363  1.3172  1.6966 -0.8920
 3152TIP3   OH231090   1.550   5.029   8.394 -0.0728  0.1523 -0.2741
 3152TIP3    H131091   1.463   5.028   8.434  0.8436  1.1874  1.8725
 3152TIP3    H231092   1.576   5.121   8.396  1.0849 -0.1369 -0.9052
 3153TIP3   OH231093   2.013   3.846   0.527 -1.2438 -0.6026 -1.1850
 3153TIP3    H131094   1.946   3.910   0.506 -1.2035 -0.5949 -1.2890
 3153TIP3    H231095   2.062   3.835   0.446 -0.7199 -0.1330 -0.9412
 3154TIP3   OH231096   0.844   3.372   1.132 -0.1907  0.1488  0.1549
 3154TIP3    H131097   0.854   3.447   1.192 -1.0189 -0.0665  0.5813
 3154TIP3    H231098   0.769   3.396   1.077  0.6342  0.3969 -0.9008
 3155TIP3   OH231099   5.622   4.125   2.015 -0.1588  0.4947  0.0209
 3155TIP3    H131100   5.565   4.051   1.995 -0.2781  0.7738 -0.6998
 3155TIP3    H231101   5.677   4.095   2.088  0.1179 -0.4708 -0.5729
 3156TIP3   OH231102   1.793   6.375   2.744  0.5139 -0.2172 -0.5347
 3156TIP3    H131103   1.814   6.282   2.735  0.2707 -0.2800 -0.4407
 3156TIP3    H231104   1.879   6.417   2.756  0.5469 -0.5600  0.5977
 3157TIP3   OH231105   0.809   6.808   1.307 -0.0483  0.7795  0.8956
 3157TIP3    H131106   0.718   6.795   1.334 -0.3709  1.5486  0.2386
 3157TIP3    H231107   0.805   6.882   1.246  0.7919 -0.2259 -0.4216
 3158TIP3   OH231108   2.549   0.988   7.589  1.1217 -0.0843  0.2318
 3158TIP3    H131109   2.627   0.993   7.534  0.1092 -3.0782 -1.7565
 3158TIP3    H231110   2.476   0.999   7.528 -0.0314 -0.9062  1.4105
 3159TIP3   OH231111   5.404   6.155   8.376 -0.1938  0.1422 -0.2104
 3159TIP3    H131112   5.362   6.125   8.456  1.4490 -0.1348  0.5968
 3159TIP3    H231113   5.404   6.251   8.383  0.3421  0.1090  0.3609
 3160TIP3   OH231114   0.055   1.533   1.643 -0.1067 -0.3070 -0.3741
 3160TIP3    H131115  -0.010   1.472   1.609 -0.6793  0.0550  0.0598
 3160TIP3    H231116   0.060   1.603   1.579  0.7621 -0.9294 -1.0190
 3161TIP3   OH231117   4.386   6.362   0.213  0.2182 -0.0684  0.0312
 3161TIP3    H131118   4.450   6.423   0.176 -0.8590  1.3973  0.5081
 3161TIP3    H231119   4.389   6.379   0.308  0.0663 -0.9376  0.1997
 3162TIP3   OH231120   0.525   0.144   1.650  0.4086 -0.4840 -0.6222
 3162TIP3    H131121   0.486   0.197   1.580 -0.1951 -1.4629 -1.0544
 3162TIP3    H231122   0.520   0.054   1.617 -2.1690 -1.2888  1.6840
 3163TIP3   OH231123   5.467   1.064   0.704 -0.0230  0.1546 -0.0343
 3163TIP3    H131124   5.402   1.038   0.638 -1.4290  0.5346  1.1466
 3163TIP3    H231125   5.415   1.107   0.772  1.6099  1.3462  0.5012
 3164TIP3   OH231126   6.665   5.649   7.483 -0.5403  0.5936 -0.2977
 3164TIP3    H131127   6.616   5.725   7.512  0.1452  1.6907 -1.8733
 3164TIP3    H231128   6.755   5.679   7.474 -0.0879 -0.6363 -0.1146
 3165TIP3   OH231129   6.017   0.352   7.932 -0.3743 -0.2679  0.1283
 3165TIP3    H131130   5.955   0.354   8.005 -0.8254  0.1776 -0.2549
 3165TIP3    H231131   5.979   0.412   7.867 -0.4365 -1.3237 -0.8372
 3166TIP3   OH231132   1.857   2.252   0.364 -0.1618 -0.1881  0.3625
 3166TIP3    H131133   1.892   2.191   0.428  0.4122 -1.2768 -0.9319
 3166TIP3    H231134   1.804   2.198   0.306 -0.2557  0.6708 -0.3839
 3167TIP3   OH231135   4.894   2.537   0.306 -0.2667  0.1169 -0.4299
 3167TIP3    H131136   4.966   2.555   0.367 -1.3459 -0.8364  1.2157
 3167TIP3    H231137   4.828   2.603   0.326  0.0178  0.8103 -1.7289
 3168TIP3   OH231138   6.358   4.303   2.452 -0.3521  0.2889 -0.0488
 3168TIP3    H131139   6.345   4.311   2.357  2.7299  0.2684 -0.5805
 3168TIP3    H231140   6.322   4.384   2.488 -1.3738  0.3988 -1.2562
 3169TIP3   OH231141   1.924   6.321   1.573 -0.4098 -0.5567 -0.8882
 3169TIP3    H131142   1.918   6.402   1.522 -1.4832  0.8722  1.3396
 3169TIP3    H231143   1.851   6.327   1.635  0.9687 -2.0673  0.9730
 3170TIP3   OH231144   4.680   0.771   1.741  0.6291  1.0242 -0.3600
 3170TIP3    H131145   4.602   0.778   1.796  1.7629 -0.4538  1.5681
 3170TIP3    H231146   4.732   0.848   1.763  0.9292  0.6063  0.4304
 3171TIP3   OH231147   5.526   1.571   7.540  0.1606  0.3746 -0.0328
 3171TIP3    H131148   5.454   1.590   7.600 -0.8233  4.7662 -2.1415
 3171TIP3    H231149   5.602   1.613   7.580  0.0937  1.0591 -0.6067
 3172TIP3   OH231150   1.020   2.884   8.562 -0.2601 -0.1596 -0.5340
 3172TIP3    H131151   1.072   2.815   8.605 -0.4215 -0.0262 -0.1236
 3172TIP3    H231152   1.008   2.852   8.472 -1.1916 -1.1442 -0.0744
 3173TIP3   OH231153   0.370   4.178   8.689  0.4723 -0.5754 -0.1865
 3173TIP3    H131154   0.395   4.111   8.752  1.7475 -0.1109 -0.1687
 3173TIP3    H231155   0.447   4.190   8.634 -0.5161 -0.7824 -1.6927
 3174TIP3   OH231156   5.472   4.377   1.978  0.8667 -0.7070  0.3058
 3174TIP3    H131157   5.481   4.456   2.032  0.4783 -0.2871 -0.2311
 3174TIP3    H231158   5.531   4.314   2.018  0.3471 -0.5107  1.4267
 3175TIP3   OH231159   6.349   2.121   7.948 -0.4124 -0.3915 -0.1369
 3175TIP3    H131160   6.367   2.180   7.875  0.4677  1.5655  1.5528
 3175TIP3    H231161   6.407   2.151   8.018 -2.3499 -1.1203  1.9056
 3176TIP3   OH231162   2.241   6.775   2.942 -0.4581  0.4276  0.2421
 3176TIP3    H131163   2.267   6.690   2.906 -0.3326  0.4077  0.3819
 3176TIP3    H231164   2.222   6.757   3.034 -0.2233  0.5963  0.3209
 3177TIP3   OH231165   1.107   5.849   1.104 -0.5763 -0.8562  0.1000
 3177TIP3    H131166   1.197   5.817   1.110  0.3558  0.5349 -3.6502
 3177TIP3    H231167   1.116   5.944   1.096 -2.2296 -0.7769 -1.4451
 3178TIP3   OH231168   1.853   0.550   1.463  0.4128 -0.2544 -0.3658
 3178TIP3    H131169   1.938   0.581   1.495 -0.4712  2.7214 -0.6322
 3178TIP3    H231170   1.791   0.574   1.531 -0.2950 -2.2953 -0.2291
 3179TIP3   OH231171   2.665   0.327   2.389  0.1253  0.4875  0.0596
 3179TIP3    H131172   2.649   0.233   2.397  0.8297  0.3158 -0.4693
 3179TIP3    H231173   2.593   0.359   2.334 -0.4910  0.3830  0.7860
 3180TIP3   OH231174   1.897   4.470   2.830 -0.1424 -0.3159 -0.2214
 3180TIP3    H131175   1.937   4.482   2.916  2.3721  0.6483 -1.4253
 3180TIP3    H231176   1.822   4.530   2.830 -0.7978 -1.0807  1.6106
 3181TIP3   OH231177   1.791   2.576   3.192 -0.0608 -0.1189  0.0815
 3181TIP3    H131178   1.770   2.651   3.249  1.0013 -0.2719  0.7012
 3181TIP3    H231179   1.813   2.505   3.253  1.3367 -0.2214 -0.4997
 3182TIP3   OH231180   4.539   6.110   0.217  0.2037 -0.0912  0.3539
 3182TIP3    H131181   4.464   6.163   0.190 -1.1655 -1.7471  0.7563
 3182TIP3    H231182   4.610   6.173   0.228 -1.6605  1.8379  2.0369
 3183TIP3   OH231183   6.114   4.330   7.698  0.1353 -0.1543  0.1561
 3183TIP3    H131184   6.158   4.252   7.731  1.3014  0.5261  0.2549
 3183TIP3    H231185   6.068   4.301   7.620  0.2065 -1.0289  0.4347
 3184TIP3   OH231186   3.596   0.179   7.269 -0.2719 -0.3452 -0.2208
 3184TIP3    H131187   3.667   0.242   7.264 -0.8638  0.2571 -1.0969
 3184TIP3    H231188   3.517   0.232   7.279 -0.6751 -0.9871  0.0696
 3185TIP3   OH231189   2.490   5.137   7.697 -0.2386  0.0233 -0.1222
 3185TIP3    H131190   2.428   5.163   7.629 -2.1896 -1.5235  0.9486
 3185TIP3    H231191   2.543   5.068   7.655 -0.2963  0.2475 -0.5718
 3186TIP3   OH231192   1.984   0.568   0.430  0.9088  0.0180  0.4517
 3186TIP3    H131193   2.041   0.495   0.408  0.6404 -0.4519  1.2817
 3186TIP3    H231194   1.909   0.528   0.474 -2.1177  0.0988 -3.9920
 3187TIP3   OH231195   5.402   5.968   2.609  0.9330  0.0320  0.3627
 3187TIP3    H131196   5.466   5.993   2.542  0.0987 -0.0351 -0.4861
 3187TIP3    H231197   5.398   5.873   2.605  1.6018 -0.0463  1.2159
 3188TIP3   OH231198   6.843   6.443   7.453 -0.1256 -0.2226 -0.4957
 3188TIP3    H131199   6.863   6.356   7.418 -0.4900 -0.1714 -0.8494
 3188TIP3    H231200   6.797   6.426   7.535 -1.5241 -0.4094 -1.2830
 3189TIP3   OH231201   5.096   2.510   0.920  0.5216 -0.2894  0.3460
 3189TIP3    H131202   5.024   2.525   0.859 -0.6189  0.1379  1.7265
 3189TIP3    H231203   5.138   2.596   0.928 -0.7720  0.2461  1.8664
 3190TIP3   OH231204   4.529   0.345   7.910  0.3056 -0.5345 -0.1128
 3190TIP3    H131205   4.611   0.380   7.944 -0.3403 -0.1549  1.1241
 3190TIP3    H231206   4.552   0.260   7.874  1.0324 -1.0065  1.3934
 3191TIP3   OH231207   1.129   3.304   2.221  0.5158  0.2395  0.1661
 3191TIP3    H131208   1.089   3.221   2.246 -0.5126  0.5201 -0.4722
 3191TIP3    H231209   1.074   3.370   2.262  0.0534  0.6440 -1.0696
 3192TIP3   OH231210   5.454   2.094   1.548 -0.1015  0.7529  0.4398
 3192TIP3    H131211   5.508   2.173   1.552  0.0485  0.6304  0.9185
 3192TIP3    H231212   5.365   2.125   1.567 -0.0100  0.7789  0.8348
 3193TIP3   OH231213   4.714   2.378   0.810  0.4484 -0.2580  0.4790
 3193TIP3    H131214   4.785   2.434   0.778 -0.1390 -0.7373 -1.8863
 3193TIP3    H231215   4.634   2.428   0.791 -0.1153 -1.9046 -2.0305
 3194TIP3   OH231216   3.254   6.073   8.428  0.0555 -0.3155 -0.4686
 3194TIP3    H131217   3.178   6.063   8.484 -0.9192  0.3762 -1.6332
 3194TIP3    H231218   3.231   6.144   8.368  1.8209  0.2872 -0.5117
 3195TIP3   OH231219   6.886   4.279   8.018  0.3719 -0.2025  0.1432
 3195TIP3    H131220   6.926   4.209   7.967  0.9061 -0.4415  0.8639
 3195TIP3    H231221   6.935   4.279   8.101 -0.3775  0.2624  0.5989
 3196TIP3   OH231222   1.769   6.403   0.482 -0.0068 -0.6990 -0.2842
 3196TIP3    H131223   1.720   6.378   0.404  0.4577 -0.4495 -0.6607
 3196TIP3    H231224   1.828   6.472   0.452 -0.0408 -0.3819  0.3564
 3197TIP3   OH231225   1.851   3.896   2.165 -0.4047  0.6137 -0.2716
 3197TIP3    H131226   1.941   3.909   2.135 -0.2081  0.9794  0.4518
 3197TIP3    H231227   1.860   3.871   2.257 -1.0836  1.9481  0.1803
 3198TIP3   OH231228   0.621   5.671   1.523 -0.6976 -0.0254  0.2512
 3198TIP3    H131229   0.543   5.635   1.566 -0.3372  0.3797  1.2775
 3198TIP3    H231230   0.620   5.633   1.436 -0.4264 -2.4351  1.2185
 3199TIP3   OH231231   0.670   4.993   1.111  0.6514 -0.0246  0.0479
 3199TIP3    H131232   0.648   5.067   1.055 -3.9633 -0.2634  1.1352
 3199TIP3    H231233   0.666   4.917   1.053  1.6304  0.2078 -0.3400
 3200TIP3   OH231234   1.223   1.723   0.460 -0.4187 -0.3071 -0.2366
 3200TIP3    H131235   1.255   1.697   0.373 -1.5368  0.5994 -0.9455
 3200TIP3    H231236   1.274   1.669   0.521 -0.2471 -1.6236 -1.4807
 3201TIP3   OH231237   5.806   6.731   2.439 -0.1822  0.3025  0.3441
 3201TIP3    H131238   5.738   6.758   2.501  0.0449  0.5204  0.4991
 3201TIP3    H231239   5.794   6.637   2.430  0.2889  0.1292  1.3384
 3202TIP3   OH231240   5.553   0.588   2.372  0.5461 -0.3154  0.4615
 3202TIP3    H131241   5.606   0.511   2.353 -0.3167 -0.4198 -1.8045
 3202TIP3    H231242   5.537   0.629   2.287 -0.4396  1.4272  1.4065
 3203TIP3   OH231243   6.294   4.107   8.652 -0.3542  0.4677 -0.1762
 3203TIP3    H131244   6.332   4.077   8.735 -1.3227 -1.4295 -0.3666
 3203TIP3    H231245   6.256   4.192   8.672  0.5952  0.6487  0.9778
 3204TIP3   OH231246   3.243   3.674   0.905 -0.2367 -0.0157  0.3223
 3204TIP3    H131247   3.252   3.757   0.858 -2.1386 -0.3822 -0.8292
 3204TIP3    H231248   3.148   3.665   0.919 -0.0022 -1.6187  1.1076
 3205TIP3   OH231249   4.628   1.826   1.491  0.4420  0.0682  0.3324
 3205TIP3    H131250   4.674   1.742   1.497  0.2958 -0.2775 -2.2647
 3205TIP3    H231251   4.536   1.803   1.487  0.3503  0.4004  0.5001
 3206TIP3   OH231252   4.734   4.085   1.958 -0.1941  0.2120  0.1666
 3206TIP3    H131253   4.806   4.085   2.021 -1.3651 -1.3628  1.5764
 3206TIP3    H231254   4.768   4.135   1.884  2.7771 -1.4365  0.2729
 3207TIP3   OH231255   5.289   0.493   2.024 -0.3728 -0.2262 -0.1478
 3207TIP3    H131256   5.285   0.402   2.055  0.0955 -0.2916 -0.2827
 3207TIP3    H231257   5.223   0.496   1.954  2.1571 -1.5159 -2.8327
 3208TIP3   OH231258   4.987   3.508   8.274 -0.1471  0.1231  0.0797
 3208TIP3    H131259   4.925   3.545   8.337 -0.2361 -0.7494  0.5187
 3208TIP3    H231260   4.932   3.460   8.212  0.0204  0.0421 -0.0070
 3209TIP3   OH231261   3.999   4.966   1.555 -0.4845 -0.2439 -0.1665
 3209TIP3    H131262   4.009   4.895   1.618 -0.2725  0.6053  0.7818
 3209TIP3    H231263   4.085   5.008   1.553 -0.8784  0.5962  0.0480
 3210TIP3   OH231264   3.588   2.795   0.228  0.0354  1.1644  0.0377
 3210TIP3    H131265   3.631   2.824   0.148  2.3511 -0.3483  0.6340
 3210TIP3    H231266   3.647   2.822   0.298  0.1705 -1.1554  0.8963
 3211TIP3   OH231267   3.351   4.605   2.884 -0.1397  0.0341  0.4305
 3211TIP3    H131268   3.258   4.589   2.894  0.0220 -0.4975  1.1560
 3211TIP3    H231269   3.357   4.692   2.843 -0.9697 -0.4861 -0.8365
 3212TIP3   OH231270   2.130   0.256   1.333 -0.1574  0.6262  0.6345
 3212TIP3    H131271   2.137   0.352   1.335 -0.7619  0.6797  0.3916
 3212TIP3    H231272   2.117   0.235   1.241 -1.8900  0.4634  0.8884
 3213TIP3   OH231273   5.626   1.271   2.649 -0.0290 -0.5570  0.2192
 3213TIP3    H131274   5.550   1.214   2.662 -0.4324  0.3115  2.1831
 3213TIP3    H231275   5.590   1.360   2.652  0.9993 -0.1355  0.6940
 3214TIP3   OH231276   3.147   2.472   1.388  0.2722 -0.0819 -0.1028
 3214TIP3    H131277   3.239   2.447   1.390  0.2998  0.0744  0.8906
 3214TIP3    H231278   3.130   2.508   1.475 -0.3777  1.1265 -0.7079
 3215TIP3   OH231279   2.996   5.300   8.445 -0.3551  0.0709 -0.9839
 3215TIP3    H131280   2.931   5.360   8.481 -1.3879 -0.2383 -2.2417
 3215TIP3    H231281   3.079   5.330   8.481 -0.7905  2.4249 -1.7643
 3216TIP3   OH231282   1.935   0.795   0.281  0.7395  0.1103  0.4055
 3216TIP3    H131283   1.952   0.704   0.307 -1.6107 -0.8083 -0.9139
 3216TIP3    H231284   1.966   0.848   0.354  1.0331 -1.8459  1.7651
 3217TIP3   OH231285   2.839   2.631   8.427  0.3953 -0.3738 -0.5864
 3217TIP3    H131286   2.884   2.709   8.393 -0.9255  0.6591 -0.0185
 3217TIP3    H231287   2.767   2.617   8.366 -2.2995  1.7722  1.8237
 3218TIP3   OH231288   4.347   4.088   8.689 -0.3605 -0.4971  0.4183
 3218TIP3    H131289   4.256   4.103   8.717 -1.1234  0.2497 -2.1950
 3218TIP3    H231290   4.339   4.027   8.616  1.2361 -0.1333 -0.0847
 3219TIP3   OH231291   4.774   5.423   1.882  0.2367  0.2216  0.2832
 3219TIP3    H131292   4.860   5.465   1.880 -0.1800  1.0522 -1.0761
 3219TIP3    H231293   4.792   5.332   1.909  1.7201 -0.0297 -1.4140
 3220TIP3   OH231294   3.834   1.000   8.001  0.1693  0.1469 -0.1632
 3220TIP3    H131295   3.910   0.946   7.979 -0.0869 -0.0976 -0.4482
 3220TIP3    H231296   3.866   1.059   8.070  0.1418 -1.1606  1.0067
 3221TIP3   OH231297   3.158   6.318   0.284 -0.3188  0.2422  0.3739
 3221TIP3    H131298   3.210   6.238   0.293  0.9218  1.0491  0.5352
 3221TIP3    H231299   3.116   6.329   0.370  0.3809  0.3532  0.7066
 3222TIP3   OH231300   6.072   5.943   1.455  0.1530  0.3198  0.1355
 3222TIP3    H131301   6.111   5.856   1.465 -0.6316 -0.0187  0.2750
 3222TIP3    H231302   6.139   5.993   1.407  0.5942 -0.3642  0.0173
 3223TIP3   OH231303   2.729   0.045   2.347  0.2310 -0.5839 -0.1484
 3223TIP3    H131304   2.810   0.085   2.313 -0.1002  0.9080  0.7202
 3223TIP3    H231305   2.733  -0.046   2.316  1.5253 -0.1675 -1.3562
 3224TIP3   OH231306   2.455   1.003   2.286  0.0070 -0.0382 -0.6477
 3224TIP3    H131307   2.542   1.014   2.249 -0.3414  0.0512 -1.4529
 3224TIP3    H231308   2.445   1.077   2.346  1.9441 -2.0333  2.4225
 3225TIP3   OH231309   0.010   5.167   0.102 -0.3788  0.0284 -0.1456
 3225TIP3    H131310   0.012   5.086   0.050 -1.1294  0.2085 -0.4769
 3225TIP3    H231311   0.054   5.232   0.048 -1.2829  0.2504 -0.6406
 3226TIP3   OH231312   3.580   4.776   1.443  0.2624 -0.1628 -0.0989
 3226TIP3    H131313   3.619   4.855   1.479 -0.7582  1.1454 -1.7046
 3226TIP3    H231314   3.655   4.723   1.415  1.0000  1.4728 -1.4313
 3227TIP3   OH231315   0.143   4.919   8.226 -0.1808 -0.0988 -0.1350
 3227TIP3    H131316   0.161   4.827   8.247 -2.7630 -0.4237  1.0430
 3227TIP3    H231317   0.115   4.917   8.135 -1.0787 -0.6379  0.1442
 3228TIP3   OH231318   2.598   5.732   3.026  0.3698  0.1087 -0.7385
 3228TIP3    H131319   2.620   5.657   3.082 -1.3029 -0.7254 -1.1348
 3228TIP3    H231320   2.569   5.800   3.086  0.1712 -0.2029 -0.4811
 3229TIP3   OH231321   3.278   6.804   2.451  0.2583  0.5343  0.0056
 3229TIP3    H131322   3.294   6.725   2.503  0.0863  0.1962 -0.4455
 3229TIP3    H231323   3.263   6.873   2.516  2.7099  0.7208  0.4476
 3230TIP3   OH231324   5.658   3.241   0.865  0.3336 -0.4773  0.5836
 3230TIP3    H131325   5.633   3.153   0.894  0.2087 -0.4605  0.5287
 3230TIP3    H231326   5.607   3.255   0.786  0.6170 -0.4934  0.3975
 3231TIP3   OH231327   4.309   1.166   0.392  0.1552 -0.3503 -0.0422
 3231TIP3    H131328   4.213   1.162   0.402  0.2072 -4.3233  0.1954
 3231TIP3    H231329   4.323   1.148   0.299  0.7441  1.5700 -0.3795
 3232TIP3   OH231330   0.513   3.794   1.534  0.1970 -0.0044 -0.1103
 3232TIP3    H131331   0.603   3.764   1.521  0.3870  0.0209  1.0411
 3232TIP3    H231332   0.509   3.878   1.489  0.5529 -0.3114 -0.7287
 3233TIP3   OH231333   2.298   0.349   2.929  0.3881  0.2327 -0.7365
 3233TIP3    H131334   2.318   0.346   3.023 -0.3107  0.1497 -0.5883
 3233TIP3    H231335   2.333   0.266   2.896  0.2360  0.0547 -0.4641
 3234TIP3   OH231336   3.640   3.113   7.241  0.0347  0.1655 -0.0912
 3234TIP3    H131337   3.571   3.051   7.221 -1.1604  1.9817 -1.9318
 3234TIP3    H231338   3.711   3.091   7.181  0.4182 -0.5849  0.6023
 3235TIP3   OH231339   2.718   6.243   8.548  0.3751 -0.6101  0.2444
 3235TIP3    H131340   2.794   6.264   8.603  1.6853 -0.9926 -1.3447
 3235TIP3    H231341   2.704   6.322   8.496 -0.6130 -0.3856  0.8369
 3236TIP3   OH231342   3.243   1.447   3.362 -0.3903  0.8323 -0.3438
 3236TIP3    H131343   3.327   1.490   3.378 -0.5067  0.7994  0.3676
 3236TIP3    H231344   3.197   1.450   3.446 -1.1273  0.9000 -0.7376
 3237TIP3   OH231345   6.170   0.814   1.108  0.4972 -0.5703  0.0383
 3237TIP3    H131346   6.209   0.898   1.084 -0.1843 -0.0816  0.5923
 3237TIP3    H231347   6.091   0.838   1.157  0.1744 -1.5353  0.0033
 3238TIP3   OH231348   6.292   4.875   2.245  0.2040 -0.5871  0.3028
 3238TIP3    H131349   6.342   4.869   2.163  0.2258 -0.1337  0.2787
 3238TIP3    H231350   6.255   4.963   2.243  1.1097 -0.1598  1.2986
 3239TIP3   OH231351   2.688   4.167   0.147 -0.9112  0.1912 -0.3814
 3239TIP3    H131352   2.776   4.202   0.136 -0.5590 -0.9407 -1.3432
 3239TIP3    H231353   2.632   4.244   0.155  0.4037  1.0018  2.8311
 3240TIP3   OH231354   6.403   4.012   0.186  0.1458 -0.1125 -0.5349
 3240TIP3    H131355   6.440   3.941   0.135  1.0398 -0.3393  0.4032
 3240TIP3    H231356   6.395   3.977   0.275  2.2576  1.4649  0.3645
 3241TIP3   OH231357   5.219   3.369   2.363 -0.1889 -0.0515  0.2755
 3241TIP3    H131358   5.167   3.290   2.378 -2.3878  0.8373 -1.9902
 3241TIP3    H231359   5.155   3.436   2.338  1.7294  2.1376  0.8512
 3242TIP3   OH231360   5.873   4.049   1.612  0.4616  0.3461 -0.1171
 3242TIP3    H131361   5.863   4.125   1.555 -1.3395 -0.6554 -1.2574
 3242TIP3    H231362   5.833   4.075   1.695 -0.5571  0.5161 -0.6479
 3243TIP3   OH231363   0.066   2.122   2.223  0.2632  0.2431 -0.0329
 3243TIP3    H131364   0.127   2.171   2.278  0.0330  2.9640 -2.0371
 3243TIP3    H231365   0.097   2.135   2.134 -2.0977  0.1025 -0.9581
 3244TIP3   OH231366   1.169   0.174   8.682  0.5295 -0.8893 -0.0831
 3244TIP3    H131367   1.197   0.083   8.676 -1.5561 -1.8072  2.0823
 3244TIP3    H231368   1.073   0.169   8.685  0.3527  1.4101 -0.1675
 3245TIP3   OH231369   6.617   1.064   1.258  0.1152 -0.4922 -0.1102
 3245TIP3    H131370   6.559   0.995   1.289  0.0030 -0.3883 -0.0855
 3245TIP3    H231371   6.615   1.130   1.328 -0.4856 -0.0557 -0.5353
 3246TIP3   OH231372   4.644   5.256   2.185 -0.7516  0.1776  0.1433
 3246TIP3    H131373   4.648   5.309   2.265  3.2126 -0.0454  0.3223
 3246TIP3    H231374   4.658   5.166   2.215 -1.1027 -0.1488 -0.6426
 3247TIP3   OH231375   6.377   1.665   2.341  0.0094 -0.2544  0.1739
 3247TIP3    H131376   6.359   1.631   2.429  0.3280 -1.6730 -0.2843
 3247TIP3    H231377   6.464   1.703   2.347 -0.3630  0.5365  0.7071
 3248TIP3   OH231378   1.552   5.040   2.349 -0.2750 -0.4918 -0.6456
 3248TIP3    H131379   1.512   5.124   2.327 -0.0753 -0.1987  0.0858
 3248TIP3    H231380   1.562   5.042   2.444  0.6197 -0.9420 -0.7196
 3249TIP3   OH231381   5.278   6.055   1.863  0.3229  0.6037  0.7678
 3249TIP3    H131382   5.229   6.135   1.883 -1.0413 -0.1992  0.7804
 3249TIP3    H231383   5.272   6.003   1.943 -0.9087 -0.5216 -0.0104
 3250TIP3   OH231384   2.519   3.221   7.037  0.7021  0.2180 -0.2882
 3250TIP3    H131385   2.565   3.271   7.105 -0.8531  1.5797 -0.1846
 3250TIP3    H231386   2.484   3.145   7.083  1.0506  0.2655  0.0658
 3251TIP3   OH231387   0.692   0.696   7.842 -0.3447  0.0077 -0.2568
 3251TIP3    H131388   0.786   0.708   7.856 -0.3544  0.1127 -0.2809
 3251TIP3    H231389   0.682   0.692   7.747 -0.1730 -1.5524 -0.2363
 3252TIP3   OH231390   5.527   2.595   1.117 -0.1543 -0.4738 -0.1546
 3252TIP3    H131391   5.434   2.577   1.135  0.5782 -2.5528  1.9610
 3252TIP3    H231392   5.553   2.655   1.187  0.3645 -0.8115 -0.0536
 3253TIP3   OH231393   3.443   0.187   0.270  0.0246  0.0102  0.0065
 3253TIP3    H131394   3.446   0.106   0.320 -0.2686  0.3054  0.5156
 3253TIP3    H231395   3.420   0.254   0.335  0.9834  0.6140 -0.2543
 3254TIP3   OH231396   1.060   5.342   1.216 -0.1283  0.7657 -0.3133
 3254TIP3    H131397   1.005   5.392   1.277 -3.9378 -0.8278 -2.1156
 3254TIP3    H231398   1.083   5.263   1.265  0.9116  1.5792  0.5608
 3255TIP3   OH231399   3.007   3.432   2.544  0.4433  0.3020 -0.1033
 3255TIP3    H131400   3.010   3.483   2.463  2.3262 -1.0515 -0.9579
 3255TIP3    H231401   3.022   3.341   2.516  0.4514 -0.2878  1.6891
 3256TIP3   OH231402   6.379   5.263   3.956 -0.3981  0.0159 -0.0890
 3256TIP3    H131403   6.363   5.298   3.869 -0.8073 -0.2469 -0.1218
 3256TIP3    H231404   6.467   5.225   3.951 -0.1179  0.6734 -0.1651
 3257TIP3   OH231405   5.351   2.522   1.760 -0.0941 -0.2535 -0.5726
 3257TIP3    H131406   5.360   2.486   1.848 -2.2534  0.7245  0.1111
 3257TIP3    H231407   5.294   2.460   1.715 -2.3412  1.2380  0.0508
 3258TIP3   OH231408   1.788   6.076   2.698  0.6621  0.3891 -0.0344
 3258TIP3    H131409   1.718   6.040   2.753  1.4106  0.8491  1.2773
 3258TIP3    H231410   1.857   6.009   2.699  1.7326  1.4261  1.7659
 3259TIP3   OH231411   1.661   0.211   7.933  0.0597  0.1958 -0.4053
 3259TIP3    H131412   1.696   0.237   7.848  0.5537  3.0589  0.5376
 3259TIP3    H231413   1.738   0.188   7.985 -0.1648 -0.7157 -0.4650
 3260TIP3   OH231414   2.590   3.193   7.558  0.0347  0.2829 -0.2236
 3260TIP3    H131415   2.537   3.207   7.480  0.8284  0.3331 -0.7566
 3260TIP3    H231416   2.680   3.210   7.531  0.7653 -2.7844 -0.1632
 3261TIP3   OH231417   5.040   6.288   8.685 -0.4774  0.1568  0.1534
 3261TIP3    H131418   5.049   6.312   8.593 -1.8906 -0.6977 -0.2401
 3261TIP3    H231419   4.984   6.210   8.684  0.8759 -0.8925  1.6209
 3262TIP3   OH231420   1.520   3.972   8.346 -0.1475  0.4481 -0.2122
 3262TIP3    H131421   1.597   3.919   8.366 -1.3444 -1.9145 -1.4482
 3262TIP3    H231422   1.457   3.950   8.415 -0.2151  1.2572 -0.0139
 3263TIP3   OH231423   2.297   5.281   1.134 -0.4086 -0.3258  0.6986
 3263TIP3    H131424   2.213   5.255   1.097  0.6044  0.8224 -2.8144
 3263TIP3    H231425   2.290   5.376   1.146  0.9291  0.1365 -1.5838
 3264TIP3   OH231426   5.788   4.407   2.808  0.4854  0.4715  0.3369
 3264TIP3    H131427   5.699   4.380   2.829  0.6309  0.4756  0.9577
 3264TIP3    H231428   5.838   4.391   2.888  0.6938  2.0688  0.5479
 3265TIP3   OH231429   4.612   4.400   3.082 -0.3591 -0.1227 -0.3950
 3265TIP3    H131430   4.670   4.463   3.039 -1.7398  1.4286 -0.0578
 3265TIP3    H231431   4.668   4.324   3.098  1.5414  1.2196 -0.2887
 3266TIP3   OH231432   6.843   6.578   1.202 -0.3230 -0.2692  0.6641
 3266TIP3    H131433   6.784   6.615   1.137 -0.3962 -0.6172  0.5273
 3266TIP3    H231434   6.901   6.650   1.226 -0.9514  0.1454  0.9739
 3267TIP3   OH231435   1.938   3.678   8.544 -0.4916  0.4593  0.5765
 3267TIP3    H131436   1.982   3.661   8.627  0.2153  1.4175  0.4240
 3267TIP3    H231437   1.939   3.594   8.498  0.7736  0.3366  0.7796
 3268TIP3   OH231438   5.590   1.953   7.937  0.4772  0.1368 -0.5619
 3268TIP3    H131439   5.585   1.998   8.021  0.0720 -0.3056 -0.3420
 3268TIP3    H231440   5.537   2.006   7.878 -2.7462 -1.6620  0.4550
 3269TIP3   OH231441   0.372   6.774   8.375  0.9687  0.2136  0.3057
 3269TIP3    H131442   0.417   6.846   8.330  0.5868  0.5458  0.4531
 3269TIP3    H231443   0.312   6.738   8.309  1.2010 -0.0114  0.2139
 3270TIP3   OH231444   5.849   6.267   1.137 -0.0024  0.4354 -0.3799
 3270TIP3    H131445   5.904   6.345   1.141  0.9058 -0.0339 -2.4505
 3270TIP3    H231446   5.879   6.220   1.059 -1.4945 -1.2607 -0.0076
 3271TIP3   OH231447   4.192   1.269   7.663 -0.5871  0.3058  0.3579
 3271TIP3    H131448   4.160   1.179   7.672  0.5016  0.0542  2.2510
 3271TIP3    H231449   4.121   1.323   7.697 -0.1364 -0.0712  1.9894
 3272TIP3   OH231450   1.271   2.349   1.375 -0.6073 -0.4393  0.3600
 3272TIP3    H131451   1.349   2.320   1.327 -1.0111 -0.9672  0.0031
 3272TIP3    H231452   1.215   2.389   1.308 -2.0586 -2.9598 -0.0755
 3273TIP3   OH231453   0.096   0.577   1.972 -0.3070 -0.4923  0.7387
 3273TIP3    H131454   0.006   0.557   1.997 -1.2392 -1.0545 -2.6003
 3273TIP3    H231455   0.138   0.492   1.963 -0.3535 -0.4000 -0.5598
 3274TIP3   OH231456   1.647   5.299   8.456  0.6781 -0.2683  0.5795
 3274TIP3    H131457   1.564   5.344   8.473  1.3118  1.9256 -1.6494
 3274TIP3    H231458   1.714   5.366   8.469  1.7082 -0.5793 -2.3783
 3275TIP3   OH231459   3.900   0.208   8.134 -0.0256 -0.1324 -0.3017
 3275TIP3    H131460   3.889   0.113   8.125 -0.0632 -0.1786  0.2127
 3275TIP3    H231461   3.883   0.242   8.046 -2.1390 -0.4019 -0.0440
 3276TIP3   OH231462   0.231   2.981   0.530 -0.0716 -0.2349 -0.1472
 3276TIP3    H131463   0.305   2.921   0.540 -0.3282 -0.7790 -1.2307
 3276TIP3    H231464   0.215   2.982   0.435 -0.2335  1.3713 -0.1258
 3277TIP3   OH231465   5.637   0.219   7.725  0.1670 -0.2566  0.5694
 3277TIP3    H131466   5.658   0.297   7.777  0.7524  0.6992 -1.0510
 3277TIP3    H231467   5.699   0.221   7.653 -1.4199 -0.8717 -0.8716
 3278TIP3   OH231468   0.277   3.011   1.502  0.1672  0.2998 -0.0290
 3278TIP3    H131469   0.282   2.920   1.529 -0.4226  0.5467  0.9578
 3278TIP3    H231470   0.235   3.009   1.416  1.0451 -0.4205 -0.4551
 3279TIP3   OH231471   0.680   4.368   2.508  0.1656  0.3420  0.1398
 3279TIP3    H131472   0.760   4.381   2.558 -0.2847  1.1799  0.6690
 3279TIP3    H231473   0.670   4.447   2.456  0.5398 -0.4529 -1.1815
 3280TIP3   OH231474   0.295   0.536   0.501 -0.1880  0.0077 -1.1288
 3280TIP3    H131475   0.357   0.561   0.432 -1.4811  1.4437 -1.8468
 3280TIP3    H231476   0.321   0.589   0.576  0.7192 -0.9491 -0.7531
 3281TIP3   OH231477   0.813   1.262   0.065 -0.5770  0.6783  0.6562
 3281TIP3    H131478   0.842   1.321   0.135  0.1105  0.0503  0.9119
 3281TIP3    H231479   0.724   1.238   0.090  0.4065 -1.3283  2.5786
 3282TIP3   OH231480   2.176   1.548   2.896 -0.2151  0.0682 -0.0767
 3282TIP3    H131481   2.236   1.622   2.898 -0.9342  0.6854 -0.7257
 3282TIP3    H231482   2.225   1.477   2.937  0.8487  0.6234 -0.3367
 3283TIP3   OH231483   3.428   6.047   1.080 -0.0535  0.3242 -0.0538
 3283TIP3    H131484   3.475   6.120   1.120  0.4491  0.6327 -1.1664
 3283TIP3    H231485   3.350   6.087   1.041 -0.0566  0.1908 -0.1875
 3284TIP3   OH231486   6.099   5.580   1.553  0.5981 -0.4424 -0.1002
 3284TIP3    H131487   6.103   5.600   1.647  1.0550 -1.0501  0.0191
 3284TIP3    H231488   6.188   5.553   1.531  0.5965  0.1305 -0.8156
 3285TIP3   OH231489   5.680   5.887   1.156  0.2297 -0.2499  0.4131
 3285TIP3    H131490   5.631   5.910   1.235  0.5534  0.6638  0.3686
 3285TIP3    H231491   5.772   5.890   1.183  0.2847 -1.8183  0.4634
 3286TIP3   OH231492   6.307   3.571   8.668  0.2198  0.3792 -0.0118
 3286TIP3    H131493   6.254   3.493   8.683  1.9463 -0.7784  0.4196
 3286TIP3    H231494   6.246   3.644   8.678 -1.1498 -0.8470  1.0700
 3287TIP3   OH231495   0.882   0.152   7.610 -0.1815  0.4240  0.0967
 3287TIP3    H131496   0.968   0.120   7.638 -0.0845  1.0403  0.5292
 3287TIP3    H231497   0.902   0.226   7.553 -0.4268  0.7655  0.4476
 3288TIP3   OH231498   2.452   0.783   7.324 -0.4504 -0.5778  0.8282
 3288TIP3    H131499   2.403   0.858   7.357 -3.9868 -2.9330  1.6121
 3288TIP3    H231500   2.409   0.761   7.242 -0.2080 -2.2626  1.1085
 3289TIP3   OH231501   0.376   1.703   1.573 -0.4188  0.5574 -0.4727
 3289TIP3    H131502   0.304   1.652   1.534  0.3093 -1.8333  1.0697
 3289TIP3    H231503   0.450   1.642   1.574  1.4951  2.7062 -1.3467
 3290TIP3   OH231504   0.146   3.513   2.145 -0.5324 -0.1258  1.0541
 3290TIP3    H131505   0.138   3.559   2.061  0.3454 -1.1634  0.3779
 3290TIP3    H231506   0.218   3.556   2.190  0.4515 -0.9446  0.3165
 3291TIP3   OH231507   5.637   4.591   0.091 -0.1873  0.0100 -0.1325
 3291TIP3    H131508   5.662   4.681   0.114  1.3900 -0.0009 -1.5641
 3291TIP3    H231509   5.616   4.595  -0.002  1.7038 -1.3907 -0.6814
 3292TIP3   OH231510   4.906   0.083   1.093  0.0663  0.1521  0.4995
 3292TIP3    H131511   4.894   0.167   1.137  1.1259  0.3944  0.3607
 3292TIP3    H231512   4.857   0.020   1.146 -2.1977  1.0991 -0.3395
 3293TIP3   OH231513   3.940   2.463   7.857 -0.1183 -0.9921 -0.4865
 3293TIP3    H131514   3.949   2.487   7.765 -0.0955  0.5537 -0.1072
 3293TIP3    H231515   4.030   2.455   7.889 -0.0422  1.1103  0.0071
 3294TIP3   OH231516   3.085   2.014   0.706  0.5857  0.2219  0.1300
 3294TIP3    H131517   3.111   2.103   0.680 -1.6090  0.9476  0.2057
 3294TIP3    H231518   3.077   2.019   0.802  1.1877 -0.2970  0.2171
 3295TIP3   OH231519   6.795   4.134   0.912 -0.0585 -0.9994  0.3904
 3295TIP3    H131520   6.736   4.164   0.843  1.0147 -1.2376 -0.6552
 3295TIP3    H231521   6.821   4.215   0.957  2.0560 -0.3636 -1.7938
 3296TIP3   OH231522   0.509   3.027   2.472  0.7911 -0.3686  0.0875
 3296TIP3    H131523   0.525   2.998   2.562  1.3394  0.4582  0.2724
 3296TIP3    H231524   0.414   3.032   2.465  0.7441 -0.4709  0.6147
 3297TIP3   OH231525   2.045   2.430   0.184 -0.2498  0.2912 -0.2817
 3297TIP3    H131526   1.975   2.379   0.225 -0.0128  0.8703  0.8629
 3297TIP3    H231527   2.060   2.503   0.243  0.0943  1.1778 -1.4178
 3298TIP3   OH231528   5.845   1.363   8.394 -0.3804  0.3374  0.0513
 3298TIP3    H131529   5.790   1.389   8.319  0.7219  0.1001 -0.8671
 3298TIP3    H231530   5.914   1.310   8.355  0.6705  0.8623  1.1522
 3299TIP3   OH231531   3.226   3.029   1.412  0.0655 -0.4121 -0.4318
 3299TIP3    H131532   3.172   2.976   1.354 -0.3696  0.4836 -0.8562
 3299TIP3    H231533   3.165   3.093   1.450  0.5834 -0.2061  0.0632
 3300TIP3   OH231534   4.872   4.394   7.565 -0.0241  0.8550  0.0696
 3300TIP3    H131535   4.838   4.467   7.616 -2.5256 -0.3824  0.3727
 3300TIP3    H231536   4.916   4.338   7.629  1.2982  1.7103 -0.0535
 3301TIP3   OH231537   3.647   0.358   8.548  0.2891  0.1275  0.2658
 3301TIP3    H131538   3.619   0.398   8.631 -3.3626 -0.6070 -0.4403
 3301TIP3    H231539   3.695   0.428   8.503 -0.2347  1.5418  1.7917
 3302TIP3   OH231540   5.002   4.031   8.009 -0.0885 -0.1990 -0.3374
 3302TIP3    H131541   4.992   4.085   8.088  2.0468 -3.2811  2.3203
 3302TIP3    H231542   4.924   3.975   8.009  0.0762 -0.4288 -0.2121
 3303TIP3   OH231543   3.696   1.811   1.765 -0.1270 -0.1618  0.2019
 3303TIP3    H131544   3.732   1.723   1.779  0.0421 -0.4837 -1.9029
 3303TIP3    H231545   3.603   1.796   1.748 -0.4397  0.2577  1.4296
 3304TIP3   OH231546   5.219   4.849   8.342 -0.2338 -0.0282  0.7903
 3304TIP3    H131547   5.185   4.784   8.404 -0.0122 -0.9842 -0.0542
 3304TIP3    H231548   5.151   4.857   8.276  0.0771 -0.0015  0.4719
 3305TIP3   OH231549   3.336   1.233   7.854 -0.4252  0.6278  0.1062
 3305TIP3    H131550   3.322   1.148   7.812 -0.0097  0.9223 -0.6544
 3305TIP3    H231551   3.290   1.295   7.797  0.6966  1.1143 -0.2983
 3306TIP3   OH231552   2.067   2.607   0.409  0.1079  0.5456  0.4787
 3306TIP3    H131553   1.993   2.666   0.425 -0.5377  0.2644 -1.2329
 3306TIP3    H231554   2.054   2.535   0.471 -0.2376  1.1785  1.1652
 3307TIP3   OH231555   4.808   1.620   0.429  0.5542 -0.0471  0.4841
 3307TIP3    H131556   4.771   1.532   0.423 -1.6323  0.8045  0.7727
 3307TIP3    H231557   4.755   1.673   0.371  1.7187  1.1395  0.4668
 3308TIP3   OH231558   5.877   5.760   2.467 -0.3055  0.0070  0.0473
 3308TIP3    H131559   5.878   5.850   2.501 -0.5309 -1.2442  3.8371
 3308TIP3    H231560   5.954   5.755   2.411  0.4174  2.2496  0.7227
 3309TIP3   OH231561   4.496   0.147   1.292 -0.0691  0.0908 -0.8659
 3309TIP3    H131562   4.481   0.102   1.208  0.0947 -0.8495 -0.4033
 3309TIP3    H231563   4.547   0.085   1.343  0.2403  0.8604 -0.2370
 3310TIP3   OH231564   0.263   1.496   8.290 -0.3669  0.4072  0.2741
 3310TIP3    H131565   0.247   1.590   8.276 -0.1332  0.6528  1.5492
 3310TIP3    H231566   0.274   1.488   8.384  0.4376 -0.7903  0.0884
 3311TIP3   OH231567   3.999   1.475   0.751  0.0675 -0.0883 -0.3028
 3311TIP3    H131568   4.071   1.433   0.798 -1.3332 -0.7195  1.3559
 3311TIP3    H231569   3.999   1.565   0.783  0.5178  0.0971 -0.8077
 3312TIP3   OH231570   4.526   2.185   7.686  0.1504 -0.5242 -0.0867
 3312TIP3    H131571   4.493   2.216   7.771 -1.6217  0.3056 -1.0267
 3312TIP3    H231572   4.560   2.263   7.643  0.2633 -0.7798 -0.4648
 3313TIP3   OH231573   5.257   0.879   1.274 -0.7964  0.2645  0.1687
 3313TIP3    H131574   5.272   0.875   1.180  0.2827  0.7232  0.3081
 3313TIP3    H231575   5.209   0.961   1.287  0.7583  1.2037  0.2060
 3314TIP3   OH231576   4.644   0.708   2.931 -0.4766  0.1485 -0.4732
 3314TIP3    H131577   4.694   0.757   2.866 -2.4496  0.2345 -2.0497
 3314TIP3    H231578   4.612   0.776   2.992  1.1440  0.1013  0.4786
 3315TIP3   OH231579   6.829   2.506   1.577  0.5645 -0.6000  0.4003
 3315TIP3    H131580   6.842   2.424   1.529 -0.8657 -0.2081 -0.7315
 3315TIP3    H231581   6.750   2.491   1.628 -0.2687  0.3572 -0.5514
 3316TIP3   OH231582   4.439   4.380   8.617 -0.0179 -0.2497  0.7368
 3316TIP3    H131583   4.383   4.401   8.693  0.0846  0.2842  0.6679
 3316TIP3    H231584   4.515   4.337   8.655  0.8174  1.4951  1.1228
 3317TIP3   OH231585   5.373   3.240   0.424  0.3441  0.3254  0.2341
 3317TIP3    H131586   5.393   3.329   0.395 -1.6890  0.8348  0.2333
 3317TIP3    H231587   5.418   3.183   0.361 -0.7010  1.3937 -1.5556
 3318TIP3   OH231588   5.305   6.237   2.434 -0.3226  0.0316 -0.1007
 3318TIP3    H131589   5.288   6.261   2.343 -0.2729 -2.0569 -0.7040
 3318TIP3    H231590   5.383   6.181   2.430 -1.0621 -1.1391  1.0572
 3319TIP3   OH231591   5.718   0.352   2.368  0.4131 -0.5464 -0.4645
 3319TIP3    H131592   5.662   0.275   2.361 -0.2567  0.0022 -1.4833
 3319TIP3    H231593   5.792   0.324   2.421  0.1601 -1.8791 -0.7834
 3320TIP3   OH231594   6.445   3.788   0.460  0.2135  0.6308 -0.0624
 3320TIP3    H131595   6.405   3.729   0.525 -0.7248  0.4080 -0.8247
 3320TIP3    H231596   6.526   3.744   0.436  0.3302  0.4723  0.5932
 3321TIP3   OH231597   0.553   1.845   2.213 -0.3625 -0.4183 -0.1764
 3321TIP3    H131598   0.619   1.905   2.248  0.8419 -1.8290  0.0915
 3321TIP3    H231599   0.471   1.873   2.253  0.6975 -0.9605  2.5725
 3322TIP3   OH231600   0.040   5.607   3.115  0.3966  0.9615  0.1111
 3322TIP3    H131601   0.076   5.571   3.195  1.5046  0.3249 -0.6551
 3322TIP3    H231602   0.014   5.696   3.138  0.4344  0.6904  1.2394
 3323TIP3   OH231603   1.185   3.143   8.512  0.3617 -0.2659  0.6252
 3323TIP3    H131604   1.160   3.072   8.571 -0.5903 -0.2266  0.2787
 3323TIP3    H231605   1.142   3.122   8.429 -0.3229  0.9482  0.6485
 3324TIP3   OH231606   3.542   5.141   2.089  0.2474  0.3317 -0.1380
 3324TIP3    H131607   3.587   5.099   2.016 -1.2862  1.3016 -1.6984
 3324TIP3    H231608   3.494   5.070   2.132 -0.7956  0.1320 -1.5782
 3325TIP3   OH231609   2.833   4.131   2.291  0.5738  0.0584  0.4229
 3325TIP3    H131610   2.795   4.128   2.378  1.3124  1.1654  0.7959
 3325TIP3    H231611   2.758   4.126   2.231  0.0385 -0.2638  1.1115
 3326TIP3   OH231612   0.626   3.707   8.601  0.2524 -0.4459 -0.1078
 3326TIP3    H131613   0.565   3.639   8.627  1.0556 -1.2480 -0.2648
 3326TIP3    H231614   0.699   3.660   8.560  1.1131  0.4542  0.3369
 3327TIP3   OH231615   4.552   6.149   1.994 -0.3093 -0.4225 -0.0487
 3327TIP3    H131616   4.491   6.136   1.921 -1.8205  1.7318  0.7160
 3327TIP3    H231617   4.527   6.234   2.031  2.3563 -0.0594  1.1365
 3328TIP3   OH231618   6.345   5.450   1.813  0.6456  0.3600  0.9769
 3328TIP3    H131619   6.341   5.380   1.879 -0.0592  0.4311  1.0141
 3328TIP3    H231620   6.438   5.471   1.807  1.0841 -1.6622 -0.1832
 3329TIP3   OH231621   0.778   2.675   8.490 -0.2952  0.6999 -0.0804
 3329TIP3    H131622   0.812   2.617   8.559  0.4911 -0.1711 -1.1518
 3329TIP3    H231623   0.833   2.753   8.495 -1.0016  1.1476  1.0167
 3330TIP3   OH231624   2.004   4.924   2.615  0.2246 -0.1987 -0.1373
 3330TIP3    H131625   2.033   4.844   2.660  1.8287  0.3122 -0.1887
 3330TIP3    H231626   1.957   4.893   2.538  0.6138 -1.0956 -0.0262
 3331TIP3   OH231627   4.115   5.684   1.451 -0.1327  0.1669  0.1174
 3331TIP3    H131628   4.135   5.590   1.457  1.6663  0.6273  3.9242
 3331TIP3    H231629   4.189   5.721   1.403  0.6237 -0.0640  1.0655
 3332TIP3   OH231630   5.098   6.870   2.002  0.7106  0.2692 -0.3260
 3332TIP3    H131631   5.099   6.776   1.988 -0.6613  0.4343 -1.7999
 3332TIP3    H231632   5.013   6.887   2.043  0.4810  0.9739 -1.0729
 3333TIP3   OH231633   4.470   2.704   7.360  0.0582  0.3599  0.4896
 3333TIP3    H131634   4.449   2.768   7.291 -1.7647  0.6466  1.2462
 3333TIP3    H231635   4.432   2.622   7.328 -0.3791  0.3887  0.9171
 3334TIP3   OH231636   0.932   4.941   2.883  0.4099  0.6142 -0.1448
 3334TIP3    H131637   0.923   4.909   2.972  1.1625  0.3378 -0.1663
 3334TIP3    H231638   0.841   4.952   2.853 -0.0206 -3.1632 -0.7238
 3335TIP3   OH231639   6.386   3.405   1.703  0.4341  0.2214  0.5928
 3335TIP3    H131640   6.298   3.414   1.741  0.4384 -0.9711  0.9165
 3335TIP3    H231641   6.437   3.363   1.772  0.3826 -2.2656 -0.7581
 3336TIP3   OH231642   6.544   0.712   0.312  0.2726 -0.3159  0.3345
 3336TIP3    H131643   6.476   0.710   0.379 -0.2841 -0.8546 -0.2323
 3336TIP3    H231644   6.568   0.621   0.299  0.3235 -0.2200 -0.2587
 3337TIP3   OH231645   4.814   6.640   8.277  0.0872 -0.3844  0.6371
 3337TIP3    H131646   4.864   6.558   8.286  1.7388  0.4829 -0.1820
 3337TIP3    H231647   4.734   6.614   8.232  0.7731 -1.4968  0.0022
 3338TIP3   OH231648   2.549   3.251   1.209  0.4120  0.4469  0.2409
 3338TIP3    H131649   2.535   3.224   1.118  0.8120  1.2412 -0.0658
 3338TIP3    H231650   2.496   3.190   1.261  1.0814 -0.7398 -0.4385
 3339TIP3   OH231651   1.497   3.036   8.512  0.1363  0.6298  0.3815
 3339TIP3    H131652   1.586   3.002   8.522  1.1284  3.3219  1.5393
 3339TIP3    H231653   1.484   3.091   8.588 -1.0753  3.2852 -1.6004
 3340TIP3   OH231654   0.087   3.920   1.312 -0.6777  0.2100  0.0001
 3340TIP3    H131655   0.165   3.974   1.298 -1.0621  0.7969  0.0911
 3340TIP3    H231656   0.061   3.894   1.224  0.5668 -1.3673  0.0660
 3341TIP3   OH231657   2.693   0.556   2.846 -0.1035  0.3953  0.1753
 3341TIP3    H131658   2.769   0.581   2.794  0.9589  0.3027  1.6302
 3341TIP3    H231659   2.649   0.490   2.793  1.1924 -0.0315 -0.4085
 3342TIP3   OH231660   1.936   1.708   8.618 -0.1149 -0.2730  0.3735
 3342TIP3    H131661   1.980   1.677   8.539 -0.4813  1.0415 -0.3756
 3342TIP3    H231662   1.968   1.798   8.629 -0.6659 -0.1795  1.2854
 3343TIP3   OH231663   6.420   6.527   1.930  0.0374  0.2796 -0.4002
 3343TIP3    H131664   6.354   6.574   1.878 -0.8007 -2.0353 -1.5613
 3343TIP3    H231665   6.456   6.462   1.870  0.1029 -1.5292  1.4754
 3344TIP3   OH231666   5.881   1.790   1.965  0.0834 -0.1834  0.1290
 3344TIP3    H131667   5.895   1.730   1.892 -1.3085  1.0671 -1.2238
 3344TIP3    H231668   5.841   1.736   2.033 -0.6262 -0.9206 -0.8489
 3345TIP3   OH231669   2.005   4.158   8.230 -0.1985 -0.3237  0.1624
 3345TIP3    H131670   1.964   4.078   8.266 -0.3314 -0.7822 -0.9688
 3345TIP3    H231671   2.029   4.208   8.308 -2.7827 -0.0938  0.9359
 3346TIP3   OH231672   0.474   0.343   2.331  0.4370  0.0988  0.2026
 3346TIP3    H131673   0.521   0.295   2.400 -0.8255 -1.9827 -0.3043
 3346TIP3    H231674   0.529   0.332   2.254  0.5832  0.2390  0.2848
 3347TIP3   OH231675   6.085   2.221   0.570  0.1336 -0.1660  0.1989
 3347TIP3    H131676   6.101   2.214   0.664 -0.9715  0.7347  0.4854
 3347TIP3    H231677   6.172   2.219   0.530  0.5925 -1.0813  1.1870
 3348TIP3   OH231678   5.649   3.469   0.278  0.3455  0.0378 -0.8083
 3348TIP3    H131679   5.555   3.461   0.260  0.3637 -1.5869 -0.3219
 3348TIP3    H231680   5.662   3.561   0.301 -0.9942  0.4440 -1.5866
 3349TIP3   OH231681   5.313   0.197   6.961 -1.0342 -0.7041  0.2138
 3349TIP3    H131682   5.353   0.161   7.040 -0.8553  0.8542  0.8710
 3349TIP3    H231683   5.279   0.283   6.988  0.2433  0.4988 -1.6939
 3350TIP3   OH231684   6.802   3.051   2.484  0.7088 -0.3133 -0.1167
 3350TIP3    H131685   6.768   2.964   2.507  2.2683 -1.2968 -1.3097
 3350TIP3    H231686   6.884   3.059   2.533 -0.3210  1.3527  1.4769
 3351TIP3   OH231687   2.264   2.137   2.027 -0.3140  0.2710 -0.5189
 3351TIP3    H131688   2.192   2.122   1.966 -1.0860  1.0609  0.1691
 3351TIP3    H231689   2.342   2.139   1.972 -1.2672  4.7066 -2.1691
 3352TIP3   OH231690   5.298   2.547   7.733 -0.3274 -0.1628 -0.0506
 3352TIP3    H131691   5.251   2.470   7.702  2.7739 -1.3926 -2.2786
 3352TIP3    H231692   5.313   2.599   7.654 -0.4331  1.6513  1.0580
 3353TIP3   OH231693   0.300   5.145   7.074 -0.8930 -0.4093 -0.2442
 3353TIP3    H131694   0.306   5.062   7.121 -0.9482 -0.8538 -0.9959
 3353TIP3    H231695   0.218   5.138   7.024 -1.0355  0.2118 -0.0991
 3354TIP3   OH231696   3.594   3.758   0.254 -0.0862  0.2429  0.6157
 3354TIP3    H131697   3.658   3.719   0.195  0.9886  0.4505  1.5964
 3354TIP3    H231698   3.606   3.853   0.244  0.7220  0.2813  1.7782
 3355TIP3   OH231699   4.070   2.694   0.684  0.0558  0.9983 -0.0301
 3355TIP3    H131700   4.012   2.754   0.731  0.8031  0.6482  1.4003
 3355TIP3    H231701   4.086   2.737   0.600 -0.9104  1.8909  0.2172
 3356TIP3   OH231702   3.753   5.383   0.574 -0.6676  0.3461 -0.0515
 3356TIP3    H131703   3.769   5.301   0.619  1.8319  1.2283  0.8347
 3356TIP3    H231704   3.658   5.394   0.578 -0.9178 -1.7115  1.1698
 3357TIP3   OH231705   2.058   5.466   0.224 -0.4406  0.1092  0.3710
 3357TIP3    H131706   2.035   5.553   0.255 -0.8612  0.6799 -1.4148
 3357TIP3    H231707   1.975   5.428   0.195  0.0152  0.0071 -0.9019
 3358TIP3   OH231708   6.160   2.380   0.304 -0.4546 -0.6762 -0.8237
 3358TIP3    H131709   6.221   2.316   0.341 -0.1869 -0.1960 -0.4331
 3358TIP3    H231710   6.157   2.451   0.368  0.3713  0.3831 -1.9299
 3359TIP3   OH231711   5.148   0.427   7.811  0.2054 -0.4134  0.1845
 3359TIP3    H131712   5.106   0.487   7.872  0.3983  1.0630 -1.0727
 3359TIP3    H231713   5.191   0.362   7.866 -1.4983 -0.4391  1.5529
 3360TIP3   OH231714   0.165   1.430   0.776 -0.1500 -0.2062 -0.1066
 3360TIP3    H131715   0.096   1.483   0.737 -0.8309 -0.4343  0.7463
 3360TIP3    H231716   0.124   1.391   0.854  1.1178  0.1854  0.8001
 3361TIP3   OH231717   0.105   6.348   8.614  0.0167  0.1186  0.5784
 3361TIP3    H131718   0.190   6.328   8.575  0.8226 -3.3560  3.5506
 3361TIP3    H231719   0.123   6.413   8.682 -0.4199  1.8961 -0.9104
 3362TIP3   OH231720   5.362   6.344   2.119  0.2218  0.2017 -0.1865
 3362TIP3    H131721   5.436   6.395   2.153 -0.2457  0.9591 -0.2725
 3362TIP3    H231722   5.402   6.278   2.062  1.0098 -0.9752  1.6576
 3363TIP3   OH231723   0.428   3.958   0.616 -0.3479  0.3578  0.1292
 3363TIP3    H131724   0.334   3.965   0.636 -0.3982 -0.0454  0.0421
 3363TIP3    H231725   0.469   3.940   0.700 -0.5445 -1.2059 -0.0813
 3364TIP3   OH231726   0.631   3.431   0.954 -0.0124 -0.2570  0.0617
 3364TIP3    H131727   0.577   3.431   1.033  0.3955  2.0390  0.4207
 3364TIP3    H231728   0.569   3.450   0.883 -0.1185 -0.5489  0.0767
 3365TIP3   OH231729   5.655   6.178   2.175  0.2880 -0.2882  0.1539
 3365TIP3    H131730   5.749   6.193   2.183  0.2912 -0.6040  0.7511
 3365TIP3    H231731   5.645   6.132   2.091  0.8836 -1.9865  0.9753
 3366TIP3   OH231732   1.304   2.599   7.960 -0.3873  0.0973  0.4175
 3366TIP3    H131733   1.279   2.631   7.873 -0.4242 -0.3802  0.2508
 3366TIP3    H231734   1.370   2.662   7.990  0.3083 -0.2452 -0.3506
 3367TIP3   OH231735   6.295   2.481   0.106  0.3637  0.2466  0.4736
 3367TIP3    H131736   6.224   2.505   0.045 -0.6362 -0.0861  1.4697
 3367TIP3    H231737   6.250   2.440   0.179  1.7901 -2.6488 -0.1225
 3368TIP3   OH231738   1.138   2.034   1.820 -0.3869 -0.1093  0.5425
 3368TIP3    H131739   1.146   1.940   1.806  0.7266  0.2265 -1.4917
 3368TIP3    H231740   1.147   2.045   1.914  1.0962 -1.9046  0.6801
 3369TIP3   OH231741   3.372   6.086   2.190  0.5433 -0.5569  0.0094
 3369TIP3    H131742   3.398   6.116   2.103 -0.3227 -0.8192 -0.3497
 3369TIP3    H231743   3.278   6.100   2.193  0.5286 -0.7834  0.8184
 3370TIP3   OH231744   1.737   1.224   8.237 -0.3814  0.5094  0.5580
 3370TIP3    H131745   1.675   1.264   8.177  0.1718 -0.7972 -0.9438
 3370TIP3    H231746   1.808   1.288   8.244 -0.1997  0.4671 -0.6449
 3371TIP3   OH231747   3.630   6.688   7.172 -0.0517  0.3998 -0.1289
 3371TIP3    H131748   3.698   6.729   7.120 -0.1523  0.3411 -0.3087
 3371TIP3    H231749   3.581   6.761   7.210 -1.0047  0.4813 -1.4490
 3372TIP3   OH231750   2.066   3.392   0.893  0.7548 -0.3157 -0.2027
 3372TIP3    H131751   2.067   3.484   0.919  0.8902 -1.0898  2.9183
 3372TIP3    H231752   2.149   3.380   0.846  1.4178  0.8504  0.6165
 3373TIP3   OH231753   5.199   3.132   7.474  0.6193 -0.0547 -0.0173
 3373TIP3    H131754   5.121   3.090   7.439 -0.2956  0.7346  0.9732
 3373TIP3    H231755   5.258   3.139   7.400  0.4970 -2.3229 -0.3771
 3374TIP3   OH231756   5.220   4.547   2.511  0.0454 -0.3035  0.5164
 3374TIP3    H131757   5.203   4.559   2.604 -0.4645 -0.9470  0.5136
 3374TIP3    H231758   5.258   4.630   2.482 -2.0220  0.8055  0.7945
 3375TIP3   OH231759   5.995   4.047   7.549  0.7242 -0.1793 -0.2226
 3375TIP3    H131760   5.920   4.094   7.586  1.2203  1.1458 -0.8373
 3375TIP3    H231761   5.958   3.994   7.479 -0.0236 -1.7071  1.2404
 3376TIP3   OH231762   2.510   0.518   7.402  0.1273 -0.0784  0.2788
 3376TIP3    H131763   2.527   0.608   7.374 -0.5435 -0.1226 -0.2682
 3376TIP3    H231764   2.558   0.510   7.485 -1.3920  1.4117  1.3768
 3377TIP3   OH231765   5.729   1.366   7.608  0.0175 -0.1356  0.3503
 3377TIP3    H131766   5.713   1.273   7.589  0.2302 -0.0076 -0.5028
 3377TIP3    H231767   5.649   1.410   7.581  0.1757  0.0076  0.1152
 3378TIP3   OH231768   3.040   1.409   0.162 -0.9537  0.7741 -0.0977
 3378TIP3    H131769   3.102   1.370   0.224  0.5192 -0.2849 -2.1152
 3378TIP3    H231770   3.096   1.452   0.097 -2.2034 -1.0578 -2.5366
 3379TIP3   OH231771   2.030   6.279   2.191 -0.2957  0.0814  0.2760
 3379TIP3    H131772   1.936   6.271   2.173 -0.1718 -0.0173 -0.3422
 3379TIP3    H231773   2.069   6.304   2.107  0.4573 -1.5650  0.0990
 3380TIP3   OH231774   1.640   3.205   0.631  0.0433 -0.1792 -0.7226
 3380TIP3    H131775   1.620   3.283   0.682  0.8937  0.2622 -1.0571
 3380TIP3    H231776   1.636   3.133   0.694 -1.4439  0.0197 -0.5501
 3381TIP3   OH231777   3.927   4.193   0.707  0.4892 -0.9763 -0.6594
 3381TIP3    H131778   3.991   4.144   0.759 -1.0748  0.1318  2.6026
 3381TIP3    H231779   3.947   4.285   0.724 -1.5441 -0.5938  0.0438
 3382TIP3   OH231780   5.427   4.864   0.254 -0.2238 -0.1576 -0.3145
 3382TIP3    H131781   5.388   4.947   0.282  0.0851 -0.1953  0.2180
 3382TIP3    H231782   5.482   4.888   0.179  0.3322  0.2166  0.2036
 3383TIP3   OH231783   5.269   5.122   7.079 -0.3070  0.3032  0.8223
 3383TIP3    H131784   5.362   5.136   7.065  0.1404 -3.1005 -0.7828
 3383TIP3    H231785   5.264   5.037   7.122 -2.6303 -1.0869 -1.8501
 3384TIP3   OH231786   1.642   2.658   7.666  0.6314 -0.0429 -0.0578
 3384TIP3    H131787   1.624   2.612   7.584 -0.5975 -1.3185  0.8831
 3384TIP3    H231788   1.566   2.716   7.678  0.0762 -0.9260  0.8666
 3385TIP3   OH231789   0.841   1.325   0.380  0.2138  1.4972  0.1263
 3385TIP3    H131790   0.932   1.310   0.354  0.7800  2.0027  1.7299
 3385TIP3    H231791   0.802   1.237   0.380  0.6471  1.2888 -0.6935
 3386TIP3   OH231792   6.394   3.342   2.566 -0.1065 -0.2462  0.2492
 3386TIP3    H131793   6.365   3.349   2.657 -0.1530 -3.8547  0.6743
 3386TIP3    H231794   6.487   3.317   2.572 -0.0079 -0.1577 -0.7039
 3387TIP3   OH231795   5.287   4.638   0.211  0.1231  0.4828  0.7827
 3387TIP3    H131796   5.315   4.581   0.282 -1.8879  1.2573  2.3311
 3387TIP3    H231797   5.339   4.718   0.222 -0.1265  0.5718  1.4012
 3388TIP3   OH231798   5.328   0.720   0.292  0.0582 -0.0077 -0.2408
 3388TIP3    H131799   5.297   0.778   0.222  0.3097 -0.0768 -0.4114
 3388TIP3    H231800   5.369   0.647   0.246  2.4569  1.1108 -0.0702
 3389TIP3   OH231801   1.530   1.606   2.582 -0.0237  0.6557  0.0377
 3389TIP3    H131802   1.453   1.661   2.596 -1.3843 -1.3438  0.8385
 3389TIP3    H231803   1.542   1.560   2.665  0.0897 -1.3715 -1.0450
 3390TIP3   OH231804   4.567   1.404   1.120 -0.1041  0.3749  0.1753
 3390TIP3    H131805   4.477   1.388   1.094  1.1235 -1.5506 -3.6273
 3390TIP3    H231806   4.574   1.499   1.126 -2.3329  0.5564  0.6458
 3391TIP3   OH231807   3.601   6.242   3.195 -0.4823 -0.0265  0.0615
 3391TIP3    H131808   3.584   6.329   3.230  0.1906  0.1290  0.0008
 3391TIP3    H231809   3.693   6.225   3.215 -0.4290 -0.4511 -0.5148
 3392TIP3   OH231810   5.778   2.801   0.251 -0.1568 -0.5424  0.1464
 3392TIP3    H131811   5.863   2.755   0.246 -0.7654 -1.6703 -0.1715
 3392TIP3    H231812   5.768   2.842   0.165 -0.9280 -2.2795 -0.6407
 3393TIP3   OH231813   2.907   6.787   0.568  0.9895  0.1175  0.0127
 3393TIP3    H131814   2.970   6.732   0.521  0.6706 -0.3580  0.1324
 3393TIP3    H231815   2.837   6.727   0.594 -0.9222  1.0910 -2.4896
 3394TIP3   OH231816   6.138   2.215   2.181  0.0330 -0.5158  0.0041
 3394TIP3    H131817   6.161   2.219   2.088 -1.3668 -2.6741 -0.4916
 3394TIP3    H231818   6.109   2.304   2.202  2.8441  0.7290 -0.8601
 3395TIP3   OH231819   5.068   1.084   8.199 -0.2748  0.0854 -0.1242
 3395TIP3    H131820   5.061   1.028   8.121 -0.2495  2.0080 -1.5897
 3395TIP3    H231821   5.121   1.158   8.170  1.2446  0.0139  2.2889
 3396TIP3   OH231822   5.998   1.405   0.149 -0.3392 -0.6877 -0.1663
 3396TIP3    H131823   5.946   1.458   0.089  0.7410  0.7029  0.0769
 3396TIP3    H231824   6.052   1.350   0.092  0.5253  0.4734 -0.5061
 3397TIP3   OH231825   6.283   0.350   1.653  0.2930  0.2454  0.1127
 3397TIP3    H131826   6.308   0.403   1.728  0.0456  0.9029 -0.2579
 3397TIP3    H231827   6.209   0.397   1.614 -0.9616 -1.1744  0.6674
 3398TIP3   OH231828   4.753   3.886   0.526 -0.1890  0.0619 -0.4763
 3398TIP3    H131829   4.689   3.953   0.504 -0.1955 -0.0009 -0.6514
 3398TIP3    H231830   4.705   3.803   0.517  0.0740 -0.0190 -1.1777
 3399TIP3   OH231831   1.866   3.708   1.899 -0.5605 -0.0149 -0.4770
 3399TIP3    H131832   1.842   3.749   1.816  0.0003  0.4578 -0.4061
 3399TIP3    H231833   1.853   3.777   1.964 -1.7019 -0.5954 -0.0642
 3400TIP3   OH231834   6.783   6.026   2.860 -0.3286  0.2556  0.0744
 3400TIP3    H131835   6.724   5.953   2.880  0.2586  0.1120  1.4092
 3400TIP3    H231836   6.868   5.998   2.893 -0.2483  1.8199  1.3135
 3401TIP3   OH231837   2.283   6.821   2.583 -0.0877  0.0678  0.0123
 3401TIP3    H131838   2.310   6.854   2.669  2.1450 -0.8563 -0.2785
 3401TIP3    H231839   2.345   6.860   2.522 -0.7432 -0.4531 -1.0113
 3402TIP3   OH231840   0.558   2.078   8.389 -0.7872 -0.1827  0.2174
 3402TIP3    H131841   0.581   2.049   8.301  0.5280  0.3277  0.3618
 3402TIP3    H231842   0.476   2.125   8.378 -1.1974 -1.0458 -0.5532
 3403TIP3   OH231843   1.886   0.368   8.493 -0.1314 -0.4394 -0.2095
 3403TIP3    H131844   1.976   0.380   8.463 -0.6774  0.8813 -1.4285
 3403TIP3    H231845   1.877   0.430   8.565  0.5414 -2.1060  1.3786
 3404TIP3   OH231846   0.269   4.384   7.857 -0.0473 -0.0652  0.5424
 3404TIP3    H131847   0.179   4.364   7.830 -0.3915  0.6573  1.1397
 3404TIP3    H231848   0.322   4.355   7.783 -0.9638  1.8804 -0.9810
 3405TIP3   OH231849   6.065   5.907   3.127 -0.7468  0.1814 -0.0562
 3405TIP3    H131850   6.015   5.989   3.121 -0.0388  0.7466  1.3452
 3405TIP3    H231851   6.150   5.934   3.161 -0.0738 -1.0020 -0.7413
 3406TIP3   OH231852   0.081   6.491   0.535  0.2343 -0.0418 -0.0176
 3406TIP3    H131853   0.004   6.451   0.574 -0.1878  1.1087  0.3524
 3406TIP3    H231854   0.072   6.584   0.553  1.1863  0.2374 -0.8748
 3407TIP3   OH231855   0.068   6.062   8.638  0.1088 -0.3498  0.4937
 3407TIP3    H131856   0.062   6.158   8.638  2.2554  0.1954 -5.1849
 3407TIP3    H231857   0.155   6.043   8.672 -0.3779 -0.4117  1.7755
 3408TIP3   OH231858   5.997   1.388   7.530 -1.1184 -0.6528 -0.1327
 3408TIP3    H131859   6.049   1.343   7.597 -0.3363  0.8830  0.3319
 3408TIP3    H231860   5.916   1.412   7.575 -1.7615 -1.9973 -0.5251
 3409TIP3   OH231861   2.207   2.360   2.670  0.2016  0.6499  0.2057
 3409TIP3    H131862   2.179   2.271   2.647 -1.4178  0.1928  3.3417
 3409TIP3    H231863   2.139   2.416   2.632 -0.2150  0.2814  0.3864
 3410TIP3   OH231864   1.507   3.679   1.943 -0.3903 -0.1528 -0.1040
 3410TIP3    H131865   1.501   3.614   1.873 -1.2991 -1.1838  0.9008
 3410TIP3    H231866   1.417   3.703   1.962 -0.0693  2.0504 -0.9896
 3411TIP3   OH231867   6.121   0.691   3.425  0.1124  0.0242  0.7254
 3411TIP3    H131868   6.102   0.623   3.490 -0.9956  0.5364  0.9707
 3411TIP3    H231869   6.196   0.657   3.375  0.1359 -0.9703  1.4093
 3412TIP3   OH231870   1.092   4.711   8.370 -0.4806 -0.0913 -0.3192
 3412TIP3    H131871   1.115   4.707   8.462  1.9605 -0.4345 -0.8754
 3412TIP3    H231872   1.119   4.798   8.341  0.8715 -0.7443 -1.1544
 3413TIP3   OH231873   3.824   0.652   7.949  0.1489  0.4554  0.2183
 3413TIP3    H131874   3.907   0.605   7.938 -0.8255 -1.4223  0.4644
 3413TIP3    H231875   3.784   0.649   7.862  0.8520  2.4914 -0.2298
 3414TIP3   OH231876   0.940   0.419   2.514 -0.4742 -0.2964 -0.1399
 3414TIP3    H131877   0.915   0.336   2.473  1.3074 -0.8402 -0.1920
 3414TIP3    H231878   1.000   0.394   2.584 -1.4599  0.8299  1.1514
 3415TIP3   OH231879   0.800   4.877   0.432 -0.1631  0.0289 -0.0684
 3415TIP3    H131880   0.889   4.891   0.398  0.5572 -0.7190  1.4396
 3415TIP3    H231881   0.812   4.865   0.526 -1.6885 -1.7434 -0.0578
 3416TIP3   OH231882   0.160   0.190   1.809 -0.1562 -0.5847 -0.4591
 3416TIP3    H131883   0.151   0.114   1.867  0.8034  0.0365  0.5475
 3416TIP3    H231884   0.201   0.257   1.864  2.1824 -0.4397 -2.2439
 3417TIP3   OH231885   2.858   2.886   0.207  0.5554 -0.3236 -0.0959
 3417TIP3    H131886   2.930   2.939   0.239 -0.1419  1.3639 -1.2111
 3417TIP3    H231887   2.785   2.905   0.266  0.2357  0.1570 -0.6392
 3418TIP3   OH231888   6.777   0.801   0.135 -0.0681  0.6678 -0.2434
 3418TIP3    H131889   6.800   0.712   0.104  0.2502  0.9262 -0.7758
 3418TIP3    H231890   6.710   0.787   0.201 -0.0536  0.0264 -0.3563
 3419TIP3   OH231891   5.722   3.769   2.052  0.2326 -0.3644 -0.2772
 3419TIP3    H131892   5.734   3.703   2.120  0.4449 -0.7567 -0.6928
 3419TIP3    H231893   5.770   3.845   2.085  1.8900 -1.1336 -0.7992
 3420TIP3   OH231894   5.843   4.457   7.783  0.2609  0.2483  0.2986
 3420TIP3    H131895   5.847   4.416   7.697 -0.1391  2.0984 -0.6281
 3420TIP3    H231896   5.930   4.442   7.821  0.8606  0.5036 -0.9392
 3421TIP3   OH231897   6.671   6.855   0.184  0.0409  0.0076 -0.0947
 3421TIP3    H131898   6.605   6.872   0.117 -0.5224 -1.8075 -0.0535
 3421TIP3    H231899   6.621   6.829   0.261  0.7559  0.2913  0.4808
 3422TIP3   OH231900   5.991   5.784   7.453  0.1173 -0.3063  0.4954
 3422TIP3    H131901   5.988   5.855   7.518  0.0990  0.8633 -0.7497
 3422TIP3    H231902   6.081   5.785   7.421  0.6251 -2.0532  1.7217
 3423TIP3   OH231903   4.620   5.998   1.687 -0.2068  0.2706  0.4936
 3423TIP3    H131904   4.617   5.915   1.640 -1.7793  0.8122 -0.4571
 3423TIP3    H231905   4.546   5.994   1.748 -1.5370  1.6795 -0.9248
 3424TIP3   OH231906   5.542   6.507   2.284  0.9566 -0.6064  0.8336
 3424TIP3    H131907   5.609   6.487   2.349  2.0345 -0.8889 -0.3238
 3424TIP3    H231908   5.473   6.551   2.334  2.9026  1.6007  1.7689
 3425TIP3   OH231909   2.877   0.446   3.428 -0.4240  0.2715  0.5040
 3425TIP3    H131910   2.844   0.366   3.467 -0.6565  0.1818  0.1314
 3425TIP3    H231911   2.865   0.433   3.334  1.1708  0.0040  0.3146
 3426TIP3   OH231912   2.252   2.598   0.731  0.3993 -0.5989 -0.1251
 3426TIP3    H131913   2.168   2.553   0.730  1.4353 -2.9965  3.0925
 3426TIP3    H231914   2.250   2.651   0.810  1.1933  0.9713 -1.1175
 3427TIP3   OH231915   5.117   1.950   8.389  0.6592  0.0388  0.3843
 3427TIP3    H131916   5.105   1.880   8.325  0.4204 -0.2024  0.6892
 3427TIP3    H231917   5.110   1.906   8.474  0.7400  0.3949  0.5770
 3428TIP3   OH231918   2.350   5.573   0.420 -0.0754 -0.3886 -0.1627
 3428TIP3    H131919   2.289   5.596   0.349  1.2936  0.6292 -1.0770
 3428TIP3    H231920   2.332   5.638   0.488  0.5060  0.4365 -0.7681
 3429TIP3   OH231921   1.033   4.402   1.951 -0.3084 -0.3651 -0.0937
 3429TIP3    H131922   1.088   4.422   1.875  0.7952 -0.6748  0.5916
 3429TIP3    H231923   1.085   4.431   2.026 -2.0597  1.4192  0.5006
 3430TIP3   OH231924   0.783   3.869   1.277 -0.3062  0.3687 -0.1497
 3430TIP3    H131925   0.832   3.951   1.266 -0.4765  0.2489 -2.3840
 3430TIP3    H231926   0.699   3.886   1.234 -0.8230 -0.5975  0.4473
 3431TIP3   OH231927   4.761   6.331   8.276 -0.5202 -0.2703  0.4594
 3431TIP3    H131928   4.673   6.365   8.289  0.2301  1.3640  1.5154
 3431TIP3    H231929   4.750   6.236   8.273 -2.0511 -0.2455  3.0318
 3432TIP3   OH231930   1.316   4.782   1.822  0.0443  0.1171 -0.1774
 3432TIP3    H131931   1.369   4.861   1.830  0.3660 -0.0712 -0.4126
 3432TIP3    H231932   1.257   4.785   1.897  3.0135 -1.6128  2.5368
 3433TIP3   OH231933   6.686   1.650   1.092 -0.4271 -0.0944 -0.4449
 3433TIP3    H131934   6.723   1.593   1.160 -1.8298 -0.2800  0.2058
 3433TIP3    H231935   6.613   1.599   1.056  0.6953 -0.2804 -2.5989
 3434TIP3   OH231936   0.455   0.014   2.864 -0.3213  0.0900  0.3699
 3434TIP3    H131937   0.509   0.009   2.785 -0.0404  1.7051  0.4251
 3434TIP3    H231938   0.368  -0.012   2.835 -0.1876  0.5088 -0.4449
 3435TIP3   OH231939   4.431   0.047   1.042 -0.0166  0.0949  0.4132
 3435TIP3    H131940   4.500   0.099   1.001  0.7238 -0.1654  1.3206
 3435TIP3    H231941   4.453  -0.044   1.019 -0.3863  0.0500  0.2237
 3436TIP3   OH231942   0.548   4.261   8.450  0.2104  0.0785 -0.4057
 3436TIP3    H131943   0.573   4.289   8.362  0.6437  0.2316 -0.2369
 3436TIP3    H231944   0.625   4.279   8.504 -0.5450  1.3919  0.3094
 3437TIP3   OH231945   3.494   0.933   0.791  0.2722 -0.5940  0.4645
 3437TIP3    H131946   3.531   1.021   0.794  1.0305 -0.8864  0.0630
 3437TIP3    H231947   3.518   0.893   0.874 -0.8031 -0.1468  1.0023
 3438TIP3   OH231948   2.671   3.009   2.122 -0.2341  0.2574 -0.1935
 3438TIP3    H131949   2.638   2.966   2.200 -2.4779 -0.4881 -1.4423
 3438TIP3    H231950   2.674   2.939   2.056  0.6242  1.0702 -1.0470
 3439TIP3   OH231951   5.741   0.876   2.417  0.2364  0.0740 -0.5655
 3439TIP3    H131952   5.657   0.875   2.462  0.4355  0.1367 -0.1887
 3439TIP3    H231953   5.806   0.884   2.487  0.5469  0.1986 -0.8637
 3440TIP3   OH231954   3.796   4.424   1.943  0.0209  0.2962 -0.3287
 3440TIP3    H131955   3.762   4.348   1.990  1.0043 -1.1382 -1.8459
 3440TIP3    H231956   3.741   4.430   1.865  0.5014  0.6265 -0.6393
 3441TIP3   OH231957   5.951   4.256   2.278  0.0725  0.0513  0.3611
 3441TIP3    H131958   6.031   4.292   2.315  0.7076 -0.1505 -0.7740
 3441TIP3    H231959   5.936   4.307   2.199 -1.0270  0.2103  0.6612
 3442TIP3   OH231960   2.235   4.400   0.338  1.0906 -0.4861  0.8382
 3442TIP3    H131961   2.172   4.339   0.379  1.4335 -1.7801 -0.4865
 3442TIP3    H231962   2.244   4.368   0.248  2.6793  0.4467  0.6378
 3443TIP3   OH231963   2.671   5.324   1.537 -0.0548  0.4375  0.1240
 3443TIP3    H131964   2.741   5.260   1.542 -1.0489 -0.6209  1.1381
 3443TIP3    H231965   2.650   5.330   1.444  1.1412  0.5439 -0.1636
 3444TIP3   OH231966   6.618   1.773   2.281 -0.2199 -1.0722  0.3531
 3444TIP3    H131967   6.676   1.848   2.292 -1.4740 -0.1514  0.9373
 3444TIP3    H231968   6.582   1.783   2.193 -0.4154 -0.9713  0.4449
 3445TIP3   OH231969   0.043   3.222   1.574  0.6001 -0.1315 -0.0327
 3445TIP3    H131970   0.059   3.247   1.483  1.7346 -0.7335 -0.0235
 3445TIP3    H231971   0.008   3.133   1.570  1.0399 -0.3173  0.1246
 3446TIP3   OH231972   5.973   6.715   7.608  0.2234 -0.9189  0.3708
 3446TIP3    H131973   5.904   6.768   7.650 -0.2907 -2.7632  2.0169
 3446TIP3    H231974   5.962   6.732   7.515 -1.0454  0.5091  0.7198
 3447TIP3   OH231975   4.075   4.872   1.972 -0.3124  0.2214 -0.1017
 3447TIP3    H131976   4.054   4.815   1.898 -1.7136 -3.2201  2.6224
 3447TIP3    H231977   4.165   4.900   1.956 -0.0060 -1.7032 -2.3079
 3448TIP3   OH231978   5.890   1.688   1.518  0.6727 -0.2751  0.0105
 3448TIP3    H131979   5.858   1.633   1.446  0.9670 -1.3870  0.7218
 3448TIP3    H231980   5.812   1.736   1.547  0.2874 -0.7456 -0.2346
 3449TIP3   OH231981   4.089   1.921   0.265 -0.1825 -0.2186 -0.5092
 3449TIP3    H131982   4.016   1.862   0.282  0.5027 -0.8399  0.3693
 3449TIP3    H231983   4.085   1.939   0.171 -1.9093  0.3695 -0.3598
 3450TIP3   OH231984   3.761   5.891   0.518  0.1496 -0.4347  0.1526
 3450TIP3    H131985   3.814   5.961   0.557  0.1051 -0.8991  1.0756
 3450TIP3    H231986   3.743   5.832   0.591 -0.7285 -0.8444 -0.3847
 3451TIP3   OH231987   2.636   1.851   0.159 -0.1395  0.1530  0.1879
 3451TIP3    H131988   2.601   1.876   0.244  0.1054  2.0083 -0.2132
 3451TIP3    H231989   2.731   1.860   0.169  0.0450 -1.4851  0.2488
 3452TIP3   OH231990   3.674   4.198   2.143  0.1037  0.0631 -0.1203
 3452TIP3    H131991   3.629   4.221   2.225 -0.7184  0.3983 -0.6591
 3452TIP3    H231992   3.764   4.180   2.170  0.0543  1.0210  0.7366
 3453TIP3   OH231993   6.231   5.110   1.299  0.2642 -0.5433 -0.0316
 3453TIP3    H131994   6.261   5.073   1.382  2.2541 -4.1776 -2.1381
 3453TIP3    H231995   6.136   5.103   1.303  0.4045 -2.7068  1.1586
 3454TIP3   OH231996   0.670   4.038   2.038  0.3720 -0.6067  0.0394
 3454TIP3    H131997   0.638   3.956   2.000  1.6449 -0.0579 -2.4609
 3454TIP3    H231998   0.708   4.086   1.963 -1.3245  2.7866  1.1390
 3455TIP3   OH231999   5.055   5.213   0.860 -0.0849 -0.1742  0.5270
 3455TIP3    H132000   5.057   5.143   0.795  0.7033 -1.6245  2.0306
 3455TIP3    H232001   5.059   5.167   0.944 -0.5974  1.6510  1.5966
 3456TIP3   OH232002   5.255   4.186   7.708 -0.8165  0.1274  0.1364
 3456TIP3    H132003   5.313   4.253   7.671 -0.1900 -0.2996  0.3129
 3456TIP3    H232004   5.189   4.235   7.757 -1.2290  0.6691 -0.9368
 3457TIP3   OH232005   5.176   0.788   2.475  0.0946  0.7748  0.6858
 3457TIP3    H132006   5.185   0.868   2.423 -2.9843 -0.6535 -2.5758
 3457TIP3    H232007   5.245   0.730   2.442  0.2397  1.0104  0.5751
 3458TIP3   OH232008   0.851   4.330   7.588  0.5782  0.0349  0.2357
 3458TIP3    H132009   0.797   4.253   7.568  0.9462 -0.1516 -0.0523
 3458TIP3    H232010   0.791   4.404   7.580  0.6079 -0.0665 -1.1603
 3459TIP3   OH232011   5.757   2.275   2.995 -0.0450  0.0115  0.4154
 3459TIP3    H132012   5.754   2.351   2.936 -0.0400  0.0737  0.4948
 3459TIP3    H232013   5.767   2.313   3.082  0.5938 -0.0985  0.3978
 3460TIP3   OH232014   2.823   0.126   8.202  0.0296  0.5566  0.0281
 3460TIP3    H132015   2.760   0.054   8.206 -0.5995  1.1183  0.3612
 3460TIP3    H232016   2.859   0.122   8.113 -2.3403  1.7819 -1.0645
 3461TIP3   OH232017   4.059   5.495   0.342 -0.0386 -0.2940  0.4586
 3461TIP3    H132018   4.043   5.551   0.417  0.8080  1.1138 -0.3732
 3461TIP3    H232019   4.127   5.540   0.293  0.0942 -1.6617 -0.6613
 3462TIP3   OH232020   3.260   0.904   1.541 -0.0155  0.8566  0.1754
 3462TIP3    H132021   3.307   0.826   1.511 -1.1792  0.5402 -0.9383
 3462TIP3    H232022   3.288   0.973   1.480 -0.9366  0.6679 -0.4913
 3463TIP3   OH232023   3.322   3.761   2.492  1.0905 -0.7801 -0.0775
 3463TIP3    H132024   3.345   3.796   2.578  1.0517  0.3714 -0.5139
 3463TIP3    H232025   3.245   3.811   2.465  2.5844  0.7278 -1.8517
 3464TIP3   OH232026   2.696   3.112   0.346  0.6166  0.3814  0.2176
 3464TIP3    H132027   2.655   3.176   0.405 -1.9439 -1.4433  0.6090
 3464TIP3    H232028   2.652   3.125   0.262  0.9276 -0.0754 -0.0191
 3465TIP3   OH232029   5.059   0.321   8.150 -0.2405 -0.3075 -0.0862
 3465TIP3    H132030   5.147   0.298   8.181  0.1982 -0.3701 -1.3068
 3465TIP3    H232031   5.046   0.411   8.182  0.0214 -0.5042  0.5960
 3466TIP3   OH232032   4.725   3.300   0.598  0.3072 -0.0166 -0.3243
 3466TIP3    H132033   4.728   3.315   0.693  0.6134  0.7077 -0.4456
 3466TIP3    H232034   4.649   3.242   0.586  0.5329 -0.4720  0.4053
 3467TIP3   OH232035   1.684   4.240   2.784  0.0422 -0.0230 -0.2937
 3467TIP3    H132036   1.710   4.318   2.735 -0.1641  0.8734  0.9943
 3467TIP3    H232037   1.691   4.169   2.720  0.0328  1.0664 -1.5530
 3468TIP3   OH232038   3.354   5.014   1.755 -0.0934  0.1853 -0.3025
 3468TIP3    H132039   3.291   4.966   1.701  0.9487  0.1765 -1.5609
 3468TIP3    H232040   3.341   5.105   1.731  0.4000  0.1799 -0.5964
 3469TIP3   OH232041   2.713   2.868   1.835 -0.3659 -0.2945  0.0894
 3469TIP3    H132042   2.724   2.846   1.743  2.9129  1.1552  0.0131
 3469TIP3    H232043   2.714   2.964   1.837 -0.3965 -0.2962  1.6535
 3470TIP3   OH232044   2.941   3.766   8.496 -0.2454  0.2604  0.8748
 3470TIP3    H132045   2.858   3.751   8.542 -0.8361  0.4730 -0.0826
 3470TIP3    H232046   2.914   3.795   8.408  0.8474  0.3112  0.5467
 3471TIP3   OH232047   6.120   2.611   0.998 -0.5564  0.5504  0.5000
 3471TIP3    H132048   6.134   2.520   0.970 -0.6345  0.5536  0.4515
 3471TIP3    H232049   6.031   2.612   1.034  0.1531  0.1423  2.3723
 3472TIP3   OH232050   4.115   1.934   7.820  0.0372  0.1023 -0.9157
 3472TIP3    H132051   4.048   2.001   7.823 -0.3807 -0.3410  0.1239
 3472TIP3    H232052   4.192   1.975   7.860 -0.2295 -0.0383 -0.2434
 3473TIP3   OH232053   2.756   2.190   0.859 -0.1086  0.0943 -0.0798
 3473TIP3    H132054   2.824   2.255   0.841 -0.4253  0.6795  0.7956
 3473TIP3    H232055   2.803   2.107   0.866  0.3257  0.2475 -0.9618
 3474TIP3   OH232056   5.192   3.811   2.011 -0.0098  0.0339  0.3814
 3474TIP3    H132057   5.262   3.853   1.961 -0.2472  1.7570  1.4216
 3474TIP3    H232058   5.139   3.766   1.946  1.5431 -0.5697 -0.5238
 3475TIP3   OH232059   2.777   3.564   1.416  0.1376 -0.0646 -0.5182
 3475TIP3    H132060   2.867   3.595   1.427 -0.0727  0.5183 -0.3948
 3475TIP3    H232061   2.749   3.541   1.505 -0.4599  1.5542 -0.2417
 3476TIP3   OH232062   4.366   3.832   8.554  0.4396 -0.1387 -0.0587
 3476TIP3    H132063   4.373   3.798   8.643 -0.2796 -0.3558 -0.0762
 3476TIP3    H232064   4.300   3.776   8.513  0.0776  0.5553 -0.4399
 3477TIP3   OH232065   5.697   0.653   1.914  0.2671  0.6332 -0.6814
 3477TIP3    H132066   5.751   0.574   1.907  1.1296  1.2747 -1.5274
 3477TIP3    H232067   5.654   0.661   1.829 -2.0014 -0.4105  0.2872
 3478TIP3   OH232068   2.209   6.804   0.406 -0.6053  0.0320  0.0600
 3478TIP3    H132069   2.275   6.834   0.469  0.3245  0.8324 -1.2590
 3478TIP3    H232070   2.258   6.781   0.328 -1.8376  0.0709 -0.7580
 3479TIP3   OH232071   4.724   1.715   7.130  0.0772  0.2040  0.6123
 3479TIP3    H132072   4.645   1.765   7.109 -1.3374 -1.9287  0.6466
 3479TIP3    H232073   4.766   1.766   7.200 -1.8119  0.8605  1.3163
 3480TIP3   OH232074   5.026   2.324   1.077  0.4088  0.0092  0.5143
 3480TIP3    H132075   5.047   2.410   1.041  0.3177 -0.1935 -0.0282
 3480TIP3    H232076   5.005   2.270   1.001 -0.0954 -0.3385  0.8878
 3481TIP3   OH232077   5.904   4.135   8.603 -0.5724  0.1641  0.0211
 3481TIP3    H132078   5.814   4.107   8.585 -0.6163  0.1752  0.2168
 3481TIP3    H232079   5.957   4.056   8.592 -0.6300  0.1159  0.0902
 3482TIP3   OH232080   3.631   5.529   8.245 -0.2198 -0.3103  0.2329
 3482TIP3    H132081   3.545   5.499   8.273 -0.2546  0.2444  0.7373
 3482TIP3    H232082   3.624   5.536   8.149 -0.7179 -0.2965  0.2699
 3483TIP3   OH232083   1.548   0.046   1.261  0.3745 -0.0045 -0.1623
 3483TIP3    H132084   1.612   0.043   1.332 -1.1244 -0.5697  1.2490
 3483TIP3    H232085   1.482   0.109   1.290  0.7429  1.3189 -2.0252
 3484TIP3   OH232086   2.116   2.524   1.354  0.2491  0.6772  0.0107
 3484TIP3    H132087   2.149   2.614   1.359 -1.0356  1.1300  0.7215
 3484TIP3    H232088   2.148   2.483   1.435  1.1935  0.3446 -0.5117
 3485TIP3   OH232089   1.440   2.268   0.558 -0.0129  0.0276 -0.4455
 3485TIP3    H132090   1.504   2.335   0.538  1.1455 -0.6627  0.7766
 3485TIP3    H232091   1.382   2.308   0.623  0.4257 -0.0095 -0.0274
 3486TIP3   OH232092   3.047   3.598   1.388  0.6304  0.3502 -0.5153
 3486TIP3    H132093   3.109   3.656   1.432 -0.4308  0.9743  0.1699
 3486TIP3    H232094   3.046   3.629   1.297  0.7454  0.8277 -0.3553
 3487TIP3   OH232095   0.239   0.079   2.513 -0.2674 -0.2807 -0.3526
 3487TIP3    H132096   0.299   0.121   2.575  1.7659 -1.8438 -1.1330
 3487TIP3    H232097   0.181   0.149   2.485 -0.1622  0.8430  2.0242
 3488TIP3   OH232098   2.551   0.207   8.468 -0.0701 -0.1976 -0.3885
 3488TIP3    H132099   2.637   0.163   8.471 -0.6831 -1.4855 -0.9243
 3488TIP3    H232100   2.524   0.201   8.377  0.2977  2.3480 -0.7298
 3489TIP3   OH232101   2.955   4.368   7.865 -0.6434  0.7597  0.9308
 3489TIP3    H132102   2.896   4.306   7.908 -0.3628 -0.4037 -0.2988
 3489TIP3    H232103   2.897   4.432   7.824 -1.1073 -0.4692 -0.4075
 3490TIP3   OH232104   0.511   0.729   8.511 -0.3379  0.0681 -0.9863
 3490TIP3    H132105   0.588   0.743   8.456  0.9934 -0.0847  0.7768
 3490TIP3    H232106   0.478   0.817   8.529  1.4193  0.3976  0.9290
 3491TIP3   OH232107   5.617   1.754   3.416 -0.5029 -0.1463  0.0362
 3491TIP3    H132108   5.586   1.844   3.400  0.9882  0.0653 -2.2189
 3491TIP3    H232109   5.603   1.710   3.332 -2.4359 -2.4872  1.4695
 3492TIP3   OH232110   6.019   5.997   8.529 -0.1620  0.2499 -0.2130
 3492TIP3    H132111   6.102   5.952   8.540  0.3247  1.3243  0.7985
 3492TIP3    H232112   6.013   6.016   8.435  1.3907  1.3166 -0.1290
 3493TIP3   OH232113   2.284   5.437   7.839  0.1485  0.2457  0.0439
 3493TIP3    H132114   2.226   5.506   7.870  1.8189  1.3750  0.7976
 3493TIP3    H232115   2.259   5.424   7.748 -1.0053  0.9805  0.2364
 3494TIP3   OH232116   1.361   0.908   0.415  0.1586  0.4677 -1.0770
 3494TIP3    H132117   1.372   0.828   0.364  0.3883 -1.0600  1.2167
 3494TIP3    H232118   1.268   0.929   0.408  0.0404 -0.1672 -1.4628
 3495TIP3   OH232119   2.759   5.740   8.650  0.8443  0.0323  0.0227
 3495TIP3    H132120   2.845   5.743   8.691  0.7975 -0.2358  0.1436
 3495TIP3    H232121   2.727   5.830   8.654  1.2545  0.1978 -0.3187
 3496TIP3   OH232122   3.014   6.362   2.919  0.2352 -0.8179  0.3276
 3496TIP3    H132123   2.997   6.372   2.826  0.9963 -1.2588  0.1367
 3496TIP3    H232124   3.046   6.448   2.947  1.3010 -1.0483 -0.1143
 3497TIP3   OH232125   4.049   0.525   7.895  0.0021  0.0238  0.5772
 3497TIP3    H132126   4.130   0.482   7.921  0.9241  2.3397  1.8128
 3497TIP3    H232127   4.072   0.573   7.815 -0.1156  0.7747  0.9912
 3498TIP3   OH232128   2.487   2.589   2.382 -0.0977  0.1334  0.3014
 3498TIP3    H132129   2.478   2.496   2.401 -1.9472 -0.0289 -0.9957
 3498TIP3    H232130   2.577   2.599   2.350  0.8188 -0.7636  2.4419
 3499TIP3   OH232131   2.895   5.759   8.400 -0.9034  0.0373  0.0231
 3499TIP3    H132132   2.825   5.757   8.465 -0.9666 -0.3830 -0.0542
 3499TIP3    H232133   2.851   5.782   8.318 -0.8477  0.4120  0.0945
 3500TIP3   OH232134   1.910   2.541   0.842 -0.5136 -0.4924 -0.2901
 3500TIP3    H132135   1.928   2.501   0.927 -0.1181  1.1964  0.4716
 3500TIP3    H232136   1.915   2.635   0.858 -2.6628 -0.0627 -1.7039
 3501TIP3   OH232137   6.608   4.428   6.856 -0.1086  0.3116 -0.7663
 3501TIP3    H132138   6.625   4.446   6.949 -1.0698 -1.0953 -0.2836
 3501TIP3    H232139   6.646   4.341   6.841 -1.9242 -0.4752 -1.0679
 3502TIP3   OH232140   5.686   2.459   2.503 -0.3794  0.0704 -0.3595
 3502TIP3    H132141   5.597   2.464   2.536 -2.4037 -0.5911 -4.9269
 3502TIP3    H232142   5.722   2.379   2.542 -2.0380 -0.0650  0.9817
 3503TIP3   OH232143   1.602   2.769   0.648 -0.3016 -0.4979 -0.0536
 3503TIP3    H132144   1.513   2.734   0.650  0.0591 -1.5855  3.3240
 3503TIP3    H232145   1.596   2.851   0.698  0.6929 -1.0465  1.0206
 3504TIP3   OH232146   1.091   1.165   8.413  0.3588  0.4107  0.3312
 3504TIP3    H132147   1.052   1.224   8.348 -0.0312 -0.5398 -0.3146
 3504TIP3    H232148   1.085   1.213   8.495 -0.3303  1.1042 -0.1091
 3505TIP3   OH232149   5.371   6.689   0.423 -0.0120  0.1358 -0.1022
 3505TIP3    H132150   5.404   6.776   0.402  1.7510 -0.2803  0.7467
 3505TIP3    H232151   5.436   6.629   0.387 -0.5656 -0.7929  0.3967
 3506TIP3   OH232152   0.534   1.639   0.661  0.0611 -0.3107  0.2283
 3506TIP3    H132153   0.489   1.557   0.644  0.8082 -0.4622 -1.1942
 3506TIP3    H232154   0.626   1.615   0.670  0.3669  0.4056 -0.7868
 3507TIP3   OH232155   5.659   0.596   8.096  0.1700  0.3698  0.3836
 3507TIP3    H132156   5.623   0.675   8.055 -0.8862  0.0414  0.6345
 3507TIP3    H232157   5.590   0.567   8.156  0.9534 -0.1885  1.0246
 3508TIP3   OH232158   0.931   0.932   2.168 -0.2268  0.4623  0.1759
 3508TIP3    H132159   1.012   0.973   2.200 -0.2713  0.2288  0.5933
 3508TIP3    H232160   0.864   0.999   2.182 -0.3333  0.1877  1.0344
 3509TIP3   OH232161   1.931   1.016   1.913  0.4144  0.1072 -0.4855
 3509TIP3    H132162   1.966   0.938   1.958 -2.8048 -0.2116  1.8453
 3509TIP3    H232163   1.966   1.089   1.964 -0.4983 -0.1007  0.4740
 3510TIP3   OH232164   2.558   1.621   1.312 -0.0246 -0.2711  0.3174
 3510TIP3    H132165   2.513   1.622   1.397 -0.1554 -2.3604  0.3241
 3510TIP3    H232166   2.557   1.712   1.283  2.0410  0.9628  3.5846
 3511TIP3   OH232167   6.310   2.514   1.747 -0.5909  0.1786 -0.4404
 3511TIP3    H132168   6.289   2.547   1.660  1.1202 -0.7701 -1.2513
 3511TIP3    H232169   6.307   2.592   1.803  1.1318  1.3589 -1.8832
 3512TIP3   OH232170   5.819   5.593   1.054  0.4433 -0.0311 -0.5202
 3512TIP3    H132171   5.772   5.671   1.025 -0.3202 -0.4329 -0.3852
 3512TIP3    H232172   5.757   5.548   1.111  0.6459 -1.0571 -1.1013
 3513TIP3   OH232173   3.201   2.373   0.984 -0.2551  0.1549 -0.4145
 3513TIP3    H132174   3.151   2.333   1.056 -1.1330  1.0442 -0.5194
 3513TIP3    H232175   3.292   2.350   1.004 -0.4623  0.4759  1.0553
 3514TIP3   OH232176   6.367   1.563   2.593  0.2752 -0.8607 -0.4420
 3514TIP3    H132177   6.463   1.558   2.590  0.3811  0.1816  0.5936
 3514TIP3    H232178   6.348   1.618   2.669 -1.1272 -0.3039 -1.1611
 3515TIP3   OH232179   5.123   5.060   8.553  0.7178  0.2719 -0.1211
 3515TIP3    H132180   5.151   5.065   8.644  0.4087  2.2712 -0.0941
 3515TIP3    H232181   5.155   4.975   8.523  3.6311  0.8679  0.9557
 3516TIP3   OH232182   3.407   0.877   8.420 -0.1245 -0.0842  0.3097
 3516TIP3    H132183   3.319   0.897   8.453 -0.6011 -0.1524 -0.8840
 3516TIP3    H232184   3.414   0.782   8.425 -0.9090 -0.2733 -1.4535
 3517TIP3   OH232185   3.410   1.807   7.311 -0.0487 -0.1825 -0.9651
 3517TIP3    H132186   3.401   1.746   7.385  1.4769 -1.2670 -1.6238
 3517TIP3    H232187   3.323   1.809   7.271 -0.8982  0.3830  0.7901
 3518TIP3   OH232188   5.796   5.173   2.556  0.0306 -0.2648  0.3358
 3518TIP3    H132189   5.883   5.133   2.554  0.3219  0.2103  2.0114
 3518TIP3    H232190   5.777   5.185   2.649 -2.9439 -2.6778  0.1877
 3519TIP3   OH232191   0.282   6.024   7.751 -0.2002  0.3896 -0.3139
 3519TIP3    H132192   0.358   5.969   7.735  1.0552  0.5784  3.9013
 3519TIP3    H232193   0.273   6.077   7.671  2.0151 -1.8651 -2.2169
 3520TIP3   OH232194   6.280   6.498   8.195  0.1997 -0.3992  0.1492
 3520TIP3    H132195   6.327   6.497   8.279 -1.8063  0.9327  1.3746
 3520TIP3    H232196   6.308   6.580   8.153 -0.4291  0.0208  0.5360
 3521TIP3   OH232197   0.180   3.485   0.117 -0.2385  0.3365  0.3211
 3521TIP3    H132198   0.206   3.402   0.157  0.4842  0.8281  0.8996
 3521TIP3    H232199   0.134   3.533   0.186 -2.7160 -0.4753 -0.6607
 3522TIP3   OH232200   6.307   1.231   0.496 -0.0158 -0.6380 -0.3891
 3522TIP3    H132201   6.362   1.310   0.499 -1.2479  0.2375 -0.0954
 3522TIP3    H232202   6.368   1.161   0.473  1.6815 -0.1250  2.1352
 3523TIP3   OH232203   0.775   5.092   8.205  0.4067 -0.2579 -0.1152
 3523TIP3    H132204   0.776   5.046   8.289 -2.5643 -0.3624 -0.0254
 3523TIP3    H232205   0.804   5.027   8.141 -1.2353 -1.4868  0.3395
 3524TIP3   OH232206   0.343   0.056   8.617  0.0871 -0.1605  0.2265
 3524TIP3    H132207   0.334   0.002   8.538 -0.0973  0.6990 -0.3502
 3524TIP3    H232208   0.426   0.027   8.656 -0.7735 -1.9911  0.8258
 3525TIP3   OH232209   3.485   5.497   7.155 -0.6896  0.3643 -0.3936
 3525TIP3    H132210   3.431   5.474   7.080  0.2988  0.3923 -1.1404
 3525TIP3    H232211   3.502   5.414   7.199 -1.5131  0.3863 -0.0297
 3526TIP3   OH232212   3.400   2.219   2.347 -0.0589  0.7144 -0.4676
 3526TIP3    H132213   3.374   2.171   2.269  1.3689 -0.5511 -0.2238
 3526TIP3    H232214   3.343   2.187   2.416 -0.5654  0.9972 -0.7508
 3527TIP3   OH232215   1.912   3.053   3.001  0.8060  0.6042 -0.5806
 3527TIP3    H132216   1.973   3.099   2.942 -1.0717  1.8413 -1.6696
 3527TIP3    H232217   1.912   3.106   3.081  0.2909  1.2620 -1.0128
 3528TIP3   OH232218   6.108   3.111   2.645  0.7784  0.2217 -0.2532
 3528TIP3    H132219   6.118   3.198   2.607 -0.0393  0.6620  0.4946
 3528TIP3    H232220   6.016   3.108   2.672  0.4702 -1.3313 -1.3626
 3529TIP3   OH232221   6.477   3.520   7.804  0.1105 -0.0934  0.1469
 3529TIP3    H132222   6.532   3.444   7.784 -0.6525 -0.4376 -0.7344
 3529TIP3    H232223   6.395   3.503   7.758  0.1858  1.6253 -0.7214
 3530TIP3   OH232224   3.855   3.611   7.523 -0.4277  0.4152  0.9257
 3530TIP3    H132225   3.821   3.548   7.459 -0.1000 -0.3402  1.4899
 3530TIP3    H232226   3.837   3.696   7.483  1.8225 -0.0266 -1.2788
 3531TIP3   OH232227   1.181   0.632   8.104  0.2177  0.4781  0.8681
 3531TIP3    H132228   1.204   0.690   8.031  1.2054 -0.1015  0.6968
 3531TIP3    H232229   1.258   0.635   8.161 -0.1061  0.0573  1.3268
 3532TIP3   OH232230   3.183   2.293   7.407  0.6892  0.2623 -0.2517
 3532TIP3    H132231   3.130   2.371   7.395 -0.9045 -0.7064  0.0827
 3532TIP3    H232232   3.201   2.291   7.501 -0.3125 -0.3738 -0.0552
 3533TIP3   OH232233   3.395   1.439   2.087 -0.7563  0.2378  0.3184
 3533TIP3    H132234   3.416   1.462   1.997 -0.8185 -1.8611 -0.2836
 3533TIP3    H232235   3.307   1.475   2.101 -0.4351  1.2436 -0.1767
 3534TIP3   OH232236   3.872   5.065   0.158 -0.6283 -0.5539 -0.5332
 3534TIP3    H132237   3.789   5.096   0.123 -0.5335 -0.2031 -0.4471
 3534TIP3    H232238   3.898   5.131   0.222 -0.5193 -0.9078 -0.2110
 3535TIP3   OH232239   6.546   3.228   8.432 -0.0256  0.3258 -0.0715
 3535TIP3    H132240   6.577   3.216   8.342  1.2782  0.4519  0.3431
 3535TIP3    H232241   6.472   3.289   8.424 -1.7356 -1.7711 -1.3455
 3536TIP3   OH232242   2.194   4.977   8.424  0.4455 -0.0188 -0.1447
 3536TIP3    H132243   2.279   5.017   8.407  0.4036 -0.9124 -3.0748
 3536TIP3    H232244   2.131   5.045   8.402  0.4219 -0.2976 -1.0011
 3537TIP3   OH232245   1.759   6.862   8.610 -0.0268 -0.1537  0.1738
 3537TIP3    H132246   1.790   6.832   8.525 -0.5578  1.3878 -0.6092
 3537TIP3    H232247   1.811   6.941   8.627  0.1214 -0.4901  1.3218
 3538TIP3   OH232248   0.698   2.238   7.713 -0.3777  0.1514  0.5059
 3538TIP3    H132249   0.685   2.203   7.801  0.2460  1.6360  1.2208
 3538TIP3    H232250   0.693   2.333   7.723  1.0349  0.4165 -0.8309
 3539TIP3   OH232251   0.626   6.657   7.981 -0.3430  0.0770 -0.4314
 3539TIP3    H132252   0.646   6.563   7.989 -0.5734  0.0241 -0.4620
 3539TIP3    H232253   0.602   6.669   7.889 -2.8958 -0.3625  0.0980
 3540TIP3   OH232254   4.108   4.776   6.673 -0.6004  0.1364 -0.2628
 3540TIP3    H132255   4.056   4.703   6.706 -1.6966  0.4640 -1.1971
 3540TIP3    H232256   4.194   4.738   6.656  0.2436  0.0603  3.3930
 3541TIP3   OH232257   4.894   6.543   0.108  0.3570  0.4315  0.1251
 3541TIP3    H132258   4.903   6.583   0.022 -0.6729 -0.9806 -0.6655
 3541TIP3    H232259   4.884   6.450   0.091  0.8924  0.0213  1.8302
 3542TIP3   OH232260   4.962   1.123   1.714 -0.2015 -0.7446  0.1435
 3542TIP3    H132261   4.919   1.095   1.633 -0.5117 -0.2310  0.1224
 3542TIP3    H232262   4.935   1.214   1.724  2.3943  0.2107 -0.8576
 3543TIP3   OH232263   1.163   2.167   2.358  0.3417 -0.6905 -0.1230
 3543TIP3    H132264   1.206   2.185   2.441  2.2458  0.9168 -1.3697
 3543TIP3    H232265   1.102   2.240   2.346  0.4062 -0.6732 -0.3547
 3544TIP3   OH232266   6.830   3.912   0.039  0.8764 -0.2953 -0.4976
 3544TIP3    H132267   6.808   3.834   0.091 -0.5643  0.6191  0.3159
 3544TIP3    H232268   6.883   3.878  -0.033 -1.3412 -2.3581 -1.2860
 3545TIP3   OH232269   5.203   2.137   1.642  0.4568 -0.0337 -0.1658
 3545TIP3    H132270   5.228   2.107   1.730  1.4473  0.6405 -0.2014
 3545TIP3    H232271   5.109   2.154   1.648  0.2482 -1.2305  0.3940
 3546TIP3   OH232272   3.834   6.868   0.456 -0.2850 -0.2913 -0.4000
 3546TIP3    H132273   3.888   6.891   0.532  0.3232 -1.7890 -0.3467
 3546TIP3    H232274   3.750   6.911   0.473 -0.3594 -1.0713  1.4141
 3547TIP3   OH232275   3.493   4.106   1.076 -0.0341  0.5841  0.4247
 3547TIP3    H132276   3.562   4.129   1.014 -1.0725 -1.1882 -1.5231
 3547TIP3    H232277   3.530   4.127   1.162  1.5018  3.0411 -0.7207
 3548TIP3   OH232278   1.978   6.347   8.683  0.0407 -0.2377 -0.3230
 3548TIP3    H132279   1.999   6.434   8.650  0.7553 -1.1327 -2.3641
 3548TIP3    H232280   1.897   6.323   8.638 -0.8480 -0.1873  1.1637
 3549TIP3   OH232281   5.366   4.787   0.677  0.0469 -0.4507 -0.0538
 3549TIP3    H132282   5.403   4.699   0.684  2.0670  0.2646 -0.9599
 3549TIP3    H232283   5.442   4.845   0.670 -1.2464  1.1896 -1.5579
 3550TIP3   OH232284   3.997   2.533   1.503 -0.3684  0.3531 -0.1996
 3550TIP3    H132285   3.923   2.576   1.460 -1.8596 -1.7901  0.0316
 3550TIP3    H232286   4.005   2.449   1.458  0.8554 -0.1363  0.8653
 3551TIP3   OH232287   0.481   3.549   2.975 -0.1722 -0.3140 -0.2444
 3551TIP3    H132288   0.563   3.502   2.956  0.7001  0.7661  0.6805
 3551TIP3    H232289   0.465   3.602   2.897 -0.3415 -0.9693 -0.6722
 3552TIP3   OH232290   4.990   0.848   7.349 -0.3044 -0.5969  0.1568
 3552TIP3    H132291   4.951   0.772   7.305  1.7796 -1.4555 -0.3527
 3552TIP3    H232292   4.928   0.919   7.335 -2.5369 -2.2803  1.0200
 3553TIP3   OH232293   3.243   6.386   1.458  0.3364  0.5182  0.2205
 3553TIP3    H132294   3.321   6.330   1.454 -0.7573 -1.2076  1.2953
 3553TIP3    H232295   3.185   6.340   1.519 -1.6448  1.5856 -0.7807
 3554TIP3   OH232296   1.474   6.675   7.913  0.1484  0.7385  0.5122
 3554TIP3    H132297   1.514   6.698   7.829 -1.6746  1.8791 -0.1096
 3554TIP3    H232298   1.428   6.593   7.896 -1.1174  1.5109  0.0345
 3555TIP3   OH232299   3.716   3.424   7.919  0.0099 -0.8283 -0.0574
 3555TIP3    H132300   3.636   3.400   7.871 -0.5122 -0.9038  0.8391
 3555TIP3    H232301   3.772   3.465   7.853 -0.7818 -0.7444 -0.6869
 3556TIP3   OH232302   5.859   0.062   0.002 -0.1796  0.2074 -0.0652
 3556TIP3    H132303   5.801   0.114   0.057  1.1973  1.0678  0.6332
 3556TIP3    H232304   5.947   0.091   0.026  0.5942 -1.6951 -0.4339
 3557TIP3   OH232305   5.493   2.420   2.972  0.5842  0.3531 -0.0934
 3557TIP3    H132306   5.570   2.463   2.936  0.4387  2.2013  1.6590
 3557TIP3    H232307   5.420   2.453   2.920  0.7077  0.5650 -0.1325
 3558TIP3   OH232308   4.616   4.211   8.165  0.1115 -0.3860 -0.1237
 3558TIP3    H132309   4.709   4.223   8.186 -0.1707 -0.2675  1.1328
 3558TIP3    H232310   4.595   4.124   8.199 -0.3996 -0.1434  0.1775
 3559TIP3   OH232311   4.142   0.257   7.994  0.3908  0.3784  0.0296
 3559TIP3    H132312   4.123   0.167   8.021  1.8868  0.0827  0.1585
 3559TIP3    H232313   4.193   0.248   7.914  0.0408  1.1414 -0.2919
 3560TIP3   OH232314   6.382   6.443   0.507 -0.0416 -0.1659  0.5352
 3560TIP3    H132315   6.447   6.495   0.459 -1.3142  0.6533 -0.3680
 3560TIP3    H232316   6.385   6.476   0.596 -1.5577  2.3186 -0.2231
 3561TIP3   OH232317   5.064   5.561   7.955  0.6312 -0.1743  0.1707
 3561TIP3    H132318   5.068   5.637   7.898 -0.5562 -0.7427 -0.7124
 3561TIP3    H232319   4.989   5.577   8.012  0.3060 -0.7296 -0.0941
 3562TIP3   OH232320   2.027   1.053   8.228 -0.1785  0.0676  0.0575
 3562TIP3    H132321   2.011   0.960   8.244  2.4501 -0.4187  0.3118
 3562TIP3    H232322   2.047   1.057   8.134  1.3734  0.0268  0.3482
 3563TIP3   OH232323   2.950   3.355   1.175 -0.1139 -0.3325  0.5042
 3563TIP3    H132324   2.988   3.374   1.261 -2.0894  2.0727  0.9564
 3563TIP3    H232325   3.020   3.377   1.113  0.8205 -0.6506  1.4062
 3564TIP3   OH232326   1.793   0.717   1.249 -0.4188  0.1110 -0.8214
 3564TIP3    H132327   1.782   0.645   1.312  0.1915 -1.3539 -2.3233
 3564TIP3    H232328   1.884   0.745   1.261 -1.0490  1.6890  0.7695
 3565TIP3   OH232329   6.544   3.597   1.153 -0.7025 -0.1510 -0.0736
 3565TIP3    H132330   6.551   3.585   1.248  0.9874 -0.8471 -0.2418
 3565TIP3    H232331   6.454   3.626   1.139 -2.1130 -3.2522  1.4386
 3566TIP3   OH232332   5.201   6.207   0.591 -0.0272  0.2668 -0.1709
 3566TIP3    H132333   5.261   6.133   0.590 -1.0585 -0.6497  1.5138
 3566TIP3    H232334   5.140   6.190   0.520  1.1587  0.7887 -1.3624
 3567TIP3   OH232335   6.479   1.087   0.868 -0.2789 -0.4316  0.3615
 3567TIP3    H132336   6.491   1.137   0.788  1.3592 -2.8407 -1.0147
 3567TIP3    H232337   6.559   1.100   0.918 -1.1613  0.8008  1.5440
 3568TIP3   OH232338   4.412   0.332   0.447  0.2417  0.0012 -0.6121
 3568TIP3    H132339   4.421   0.274   0.372  1.5003  1.1216 -1.3840
 3568TIP3    H232340   4.500   0.368   0.460  0.2227 -0.6681  1.8426
 3569TIP3   OH232341   6.721   0.679   7.912  0.3823 -0.0741  0.4863
 3569TIP3    H132342   6.772   0.740   7.964  0.5991 -0.8939  1.2595
 3569TIP3    H232343   6.656   0.733   7.867  0.9886  0.7922  0.6445
 3570TIP3   OH232344   1.224   6.711   1.579 -0.5788  0.6989  0.0717
 3570TIP3    H132345   1.304   6.679   1.536 -0.1254  0.5335  1.0137
 3570TIP3    H232346   1.209   6.797   1.540  1.1986  1.6228  1.2856
 3571TIP3   OH232347   2.071   2.819   1.929  0.3120 -0.0173  0.0848
 3571TIP3    H132348   2.087   2.891   1.990 -0.4206  1.4958 -1.4207
 3571TIP3    H232349   2.005   2.854   1.869  0.4594 -1.7169 -1.1118
 3572TIP3   OH232350   6.625   3.284   1.067  0.1353  0.0535 -0.1944
 3572TIP3    H132351   6.703   3.332   1.040 -0.7430  1.9091  0.3979
 3572TIP3    H232352   6.617   3.303   1.161  1.0436 -3.1960  0.6567
 3573TIP3   OH232353   5.587   3.559   0.702  0.0680 -0.1323 -0.1514
 3573TIP3    H132354   5.593   3.635   0.645 -0.0921 -0.2485 -0.3255
 3573TIP3    H232355   5.517   3.581   0.763 -0.7368 -0.5815 -0.8860
 3574TIP3   OH232356   1.758   1.563   0.802 -0.3350  0.1036  0.2092
 3574TIP3    H132357   1.717   1.595   0.882  0.0603 -1.2303  0.9893
 3574TIP3    H232358   1.846   1.537   0.829  0.0283  0.2257 -0.8096
 3575TIP3   OH232359   6.365   2.284   1.624 -0.1346 -0.2960 -0.1982
 3575TIP3    H132360   6.306   2.213   1.646  0.0594 -0.5119 -0.3590
 3575TIP3    H232361   6.337   2.358   1.679  0.1349 -0.7177  0.5190
 3576TIP3   OH232362   3.080   6.429   0.545 -0.5085 -0.0003  0.0377
 3576TIP3    H132363   2.997   6.383   0.532 -0.5761 -0.6693  2.3785
 3576TIP3    H232364   3.075   6.504   0.485 -1.7034 -1.3407 -1.6664
 3577TIP3   OH232365   1.788   5.722   1.827  0.0394 -0.4608  0.0270
 3577TIP3    H132366   1.872   5.728   1.871 -0.7233  0.8922  1.3961
 3577TIP3    H232367   1.774   5.629   1.812  1.5799 -0.7250  0.1310
 3578TIP3   OH232368   4.888   2.397   2.820 -0.5822 -0.5742 -0.3100
 3578TIP3    H132369   4.818   2.334   2.837 -0.7936 -0.1500  0.4489
 3578TIP3    H232370   4.963   2.364   2.871 -0.4517 -0.6353 -0.5402
 3579TIP3   OH232371   5.013   0.653   2.215  0.3554  0.0045 -0.1039
 3579TIP3    H132372   4.991   0.745   2.203 -0.4231 -0.2094 -0.3631
 3579TIP3    H232373   5.096   0.655   2.263  0.8729  0.8339 -0.9981
 3580TIP3   OH232374   4.676   6.869   1.965  0.5096  0.5153  0.0864
 3580TIP3    H132375   4.749   6.923   1.993  0.1065  1.4367 -0.5825
 3580TIP3    H232376   4.714   6.806   1.904  0.9404  0.1979  0.6759
 3581TIP3   OH232377   5.905   0.042   0.308  0.1537  0.5673 -0.4580
 3581TIP3    H132378   5.852  -0.036   0.326 -1.5225  1.8788  0.6163
 3581TIP3    H232379   5.843   0.115   0.314  1.9418  2.1214  0.0382
 3582TIP3   OH232380   4.970   0.182   0.481  0.1681  0.1882 -0.0809
 3582TIP3    H132381   4.875   0.166   0.488  0.2767 -0.1388  0.7410
 3582TIP3    H232382   5.008   0.094   0.477  0.2897  0.2671 -3.1554
 3583TIP3   OH232383   3.355   4.804   0.390  0.4813 -0.1264 -0.9567
 3583TIP3    H132384   3.431   4.748   0.376  1.0159  0.2656  0.2760
 3583TIP3    H232385   3.389   4.893   0.388  0.3436  0.0060  1.0773
 3584TIP3   OH232386   2.865   1.108   0.812  0.2942  0.1830 -0.0674
 3584TIP3    H132387   2.838   1.026   0.853 -1.2969  0.2794 -0.8435
 3584TIP3    H232388   2.862   1.090   0.718  1.3081  0.7398 -0.2255
 3585TIP3   OH232389   4.707   0.167   0.504 -0.1087 -0.1024  0.0333
 3585TIP3    H132390   4.692   0.088   0.556  1.8607  0.4657  1.6372
 3585TIP3    H232391   4.646   0.231   0.539 -0.0110 -0.2305  0.4429
 3586TIP3   OH232392   0.867   4.086   3.254  0.0823  0.3029 -0.0359
 3586TIP3    H132393   0.953   4.070   3.216  0.2049 -0.8198  0.6913
 3586TIP3    H232394   0.871   4.048   3.342 -0.5489  1.9061  0.7261
 3587TIP3   OH232395   6.113   2.266   1.905 -0.6804  0.0423  0.1140
 3587TIP3    H132396   6.161   2.340   1.868 -0.9161  0.1045 -0.0663
 3587TIP3    H232397   6.164   2.189   1.879 -1.5509 -0.0293 -1.4875
 3588TIP3   OH232398   5.004   5.721   0.371 -0.1230 -0.2679 -0.0207
 3588TIP3    H132399   4.926   5.682   0.411  0.3655 -1.2506  0.0169
 3588TIP3    H232400   5.013   5.677   0.286 -0.4857  0.9628 -0.7241
 3589TIP3   OH232401   1.826   0.056   1.365 -0.4692  0.1546 -0.5083
 3589TIP3    H132402   1.871   0.003   1.300 -1.2629 -0.2852 -0.7179
 3589TIP3    H232403   1.804   0.137   1.319  1.2574  0.9395 -0.0204
 3590TIP3   OH232404   5.109   6.112   6.967  0.3011  0.4029 -0.3639
 3590TIP3    H132405   5.088   6.056   7.042  1.9157 -2.8095 -2.0767
 3590TIP3    H232406   5.079   6.062   6.891  0.8866  2.4106 -2.0199
 3591TIP3   OH232407   5.633   0.453   7.866 -0.0196  0.1945 -0.0797
 3591TIP3    H132408   5.661   0.498   7.785  0.8025  0.8372  0.5405
 3591TIP3    H232409   5.602   0.524   7.922  0.7180 -0.0773  0.6853
 3592TIP3   OH232410   3.958   0.201   0.673  0.0703 -0.2310  0.3031
 3592TIP3    H132411   3.903   0.171   0.746 -0.8299 -0.2964 -0.3848
 3592TIP3    H232412   3.903   0.264   0.626  0.8564  0.2592  0.0126
 3593TIP3   OH232413   0.111   1.576   3.649  0.1276  0.3587  0.2682
 3593TIP3    H132414   0.070   1.661   3.664  0.1561  0.5968 -0.9233
 3593TIP3    H232415   0.203   1.588   3.674  0.7732  1.4775 -2.2999
 3594TIP3   OH232416   6.393   2.986   1.000 -0.0583  0.1574  0.3084
 3594TIP3    H132417   6.343   3.030   0.931  0.5935  0.5027  0.0466
 3594TIP3    H232418   6.482   3.020   0.990  0.2731 -0.6021  0.6349
 3595TIP3   OH232419   5.747   3.751   1.111 -0.3468 -0.4593  0.7901
 3595TIP3    H132420   5.741   3.722   1.202  1.0693  0.6714  1.2668
 3595TIP3    H232421   5.702   3.835   1.109  2.6223  1.2767  1.3113
 3596TIP3   OH232422   4.101   3.854   1.637 -0.4484  0.3871  0.5099
 3596TIP3    H132423   4.103   3.934   1.690 -0.1736 -0.3587  1.6650
 3596TIP3    H232424   4.018   3.812   1.660  0.0344 -0.3405  0.9800
 3597TIP3   OH232425   6.698   1.075   1.638  0.0215  0.1804 -0.3460
 3597TIP3    H132426   6.656   1.084   1.724 -1.2963  0.1184 -0.9588
 3597TIP3    H232427   6.768   1.140   1.639  1.1761 -0.9875  1.4077
 3598TIP3   OH232428   5.017   4.692   0.273 -0.3443 -0.1332  0.4199
 3598TIP3    H132429   5.111   4.694   0.259 -0.4480  3.6341 -0.8448
 3598TIP3    H232430   4.979   4.692   0.185 -1.5203 -0.4222  0.9001
 3599TIP3   OH232431   2.209   0.833   2.887 -0.2582  0.2420  0.3517
 3599TIP3    H132432   2.274   0.784   2.939  0.1417  1.3710  0.9391
 3599TIP3    H232433   2.221   0.924   2.913 -0.9253  0.6776 -0.8043
 3600TIP3   OH232434   3.855   2.751   2.305 -0.6974 -0.2635 -0.0920
 3600TIP3    H132435   3.945   2.759   2.273 -1.4245 -0.8496 -2.5392
 3600TIP3    H232436   3.822   2.840   2.307 -0.2575 -0.1047  0.2073
 3601TIP3   OH232437   3.423   1.089   8.573 -0.5970 -0.0820  0.1648
 3601TIP3    H132438   3.419   1.163   8.513 -0.4541  1.5328  2.0583
 3601TIP3    H232439   3.452   1.016   8.519  1.6170  1.7663 -1.3218
 3602TIP3   OH232440   1.901   3.432   1.497 -0.0430 -0.2334  0.0262
 3602TIP3    H132441   1.920   3.352   1.546  1.2694  0.0862  0.0736
 3602TIP3    H232442   1.933   3.413   1.409  0.2795  0.2340  0.0408
 3603TIP3   OH232443   6.728   0.422   2.008 -0.4434 -0.2446  0.3629
 3603TIP3    H132444   6.653   0.400   1.953 -0.8771 -1.3908  1.3839
 3603TIP3    H232445   6.771   0.339   2.025  1.3258  0.4334 -0.5199
 3604TIP3   OH232446   6.663   4.795   8.367  0.1766  0.3764 -0.3980
 3604TIP3    H132447   6.630   4.751   8.289  2.1803  2.1709 -2.3929
 3604TIP3    H232448   6.703   4.725   8.419 -0.3949 -0.7303 -1.4096
 3605TIP3   OH232449   1.527   3.978   3.313 -0.0198  0.4907  0.4101
 3605TIP3    H132450   1.489   4.059   3.348 -0.2008  1.8612 -2.6345
 3605TIP3    H232451   1.453   3.919   3.304 -0.2253  0.6759  0.8454
 3606TIP3   OH232452   2.547   4.935   0.521 -0.5959  0.5235  0.4368
 3606TIP3    H132453   2.633   4.973   0.504 -1.1884  1.2756 -0.9960
 3606TIP3    H232454   2.501   5.001   0.572 -0.2312 -0.0377  1.5423
 3607TIP3   OH232455   5.493   2.096   2.002  0.0108  0.2828  0.1080
 3607TIP3    H132456   5.581   2.108   2.037 -0.2177 -1.0307  1.2590
 3607TIP3    H232457   5.490   2.005   1.974 -0.6328  0.6287 -0.9946
 3608TIP3   OH232458   5.422   1.836   8.483 -0.2761 -0.7294 -0.4445
 3608TIP3    H132459   5.397   1.750   8.517 -1.5711 -0.7750 -1.4509
 3608TIP3    H232460   5.370   1.898   8.534  2.3493 -0.2887  1.9241
 3609TIP3   OH232461   2.703   2.653   7.501 -0.4972  0.0105 -0.0694
 3609TIP3    H132462   2.646   2.652   7.424  0.0129  0.9495 -0.4878
 3609TIP3    H232463   2.791   2.661   7.464 -0.3322  1.7826  0.6197
 3610TIP3   OH232464   1.408   6.071   8.470 -0.3266  0.4033 -0.4199
 3610TIP3    H132465   1.409   6.132   8.543 -1.2241  1.5614 -1.3414
 3610TIP3    H232466   1.446   5.990   8.506 -1.8232  0.5406  1.6518
 3611TIP3   OH232467   0.124   1.207   7.435 -0.3853 -0.6098 -0.2286
 3611TIP3    H132468   0.132   1.167   7.348 -2.0260  0.6971 -1.0619
 3611TIP3    H232469   0.213   1.207   7.470  0.5213 -0.2630 -2.3596
 3612TIP3   OH232470   2.211   6.024   2.214 -0.0489  0.2186 -0.0739
 3612TIP3    H132471   2.274   5.964   2.254 -0.3733  0.6094  1.0821
 3612TIP3    H232472   2.139   6.029   2.277 -0.9432  0.2863 -1.0761
 3613TIP3   OH232473   3.241   6.382   8.389 -0.4197  0.0402  0.4069
 3613TIP3    H132474   3.323   6.344   8.357 -0.0609 -0.9552  2.3391
 3613TIP3    H232475   3.266   6.430   8.468 -1.6659 -0.2409  0.9982
 3614TIP3   OH232476   1.605   5.136   2.832 -0.0303  0.5708  0.5293
 3614TIP3    H132477   1.513   5.118   2.810  0.2749  1.0600 -1.3573
 3614TIP3    H232478   1.603   5.160   2.925 -1.9479  1.3255  0.3515
 3615TIP3   OH232479   3.098   1.372   1.149  0.2632 -0.4921  0.5086
 3615TIP3    H132480   3.170   1.419   1.107  0.8732 -0.9368  1.0285
 3615TIP3    H232481   3.084   1.295   1.094  0.4542 -0.6028  0.6097
 3616TIP3   OH232482   2.355   0.507   8.457 -0.1530 -0.5983  0.3671
 3616TIP3    H132483   2.427   0.470   8.508 -0.3288 -1.0525  0.2941
 3616TIP3    H232484   2.336   0.591   8.498  1.5430  0.3235 -0.6267
 3617TIP3   OH232485   0.934   5.223   0.963  0.0134 -0.1793 -0.1872
 3617TIP3    H132486   0.988   5.149   0.936 -0.6315 -1.0420  0.7707
 3617TIP3    H232487   0.995   5.282   1.007  0.0408 -1.7627  2.0770
 3618TIP3   OH232488   4.995   2.836   1.702 -0.2818  0.4288  0.3458
 3618TIP3    H132489   4.925   2.884   1.745  0.4455 -0.0713  2.1668
 3618TIP3    H232490   5.036   2.784   1.772 -0.7916 -2.6112 -1.4257
 3619TIP3   OH232491   5.031   5.210   2.460  0.0270  0.2479 -0.7710
 3619TIP3    H132492   5.024   5.144   2.391 -0.5973 -0.1379 -0.3532
 3619TIP3    H232493   4.985   5.286   2.425  0.2084  0.2509 -1.0059
 3620TIP3   OH232494   0.539   2.797   8.435  0.0716  0.5787 -0.1107
 3620TIP3    H132495   0.626   2.758   8.449 -0.2716  0.0425  0.6052
 3620TIP3    H232496   0.482   2.722   8.417 -0.1936  0.9545 -0.8822
 3621TIP3   OH232497   2.814   5.476   2.262 -0.6389 -0.6652  0.2864
 3621TIP3    H132498   2.824   5.565   2.230  0.2475 -0.4262  1.1858
 3621TIP3    H232499   2.731   5.477   2.310 -0.0398  0.0296  1.3608
 3622TIP3   OH232500   5.167   1.380   7.776 -0.2958  0.1651  0.4431
 3622TIP3    H132501   5.167   1.447   7.708  1.1756 -0.8555 -0.6452
 3622TIP3    H232502   5.097   1.321   7.751  0.1708 -0.1493 -0.1658
 3623TIP3   OH232503   4.891   2.815   0.643 -0.2140  0.0915  0.1135
 3623TIP3    H132504   4.822   2.833   0.580 -0.6386 -0.5947  0.3680
 3623TIP3    H232505   4.959   2.879   0.624 -1.2479  1.2947  0.3791
 3624TIP3   OH232506   3.727   6.422   2.913  0.2397  0.4010  0.2653
 3624TIP3    H132507   3.789   6.411   2.984  0.6069 -2.6341 -0.3786
 3624TIP3    H232508   3.643   6.395   2.950  0.1971  0.0017 -0.1200
 3625TIP3   OH232509   3.226   4.700   8.572 -0.0297  0.0420 -0.0562
 3625TIP3    H132510   3.203   4.660   8.488 -2.3486  0.1353  0.4747
 3625TIP3    H232511   3.256   4.626   8.625  2.4712  0.1197 -1.1965
 3626TIP3   OH232512   0.585   3.364   7.636  0.2736  0.0838  0.7161
 3626TIP3    H132513   0.669   3.409   7.639  1.5599 -2.0174 -1.2186
 3626TIP3    H232514   0.524   3.426   7.676  2.2888  2.6197  0.1466
 3627TIP3   OH232515   0.864   3.955   2.253 -0.3591  0.1036 -0.1426
 3627TIP3    H132516   0.796   4.018   2.229  0.7051  0.2773 -3.1883
 3627TIP3    H232517   0.818   3.871   2.257 -1.1440  0.5368  0.1799
 3628TIP3   OH232518   0.814   3.423   1.525 -0.2339 -0.0912  0.2660
 3628TIP3    H132519   0.721   3.422   1.549  0.1134 -0.5812  1.6725
 3628TIP3    H232520   0.839   3.331   1.523  0.4290  0.0724  0.7879
 3629TIP3   OH232521   6.489   5.597   8.545 -0.3296 -0.2247 -0.2332
 3629TIP3    H132522   6.492   5.690   8.571 -2.9759  0.0637 -0.6603
 3629TIP3    H232523   6.508   5.598   8.451 -3.6707  0.4180 -1.0272
 3630TIP3   OH232524   5.850   0.454   0.252  0.6771 -0.9721 -0.5146
 3630TIP3    H132525   5.887   0.530   0.206 -0.7141  0.8480  1.1726
 3630TIP3    H232526   5.913   0.437   0.323  0.6689 -0.9909 -0.5118
 3631TIP3   OH232527   3.838   1.266   0.100  0.3376  0.4763  0.1046
 3631TIP3    H132528   3.770   1.198   0.098 -1.0169  1.7597  0.3983
 3631TIP3    H232529   3.790   1.346   0.122  1.5984  1.8412 -1.8419
 3632TIP3   OH232530   5.024   3.051   0.575  0.0236  0.1987 -0.8031
 3632TIP3    H132531   5.013   3.146   0.576  2.1707  0.5037 -1.5792
 3632TIP3    H232532   5.082   3.034   0.501  2.0861 -1.4013  1.0462
 3633TIP3   OH232533   5.695   0.775   3.009  0.4969  0.1469  0.1424
 3633TIP3    H132534   5.750   0.768   3.087  0.8996  0.7027 -0.0909
 3633TIP3    H232535   5.733   0.846   2.959  0.6319 -0.6281 -0.8814
 3634TIP3   OH232536   2.225   2.217   8.184 -0.1008 -0.2804 -0.2356
 3634TIP3    H132537   2.285   2.173   8.124  0.0637  0.1074 -0.3574
 3634TIP3    H232538   2.276   2.231   8.264  0.0438  0.2390 -0.4128
 3635TIP3   OH232539   3.142   2.627   7.106  0.1703 -0.5764 -0.1792
 3635TIP3    H132540   3.106   2.702   7.153  0.0583 -0.2955 -0.7027
 3635TIP3    H232541   3.237   2.637   7.112  0.2523 -1.9674  2.2509
 3636TIP3   OH232542   1.046   0.411   8.501  0.2235  0.1113  0.4259
 3636TIP3    H132543   0.984   0.483   8.508 -1.3391 -0.8804 -2.0679
 3636TIP3    H232544   1.011   0.344   8.560 -1.1932 -0.4569 -0.9962
 3637TIP3   OH232545   3.496   4.419   2.666 -0.5196 -0.2449  0.2085
 3637TIP3    H132546   3.585   4.453   2.656 -1.1818  1.1222 -1.5317
 3637TIP3    H232547   3.466   4.454   2.750 -0.5458  2.1054 -0.7035
 3638TIP3   OH232548   0.255   2.318   8.667  0.3823 -0.2810 -0.1380
 3638TIP3    H132549   0.207   2.400   8.656  1.1278  0.0929 -0.7242
 3638TIP3    H232550   0.198   2.251   8.630  0.3005  0.1513 -0.8163
 3639TIP3   OH232551   0.554   5.954   8.204 -0.7103  0.2114  0.0793
 3639TIP3    H132552   0.551   5.881   8.142  1.2702  0.3175 -0.2004
 3639TIP3    H232553   0.647   5.970   8.217 -1.0584  3.1511 -0.3916
 3640TIP3   OH232554   5.929   3.326   1.053 -0.1624 -0.4775 -0.5785
 3640TIP3    H132555   5.931   3.387   0.980 -0.7239  0.7539  0.3987
 3640TIP3    H232556   5.870   3.256   1.025 -0.5730  0.1114 -1.1966
 3641TIP3   OH232557   2.832   1.682   1.601  0.6463 -0.2617  0.2636
 3641TIP3    H132558   2.903   1.723   1.651  0.2016 -0.7888  1.3539
 3641TIP3    H232559   2.868   1.597   1.576  0.0712 -0.9655  1.7077
 3642TIP3   OH232560   3.089   6.208   7.690  0.4491  0.7798 -0.0409
 3642TIP3    H132561   3.024   6.137   7.690 -0.2902  1.4192  1.2365
 3642TIP3    H232562   3.139   6.194   7.610 -0.2651 -0.6502 -0.2845
 3643TIP3   OH232563   1.847   5.703   1.502 -0.4107  0.5627  0.3908
 3643TIP3    H132564   1.753   5.686   1.500 -0.4486  0.4740  1.9336
 3643TIP3    H232565   1.883   5.646   1.433 -1.2505 -1.1043  1.2550
 3644TIP3   OH232566   3.018   6.049   0.151 -0.2627  0.1908  0.0105
 3644TIP3    H132567   3.083   5.981   0.131 -0.7333 -0.2101 -0.1811
 3644TIP3    H232568   3.019   6.056   0.246  1.2686  1.3975 -0.0573
 3645TIP3   OH232569   5.523   6.022   1.339 -0.2779  0.1927  0.1860
 3645TIP3    H132570   5.494   6.023   1.248 -0.5425 -0.1405  0.2643
 3645TIP3    H232571   5.524   6.115   1.364  1.5979  0.4522 -0.7062
 3646TIP3   OH232572   1.202   4.341   0.680 -0.1297 -0.4655  0.4447
 3646TIP3    H132573   1.262   4.412   0.656 -2.1595  1.5105  0.8827
 3646TIP3    H232574   1.168   4.309   0.596  0.0736 -0.2715  0.2870
 3647TIP3   OH232575   1.715   2.106   1.939  0.4242  0.2398 -0.1207
 3647TIP3    H132576   1.809   2.114   1.950  0.9001  0.4553 -3.3591
 3647TIP3    H232577   1.686   2.194   1.914 -0.0423 -0.4533 -2.2280
 3648TIP3   OH232578   2.942   4.401   7.559  0.0705  0.2825 -0.6499
 3648TIP3    H132579   2.914   4.421   7.470 -2.1386  0.4581  0.0165
 3648TIP3    H232580   2.924   4.308   7.570 -1.3437  0.6194  0.1262
 3649TIP3   OH232581   1.011   5.256   8.207  1.0519 -0.0596 -0.2254
 3649TIP3    H132582   0.923   5.219   8.207  0.5861  0.9475 -1.7689
 3649TIP3    H232583   1.001   5.342   8.165  2.4999  0.7870  1.0581
 3650TIP3   OH232584   0.034   4.347   7.003  0.5319  0.0581  0.0092
 3650TIP3    H132585  -0.006   4.296   6.932  1.9827 -1.6385  0.3444
 3650TIP3    H232586  -0.038   4.400   7.038 -0.8929 -1.2611 -0.8133
 3651TIP3   OH232587   1.777   3.911   3.156 -0.5165 -0.0156  0.0983
 3651TIP3    H132588   1.851   3.948   3.205 -1.3714 -0.1866  1.5615
 3651TIP3    H232589   1.708   3.899   3.221 -2.2940  1.2884 -1.4358
 3652TIP3   OH232590   1.699   4.841   0.735 -0.2040  0.3242 -0.3076
 3652TIP3    H132591   1.626   4.823   0.794  1.1317 -0.3311  1.2134
 3652TIP3    H232592   1.659   4.847   0.648 -1.7529 -2.6938  0.0670
 3653TIP3   OH232593   5.825   4.750   8.031  0.6363 -0.3624 -0.2334
 3653TIP3    H132594   5.777   4.812   8.085 -1.2655 -1.6019 -0.4167
 3653TIP3    H232595   5.841   4.675   8.090  1.4363 -0.3954 -0.4810
 3654TIP3   OH232596   4.203   4.303   2.322 -0.2819 -0.2107 -0.3517
 3654TIP3    H132597   4.175   4.214   2.300 -0.5108 -0.1812 -0.1850
 3654TIP3    H232598   4.126   4.356   2.309 -0.4023 -0.1784  0.4246
 3655TIP3   OH232599   3.638   2.297   2.245 -0.4948  0.0306 -0.5597
 3655TIP3    H132600   3.702   2.292   2.316  0.1730  2.3739 -0.9103
 3655TIP3    H232601   3.553   2.282   2.287  0.1011 -1.3240  0.2226
 3656TIP3   OH232602   0.707   6.250   0.559 -0.0049  0.1182  0.2641
 3656TIP3    H132603   0.749   6.325   0.601  0.6978 -0.2289  0.2035
 3656TIP3    H232604   0.614   6.264   0.573  0.2031 -0.1711  2.2955
 3657TIP3   OH232605   0.626   6.386   7.954  0.4868 -0.3869 -0.5910
 3657TIP3    H132606   0.645   6.337   7.874  0.9560 -0.8131 -0.2200
 3657TIP3    H232607   0.652   6.328   8.025  1.1305  0.4257 -0.1461
 3658TIP3   OH232608   3.021   4.994   1.886  0.7438  0.3490 -0.4742
 3658TIP3    H132609   2.982   4.917   1.843  0.3237 -0.2462  0.9038
 3658TIP3    H232610   3.111   4.967   1.906  0.3937 -0.0681  0.6219
 3659TIP3   OH232611   5.760   6.529   0.124 -0.5991 -0.1280 -0.6080
 3659TIP3    H132612   5.742   6.622   0.110 -0.9476 -0.0300  0.4461
 3659TIP3    H232613   5.852   6.519   0.099 -0.6121  0.4584 -0.9136
 3660TIP3   OH232614   6.089   1.993   7.780 -0.2314  0.1746 -0.1145
 3660TIP3    H132615   6.076   1.995   7.875 -0.3548 -0.3329 -0.1179
 3660TIP3    H232616   6.007   1.958   7.746 -1.3762  3.1125 -0.6485
 3661TIP3   OH232617   5.391   2.749   1.627 -0.3279  0.0984  0.0519
 3661TIP3    H132618   5.299   2.768   1.613 -0.7385  0.7260  2.9925
 3661TIP3    H232619   5.391   2.670   1.682  1.0047 -1.1297 -1.5968
 3662TIP3   OH232620   0.072   6.595   2.014 -0.3740  0.0881  0.0670
 3662TIP3    H132621  -0.010   6.583   2.060  0.2222 -3.7739  0.4483
 3662TIP3    H232622   0.050   6.581   1.922 -0.0438 -2.1919  0.2873
 3663TIP3   OH232623   6.578   4.103   2.316  0.3091 -0.2335 -0.5603
 3663TIP3    H132624   6.638   4.120   2.243  0.3029  1.4220 -0.2226
 3663TIP3    H232625   6.491   4.101   2.276  0.2896  0.8317 -0.6099
 3664TIP3   OH232626   3.998   2.243   7.391  0.5211 -0.4041  0.1775
 3664TIP3    H132627   4.052   2.200   7.325 -0.1586 -0.9484 -0.0402
 3664TIP3    H232628   3.971   2.325   7.351  1.3427 -0.0297  0.3668
 3665TIP3   OH232629   5.361   5.993   2.875 -0.1642  0.0892 -0.8562
 3665TIP3    H132630   5.314   5.914   2.900  1.7983 -0.5768  1.1305
 3665TIP3    H232631   5.384   5.980   2.783 -0.5210 -1.3292 -0.7581
 3666TIP3   OH232632   4.054   4.974   6.880 -0.4076  0.5050 -0.0603
 3666TIP3    H132633   4.135   5.023   6.896  0.9712 -1.9257  0.9240
 3666TIP3    H232634   4.070   4.928   6.797 -0.9488  0.2774 -0.0407
 3667TIP3   OH232635   6.006   5.103   1.795 -0.1090 -0.3551 -0.6671
 3667TIP3    H132636   6.049   5.187   1.776 -0.8124  0.6120  1.7464
 3667TIP3    H232637   5.963   5.080   1.713 -0.0461  1.7316 -1.3496
 3668TIP3   OH232638   6.192   6.656   0.375  0.3670  0.2856 -0.2398
 3668TIP3    H132639   6.222   6.565   0.377 -1.5079 -0.3703 -0.5702
 3668TIP3    H232640   6.143   6.667   0.456  0.0459  0.8154 -0.5018
 3669TIP3   OH232641   6.131   2.774   2.296  0.0019 -0.2565  0.5664
 3669TIP3    H132642   6.134   2.705   2.230 -2.9237 -1.7871  1.8145
 3669TIP3    H232643   6.078   2.844   2.256 -0.3130 -0.4410  0.6556
 3670TIP3   OH232644   1.971   3.029   8.334 -0.2217 -0.0951  0.0334
 3670TIP3    H132645   1.877   3.039   8.351  0.2446  2.7702  1.6396
 3670TIP3    H232646   2.005   2.987   8.413  0.1096  1.0866  0.5552
 3671TIP3   OH232647   3.854   0.058   1.139  0.7295  0.2837 -0.0805
 3671TIP3    H132648   3.838  -0.030   1.173  0.1930 -0.3286 -1.8107
 3671TIP3    H232649   3.783   0.110   1.175 -0.4529 -0.5870 -1.0745
 3672TIP3   OH232650   2.444   0.435   0.557  1.1461 -0.4559 -0.0509
 3672TIP3    H132651   2.388   0.489   0.501  3.2606  0.6987 -1.1659
 3672TIP3    H232652   2.466   0.493   0.630  0.0234 -1.2895  0.9831
 3673TIP3   OH232653   1.493   0.229   0.990 -0.0737 -0.4578  0.1193
 3673TIP3    H132654   1.411   0.194   1.027 -0.4218  0.3925  0.1789
 3673TIP3    H232655   1.518   0.299   1.050  0.6895 -0.6832  0.0758
 3674TIP3   OH232656   6.747   5.424   3.387 -0.5244  0.0382 -0.0514
 3674TIP3    H132657   6.717   5.510   3.357 -0.4606 -0.8227 -2.8556
 3674TIP3    H232658   6.674   5.389   3.438 -1.1612  1.1438 -0.1780
 3675TIP3   OH232659   3.784   2.830   1.645  0.6539 -0.2029  0.2619
 3675TIP3    H132660   3.779   2.781   1.726  1.9023 -0.9408 -0.0758
 3675TIP3    H232661   3.711   2.798   1.592  0.8027 -0.9110  0.4774
 3676TIP3   OH232662   5.023   1.700   8.303  0.4722  0.1241 -0.0366
 3676TIP3    H132663   4.989   1.610   8.304 -0.1973  0.3671 -0.0728
 3676TIP3    H232664   5.094   1.699   8.240 -1.0060  0.1330 -1.7960
 3677TIP3   OH232665   4.643   0.208   2.503  0.6346 -1.0152  0.0757
 3677TIP3    H132666   4.681   0.237   2.420  0.6969  1.2991  0.8567
 3677TIP3    H232667   4.594   0.129   2.480 -0.4725  0.2870 -2.4379
 3678TIP3   OH232668   3.151   3.751   0.134  0.7081 -0.0126 -0.1555
 3678TIP3    H132669   3.217   3.706   0.188  0.0514  0.3642  0.9930
 3678TIP3    H232670   3.068   3.712   0.161  0.5130 -1.5605 -2.6574
 3679TIP3   OH232671   4.546   6.031   3.243  0.2079 -0.1561 -0.1055
 3679TIP3    H132672   4.479   6.007   3.179 -0.5938  0.4376  0.4799
 3679TIP3    H232673   4.628   6.001   3.205 -0.6159 -3.1349  0.2465
 3680TIP3   OH232674   5.425   2.474   7.228  0.2054  0.0504 -0.1112
 3680TIP3    H132675   5.386   2.386   7.232 -0.8725  0.5766  2.0230
 3680TIP3    H232676   5.361   2.526   7.180  0.8495 -0.2718 -1.3868
 3681TIP3   OH232677   2.660   6.227   2.636  0.1046 -0.5928 -0.5665
 3681TIP3    H132678   2.679   6.142   2.676  1.2831  0.0279  0.2555
 3681TIP3    H232679   2.572   6.216   2.599  0.0780 -2.0500 -0.1719
 3682TIP3   OH232680   4.430   4.380   8.214  0.3264 -0.6462 -0.4271
 3682TIP3    H132681   4.400   4.382   8.123  0.5322 -0.8907 -0.5000
 3682TIP3    H232682   4.489   4.305   8.219 -1.9922 -2.5551  0.6135
 3683TIP3   OH232683   4.343   5.061   7.442  0.3608  0.0160  0.2414
 3683TIP3    H132684   4.296   5.003   7.503 -1.3066 -1.5201 -2.3258
 3683TIP3    H232685   4.398   5.115   7.499 -0.1518 -2.1193  3.0038
 3684TIP3   OH232686   5.600   3.577   1.878  0.4037  0.5481 -0.8025
 3684TIP3    H132687   5.625   3.634   1.951 -2.7779  1.2238 -0.1097
 3684TIP3    H232688   5.584   3.492   1.919 -0.9390  0.8107 -0.7561
 3685TIP3   OH232689   6.878   2.831   1.283  0.0026  0.1117 -0.6226
 3685TIP3    H132690   6.963   2.788   1.296  0.5329  1.4128  0.5423
 3685TIP3    H232691   6.814   2.761   1.288  0.9984 -0.9097 -1.5582
 3686TIP3   OH232692   0.898   2.595   2.955  0.7673 -0.5934 -0.4788
 3686TIP3    H132693   0.820   2.628   3.001  0.1113  0.5892 -2.3179
 3686TIP3    H232694   0.972   2.631   3.003  0.0905  1.4664 -0.8963
 3687TIP3   OH232695   6.067   2.360   1.194 -0.9067 -0.5392  0.3569
 3687TIP3    H132696   6.097   2.339   1.282  0.2552 -1.5218 -0.2435
 3687TIP3    H232697   6.062   2.456   1.192  0.4135 -0.4263  1.0768
 3688TIP3   OH232698   1.279   0.163   1.167 -0.1329 -0.2731 -0.5574
 3688TIP3    H132699   1.285   0.155   1.262  2.7075  0.5837 -0.5817
 3688TIP3    H232700   1.290   0.074   1.134 -1.0255 -0.5567 -0.1226
 3689TIP3   OH232701   0.688   6.039   1.074  0.4620 -0.3073  0.3187
 3689TIP3    H132702   0.635   5.963   1.099 -1.0532  0.8636  0.8061
 3689TIP3    H232703   0.699   6.089   1.154  0.9324  0.2972 -0.1133
 3690TIP3   OH232704   5.925   0.432   7.677  0.7171  1.0315 -0.1534
 3690TIP3    H132705   5.876   0.512   7.660 -0.8172  0.3485  0.8272
 3690TIP3    H232706   5.895   0.370   7.611  0.8504  0.8388 -0.0340
 3691TIP3   OH232707   0.297   1.100   2.423 -0.1573  0.0539 -0.0446
 3691TIP3    H132708   0.339   1.027   2.377 -0.0550  1.3062 -2.0850
 3691TIP3    H232709   0.208   1.102   2.388  0.1852  1.5730 -0.9295
 3692TIP3   OH232710   5.442   0.648   0.862 -0.3979  0.5018  0.0365
 3692TIP3    H132711   5.431   0.710   0.790  1.2146  0.4295 -0.3135
 3692TIP3    H232712   5.536   0.627   0.861 -0.7038 -1.0128  0.9182
 3693TIP3   OH232713   1.237   5.247   2.192 -0.1149 -0.0268 -0.0871
 3693TIP3    H132714   1.214   5.339   2.208  0.5939  0.3189 -0.9406
 3693TIP3    H232715   1.180   5.197   2.250 -0.2842  0.9707  0.6331
 3694TIP3   OH232716   2.395   6.465   2.647  0.2929 -0.1313 -0.3768
 3694TIP3    H132717   2.372   6.507   2.563  0.8886 -0.9859 -0.9814
 3694TIP3    H232718   2.459   6.524   2.686 -0.2681  0.4680 -0.3396
 3695TIP3   OH232719   2.780   2.905   7.954 -0.2630  0.4694  0.0705
 3695TIP3    H132720   2.783   2.886   7.860 -1.7866 -0.6979  0.2100
 3695TIP3    H232721   2.710   2.849   7.987  1.9480 -1.1508  2.3762
 3696TIP3   OH232722   0.722   2.811   0.770 -0.1596  0.1562  0.1066
 3696TIP3    H132723   0.734   2.763   0.689  0.3783  0.6153 -0.0889
 3696TIP3    H232724   0.809   2.813   0.810 -0.5857 -0.8490  1.1473
 3697TIP3   OH232725   1.055   3.763   2.529 -0.2145  0.2345 -0.5454
 3697TIP3    H132726   1.095   3.833   2.581 -1.6704 -0.5845  1.8459
 3697TIP3    H232727   1.125   3.732   2.472  1.5572  1.1175  1.0478
 3698TIP3   OH232728   0.604   0.481   8.481 -0.5992  0.1161 -0.1811
 3698TIP3    H132729   0.573   0.570   8.499  1.5225  1.2062 -1.6109
 3698TIP3    H232730   0.605   0.475   8.386 -0.4229 -1.3687 -0.1025
 3699TIP3   OH232731   2.346   1.279   2.040  0.3798 -0.3908 -0.1999
 3699TIP3    H132732   2.432   1.314   2.015  0.6429 -1.3836 -0.7406
 3699TIP3    H232733   2.290   1.356   2.046  1.1559  0.2108 -0.4820
 3700TIP3   OH232734   1.163   4.668   2.457 -0.5365 -0.3919 -0.0914
 3700TIP3    H132735   1.137   4.758   2.478  1.4051  0.2212 -0.0935
 3700TIP3    H232736   1.135   4.656   2.366  0.0257  0.5577 -0.4020
 3701TIP3   OH232737   1.824   0.546   7.562  0.5071 -0.6429  0.0149
 3701TIP3    H132738   1.768   0.624   7.558 -0.7569 -1.5696 -2.2641
 3701TIP3    H232739   1.766   0.477   7.594  1.0447 -1.0833  0.0340
 3702TIP3   OH232740   2.199   4.064   0.911 -0.0688 -0.3318  0.4738
 3702TIP3    H132741   2.289   4.057   0.946  0.5016  0.9742 -0.6319
 3702TIP3    H232742   2.162   4.139   0.958 -0.0639  0.0573 -0.1440
 3703TIP3   OH232743   2.490   4.254   8.574  0.0359  0.1500  0.0822
 3703TIP3    H132744   2.461   4.340   8.544  1.0048 -0.1336 -1.8007
 3703TIP3    H232745   2.559   4.272   8.638  1.1806  0.8330 -1.2815
 3704TIP3   OH232746   3.201   2.062   7.962  0.0392  0.0007 -0.0007
 3704TIP3    H132747   3.278   2.080   8.016  0.0459  0.0381 -0.0226
 3704TIP3    H232748   3.218   2.109   7.880  0.8293 -1.4471 -0.7021
 3705TIP3   OH232749   4.673   0.223   1.583  1.1111 -0.1048  1.0421
 3705TIP3    H132750   4.724   0.167   1.641  1.3795 -0.5472  0.3878
 3705TIP3    H232751   4.596   0.170   1.559  1.1160 -0.0134  0.8154
 3706TIP3   OH232752   4.343   4.740   2.981  0.7621 -0.2384 -0.4037
 3706TIP3    H132753   4.267   4.791   3.009  0.3319 -1.3347  0.5236
 3706TIP3    H232754   4.316   4.649   2.995  2.2670 -0.6445  0.0109
 3707TIP3   OH232755   4.096   3.330   8.010  0.2181  0.1447  0.2627
 3707TIP3    H132756   4.062   3.392   7.945  2.1559  0.8701 -0.1206
 3707TIP3    H232757   4.143   3.385   8.073  1.0749 -0.8555  0.5141
 3708TIP3   OH232758   3.812   0.844   2.110  0.6959 -0.2522 -0.5136
 3708TIP3    H132759   3.881   0.784   2.137 -0.2433 -1.0000  0.3116
 3708TIP3    H232760   3.731   0.804   2.142 -0.0343  1.0585 -0.6301
 3709TIP3   OH232761   0.390   4.373   1.836  0.0163 -0.4446 -0.3527
 3709TIP3    H132762   0.325   4.366   1.906 -0.4802 -0.2621 -0.7880
 3709TIP3    H232763   0.444   4.294   1.845  0.2124 -0.2238  0.4835
 3710TIP3   OH232764   1.773   3.988   8.592 -0.0612  0.4982 -0.6208
 3710TIP3    H132765   1.824   3.977   8.672  1.7495  0.7868 -1.6719
 3710TIP3    H232766   1.685   3.960   8.615  0.6577 -0.4261  1.1736
 3711TIP3   OH232767   2.600   5.419   7.691  0.9116 -0.1267  0.3379
 3711TIP3    H132768   2.654   5.419   7.612  2.4301 -2.4379  1.2842
 3711TIP3    H232769   2.567   5.330   7.699 -1.7883  0.7959  0.7266
 3712TIP3   OH232770   6.267   0.804   8.365 -0.0581  0.0195 -0.4297
 3712TIP3    H132771   6.195   0.745   8.341  1.1613 -1.0414 -1.6172
 3712TIP3    H232772   6.335   0.747   8.400  1.4976  0.5450 -2.4234
 3713TIP3   OH232773   4.061   2.259   0.691  0.2177  0.1818 -0.5022
 3713TIP3    H132774   3.990   2.283   0.631 -0.0255 -0.1910 -0.3658
 3713TIP3    H232775   4.128   2.221   0.635  0.1559  0.1968 -0.5861
 3714TIP3   OH232776   2.075   4.215   1.121 -0.5525  0.1338  0.3125
 3714TIP3    H132777   2.108   4.284   1.178  2.1832 -0.7473 -0.0295
 3714TIP3    H232778   2.035   4.152   1.180  0.6566  0.0735  1.0906
 3715TIP3   OH232779   1.658   2.081   0.174  0.4871 -0.5076 -0.2129
 3715TIP3    H132780   1.693   2.151   0.119  0.6415  0.2317  0.8026
 3715TIP3    H232781   1.642   2.009   0.113 -0.7241  0.7641 -1.4945
 3716TIP3   OH232782   3.767   4.171   1.691 -0.0507  0.2291 -0.8283
 3716TIP3    H132783   3.690   4.190   1.745  0.9623  1.3183  0.3060
 3716TIP3    H232784   3.812   4.255   1.682  0.9202 -0.3489 -1.6181
 3717TIP3   OH232785   5.830   3.933   8.331  0.0554 -0.4142 -0.4622
 3717TIP3    H132786   5.756   3.993   8.321  1.5424  1.7521  0.6722
 3717TIP3    H232787   5.791   3.846   8.326 -2.2217  0.6082 -2.1171
 3718TIP3   OH232788   0.457   5.630   7.466 -0.4230  0.0282  0.4965
 3718TIP3    H132789   0.449   5.615   7.372 -1.4678 -1.8416  0.8401
 3718TIP3    H232790   0.540   5.589   7.490 -1.9894 -3.2007  0.9660
 3719TIP3   OH232791   1.301   3.316   7.935  0.0763 -0.2307 -0.3015
 3719TIP3    H132792   1.308   3.351   8.024  0.7268  1.1676 -0.8646
 3719TIP3    H232793   1.208   3.295   7.925  0.2188 -1.8284  1.1827
 3720TIP3   OH232794   6.295   4.234   8.406 -0.4837  0.4633 -0.5643
 3720TIP3    H132795   6.319   4.156   8.355 -0.5130  0.3173 -0.3562
 3720TIP3    H232796   6.291   4.203   8.496  0.6384  0.9547 -0.3217
 3721TIP3   OH232797   1.700   2.544   1.233 -0.3611  0.7869 -0.4971
 3721TIP3    H132798   1.664   2.554   1.321 -1.7956 -0.3114 -0.9319
 3721TIP3    H232799   1.629   2.569   1.174 -0.0903 -0.4266 -1.3745
 3722TIP3   OH232800   3.559   2.510   2.651 -0.3120 -0.1305 -0.1952
 3722TIP3    H132801   3.606   2.535   2.572  0.3518  0.1096  0.2728
 3722TIP3    H232802   3.495   2.446   2.621 -0.3851  0.3110 -1.0019
 3723TIP3   OH232803   6.316   4.553   0.122  0.3731 -0.2064  0.0806
 3723TIP3    H132804   6.406   4.584   0.130  0.1701  0.3845  0.2031
 3723TIP3    H232805   6.321   4.458   0.131  0.9241 -0.1309  0.6271
 3724TIP3   OH232806   1.016   5.406   1.645  0.1842  0.6974  0.2147
 3724TIP3    H132807   0.996   5.462   1.720 -0.6789  0.9665 -0.2023
 3724TIP3    H232808   0.992   5.458   1.569  3.0456  1.2663 -0.3896
 3725TIP3   OH232809   4.990   2.289   2.433 -0.2622 -0.8677  0.3389
 3725TIP3    H132810   4.904   2.247   2.437 -0.9369  0.0504 -2.4371
 3725TIP3    H232811   4.986   2.358   2.499 -2.1239 -0.1168 -0.4847
 3726TIP3   OH232812   6.142   5.109   2.185 -0.4074 -0.1580  0.1345
 3726TIP3    H132813   6.158   5.050   2.112  0.8921  1.8042 -1.2716
 3726TIP3    H232814   6.049   5.128   2.181 -0.2578  0.3581 -1.3962
 3727TIP3   OH232815   4.770   0.330   2.293  0.2796  0.2679  0.3317
 3727TIP3    H132816   4.731   0.408   2.331 -1.2026 -0.3027  0.0566
 3727TIP3    H232817   4.846   0.312   2.348  0.0403  1.3011  1.0265
 3728TIP3   OH232818   3.587   6.813   2.428 -0.6677  0.3033  0.1419
 3728TIP3    H132819   3.596   6.720   2.407 -0.2623  0.7205 -1.7512
 3728TIP3    H232820   3.614   6.858   2.348  0.0899  2.0923  1.3454
 3729TIP3   OH232821   0.448   5.329   1.215  0.2542 -0.0231  0.0099
 3729TIP3    H132822   0.538   5.310   1.190 -0.2970 -2.5816 -0.2438
 3729TIP3    H232823   0.403   5.341   1.131 -0.2057 -1.7164 -0.0108
 3730TIP3   OH232824   0.586   6.449   2.977  0.6152  0.5240  0.7636
 3730TIP3    H132825   0.631   6.396   2.911  0.0464  3.4648 -2.2764
 3730TIP3    H232826   0.645   6.523   2.992 -0.4643  1.2602  1.4777
 3731TIP3   OH232827   5.272   0.994   0.528 -0.7064 -0.0610  0.3758
 3731TIP3    H132828   5.202   0.996   0.464 -0.9928 -1.7731  0.5793
 3731TIP3    H232829   5.268   0.906   0.566 -0.7085  0.9487  2.9244
 3732TIP3   OH232830   4.196   4.918   8.569 -0.2217 -0.2612  0.1476
 3732TIP3    H132831   4.187   4.966   8.651  2.9673 -1.3646  1.3145
 3732TIP3    H232832   4.221   4.984   8.505  1.0106  0.1540  1.0131
 3733TIP3   OH232833   5.356   4.889   7.213 -0.5216 -0.1940  0.1830
 3733TIP3    H132834   5.441   4.846   7.203 -0.1053  0.4586  0.8033
 3733TIP3    H232835   5.303   4.825   7.261 -0.2152 -0.4048  0.2459
 3734TIP3   OH232836   3.748   0.403   7.253  0.3744  0.2020 -0.1056
 3734TIP3    H132837   3.707   0.465   7.313  1.4348  0.8311 -0.0072
 3734TIP3    H232838   3.758   0.451   7.171 -0.3585 -0.4027 -0.5536
 3735TIP3   OH232839   4.985   4.790   2.696 -0.8381  0.2544  0.2138
 3735TIP3    H132840   4.938   4.734   2.757  2.0281 -1.8260  0.6911
 3735TIP3    H232841   4.992   4.737   2.616 -0.2664  0.9685 -0.2152
 3736TIP3   OH232842   0.735   6.149   7.860 -0.5159 -0.1468 -0.6875
 3736TIP3    H132843   0.826   6.160   7.889 -0.8428  0.9406 -0.0197
 3736TIP3    H232844   0.737   6.072   7.803  0.5700 -0.9766  0.4315
 3737TIP3   OH232845   3.926   4.862   7.819  1.0018 -0.4011  0.1074
 3737TIP3    H132846   3.862   4.923   7.782 -0.2069 -1.6199  0.1180
 3737TIP3    H232847   3.987   4.917   7.868  0.3808  0.8550 -0.5026
 3738TIP3   OH232848   6.370   4.608   8.209 -0.3005 -0.0626 -0.1235
 3738TIP3    H132849   6.314   4.672   8.165  0.6680  1.4134  0.6994
 3738TIP3    H232850   6.451   4.609   8.159 -0.3855 -0.8889 -0.2813
 3739TIP3   OH232851   4.804   1.035   7.295  0.3909  0.2196  0.4350
 3739TIP3    H132852   4.741   0.967   7.272 -1.1712  0.8690  2.5353
 3739TIP3    H232853   4.759   1.117   7.274  1.4605  0.6733 -0.1777
 3740TIP3   OH232854   0.780   4.238   2.278 -0.3861  0.0945 -0.4801
 3740TIP3    H132855   0.744   4.283   2.355  1.2523  1.9021 -0.6793
 3740TIP3    H232856   0.869   4.215   2.303 -0.4289 -0.9762 -1.2333
 3741TIP3   OH232857   2.256   2.742   2.365 -0.5707  0.3963 -0.0837
 3741TIP3    H132858   2.323   2.675   2.358 -1.7403 -0.8503  0.2883
 3741TIP3    H232859   2.196   2.725   2.292 -1.0818  0.8071  0.2298
 3742TIP3   OH232860   5.127   2.393   0.133 -0.1159  0.2916 -0.6534
 3742TIP3    H132861   5.045   2.425   0.172  0.0662  0.1547 -0.1520
 3742TIP3    H232862   5.100   2.357   0.048 -0.2315  2.3805 -1.5832
 3743TIP3   OH232863   2.822   3.930   0.069 -0.0861 -0.4267 -0.0980
 3743TIP3    H132864   2.742   3.975   0.094 -0.4344 -2.1539  2.1617
 3743TIP3    H232865   2.793   3.850   0.026  0.5237  0.5563 -2.5226
 3744TIP3   OH232866   6.149   6.865   2.063 -0.3918  0.2764  0.5993
 3744TIP3    H132867   6.082   6.858   2.131 -0.2602  0.3144  0.7323
 3744TIP3    H232868   6.145   6.956   2.035  1.4129  0.9955  2.4619
 3745TIP3   OH232869   1.357   0.713   2.885  0.3266  0.3125 -0.2449
 3745TIP3    H132870   1.412   0.754   2.819 -3.0436  2.7451 -1.8903
 3745TIP3    H232871   1.280   0.682   2.837 -2.7438  3.0158  2.3796
 3746TIP3   OH232872   2.024   4.194   1.481 -0.0146 -0.4905  0.2467
 3746TIP3    H132873   2.031   4.250   1.558  1.0513  0.3007 -0.3999
 3746TIP3    H232874   2.103   4.140   1.484  0.8562  0.6402 -1.0992
 3747TIP3   OH232875   2.170   3.792   1.337  0.1115 -0.3415  0.2862
 3747TIP3    H132876   2.076   3.792   1.355  0.3112 -0.3652  1.4041
 3747TIP3    H232877   2.194   3.699   1.333  0.3513 -0.3652  1.6116
 3748TIP3   OH232878   6.497   1.385   2.091  0.0231  0.1691 -0.1653
 3748TIP3    H132879   6.579   1.359   2.049 -0.0131  1.1750 -0.9074
 3748TIP3    H232880   6.459   1.449   2.031 -0.1432  1.4988  1.2843
 3749TIP3   OH232881   5.200   2.597   7.971  0.0324  0.0116 -0.1916
 3749TIP3    H132882   5.253   2.569   7.897 -0.7262 -0.9744 -0.3802
 3749TIP3    H232883   5.153   2.674   7.939  1.9918  1.4712  0.2728
 3750TIP3   OH232884   6.290   2.840   3.219 -0.3718  0.1084 -0.1161
 3750TIP3    H132885   6.210   2.818   3.266 -0.3239  0.1708 -0.0032
 3750TIP3    H232886   6.260   2.867   3.132 -0.4813  0.2268 -0.0422
 3751TIP3   OH232887   1.916   3.812   0.233  0.6465  0.4112 -1.0446
 3751TIP3    H132888   1.933   3.891   0.283 -0.4919 -0.4194  0.7782
 3751TIP3    H232889   2.000   3.790   0.193  1.1096  2.2013 -1.1374
 3752TIP3   OH232890   1.580   3.882   1.652  0.2413  0.4999  0.5265
 3752TIP3    H132891   1.638   3.910   1.723  0.5624 -0.2750  0.5714
 3752TIP3    H232892   1.628   3.813   1.607 -0.2652  0.4855 -0.0018
 3753TIP3   OH232893   2.191   5.493   8.294 -0.5842  0.0515  0.2779
 3753TIP3    H132894   2.224   5.582   8.303 -1.6482  0.3010  2.0939
 3753TIP3    H232895   2.208   5.452   8.378  3.4216 -2.8321 -1.5733
 3754TIP3   OH232896   6.377   4.048   0.482  1.0525 -0.5817  0.0914
 3754TIP3    H132897   6.340   4.078   0.565  0.5120 -1.2799  0.1147
 3754TIP3    H232898   6.395   3.955   0.497 -0.1163 -0.9864 -0.9386
 3755TIP3   OH232899   2.927   3.890   8.258  0.3537  0.0058 -0.7192
 3755TIP3    H132900   2.957   3.976   8.229 -0.1230  0.7993  1.0018
 3755TIP3    H232901   2.834   3.888   8.233  0.0781  0.4769  0.1970
 3756TIP3   OH232902   4.581   5.457   1.635  0.7130 -0.1327  0.1553
 3756TIP3    H132903   4.622   5.417   1.712  0.6475 -3.6854 -1.4732
 3756TIP3    H232904   4.487   5.460   1.656  0.7950 -0.2441  0.5396
 3757TIP3   OH232905   4.987   3.457   2.744 -0.1106  0.5739  0.3042
 3757TIP3    H132906   5.014   3.484   2.656  1.3093  0.9916  0.8385
 3757TIP3    H232907   5.001   3.363   2.746 -1.3211  0.3563 -0.2887
 3758TIP3   OH232908   0.504   0.585   2.744  0.0391  0.6632  0.4018
 3758TIP3    H132909   0.440   0.543   2.687  0.8406  0.7400 -0.5748
 3758TIP3    H232910   0.521   0.669   2.702  0.6606  0.7072  0.7431
 3759TIP3   OH232911   1.729   1.209   2.498  0.5356 -0.0795  0.2212
 3759TIP3    H132912   1.663   1.222   2.430 -0.6933 -1.2765  1.1207
 3759TIP3    H232913   1.807   1.180   2.451 -0.2116 -0.6211 -0.7099
 3760TIP3   OH232914   3.123   3.108   8.034 -0.2673  0.4684 -0.2273
 3760TIP3    H132915   3.157   3.098   7.944  0.3511  2.8890 -0.3375
 3760TIP3    H232916   3.081   3.025   8.053 -1.4084  0.2478 -3.2008
 3761TIP3   OH232917   6.072   2.961   0.331 -0.6280  0.4479  0.4291
 3761TIP3    H132918   6.154   3.006   0.351 -1.2190  1.3031  1.0410
 3761TIP3    H232919   6.043   2.926   0.415 -0.8255  0.0486  0.1936
 3762TIP3   OH232920   5.788   6.159   1.381 -0.0673  0.1883 -0.7282
 3762TIP3    H132921   5.702   6.118   1.371 -0.5335  0.9215  0.1713
 3762TIP3    H232922   5.809   6.189   1.292 -0.5005 -0.4297 -1.0568
 3763TIP3   OH232923   3.156   4.678   0.557 -0.0846  0.5962  0.9221
 3763TIP3    H132924   3.188   4.590   0.540 -2.5785  0.0995 -2.0914
 3763TIP3    H232925   3.224   4.736   0.523 -0.8473 -0.3698 -2.6840
 3764TIP3   OH232926   0.674   4.969   7.848  0.0736 -0.0681  0.0887
 3764TIP3    H132927   0.589   4.994   7.883 -0.0665  1.4025 -1.1760
 3764TIP3    H232928   0.655   4.895   7.789 -0.0820 -0.7512  0.9837
 3765TIP3   OH232929   2.946   0.150   0.027  0.1882 -0.3502 -0.3359
 3765TIP3    H132930   2.937   0.158   0.122  0.7063  1.5617 -0.4154
 3765TIP3    H232931   3.026   0.098   0.015  0.7107  0.2858  0.2844
 3766TIP3   OH232932   3.258   3.221   0.779 -0.5676  0.0541 -0.3128
 3766TIP3    H132933   3.262   3.308   0.739 -1.2472  0.5115  0.5671
 3766TIP3    H232934   3.167   3.212   0.808 -0.0086 -0.0185  1.5712
 3767TIP3   OH232935   3.670   2.910   0.469  0.2469  0.3507  0.1134
 3767TIP3    H132936   3.580   2.890   0.496 -0.0751  0.4683 -0.8123
 3767TIP3    H232937   3.680   3.004   0.484 -0.1388  0.5343 -0.7249
 3768TIP3   OH232938   6.745   0.954   2.140  0.0474 -0.0218  0.1789
 3768TIP3    H132939   6.759   0.860   2.137 -0.3427 -0.0511 -1.3340
 3768TIP3    H232940   6.666   0.965   2.193 -0.5832 -0.6338 -0.6154
 3769TIP3   OH232941   6.875   3.290   2.056  0.1265 -0.6550 -0.0726
 3769TIP3    H132942   6.966   3.320   2.059  0.8064 -2.6443  1.0636
 3769TIP3    H232943   6.825   3.359   2.099  1.1689  0.2498 -0.2899
 3770TIP3   OH232944   3.034   2.858   8.042  0.2160 -0.6921  0.4302
 3770TIP3    H132945   2.952   2.889   8.005  0.7407 -0.0628 -0.2517
 3770TIP3    H232946   3.069   2.797   7.977 -0.1426 -1.6851  1.1377
 3771TIP3   OH232947   3.631   1.741   0.231  0.2309 -0.2238 -0.4829
 3771TIP3    H132948   3.609   1.779   0.146  1.3873  1.1179 -0.2178
 3771TIP3    H232949   3.581   1.793   0.294  0.2995 -0.4305 -0.2561
 3772TIP3   OH232950   4.921   3.638   7.870 -0.7636 -0.6883 -0.6038
 3772TIP3    H132951   4.862   3.679   7.807 -1.8021 -1.9613 -0.4978
 3772TIP3    H232952   4.871   3.565   7.905 -0.1528 -0.0967  1.6184
 3773TIP3   OH232953   3.020   5.951   0.763 -0.6205 -0.2316 -0.3817
 3773TIP3    H132954   3.084   6.007   0.720  0.5245 -1.2007 -0.0150
 3773TIP3    H232955   3.014   5.874   0.706 -0.7888 -0.5408  0.0532
 3774TIP3   OH232956   4.789   3.294   2.598 -0.2030  0.5544 -0.2609
 3774TIP3    H132957   4.762   3.283   2.689 -1.0898 -1.2025 -0.6878
 3774TIP3    H232958   4.708   3.315   2.551 -0.3501 -1.5165 -1.0544
 3775TIP3   OH232959   1.074   0.598   7.297 -0.8919 -0.5388  0.1876
 3775TIP3    H132960   1.098   0.689   7.313 -0.6149 -0.9520  2.3509
 3775TIP3    H232961   1.150   0.561   7.252 -0.0931 -0.2503  1.2815
 3776TIP3   OH232962   5.391   0.328   1.308 -0.2564  0.0942  0.0923
 3776TIP3    H132963   5.411   0.419   1.289  1.3290  0.3222  2.4828
 3776TIP3    H232964   5.437   0.278   1.240 -1.5433  0.9978 -1.5384
 3777TIP3   OH232965   2.511   5.462   1.730 -0.4039 -0.0021 -0.4680
 3777TIP3    H132966   2.543   5.412   1.655  3.8605  2.3289 -0.5179
 3777TIP3    H232967   2.486   5.547   1.693  0.5874  0.7559  0.5380
 3778TIP3   OH232968   2.112   1.733   7.648 -0.2114 -0.1408  0.3076
 3778TIP3    H132969   2.103   1.750   7.555 -0.6149 -1.1716  0.1461
 3778TIP3    H232970   2.033   1.771   7.687 -0.4846 -0.4899  0.1078
 3779TIP3   OH232971   1.333   3.617   0.622  0.0784 -0.1605 -0.7013
 3779TIP3    H132972   1.292   3.665   0.694  1.4708  1.6796 -1.0462
 3779TIP3    H232973   1.409   3.574   0.662 -0.6670 -1.3591 -0.5659
 3780TIP3   OH232974   5.273   1.589   0.176 -0.1239 -0.1934  0.0357
 3780TIP3    H132975   5.342   1.564   0.238 -0.0893 -0.4199 -0.0927
 3780TIP3    H232976   5.254   1.680   0.198 -0.7140 -0.5144  0.9417
 3781TIP3   OH232977   4.252   4.177   2.069 -0.1400 -0.0827  0.0854
 3781TIP3    H132978   4.340   4.216   2.067 -0.0677 -0.2151  0.6032
 3781TIP3    H232979   4.197   4.240   2.023  0.5352 -0.8110 -1.8380
 3782TIP3   OH232980   0.714   5.048   7.498  0.1614  0.1948  0.6613
 3782TIP3    H132981   0.801   5.011   7.483 -0.3719 -2.0124  2.5675
 3782TIP3    H232982   0.661   5.015   7.426  0.1910 -1.1122  1.2158
 3783TIP3   OH232983   6.398   2.899   7.514 -0.0694 -0.1138 -0.0136
 3783TIP3    H132984   6.415   2.925   7.604  0.6982  0.9240 -0.4400
 3783TIP3    H232985   6.430   2.809   7.508  1.9689  0.5542  0.1842
 3784TIP3   OH232986   6.438   0.743   2.114  0.0285  0.8761 -0.1370
 3784TIP3    H132987   6.429   0.779   2.026  3.1426 -0.1237 -1.0035
 3784TIP3    H232988   6.478   0.813   2.165  0.2590  0.7251 -0.1103
 3785TIP3   OH232989   0.182   0.504   0.201 -0.1266 -0.1568 -0.3761
 3785TIP3    H132990   0.194   0.437   0.268  1.0634 -0.8694 -1.2387
 3785TIP3    H232991   0.217   0.463   0.121  0.4152  1.3981 -0.9714
 3786TIP3   OH232992   1.420   0.092   7.935  0.4929 -0.1594  0.2847
 3786TIP3    H132993   1.512   0.102   7.912  0.5488 -1.5677 -0.2029
 3786TIP3    H232994   1.400   0.000   7.916 -1.6080  0.6395 -1.7675
 3787TIP3   OH232995   4.581   2.663   0.652 -0.2562  0.5643  0.3817
 3787TIP3    H132996   4.608   2.694   0.566  1.9497  1.4582  1.3351
 3787TIP3    H232997   4.523   2.733   0.685 -1.8445 -0.1929 -0.6644
 3788TIP3   OH232998   1.284   2.955   0.058 -0.6875 -0.3489 -0.2759
 3788TIP3    H132999   1.251   2.935   0.146 -3.3989 -0.7163 -1.2611
 3788TIP3    H233000   1.305   3.048   0.061 -0.4059 -0.4341  0.8571
 3789TIP3   OH233001   0.131   3.534   0.751  0.4123  0.2204  0.1814
 3789TIP3    H133002   0.061   3.496   0.803 -1.3614  1.1457 -1.4027
 3789TIP3    H233003   0.161   3.462   0.695  0.8466 -0.2149  0.9610
 3790TIP3   OH233004   5.575   0.198   0.533 -0.4716 -0.4112  0.4668
 3790TIP3    H133005   5.639   0.132   0.559  1.3888  1.3846  0.6734
 3790TIP3    H233006   5.490   0.160   0.556  0.4662 -2.8980  0.1436
 3791TIP3   OH233007   1.257   0.191   0.793  0.8507  0.5685  0.1834
 3791TIP3    H133008   1.274   0.096   0.790 -0.4211  0.2925  0.8905
 3791TIP3    H233009   1.241   0.215   0.702 -1.1672 -0.3977  0.2214
 3792TIP3   OH233010   5.858   4.484   0.734  0.1348  0.5442 -0.6191
 3792TIP3    H133011   5.871   4.400   0.778 -0.6310  0.0015 -1.3895
 3792TIP3    H233012   5.843   4.547   0.804  0.3596 -0.0290 -0.0534
 3793TIP3   OH233013   5.112   2.705   1.497  0.1389  0.2884  0.3121
 3793TIP3    H133014   5.050   2.751   1.554  0.3574  0.5182  0.3603
 3793TIP3    H233015   5.105   2.613   1.524 -0.9391  0.1465 -0.3696
 3794TIP3   OH233016   4.989   6.133   1.062 -0.1187  0.4589  0.3162
 3794TIP3    H133017   5.035   6.069   1.008 -1.6735 -1.3547  1.0213
 3794TIP3    H233018   5.037   6.133   1.145  0.0650  0.4387  0.2111
 3795TIP3   OH233019   2.416   0.031   0.939 -0.3685 -0.0916  0.0464
 3795TIP3    H133020   2.402  -0.031   1.010  1.0721 -0.8939 -0.3345
 3795TIP3    H233021   2.435  -0.023   0.863  0.5482  0.7831 -0.3732
 3796TIP3   OH233022   2.850   2.265   7.115  0.2034 -0.2469 -0.6911
 3796TIP3    H133023   2.941   2.293   7.107 -0.1054  0.4902 -1.7599
 3796TIP3    H233024   2.853   2.171   7.097  0.8126 -0.3349 -0.1916
 3797TIP3   OH233025   1.320   1.433   0.981 -0.3691  0.3134  0.5883
 3797TIP3    H133026   1.268   1.404   0.906 -0.2486  0.9106  0.2657
 3797TIP3    H233027   1.375   1.358   1.002 -0.0426  0.3089 -0.2455
 3798TIP3   OH233028   2.732   6.623   1.812 -0.0099  0.0165 -0.4271
 3798TIP3    H133029   2.692   6.546   1.851 -1.2421  0.8830  0.0837
 3798TIP3    H233030   2.658   6.676   1.781  0.6976  1.6737  0.5588
 3799TIP3   OH233031   3.880   3.421   2.014  0.0095  0.5039  0.4900
 3799TIP3    H133032   3.849   3.470   2.090 -0.8517 -1.2612  1.3264
 3799TIP3    H233033   3.855   3.475   1.939 -1.2882  1.1447  1.3509
 3800TIP3   OH233034   5.852   0.303   2.105 -0.4873 -0.6422 -1.0459
 3800TIP3    H133035   5.843   0.332   2.196  1.2923  2.2803 -1.6684
 3800TIP3    H233036   5.762   0.296   2.073 -1.1094 -0.1171  0.4885
 3801TIP3   OH233037   4.180   0.854   0.251 -0.7407  0.7783  0.0674
 3801TIP3    H133038   4.157   0.919   0.185 -0.9530 -0.1190 -0.7596
 3801TIP3    H233039   4.276   0.850   0.247 -0.7817  0.3460 -0.5622
 3802TIP3   OH233040   6.816   2.631   2.158 -0.1908  0.0722  0.3911
 3802TIP3    H133041   6.843   2.722   2.162  1.0544 -0.2951  0.9147
 3802TIP3    H233042   6.721   2.633   2.169 -0.3266  1.3693 -0.8181
 3803TIP3   OH233043   2.324   3.802   2.463  0.4044  0.2096 -0.2358
 3803TIP3    H133044   2.291   3.819   2.552 -1.3256 -1.0007 -0.5943
 3803TIP3    H233045   2.288   3.717   2.440  2.7241 -0.5753 -1.2687
 3804TIP3   OH233046   0.921   2.345   1.326 -0.5081 -0.2288 -0.5665
 3804TIP3    H133047   0.938   2.251   1.322 -0.8793 -0.2417 -2.2848
 3804TIP3    H233048   0.985   2.384   1.267  0.2191  0.7160  0.7807
 3805TIP3   OH233049   0.852   0.839   1.865 -0.0826  0.9664 -0.6039
 3805TIP3    H133050   0.776   0.791   1.833 -0.8932  2.4071 -0.8854
 3805TIP3    H233051   0.921   0.817   1.802 -0.2430 -0.3108 -0.3718
 3806TIP3   OH233052   0.164   4.296   0.704  0.1343  0.2544  0.3348
 3806TIP3    H133053   0.173   4.378   0.753  0.9139  0.9096 -0.8607
 3806TIP3    H233054   0.112   4.319   0.627  2.2985  0.2260 -1.2215
 3807TIP3   OH233055   5.653   2.251   7.611  0.8151 -0.1589  0.9471
 3807TIP3    H133056   5.600   2.207   7.544  1.5849 -0.8803  0.7923
 3807TIP3    H233057   5.597   2.321   7.644 -0.7906 -1.7589  1.7914
 3808TIP3   OH233058   1.645   4.267   0.840  0.0614  0.3152  0.1646
 3808TIP3    H133059   1.600   4.243   0.921 -0.0400 -1.2963 -0.3486
 3808TIP3    H233060   1.576   4.305   0.785  0.0524  1.0464  0.6545
 3809TIP3   OH233061   5.583   2.680   7.449  0.7011 -0.5797  0.5556
 3809TIP3    H133062   5.611   2.610   7.389 -0.7163 -2.4640  1.9728
 3809TIP3    H233063   5.639   2.754   7.426  4.0597 -2.8645  0.6005
 3810TIP3   OH233064   5.465   6.204   0.452  0.1717 -0.7222  0.1679
 3810TIP3    H133065   5.395   6.247   0.404 -0.5971 -1.9054  0.1857
 3810TIP3    H233066   5.434   6.114   0.466  0.5684 -0.5901  2.3960
 3811TIP3   OH233067   2.421   6.354   3.396 -0.4108 -0.1485  0.6998
 3811TIP3    H133068   2.414   6.307   3.479  0.8198  0.4616  1.1725
 3811TIP3    H233069   2.513   6.381   3.391 -0.5695  0.2162 -0.6458
 3812TIP3   OH233070   0.239   6.014   1.254 -0.3036 -0.2885 -0.3630
 3812TIP3    H133071   0.242   6.030   1.348 -0.5326 -1.1404 -0.1939
 3812TIP3    H233072   0.199   5.927   1.246 -0.8191  0.0173 -1.2725
 3813TIP3   OH233073   2.837   1.769   1.279  0.0086  0.1700  0.2220
 3813TIP3    H133074   2.763   1.730   1.326 -0.4571  0.6307 -0.1139
 3813TIP3    H233075   2.820   1.863   1.281  0.7522  0.3103  0.4111
 3814TIP3   OH233076   5.552   6.309   0.915  0.0541 -0.5225  0.4083
 3814TIP3    H133077   5.557   6.328   0.822 -1.3550  0.8163  0.5684
 3814TIP3    H233078   5.514   6.221   0.919  0.0571 -0.5612 -0.2922
 3815TIP3   OH233079   3.874   6.755   0.742 -0.6317 -0.6489  0.0538
 3815TIP3    H133080   3.805   6.703   0.702 -0.4640 -0.3405 -0.6427
 3815TIP3    H233081   3.829   6.828   0.783 -0.7918 -0.8919  0.3118
 3816TIP3   OH233082   3.551   1.577   0.856  0.1088  0.2442 -0.0813
 3816TIP3    H133083   3.592   1.660   0.832 -0.2596  0.5230  0.2490
 3816TIP3    H233084   3.511   1.545   0.775 -0.2062  0.6482 -0.0811
 3817TIP3   OH233085   6.202   3.158   8.694  0.1884 -0.1729 -0.3948
 3817TIP3    H133086   6.200   3.078   8.641 -0.3656  0.0374 -0.6950
 3817TIP3    H233087   6.126   3.152   8.751  0.9500 -0.5379  0.6022
 3818TIP3   OH233088   3.612   1.581   1.942 -0.3547 -0.2599  0.4279
 3818TIP3    H133089   3.534   1.608   1.892  0.6354  3.2777  0.5577
 3818TIP3    H233090   3.610   1.636   2.020  1.0073 -1.9173  1.6976
 3819TIP3   OH233091   6.798   5.319   8.388  0.3161  0.7110 -0.2596
 3819TIP3    H133092   6.819   5.333   8.296 -1.2378  0.9946 -0.5920
 3819TIP3    H233093   6.780   5.225   8.395  1.7532  0.4293  0.0684
 3820TIP3   OH233094   4.328   6.344   1.388 -0.3420 -0.2461 -0.0401
 3820TIP3    H133095   4.289   6.385   1.311 -1.2916 -0.4369  0.3290
 3820TIP3    H233096   4.302   6.252   1.382 -0.6462 -0.2098  0.6440
 3821TIP3   OH233097   6.074   6.352   0.541 -0.1342 -0.1590  0.0343
 3821TIP3    H133098   6.167   6.373   0.528 -0.2815  0.2219 -0.4154
 3821TIP3    H233099   6.046   6.315   0.457 -0.5578  0.3405 -0.0459
 3822TIP3   OH233100   6.537   6.175   0.092 -0.0350 -0.2451  0.0123
 3822TIP3    H133101   6.528   6.104   0.155  0.0939  0.1047  0.4245
 3822TIP3    H233102   6.569   6.132   0.012 -1.3844 -0.8831 -0.2123
 3823TIP3   OH233103   3.161   6.467   0.800  0.1626 -0.1717  0.2740
 3823TIP3    H133104   3.076   6.446   0.839 -0.1263  0.3383 -0.0780
 3823TIP3    H233105   3.142   6.487   0.709  0.8399 -1.3431 -0.1526
 3824TIP3   OH233106   4.473   0.978   7.559 -0.1811 -0.3076 -0.6030
 3824TIP3    H133107   4.433   0.903   7.603  0.3696 -0.2572  0.0114
 3824TIP3    H233108   4.540   0.939   7.502  0.0383 -0.2956 -0.3570
 3825TIP3   OH233109   3.990   5.915   2.093 -0.5754 -0.3333 -0.1195
 3825TIP3    H133110   3.935   5.980   2.049 -0.4224  0.2824  0.5702
 3825TIP3    H233111   4.061   5.966   2.132  1.2799 -1.2569 -2.1295
 3826TIP3   OH233112   6.101   0.584   8.307  0.5215  0.0226 -0.3393
 3826TIP3    H133113   6.049   0.531   8.247  0.8237 -0.0465 -0.5409
 3826TIP3    H233114   6.177   0.530   8.327 -0.6493 -0.9448  1.9052
 3827TIP3   OH233115   5.654   6.678   7.620  0.2110  0.3743  0.1182
 3827TIP3    H133116   5.726   6.732   7.651  0.4621 -0.3433  0.8317
 3827TIP3    H233117   5.634   6.711   7.532  2.7545 -0.6813 -0.9557
 3828TIP3   OH233118   4.344   1.387   2.967  0.2011 -0.9071  0.2583
 3828TIP3    H133119   4.298   1.339   3.036 -2.4531  2.7667  1.3498
 3828TIP3    H233120   4.277   1.442   2.927  2.6058  0.5240 -2.1220
 3829TIP3   OH233121   1.886   2.851   2.334  0.1005  0.5321 -0.2784
 3829TIP3    H133122   1.867   2.783   2.270  0.2856  0.6542 -0.4652
 3829TIP3    H233123   1.811   2.909   2.331 -0.4980 -0.1696  0.5589
 3830TIP3   OH233124   2.718   4.664   1.838 -0.2389 -0.1771  0.4594
 3830TIP3    H133125   2.631   4.698   1.819 -0.4498 -0.4195  0.9768
 3830TIP3    H233126   2.769   4.681   1.758  0.0047  2.4551  1.0905
 3831TIP3   OH233127   5.181   6.605   3.005 -0.1431 -0.1066  0.1875
 3831TIP3    H133128   5.160   6.698   3.000  0.6175  0.2234  2.2448
 3831TIP3    H233129   5.100   6.563   3.033 -0.2849  0.0274 -0.0168
 3832TIP3   OH233130   3.710   1.635   1.327  0.7117 -0.3053 -0.4631
 3832TIP3    H133131   3.635   1.657   1.272 -0.4267  0.9215  1.4881
 3832TIP3    H233132   3.784   1.634   1.266 -0.3050  2.0189 -1.8837
 3833TIP3   OH233133   4.853   0.074   1.723 -0.0408 -0.4397 -0.3242
 3833TIP3    H133134   4.912   0.004   1.696  0.3852 -0.4109  0.4862
 3833TIP3    H233135   4.911   0.146   1.748 -0.4641  0.0737 -0.7928
 3834TIP3   OH233136   1.528   2.281   1.526  0.4560  0.0767  0.2754
 3834TIP3    H133137   1.479   2.363   1.516 -0.6362 -0.6930 -1.0567
 3834TIP3    H233138   1.497   2.245   1.610 -0.7580 -0.0385 -0.1947
 3835TIP3   OH233139   3.679   6.559   1.888  0.2658 -0.3455 -0.3738
 3835TIP3    H133140   3.631   6.510   1.955 -2.0662 -0.0565 -1.7221
 3835TIP3    H233141   3.713   6.491   1.829 -0.5430 -0.4882 -0.6934
 3836TIP3   OH233142   0.864   4.749   0.014 -0.2642  0.2730  0.0553
 3836TIP3    H133143   0.798   4.679   0.013  0.7732 -0.7482 -1.1985
 3836TIP3    H233144   0.947   4.702   0.007  0.5419  1.5851  0.6783
 3837TIP3   OH233145   4.215   3.430   8.251 -0.4395 -0.5628 -0.4116
 3837TIP3    H133146   4.216   3.525   8.264 -0.6201 -0.7588  1.2661
 3837TIP3    H233147   4.172   3.396   8.330 -0.5394 -2.0274 -1.0781
 3838TIP3   OH233148   5.371   6.454   2.855 -0.1662 -0.5381  0.2604
 3838TIP3    H133149   5.454   6.500   2.841 -1.3347  1.0240 -2.2685
 3838TIP3    H233150   5.313   6.519   2.893 -1.2340 -0.4887 -1.3664
 3839TIP3   OH233151   1.404   3.035   8.256 -0.2373 -0.0238 -0.6198
 3839TIP3    H133152   1.400   3.131   8.257 -0.2391 -0.0129 -1.1343
 3839TIP3    H233153   1.413   3.010   8.348  1.0618  0.5225 -0.5825
 3840TIP3   OH233154   6.493   2.884   0.737  0.1018  0.3395  0.0423
 3840TIP3    H133155   6.543   2.945   0.791 -0.2426  0.1959  0.5289
 3840TIP3    H233156   6.452   2.824   0.799 -0.7810  0.5301 -0.3373
 3841TIP3   OH233157   4.516   1.263   2.657  0.0155  0.3538 -0.0402
 3841TIP3    H133158   4.431   1.224   2.637  0.2010  0.3430 -0.8352
 3841TIP3    H233159   4.530   1.244   2.750 -0.3943 -0.5187 -0.1502
 3842TIP3   OH233160   5.452   4.184   8.478  0.0923  0.6680 -0.1886
 3842TIP3    H133161   5.494   4.139   8.404 -0.7331  0.0694 -0.3023
 3842TIP3    H233162   5.490   4.272   8.476  0.1218  0.6486 -1.2948
 3843TIP3   OH233163   5.955   4.752   0.272  0.7420 -0.2251 -0.7369
 3843TIP3    H133164   5.949   4.667   0.230  2.0202 -0.1086 -1.2164
 3843TIP3    H233165   6.029   4.744   0.332  0.8049  0.5042 -0.7018
 3844TIP3   OH233166   6.680   3.739   2.180  0.2854  0.2940  0.3637
 3844TIP3    H133167   6.721   3.680   2.116 -1.3997 -0.7663  0.2002
 3844TIP3    H233168   6.661   3.819   2.130 -0.4755 -0.3019 -0.3316
 3845TIP3   OH233169   1.782   6.533   7.341  0.4551 -0.0795  0.0982
 3845TIP3    H133170   1.797   6.443   7.313 -1.0464  0.1534 -1.6408
 3845TIP3    H233171   1.706   6.527   7.400  0.9309 -0.0428  0.7259
 3846TIP3   OH233172   6.532   5.018   2.579  0.1167  0.1007  0.1449
 3846TIP3    H133173   6.556   5.034   2.670  0.5022  0.0709  0.0499
 3846TIP3    H233174   6.584   4.942   2.553  0.4436  0.4586 -0.2685
 3847TIP3   OH233175   2.893   2.477   7.734  0.8320 -0.5027 -0.0536
 3847TIP3    H133176   2.819   2.460   7.792  0.8055 -0.1301  0.0233
 3847TIP3    H233177   2.863   2.449   7.648  0.4826 -0.0479 -0.0821
 3848TIP3   OH233178   6.314   3.128   0.302 -0.2277 -0.3347 -0.4167
 3848TIP3    H133179   6.329   3.100   0.212  0.1979  0.0749 -0.4760
 3848TIP3    H233180   6.338   3.221   0.303 -0.4065 -0.2882  0.0753
 3849TIP3   OH233181   0.660   6.062   3.371  0.4134 -0.1288 -0.1564
 3849TIP3    H133182   0.643   5.983   3.423 -3.0225 -0.5782 -1.6300
 3849TIP3    H233183   0.632   6.134   3.427 -1.5329 -0.4677 -0.6094
 3850TIP3   OH233184   3.837   5.224   2.522  0.5294  0.0729  0.1460
 3850TIP3    H133185   3.867   5.149   2.572  2.8394  1.6544  1.2952
 3850TIP3    H233186   3.871   5.209   2.434  0.4987 -0.4528  0.2185
 3851TIP3   OH233187   6.773   4.256   8.496 -0.2071 -0.2034  0.0833
 3851TIP3    H133188   6.777   4.303   8.413  0.2562 -1.0074 -0.3595
 3851TIP3    H233189   6.766   4.164   8.471  0.3105 -0.4822  0.9354
 3852TIP3   OH233190   2.350   5.008   0.327  0.3125 -0.2532 -0.3694
 3852TIP3    H133191   2.369   5.087   0.377  1.6727 -1.0585  0.4428
 3852TIP3    H233192   2.388   4.937   0.379 -0.3277 -1.3772 -1.3855
 3853TIP3   OH233193   2.585   6.533   1.571  0.0784  0.0137  0.3827
 3853TIP3    H133194   2.508   6.539   1.628 -0.7278  1.2205 -0.7872
 3853TIP3    H233195   2.592   6.440   1.551 -1.3019 -0.0781  0.2337
 3854TIP3   OH233196   0.506   3.861   7.892 -0.0498 -0.4186 -0.0550
 3854TIP3    H133197   0.420   3.819   7.888  0.1025 -0.8138  0.7924
 3854TIP3    H233198   0.499   3.933   7.830 -0.9653 -0.4985 -0.0648
 3855TIP3   OH233199   3.131   5.550   8.597 -0.5432  0.5754 -0.1985
 3855TIP3    H133200   3.172   5.472   8.559 -1.6450 -0.5175  0.7538
 3855TIP3    H233201   3.155   5.621   8.538 -2.0590 -0.9882 -2.9195
 3856TIP3   OH233202   5.455   4.785   7.948 -0.2304  0.7507 -0.8099
 3856TIP3    H133203   5.419   4.697   7.956  1.6253 -0.0596 -0.9030
 3856TIP3    H233204   5.483   4.808   8.037  0.2741  0.8027 -0.9794
 3857TIP3   OH233205   6.333   1.948   2.194 -0.6526 -0.2927  0.0194
 3857TIP3    H133206   6.345   1.857   2.220 -0.2079 -0.4371 -0.6555
 3857TIP3    H233207   6.249   1.948   2.148  0.7352 -1.0270 -2.7148
 3858TIP3   OH233208   3.567   6.576   1.658 -0.4363 -0.0100  0.3976
 3858TIP3    H133209   3.502   6.509   1.678  0.3060 -0.1302  2.5826
 3858TIP3    H233210   3.613   6.592   1.740 -0.4747  3.0900 -0.0435
 3859TIP3   OH233211   1.252   2.375   8.346 -0.4597  0.3724  0.1902
 3859TIP3    H133212   1.227   2.400   8.436 -0.7860  0.7037  0.0118
 3859TIP3    H233213   1.286   2.456   8.308  0.5165  0.0263  0.2948
 3860TIP3   OH233214   3.040   3.000   0.859 -0.4091 -0.6622 -0.3343
 3860TIP3    H133215   3.087   2.970   0.780 -0.3392 -0.5388 -0.3395
 3860TIP3    H233216   2.989   3.075   0.829  1.7221  1.1439  0.3161
 3861TIP3   OH233217   5.430   4.395   7.651  0.4298 -0.4162  0.2022
 3861TIP3    H133218   5.486   4.400   7.728 -1.5100 -0.8659  1.7389
 3861TIP3    H233219   5.455   4.469   7.597  0.8873  0.7795  1.9774
 3862TIP3   OH233220   1.872   3.050   3.537  0.3847  0.1189  0.3678
 3862TIP3    H133221   1.954   3.076   3.495 -0.3578 -1.2868 -2.1208
 3862TIP3    H233222   1.804   3.091   3.484 -0.5691 -0.1604  1.3513
 3863TIP3   OH233223   1.058   2.313   0.836 -0.5624 -0.1828 -0.0814
 3863TIP3    H133224   1.064   2.281   0.746 -0.2435 -1.8845  0.4950
 3863TIP3    H233225   1.064   2.234   0.889  0.6352  0.8962  1.4838
 3864TIP3   OH233226   4.443   2.339   8.289 -0.8524 -0.0673 -0.2496
 3864TIP3    H133227   4.477   2.428   8.299  0.8258 -0.6298 -0.6154
 3864TIP3    H233228   4.385   2.345   8.213 -1.2537  0.8361  0.1055
 3865TIP3   OH233229   2.663   1.863   7.920  0.1561 -0.0283  0.0614
 3865TIP3    H133230   2.745   1.874   7.872 -0.0001  0.7440 -0.0304
 3865TIP3    H233231   2.633   1.775   7.896 -0.3398  0.6419 -1.9200
 3866TIP3   OH233232   1.226   4.951   7.424  0.5201  0.2325  0.2482
 3866TIP3    H133233   1.270   4.965   7.507  0.5766 -0.8880  0.4263
 3866TIP3    H233234   1.283   4.891   7.376  1.1880  1.9586 -1.1919
 3867TIP3   OH233235   1.663   3.058   8.000  0.5171 -0.1639  0.4766
 3867TIP3    H133236   1.719   3.133   7.977 -1.2918  0.5057 -2.2783
 3867TIP3    H233237   1.580   3.077   7.956 -1.3028 -1.9832  2.9166
 3868TIP3   OH233238   6.680   0.809   1.555 -0.8449 -0.0680 -0.3412
 3868TIP3    H133239   6.743   0.773   1.618  0.4695 -0.2979 -1.7299
 3868TIP3    H233240   6.675   0.902   1.577 -0.4624 -0.1557  0.1568
 3869TIP3   OH233241   4.497   2.138   0.301 -0.2727 -0.1325  0.1550
 3869TIP3    H133242   4.576   2.177   0.338 -0.0057 -0.9459  0.4405
 3869TIP3    H233243   4.512   2.139   0.206 -0.0642  0.0093  0.1884
 3870TIP3   OH233244   2.173   1.761   0.450  0.2995  0.0730  1.1581
 3870TIP3    H133245   2.158   1.847   0.409 -0.8276 -0.1255  1.1487
 3870TIP3    H233246   2.095   1.710   0.430  1.4054 -1.3435  0.2395
 3871TIP3   OH233247   3.000   1.158   8.517 -0.6469 -0.6892  0.3697
 3871TIP3    H133248   3.025   1.147   8.609  0.1762  0.0600  0.2500
 3871TIP3    H233249   3.083   1.152   8.469 -1.1776 -2.0049 -0.4239
 3872TIP3   OH233250   5.041   0.044   2.578 -0.4439  0.1809  0.2004
 3872TIP3    H133251   5.045  -0.037   2.527 -0.9967 -0.9481  1.8528
 3872TIP3    H233252   5.129   0.056   2.612 -0.8259 -0.9291  1.6655
 3873TIP3   OH233253   3.189   1.369   7.346 -0.0033 -0.2464  0.1882
 3873TIP3    H133254   3.197   1.274   7.360 -1.0269 -0.1489  1.6761
 3873TIP3    H233255   3.240   1.408   7.417  0.3672  0.3437 -0.3861
 3874TIP3   OH233256   3.593   4.004   0.637 -0.5824  0.0438 -0.3071
 3874TIP3    H133257   3.574   3.910   0.643  0.8676 -0.1706  3.1461
 3874TIP3    H233258   3.507   4.046   0.636 -1.5705 -1.2529  4.3339
 3875TIP3   OH233259   6.841   0.205   8.003 -0.1664 -0.2969 -0.1271
 3875TIP3    H133260   6.932   0.190   7.978 -0.5815 -0.8440 -1.3957
 3875TIP3    H233261   6.812   0.275   7.944 -0.3923  0.3454  0.7217
 3876TIP3   OH233262   4.179   2.087   7.245  0.4410 -0.6514  0.6403
 3876TIP3    H133263   4.264   2.077   7.288  0.9700  1.3655  0.1976
 3876TIP3    H233264   4.201   2.108   7.154 -0.5323 -0.3821  0.4515
 3877TIP3   OH233265   6.793   5.396   1.903  0.3302  0.0774  0.3066
 3877TIP3    H133266   6.870   5.415   1.850  2.0483 -0.7161  2.4066
 3877TIP3    H233267   6.771   5.480   1.944  0.4562  0.1735  0.1757
 3878TIP3   OH233268   3.684   4.960   0.966 -0.3771  0.1986  0.3250
 3878TIP3    H133269   3.654   4.988   0.880 -2.0322 -0.5891  0.5989
 3878TIP3    H233270   3.777   4.943   0.955 -1.0755 -3.0413 -2.2338
 3879TIP3   OH233271   5.600   1.613   1.087  0.3924 -0.0252  0.2053
 3879TIP3    H133272   5.598   1.706   1.112  0.7341 -0.3375  1.5008
 3879TIP3    H233273   5.510   1.584   1.101  0.3058  0.0845 -0.1126
 3880TIP3   OH233274   1.350   4.258   1.120  0.0307  0.2116 -0.2079
 3880TIP3    H133275   1.424   4.199   1.135  1.1109  1.1464 -1.7508
 3880TIP3    H233276   1.331   4.250   1.027 -0.4428  1.5893 -0.2441
 3881TIP3   OH233277   2.816   4.161   0.543 -0.5186 -0.0086 -0.0207
 3881TIP3    H133278   2.893   4.110   0.519 -1.8380 -1.7337 -0.8215
 3881TIP3    H233279   2.820   4.238   0.487 -0.2841 -0.9522 -1.3505
 3882TIP3   OH233280   1.391   1.365   2.474  0.2388 -0.2987  0.4959
 3882TIP3    H133281   1.420   1.333   2.389 -1.1936 -0.0226 -0.1198
 3882TIP3    H233282   1.467   1.412   2.509  0.5315  0.4878 -1.0926
 3883TIP3   OH233283   4.157   1.516   0.027  0.2085  0.4870  0.3484
 3883TIP3    H133284   4.199   1.551   0.105  1.8088  1.4505 -0.9030
 3883TIP3    H233285   4.150   1.590  -0.033 -1.0693 -0.2122 -0.4254
 3884TIP3   OH233286   3.507   5.763   0.964  0.5951  0.5933 -0.3151
 3884TIP3    H133287   3.420   5.732   0.937  1.4079  0.0256 -2.4617
 3884TIP3    H233288   3.540   5.693   1.021 -0.0002  0.3890 -0.2077
 3885TIP3   OH233289   4.273   2.567   7.764 -0.2132  0.3818  0.3743
 3885TIP3    H133290   4.296   2.651   7.725  0.7372  0.2365  0.5999
 3885TIP3    H233291   4.234   2.517   7.693 -0.5093  0.9068  0.1665
 3886TIP3   OH233292   6.318   3.782   7.313 -0.0727 -0.1623 -0.0339
 3886TIP3    H133293   6.377   3.808   7.383  0.9809 -2.6252  0.1183
 3886TIP3    H233294   6.332   3.687   7.304 -2.2996 -0.4299 -1.6116
 3887TIP3   OH233295   1.776   0.525   0.010  0.0433 -0.4282  0.3936
 3887TIP3    H133296   1.810   0.500   0.096 -0.3329  0.2050  0.7304
 3887TIP3    H233297   1.802   0.616  -0.001 -1.7102  0.1362  0.7490
 3888TIP3   OH233298   4.461   0.405   1.086  0.3019  0.9678  0.1470
 3888TIP3    H133299   4.370   0.434   1.082  0.1901  0.6338  0.2194
 3888TIP3    H233300   4.458   0.324   1.138  0.5251  0.5034 -0.5456
 3889TIP3   OH233301   3.365   6.773   8.063 -0.1916  0.3354 -0.3543
 3889TIP3    H133302   3.438   6.740   8.115  0.3223  1.6222 -0.2305
 3889TIP3    H233303   3.402   6.785   7.975 -1.5499 -3.8364 -1.7583
 3890TIP3   OH233304   2.786   4.514   2.518  0.4736 -0.3344 -0.0429
 3890TIP3    H133305   2.827   4.432   2.546  0.4841 -0.4335 -0.3479
 3890TIP3    H233306   2.703   4.488   2.480 -0.0409 -0.1038  0.8899
 3891TIP3   OH233307   6.367   0.967   2.554  0.5748 -0.1331 -0.4546
 3891TIP3    H133308   6.300   0.910   2.515 -0.7658  0.9985  0.0942
 3891TIP3    H233309   6.449   0.936   2.516 -0.1447 -2.1065 -0.5427
 3892TIP3   OH233310   2.223   4.705   2.515 -0.1737  0.0813 -0.3658
 3892TIP3    H133311   2.148   4.648   2.522  1.4607 -2.0102  1.2680
 3892TIP3    H233312   2.228   4.750   2.599  0.0648  0.6627 -0.6843
 3893TIP3   OH233313   4.280   4.057   8.312 -0.2374  0.2061  0.1423
 3893TIP3    H133314   4.255   4.146   8.339  0.0736  0.6846 -1.0637
 3893TIP3    H233315   4.201   4.004   8.328 -0.6823  0.8598  0.1701
 3894TIP3   OH233316   4.072   0.977   2.207 -0.0615 -0.4396 -0.0948
 3894TIP3    H133317   4.057   0.893   2.251 -0.1972 -0.3654 -0.0020
 3894TIP3    H233318   4.024   0.969   2.125  1.0753 -1.0051 -0.7394
 3895TIP3   OH233319   1.731   2.131   8.462  0.0961  0.3292  0.2962
 3895TIP3    H133320   1.796   2.122   8.393 -0.0054  1.3229  0.0538
 3895TIP3    H233321   1.653   2.166   8.418 -0.1151  0.5548  0.8293
 3896TIP3   OH233322   2.172   3.064   1.524  0.0405  0.3015 -0.2482
 3896TIP3    H133323   2.209   3.068   1.612 -1.3574  1.0720  0.3493
 3896TIP3    H233324   2.145   2.973   1.513 -2.0668  0.6786  1.1728
 3897TIP3   OH233325   5.478   3.899   1.918  0.0544 -0.7397  0.1872
 3897TIP3    H133326   5.494   3.872   1.828 -1.2085 -1.0840  0.0448
 3897TIP3    H233327   5.507   3.826   1.971 -0.4327 -1.0934 -0.0257
 3898TIP3   OH233328   3.817   5.547   1.828 -0.0717 -0.3685 -0.1113
 3898TIP3    H133329   3.880   5.521   1.895  1.3630 -3.1102 -2.2895
 3898TIP3    H233330   3.861   5.617   1.780  0.2098 -0.4695 -0.0065
 3899TIP3   OH233331   5.739   3.580   1.636 -0.4364  0.3012  0.0648
 3899TIP3    H133332   5.781   3.498   1.610  0.3295  0.8869 -0.6133
 3899TIP3    H233333   5.699   3.561   1.721 -2.8769 -1.6200 -1.3956
 3900TIP3   OH233334   0.484   0.823   0.509 -0.3281 -0.7079  0.1910
 3900TIP3    H133335   0.497   0.831   0.414  0.4985  0.0355  0.3515
 3900TIP3    H233336   0.546   0.756   0.536 -1.9655 -2.4174 -0.0498
 3901TIP3   OH233337   2.548   4.981   1.855  0.6801  0.2754 -0.2708
 3901TIP3    H133338   2.518   4.893   1.830  2.0133  0.0303 -1.0756
 3901TIP3    H233339   2.632   4.991   1.811  1.5457  1.1398  1.5177
 3902TIP3   OH233340   4.760   4.647   2.806 -0.3161  0.3497  0.4262
 3902TIP3    H133341   4.770   4.631   2.900  1.8943  0.4809  0.2506
 3902TIP3    H233342   4.682   4.596   2.782 -1.0246  0.4350  2.3321
 3903TIP3   OH233343   6.008   2.690   8.216 -0.1583 -0.1533  0.8004
 3903TIP3    H133344   5.954   2.672   8.138 -0.6481 -0.3137  1.1730
 3903TIP3    H233345   5.982   2.778   8.243 -0.4538 -0.3503  1.1586
 3904TIP3   OH233346   6.635   3.492   0.660  0.1043  1.2028 -0.1631
 3904TIP3    H133347   6.580   3.416   0.643  1.7104  0.1916 -0.9979
 3904TIP3    H233348   6.577   3.553   0.706 -2.2272  0.9346 -2.5138
 3905TIP3   OH233349   3.233   1.685   2.836 -0.5010 -0.3507  0.6066
 3905TIP3    H133350   3.233   1.638   2.920  1.5157  0.6285  1.2315
 3905TIP3    H233351   3.248   1.777   2.860  0.9148 -0.1505 -0.8358
 3906TIP3   OH233352   3.621   6.767   3.044  0.1902 -0.7864 -0.4302
 3906TIP3    H133353   3.701   6.803   3.006  0.3136 -1.4283 -0.8098
 3906TIP3    H233354   3.556   6.774   2.974  0.3067 -1.5808 -0.6392
 3907TIP3   OH233355   0.845   0.251   0.840 -0.4618 -0.3349  0.4149
 3907TIP3    H133356   0.844   0.293   0.926 -0.1485 -0.1830  0.3464
 3907TIP3    H233357   0.753   0.237   0.819 -0.5201 -1.0172  1.0892
 3908TIP3   OH233358   2.101   3.695   2.176  0.2706 -0.5739 -0.2006
 3908TIP3    H133359   2.099   3.673   2.083  1.8471  0.6209 -0.5815
 3908TIP3    H233360   2.192   3.722   2.192 -0.2700  0.5081  1.3702
 3909TIP3   OH233361   6.385   3.449   8.406 -0.1988 -0.7912 -0.3000
 3909TIP3    H133362   6.327   3.514   8.366  1.7728 -0.1070 -2.2683
 3909TIP3    H233363   6.453   3.502   8.449 -0.0532 -1.5601  0.4323
 3910TIP3   OH233364   1.074   0.434   0.146  0.1293 -0.1548  1.0909
 3910TIP3    H133365   1.065   0.460   0.055  0.2371  3.0978  1.8747
 3910TIP3    H233366   0.989   0.396   0.169 -1.2366  2.3171  0.5153
 3911TIP3   OH233367   3.673   0.637   2.896 -0.1959 -0.5868 -0.3819
 3911TIP3    H133368   3.625   0.626   2.979 -0.4815  0.6260 -0.3658
 3911TIP3    H233369   3.713   0.551   2.880  3.3414  0.1183  3.1408
 3912TIP3   OH233370   4.909   2.538   0.677  0.7282 -0.1817  0.2137
 3912TIP3    H133371   4.960   2.515   0.600 -2.1106 -1.6106 -1.3917
 3912TIP3    H233372   4.879   2.628   0.659 -0.1823 -0.6209 -0.5530
 3913TIP3   OH233373   3.975   5.723   7.866 -0.0315  0.2183 -1.0806
 3913TIP3    H133374   3.979   5.627   7.867  0.2700  0.1887  1.5177
 3913TIP3    H233375   4.063   5.749   7.837  0.5064 -0.3374 -0.0383
 3914TIP3   OH233376   2.099   5.996   1.077  0.4899 -0.2592 -0.5398
 3914TIP3    H133377   2.014   6.004   1.034 -0.2185 -0.2843  0.8205
 3914TIP3    H233378   2.080   5.955   1.161  1.9295 -0.8193 -0.4561
 3915TIP3   OH233379   2.370   5.308   0.433  0.2666 -0.1125  0.6518
 3915TIP3    H133380   2.422   5.290   0.511 -0.6493  0.4883  1.4142
 3915TIP3    H233381   2.350   5.402   0.438 -2.2496 -0.6172  1.2516
 3916TIP3   OH233382   2.820   2.014   2.125 -0.6165  0.3336  0.0161
 3916TIP3    H133383   2.804   2.100   2.162  0.8730 -0.0231  1.6120
 3916TIP3    H233384   2.909   1.992   2.153  0.0425 -0.6406 -2.5165
 3917TIP3   OH233385   6.312   0.588   1.808 -0.1111 -0.0132 -0.3085
 3917TIP3    H133386   6.259   0.564   1.884 -0.2495 -0.4283 -0.5335
 3917TIP3    H233387   6.352   0.671   1.832  0.4611 -0.5122  0.5303
 3918TIP3   OH233388   2.667   3.126   1.765 -0.3198  0.4622 -0.2469
 3918TIP3    H133389   2.656   3.174   1.847 -1.3494 -0.3608  0.1208
 3918TIP3    H233390   2.704   3.190   1.704 -0.5742  1.3846  0.5461
 3919TIP3   OH233391   4.276   5.796   7.974 -0.1757 -0.2524 -0.3326
 3919TIP3    H133392   4.358   5.816   7.929  0.0091 -0.2771 -0.0088
 3919TIP3    H233393   4.268   5.864   8.041 -0.9345  0.3542 -1.0199
 3920TIP3   OH233394   4.698   0.914   7.865 -0.0937  1.0323  0.2771
 3920TIP3    H133395   4.704   0.876   7.777 -0.0082 -0.6412  0.9591
 3920TIP3    H233396   4.610   0.951   7.870 -0.4435  0.2860 -0.1986
 3921TIP3   OH233397   0.694   4.120   3.044 -0.4932  0.0340  0.1525
 3921TIP3    H133398   0.602   4.109   3.067 -1.2271  1.9857 -1.5542
 3921TIP3    H233399   0.737   4.142   3.127 -2.1049  1.9068  0.5704
 3922TIP3   OH233400   2.191   3.759   0.363 -0.2592 -0.4442  0.6428
 3922TIP3    H133401   2.169   3.672   0.398 -2.8546 -0.3800 -0.5681
 3922TIP3    H233402   2.215   3.742   0.272  0.9591 -0.0344  0.8732
 3923TIP3   OH233403   4.159   2.649   0.130  0.3360 -0.9902  0.5185
 3923TIP3    H133404   4.200   2.596   0.061  2.5901  1.5613 -0.2590
 3923TIP3    H233405   4.066   2.628   0.123  0.6604 -1.9799 -2.3161
 3924TIP3   OH233406   6.402   2.647   0.879  0.3173 -0.7562  0.3736
 3924TIP3    H133407   6.471   2.621   0.940  1.0207 -2.1940 -0.9685
 3924TIP3    H233408   6.321   2.615   0.918  0.4798  0.1970  1.5497
 3925TIP3   OH233409   0.219   5.146   1.264 -0.0210 -0.2749 -0.1367
 3925TIP3    H133410   0.225   5.221   1.204 -1.5224 -0.6386 -0.8008
 3925TIP3    H233411   0.295   5.092   1.242  0.3547  0.4103 -0.5670
 3926TIP3   OH233412   2.849   0.072   1.433  0.3573  0.7539  0.0027
 3926TIP3    H133413   2.777   0.015   1.408  0.5004  1.3991 -2.0846
 3926TIP3    H233414   2.894   0.025   1.503  0.3090 -1.6144 -1.4460
 3927TIP3   OH233415   6.022   0.597   7.420  0.3606  0.0635  0.2978
 3927TIP3    H133416   5.979   0.654   7.483  3.4365 -1.3010  4.0497
 3927TIP3    H233417   6.102   0.645   7.395  0.7053 -0.6981 -0.0960
 3928TIP3   OH233418   4.749   5.564   7.791 -0.0649 -0.2196 -0.1177
 3928TIP3    H133419   4.671   5.546   7.739  0.5744 -2.1633 -0.4780
 3928TIP3    H233420   4.736   5.514   7.872  0.4254  0.1372  0.1886
 3929TIP3   OH233421   3.428   5.704   2.705  0.0034 -0.6510  0.7455
 3929TIP3    H133422   3.381   5.644   2.764  0.1433 -2.1205 -0.5567
 3929TIP3    H233423   3.383   5.693   2.621 -0.0407  1.2140  0.4998
 3930TIP3   OH233424   4.593   2.669   8.004  0.5102  0.1064 -0.1347
 3930TIP3    H133425   4.587   2.602   7.937  1.9154  1.3021 -1.5255
 3930TIP3    H233426   4.503   2.702   8.013 -0.0254 -1.3142 -0.0593
 3931TIP3   OH233427   4.505   6.826   8.327 -0.0976  0.0271  0.6906
 3931TIP3    H133428   4.476   6.908   8.287 -0.5382  0.1258  1.2066
 3931TIP3    H233429   4.597   6.841   8.350 -0.3879  0.6541  1.4893
 3932TIP3   OH233430   3.033   5.426   2.656  0.6471  0.2268  0.1162
 3932TIP3    H133431   2.983   5.345   2.665  0.1367  0.7128  2.4474
 3932TIP3    H233432   3.026   5.449   2.563  1.3468 -2.6744 -0.7434
 3933TIP3   OH233433   2.486   4.513   8.487  0.4424 -0.1597 -0.0445
 3933TIP3    H133434   2.420   4.568   8.528 -0.5583 -0.6203 -0.9574
 3933TIP3    H233435   2.544   4.574   8.440  0.7629  0.2566  0.8756
 3934TIP3   OH233436   3.999   3.989   7.566  0.4154 -0.3761 -0.1477
 3934TIP3    H133437   4.084   3.987   7.611 -0.7908  0.5713  2.3903
 3934TIP3    H233438   4.002   4.070   7.514  0.2377  0.9867  1.8565
 3935TIP3   OH233439   5.384   0.057   1.213  0.2372 -0.2755  0.1410
 3935TIP3    H133440   5.474   0.029   1.196  0.3978  0.3777 -0.1385
 3935TIP3    H233441   5.330  -0.001   1.160  0.6206  0.4813 -1.1341
 3936TIP3   OH233442   2.241   6.616   2.100 -0.5936  0.7376  0.1190
 3936TIP3    H133443   2.291   6.534   2.096 -0.9024  0.5861 -0.7374
 3936TIP3    H233444   2.162   6.594   2.149 -0.3400  0.7026  0.5128
 3937TIP3   OH233445   2.385   3.184   1.746 -0.0765 -0.0938  0.0213
 3937TIP3    H133446   2.345   3.116   1.800 -0.8001 -0.8277 -1.3792
 3937TIP3    H233447   2.462   3.141   1.708  0.0263  0.1879 -0.0849
 3938TIP3   OH233448   0.748   5.006   0.122  0.0889 -0.2265 -0.3637
 3938TIP3    H133449   0.772   4.918   0.090  0.8145 -0.3187  0.3717
 3938TIP3    H233450   0.763   5.001   0.217  1.2544  1.0327 -0.4563
 3939TIP3   OH233451   2.365   6.014   8.450 -0.0437  0.4977 -0.2732
 3939TIP3    H133452   2.281   5.972   8.437  0.0920  0.5725 -1.4927
 3939TIP3    H233453   2.352   6.104   8.422  0.1725  0.7878  0.5231
 3940TIP3   OH233454   3.921   0.319   8.360  0.2968  0.0469 -0.3934
 3940TIP3    H133455   3.912   0.260   8.286  2.1099 -0.2483 -0.4306
 3940TIP3    H233456   3.878   0.273   8.433  0.9688 -0.9542 -0.6154
 3941TIP3   OH233457   1.189   3.486   1.138  0.6262  0.0272  0.3211
 3941TIP3    H133458   1.118   3.550   1.135  0.3858 -0.2531 -0.6092
 3941TIP3    H233459   1.265   3.535   1.167  0.2362  0.5190  0.5266
 3942TIP3   OH233460   6.500   4.238   3.326 -0.0634  0.0332  0.3747
 3942TIP3    H133461   6.559   4.166   3.301 -0.8309 -0.8779  1.1192
 3942TIP3    H233462   6.416   4.195   3.341 -0.9479  1.3161 -0.6856
 3943TIP3   OH233463   5.964   0.856   3.243  0.1320 -0.0507 -0.1506
 3943TIP3    H133464   6.016   0.815   3.312  0.0202 -1.0987 -0.6617
 3943TIP3    H233465   5.873   0.847   3.272  0.0695 -0.6949 -0.5220
 3944TIP3   OH233466   1.332   5.058   8.601  0.7487  0.3217  0.3949
 3944TIP3    H133467   1.276   5.068   8.678  0.6367  1.5099  0.1754
 3944TIP3    H233468   1.279   5.093   8.528  0.7594 -0.9978 -0.2733
 3945TIP3   OH233469   5.374   3.827   0.404  0.2901  0.2842 -0.5864
 3945TIP3    H133470   5.405   3.890   0.339 -0.6895  2.5436  1.0169
 3945TIP3    H233471   5.282   3.849   0.417  0.3334 -0.4189  1.1966
 3946TIP3   OH233472   2.018   2.840   1.102  0.5718 -0.1217  0.2305
 3946TIP3    H133473   1.962   2.827   1.026 -0.5458  2.1995  0.5780
 3946TIP3    H233474   1.961   2.824   1.177 -0.0910  3.3756  0.6125
 3947TIP3   OH233475   1.867   4.388   2.415  0.2190  0.6503  0.0149
 3947TIP3    H133476   1.812   4.326   2.368  0.8309  0.2562 -0.2082
 3947TIP3    H233477   1.808   4.458   2.442 -0.3827  0.2375 -0.2060
 3948TIP3   OH233478   0.583   0.841   2.753 -0.2341  0.4560 -0.1940
 3948TIP3    H133479   0.678   0.848   2.748 -0.0369  0.6543  2.5062
 3948TIP3    H233480   0.552   0.929   2.773 -1.1235  0.5688 -1.8123
 3949TIP3   OH233481   0.224   6.178   0.648 -0.6657  0.2242  0.1105
 3949TIP3    H133482   0.162   6.247   0.669 -0.7008  0.1666  0.1954
 3949TIP3    H233483   0.176   6.097   0.662 -1.4660  0.1765 -2.4729
 3950TIP3   OH233484   6.196   4.632   2.194  0.2317 -0.8750  0.0453
 3950TIP3    H133485   6.108   4.606   2.222 -0.3539 -0.1045 -0.9703
 3950TIP3    H233486   6.218   4.707   2.249  0.3469 -1.2000  0.4442
 3951TIP3   OH233487   4.768   1.553   7.343 -0.0019  0.1240 -0.4022
 3951TIP3    H133488   4.839   1.489   7.336  1.0558  1.2849 -0.6259
 3951TIP3    H233489   4.731   1.558   7.255 -1.1005 -1.2475 -0.0638
 3952TIP3   OH233490   6.120   1.426   2.758  0.2170  0.1675  0.1782
 3952TIP3    H133491   6.055   1.475   2.709  0.0146 -1.9081 -1.8206
 3952TIP3    H233492   6.196   1.484   2.762  0.1679  0.5450 -2.5009
 3953TIP3   OH233493   0.907   5.795   8.530  0.2716 -0.0334 -0.0092
 3953TIP3    H133494   0.954   5.751   8.600  0.9250 -0.2591 -0.5854
 3953TIP3    H233495   0.956   5.875   8.514 -0.7321  0.7911  0.8149
 3954TIP3   OH233496   1.730   2.830   3.353  0.4350  0.4321  0.0389
 3954TIP3    H133497   1.653   2.837   3.410 -0.9499 -3.2396 -1.0954
 3954TIP3    H233498   1.736   2.915   3.310 -2.2053  1.2560  1.1130
 3955TIP3   OH233499   4.326   3.115   1.003  0.2033  0.0226 -0.1295
 3955TIP3    H133500   4.244   3.144   1.042  0.8363  0.5035  0.8859
 3955TIP3    H233501   4.389   3.184   1.024  0.7014  0.0276 -1.5464
 3956TIP3   OH233502   1.291   4.515   2.000  0.4555  0.4688  0.2669
 3956TIP3    H133503   1.296   4.446   2.065  2.8440  1.8140  1.6828
 3956TIP3    H233504   1.309   4.471   1.917  1.9511 -0.6409  1.1315
 3957TIP3   OH233505   2.049   5.723   1.939 -0.7784  0.0922  0.2793
 3957TIP3    H133506   2.126   5.675   1.969  1.0240  1.4815 -1.7752
 3957TIP3    H233507   2.021   5.775   2.014 -0.2647 -1.0565  1.2961
 3958TIP3   OH233508   5.542   1.130   3.033  0.2828  0.1017 -0.7349
 3958TIP3    H133509   5.450   1.115   3.013 -0.1017 -0.7809  1.3925
 3958TIP3    H233510   5.555   1.223   3.017 -1.9981  1.1083  2.2926
 3959TIP3   OH233511   3.632   6.152   0.700 -0.1053  0.1137  0.4529
 3959TIP3    H133512   3.540   6.132   0.717 -0.0013  1.3141  2.9115
 3959TIP3    H233513   3.680   6.096   0.761  0.7438  0.1155 -0.2043
 3960TIP3   OH233514   2.996   1.649   0.327  0.3456  0.0893  0.6810
 3960TIP3    H133515   2.988   1.610   0.414 -0.2701  0.2347  0.6936
 3960TIP3    H233516   2.972   1.578   0.267  1.7911 -0.3279  0.5663
 3961TIP3   OH233517   2.823   1.847   3.006  0.1706  0.3474  0.3207
 3961TIP3    H133518   2.863   1.819   3.088  1.5102 -5.3400 -1.7719
 3961TIP3    H233519   2.729   1.832   3.020  0.3322 -0.1288  0.9800
 3962TIP3   OH233520   2.368   1.012   1.971  0.6270 -0.0060  0.1976
 3962TIP3    H133521   2.455   1.000   2.009  0.4173  0.7852  0.9577
 3962TIP3    H233522   2.338   1.095   2.006 -0.9457 -0.8401  0.9287
 3963TIP3   OH233523   0.839   5.511   3.069 -0.4412 -0.3117  0.2242
 3963TIP3    H133524   0.765   5.559   3.031  1.0954  2.2784  0.2758
 3963TIP3    H233525   0.848   5.547   3.157 -0.3558 -2.0961  0.9811
 3964TIP3   OH233526   4.544   6.555   1.196  0.0870 -0.2755 -0.1334
 3964TIP3    H133527   4.521   6.602   1.116 -0.9881 -0.2779  0.1675
 3964TIP3    H233528   4.486   6.479   1.198  0.1812 -0.3373  0.5885
 3965TIP3   OH233529   2.102   4.251   2.518  0.6845  0.0501 -0.0820
 3965TIP3    H133530   2.034   4.301   2.475 -0.3094 -0.5166  0.7835
 3965TIP3    H233531   2.071   4.239   2.608  1.1715 -1.5619 -0.0909
 3966TIP3   OH233532   6.586   6.718   3.102  0.1355  0.2791  0.2451
 3966TIP3    H133533   6.498   6.738   3.071 -0.1340  1.0348  1.4488
 3966TIP3    H233534   6.575   6.639   3.155  0.3369 -0.0968 -0.2561
 3967TIP3   OH233535   6.325   1.517   1.564 -0.6930  0.1785  0.4003
 3967TIP3    H133536   6.245   1.467   1.579 -0.7638  0.2647  0.3129
 3967TIP3    H233537   6.305   1.573   1.489 -0.4196 -0.0830  0.1272
 3968TIP3   OH233538   4.902   2.063   7.160 -0.3588  0.2441  0.1882
 3968TIP3    H133539   4.828   2.016   7.198  0.1304 -0.9206 -0.2557
 3968TIP3    H233540   4.957   2.087   7.235 -0.7426  0.3497  0.4367
 3969TIP3   OH233541   3.789   1.824   3.125  0.1303  0.2094  0.4888
 3969TIP3    H133542   3.800   1.765   3.200 -0.1220 -0.4820 -0.0054
 3969TIP3    H233543   3.841   1.901   3.147 -1.2733  0.7656  2.1370
 3970TIP3   OH233544   5.302   0.832   1.006 -0.2195 -0.5222 -0.1736
 3970TIP3    H133545   5.338   0.765   0.947  0.1637 -1.1414  0.7499
 3970TIP3    H233546   5.295   0.910   0.951 -0.4688 -1.2497 -1.2185
 3971TIP3   OH233547   5.822   6.284   2.532 -0.2882  0.1067 -0.2967
 3971TIP3    H133548   5.763   6.349   2.570 -0.7632  0.0560 -0.9294
 3971TIP3    H233549   5.832   6.311   2.440 -0.2236 -0.5202 -0.4808
 3972TIP3   OH233550   2.731   2.497   7.107 -0.1540  0.0072  0.0460
 3972TIP3    H133551   2.770   2.411   7.116 -1.8189 -0.9709 -1.4083
 3972TIP3    H233552   2.710   2.504   7.014 -1.3238  1.4034  0.3813
 3973TIP3   OH233553   1.971   2.763   7.287  0.1420 -0.0747  0.7432
 3973TIP3    H133554   2.026   2.743   7.363  1.9376  0.6401 -0.3060
 3973TIP3    H233555   2.009   2.712   7.216  0.8515  2.0749 -0.5115
 3974TIP3   OH233556   1.902   4.802   2.398 -0.1152  0.2997  0.3934
 3974TIP3    H133557   1.934   4.740   2.333 -0.3449  0.0898  0.4787
 3974TIP3    H233558   1.827   4.758   2.439 -1.6648  1.4712 -1.0194
 3975TIP3   OH233559   2.553   2.577   1.754 -0.0514  0.4192 -0.4696
 3975TIP3    H133560   2.491   2.538   1.815  0.3299  0.2122 -0.2093
 3975TIP3    H233561   2.500   2.634   1.698 -0.7837 -1.2264 -1.5323
 3976TIP3   OH233562   4.442   5.235   1.980  0.1957  0.3107 -0.0139
 3976TIP3    H133563   4.500   5.235   2.056  0.8901  2.1043 -0.4853
 3976TIP3    H233564   4.404   5.323   1.979 -0.9055 -0.1425 -0.9392
 3977TIP3   OH233565   5.875   3.119   0.619 -0.2603  0.0821 -0.3144
 3977TIP3    H133566   5.829   3.197   0.651  0.0417  0.2508 -0.2782
 3977TIP3    H233567   5.968   3.143   0.626 -0.1619 -0.3579 -0.1110
 3978TIP3   OH233568   5.660   5.486   2.058  0.5688  0.0049 -0.2484
 3978TIP3    H133569   5.700   5.497   2.144  0.4634 -0.2065 -0.1732
 3978TIP3    H233570   5.728   5.513   1.997  0.2154  1.4364 -0.0664
 3979TIP3   OH233571   4.381   0.038   8.043 -0.0339 -0.4449 -0.0525
 3979TIP3    H133572   4.305   0.008   8.093  0.9469 -0.4225  1.5431
 3979TIP3    H233573   4.349   0.109   7.989 -0.6935  1.2416  2.4147
 3980TIP3   OH233574   0.754   5.185   2.807  0.3262  0.3238 -0.4000
 3980TIP3    H133575   0.783   5.270   2.774 -1.2652  0.6480 -1.0565
 3980TIP3    H233576   0.661   5.182   2.786  0.1692 -1.2269  0.3986
 3981TIP3   OH233577   2.877   3.306   1.901  0.2999 -0.2718 -0.0009
 3981TIP3    H133578   2.914   3.339   1.819 -3.0208 -2.7264 -2.8663
 3981TIP3    H233579   2.926   3.225   1.918 -2.0828 -2.5813 -2.7993
 3982TIP3   OH233580   2.707   2.037   1.662  0.4985  0.3758  0.6300
 3982TIP3    H133581   2.705   1.992   1.578  3.0555  0.0359  0.6703
 3982TIP3    H233582   2.703   1.966   1.727  1.9494  0.3677  0.7270
 3983TIP3   OH233583   4.228   1.168   0.988 -0.2114  0.2410  0.2010
 3983TIP3    H133584   4.274   1.107   1.047  0.9478 -0.2033 -1.1079
 3983TIP3    H233585   4.277   1.249   0.996 -0.5606  0.4273  0.4644
 3984TIP3   OH233586   3.502   3.603   1.864 -0.7431 -0.0962  0.3750
 3984TIP3    H133587   3.568   3.665   1.834 -0.5797  0.1421  1.2196
 3984TIP3    H233588   3.486   3.547   1.788  0.2589 -0.0157  0.0913
 3985TIP3   OH233589   0.555   0.480   8.224 -0.5664 -0.2773 -0.6976
 3985TIP3    H133590   0.535   0.540   8.152  0.1844  0.2079 -0.5111
 3985TIP3    H233591   0.470   0.442   8.247 -1.1874  1.2544 -0.3415
 3986TIP3   OH233592   4.436   4.576   0.953  0.2547  0.0397  0.4438
 3986TIP3    H133593   4.381   4.567   0.876 -1.5465 -1.6101  1.8227
 3986TIP3    H233594   4.395   4.645   1.005  1.5017  1.1992 -0.0517
 3987TIP3   OH233595   0.452   6.357   8.248 -0.1015 -0.1338  0.3271
 3987TIP3    H133596   0.368   6.390   8.216  0.2849  1.2425  0.7017
 3987TIP3    H233597   0.434   6.327   8.337 -0.0845  0.6362  0.5902
 3988TIP3   OH233598   3.908   5.773   0.755  0.1806 -0.1126 -0.1693
 3988TIP3    H133599   3.946   5.811   0.833 -0.8085  2.4157 -0.8272
 3988TIP3    H233600   3.928   5.679   0.761  2.9962  0.4956  1.4086
 3989TIP3   OH233601   2.380   4.701   1.576 -0.2478  0.1738 -0.2060
 3989TIP3    H133602   2.377   4.788   1.537  0.4921 -0.3009 -1.4002
 3989TIP3    H233603   2.413   4.645   1.506 -0.4726 -1.0264  0.6159
 3990TIP3   OH233604   2.921   2.046   8.533  0.2105  0.2928 -0.1409
 3990TIP3    H133605   3.008   2.008   8.543  0.1572 -0.2201 -1.3691
 3990TIP3    H233606   2.936   2.140   8.525  0.8082  0.1012 -1.6604
 3991TIP3   OH233607   3.557   0.055   0.511  0.0025 -0.1015 -0.7296
 3991TIP3    H133608   3.513   0.116   0.570  2.5736 -2.0705  3.7129
 3991TIP3    H233609   3.498  -0.021   0.506 -0.4059  0.2340 -1.0486
 3992TIP3   OH233610   4.264   5.270   7.135  0.1724  0.3520  0.1976
 3992TIP3    H133611   4.228   5.353   7.165 -0.3976  0.1235  0.1593
 3992TIP3    H233612   4.357   5.288   7.119 -0.0732  1.1384 -0.4073
 3993TIP3   OH233613   4.124   0.540   1.842 -0.2372  0.5497 -0.0463
 3993TIP3    H133614   4.109   0.456   1.799 -2.2131  1.3282 -1.0056
 3993TIP3    H233615   4.075   0.535   1.924  0.9134  0.2488  0.6599
 3994TIP3   OH233616   5.076   1.256   2.360 -0.0855 -0.4097 -0.1871
 3994TIP3    H133617   5.152   1.315   2.360 -0.2820 -0.1390 -1.0778
 3994TIP3    H233618   5.004   1.310   2.393 -0.3329 -0.0342 -1.2887
 3995TIP3   OH233619   1.110   2.977   8.046  0.3159 -0.1028  0.1419
 3995TIP3    H133620   1.165   2.967   8.123 -0.2159  2.5572  0.9936
 3995TIP3    H233621   1.172   2.985   7.973  1.1531  2.2622  1.0136
 3996TIP3   OH233622   5.219   4.421   0.736 -0.0168 -0.0348 -0.1058
 3996TIP3    H133623   5.300   4.445   0.779 -0.4173 -1.5174  1.6216
 3996TIP3    H233624   5.242   4.345   0.682 -0.1723 -0.2611  0.1406
 3997TIP3   OH233625   3.605   6.476   7.411 -0.0214 -0.1682  0.2788
 3997TIP3    H133626   3.602   6.542   7.342  0.3978  1.4730  1.7562
 3997TIP3    H233627   3.594   6.393   7.366 -0.4241  0.8988 -1.6711
 3998TIP3   OH233628   1.550   0.293   3.195  0.1654 -0.3159 -0.4277
 3998TIP3    H133629   1.544   0.381   3.233 -2.0779  0.3574 -2.0866
 3998TIP3    H233630   1.607   0.303   3.119  2.5936 -1.1020  1.1934
 3999TIP3   OH233631   2.135   2.498   8.108  0.0473 -0.2153  0.6132
 3999TIP3    H133632   2.110   2.585   8.077  1.8279  0.2880  0.4604
 3999TIP3    H233633   2.132   2.442   8.031 -1.7390 -0.4860  0.8335
 4000TIP3   OH233634   6.559   0.615   2.756 -0.1477 -0.1508 -0.0007
 4000TIP3    H133635   6.585   0.609   2.848  0.5116 -0.5031 -0.2020
 4000TIP3    H233636   6.625   0.673   2.717 -1.5777  1.6947  0.1576
 4001TIP3   OH233637   5.541   5.441   2.443  0.4231 -0.1898  0.3431
 4001TIP3    H133638   5.614   5.435   2.382  0.1960  0.0751  0.0398
 4001TIP3    H233639   5.575   5.407   2.525  0.1966 -2.3437 -0.3956
 4002TIP3   OH233640   3.062   1.293   2.583 -0.2263  0.3042 -0.8141
 4002TIP3    H133641   3.019   1.339   2.656 -0.1835  1.3487 -1.4280
 4002TIP3    H233642   3.012   1.212   2.574  0.9135 -0.7536  1.5797
 4003TIP3   OH233643   2.382   6.487   1.750  0.9406 -0.1113 -0.2576
 4003TIP3    H133644   2.346   6.416   1.696  0.1603  0.4191 -0.4408
 4003TIP3    H233645   2.305   6.537   1.778  1.6031  1.7803 -1.6667
 4004TIP3   OH233646   1.012   4.222   1.587  0.1173 -0.0257 -0.1361
 4004TIP3    H133647   1.076   4.214   1.517 -0.6139 -1.4132 -0.6975
 4004TIP3    H233648   0.944   4.159   1.564 -1.4197  1.3526  0.4763
 4005TIP3   OH233649   5.756   4.206   1.802 -0.3674  0.5068 -0.1917
 4005TIP3    H133650   5.727   4.167   1.884  1.2475 -0.5866 -0.1133
 4005TIP3    H233651   5.780   4.296   1.825 -3.3817  1.4478 -0.2271
 4006TIP3   OH233652   5.083   0.939   0.320 -0.1042 -0.1058  0.2856
 4006TIP3    H133653   5.032   0.871   0.365 -1.6475 -0.7984 -2.3149
 4006TIP3    H233654   5.017   0.996   0.280  1.1873  2.0835  1.0971
 4007TIP3   OH233655   3.060   5.123   7.907 -0.0249  0.7391 -0.1531
 4007TIP3    H133656   3.023   5.054   7.851  1.9163  0.4219 -1.1152
 4007TIP3    H233657   3.018   5.109   7.992 -1.3444 -0.2013 -0.9098
 4008TIP3   OH233658   6.538   2.645   2.161 -0.3948  0.1377 -0.1212
 4008TIP3    H133659   6.502   2.567   2.119 -2.3489  0.9842 -0.0924
 4008TIP3    H233660   6.512   2.718   2.105  1.1410  0.8401  0.0150
 4009TIP3   OH233661   3.377   0.313   3.094 -0.1578  0.8008  0.4423
 4009TIP3    H133662   3.323   0.309   3.016  0.1142  0.7272  0.2544
 4009TIP3    H233663   3.341   0.247   3.153  0.0542  0.3866  0.1109
 4010TIP3   OH233664   5.999   6.771   8.559 -0.3313  0.5734  0.3257
 4010TIP3    H133665   5.947   6.819   8.623 -1.5537  1.1787 -1.0599
 4010TIP3    H233666   6.085   6.761   8.601 -1.8830 -1.8503  3.3588
 4011TIP3   OH233667   0.278   5.815   2.808 -0.4998  0.3283  0.7659
 4011TIP3    H133668   0.265   5.880   2.876 -0.3167  0.3128  0.8181
 4011TIP3    H233669   0.263   5.731   2.851  1.3303  0.2037  1.2538
 4012TIP3   OH233670   0.616   6.444   2.485  0.0224 -0.9373  0.2496
 4012TIP3    H133671   0.671   6.482   2.416 -1.6317 -0.8266 -1.0752
 4012TIP3    H233672   0.620   6.350   2.471 -0.2628 -0.9180  0.0163
 4013TIP3   OH233673   0.353   4.797   1.576 -0.0229  0.0381 -0.5550
 4013TIP3    H133674   0.350   4.800   1.672  0.7066 -0.7077 -0.4957
 4013TIP3    H233675   0.404   4.718   1.557 -3.3787 -2.1109 -1.5742
 4014TIP3   OH233676   6.285   1.415   8.416  0.3161  0.1056 -0.2109
 4014TIP3    H133677   6.204   1.381   8.453  0.1458  0.6168 -0.0963
 4014TIP3    H233678   6.353   1.356   8.447 -0.2968 -1.8978 -2.4252
 4015TIP3   OH233679   2.629   0.137   0.408  0.6251 -0.2175 -0.2068
 4015TIP3    H133680   2.654   0.137   0.500  2.1317  0.9848 -0.5753
 4015TIP3    H233681   2.657   0.051   0.376 -1.0965 -1.1647  0.7190
 4016TIP3   OH233682   1.243   6.385   2.839  0.4629  0.4665 -0.0376
 4016TIP3    H133683   1.313   6.390   2.774 -0.2633 -1.0766 -1.0170
 4016TIP3    H233684   1.282   6.418   2.920  1.9136  0.8419 -0.8608
 4017TIP3   OH233685   0.389   5.127   0.081  0.6575  0.4524  0.7114
 4017TIP3    H133686   0.344   5.142  -0.002 -0.2573 -1.1637  0.8887
 4017TIP3    H233687   0.416   5.035   0.079  2.1050  0.8141  1.5245
 4018TIP3   OH233688   2.510   4.890   8.241 -0.2445  0.2631 -1.0219
 4018TIP3    H133689   2.598   4.886   8.204  0.6831  0.0834  1.0227
 4018TIP3    H233690   2.494   4.984   8.254  0.1344  0.2488 -0.3869
 4019TIP3   OH233691   6.545   1.644   1.363  0.3664 -0.5645  0.1356
 4019TIP3    H133692   6.612   1.576   1.358 -0.3691 -1.2568 -0.6833
 4019TIP3    H233693   6.567   1.694   1.442  1.8000 -0.8020 -0.0782
 4020TIP3   OH233694   5.893   1.781   8.543  0.6231 -0.0041  0.2244
 4020TIP3    H133695   5.947   1.854   8.513  0.7027 -1.0756 -2.5909
 4020TIP3    H233696   5.816   1.784   8.486 -0.0118 -1.3264  0.9672
 4021TIP3   OH233697   0.215   6.474   8.158 -0.0407  0.0739  0.1675
 4021TIP3    H133698   0.170   6.504   8.237  0.6861  0.0282  0.6088
 4021TIP3    H233699   0.254   6.553   8.121 -2.8838  0.6591 -1.8528
 4022TIP3   OH233700   1.575   0.107   0.722 -0.3629  0.0456  0.3309
 4022TIP3    H133701   1.671   0.116   0.718 -0.3720 -0.0794 -0.2557
 4022TIP3    H233702   1.553   0.126   0.813  0.0425  1.7530  0.1070
 4023TIP3   OH233703   2.429   0.824   2.659  0.2124  0.8448 -0.2600
 4023TIP3    H133704   2.437   0.783   2.746  1.2992  0.3102 -0.5853
 4023TIP3    H233705   2.399   0.913   2.677 -0.3487  0.4931  0.6050
 4024TIP3   OH233706   1.008   0.604   7.552  0.3416 -0.2620  0.2735
 4024TIP3    H133707   0.959   0.686   7.563  0.2161 -0.1981 -0.6455
 4024TIP3    H233708   1.021   0.598   7.457  0.8678 -1.0083  0.3942
 4025TIP3   OH233709   1.111   3.538   8.325 -0.3479  0.1047 -0.1691
 4025TIP3    H133710   1.124   3.490   8.406  1.2674  1.0560  0.1900
 4025TIP3    H233711   1.074   3.622   8.352  0.4475  0.5310 -0.3665
 4026TIP3   OH233712   3.610   6.292   1.121 -0.3346 -0.3551  0.0638
 4026TIP3    H133713   3.613   6.323   1.211 -1.2012 -0.1171  0.0220
 4026TIP3    H233714   3.671   6.219   1.118 -0.3117 -0.3761  0.8497
 4027TIP3   OH233715   2.564   3.397   8.649  0.2374  0.3678 -0.3847
 4027TIP3    H133716   2.600   3.461   8.588 -1.4011  1.7911  0.0743
 4027TIP3    H233717   2.498   3.349   8.598  0.7138 -0.2497 -0.4332
 4028TIP3   OH233718   4.339   0.332   1.397  0.2577 -0.0400 -0.4414
 4028TIP3    H133719   4.410   0.283   1.356  0.2974  0.1849 -0.6481
 4028TIP3    H233720   4.263   0.274   1.390  0.8957 -1.2542  1.8396
 4029TIP3   OH233721   3.483   5.870   8.399  0.4669  0.4303 -0.2065
 4029TIP3    H133722   3.501   5.863   8.305  1.3076  0.5935 -0.0635
 4029TIP3    H233723   3.428   5.947   8.407 -0.5932 -0.2536 -0.6878
 4030TIP3   OH233724   2.392   5.681   1.958 -0.2889 -0.3332  0.3124
 4030TIP3    H133725   2.448   5.745   2.001 -1.1863  0.6530  0.0623
 4030TIP3    H233726   2.368   5.620   2.027  0.1806 -0.1217  0.6701
 4031TIP3   OH233727   3.316   0.417   0.375 -0.1548  0.2327  0.3461
 4031TIP3    H133728   3.352   0.502   0.347  2.5061 -0.4947  1.2407
 4031TIP3    H233729   3.316   0.421   0.470  0.9091 -1.0578  0.4356
 4032TIP3   OH233730   1.370   5.915   0.451 -0.3409 -0.5610 -0.2618
 4032TIP3    H133731   1.405   5.948   0.533  0.8838  1.7539 -1.6111
 4032TIP3    H233732   1.281   5.950   0.447  0.5110  1.6895 -1.0841
 4033TIP3   OH233733   0.738   3.533   0.668 -0.5876  0.3821 -0.2883
 4033TIP3    H133734   0.692   3.455   0.636 -1.7161  0.3653  1.2743
 4033TIP3    H233735   0.818   3.499   0.709 -0.9741  0.0446  0.2010
 4034TIP3   OH233736   0.867   1.904   3.250  0.0094 -0.5046  0.5861
 4034TIP3    H133737   0.878   1.853   3.331 -0.5283  0.2710  1.1682
 4034TIP3    H233738   0.772   1.905   3.235  0.0974 -0.5409  0.0062
 4035TIP3   OH233739   3.617   0.383   0.419 -0.2331 -0.1522 -0.0097
 4035TIP3    H133740   3.585   0.473   0.412 -0.3661 -0.0914  1.1533
 4035TIP3    H233741   3.713   0.392   0.418 -0.1458 -0.2905 -2.9487
 4036TIP3   OH233742   2.176   3.564   2.406 -0.4293  0.1143 -0.5794
 4036TIP3    H133743   2.148   3.472   2.410  0.1558 -0.0920 -1.1032
 4036TIP3    H233744   2.117   3.604   2.342 -0.3136 -0.0373 -0.7835
 4037TIP3   OH233745   5.548   1.587   1.643  0.1925 -0.0657  0.1941
 4037TIP3    H133746   5.552   1.553   1.733  0.2117 -0.5325  0.0229
 4037TIP3    H233747   5.585   1.516   1.590 -0.8265 -0.2554 -0.3024
 4038TIP3   OH233748   5.872   6.476   8.001 -0.1790 -0.0819  0.0138
 4038TIP3    H133749   5.855   6.417   7.928 -1.2711  0.1683  0.0588
 4038TIP3    H233750   5.802   6.540   7.997  0.4235  0.6333  0.5765
 4039TIP3   OH233751   2.532   6.097   1.849 -0.1493  0.5266 -0.1003
 4039TIP3    H133752   2.442   6.067   1.834  0.6196 -1.2837 -1.3465
 4039TIP3    H233753   2.560   6.048   1.927  0.5091 -0.6973 -1.0831
 4040TIP3   OH233754   2.049   4.978   2.928  0.0755  0.3804  0.3405
 4040TIP3    H133755   2.002   5.040   2.872 -3.6700 -0.1637  2.5226
 4040TIP3    H233756   2.088   5.033   2.996  0.9107  0.6782 -0.3609
 4041TIP3   OH233757   1.324   1.911   8.344 -0.5738  0.8538 -0.2972
 4041TIP3    H133758   1.362   1.847   8.285  1.9916  0.1251  1.9204
 4041TIP3    H233759   1.231   1.914   8.320  0.1594  0.1257 -3.7656
 4042TIP3   OH233760   5.595   0.815   0.617 -0.1427  0.0874 -0.7052
 4042TIP3    H133761   5.686   0.836   0.598  0.4499  0.1477  1.8644
 4042TIP3    H233762   5.549   0.899   0.612  0.2352  0.3040 -0.5482
 4043TIP3   OH233763   1.228   0.258   8.355 -0.2684  0.0333 -0.1877
 4043TIP3    H133764   1.289   0.224   8.421 -1.0100 -2.8576 -0.8754
 4043TIP3    H233765   1.164   0.308   8.406  1.4491  1.4278  0.7566
 4044TIP3   OH233766   3.392   2.050   0.572 -0.3163 -0.2492 -0.5532
 4044TIP3    H133767   3.432   2.028   0.656 -1.6686 -2.6299 -0.4594
 4044TIP3    H233768   3.320   2.109   0.594  1.7115  2.4486 -0.5433
 4045TIP3   OH233769   0.309   4.167   2.616 -0.0217  0.1364 -0.0981
 4045TIP3    H133770   0.334   4.232   2.682 -0.1686 -1.1986  1.3295
 4045TIP3    H233771   0.362   4.189   2.539  1.1543  0.9236  0.9025
 4046TIP3   OH233772   5.924   4.694   2.067  0.2349 -0.1735 -0.0601
 4046TIP3    H133773   5.892   4.773   2.024  1.2916 -0.6431 -1.8358
 4046TIP3    H233774   6.014   4.684   2.034  0.1418 -2.0579  0.1594
 4047TIP3   OH233775   3.436   5.264   2.983 -0.4163 -0.3033 -0.1621
 4047TIP3    H133776   3.409   5.350   2.951 -1.7882 -0.6275  0.0496
 4047TIP3    H233777   3.398   5.202   2.921 -0.1884 -0.7937  0.1798
 4048TIP3   OH233778   1.900   2.803   0.840 -0.4867 -0.7382 -0.1349
 4048TIP3    H133779   1.831   2.859   0.803  0.7610  1.9392  1.3128
 4048TIP3    H233780   1.972   2.809   0.777 -0.1556 -0.2415  0.2843
 4049TIP3   OH233781   4.512   4.673   7.788 -0.6986 -0.1278  0.4557
 4049TIP3    H133782   4.503   4.663   7.883  0.5565 -1.6687  0.4701
 4049TIP3    H233783   4.427   4.647   7.753 -0.4430 -1.9537  1.0779
 4050TIP3   OH233784   4.136   5.149   8.420  0.0272 -0.1196 -0.7195
 4050TIP3    H133785   4.222   5.190   8.419  0.6849 -1.3257  0.7225
 4050TIP3    H233786   4.076   5.215   8.387  1.1593  1.6475  0.6036
 4051TIP3   OH233787   4.181   4.309   1.675 -0.1289  0.0912  0.2621
 4051TIP3    H133788   4.214   4.356   1.598 -1.3977  3.0497  1.3971
 4051TIP3    H233789   4.207   4.218   1.660 -0.5108  0.4677 -3.7864
 4052TIP3   OH233790   0.582   4.090   2.560 -0.5415  0.4338 -0.2804
 4052TIP3    H133791   0.622   4.177   2.558 -1.0313  0.7202  1.3095
 4052TIP3    H233792   0.656   4.030   2.561 -0.1450  0.6565 -3.6591
 4053TIP3   OH233793   3.984   1.930   1.485 -0.1659  0.1654 -0.0235
 4053TIP3    H133794   3.937   1.967   1.560  0.3139  2.1415 -0.6210
 4053TIP3    H233795   3.944   1.973   1.409  0.0016 -1.0820 -0.8443
 4054TIP3   OH233796   4.746   0.442   8.030  0.0109  0.1705 -0.3774
 4054TIP3    H133797   4.750   0.523   8.081 -2.5432 -0.4141  0.8928
 4054TIP3    H233798   4.820   0.449   7.970  1.9864  1.7908  2.0499
 4055TIP3   OH233799   4.405   1.416   7.494  0.2830 -0.2417  0.2282
 4055TIP3    H133800   4.326   1.437   7.544  0.3976 -1.1574  0.8105
 4055TIP3    H233801   4.380   1.342   7.439  0.3281  0.3944 -0.6891
 4056TIP3   OH233802   5.165   3.294   8.127  0.7183 -0.1822 -0.4647
 4056TIP3    H133803   5.122   3.271   8.209 -0.2832 -0.5022 -1.0607
 4056TIP3    H233804   5.094   3.322   8.069  1.3542 -0.3488 -1.3561
 4057TIP3   OH233805   4.560   0.796   2.380 -0.3491 -0.3736  0.0437
 4057TIP3    H133806   4.601   0.810   2.295  0.5040 -1.7577  0.2008
 4057TIP3    H233807   4.488   0.859   2.382 -2.1219 -2.0697 -2.8283
 4058TIP3   OH233808   1.905   0.904   2.912 -0.0657 -0.7508  0.2479
 4058TIP3    H133809   1.992   0.870   2.894  0.4304  0.9304 -0.7595
 4058TIP3    H233810   1.892   0.891   3.006  1.9551  0.4163  0.7432
 4059TIP3   OH233811   1.546   3.483   0.858 -0.5429  0.1263 -0.4305
 4059TIP3    H133812   1.627   3.483   0.808 -0.1582 -1.0121  0.1463
 4059TIP3    H233813   1.542   3.570   0.898 -0.3823  0.7177 -1.6571
 4060TIP3   OH233814   5.574   2.513   1.591 -0.1661 -0.1514 -0.0115
 4060TIP3    H133815   5.599   2.438   1.536  0.0252 -0.9209  1.0856
 4060TIP3    H233816   5.482   2.497   1.611 -0.4395  0.5119 -0.6715
 4061TIP3   OH233817   1.609   3.238   1.445  0.6737 -0.1166  0.1414
 4061TIP3    H133818   1.580   3.177   1.377  0.1346  1.0551 -0.7142
 4061TIP3    H233819   1.697   3.208   1.469  0.4521 -1.1710 -0.2963
 4062TIP3   OH233820   5.138   5.915   0.975 -0.0261 -0.3015  0.0341
 4062TIP3    H133821   5.100   5.835   0.939 -0.4930  0.0354 -0.2272
 4062TIP3    H233822   5.182   5.886   1.056 -1.8443 -0.5369  0.9938
 4063TIP3   OH233823   0.008   1.648   2.763  0.3346 -0.3517  0.0443
 4063TIP3    H133824  -0.061   1.638   2.697  1.4897  1.8952 -1.6413
 4063TIP3    H233825  -0.034   1.696   2.834 -0.4435 -1.2107  0.2010
 4064TIP3   OH233826   5.988   3.746   2.250 -0.2988 -0.3115 -0.0377
 4064TIP3    H133827   6.083   3.750   2.254 -0.3296  0.0761  0.4254
 4064TIP3    H233828   5.961   3.837   2.239 -0.5832 -0.5061 -1.0605
 4065TIP3   OH233829   1.513   1.876   1.190  0.0957 -0.2122 -0.0754
 4065TIP3    H133830   1.553   1.793   1.215  0.5304  0.1121  0.3185
 4065TIP3    H233831   1.476   1.910   1.272 -0.8708 -0.4397 -0.4048
 4066TIP3   OH233832   3.619   4.797   7.423 -0.2253  0.0070 -0.1924
 4066TIP3    H133833   3.565   4.872   7.401 -1.6766 -1.0917 -0.5749
 4066TIP3    H233834   3.557   4.724   7.428  1.2006 -1.2730 -0.4604
 4067TIP3   OH233835   6.200   5.153   8.515  0.4898  0.0312  0.1141
 4067TIP3    H133836   6.276   5.208   8.500  0.7130 -0.0077  1.0904
 4067TIP3    H233837   6.233   5.063   8.508  0.8582 -0.0124  1.9515
 4068TIP3   OH233838   4.360   5.193   7.840  0.5312  0.3444 -0.7365
 4068TIP3    H133839   4.380   5.107   7.804  0.0789  0.1115 -0.4440
 4068TIP3    H233840   4.426   5.251   7.802  1.5020 -0.3153 -0.1073
 4069TIP3   OH233841   0.038   0.163   2.107  0.1468  0.0200 -0.2521
 4069TIP3    H133842  -0.005   0.151   2.192 -1.5118  1.1333 -0.8821
 4069TIP3    H233843  -0.029   0.139   2.043  1.6124 -1.5204 -1.2674
 4070TIP3   OH233844   1.800   0.729   8.016  0.1771  0.5657 -0.1115
 4070TIP3    H133845   1.766   0.818   8.009 -0.4906  0.4591  1.3704
 4070TIP3    H233846   1.792   0.708   8.109 -0.0588 -1.1772 -0.4932
 4071TIP3   OH233847   5.709   1.081   1.662 -0.0006  0.2844  0.1164
 4071TIP3    H133848   5.751   1.167   1.672 -0.3521  0.4747 -0.0646
 4071TIP3    H233849   5.756   1.025   1.724  0.9846  0.3286 -0.5686
 4072TIP3   OH233850   1.536   3.186   0.073 -0.1215 -0.2139  0.4296
 4072TIP3    H133851   1.503   3.276   0.067  1.2626  0.3328  0.6143
 4072TIP3    H233852   1.521   3.162   0.164 -1.3959 -0.5622  0.1547
 4073TIP3   OH233853   3.025   5.685   2.698 -0.2240 -0.2990 -0.6828
 4073TIP3    H133854   3.021   5.590   2.710  2.1151 -0.1392  2.6976
 4073TIP3    H233855   3.093   5.714   2.759 -1.0130  3.6063 -1.4093
 4074TIP3   OH233856   0.752   2.720   1.372  0.2043  0.0306  0.0269
 4074TIP3    H133857   0.718   2.809   1.362 -0.8856 -0.2525  1.1203
 4074TIP3    H233858   0.714   2.672   1.299  1.1882  0.5410 -0.8619
 4075TIP3   OH233859   1.464   1.309   0.715 -0.2420 -0.4329  0.1695
 4075TIP3    H133860   1.511   1.228   0.695 -1.8226 -1.1559 -0.8750
 4075TIP3    H233861   1.374   1.280   0.732 -0.3418  0.8713  2.2027
 4076TIP3   OH233862   4.435   1.819   1.220 -0.0424 -0.5229 -0.1428
 4076TIP3    H133863   4.410   1.843   1.310  1.0878 -0.2018  0.1064
 4076TIP3    H233864   4.401   1.891   1.167  1.8794  0.8684  0.4110
 4077TIP3   OH233865   5.452   3.942   2.426  0.5240  0.1604 -0.7216
 4077TIP3    H133866   5.493   3.872   2.376 -0.7490 -0.2282 -1.2468
 4077TIP3    H233867   5.398   3.989   2.362 -0.0561  0.4945  0.0008
 4078TIP3   OH233868   1.423   0.670   8.251  0.4092 -0.8677  0.3546
 4078TIP3    H133869   1.405   0.709   8.336 -1.0227  1.6784 -0.9876
 4078TIP3    H233870   1.445   0.744   8.195  0.1021 -2.3079 -1.7881
 4079TIP3   OH233871   1.900   3.074   1.867 -0.2082  0.8617 -1.1632
 4079TIP3    H133872   1.811   3.042   1.878  1.1571 -2.6155  2.5745
 4079TIP3    H233873   1.902   3.156   1.918 -0.9674  0.1270  0.1125
 4080TIP3   OH233874   3.634   1.942   1.056 -0.5227 -0.0720 -0.3590
 4080TIP3    H133875   3.721   1.970   1.084  0.2718 -0.1458 -2.5178
 4080TIP3    H233876   3.605   1.881   1.124  1.2183 -0.2276  0.2997
 4081TIP3   OH233877   5.942   6.807   0.848  0.0666  0.0057 -0.4666
 4081TIP3    H133878   5.919   6.716   0.867  1.6993 -0.2944  0.1995
 4081TIP3    H233879   5.945   6.850   0.933 -1.9684  1.0588 -0.8575
 4082TIP3   OH233880   2.779   6.839   0.862 -0.0780 -0.0926 -0.1106
 4082TIP3    H133881   2.715   6.876   0.924  0.3912  1.4388 -0.5034
 4082TIP3    H233882   2.733   6.765   0.822 -1.4496  0.7029 -0.0637
 4083TIP3   OH233883   1.727   3.774   8.179  0.1671 -0.4330  0.2154
 4083TIP3    H133884   1.693   3.689   8.208  2.8830 -1.2882  1.1850
 4083TIP3    H233885   1.781   3.753   8.103 -0.0762  0.6052 -0.2527
 4084TIP3   OH233886   6.860   4.217   7.469  0.0790  0.3232  0.3552
 4084TIP3    H133887   6.835   4.293   7.417 -0.1814 -0.4984 -0.7718
 4084TIP3    H233888   6.780   4.194   7.517  0.3724  1.1961  1.2787
 4085TIP3   OH233889   0.760   4.391   2.036  0.6055 -0.3232 -0.0466
 4085TIP3    H133890   0.775   4.336   2.113  2.2627  1.7087  1.2025
 4085TIP3    H233891   0.846   4.429   2.018  0.0427 -0.0563 -2.3930
 4086TIP3   OH233892   2.350   6.833   7.894  0.1206 -0.9326  0.3236
 4086TIP3    H133893   2.335   6.899   7.827  0.8795 -1.0353  0.0417
 4086TIP3    H233894   2.362   6.751   7.846  0.7045 -0.9993  0.5793
 4087TIP3   OH233895   1.931   3.631   8.020  0.3105 -0.1774 -0.3823
 4087TIP3    H133896   1.937   3.573   8.096 -1.9311  0.8387  0.6638
 4087TIP3    H233897   1.911   3.572   7.947  0.1641 -0.9282  0.2466
 4088TIP3   OH233898   1.091   1.961   0.282 -0.1037 -0.2453  0.4518
 4088TIP3    H133899   1.156   1.926   0.220  0.7266 -0.8157  1.6199
 4088TIP3    H233900   1.132   2.040   0.316 -1.2679  1.0192 -0.9237
 4089TIP3   OH233901   2.754   1.513   2.630  0.3021 -0.4713 -0.5181
 4089TIP3    H133902   2.698   1.590   2.646  2.1998  1.4110 -2.2764
 4089TIP3    H233903   2.830   1.527   2.685  0.0394 -1.9102  0.2502
 4090TIP3   OH233904   1.049   1.452   1.872 -0.3909 -0.1976 -0.5058
 4090TIP3    H133905   1.057   1.401   1.952 -0.8742  2.1246  1.1301
 4090TIP3    H233906   1.133   1.442   1.828  0.2713 -0.6868  0.8222
 4091TIP3   OH233907   2.344   1.745   1.815 -0.9135  0.2808  0.4818
 4091TIP3    H133908   2.285   1.771   1.885 -0.1024  0.3180  1.1687
 4091TIP3    H233909   2.335   1.650   1.809 -1.5918  0.3612  0.0612
 4092TIP3   OH233910   6.661   1.637   8.256  0.1845 -0.2732 -0.0850
 4092TIP3    H133911   6.568   1.658   8.255 -0.0690 -0.9666  2.3533
 4092TIP3    H233912   6.664   1.542   8.259  0.9860 -0.2695 -0.5769
 4093TIP3   OH233913   1.245   4.042   2.071 -0.0435  0.5755 -0.2473
 4093TIP3    H133914   1.217   4.033   2.162 -0.0581  0.3483 -0.2751
 4093TIP3    H233915   1.180   4.101   2.032 -1.5984 -1.4244 -0.8137
 4094TIP3   OH233916   1.139   0.008   1.905  0.6792  0.4258 -0.4493
 4094TIP3    H133917   1.154   0.082   1.965  0.0529  1.6701 -1.7619
 4094TIP3    H233918   1.074  -0.046   1.949 -0.7275  1.9793 -0.5066
 4095TIP3   OH233919   4.305   4.807   0.327  0.3151  0.2407  0.0026
 4095TIP3    H133920   4.358   4.885   0.311  1.8439 -0.3527  1.7827
 4095TIP3    H233921   4.301   4.763   0.242  1.1643  1.2439 -0.5730
 4096TIP3   OH233922   3.478   3.896   1.645  0.1229 -0.2640 -0.6540
 4096TIP3    H133923   3.472   3.979   1.598  1.3880 -0.8033 -1.8275
 4096TIP3    H233924   3.410   3.902   1.712  1.5027  2.5896  0.6911
 4097TIP3   OH233925   5.937   2.323   1.632 -0.1456 -0.3649 -0.7784
 4097TIP3    H133926   5.979   2.340   1.717  0.2895 -2.0909 -0.5947
 4097TIP3    H233927   6.009   2.292   1.576 -0.6389 -0.3754 -1.4132
 4098TIP3   OH233928   4.332   3.045   1.373 -0.3367 -0.0875  0.5385
 4098TIP3    H133929   4.357   2.977   1.311 -1.1605  0.7854 -0.8004
 4098TIP3    H233930   4.415   3.087   1.397  0.0838 -0.9959  0.7218
 4099TIP3   OH233931   1.215   4.680   1.533  0.1545  0.0631 -0.4284
 4099TIP3    H133932   1.290   4.622   1.540 -0.3380 -0.5703 -0.2816
 4099TIP3    H233933   1.188   4.695   1.624 -0.0130  0.1342 -0.4889
 4100TIP3   OH233934   1.564   4.330   7.872  0.2209  0.3417  0.2157
 4100TIP3    H133935   1.631   4.271   7.908  0.3377  1.3596  1.7570
 4100TIP3    H233936   1.600   4.357   7.787  2.0662  1.2902  1.2421
 4101TIP3   OH233937   2.831   6.209   8.254  0.4787 -0.0104  0.1572
 4101TIP3    H133938   2.812   6.299   8.228 -2.2915 -0.4939  0.2315
 4101TIP3    H233939   2.804   6.203   8.346  1.5192 -0.6914  0.4408
 4102TIP3   OH233940   3.951   4.598   7.171  0.0366  0.1419  0.1145
 4102TIP3    H133941   3.905   4.621   7.251  2.4030  0.4083  1.4905
 4102TIP3    H233942   3.959   4.503   7.174 -0.2068  0.1191  0.0102
 4103TIP3   OH233943   5.846   0.961   8.520  0.2014 -0.0945 -0.2219
 4103TIP3    H133944   5.845   0.870   8.490  0.4375  0.4946 -2.1101
 4103TIP3    H233945   5.930   0.970   8.565 -0.2578 -1.0611  0.8832
 4104TIP3   OH233946   4.919   5.524   1.091 -0.1628  0.1288 -0.0484
 4104TIP3    H133947   4.879   5.471   1.160 -0.0625 -0.9287 -0.7808
 4104TIP3    H233948   4.993   5.471   1.060 -0.2233  0.5735 -0.9859
 4105TIP3   OH233949   3.028   4.037   2.079 -0.7805 -0.3722  0.3209
 4105TIP3    H133950   3.012   4.070   2.168 -2.3151  1.7719 -0.6554
 4105TIP3    H233951   2.957   4.074   2.027  1.0188 -0.1516 -2.1375
 4106TIP3   OH233952   2.120   4.823   8.686 -0.6455  0.3800 -0.1516
 4106TIP3    H133953   2.099   4.878   8.611  0.1344  1.5810  0.4763
 4106TIP3    H233954   2.185   4.873   8.735 -0.5149 -0.7542  0.8815
 4107TIP3   OH233955   3.319   0.148   2.162 -0.1800  0.6470  0.1469
 4107TIP3    H133956   3.387   0.174   2.099  0.4979  1.5898  1.2285
 4107TIP3    H233957   3.312   0.222   2.221 -0.8060 -0.2190  1.1888
 4108TIP3   OH233958   4.556   3.318   7.132 -0.4900  0.4487  0.2314
 4108TIP3    H133959   4.504   3.374   7.074 -1.1846 -0.4866 -0.0762
 4108TIP3    H233960   4.618   3.378   7.174 -0.1538  1.1985 -1.2643
 4109TIP3   OH233961   1.061   2.182   0.574  0.5473  0.2842 -0.5759
 4109TIP3    H133962   1.129   2.117   0.587 -0.4772 -0.6524  0.2362
 4109TIP3    H233963   1.052   2.189   0.479 -1.2648 -2.8842 -0.7439
 4110TIP3   OH233964   4.463   2.877   0.804 -0.1327  0.2995 -0.5724
 4110TIP3    H133965   4.483   2.811   0.870 -0.1949  0.1395 -0.7137
 4110TIP3    H233966   4.437   2.954   0.855  0.0700  0.2605 -0.4043
 4111TIP3   OH233967   1.991   1.338   2.359  0.3741 -0.0571  0.3460
 4111TIP3    H133968   2.024   1.249   2.343 -0.8213 -0.3779 -0.4971
 4111TIP3    H233969   1.905   1.339   2.317  1.3603  2.2762 -1.8823
 4112TIP3   OH233970   3.256   5.970   2.429 -0.2824  0.0807 -0.4341
 4112TIP3    H133971   3.285   6.056   2.458 -0.8114  1.1773 -2.8658
 4112TIP3    H233972   3.318   5.947   2.359  0.7263 -2.2342  1.0973
 4113TIP3   OH233973   2.012   4.240   2.775 -0.0695  0.4267 -0.3094
 4113TIP3    H133974   1.938   4.187   2.806  0.8069 -0.8858 -0.3609
 4113TIP3    H233975   1.996   4.327   2.811 -0.6569 -0.2936  1.2637
 4114TIP3   OH233976   5.638   5.620   0.362 -0.5983  0.2831  0.1471
 4114TIP3    H133977   5.714   5.675   0.382 -1.0912  1.0994 -0.1422
 4114TIP3    H233978   5.563   5.678   0.375 -1.1131 -0.1871 -0.6250
 4115TIP3   OH233979   1.573   4.934   1.770 -0.0473 -0.4427  0.3531
 4115TIP3    H133980   1.621   5.000   1.819 -0.5027 -0.1088  0.3589
 4115TIP3    H233981   1.624   4.853   1.781  1.1727  0.1565 -0.6519
 4116TIP3   OH233982   5.281   4.110   2.648 -0.1773  0.2615  0.5267
 4116TIP3    H133983   5.373   4.084   2.660  0.1585  0.4739 -1.2879
 4116TIP3    H233984   5.242   4.100   2.735  0.6900 -3.3062  0.6890
 4117TIP3   OH233985   3.871   3.138   2.009  0.3179  0.5237 -0.7323
 4117TIP3    H133986   3.902   3.075   1.945  1.3291 -0.5353  0.7274
 4117TIP3    H233987   3.848   3.215   1.958 -1.3583 -1.1078 -2.6458
 4118TIP3   OH233988   6.257   4.254   0.239  0.6453 -0.0995  0.0584
 4118TIP3    H133989   6.301   4.170   0.224 -2.1971 -1.5908 -0.8323
 4118TIP3    H233990   6.289   4.282   0.325  0.8723 -2.7181  0.9370
 4119TIP3   OH233991   0.002   6.214   1.448 -0.2259 -0.2112 -0.5283
 4119TIP3    H133992   0.067   6.280   1.471 -0.5643 -0.3148  0.8103
 4119TIP3    H233993  -0.010   6.224   1.353  0.9433  0.5139 -0.6197
 4120TIP3   OH233994   6.015   1.005   1.807  0.7811  0.3795 -0.1906
 4120TIP3    H133995   6.026   0.943   1.735  1.3224 -0.6433  0.7349
 4120TIP3    H233996   5.934   0.976   1.851 -2.1564  3.6606 -2.8931
 4121TIP3   OH233997   2.384   4.456   0.579  0.2687  0.2583  0.2984
 4121TIP3    H133998   2.346   4.421   0.498  0.8703 -0.8299  0.4751
 4121TIP3    H233999   2.321   4.433   0.647  0.2675  0.2352  0.2895
 4122TIP3   OH234000   0.035   2.728   8.214 -0.2298 -0.4911 -0.0041
 4122TIP3    H134001  -0.045   2.781   8.212  0.8196  1.1742 -1.8471
 4122TIP3    H234002   0.037   2.684   8.129  0.9762 -0.2138 -0.1384
 4123TIP3   OH234003   1.227   1.914   0.862  0.3426  0.1438 -0.1322
 4123TIP3    H134004   1.246   1.923   0.769 -0.8707 -0.0672 -0.4224
 4123TIP3    H234005   1.262   1.828   0.886 -0.4937 -0.3706 -0.7178
 4124TIP3   OH234006   2.367   4.808   7.918 -0.0126  0.3434  0.1205
 4124TIP3    H134007   2.354   4.765   8.002 -0.1635 -0.4396 -0.2929
 4124TIP3    H234008   2.367   4.736   7.854  1.1949  0.8039 -0.4400
 4125TIP3   OH234009   2.276   1.716   1.493  0.1370 -0.0651  0.3850
 4125TIP3    H134010   2.232   1.799   1.512  2.4170  1.4069 -0.3974
 4125TIP3    H234011   2.347   1.710   1.557  0.4682 -1.0480 -0.0430
 4126TIP3   OH234012   3.012   2.697   0.653  0.1945 -0.1408  0.2192
 4126TIP3    H134013   2.933   2.696   0.708  0.6708 -0.9198  0.9194
 4126TIP3    H234014   3.001   2.623   0.594  0.6918 -0.6528  0.7575
 4127TIP3   OH234015   5.996   5.148   0.319 -0.0928 -0.5148 -0.4349
 4127TIP3    H134016   5.982   5.207   0.245  2.6796 -0.5353 -1.0782
 4127TIP3    H234017   6.081   5.107   0.302 -0.1160 -1.7592  1.9609
 4128TIP3   OH234018   0.287   4.171   2.144  0.0269  0.5564  0.6207
 4128TIP3    H134019   0.287   4.192   2.050  2.2361  2.6662  0.9827
 4128TIP3    H234020   0.354   4.103   2.153  0.8124  1.3326  0.7954
 4129TIP3   OH234021   5.116   3.208   2.734  0.1225  0.3172 -0.1093
 4129TIP3    H134022   5.105   3.116   2.756  0.6736  0.3034  0.1241
 4129TIP3    H234023   5.163   3.207   2.651  1.1121  0.3872  0.4364
 4130TIP3   OH234024   4.886   2.991   0.283 -0.1287  0.3271  0.1249
 4130TIP3    H134025   4.937   3.043   0.345 -0.0703 -0.0050  0.3576
 4130TIP3    H234026   4.951   2.948   0.228 -0.1843  0.7165 -0.2438
 4131TIP3   OH234027   0.459   4.054   3.188  0.0962 -0.2416 -0.3184
 4131TIP3    H134028   0.365   4.067   3.179 -0.1315 -0.9372  0.8834
 4131TIP3    H234029   0.472   3.960   3.175  0.6217 -0.1431 -0.5084
 4132TIP3   OH234030   6.518   3.620   2.603 -0.1467  0.1496  0.1687
 4132TIP3    H134031   6.511   3.587   2.693  0.0964  0.3507  0.2651
 4132TIP3    H234032   6.475   3.554   2.549 -1.0673  0.4458  0.5232
 4133TIP3   OH234033   4.506   1.604   8.145 -0.0732  0.3680  0.1981
 4133TIP3    H134034   4.466   1.554   8.074  0.8834  0.6165 -0.5445
 4133TIP3    H234035   4.598   1.579   8.142 -0.0992  0.0154  1.6839
 4134TIP3   OH234036   4.698   1.832   8.664 -0.2659 -0.3723  0.4011
 4134TIP3    H134037   4.750   1.767   8.617 -0.6970 -1.1564  0.9683
 4134TIP3    H234038   4.753   1.910   8.668  0.4946 -0.8943  0.2119
 4135TIP3   OH234039   3.441   2.899   2.616 -0.5175 -0.0271 -0.5603
 4135TIP3    H134040   3.487   2.912   2.533  0.2322 -0.2607 -0.1891
 4135TIP3    H234041   3.472   2.970   2.672  0.1784 -0.7793  0.0248
 4136TIP3   OH234042   4.596   2.434   2.318  0.4383 -0.0493  0.4780
 4136TIP3    H134043   4.511   2.477   2.326 -0.1476 -1.4079  2.3904
 4136TIP3    H234044   4.578   2.351   2.273  0.9093  0.0301  0.1252
 4137TIP3   OH234045   6.683   0.527   1.085 -0.3048 -0.1955  0.2337
 4137TIP3    H134046   6.702   0.457   1.147  0.9605 -0.1605 -0.0748
 4137TIP3    H234047   6.604   0.569   1.119  0.3526 -0.1788  1.8374
 4138TIP3   OH234048   4.173   3.583   2.190  0.1631  0.0965  0.3679
 4138TIP3    H134049   4.209   3.590   2.279  0.7459  0.2107  0.1289
 4138TIP3    H234050   4.115   3.659   2.183 -0.1107 -0.0719  0.7487
 4139TIP3   OH234051   0.011   5.753   7.172  0.3084  1.1691  0.1167
 4139TIP3    H134052  -0.065   5.811   7.182  0.4537  1.0821  2.4463
 4139TIP3    H234053   0.050   5.751   7.260  2.1169 -0.0074 -0.6603
 4140TIP3   OH234054   4.741   6.666   1.793  0.0640  0.3999 -0.1072
 4140TIP3    H134055   4.677   6.598   1.807 -2.4900  2.3426 -1.4556
 4140TIP3    H234056   4.747   6.674   1.698 -0.1203  2.3368 -0.0050
 4141TIP3   OH234057   4.858   1.755   1.841 -0.2640  0.6105 -0.4073
 4141TIP3    H134058   4.914   1.742   1.765 -0.8952  0.0693 -0.7894
 4141TIP3    H234059   4.787   1.691   1.831  0.7645 -1.0039  1.7477
 4142TIP3   OH234060   5.688   2.771   2.346  0.3259  0.4409 -0.5585
 4142TIP3    H134061   5.742   2.703   2.307  1.1319  1.3147 -1.0199
 4142TIP3    H234062   5.750   2.839   2.372 -0.5766  1.6992 -1.5536
 4143TIP3   OH234063   0.043   3.895   1.564  0.6738  0.3498  0.0643
 4143TIP3    H134064   0.058   3.914   1.471 -1.3007  1.4596 -0.0975
 4143TIP3    H234065  -0.017   3.820   1.563  1.9941 -0.7457  0.5191
 4144TIP3   OH234066   6.412   0.514   0.856 -0.0674  0.1112 -0.0032
 4144TIP3    H134067   6.478   0.445   0.860  1.1616  1.2219 -0.2436
 4144TIP3    H234068   6.461   0.594   0.874 -1.0529  1.1635 -1.7723
 4145TIP3   OH234069   5.073   6.753   8.596  0.3496 -0.0587  0.4547
 4145TIP3    H134070   5.038   6.816   8.533  2.5649  1.0855  0.2927
 4145TIP3    H234071   5.159   6.730   8.562  0.1210 -2.2514  1.1913
 4146TIP3   OH234072   4.841   6.831   7.978 -0.1379 -0.7289  0.6949
 4146TIP3    H134073   4.901   6.826   8.052  2.0699  2.1831 -0.6994
 4146TIP3    H234074   4.773   6.893   8.005 -0.5295 -1.2910  1.0105
 4147TIP3   OH234075   2.619   1.011   3.749 -0.1543 -0.2922 -0.1021
 4147TIP3    H134076   2.564   1.009   3.671  0.1392 -1.3889 -0.2964
 4147TIP3    H234077   2.707   0.993   3.716  0.0483 -0.2814  0.4251
 4148TIP3   OH234078   2.279   0.744   8.547 -0.7599 -0.4890 -0.7650
 4148TIP3    H134079   2.312   0.785   8.627 -0.9501 -1.1166 -0.3555
 4148TIP3    H234080   2.256   0.817   8.491 -1.9909  0.0137  0.3239
 4149TIP3   OH234081   4.078   6.050   3.155 -0.0339  0.0018 -0.4156
 4149TIP3    H134082   4.136   5.974   3.160  0.3248  0.2887 -0.1371
 4149TIP3    H234083   4.043   6.047   3.066  0.5014 -0.1088 -0.6254
 4150TIP3   OH234084   3.349   2.855   1.820  0.1797 -0.9617 -0.5294
 4150TIP3    H134085   3.423   2.845   1.881  0.0153 -0.4519 -0.2389
 4150TIP3    H234086   3.378   2.921   1.757  0.6346 -2.0210 -1.4638
 4151TIP3   OH234087   2.262   2.429   1.092  0.1652  0.4449  0.2492
 4151TIP3    H134088   2.357   2.426   1.090  0.1355 -1.1508 -0.9639
 4151TIP3    H234089   2.240   2.454   1.182  1.7149  0.8522  0.5343
 4152TIP3   OH234090   3.308   1.480   2.428 -0.1722  0.1342 -0.5337
 4152TIP3    H134091   3.275   1.539   2.495 -0.3913  0.2893 -0.7740
 4152TIP3    H234092   3.404   1.488   2.434 -0.1701 -0.4701  0.2975
 4153TIP3   OH234093   0.591   0.867   1.489 -0.1770 -0.0741  0.1967
 4153TIP3    H134094   0.663   0.804   1.490 -1.2791 -1.4239 -0.2378
 4153TIP3    H234095   0.623   0.940   1.436  0.6633 -0.9193 -0.5040
 4154TIP3   OH234096   5.379   3.996   0.696 -0.4440 -0.3643  0.0762
 4154TIP3    H134097   5.464   4.019   0.733 -1.0781 -2.0967  2.9723
 4154TIP3    H234098   5.359   4.066   0.634  1.8779  1.4943  1.2927
 4155TIP3   OH234099   6.274   1.704   3.504  0.4577 -0.6094 -0.3993
 4155TIP3    H134100   6.190   1.744   3.526  0.6951 -0.6521  0.6276
 4155TIP3    H234101   6.297   1.651   3.580  2.1062  0.5618 -0.0002
 4156TIP3   OH234102   2.466   6.402   1.264  0.5672 -0.5338  0.2166
 4156TIP3    H134103   2.500   6.329   1.211  1.4806  0.1926 -0.2380
 4156TIP3    H234104   2.484   6.376   1.354 -1.0478 -1.8079  0.2015
 4157TIP3   OH234105   5.343   3.835   1.637  0.0864  0.2651 -0.2871
 4157TIP3    H134106   5.380   3.878   1.561  0.7742  0.3360  0.0743
 4157TIP3    H234107   5.283   3.899   1.675 -0.0891  0.3105 -0.6412
 4158TIP3   OH234108   0.764   5.684   7.613  0.0313 -0.5412 -0.2207
 4158TIP3    H134109   0.817   5.751   7.656 -0.8350  0.4077 -0.5905
 4158TIP3    H234110   0.755   5.715   7.522 -0.3405 -1.1792 -0.4082
 4159TIP3   OH234111   0.185   2.148   1.974  0.8044  0.2423 -0.7502
 4159TIP3    H134112   0.157   2.161   1.884 -2.2761  2.6053  0.3481
 4159TIP3    H234113   0.246   2.220   1.991  1.3242 -0.1574 -0.8910
 4160TIP3   OH234114   0.229   3.111   2.542  0.5908 -0.2209 -0.4167
 4160TIP3    H134115   0.232   3.173   2.614  0.5947 -0.3887 -0.2718
 4160TIP3    H234116   0.172   3.151   2.477 -1.4829 -1.1857  0.7124
 4161TIP3   OH234117   4.465   5.633   0.398  0.2261 -0.2238  0.1144
 4161TIP3    H134118   4.557   5.641   0.374 -0.2564  1.3134 -1.4661
 4161TIP3    H234119   4.424   5.713   0.364 -1.7461 -0.9878  0.5339
 4162TIP3   OH234120   1.993   1.307   8.303  0.4819  0.2878  1.2217
 4162TIP3    H134121   2.009   1.214   8.287  0.5335  0.4425  0.2926
 4162TIP3    H234122   2.078   1.341   8.332  0.3868 -0.0083  1.8615
 4163TIP3   OH234123   1.463   2.675   0.114  0.1045  0.4734 -1.1460
 4163TIP3    H134124   1.467   2.754   0.168 -3.0998 -0.1639  0.2746
 4163TIP3    H234125   1.407   2.700   0.040 -2.0450 -0.6913 -0.0102
 4164TIP3   OH234126   5.545   2.602   0.694  0.2356 -0.0296  0.3327
 4164TIP3    H134127   5.484   2.655   0.642  0.8434  1.4374  1.0582
 4164TIP3    H234128   5.493   2.571   0.768 -0.3880 -1.3466 -0.6151
 4165TIP3   OH234129   6.184   2.434   2.453  0.0034  0.7167 -0.0078
 4165TIP3    H134130   6.146   2.415   2.539  2.0213 -1.9814  0.4381
 4165TIP3    H234131   6.271   2.468   2.473  0.7573 -0.5653 -0.9286
 4166TIP3   OH234132   2.438   0.596   8.215 -0.5964  0.0268  0.0651
 4166TIP3    H134133   2.405   0.558   8.296  0.6158  0.9885  1.0676
 4166TIP3    H234134   2.519   0.548   8.197  0.2474  1.1767  0.6167
 4167TIP3   OH234135   6.553   5.559   2.052  0.2863  0.0928 -0.0091
 4167TIP3    H134136   6.629   5.615   2.033  1.9765 -2.0800 -0.0544
 4167TIP3    H234137   6.571   5.522   2.138 -2.9992  2.9383  2.1422
 4168TIP3   OH234138   2.979   3.263   0.804  0.8701  0.1810  0.0066
 4168TIP3    H134139   2.935   3.290   0.885 -0.5338  1.7531 -1.2097
 4168TIP3    H234140   2.981   3.342   0.750 -0.6469 -1.3949 -2.5556
 4169TIP3   OH234141   0.672   5.177   7.173  0.2994  0.4708  0.0683
 4169TIP3    H134142   0.767   5.188   7.166  0.1888  2.1930  0.7461
 4169TIP3    H234143   0.647   5.236   7.244 -1.5607  1.7574 -1.5540
 4170TIP3   OH234144   6.279   3.660   1.080  0.7117  0.5761 -0.4739
 4170TIP3    H134145   6.187   3.645   1.061  0.5485  1.0311 -0.0672
 4170TIP3    H234146   6.287   3.755   1.084  1.1908  0.5361 -0.4658
 4171TIP3   OH234147   0.900   4.075   2.668  0.1288 -0.1716  0.4574
 4171TIP3    H134148   0.855   4.004   2.623 -3.1512  1.7377  0.4174
 4171TIP3    H234149   0.923   4.039   2.753  0.0017 -1.7374 -0.1384
 4172TIP3   OH234150   3.146   1.550   7.865  0.1428 -0.4793  0.2474
 4172TIP3    H134151   3.204   1.620   7.835  0.0507  0.0637  1.2775
 4172TIP3    H234152   3.154   1.482   7.799  2.0331 -0.4654  0.4116
 4173TIP3   OH234153   0.941   5.892   1.889  0.2384 -0.5107  0.2927
 4173TIP3    H134154   0.857   5.928   1.862 -0.1073 -0.7671  0.9873
 4173TIP3    H234155   0.981   5.859   1.809  0.3762  1.0102 -0.2955
 4174TIP3   OH234156   5.375   4.907   2.698  0.1880 -0.0227 -0.2524
 4174TIP3    H134157   5.293   4.953   2.679  0.3793 -0.0995 -1.3042
 4174TIP3    H234158   5.437   4.942   2.634  0.1406 -2.3351 -1.6755
 4175TIP3   OH234159   4.266   4.738   0.065 -0.1214 -0.2779 -0.7840
 4175TIP3    H134160   4.171   4.729   0.071 -0.4458  2.3116 -0.6023
 4175TIP3    H234161   4.280   4.789  -0.015  1.2589 -1.8020 -1.5653
 4176TIP3   OH234162   4.358   4.654   6.608 -0.2879 -0.7286 -0.0367
 4176TIP3    H134163   4.395   4.593   6.544 -0.8116 -0.2358 -0.8264
 4176TIP3    H234164   4.433   4.682   6.660  0.0613 -1.5300 -0.0879
 4177TIP3   OH234165   1.236   6.160   3.166 -0.3955  0.2756  0.7755
 4177TIP3    H134166   1.178   6.158   3.090 -1.0310  2.6496  1.1102
 4177TIP3    H234167   1.202   6.231   3.220  3.1198  2.1896  0.7298
 4178TIP3   OH234168   6.586   6.591   7.882 -0.6856 -0.2535 -0.1797
 4178TIP3    H134169   6.616   6.620   7.969  0.6866 -1.6325 -0.1454
 4178TIP3    H234170   6.538   6.509   7.900  2.0116 -2.1155 -0.8953
 4179TIP3   OH234171   5.644   4.049   8.643  0.1290 -0.0304  0.4073
 4179TIP3    H134172   5.575   4.106   8.610  0.2980  0.3423  0.6934
 4179TIP3    H234173   5.615   3.961   8.620  0.1725  0.2069 -0.6084
 4180TIP3   OH234174   5.804   0.296   7.496  0.2078  0.0862 -0.3225
 4180TIP3    H134175   5.745   0.318   7.424 -0.4150  1.6319  0.5972
 4180TIP3    H234176   5.861   0.228   7.461 -1.1022 -0.3302 -1.7482
 4181TIP3   OH234177   5.306   6.127   8.112  0.2854  0.1714  0.0594
 4181TIP3    H134178   5.363   6.178   8.055  0.7448 -1.7101 -1.2518
 4181TIP3    H234179   5.352   6.126   8.196  0.1849  1.9871  0.1730
 4182TIP3   OH234180   2.430   5.153   0.673 -0.0797  0.1828 -0.1327
 4182TIP3    H134181   2.404   5.119   0.759 -1.1149  1.1444 -0.0378
 4182TIP3    H234182   2.452   5.245   0.690 -1.0561  0.5929 -1.0288
 4183TIP3   OH234183   2.399   1.180   1.049 -0.0406 -0.0138  0.2448
 4183TIP3    H134184   2.457   1.253   1.069  0.6978 -0.0066 -1.7796
 4183TIP3    H234185   2.457   1.108   1.025 -0.7926 -0.9979  1.2376
 4184TIP3   OH234186   0.573   2.357   1.040 -0.4140  0.1114 -0.0774
 4184TIP3    H134187   0.600   2.265   1.031 -2.8324 -0.7519  0.6119
 4184TIP3    H234188   0.499   2.366   0.980 -0.9956  1.2275  0.7751
 4185TIP3   OH234189   3.800   5.471   8.429  0.3243  0.1771  0.1560
 4185TIP3    H134190   3.732   5.431   8.484 -0.2464  0.4684 -0.3259
 4185TIP3    H234191   3.753   5.502   8.352  1.1135 -0.2302 -0.5093
 4186TIP3   OH234192   3.428   0.487   0.874 -0.0242 -0.3890 -0.1669
 4186TIP3    H134193   3.498   0.506   0.810  0.6122  0.3390  0.7104
 4186TIP3    H234194   3.418   0.569   0.922 -1.0174 -0.7051  0.1755
 4187TIP3   OH234195   3.755   4.174   0.509 -0.0872 -0.4174 -0.0964
 4187TIP3    H134196   3.832   4.189   0.564 -0.0822 -0.5828 -0.0599
 4187TIP3    H234197   3.693   4.128   0.566  0.5459 -2.0926 -0.7202
 4188TIP3   OH234198   5.117   5.559   7.641  0.2509 -0.4931 -0.0890
 4188TIP3    H134199   5.125   5.650   7.614 -1.2742 -0.6945 -1.3316
 4188TIP3    H234200   5.206   5.534   7.667  0.6406  1.4049  0.5557
 4189TIP3   OH234201   4.524   1.351   0.034  0.0723 -0.4628 -0.5994
 4189TIP3    H134202   4.473   1.422  -0.004 -0.1545 -0.1526  0.2855
 4189TIP3    H234203   4.587   1.394   0.091  0.1158 -0.9547 -0.2729
 4190TIP3   OH234204   4.311   6.655   7.976 -0.1587 -0.0565 -0.1801
 4190TIP3    H134205   4.392   6.701   7.954  1.1168 -1.5755  1.0559
 4190TIP3    H234206   4.264   6.715   8.034  0.7261  0.3546  0.1297
 4191TIP3   OH234207   2.400   2.031   2.634 -0.0669 -0.5489  0.3086
 4191TIP3    H134208   2.373   1.951   2.680  0.2620 -1.2600 -0.6787
 4191TIP3    H234209   2.418   2.094   2.703  0.2370 -1.5190  1.1446
 4192TIP3   OH234210   1.301   6.825   3.140 -0.2780  0.3438 -0.4809
 4192TIP3    H134211   1.395   6.811   3.142 -0.2044  0.5779 -1.8070
 4192TIP3    H234212   1.290   6.918   3.119 -0.8095  0.3159 -0.3548
 4193TIP3   OH234213   2.080   3.129   3.395 -0.3205  0.0335 -0.5889
 4193TIP3    H134214   2.038   3.208   3.360  0.5753  1.1725  0.7849
 4193TIP3    H234215   2.170   3.156   3.413 -0.6237 -0.5009  2.3000
 4194TIP3   OH234216   4.960   0.403   7.373 -0.1813 -0.1871  0.0965
 4194TIP3    H134217   4.957   0.360   7.458 -0.7618  0.4916  0.4280
 4194TIP3    H234218   4.950   0.333   7.309 -0.6248 -0.5935  0.6119
 4195TIP3   OH234219   6.783   3.464   7.946 -0.4200  0.4916 -0.1427
 4195TIP3    H134220   6.740   3.442   8.028  0.7789  2.9992  1.3035
 4195TIP3    H234221   6.735   3.415   7.879 -1.7687 -1.2451  1.9621
 4196TIP3   OH234222   0.214   0.387   2.261  0.4753  0.8450  0.2246
 4196TIP3    H134223   0.161   0.359   2.336  0.5447 -1.0295 -0.3825
 4196TIP3    H234224   0.304   0.383   2.292  0.3962  2.8651  0.8802
 4197TIP3   OH234225   1.038   0.226   2.160 -0.5805  0.1162  0.2248
 4197TIP3    H134226   1.039   0.320   2.180  0.4601  0.4118 -1.0709
 4197TIP3    H234227   0.973   0.218   2.090 -0.8445 -0.1875  0.4978
 4198TIP3   OH234228   3.597   3.930   2.049  0.3228  0.0879 -0.0786
 4198TIP3    H134229   3.634   4.017   2.031 -2.8344  1.9408  1.5306
 4198TIP3    H234230   3.639   3.903   2.130  1.6303 -0.1724 -0.7991
 4199TIP3   OH234231   3.605   6.568   0.252 -0.4969 -0.8610  0.1705
 4199TIP3    H134232   3.547   6.515   0.307 -4.2706 -1.5203 -3.8934
 4199TIP3    H234233   3.686   6.518   0.248 -2.3698 -4.1862  0.0260
 4200TIP3   OH234234   4.427   2.965   0.370  0.1903 -0.3275 -0.1938
 4200TIP3    H134235   4.459   3.055   0.376  0.7803 -0.5308 -0.1834
 4200TIP3    H234236   4.388   2.960   0.283 -1.1922  0.3526  0.3601
 4201TIP3   OH234237   6.688   5.549   2.360 -0.2799 -0.1341 -0.5126
 4201TIP3    H134238   6.745   5.485   2.403  0.3197 -0.1020 -1.2440
 4201TIP3    H234239   6.599   5.519   2.381 -0.0014 -0.8548 -0.3353
 4202TIP3   OH234240   1.565   5.195   7.542 -0.1047  0.6812  0.4475
 4202TIP3    H134241   1.547   5.287   7.561 -1.3789  0.7559 -0.9301
 4202TIP3    H234242   1.602   5.195   7.454 -0.1889 -0.1314  0.4031
 4203TIP3   OH234243   0.020   5.126   2.788  0.3670 -0.1458 -0.0239
 4203TIP3    H134244   0.068   5.202   2.755 -0.2685  0.6952  0.9226
 4203TIP3    H234245   0.076   5.091   2.858  1.8769 -2.1312 -2.0753
 4204TIP3   OH234246   5.851   3.281   7.609  1.1672  0.0526 -0.3005
 4204TIP3    H134247   5.876   3.371   7.590 -1.3237  0.9281  0.1464
 4204TIP3    H234248   5.892   3.262   7.693  1.2852  0.9922 -0.1314
 4205TIP3   OH234249   1.372   5.135   0.680 -0.4794  0.0405  0.2712
 4205TIP3    H134250   1.441   5.200   0.693 -0.6124  0.5149 -1.2073
 4205TIP3    H234251   1.293   5.187   0.667 -0.3648 -0.3219 -2.2660
 4206TIP3   OH234252   0.553   4.571   2.008  0.0207  0.5784  0.6940
 4206TIP3    H134253   0.487   4.526   2.061 -1.0091  1.7398  0.4485
 4206TIP3    H234254   0.629   4.513   2.010 -1.0959 -0.9454  0.7390
 4207TIP3   OH234255   1.765   6.285   8.389  0.6586  0.4416 -0.1348
 4207TIP3    H134256   1.709   6.296   8.465 -0.3307 -0.9907 -0.6294
 4207TIP3    H234257   1.706   6.257   8.319  1.9139 -0.7726 -0.7549
 4208TIP3   OH234258   4.032   1.051   8.208  0.4343  0.1057 -0.0707
 4208TIP3    H134259   4.090   1.071   8.281  1.4238 -0.1548 -0.7717
 4208TIP3    H234260   3.988   0.970   8.234  2.1061 -0.9844 -0.4990
 4209TIP3   OH234261   5.306   6.594   1.920  0.5470 -0.0864 -0.2108
 4209TIP3    H134262   5.253   6.609   1.842  2.6246  2.4838 -1.2677
 4209TIP3    H234263   5.370   6.528   1.894 -0.8334 -1.7856  0.4852
 4210TIP3   OH234264   2.846   0.119   1.823  0.4505  0.5101  0.0809
 4210TIP3    H134265   2.759   0.113   1.861  0.6747  1.4954  0.8103
 4210TIP3    H234266   2.896   0.049   1.866  0.4885  1.1114  1.0677
 4211TIP3   OH234267   3.736   6.422   0.729  0.3488  0.2268 -0.3545
 4211TIP3    H134268   3.707   6.332   0.717  0.4051  0.4801 -2.8610
 4211TIP3    H234269   3.678   6.474   0.673  0.4257  1.7514  0.9120
 4212TIP3   OH234270   3.777   0.281   1.920  0.3609 -0.3008  0.0054
 4212TIP3    H134271   3.829   0.223   1.976 -0.0351 -0.6679 -0.0032
 4212TIP3    H234272   3.789   0.368   1.959  1.2056 -0.3333 -0.1649
 4213TIP3   OH234273   2.697   3.000   3.199 -0.5157  0.2789 -0.0725
 4213TIP3    H134274   2.719   2.935   3.132  1.4613  0.6687  0.1216
 4213TIP3    H234275   2.731   3.083   3.165  1.4315  0.3215  1.7636
 4214TIP3   OH234276   1.970   1.675   2.764  0.1214 -0.4994 -0.1258
 4214TIP3    H134277   1.889   1.625   2.755  0.1988 -0.4369 -1.2368
 4214TIP3    H234278   2.031   1.616   2.808  0.2301 -1.4269 -1.4622
 4215TIP3   OH234279   5.145   5.803   0.644 -0.4823 -0.2162  0.2169
 4215TIP3    H134280   5.177   5.759   0.723  0.3230  0.5131  0.3176
 4215TIP3    H234281   5.050   5.810   0.657 -0.2715  0.6379  1.5228
 4216TIP3   OH234282   5.021   5.261   0.245  0.2518  0.2414  0.0295
 4216TIP3    H134283   5.086   5.215   0.298 -0.1429  1.1673  1.3470
 4216TIP3    H234284   5.058   5.260   0.156  1.3637 -0.5192  0.4801
 4217TIP3   OH234285   0.609   2.069   8.664 -0.1769 -1.1095 -0.9761
 4217TIP3    H134286   0.596   2.037   8.575  0.0382 -1.1720 -0.9870
 4217TIP3    H234287   0.603   1.991   8.719  0.3154 -1.1667 -0.9995
 4218TIP3   OH234288   5.296   6.498   0.021 -0.1489 -0.2921  0.4633
 4218TIP3    H134289   5.239   6.569   0.051 -0.8937 -0.5684 -0.2771
 4218TIP3    H234290   5.247   6.455  -0.049  0.5256 -1.1993  0.5291
 4219TIP3   OH234291   4.895   4.629   0.047  0.1924  0.5259 -0.6776
 4219TIP3    H134292   4.952   4.554   0.029 -1.1801 -0.7202 -0.0154
 4219TIP3    H234293   4.841   4.639  -0.031 -0.7824 -0.2872 -0.1383
 4220TIP3   OH234294   0.725   6.095   8.649  0.2749  0.5062 -0.2361
 4220TIP3    H134295   0.771   6.155   8.708 -1.6415  0.3347  1.5246
 4220TIP3    H234296   0.662   6.150   8.603 -1.1966 -0.0131  1.0793
 4221TIP3   OH234297   3.241   5.622   0.902  0.3602 -0.8058 -0.3311
 4221TIP3    H134298   3.213   5.623   0.994  0.7203  0.4818 -0.2105
 4221TIP3    H234299   3.165   5.592   0.854  0.1312 -1.3890  0.3832
 4222TIP3   OH234300   1.963   6.609   2.241  0.4780  0.0590  0.5349
 4222TIP3    H134301   1.898   6.562   2.294 -0.3388 -0.4269 -0.8413
 4222TIP3    H234302   1.926   6.609   2.152  2.2945 -0.1112 -0.2630
 4223TIP3   OH234303   1.619   5.883   2.533  0.0817 -0.5046  0.5463
 4223TIP3    H134304   1.551   5.945   2.506 -1.3587 -1.8297  0.9812
 4223TIP3    H234305   1.687   5.891   2.467 -0.7759  0.4319 -0.2521
 4224TIP3   OH234306   2.064   0.012   8.307 -0.5121  0.4604 -0.1740
 4224TIP3    H134307   2.094   0.031   8.218 -2.2347  0.1401 -0.8633
 4224TIP3    H234308   2.107   0.078   8.361 -0.1779  1.2736 -1.3904
 4225TIP3   OH234309   4.576   5.051   6.930 -0.1289 -0.2147 -0.7055
 4225TIP3    H134310   4.663   5.022   6.958 -0.0650 -0.6912 -1.3743
 4225TIP3    H234311   4.573   5.143   6.953  0.4923 -0.2366 -0.5180
 4226TIP3   OH234312   6.112   5.453   2.965  0.4498  0.1443  0.2596
 4226TIP3    H134313   6.051   5.526   2.949  0.5602  0.6171  1.7819
 4226TIP3    H234314   6.085   5.418   3.049  0.6665 -1.3394 -0.2673
 4227TIP3   OH234315   6.166   1.846   8.439  0.2674 -0.3355 -0.3736
 4227TIP3    H134316   6.120   1.911   8.386  1.7523 -0.1478 -1.5101
 4227TIP3    H234317   6.240   1.894   8.475  1.6466 -1.4439 -1.5934
 4228TIP3   OH234318   3.929   0.130   7.660 -0.2622 -0.5563  0.1688
 4228TIP3    H134319   3.925   0.210   7.608  0.8809 -0.0968  0.7696
 4228TIP3    H234320   4.018   0.098   7.648 -0.1880 -0.8078  1.3059
 4229TIP3   OH234321   5.294   0.185   2.103  0.1712  0.2998 -0.4401
 4229TIP3    H134322   5.227   0.138   2.055 -0.0138 -0.2294  0.3141
 4229TIP3    H234323   5.350   0.117   2.140 -1.3166  0.4637  2.4587
 4230TIP3   OH234324   1.568   4.567   0.888  0.6392  0.3530  0.0708
 4230TIP3    H134325   1.511   4.571   0.811  0.6869  0.4628  0.0413
 4230TIP3    H234326   1.514   4.601   0.959 -0.2041 -1.8568  0.5703
 4231TIP3   OH234327   4.594   0.200   0.844  0.0775  0.9203 -0.2826
 4231TIP3    H134328   4.689   0.215   0.845  0.0539  1.1928  1.1472
 4231TIP3    H234329   4.556   0.286   0.859 -0.3270  0.5915  0.6973
 4232TIP3   OH234330   5.453   5.578   0.693  0.3366  0.4991 -0.5062
 4232TIP3    H134331   5.388   5.537   0.635 -0.9234  0.9095  0.5779
 4232TIP3    H234332   5.426   5.552   0.781  0.9971  1.5879  0.0326
 4233TIP3   OH234333   0.427   3.949   2.780 -0.0765 -1.1737 -0.3539
 4233TIP3    H134334   0.418   4.002   2.701 -2.8294 -0.7637  0.1367
 4233TIP3    H234335   0.521   3.936   2.790  0.5168  1.2076 -2.0772
 4234TIP3   OH234336   2.154   6.182   7.952 -0.0969  0.3062 -0.6017
 4234TIP3    H134337   2.235   6.147   7.915 -0.2332  1.9966 -2.7330
 4234TIP3    H234338   2.109   6.221   7.877 -2.1586  0.7745  0.8009
 4235TIP3   OH234339   5.198   3.712   7.954 -0.8845 -0.1519 -0.2571
 4235TIP3    H134340   5.220   3.784   7.894  0.1603  0.3502  0.6838
 4235TIP3    H234341   5.104   3.700   7.942 -0.7909  0.2355 -1.6533
 4236TIP3   OH234342   1.557   2.182   2.284 -0.2911  0.3424 -0.0681
 4236TIP3    H134343   1.489   2.124   2.318  0.2588 -1.4379 -1.8027
 4236TIP3    H234344   1.637   2.131   2.288  0.5713  1.6508 -0.0040
 4237TIP3   OH234345   4.909   3.184   1.249 -0.1884  0.2990  0.5236
 4237TIP3    H134346   4.891   3.252   1.314 -0.6406 -0.0116  0.7265
 4237TIP3    H234347   4.873   3.220   1.167  3.4106  2.2450 -0.4058
 4238TIP3   OH234348   2.521   4.710   2.331 -0.3112  0.2394 -0.2882
 4238TIP3    H134349   2.560   4.636   2.378  0.4948  1.3925  0.9278
 4238TIP3    H234350   2.432   4.681   2.311 -0.3927 -0.6459  1.1810
 4239TIP3   OH234351   3.412   2.401   1.426 -0.6829 -0.7453 -0.1026
 4239TIP3    H134352   3.374   2.315   1.410 -1.5999 -0.2864 -0.4522
 4239TIP3    H234353   3.485   2.384   1.486 -0.2110 -1.8833 -0.9661
 4240TIP3   OH234354   2.523   2.810   8.013  0.4856  0.3657 -0.6075
 4240TIP3    H134355   2.478   2.845   8.090  2.1397  1.2750 -0.0096
 4240TIP3    H234356   2.497   2.718   8.010 -2.3889  1.1118 -1.0415
 4241TIP3   OH234357   3.274   2.037   2.147  0.3148 -0.2031  0.3307
 4241TIP3    H134358   3.221   1.976   2.198 -0.7026  2.0490  2.1778
 4241TIP3    H234359   3.211   2.098   2.110  1.3230  0.0012 -1.1331
 4242TIP3   OH234360   2.017   2.024   8.685 -0.4010  0.5348  0.1256
 4242TIP3    H134361   1.964   2.103   8.680 -1.3746 -0.0900  0.3706
 4242TIP3    H234362   2.107   2.055   8.677 -0.7089  1.7630  1.1086
 4243TIP3   OH234363   0.612   2.517   1.252 -0.1768  0.1177 -0.0911
 4243TIP3    H134364   0.618   2.463   1.173  1.0405  0.2032 -0.0681
 4243TIP3    H234365   0.616   2.455   1.325  1.1423  0.2025 -0.0664
 4244TIP3   OH234366   1.022   4.518   7.935  0.1809  0.1896  0.4108
 4244TIP3    H134367   1.055   4.455   7.871  0.8514 -1.8332  2.5951
 4244TIP3    H234368   1.092   4.582   7.946  0.6566 -0.2967  0.2134
 4245TIP3   OH234369   0.340   0.868   2.585 -0.5164  0.0451 -0.1568
 4245TIP3    H134370   0.332   0.959   2.556 -0.1793  0.4294  0.9060
 4245TIP3    H234371   0.403   0.871   2.656  0.1899 -1.1735 -0.7064
 4246TIP3   OH234372   5.122   6.513   0.348  0.8885 -0.4672  0.3592
 4246TIP3    H134373   5.207   6.537   0.312  0.2021  0.2105 -0.8775
 4246TIP3    H234374   5.062   6.517   0.273 -0.5509  0.6937  1.5183
 4247TIP3   OH234375   6.763   1.360   2.719 -0.0304  0.0564  0.6104
 4247TIP3    H134376   6.843   1.357   2.667 -0.4301 -1.2477  0.0298
 4247TIP3    H234377   6.793   1.378   2.808  0.8906 -0.2006  0.3664
 4248TIP3   OH234378   3.622   0.514   1.074 -0.1649 -0.2552  0.2423
 4248TIP3    H134379   3.703   0.471   1.048 -0.6334 -1.4942  0.7601
 4248TIP3    H234380   3.640   0.550   1.161  0.5823  1.6409 -0.6401
 4249TIP3   OH234381   2.212   6.505   1.196  0.0363 -0.6437 -0.7919
 4249TIP3    H134382   2.282   6.440   1.201  1.0748  0.4635 -0.2431
 4249TIP3    H234383   2.210   6.545   1.284  0.0751  0.6967 -1.3712
 4250TIP3   OH234384   2.285   5.129   7.896  0.0289 -0.6170  0.6603
 4250TIP3    H134385   2.362   5.159   7.849  0.1976 -1.6008  0.2783
 4250TIP3    H234386   2.282   5.184   7.974  1.6568 -1.1435  1.1538
 4251TIP3   OH234387   5.438   0.940   2.523 -0.4127 -0.0507 -0.0046
 4251TIP3    H134388   5.400   1.003   2.584 -0.9509 -0.3989  0.0265
 4251TIP3    H234389   5.408   0.969   2.437  0.6493  0.6560 -0.1540
 4252TIP3   OH234390   4.805   2.097   7.666 -0.0255 -0.0985  0.4456
 4252TIP3    H134391   4.773   2.078   7.578  1.4599 -0.2673 -0.0856
 4252TIP3    H234392   4.730   2.081   7.723 -0.9551 -0.1723 -0.7660
 4253TIP3   OH234393   1.694   3.169   1.186  0.8484 -0.3811  0.2060
 4253TIP3    H134394   1.601   3.189   1.172  0.6291  0.2908  2.2298
 4253TIP3    H234395   1.700   3.075   1.176 -0.0467 -0.4285 -0.0126
 4254TIP3   OH234396   6.652   2.991   8.065  0.6939  0.1366  0.1890
 4254TIP3    H134397   6.611   2.909   8.038  1.5808 -0.4697  0.6810
 4254TIP3    H234398   6.698   3.021   7.986  0.8484 -0.1330  0.1755
 4255TIP3   OH234399   3.521   0.210   8.348  0.2751  0.0849  0.6690
 4255TIP3    H134400   3.447   0.266   8.324  1.2239  0.8939 -0.4604
 4255TIP3    H234401   3.554   0.247   8.430  0.1850  0.4810  0.5265
 4256TIP3   OH234402   0.017   4.974   7.969 -0.4887 -0.9853  0.5257
 4256TIP3    H134403  -0.056   5.000   8.026 -0.1888 -3.6819  2.3496
 4256TIP3    H234404  -0.009   4.890   7.933  1.5747 -1.9592  1.1083
 4257TIP3   OH234405   5.959   5.174   8.611  0.4702  0.4381 -0.4217
 4257TIP3    H134406   6.037   5.174   8.555  0.4464  0.4158 -0.4553
 4257TIP3    H234407   5.969   5.096   8.665  1.5776  1.5794  1.1238
 4258TIP3   OH234408   0.058   0.267   2.454 -0.1807  0.5352 -0.1350
 4258TIP3    H134409  -0.026   0.248   2.412 -0.4155  0.6551  0.2763
 4258TIP3    H234410   0.046   0.241   2.545 -0.5154  2.5649  0.4542
 4259TIP3   OH234411   0.237   0.501   2.631 -0.4479 -0.2596  0.2003
 4259TIP3    H134412   0.193   0.519   2.548  1.6309 -1.0337 -1.1734
 4259TIP3    H234413   0.217   0.577   2.686  1.1853  2.2443 -2.3793
 4260TIP3   OH234414   1.303   5.417   1.135  0.3647 -0.0233  0.5588
 4260TIP3    H134415   1.337   5.331   1.110  0.8767  0.0275  1.0736
 4260TIP3    H234416   1.211   5.400   1.158 -0.6654  0.1836 -2.8023
 4261TIP3   OH234417   4.566   0.107   7.748  0.0513  0.0224  0.4586
 4261TIP3    H134418   4.625   0.088   7.675  2.7165  2.8428  1.6430
 4261TIP3    H234419   4.487   0.142   7.707  0.4392 -0.8439 -1.1004
 4262TIP3   OH234420   2.518   2.018   0.723  0.4826  0.0288 -0.1061
 4262TIP3    H134421   2.612   2.001   0.731  0.8288  2.0026  0.4791
 4262TIP3    H234422   2.509   2.072   0.644 -0.0361  0.6090  0.3362
 4263TIP3   OH234423   6.136   0.927   8.599 -0.0193 -0.1590  0.0588
 4263TIP3    H134424   6.169   0.889   8.518 -0.1703  0.8153 -0.4718
 4263TIP3    H234425   6.163   0.865   8.667  0.9675 -0.4861 -0.6160
 4264TIP3   OH234426   2.522   1.089   8.578 -0.7231 -0.3489  0.0124
 4264TIP3    H134427   2.488   1.167   8.621 -0.2863 -0.2299  0.1427
 4264TIP3    H234428   2.514   1.107   8.484 -0.5100 -0.0960  0.0418
 4265TIP3   OH234429   4.764   1.863   7.823  0.5013  0.0210 -0.2287
 4265TIP3    H134430   4.780   1.771   7.801  1.3021  0.4569 -1.5322
 4265TIP3    H234431   4.844   1.892   7.865 -0.7678 -0.6178  2.9573
 4266TIP3   OH234432   1.793   6.631   0.715 -0.5599 -0.6672  0.6116
 4266TIP3    H134433   1.700   6.646   0.696 -0.1274  1.1561 -0.3548
 4266TIP3    H234434   1.826   6.585   0.637 -0.2722  0.4904  0.0163
 4267TIP3   OH234435   1.423   1.568   0.620 -0.2059 -0.1215  0.2719
 4267TIP3    H134436   1.403   1.595   0.710  0.3135 -0.5404  0.5175
 4267TIP3    H234437   1.467   1.483   0.629 -0.0374 -0.1101 -0.3702
 4268TIP3   OH234438   2.171   0.861   2.126 -0.1198  0.4909  0.0998
 4268TIP3    H134439   2.232   0.793   2.100 -0.6920  0.2537 -0.6606
 4268TIP3    H234440   2.219   0.943   2.111  0.5941  0.2663  1.0918
 4269TIP3   OH234441   4.123   6.459   0.213 -0.1537  0.3921 -0.0580
 4269TIP3    H134442   4.123   6.480   0.120  1.5112 -1.1548 -0.4589
 4269TIP3    H234443   4.208   6.417   0.228 -1.3013 -1.4752  1.6607
 4270TIP3   OH234444   3.816   2.175   6.851  0.0756  0.0935  0.4758
 4270TIP3    H134445   3.757   2.217   6.915 -0.6747 -0.2495  0.0249
 4270TIP3    H234446   3.795   2.082   6.857  0.5055 -0.0174  0.2365
 4271TIP3   OH234447   0.251   0.605   8.039  0.0613 -0.1843 -0.0048
 4271TIP3    H134448   0.306   0.669   8.084 -0.6260  1.0826 -0.9331
 4271TIP3    H234449   0.196   0.567   8.109 -0.5913  1.3306  0.3375
 4272TIP3   OH234450   1.105   6.001   0.468  1.1336  0.3451 -0.0280
 4272TIP3    H134451   1.067   5.939   0.531 -2.9313  2.1885 -0.3289
 4272TIP3    H234452   1.084   5.964   0.382 -1.0848  1.8274 -0.2070
 4273TIP3   OH234453   1.772   3.478   0.718  0.0570  0.0661 -0.3821
 4273TIP3    H134454   1.863   3.503   0.702  0.2397 -0.1176  0.3491
 4273TIP3    H234455   1.727   3.498   0.636  0.1181  3.0035  0.2220
 4274TIP3   OH234456   0.396   1.759   8.560 -0.2979  0.6145 -0.6039
 4274TIP3    H134457   0.314   1.708   8.561  0.1106 -0.0939 -1.5279
 4274TIP3    H234458   0.369   1.847   8.534 -1.1321  1.1555  1.8055
 4275TIP3   OH234459   4.772   6.553   0.789  0.1070 -0.1126  1.4527
 4275TIP3    H134460   4.681   6.540   0.816  0.6081 -1.3731  2.6541
 4275TIP3    H234461   4.814   6.469   0.804  1.1344 -0.0099 -0.5725
 4276TIP3   OH234462   0.579   3.469   1.661 -0.1039  0.0729  0.3244
 4276TIP3    H134463   0.528   3.530   1.607 -2.5672 -2.0255  0.0758
 4276TIP3    H234464   0.532   3.386   1.654  2.6937 -1.7171  1.2190
 4277TIP3   OH234465   6.051   3.859   0.384  0.1910  0.1660  0.2909
 4277TIP3    H134466   6.016   3.898   0.304  0.3165  1.1969  0.7083
 4277TIP3    H234467   5.973   3.833   0.434  0.0823  0.3437  0.2164
 4278TIP3   OH234468   3.976   2.463   2.244  0.1859  0.2061  0.0639
 4278TIP3    H134469   4.010   2.551   2.230  1.8759 -0.3163  0.6478
 4278TIP3    H234470   3.990   2.446   2.337  0.6998 -0.9967 -0.2120
 4279TIP3   OH234471   5.375   0.247   7.909 -0.0997 -0.3728 -0.1978
 4279TIP3    H134472   5.360   0.269   8.001 -1.7297 -1.9032 -0.0607
 4279TIP3    H234473   5.468   0.266   7.896 -0.3533  2.2274  1.0500
 4280TIP3   OH234474   0.848   4.188   7.845  0.5187  0.3539  0.2166
 4280TIP3    H134475   0.918   4.126   7.822  0.3363 -0.1184  0.8858
 4280TIP3    H234476   0.839   4.244   7.769  1.8285  0.6023  0.2257
 4281TIP3   OH234477   5.314   5.139   8.341 -0.5925 -0.3565 -0.1687
 4281TIP3    H134478   5.293   5.046   8.338  0.1812 -0.5264 -0.3318
 4281TIP3    H234479   5.398   5.144   8.385 -0.8875  0.3163  0.3326
 4282TIP3   OH234480   4.520   4.642   8.431 -0.2310 -0.1396 -0.3474
 4282TIP3    H134481   4.441   4.659   8.381  0.5610  0.1424 -1.5597
 4282TIP3    H234482   4.491   4.590   8.505 -1.5005 -0.3003 -0.9288
 4283TIP3   OH234483   2.248   6.463   0.049 -0.1216  0.3547  0.4042
 4283TIP3    H134484   2.253   6.490   0.141 -0.4271  2.7649 -0.2256
 4283TIP3    H234485   2.175   6.512   0.013  0.0775 -0.4477 -1.1948
 4284TIP3   OH234486   1.753   4.220   3.307  0.2764  0.3592  0.1454
 4284TIP3    H134487   1.745   4.295   3.247 -1.0717 -1.4756 -2.1433
 4284TIP3    H234488   1.686   4.159   3.277  2.4577 -2.5418  0.7740
 4285TIP3   OH234489   1.267   5.482   2.319 -0.4203  0.2485 -0.5098
 4285TIP3    H134490   1.181   5.484   2.362 -0.3084 -0.7678 -0.2102
 4285TIP3    H234491   1.328   5.511   2.387 -0.4879  0.7470 -0.6539
 4286TIP3   OH234492   2.945   4.411   1.609 -0.3566 -0.6456  0.2443
 4286TIP3    H134493   2.986   4.361   1.680  1.0193  1.4554  1.0206
 4286TIP3    H234494   3.017   4.432   1.550 -0.5990  1.5922  0.6860
 4287TIP3   OH234495   5.485   1.356   0.357 -0.2696  0.2556  0.0134
 4287TIP3    H134496   5.512   1.353   0.265 -1.3046  0.6402 -0.3152
 4287TIP3    H234497   5.534   1.429   0.394 -2.1432  2.1826 -1.0447
 4288TIP3   OH234498   1.853   4.596   3.678 -0.0760  0.1722  0.5888
 4288TIP3    H134499   1.856   4.684   3.715  0.5927  0.5333 -0.2940
 4288TIP3    H234500   1.827   4.609   3.587  1.6130 -0.3713 -0.0141
 4289TIP3   OH234501   1.141   6.712   2.362  0.0141 -0.4864 -0.3345
 4289TIP3    H134502   1.187   6.788   2.327 -0.8744  0.6076  0.7693
 4289TIP3    H234503   1.056   6.712   2.318  0.4322 -1.5652 -1.1973
 4290TIP3   OH234504   4.349   5.870   0.330  0.2401 -0.3738  0.5292
 4290TIP3    H134505   4.384   5.942   0.382 -1.0293  1.3403 -0.8721
 4290TIP3    H234506   4.262   5.854   0.367  1.8150 -3.8779  3.2937
 4291TIP3   OH234507   0.403   2.701   0.270  0.3470  0.5563 -0.1331
 4291TIP3    H134508   0.463   2.658   0.209 -1.1901  0.2805 -1.5481
 4291TIP3    H234509   0.320   2.656   0.258 -0.6591  2.1858  0.2790
 4292TIP3   OH234510   0.805   0.117   0.303 -0.1881  0.4048  0.0654
 4292TIP3    H134511   0.838   0.028   0.314  0.6305  0.7294  0.2989
 4292TIP3    H234512   0.721   0.117   0.349 -0.7803 -0.5680 -0.9551
 4293TIP3   OH234513   3.035   4.418   8.133 -0.6052 -0.0455 -0.5734
 4293TIP3    H134514   2.954   4.409   8.083 -0.2714  1.3119 -1.4120
 4293TIP3    H234515   3.096   4.462   8.073  0.0626  0.9200  0.7389
 4294TIP3   OH234516   2.493   6.372   7.611  0.4972  0.5798 -0.6347
 4294TIP3    H134517   2.554   6.332   7.673  0.3502  0.5855 -0.4856
 4294TIP3    H234518   2.446   6.438   7.663 -0.2509 -0.0249 -0.5388
 4295TIP3   OH234519   3.774   0.673   1.756 -1.1003  0.9300 -0.1524
 4295TIP3    H134520   3.737   0.691   1.842 -1.3746 -0.2167 -0.0097
 4295TIP3    H234521   3.855   0.724   1.754  0.5271 -1.3277  2.0197
 4296TIP3   OH234522   4.492   4.424   0.216  0.9362 -0.6708  0.3193
 4296TIP3    H134523   4.545   4.354   0.179  1.4835 -0.0885 -0.0183
 4296TIP3    H234524   4.555   4.493   0.237  0.0414  1.9235 -4.2130
 4297TIP3   OH234525   5.637   1.446   8.212  0.6553  0.0250 -0.3427
 4297TIP3    H134526   5.681   1.526   8.186  0.4530 -0.2614 -1.6248
 4297TIP3    H234527   5.680   1.376   8.163  0.8960 -0.6925  0.8234
 4298TIP3   OH234528   1.056   6.545   1.719  0.0241 -0.4474 -0.0008
 4298TIP3    H134529   1.014   6.603   1.782  0.7216 -0.7030  0.7220
 4298TIP3    H234530   1.125   6.599   1.679  0.4746 -0.6738  0.4538
 4299TIP3   OH234531   5.590   5.086   7.078  0.3185  0.0787 -0.0084
 4299TIP3    H134532   5.667   5.044   7.117 -0.6488 -0.3905  1.4735
 4299TIP3    H234533   5.613   5.179   7.075  1.1965 -0.1340 -0.2231
 4300TIP3   OH234534   4.832   5.145   1.935  0.3179  0.4250 -0.2366
 4300TIP3    H134535   4.746   5.114   1.966  0.1113  1.9242  0.8074
 4300TIP3    H234536   4.868   5.071   1.886 -0.4563 -1.1776  1.4944
 4301TIP3   OH234537   2.952   6.563   2.477  0.1468  0.2029 -0.0686
 4301TIP3    H134538   2.868   6.541   2.437  0.4491  0.8114 -1.0734
 4301TIP3    H234539   3.011   6.492   2.450 -0.3242 -0.9463  1.7309
 4302TIP3   OH234540   3.042   5.788   0.546  0.0924  0.5440 -0.1647
 4302TIP3    H134541   2.953   5.797   0.512 -0.0678  1.6345  0.5130
 4302TIP3    H234542   3.093   5.755   0.472 -1.5974 -4.1586  0.4362
 4303TIP3   OH234543   6.362   4.966   0.753  0.0369  0.1043 -0.1941
 4303TIP3    H134544   6.398   5.048   0.717  0.6956  0.6672  1.6624
 4303TIP3    H234545   6.361   4.980   0.847 -0.4980 -1.7975  0.1063
 4304TIP3   OH234546   4.312   6.021   2.694  0.1490  0.0364  0.3057
 4304TIP3    H134547   4.225   5.994   2.723 -0.4917 -0.0876 -1.6138
 4304TIP3    H234548   4.303   6.115   2.676 -0.3446 -0.4215 -2.2405
 4305TIP3   OH234549   0.331   6.809   1.146 -0.0775 -0.5741  0.1200
 4305TIP3    H134550   0.312   6.855   1.228 -0.0858 -0.4881  0.0697
 4305TIP3    H234551   0.265   6.841   1.085 -0.2588 -0.8622  0.1600
 4306TIP3   OH234552   1.864   4.738   2.950  0.1564 -0.2831  0.5792
 4306TIP3    H134553   1.910   4.819   2.973  1.2414 -1.0520  1.2062
 4306TIP3    H234554   1.862   4.688   3.031 -1.2636 -0.5376  0.4024
 4307TIP3   OH234555   1.225   6.118   1.094  0.6087  0.2484 -0.2994
 4307TIP3    H134556   1.225   6.203   1.137  1.8552 -0.3152  0.8797
 4307TIP3    H234557   1.292   6.126   1.026 -0.5253  0.7531 -1.3957
 4308TIP3   OH234558   0.803   6.417   1.565  0.4300  0.4580  0.5709
 4308TIP3    H134559   0.824   6.386   1.477 -1.3523  0.0803  0.2545
 4308TIP3    H234560   0.889   6.437   1.604  1.4215 -1.4001 -0.4908
 4309TIP3   OH234561   0.501   6.745   2.451  0.0187 -1.0858 -0.2074
 4309TIP3    H134562   0.570   6.796   2.408 -0.7169 -0.5287 -0.7532
 4309TIP3    H234563   0.432   6.810   2.471  0.3375 -1.3194  1.8425
 4310TIP3   OH234564   5.283   6.109   0.148 -0.0043  0.0331 -0.4178
 4310TIP3    H134565   5.306   6.109   0.055  1.7822 -0.6684 -0.0164
 4310TIP3    H234566   5.267   6.017   0.169  1.8177 -0.1440  0.4183
 4311TIP3   OH234567   2.699   3.469   2.979 -0.2248 -0.3622  0.6526
 4311TIP3    H134568   2.654   3.391   3.012 -3.7656  0.1110 -2.4264
 4311TIP3    H234569   2.646   3.542   3.010  0.8272  0.5924  0.3000
 4312TIP3   OH234570   4.646   1.347   7.668 -0.2782  0.4121 -0.0336
 4312TIP3    H134571   4.586   1.290   7.717  1.9581 -1.4093  0.7852
 4312TIP3    H234572   4.612   1.348   7.579 -1.3548 -0.7910  0.3440
 4313TIP3   OH234573   2.614   0.731   0.654  0.1586  0.1879 -0.2118
 4313TIP3    H134574   2.697   0.748   0.698  0.8847 -0.6897 -1.1892
 4313TIP3    H234575   2.558   0.695   0.723  0.0955  2.0635  0.7837
 4314TIP3   OH234576   4.206   0.670   8.096  0.1339 -0.3945  0.2447
 4314TIP3    H134577   4.193   0.578   8.120  1.7046 -0.5650  0.5242
 4314TIP3    H234578   4.268   0.667   8.023  0.7099  0.4814  0.6874
 4315TIP3   OH234579   3.474   2.247   1.017  0.6259  0.1865  0.2137
 4315TIP3    H134580   3.496   2.327   1.065  0.4564  1.0720 -1.1198
 4315TIP3    H234581   3.523   2.178   1.060 -0.6299  0.6624  2.5575
 4316TIP3   OH234582   5.138   6.149   2.654 -0.6186  0.0709 -0.1665
 4316TIP3    H134583   5.202   6.080   2.675 -0.7213 -0.2295 -0.8139
 4316TIP3    H234584   5.169   6.186   2.571 -1.0806  0.1726 -0.2958
 4317TIP3   OH234585   6.163   0.741   2.818 -0.5185  0.1231 -0.1138
 4317TIP3    H134586   6.182   0.650   2.841  0.8519  0.9049  2.1292
 4317TIP3    H234587   6.222   0.759   2.744 -0.1764 -0.5509 -0.0198
 4318TIP3   OH234588   0.621   5.413   7.364 -0.1834  0.5227 -0.6506
 4318TIP3    H134589   0.556   5.392   7.297 -1.3887  0.4499  0.4923
 4318TIP3    H234590   0.651   5.501   7.343  0.4324  0.0228 -2.0093
 4319TIP3   OH234591   1.477   5.295   2.392  0.1668  0.4602  0.1634
 4319TIP3    H134592   1.508   5.304   2.482  0.7638 -0.8777  0.1252
 4319TIP3    H234593   1.385   5.271   2.400  0.6058 -1.2381  0.5030
 4320TIP3   OH234594   6.285   1.801   1.450 -0.3719  0.2229  0.1900
 4320TIP3    H134595   6.324   1.878   1.409  0.6861 -0.5262 -0.2515
 4320TIP3    H234596   6.242   1.755   1.378 -0.4380  0.0664  0.3305
 4321TIP3   OH234597   3.292   6.557   1.939 -0.3484 -0.2818 -0.0823
 4321TIP3    H134598   3.198   6.542   1.948 -0.4199  1.1177  2.5034
 4321TIP3    H234599   3.328   6.529   2.023  1.0049  2.5843  0.3961
 4322TIP3   OH234600   6.432   0.886   1.376  0.7079  0.5356 -0.4941
 4322TIP3    H134601   6.446   0.843   1.461  1.3531 -0.0260 -0.8711
 4322TIP3    H234602   6.338   0.904   1.374  0.0694 -2.3010 -0.9577
 4323TIP3   OH234603   5.997   2.718   7.883  0.8966  0.0185 -0.1492
 4323TIP3    H134604   5.951   2.757   7.808 -0.6935 -1.3773  0.0435
 4323TIP3    H234605   5.986   2.783   7.953  0.9307  0.5849 -0.6588
 4324TIP3   OH234606   5.588   4.508   7.848  0.4412  0.3618 -0.1058
 4324TIP3    H134607   5.671   4.479   7.812  0.1041  0.6244 -1.1138
 4324TIP3    H234608   5.595   4.489   7.942  0.0981 -3.3402 -0.6835
 4325TIP3   OH234609   4.151   4.352   0.872 -0.6303 -0.0573 -0.2172
 4325TIP3    H134610   4.194   4.267   0.866  0.6798  0.5661  0.0912
 4325TIP3    H234611   4.201   4.409   0.814 -1.5756  0.4956 -0.5268
 4326TIP3   OH234612   3.296   4.442   8.033  0.2607 -0.2147  0.2103
 4326TIP3    H134613   3.388   4.447   8.058  0.5894 -0.7318 -0.8623
 4326TIP3    H234614   3.260   4.372   8.088  0.6990 -0.5495  0.0792
 4327TIP3   OH234615   4.086   3.916   8.023  0.2009  0.4356 -0.1973
 4327TIP3    H134616   4.081   3.906   8.119  2.5706  0.4436 -0.0161
 4327TIP3    H234617   4.035   3.995   8.005  0.5126  0.9993  1.1974
 4328TIP3   OH234618   0.778   3.769   1.675  0.2207 -0.1193 -0.4473
 4328TIP3    H134619   0.839   3.793   1.745  2.2747 -2.0625 -1.4725
 4328TIP3    H234620   0.729   3.695   1.711  0.1041 -0.0671 -0.4972
 4329TIP3   OH234621   1.597   0.030   2.173 -0.1628 -0.1048  0.0943
 4329TIP3    H134622   1.611   0.023   2.267  0.3719 -0.3737  0.0040
 4329TIP3    H234623   1.530  -0.035   2.154 -1.1683  0.8029  0.4605
 4330TIP3   OH234624   6.185   2.523   2.161 -0.2881 -0.2414  0.5318
 4330TIP3    H134625   6.094   2.518   2.132 -0.2462 -1.3306  0.5673
 4330TIP3    H234626   6.182   2.509   2.255 -0.0600 -0.4883  0.5038
 4331TIP3   OH234627   6.216   2.902   8.577  0.2794  0.2178 -0.1595
 4331TIP3    H134628   6.204   2.809   8.598 -0.3441  0.2802 -0.2180
 4331TIP3    H234629   6.307   2.908   8.549  0.1719 -0.4807 -0.6894
 4332TIP3   OH234630   2.513   0.174   0.052  0.2714 -0.4938  0.1096
 4332TIP3    H134631   2.483   0.208  -0.031 -0.6527  1.0462  1.0378
 4332TIP3    H234632   2.496   0.080   0.047 -1.4931 -0.1577 -0.7259
 4333TIP3   OH234633   0.209   3.780   2.043  0.4205 -0.3549  0.1407
 4333TIP3    H134634   0.183   3.849   2.103 -0.4083 -1.0465  0.6056
 4333TIP3    H234635   0.275   3.730   2.090 -0.0862 -0.7781  0.4210
 4334TIP3   OH234636   3.590   3.691   7.202  0.2652  0.1430  0.4569
 4334TIP3    H134637   3.508   3.681   7.250 -0.6404  0.0811 -1.0500
 4334TIP3    H234638   3.611   3.602   7.173  1.0278  0.1139  1.0519
 4335TIP3   OH234639   0.018   5.764   3.527 -0.0733 -0.8947 -0.3103
 4335TIP3    H134640  -0.018   5.781   3.614  1.2455 -1.2682  0.3317
 4335TIP3    H234641  -0.042   5.809   3.467  0.1796  1.2122  0.9361
 4336TIP3   OH234642   2.246   4.898   1.943 -0.3018 -0.1213 -0.4583
 4336TIP3    H134643   2.313   4.835   1.916  0.5340  0.7298 -0.4411
 4336TIP3    H234644   2.259   4.908   2.037 -0.4124  0.0903 -0.4642
 4337TIP3   OH234645   3.171   6.341   0.009 -0.4250  0.2769  0.3029
 4337TIP3    H134646   3.190   6.327   0.102 -0.2138 -2.5079 -0.0630
 4337TIP3    H234647   3.241   6.399  -0.021  3.4008 -3.5674  0.7000
 4338TIP3   OH234648   4.336   3.450   0.700  0.0029  0.3964  0.3300
 4338TIP3    H134649   4.268   3.383   0.708  1.4624 -1.0748  1.4461
 4338TIP3    H234650   4.328   3.503   0.779 -0.4305  0.8177  0.0048
 4339TIP3   OH234651   6.160   6.349   7.123  0.0021  0.0397  0.4810
 4339TIP3    H134652   6.152   6.257   7.147 -3.0367  0.4427  1.4467
 4339TIP3    H234653   6.077   6.370   7.079  1.3030  1.9296 -1.2744
 4340TIP3   OH234654   0.461   3.300   0.715 -0.0749  0.5301 -0.8976
 4340TIP3    H134655   0.440   3.389   0.741 -0.1035  1.0047 -2.4550
 4340TIP3    H234656   0.386   3.272   0.662  0.2809 -0.1286 -1.0673
 4341TIP3   OH234657   5.219   4.835   1.260 -0.0558 -0.3553 -0.0487
 4341TIP3    H134658   5.124   4.826   1.260  0.1091 -2.8619  0.8412
 4341TIP3    H234659   5.243   4.835   1.168 -0.9216  0.9361 -0.3043
 4342TIP3   OH234660   3.088   4.018   1.656 -0.2554 -0.1908 -0.6911
 4342TIP3    H134661   3.125   4.103   1.678 -0.5671  0.0233 -0.9784
 4342TIP3    H234662   3.005   4.039   1.612  0.0464 -0.6191 -1.4893
 4343TIP3   OH234663   1.679   6.639   1.258  0.4528  0.1276  0.4071
 4343TIP3    H134664   1.648   6.568   1.202  0.0936 -0.2045  1.0028
 4343TIP3    H234665   1.657   6.719   1.210 -0.7555 -0.1171  0.5017
 4344TIP3   OH234666   5.034   6.339   0.777  0.1694 -0.1108  0.0829
 4344TIP3    H134667   5.111   6.299   0.735 -0.5877 -0.5331 -0.9509
 4344TIP3    H234668   4.963   6.277   0.761 -0.5731  0.6705  0.2759
 4345TIP3   OH234669   4.132   0.638   8.448 -0.0553  0.3440  0.6581
 4345TIP3    H134670   4.210   0.670   8.402 -1.7855  2.1620 -1.2163
 4345TIP3    H234671   4.111   0.708   8.510 -1.3469  0.8607 -0.3302
 4346TIP3   OH234672   2.443   4.710   1.840  0.1061  0.4181 -0.0584
 4346TIP3    H134673   2.428   4.692   1.747 -0.0594  1.3589 -0.2301
 4346TIP3    H234674   2.417   4.630   1.885 -0.9006  0.3461 -0.7385
 4347TIP3   OH234675   0.004   4.950   1.108  0.1462  0.6715  0.1254
 4347TIP3    H134676   0.087   4.927   1.066 -0.1484  0.7281 -0.5015
 4347TIP3    H234677   0.027   4.969   1.199  0.8637  0.9622 -0.1119
 4348TIP3   OH234678   6.064   1.055   0.273 -0.2780  0.0220 -0.1698
 4348TIP3    H134679   6.142   1.104   0.249 -1.0892  1.2713 -0.3061
 4348TIP3    H234680   6.064   1.056   0.369 -0.1156 -0.0062 -0.1692
 4349TIP3   OH234681   3.521   3.630   7.621 -0.1445  0.7660 -0.2796
 4349TIP3    H134682   3.494   3.647   7.530  2.2430  1.3349 -0.9545
 4349TIP3    H234683   3.531   3.534   7.624 -2.7145  0.4232  0.2265
 4350TIP3   OH234684   4.472   1.635   8.619 -0.0181 -0.3473 -0.1629
 4350TIP3    H134685   4.533   1.707   8.606  0.0894 -0.0204  1.9244
 4350TIP3    H234686   4.385   1.674   8.609  0.0611 -0.1942 -0.2553
 4351TIP3   OH234687   3.606   0.346   1.555 -0.3149 -0.5431  0.4104
 4351TIP3    H134688   3.700   0.342   1.536  0.0943 -0.2686  2.1913
 4351TIP3    H234689   3.569   0.271   1.508  0.3474  0.7798 -2.4110
 4352TIP3   OH234690   4.012   3.131   1.465 -0.5655 -0.2947  0.0288
 4352TIP3    H134691   4.105   3.117   1.487 -0.0962  1.5614 -0.5859
 4352TIP3    H234692   3.977   3.043   1.455  0.7326 -1.0994  1.8040
 4353TIP3   OH234693   6.545   6.205   2.718 -0.7193 -0.1785 -0.4483
 4353TIP3    H134694   6.557   6.195   2.624 -1.8477  2.2316 -0.9165
 4353TIP3    H234695   6.599   6.136   2.757  1.3385 -0.0148 -2.7802
 4354TIP3   OH234696   6.332   5.439   1.525 -0.1597 -0.0801  0.1263
 4354TIP3    H134697   6.407   5.384   1.501 -0.0262  0.0219  0.3068
 4354TIP3    H234698   6.339   5.448   1.620  0.3056  0.9590  0.0038
 4355TIP3   OH234699   2.631   0.943   2.031  0.5041 -0.5041 -0.1772
 4355TIP3    H134700   2.683   0.960   1.952  0.1881 -0.5601 -0.3985
 4355TIP3    H234701   2.691   0.898   2.090  0.7630 -0.3972 -0.3584
 4356TIP3   OH234702   5.729   2.051   1.360  0.8363 -0.0307  0.2159
 4356TIP3    H134703   5.819   2.054   1.328  0.6652 -0.6137 -0.3390
 4356TIP3    H234704   5.714   1.958   1.378  0.6656  0.1849  1.2487
 4357TIP3   OH234705   6.638   5.032   8.088 -0.2199  0.2795 -0.0839
 4357TIP3    H134706   6.556   4.988   8.114  0.1456  0.8280  2.2313
 4357TIP3    H234707   6.613   5.087   8.014 -2.1855  1.0595  1.0628
 4358TIP3   OH234708   2.421   3.691   8.153  0.6753 -0.2073 -0.3526
 4358TIP3    H134709   2.476   3.767   8.132 -0.8955  1.2749  0.6838
 4358TIP3    H234710   2.340   3.705   8.104 -0.5715  0.0708  1.6930
 4359TIP3   OH234711   6.335   5.645   2.729 -0.4085 -0.3329 -0.3808
 4359TIP3    H134712   6.306   5.578   2.668 -0.3994  0.7051 -1.5594
 4359TIP3    H234713   6.255   5.689   2.757 -0.2708  0.3831 -1.0801
 4360TIP3   OH234714   4.246   1.649   1.074  0.2206  0.4137 -0.1475
 4360TIP3    H134715   4.312   1.685   1.132 -2.4593 -0.1197  3.5709
 4360TIP3    H234716   4.193   1.725   1.048 -0.9842  0.1992  1.5534
 4361TIP3   OH234717   2.801   2.046   1.216 -0.5734 -0.0502 -0.0422
 4361TIP3    H134718   2.760   2.131   1.202  1.8744  1.0823 -0.8988
 4361TIP3    H234719   2.862   2.036   1.144 -0.4684 -2.3748  0.2828
 4362TIP3   OH234720   3.644   3.858   7.972 -0.3350 -0.4521 -0.1384
 4362TIP3    H134721   3.668   3.765   7.974  1.3917 -0.0621 -0.9669
 4362TIP3    H234722   3.697   3.895   7.901 -1.1716  1.1285  0.0205
 4363TIP3   OH234723   2.684   6.710   7.676 -0.4692 -0.1350 -0.6690
 4363TIP3    H134724   2.604   6.698   7.624 -1.5401 -2.4171  1.2914
 4363TIP3    H234725   2.675   6.797   7.714 -1.1107  0.3651 -1.9171
 4364TIP3   OH234726   4.429   1.076   1.145 -0.1635 -0.5201  0.3861
 4364TIP3    H134727   4.512   1.110   1.177 -0.8841  0.5257  1.2479
 4364TIP3    H234728   4.384   1.045   1.224 -2.2270  2.6629  0.6335
 4365TIP3   OH234729   0.761   4.678   3.042  0.0388  0.1068 -0.0610
 4365TIP3    H134730   0.837   4.667   3.099  0.1677  0.8744 -0.0728
 4365TIP3    H234731   0.696   4.721   3.097 -0.8930 -1.7658  0.3460
 4366TIP3   OH234732   1.502   0.892   8.143 -0.1332 -0.0814  0.3349
 4366TIP3    H134733   1.436   0.917   8.078 -0.1407  1.1330  0.7892
 4366TIP3    H234734   1.583   0.932   8.111  0.0620 -0.2823  0.5819
 4367TIP3   OH234735   6.236   1.089   7.850  0.3106 -0.0394  0.5563
 4367TIP3    H134736   6.202   1.002   7.830 -0.2958  0.1661  0.6902
 4367TIP3    H234737   6.321   1.092   7.805 -1.3443  0.7407 -2.8424
 4368TIP3   OH234738   6.737   5.924   2.471 -0.2369 -0.4728  0.5211
 4368TIP3    H134739   6.699   5.911   2.558  0.6142 -1.1042  0.8090
 4368TIP3    H234740   6.804   5.856   2.464 -0.2225 -0.3608 -0.5895
 4369TIP3   OH234741   5.495   5.159   7.873  0.1769 -0.2009 -0.2533
 4369TIP3    H134742   5.485   5.149   7.778 -1.0405 -0.2211 -0.1367
 4369TIP3    H234743   5.418   5.116   7.910  1.0777 -0.9809  0.7963
 4370TIP3   OH234744   0.261   4.797   0.051 -0.2519 -0.0235 -0.0158
 4370TIP3    H134745   0.217   4.725   0.095  0.2187 -1.9217 -2.4826
 4370TIP3    H234746   0.343   4.809   0.101 -0.9387 -0.2382  1.2095
 4371TIP3   OH234747   0.137   0.700   2.797 -0.1762  0.3091 -0.4647
 4371TIP3    H134748   0.135   0.725   2.889 -2.8554 -1.0697 -0.0451
 4371TIP3    H234749   0.104   0.777   2.750 -0.1049  0.5343 -0.1458
 4372TIP3   OH234750   5.272   3.029   0.799  0.4715 -0.2693  0.0586
 4372TIP3    H134751   5.181   3.048   0.774  0.0788 -1.2029  0.6990
 4372TIP3    H234752   5.322   3.103   0.767 -0.7381  1.0338  1.0459
 4373TIP3   OH234753   3.975   5.922   1.294 -0.0464 -0.0602 -0.3178
 4373TIP3    H134754   4.002   5.843   1.340 -0.4236 -0.2062 -0.3406
 4373TIP3    H234755   4.057   5.965   1.270  0.1606 -0.4204 -0.2678
 4374TIP3   OH234756   4.131   2.719   7.441 -0.1887  0.3273  0.1489
 4374TIP3    H134757   4.207   2.751   7.490  0.8226 -0.5903 -0.7462
 4374TIP3    H234758   4.105   2.794   7.387 -0.2780  0.8232  0.8666
 4375TIP3   OH234759   1.629   3.211   1.717 -0.0632 -0.2071 -0.0104
 4375TIP3    H134760   1.640   3.200   1.623  0.8467 -0.3432  0.1035
 4375TIP3    H234761   1.578   3.134   1.744  0.2777 -0.5359 -0.2867
 4376TIP3   OH234762   3.346   2.019   1.227  0.2969  0.0543 -0.1164
 4376TIP3    H134763   3.429   2.062   1.246 -0.2914  0.8546  0.7267
 4376TIP3    H234764   3.346   1.942   1.284  0.7353 -0.3131 -0.6000
 4377TIP3   OH234765   0.522   1.168   2.049 -0.3870  0.2750 -0.4325
 4377TIP3    H134766   0.500   1.099   1.987 -0.1231  0.2107 -0.4551
 4377TIP3    H234767   0.437   1.197   2.084 -0.6328  1.0930 -1.6529
 4378TIP3   OH234768   4.263   3.817   0.827 -0.3806  0.4359  0.0775
 4378TIP3    H134769   4.279   3.739   0.880  2.4832 -0.1804 -1.4391
 4378TIP3    H234770   4.171   3.811   0.801 -0.7230 -1.4151  1.5163
 4379TIP3   OH234771   3.105   3.082   0.185  0.1967 -0.3454 -0.4796
 4379TIP3    H134772   3.087   3.107   0.094  0.8558 -0.4565 -0.6420
 4379TIP3    H234773   3.174   3.015   0.179 -0.7054 -1.3572  0.0172
 4380TIP3   OH234774   2.332   4.559   0.962  0.2783  0.1535 -0.4080
 4380TIP3    H134775   2.384   4.480   0.950  0.3352  0.1547 -0.1716
 4380TIP3    H234776   2.273   4.561   0.887  1.4166  0.7858 -1.3116
 4381TIP3   OH234777   0.486   2.681   2.809  0.5402 -0.4910  0.5279
 4381TIP3    H134778   0.521   2.723   2.887 -1.7006 -0.6582  1.6881
 4381TIP3    H234779   0.394   2.705   2.808  0.7367  0.8509 -2.9758
 4382TIP3   OH234780   3.725   4.096   0.891  0.1814 -0.0616 -0.3839
 4382TIP3    H134781   3.686   4.118   0.806  1.4355 -0.5387 -1.0993
 4382TIP3    H234782   3.808   4.054   0.870  2.2143  2.8336  1.0687
 4383TIP3   OH234783   2.976   6.201   8.608  0.1384  0.7869 -0.7155
 4383TIP3    H134784   2.957   6.131   8.670  1.3083 -1.3034 -2.5853
 4383TIP3    H234785   3.055   6.242   8.643 -0.6569  1.3702  0.4874
 4384TIP3   OH234786   1.829   0.359   0.771  0.6158  0.2055 -0.3484
 4384TIP3    H134787   1.898   0.293   0.786 -0.1789 -0.6612 -0.4177
 4384TIP3    H234788   1.751   0.320   0.810 -0.0176  0.8273 -0.9833
 4385TIP3   OH234789   0.425   0.898   0.856 -0.4581  0.0658 -0.4068
 4385TIP3    H134790   0.436   0.965   0.788  0.0871 -1.4367 -1.8500
 4385TIP3    H234791   0.405   0.948   0.935 -1.3918  1.8559 -1.7096
 4386TIP3   OH234792   4.196   4.074   1.457  0.0220  0.1537  0.1077
 4386TIP3    H134793   4.140   4.025   1.517 -0.3873 -0.1563 -0.5264
 4386TIP3    H234794   4.233   4.008   1.399  0.2828  0.4738 -0.0926
 4387TIP3   OH234795   5.623   6.005   8.278  0.0489  0.4410  0.1128
 4387TIP3    H134796   5.538   6.040   8.302 -0.5754  0.6302 -2.1367
 4387TIP3    H234797   5.640   6.040   8.190  0.3084 -3.1874 -1.4697
 4388TIP3   OH234798   1.059   5.085   3.361  0.3968 -0.4590 -0.2092
 4388TIP3    H134799   1.034   5.068   3.452  0.4781  0.1075 -0.0746
 4388TIP3    H234800   1.078   5.179   3.359  2.4025 -0.8284 -0.3314
 4389TIP3   OH234801   1.166   4.664   2.182  0.2015 -0.3700 -0.3311
 4389TIP3    H134802   1.236   4.644   2.119  0.1751 -1.0980 -0.1381
 4389TIP3    H234803   1.138   4.752   2.159  1.7486  0.2697  0.0998
 4390TIP3   OH234804   4.842   5.859   0.722 -0.3134  0.7409  0.1793
 4390TIP3    H134805   4.867   5.801   0.794  1.5993 -2.1053 -2.4743
 4390TIP3    H234806   4.777   5.808   0.673  2.0881  0.2066 -2.7553
 4391TIP3   OH234807   4.201   5.181   1.004  0.8526 -0.0819 -0.2108
 4391TIP3    H134808   4.175   5.107   1.059 -0.4843  1.2741  1.0916
 4391TIP3    H234809   4.267   5.145   0.944  1.5282 -1.8934  1.5119
 4392TIP3   OH234810   6.613   5.637   1.278 -0.6316 -0.0812  0.1224
 4392TIP3    H134811   6.616   5.713   1.336 -0.9814  0.5454 -0.6544
 4392TIP3    H234812   6.521   5.632   1.249 -0.1464  0.7051 -1.7446
 4393TIP3   OH234813   3.179   2.367   8.343 -0.2087  0.8103 -0.5881
 4393TIP3    H134814   3.164   2.277   8.312 -0.5507  0.6657 -0.0066
 4393TIP3    H234815   3.160   2.422   8.267 -0.3489  0.4148 -0.8426
 4394TIP3   OH234816   2.477   3.028   0.609  0.2927 -0.2679  0.2126
 4394TIP3    H134817   2.551   3.025   0.669  1.4425 -0.2022 -1.1574
 4394TIP3    H234818   2.479   3.116   0.572 -0.7213 -0.1337  0.4477
 4395TIP3   OH234819   3.353   0.415   1.156  0.2726  0.2390 -0.5997
 4395TIP3    H134820   3.376   0.483   1.219 -2.0591  1.0157 -0.5133
 4395TIP3    H234821   3.414   0.429   1.083  2.4023 -0.1153  1.0258
 4396TIP3   OH234822   0.186   6.352   2.832 -0.3070 -0.4349 -0.1192
 4396TIP3    H134823   0.152   6.343   2.921  1.3316 -1.2832  0.4546
 4396TIP3    H234824   0.108   6.349   2.777 -1.2584 -1.1880  1.2021
 4397TIP3   OH234825   2.625   0.202   0.981 -0.2054  0.0904 -0.0444
 4397TIP3    H134826   2.552   0.141   0.970 -1.3561  1.7806 -2.7030
 4397TIP3    H234827   2.629   0.217   1.075 -0.6031 -3.1208  0.5987
 4398TIP3   OH234828   2.024   3.602   0.656  0.5460 -0.2013 -0.5666
 4398TIP3    H134829   2.027   3.639   0.744  1.6180 -1.0581 -0.2147
 4398TIP3    H234830   1.997   3.674   0.600  0.4360  0.5095  0.3809
 4399TIP3   OH234831   2.234   1.556   1.262  0.5387 -0.7403 -0.3125
 4399TIP3    H134832   2.275   1.597   1.338  0.8395 -1.8360  0.1329
 4399TIP3    H234833   2.251   1.618   1.190 -0.1559  0.5278  0.5802
 4400TIP3   OH234834   4.178   5.061   2.797  0.2655  0.0583 -0.0216
 4400TIP3    H134835   4.199   5.130   2.733  1.1917 -0.0306  0.1811
 4400TIP3    H234836   4.085   5.076   2.817  0.4970  1.4023  0.1881
 4401TIP3   OH234837   6.043   5.319   0.803  0.3036  0.5139  0.5952
 4401TIP3    H134838   6.087   5.270   0.734 -0.2417  1.0574 -0.1558
 4401TIP3    H234839   6.069   5.410   0.788 -0.2203  0.7007  0.7995
 4402TIP3   OH234840   2.378   4.561   1.347  0.3473  0.5539  0.2001
 4402TIP3    H134841   2.285   4.578   1.365 -0.0253 -1.7835  0.8096
 4402TIP3    H234842   2.377   4.481   1.293  2.0446 -0.4593  1.5837
 4403TIP3   OH234843   4.077   1.176   1.615  0.0636 -0.1398 -0.1344
 4403TIP3    H134844   4.008   1.177   1.682  1.3708  0.3036  1.2567
 4403TIP3    H234845   4.157   1.196   1.663  1.2608 -1.1781 -1.6196
 4404TIP3   OH234846   4.954   5.970   1.372 -0.1461  0.3345  0.3229
 4404TIP3    H134847   5.003   6.050   1.352  0.3000  0.0204  0.1458
 4404TIP3    H234848   4.902   5.954   1.293 -0.0458  0.3136  0.2599
 4405TIP3   OH234849   6.828   6.301   0.352  0.3004  0.0126 -0.1184
 4405TIP3    H134850   6.852   6.212   0.379  3.0057  0.8540  0.5999
 4405TIP3    H234851   6.873   6.358   0.414 -2.0266  1.9297 -0.0558
 4406TIP3   OH234852   1.995   0.723   0.015  0.3670 -0.7729 -0.1956
 4406TIP3    H134853   2.037   0.785  -0.044 -1.4425 -0.2441 -1.0113
 4406TIP3    H234854   1.999   0.765   0.101  1.0005 -0.5008 -0.3507
 4407TIP3   OH234855   5.557   4.728   0.982 -0.4363  0.0484  0.7222
 4407TIP3    H134856   5.562   4.705   1.075  0.3593 -1.0367  0.4351
 4407TIP3    H234857   5.483   4.788   0.976 -2.2585 -1.9868  1.6391
 4408TIP3   OH234858   6.741   6.646   8.115 -0.0543 -0.1719  0.0190
 4408TIP3    H134859   6.819   6.692   8.147  1.9544 -1.4226 -2.6132
 4408TIP3    H234860   6.709   6.597   8.191  3.2142 -1.4656  0.7680
 4409TIP3   OH234861   3.336   2.550   1.730 -0.1031  0.2386  0.2474
 4409TIP3    H134862   3.288   2.624   1.695  0.4644  0.4059 -0.1763
 4409TIP3    H234863   3.381   2.585   1.808  0.7165  0.5213 -0.3414
 4410TIP3   OH234864   2.258   6.577   8.255  0.0942 -0.0301  0.1883
 4410TIP3    H134865   2.243   6.669   8.278 -0.2697  0.3422 -1.3917
 4410TIP3    H234866   2.281   6.534   8.338  1.6038  1.7430  0.7611
 4411TIP3   OH234867   6.642   2.398   8.258 -0.1084 -0.4071 -0.0635
 4411TIP3    H134868   6.618   2.398   8.165  0.3459 -0.2230 -0.1816
 4411TIP3    H234869   6.593   2.472   8.295 -1.2955 -1.2415  0.1174
 4412TIP3   OH234870   0.887   3.069   1.839 -0.0886 -0.6383  0.1630
 4412TIP3    H134871   0.833   3.103   1.910  0.1467  1.0389 -0.4116
 4412TIP3    H234872   0.842   3.096   1.759  0.8750 -0.4069 -0.3159
 4413TIP3   OH234873   0.387   0.163   3.059 -0.2197  0.2251  0.1485
 4413TIP3    H134874   0.445   0.140   3.132  0.3191  1.9477  0.3226
 4413TIP3    H234875   0.418   0.111   2.986  0.0971 -0.5393  0.8148
 4414TIP3   OH234876   2.158   0.444   1.853 -0.3600  0.6563  0.2105
 4414TIP3    H134877   2.134   0.493   1.931  1.9744  1.9203  0.2245
 4414TIP3    H234878   2.206   0.507   1.799  0.4843 -0.9254 -0.9742
 4415TIP3   OH234879   4.041   6.825   8.548  0.5136 -0.1630  0.1860
 4415TIP3    H134880   3.990   6.906   8.558  0.4640 -0.3495  1.6189
 4415TIP3    H234881   4.130   6.855   8.530  0.5701  0.2347  1.0694
 4416TIP3   OH234882   6.419   3.752   8.449  0.2453 -0.1386  0.1982
 4416TIP3    H134883   6.332   3.729   8.415  0.2991  1.0054 -0.7835
 4416TIP3    H234884   6.416   3.727   8.541 -1.6963  1.3247  0.5891
 4417TIP3   OH234885   2.792   6.845   0.299  0.3826  0.2099  0.4826
 4417TIP3    H134886   2.831   6.787   0.365  0.1747  2.2543  2.5412
 4417TIP3    H234887   2.855   6.917   0.290  0.5424 -0.1306 -1.8509
 4418TIP3   OH234888   3.538   6.407   2.066  0.1469  0.3050  0.0387
 4418TIP3    H134889   3.583   6.408   2.150  1.2696  1.0589 -0.5452
 4418TIP3    H234890   3.501   6.319   2.060 -0.8186  0.5382  1.7417
 4419TIP3   OH234891   5.704   6.449   2.061  0.1213  0.4618 -0.0832
 4419TIP3    H134892   5.694   6.356   2.078 -2.3993  0.0173 -3.1527
 4419TIP3    H234893   5.626   6.490   2.098 -0.1496  0.9186 -1.1113
 4420TIP3   OH234894   6.374   1.511   1.009 -0.3240  0.2875  0.1820
 4420TIP3    H134895   6.288   1.472   1.022  0.3643 -1.2771  0.4192
 4420TIP3    H234896   6.400   1.482   0.922  0.4092 -0.2521  0.5595
 4421TIP3   OH234897   6.416   6.737   8.217 -0.0266 -0.4144 -0.3720
 4421TIP3    H134898   6.432   6.821   8.175  2.0271 -0.7714 -0.3947
 4421TIP3    H234899   6.494   6.722   8.271 -0.9678 -1.6751  0.7075
 4422TIP3   OH234900   5.282   4.455   1.652  0.5581 -0.1916  0.3752
 4422TIP3    H134901   5.269   4.380   1.593 -1.4225  0.2692  0.1508
 4422TIP3    H234902   5.373   4.448   1.680  0.2581 -3.0731  0.9124
 4423TIP3   OH234903   3.243   5.922   0.080 -0.0913  0.6952  0.3790
 4423TIP3    H134904   3.299   5.884   0.013 -0.8776  0.0708  0.0563
 4423TIP3    H234905   3.257   6.016   0.073 -0.4553  0.6599 -0.9255
 4424TIP3   OH234906   5.976   3.196   0.148  0.0257 -0.1733  0.4038
 4424TIP3    H134907   5.882   3.209   0.136 -0.1926 -0.6007  1.5501
 4424TIP3    H234908   5.983   3.136   0.223  1.2548  2.8656  2.9500
 4425TIP3   OH234909   3.806   4.948   2.097  0.3189 -0.4698  0.0106
 4425TIP3    H134910   3.812   5.043   2.102  0.4822 -0.4615  4.5236
 4425TIP3    H234911   3.865   4.923   2.026  2.2493  2.7003  0.3078
 4426TIP3   OH234912   1.361   1.827   2.574 -0.4755 -0.0898  0.4332
 4426TIP3    H134913   1.420   1.897   2.547  0.1417  0.6934  3.3791
 4426TIP3    H234914   1.303   1.813   2.499  0.7592  2.0705 -1.0225
 4427TIP3   OH234915   2.119   3.253   8.330  0.3693  0.2551  0.3399
 4427TIP3    H134916   2.063   3.175   8.330  2.0329 -1.0095  0.7020
 4427TIP3    H234917   2.058   3.327   8.328 -1.3644 -1.0072  2.1444
 4428TIP3   OH234918   1.570   0.516   2.903 -0.2244  0.3453  0.2336
 4428TIP3    H134919   1.494   0.571   2.923 -1.2620 -1.1744  0.6116
 4428TIP3    H234920   1.634   0.538   2.971 -1.3300 -0.2210  1.5062
 4429TIP3   OH234921   0.643   2.850   0.012 -0.8060  0.1602 -0.1653
 4429TIP3    H134922   0.588   2.866  -0.064 -0.8857  2.2153  0.2391
 4429TIP3    H234923   0.628   2.759   0.035 -1.8728 -0.0988 -1.7433
 4430TIP3   OH234924   4.600   5.638   1.296 -0.2691 -0.5438 -0.1312
 4430TIP3    H134925   4.654   5.700   1.247  0.4863 -1.2790 -0.2285
 4430TIP3    H234926   4.662   5.582   1.342 -0.9097 -2.0066 -0.9844
 4431TIP3   OH234927   1.708   5.807   2.229  0.5085  0.5313 -0.2374
 4431TIP3    H134928   1.764   5.736   2.260  1.2444 -0.6712 -3.8524
 4431TIP3    H234929   1.620   5.770   2.228  0.6381  0.2236 -0.4799
 4432TIP3   OH234930   1.118   6.199   8.633 -0.0693  1.1142 -0.5853
 4432TIP3    H134931   1.186   6.216   8.698 -1.2547 -1.7731  1.6628
 4432TIP3    H234932   1.036   6.202   8.684 -1.2286  0.5361 -2.3340
 4433TIP3   OH234933   2.415   2.231   8.369 -0.1475  0.3517 -0.2013
 4433TIP3    H134934   2.491   2.199   8.320  0.4674  0.7514  0.4669
 4433TIP3    H234935   2.444   2.313   8.408 -1.4197  1.3006 -1.1668
 4434TIP3   OH234936   4.800   4.402   3.314  0.4339 -0.0585 -0.3211
 4434TIP3    H134937   4.809   4.316   3.272  0.4918  0.1255 -0.6879
 4434TIP3    H234938   4.721   4.439   3.275 -0.1114 -0.3237  0.5152
 4435TIP3   OH234939   6.377   0.323   2.763 -0.0792  0.7129  0.0051
 4435TIP3    H134940   6.298   0.271   2.772  1.5796 -2.1839 -0.8433
 4435TIP3    H234941   6.357   0.386   2.694 -1.7180  0.2418  0.0203
 4436TIP3   OH234942   0.755   5.635   0.081  0.1691 -0.4366  0.6783
 4436TIP3    H134943   0.710   5.642  -0.004 -0.7502 -1.8197  1.0167
 4436TIP3    H234944   0.751   5.724   0.117 -0.4410 -0.0741 -0.2324
 4437TIP3   OH234945   0.042   5.460   7.159  0.3277  0.1502  1.0615
 4437TIP3    H134946  -0.037   5.431   7.205 -0.9854  1.4241 -0.2792
 4437TIP3    H234947   0.031   5.555   7.151  1.1645  0.1409 -0.6485
 4438TIP3   OH234948   6.128   1.923   1.976  0.0219  0.3494 -0.0702
 4438TIP3    H134949   6.110   1.830   1.967 -0.3019  0.4420 -0.4256
 4438TIP3    H234950   6.044   1.966   1.961  0.5603  0.8164 -2.1021
 4439TIP3   OH234951   2.205   0.957   1.603  0.2465  0.4592 -0.3800
 4439TIP3    H134952   2.127   0.963   1.549 -1.4392  1.9294  2.0024
 4439TIP3    H234953   2.185   0.889   1.668  0.2166  1.9098  1.2085
 4440TIP3   OH234954   5.015   4.365   8.671  0.7099 -0.3695  0.6094
 4440TIP3    H134955   5.091   4.312   8.693  0.3671 -0.7329  0.9335
 4440TIP3    H234956   4.946   4.302   8.651  0.0214 -0.0893  1.9297
 4441TIP3   OH234957   3.423   2.334   7.605  0.8735 -0.2943 -0.5762
 4441TIP3    H134958   3.423   2.420   7.647 -1.0446  0.9499 -2.8448
 4441TIP3    H234959   3.483   2.343   7.532 -0.4935 -0.3103 -1.7445
 4442TIP3   OH234960   2.801   4.538   0.661 -0.1245 -0.0361  0.6693
 4442TIP3    H134961   2.813   4.497   0.747  0.2109  0.8882  1.0738
 4442TIP3    H234962   2.763   4.468   0.606  0.0902 -0.7676  1.4339
 4443TIP3   OH234963   0.836   6.462   2.352 -0.3813 -0.2537  0.0308
 4443TIP3    H134964   0.929   6.442   2.340 -0.1962 -0.5050  1.6384
 4443TIP3    H234965   0.811   6.509   2.273  0.7235 -1.5037 -1.1102
 4444TIP3   OH234966   1.396   4.564   0.634  0.0531 -0.5664 -0.2376
 4444TIP3    H134967   1.427   4.555   0.544  0.4616 -0.7393 -0.0809
 4444TIP3    H234968   1.361   4.652   0.639  1.3684 -0.0293 -0.1607
 4445TIP3   OH234969   4.716   2.877   7.524 -0.1744 -0.0142  0.2563
 4445TIP3    H134970   4.772   2.853   7.450 -1.1436 -0.9584 -0.2014
 4445TIP3    H234971   4.679   2.961   7.500  1.4349  0.9015  0.8142
 4446TIP3   OH234972   2.048   5.159   8.253  0.8140 -0.1259 -0.3526
 4446TIP3    H134973   2.114   5.204   8.201  0.0790  0.9327 -0.4169
 4446TIP3    H234974   1.964   5.190   8.218  0.2757 -1.4000 -0.2466
 4447TIP3   OH234975   5.394   5.467   0.028 -0.7956  0.4608 -0.6495
 4447TIP3    H134976   5.306   5.431   0.036 -0.4600 -0.3494 -0.4630
 4447TIP3    H234977   5.427   5.469   0.118 -0.5453  0.5547 -0.7428
 4448TIP3   OH234978   5.754   2.941   1.032  0.4755 -0.0973  0.0491
 4448TIP3    H134979   5.737   3.029   1.064 -0.8889  0.1836 -1.3759
 4448TIP3    H234980   5.672   2.913   0.991  1.0504 -1.8191 -0.0245
 4449TIP3   OH234981   5.212   0.937   7.183 -0.1548 -0.0932  0.6967
 4449TIP3    H134982   5.207   1.023   7.142  0.9801 -0.9264 -1.3224
 4449TIP3    H234983   5.126   0.925   7.224 -0.8602  1.3714 -0.2800
 4450TIP3   OH234984   5.450   5.782   0.277  0.3853 -0.0365 -0.4765
 4450TIP3    H134985   5.435   5.760   0.186 -0.8614 -1.4778  0.0377
 4450TIP3    H234986   5.371   5.829   0.305  0.8205  0.5305 -0.1699
 4451TIP3   OH234987   6.409   0.660   1.553  1.0317 -0.3723  0.3827
 4451TIP3    H134988   6.382   0.603   1.625 -0.9972 -1.1046 -0.8653
 4451TIP3    H234989   6.505   0.652   1.551  0.9064 -3.3772  0.6096
 4452TIP3   OH234990   4.082   5.647   7.529 -0.1699 -0.2449  0.2630
 4452TIP3    H134991   4.106   5.728   7.484  2.0932 -1.0981 -0.1721
 4452TIP3    H234992   4.003   5.618   7.484 -2.1121  2.5259  1.5391
 4453TIP3   OH234993   1.576   1.867   2.778  0.1995  0.2514 -0.0165
 4453TIP3    H134994   1.545   1.841   2.691  1.3691 -0.8344 -0.1353
 4453TIP3    H234995   1.507   1.924   2.812 -1.3865 -1.1697 -0.7053
 4454TIP3   OH234996   3.360   6.157   0.238 -0.2970 -0.1867  0.8006
 4454TIP3    H134997   3.406   6.110   0.169 -0.5554 -1.0001  1.1603
 4454TIP3    H234998   3.423   6.163   0.310  0.2774  1.4385  0.2171
 4455TIP3   OH234999   0.019   6.266   1.180 -0.7372 -0.0872  0.6181
 4455TIP3    H135000  -0.042   6.199   1.148  0.2441 -1.2507  1.0857
 4455TIP3    H235001  -0.022   6.349   1.157 -1.9094 -0.8475 -0.1576
 4456TIP3   OH235002   3.550   4.164   2.936  0.0986 -0.1244  0.8020
 4456TIP3    H135003   3.460   4.134   2.935  0.0321  0.0797  0.5843
 4456TIP3    H235004   3.545   4.257   2.958  0.1742  0.1323 -0.1784
 4457TIP3   OH235005   5.472   4.528   0.786  0.0219 -0.2118 -0.0491
 4457TIP3    H135006   5.506   4.605   0.833  0.1614 -0.2638 -0.0674
 4457TIP3    H235007   5.525   4.455   0.817 -0.1298 -0.3067 -0.0107
 4458TIP3   OH235008   4.304   0.773   0.736 -0.8106 -0.4032  0.2102
 4458TIP3    H135009   4.316   0.732   0.821  2.1758  0.8491  0.5462
 4458TIP3    H235010   4.301   0.867   0.754 -0.9912 -0.1573 -0.9881
 4459TIP3   OH235011   6.382   5.115   1.036 -0.2859  0.2401  0.5324
 4459TIP3    H135012   6.358   5.120   1.129 -1.8947  0.8269  0.1250
 4459TIP3    H235013   6.350   5.197   0.999 -0.3501 -0.3161 -0.6887
 4460TIP3   OH235014   6.850   3.095   1.856  0.5969 -0.2865 -0.3126
 4460TIP3    H135015   6.850   3.143   1.938 -0.9530 -0.9277  0.1149
 4460TIP3    H235016   6.855   3.162   1.788 -0.8821  0.4618  0.2767
 4461TIP3   OH235017   1.951   6.154   8.204 -0.1400 -0.4333 -0.8593
 4461TIP3    H135018   1.900   6.166   8.284  0.7581 -1.7933 -0.0464
 4461TIP3    H235019   2.014   6.227   8.204  0.5353 -0.9887  0.2407
 4462TIP3   OH235020   3.448   0.657   0.303  0.1643  0.5540  0.0252
 4462TIP3    H135021   3.439   0.714   0.226 -0.0629  1.7708  0.9309
 4462TIP3    H235022   3.490   0.712   0.369 -0.7316 -0.0990  1.1621
 4463TIP3   OH235023   0.507   6.272   0.111 -0.6298 -0.3345  0.0007
 4463TIP3    H135024   0.544   6.321   0.185  2.8670 -2.5488 -0.0155
 4463TIP3    H235025   0.453   6.204   0.152  2.4167 -2.4594  0.8756
 4464TIP3   OH235026   2.232   6.826   3.479  0.1318 -0.1962  0.1714
 4464TIP3    H135027   2.190   6.831   3.565 -1.1468 -1.2449 -0.3635
 4464TIP3    H235028   2.319   6.864   3.493  0.2170 -0.9779  2.0907
 4465TIP3   OH235029   6.111   2.857   0.587  0.2576  0.7750  0.3771
 4465TIP3    H135030   6.190   2.910   0.575  0.1273  0.9395  0.2291
 4465TIP3    H235031   6.083   2.875   0.677  0.7409  0.2311  0.6341
 4466TIP3   OH235032   3.834   2.057   2.247  0.0782  0.3384  0.0831
 4466TIP3    H135033   3.777   2.085   2.176 -0.3074  1.1358  0.6828
 4466TIP3    H235034   3.781   2.069   2.326  0.1396 -1.4784  0.4372
 4467TIP3   OH235035   0.606   5.265   0.164  0.1117 -0.0689  0.5452
 4467TIP3    H135036   0.522   5.221   0.150 -0.0450  0.3707  0.0669
 4467TIP3    H235037   0.672   5.198   0.145 -0.1193 -0.8956  2.4874
 4468TIP3   OH235038   4.401   5.581   8.541  0.0337 -0.0650 -0.3631
 4468TIP3    H135039   4.437   5.665   8.512  1.7184  0.1825  2.0922
 4468TIP3    H235040   4.327   5.565   8.483 -0.4242  3.1853 -0.8647
 4469TIP3   OH235041   1.387   0.546   1.407  0.0902 -0.6379  0.1543
 4469TIP3    H135042   1.441   0.588   1.473 -0.7091 -0.6037  0.8133
 4469TIP3    H235043   1.297   0.574   1.428 -0.0935  0.1942 -1.5677
 4470TIP3   OH235044   6.819   1.688   2.457 -0.4649  0.4522  0.1834
 4470TIP3    H135045   6.730   1.700   2.425 -0.1515  2.2531 -0.1137
 4470TIP3    H235046   6.872   1.680   2.377 -0.1944  0.7154  0.3372
 4471TIP3   OH235047   2.031   2.888   0.587  0.0910 -0.5879 -0.2905
 4471TIP3    H135048   1.962   2.867   0.524 -0.8311  0.6150  0.2855
 4471TIP3    H235049   2.111   2.887   0.535 -0.8489  2.3214 -2.0003
 4472TIP3   OH235050   4.488   4.704   2.541 -0.0771  0.1996  0.3344
 4472TIP3    H135051   4.472   4.613   2.568 -0.1057  0.1932  0.2949
 4472TIP3    H235052   4.441   4.756   2.605  1.3848  0.2433  1.4350
 4473TIP3   OH235053   4.163   2.955   7.845  0.0038 -0.0709 -0.8109
 4473TIP3    H135054   4.190   2.996   7.927 -0.3761  0.8075 -1.1183
 4473TIP3    H235055   4.235   2.973   7.785 -0.1208  0.0742 -0.9185
 4474TIP3   OH235056   6.208   4.602   1.295 -0.6141 -0.3034 -0.2562
 4474TIP3    H135057   6.272   4.658   1.338 -1.0219  1.1249 -1.4351
 4474TIP3    H235058   6.249   4.516   1.291  0.5747  0.2245  0.4136
 4475TIP3   OH235059   3.329   0.011   1.167 -0.1944 -0.3504 -0.4656
 4475TIP3    H135060   3.360   0.074   1.232  1.4516 -1.7884  0.2178
 4475TIP3    H235061   3.266   0.060   1.114  0.8569  1.7895  0.1587
 4476TIP3   OH235062   5.927   4.403   2.028  0.6068  0.1086  0.0781
 4476TIP3    H135063   5.906   4.496   2.026  0.7411  0.1442  0.3669
 4476TIP3    H235064   5.975   4.388   1.946 -0.6979 -0.0207 -0.6784
 4477TIP3   OH235065   2.912   1.952   2.763  0.5271  0.0766 -0.2636
 4477TIP3    H135066   2.820   1.978   2.762  0.8426  1.2767 -0.2264
 4477TIP3    H235067   2.923   1.905   2.845 -0.3700 -1.3600 -0.9333
 4478TIP3   OH235068   1.069   3.299   0.640  0.0963 -0.4495 -0.0082
 4478TIP3    H135069   1.046   3.337   0.555 -0.0829 -0.0353  0.2232
 4478TIP3    H235070   1.034   3.361   0.705 -0.4806 -1.1710  0.3829
 4479TIP3   OH235071   5.557   0.433   3.284 -0.1985  0.3658 -0.4202
 4479TIP3    H135072   5.496   0.503   3.307  0.5216  0.3460  1.7430
 4479TIP3    H235073   5.604   0.414   3.365  0.5494 -1.7343 -1.2730
 4480TIP3   OH235074   4.769   4.737   8.492 -0.3599  0.2667 -0.3720
 4480TIP3    H135075   4.770   4.821   8.445 -2.6696  0.9024  0.5675
 4480TIP3    H235076   4.681   4.703   8.476  0.1427 -1.4051  0.2849
 4481TIP3   OH235077   6.735   0.143   2.321  0.3442  0.1868 -0.1986
 4481TIP3    H135078   6.713   0.050   2.314 -1.5557  0.5085  0.7549
 4481TIP3    H235079   6.653   0.188   2.302  0.7820  1.6075  1.0850
 4482TIP3   OH235080   4.936   3.104   7.684 -0.2488 -0.0977  0.1826
 4482TIP3    H135081   5.024   3.142   7.674 -0.1678  0.3068  2.0396
 4482TIP3    H235082   4.909   3.083   7.594  1.0505  1.3173 -0.5988
 4483TIP3   OH235083   5.730   3.676   8.234 -0.2822 -0.0378  0.4254
 4483TIP3    H135084   5.765   3.596   8.273  0.7093  0.1124 -0.1462
 4483TIP3    H235085   5.643   3.650   8.202 -1.1452 -0.1758  2.6795
 4484TIP3   OH235086   4.805   3.543   0.226  0.1617 -0.4651  0.1408
 4484TIP3    H135087   4.770   3.456   0.246 -0.1057 -0.3872  0.0148
 4484TIP3    H235088   4.856   3.566   0.304 -0.6956 -0.2626  0.6692
 4485TIP3   OH235089   4.038   1.979   0.019 -0.1596 -0.2996 -0.2667
 4485TIP3    H135090   3.988   1.900  -0.000 -1.8357  0.3284  1.2169
 4485TIP3    H235091   3.974   2.050   0.013  1.5086  1.1307 -2.5447
 4486TIP3   OH235092   5.472   1.146   1.522 -0.8139  0.4476 -0.0046
 4486TIP3    H135093   5.539   1.125   1.587 -0.7439  1.4185  0.2635
 4486TIP3    H235094   5.476   1.075   1.459  0.4274  0.4440  0.0522
 4487TIP3   OH235095   2.527   2.331   0.911  0.1444 -0.6429 -0.1470
 4487TIP3    H135096   2.604   2.283   0.879  0.3791 -1.0840  1.0305
 4487TIP3    H235097   2.453   2.292   0.864  0.5922 -0.4573 -1.0278
 4488TIP3   OH235098   6.289   6.266   1.905 -0.2051  0.3365  0.1020
 4488TIP3    H135099   6.250   6.316   1.833 -1.2126 -1.6424 -0.8184
 4488TIP3    H235100   6.252   6.305   1.984 -0.9913  1.0236 -0.5816
 4489TIP3   OH235101   5.718   3.794   0.087 -0.1565  0.5962 -0.3330
 4489TIP3    H135102   5.743   3.879   0.124  1.4094  1.0896 -2.3368
 4489TIP3    H235103   5.789   3.735   0.111 -0.7520  0.0791  0.2010
 4490TIP3   OH235104   2.206   6.236   1.114 -0.3406 -0.6292 -0.4387
 4490TIP3    H135105   2.165   6.153   1.087  0.0540 -0.3333 -2.0564
 4490TIP3    H235106   2.250   6.267   1.035  0.8640  0.3371  0.5775
 4491TIP3   OH235107   6.772   3.538   2.723 -0.3322  0.4381 -0.1795
 4491TIP3    H135108   6.689   3.497   2.747 -1.4574  1.7436 -1.5926
 4491TIP3    H235109   6.757   3.632   2.737  2.1020  0.5218  2.8468
 4492TIP3   OH235110   4.363   3.895   7.971  0.0942  0.0595  0.7174
 4492TIP3    H135111   4.388   3.813   7.927  0.9683  0.6750  0.0287
 4492TIP3    H235112   4.268   3.891   7.975 -0.1249  0.3453 -2.0666
 4493TIP3   OH235113   1.102   1.286   0.280 -0.3415  0.1231  0.0704
 4493TIP3    H135114   1.086   1.364   0.226 -0.2638 -1.2688 -2.0997
 4493TIP3    H235115   1.137   1.221   0.219  1.3578 -1.0624  2.1718
 4494TIP3   OH235116   1.466   2.181   8.386  0.0642 -0.5279  0.3547
 4494TIP3    H135117   1.410   2.223   8.321 -0.6929 -0.4811  1.0176
 4494TIP3    H235118   1.440   2.089   8.384 -0.4258 -0.4088  1.0478
 4495TIP3   OH235119   0.227   0.112   7.428  0.2966 -0.2351  0.7176
 4495TIP3    H135120   0.317   0.089   7.452 -0.0263 -1.0919  1.1629
 4495TIP3    H235121   0.210   0.193   7.475  0.2341 -1.0290  2.1446
 4496TIP3   OH235122   0.754   0.012   2.073 -0.3989 -0.5476 -0.1022
 4496TIP3    H135123   0.667  -0.003   2.035 -0.8720  2.1395 -0.3425
 4496TIP3    H235124   0.737   0.030   2.166 -0.0959 -0.2677 -0.0967
 4497TIP3   OH235125   5.244   0.370   0.960 -0.3856 -0.4233 -0.0031
 4497TIP3    H135126   5.277   0.292   0.915 -0.9004 -0.3834 -0.4471
 4497TIP3    H235127   5.309   0.438   0.940  0.5489 -0.9452  1.1224
 4498TIP3   OH235128   5.807   6.390   2.909 -0.5787  0.3840 -0.2390
 4498TIP3    H135129   5.847   6.328   2.848  0.2290  2.0512 -1.4681
 4498TIP3    H235130   5.858   6.380   2.990 -0.1243 -0.1613 -0.5872
 4499TIP3   OH235131   3.666   4.765   2.231  0.0361  0.2709  0.5926
 4499TIP3    H135132   3.669   4.791   2.323 -0.0800 -0.0925  0.6999
 4499TIP3    H235133   3.720   4.830   2.186  0.3205  0.2882  0.9554
 4500TIP3   OH235134   6.066   2.899   1.482 -0.5501  0.5239  0.2156
 4500TIP3    H135135   6.029   2.929   1.398 -2.5821  2.4655  1.6947
 4500TIP3    H235136   6.125   2.969   1.509  1.7424 -1.0170 -0.4508
 4501TIP3   OH235137   3.153   1.915   8.499  0.2171 -0.4411 -0.2592
 4501TIP3    H135138   3.230   1.968   8.517  0.7324 -1.2097 -0.1762
 4501TIP3    H235139   3.167   1.834   8.548 -1.0884 -0.2126  0.5597
 4502TIP3   OH235140   6.560   6.185   8.111 -0.1589  0.3269 -0.1258
 4502TIP3    H135141   6.538   6.094   8.092 -0.6228  0.8313 -2.2628
 4502TIP3    H235142   6.651   6.183   8.141 -0.0178 -0.7814 -0.6136
 4503TIP3   OH235143   2.843   0.357   1.703  0.5244  0.1790 -0.0782
 4503TIP3    H135144   2.860   0.361   1.608 -3.8826 -0.9069 -1.1445
 4503TIP3    H235145   2.847   0.263   1.723  2.5812  0.4819  1.1864
 4504TIP3   OH235146   1.050   4.335   0.924  0.1322 -0.5471 -0.2331
 4504TIP3    H135147   1.070   4.358   0.833  0.7484 -0.6182 -0.1216
 4504TIP3    H235148   1.104   4.394   0.976  0.1489 -0.8368  0.0800
 4505TIP3   OH235149   4.853   5.434   8.287 -0.4104  1.1502  0.6191
 4505TIP3    H135150   4.903   5.354   8.304 -0.1497  1.5930  2.1126
 4505TIP3    H235151   4.773   5.403   8.244 -0.2484  0.1015  1.0261
 4506TIP3   OH235152   1.689   5.609   8.144 -0.4818  0.3808  0.6320
 4506TIP3    H135153   1.785   5.602   8.143 -0.4152  1.0517 -0.8946
 4506TIP3    H235154   1.669   5.667   8.071 -2.1490 -1.1204 -0.1753
 4507TIP3   OH235155   5.329   4.645   3.289  0.0935 -0.8709 -0.0220
 4507TIP3    H135156   5.417   4.678   3.267  0.3735 -2.0866 -0.8020
 4507TIP3    H235157   5.279   4.724   3.310  0.4015  0.2539 -3.0014
 4508TIP3   OH235158   6.180   4.936   1.927 -0.0003 -0.0885  0.1587
 4508TIP3    H135159   6.117   4.997   1.888 -1.0233 -0.7956  0.6357
 4508TIP3    H235160   6.143   4.849   1.907  1.8995 -0.6211 -1.3441
 4509TIP3   OH235161   6.008   2.630   1.300  0.1178 -0.0871 -0.0397
 4509TIP3    H135162   5.916   2.625   1.322 -0.9585  0.8403 -3.5968
 4509TIP3    H235163   6.024   2.723   1.282  2.0954 -0.0408  1.5513
 4510TIP3   OH235164   6.176   3.138   8.198 -0.0549  0.4041 -0.0727
 4510TIP3    H135165   6.166   3.180   8.284  1.0648  0.7108 -0.0808
 4510TIP3    H235166   6.250   3.078   8.209 -0.5995 -0.3812 -0.5268
 4511TIP3   OH235167   2.885   3.530   2.806  0.2485 -0.2046  0.4981
 4511TIP3    H135168   2.871   3.477   2.728 -0.1549 -0.9344  1.0633
 4511TIP3    H235169   2.810   3.513   2.862  0.6361  0.1510  1.1456
 4512TIP3   OH235170   1.570   4.846   0.473  0.0832  0.0325  0.3188
 4512TIP3    H135171   1.544   4.858   0.382 -1.0786 -1.8601  0.3436
 4512TIP3    H235172   1.494   4.874   0.523  0.7617  1.1757  0.7314
 4513TIP3   OH235173   3.640   6.756   8.544 -0.6290  0.1370 -0.6843
 4513TIP3    H135174   3.670   6.764   8.634  0.3538 -1.6631 -0.8087
 4513TIP3    H235175   3.553   6.797   8.544 -0.8560 -0.2321  1.1906
 4514TIP3   OH235176   0.750   3.178   0.886  0.4321  0.4811  0.3320
 4514TIP3    H135177   0.661   3.146   0.897  0.9797 -0.5289  2.2656
 4514TIP3    H235178   0.742   3.274   0.890 -0.6167  0.4262 -0.1742
 4515TIP3   OH235179   1.804   4.533   0.985 -0.1202 -0.1923 -0.1260
 4515TIP3    H135180   1.730   4.523   0.926  0.4992  0.7508 -1.1003
 4515TIP3    H235181   1.765   4.536   1.073 -1.2544  0.5190 -0.6359
 4516TIP3   OH235182   0.948   1.342   2.521  0.0823  0.3770  0.0756
 4516TIP3    H135183   0.906   1.394   2.590  1.2263  0.3184  0.8297
 4516TIP3    H235184   0.927   1.390   2.440 -0.6765  0.8306  0.5214
 4517TIP3   OH235185   3.819   1.320   8.272  0.4604  0.2312  0.0082
 4517TIP3    H135186   3.769   1.305   8.353  0.5283 -1.7812 -0.2732
 4517TIP3    H235187   3.900   1.271   8.284  1.1314  1.1199 -0.7168
 4518TIP3   OH235188   6.188   2.515   3.495  0.3075 -0.3715  0.1196
 4518TIP3    H135189   6.113   2.458   3.477  1.1762 -1.1323 -1.2639
 4518TIP3    H235190   6.260   2.455   3.515  0.9225  0.2802 -0.0799
 4519TIP3   OH235191   6.734   1.600   0.075 -0.3296  0.5141 -0.2197
 4519TIP3    H135192   6.729   1.690   0.107  0.4371 -0.3593  2.6392
 4519TIP3    H235193   6.766   1.609  -0.016 -1.7385  3.1290 -0.5500
 4520TIP3   OH235194   0.626   4.340   0.441 -0.2363 -0.2986  0.3602
 4520TIP3    H135195   0.589   4.391   0.514 -1.4788  0.9005 -1.0371
 4520TIP3    H235196   0.569   4.361   0.366  1.5629 -0.7255 -1.1911
 4521TIP3   OH235197   6.862   4.710   2.329  0.5416  0.0561 -0.2377
 4521TIP3    H135198   6.918   4.783   2.302  0.3137  0.5375  0.5448
 4521TIP3    H235199   6.901   4.679   2.411 -0.1957  0.2549  0.2038
 4522TIP3   OH235200   3.309   1.591   8.435  0.2460 -0.2348  0.0137
 4522TIP3    H135201   3.330   1.655   8.367 -1.5629  2.8972  2.1756
 4522TIP3    H235202   3.216   1.571   8.422  0.0429 -0.0856  1.1830
 4523TIP3   OH235203   0.563   6.833   0.034  0.3374  0.0346 -0.6968
 4523TIP3    H135204   0.604   6.802  -0.047 -0.3209 -0.1896 -0.9487
 4523TIP3    H235205   0.605   6.780   0.103  1.7615  1.0474 -0.7404
 4524TIP3   OH235206   4.261   3.107   8.361  0.2888  0.0070 -0.2223
 4524TIP3    H135207   4.274   3.050   8.437 -0.5222  1.8068  1.3620
 4524TIP3    H235208   4.349   3.132   8.335  0.6990 -2.1782 -1.2132
 4525TIP3   OH235209   5.206   3.431   7.828  0.0032  0.7066 -0.4239
 4525TIP3    H135210   5.264   3.461   7.758  0.8289 -0.3013 -0.2036
 4525TIP3    H235211   5.201   3.506   7.888  0.4298  1.0851 -0.8469
 4526TIP3   OH235212   4.433   6.165   7.503  0.4764 -0.4818  0.4014
 4526TIP3    H135213   4.513   6.211   7.477  2.1375 -3.7467 -0.7869
 4526TIP3    H235214   4.393   6.138   7.420 -2.0059  1.1397  0.9657
 4527TIP3   OH235215   1.367   6.830   0.291  0.2476  0.0140  0.5787
 4527TIP3    H135216   1.298   6.895   0.273 -0.1778 -0.1749  1.4688
 4527TIP3    H235217   1.423   6.833   0.213  0.0294  1.1858  0.4459
 4528TIP3   OH235218   3.157   0.913   8.117  0.2355 -0.3838 -0.1669
 4528TIP3    H135219   3.123   0.855   8.186 -0.4653  1.2786  0.9531
 4528TIP3    H235220   3.121   0.877   8.036 -0.5423 -1.2514  0.5355
 4529TIP3   OH235221   0.855   4.474   3.391 -0.0516 -0.1946 -0.0688
 4529TIP3    H135222   0.845   4.512   3.478  1.6514  0.1823 -0.0005
 4529TIP3    H235223   0.861   4.549   3.332  0.6729 -0.4034 -0.2681
 4530TIP3   OH235224   5.220   1.398   1.406  0.0907 -0.4406  0.1481
 4530TIP3    H135225   5.253   1.487   1.396 -1.0871  0.0067  0.0981
 4530TIP3    H235226   5.135   1.398   1.363 -0.9117 -0.9788  1.9894
 4531TIP3   OH235227   0.200   2.639   1.299 -0.1950 -0.0479 -0.1283
 4531TIP3    H135228   0.254   2.596   1.234  1.1290  0.7788  0.3856
 4531TIP3    H235229   0.195   2.578   1.372 -1.8168 -1.0454 -1.0249
 4532TIP3   OH235230   1.666   6.291   8.650  0.5108 -0.4830  0.4334
 4532TIP3    H135231   1.699   6.369   8.694 -0.8952  1.0413 -1.0963
 4532TIP3    H235232   1.580   6.275   8.688 -0.3530  0.3476 -1.0981
 4533TIP3   OH235233   0.797   1.830   2.672 -0.1070 -0.2944  0.0176
 4533TIP3    H135234   0.713   1.876   2.671  0.4020  0.6559 -0.2409
 4533TIP3    H235235   0.848   1.876   2.739  0.6153 -0.0944 -0.6526
 4534TIP3   OH235236   5.328   6.727   8.469 -0.0533  0.2132  0.3076
 4534TIP3    H135237   5.365   6.747   8.383 -0.7450 -0.0537 -0.0634
 4534TIP3    H235238   5.328   6.631   8.474 -1.0174  0.1920  0.1394
 4535TIP3   OH235239   6.642   5.119   2.840 -0.3556  0.9036  0.3982
 4535TIP3    H135240   6.731   5.105   2.809 -0.5600 -0.0412  0.2171
 4535TIP3    H235241   6.653   5.164   2.924  0.4652 -2.2235  2.1099
 4536TIP3   OH235242   2.025   3.104   2.751 -0.3277  0.1839  0.3572
 4536TIP3    H135243   1.944   3.053   2.750  1.6623 -3.2695  0.3089
 4536TIP3    H235244   2.081   3.061   2.685  2.1083  1.3781  1.5384
 4537TIP3   OH235245   6.459   3.592   0.846  0.4131  0.3337  0.2404
 4537TIP3    H135246   6.498   3.652   0.910 -0.7243  0.9158  0.4128
 4537TIP3    H235247   6.441   3.512   0.897 -0.1527  0.6665  0.5795
 4538TIP3   OH235248   4.381   4.442   2.491  0.4724  0.7928 -0.0749
 4538TIP3    H135249   4.309   4.424   2.430  1.3636 -1.2063 -0.5914
 4538TIP3    H235250   4.379   4.369   2.552  2.6305  0.1926 -0.6566
 4539TIP3   OH235251   6.425   5.476   2.504  0.7346 -0.5681  0.2837
 4539TIP3    H135252   6.348   5.420   2.516 -0.5702  0.8747 -0.8838
 4539TIP3    H235253   6.492   5.435   2.558 -0.8312 -1.8958  1.3578
 4540TIP3   OH235254   0.334   3.920   2.399 -0.3316  0.1079  0.2755
 4540TIP3    H135255   0.313   3.971   2.476  1.3663 -0.3462  1.0959
 4540TIP3    H235256   0.387   3.979   2.345 -2.3726  0.7819 -1.0994
 4541TIP3   OH235257   2.056   0.762   1.301 -0.2673 -0.1875 -0.1709
 4541TIP3    H135258   2.042   0.844   1.349 -1.0980 -1.0485  1.1273
 4541TIP3    H235259   2.099   0.705   1.364  1.6924 -0.3031 -1.5377
 4542TIP3   OH235260   2.909   1.189   0.365 -0.2563 -0.0849 -0.4165
 4542TIP3    H135261   2.871   1.272   0.335  0.9926  0.6679 -0.0263
 4542TIP3    H235262   2.836   1.129   0.369 -1.0539  0.7454 -1.6110
 4543TIP3   OH235263   2.433   5.669   0.995  0.6465  0.6657 -0.8353
 4543TIP3    H135264   2.376   5.635   1.064  0.2417  0.8782 -1.0557
 4543TIP3    H235265   2.432   5.764   1.008  3.6511  0.5339  1.2341
 4544TIP3   OH235266   3.014   5.707   0.088  0.2529 -0.6511  0.0230
 4544TIP3    H135267   3.066   5.637   0.048  1.0737 -0.6476  1.0537
 4544TIP3    H235268   3.067   5.737   0.162  0.4353  1.7815 -0.9926
 4545TIP3   OH235269   4.077   6.061   1.596 -0.7216  0.0162  0.6541
 4545TIP3    H135270   4.044   6.010   1.522  0.5512  0.3136 -0.1415
 4545TIP3    H235271   4.166   6.085   1.572 -0.0609 -0.3435  2.5220
 4546TIP3   OH235272   5.836   4.886   1.892  0.9511  0.3780  0.0848
 4546TIP3    H135273   5.886   4.830   1.832  0.2765 -0.2134  0.0575
 4546TIP3    H235274   5.849   4.975   1.858 -0.8733 -0.0840 -2.0643
 4547TIP3   OH235275   6.859   5.244   7.932 -0.2669 -0.4987  1.1107
 4547TIP3    H135276   6.890   5.302   8.002 -0.3577 -0.6807  1.3006
 4547TIP3    H235277   6.914   5.166   7.940  1.3295  0.3853 -0.4883
 4548TIP3   OH235278   3.417   3.904   7.879  0.0161 -0.4188  0.0016
 4548TIP3    H135279   3.504   3.888   7.915  1.5886  1.9348 -2.3444
 4548TIP3    H235280   3.388   3.819   7.845  2.7066 -0.8130 -1.6382
 4549TIP3   OH235281   0.754   5.632   7.277  0.1190 -0.0809  0.1629
 4549TIP3    H135282   0.845   5.609   7.259  0.0260  0.3082 -0.8961
 4549TIP3    H235283   0.727   5.683   7.200 -1.6968 -2.0952 -0.6081
 4550TIP3   OH235284   4.570   2.204   1.322  0.1035  0.2653  0.0646
 4550TIP3    H135285   4.653   2.252   1.326  1.0758 -1.1571 -1.6513
 4550TIP3    H235286   4.507   2.268   1.287  0.8039  0.9378 -0.0021
 4551TIP3   OH235287   1.094   0.762   8.411  0.1811 -0.8218 -0.0973
 4551TIP3    H135288   1.086   0.770   8.316 -0.9215  1.1716  0.1016
 4551TIP3    H235289   1.188   0.764   8.427  0.3745  2.1223 -1.0037
 4552TIP3   OH235290   0.629   1.937   7.738  0.2084 -0.0368  0.0232
 4552TIP3    H135291   0.657   2.025   7.712 -1.8921  1.0659  1.3221
 4552TIP3    H235292   0.696   1.907   7.799  0.9004  0.6572 -0.3808
 4553TIP3   OH235293   4.878   0.919   2.236  0.0910 -0.1911 -0.3236
 4553TIP3    H135294   4.968   0.937   2.207  0.0555 -0.4521 -0.5949
 4553TIP3    H235295   4.826   0.988   2.194  0.3628  0.8690  1.0270
 4554TIP3   OH235296   5.773   5.213   7.406 -0.1057  0.3199  0.0394
 4554TIP3    H135297   5.824   5.288   7.374 -1.9156  0.5514 -2.5927
 4554TIP3    H235298   5.814   5.137   7.363 -2.1836  0.5732 -2.6572
 4555TIP3   OH235299   3.301   6.635   0.164  0.1416 -0.1801  0.5116
 4555TIP3    H135300   3.367   6.568   0.144 -0.0027 -0.1164 -0.2169
 4555TIP3    H235301   3.270   6.664   0.078  0.2048  0.8314  0.8158
 4556TIP3   OH235302   0.809   1.734   8.627  0.0790  0.2883  0.1864
 4556TIP3    H135303   0.735   1.764   8.681 -1.0156 -0.6884 -0.7104
 4556TIP3    H235304   0.776   1.738   8.537  0.7497 -1.1422 -0.1472
 4557TIP3   OH235305   0.332   4.151   1.001 -0.1086  0.6686 -0.0996
 4557TIP3    H135306   0.352   4.073   0.948  0.0287 -0.6399  1.7821
 4557TIP3    H235307   0.367   4.224   0.950  0.5285 -0.5655 -1.5254
 4558TIP3   OH235308   5.122   6.212   3.188  0.9669 -0.4339  0.1201
 4558TIP3    H135309   5.062   6.139   3.196 -1.1843  1.0411 -1.3881
 4558TIP3    H235310   5.124   6.232   3.094  1.6934  1.2478  0.4430
 4559TIP3   OH235311   6.258   3.960   7.122  0.5187  0.0573  0.3180
 4559TIP3    H135312   6.281   3.899   7.192  1.6257  1.0436  0.8569
 4559TIP3    H235313   6.162   3.955   7.116  0.5534 -1.4007  0.6227
 4560TIP3   OH235314   3.737   2.421   0.891 -0.2342 -0.4683  0.0681
 4560TIP3    H135315   3.811   2.482   0.894 -0.1082 -0.6474  2.0264
 4560TIP3    H235316   3.670   2.468   0.841  0.1942  0.9194  0.7239
 4561TIP3   OH235317   6.622   6.392   2.892 -0.2645  0.1172  0.0533
 4561TIP3    H135318   6.663   6.459   2.837 -0.9045  0.6461  0.2123
 4561TIP3    H235319   6.564   6.344   2.833  0.9375 -0.9630 -0.2866
 4562TIP3   OH235320   1.924   3.944   1.181  0.3071 -0.7222 -0.0325
 4562TIP3    H135321   1.885   3.865   1.220  0.6129 -0.9955 -0.2774
 4562TIP3    H235322   1.942   3.919   1.090  2.0496 -0.9662  0.3479
 4563TIP3   OH235323   3.344   5.254   0.161  0.5087 -0.3426 -0.1077
 4563TIP3    H135324   3.267   5.212   0.199  0.8746 -1.2708 -0.3692
 4563TIP3    H235325   3.411   5.248   0.229  0.1834  1.0528  0.3724
 4564TIP3   OH235326   3.823   5.323   2.969 -0.0076  0.3600 -0.5844
 4564TIP3    H135327   3.755   5.308   3.034  1.3046 -0.1159  0.7429
 4564TIP3    H235328   3.868   5.403   2.998  0.6260  0.1205 -0.8686
 4565TIP3   OH235329   2.123   1.344   1.857  0.2085 -0.4357  0.2909
 4565TIP3    H135330   2.172   1.285   1.800  0.6492 -1.0257  1.2632
 4565TIP3    H235331   2.081   1.405   1.797  1.2781 -0.5711 -0.6278
 4566TIP3   OH235332   6.173   5.463   1.276 -0.2675 -0.3669  0.5191
 4566TIP3    H135333   6.213   5.489   1.359 -0.4066 -0.0193  0.4816
 4566TIP3    H235334   6.167   5.368   1.280  0.7503 -0.4360  0.4345
 4567TIP3   OH235335   1.155   1.105   0.102 -0.0836  0.2511 -0.1946
 4567TIP3    H135336   1.221   1.042   0.132 -0.5002  0.5510  1.4428
 4567TIP3    H235337   1.096   1.053   0.047  0.6218 -0.3597 -0.4004
 4568TIP3   OH235338   6.856   4.652   0.868  0.0348 -0.6052 -0.0018
 4568TIP3    H135339   6.802   4.620   0.796 -0.0490 -0.6833  0.0961
 4568TIP3    H235340   6.794   4.695   0.928 -0.1680 -2.1445  0.9456
 4569TIP3   OH235341   3.608   5.414   2.809  0.0771 -0.0851  0.1745
 4569TIP3    H135342   3.560   5.484   2.854  1.1684  0.6351  0.2775
 4569TIP3    H235343   3.659   5.373   2.878  0.3782 -0.1670 -0.0960
 4570TIP3   OH235344   1.544   0.431   2.158 -0.0757 -0.1419  0.6440
 4570TIP3    H135345   1.634   0.400   2.154  0.9523  2.3976  1.8761
 4570TIP3    H235346   1.540   0.484   2.237 -2.5691  0.1277  0.4251
 4571TIP3   OH235347   6.657   0.182   2.594 -0.0351  0.4776  0.1122
 4571TIP3    H135348   6.659   0.089   2.574  1.1175  1.0028 -2.7326
 4571TIP3    H235349   6.597   0.219   2.529 -0.8325  1.7173  1.4803
 4572TIP3   OH235350   3.760   0.012   8.343  0.4231  0.2862 -0.3051
 4572TIP3    H135351   3.746  -0.044   8.419  0.7137  0.5230 -0.0746
 4572TIP3    H235352   3.688   0.074   8.345  0.1347 -0.0371 -0.5250
 4573TIP3   OH235353   2.514   4.200   2.563 -0.2599  0.4815  0.4137
 4573TIP3    H135354   2.591   4.155   2.597 -1.2859  0.4072  2.8315
 4573TIP3    H235355   2.439   4.156   2.605 -1.7559 -0.1803 -2.6790
 4574TIP3   OH235356   1.873   6.089   0.333 -0.0885 -0.5557  0.3012
 4574TIP3    H135357   1.851   6.070   0.424 -0.3657 -3.1554 -0.2231
 4574TIP3    H235358   1.805   6.045   0.282  1.1672 -0.8739 -1.1864
 4575TIP3   OH235359   4.966   0.963   7.928  0.5585  0.7163 -0.3982
 4575TIP3    H135360   4.947   1.050   7.893  0.7314  0.6607 -0.6335
 4575TIP3    H235361   4.882   0.929   7.956  0.5315  1.0885 -0.0075
 4576TIP3   OH235362   2.521   4.230   7.665  0.2796 -0.7399  0.5552
 4576TIP3    H135363   2.452   4.272   7.612  1.8340 -0.6905 -1.5523
 4576TIP3    H235364   2.489   4.142   7.680 -0.1941 -0.7890 -0.5907
 4577TIP3   OH235365   6.366   5.326   7.941  0.0049 -0.4266 -0.0444
 4577TIP3    H135366   6.418   5.406   7.931 -0.7267 -0.0425 -0.8953
 4577TIP3    H235367   6.416   5.259   7.895  0.1042 -0.2213 -0.2377
 4578TIP3   OH235368   5.296   1.904   1.409 -0.9178  0.3197  0.3125
 4578TIP3    H135369   5.209   1.943   1.414 -0.5649  1.1181  0.2963
 4578TIP3    H235370   5.356   1.973   1.438 -0.2845 -0.2079  0.2910
 4579TIP3   OH235371   3.037   3.131   1.642 -0.8960  0.2409 -0.0809
 4579TIP3    H135372   2.967   3.072   1.671  1.7948 -1.9477  2.6371
 4579TIP3    H235373   3.080   3.158   1.723  2.3004  0.2238 -1.6183
 4580TIP3   OH235374   4.851   0.124   1.397  0.0185  0.0618  0.1896
 4580TIP3    H135375   4.777   0.118   1.457  1.0930 -2.0064  1.4054
 4580TIP3    H235376   4.854   0.217   1.373 -3.7161  0.0689 -0.9828
 4581TIP3   OH235377   2.774   1.606   1.883 -0.0088  0.3723 -0.3705
 4581TIP3    H135378   2.839   1.663   1.840  0.2139  1.0522  0.8340
 4581TIP3    H235379   2.750   1.543   1.815  0.1373  1.5633 -1.5842
 4582TIP3   OH235380   0.269   2.039   2.416 -0.1909 -0.6283 -0.9162
 4582TIP3    H135381   0.179   2.007   2.429 -1.4146  2.5017 -0.6794
 4582TIP3    H235382   0.293   2.075   2.501  1.0061 -0.7419 -1.1989
 4583TIP3   OH235383   2.265   1.561   8.579  0.0591  0.4799  0.2112
 4583TIP3    H135384   2.251   1.505   8.655 -0.7464  0.8440  0.3471
 4583TIP3    H235385   2.313   1.637   8.612 -0.1319  0.5523  0.3243
 4584TIP3   OH235386   6.158   5.483   0.396  0.7248 -0.1072  0.3080
 4584TIP3    H135387   6.188   5.426   0.325  0.6522 -1.1140  1.0624
 4584TIP3    H235388   6.063   5.467   0.400  0.7423 -0.1304  0.6818
 4585TIP3   OH235389   3.526   4.419   3.035  0.2754  0.1074 -0.2409
 4585TIP3    H135390   3.465   4.490   3.017 -0.8774 -0.6283  0.5436
 4585TIP3    H235391   3.534   4.418   3.131  1.0352 -0.2030 -0.2998
 4586TIP3   OH235392   0.459   3.922   0.907 -1.3538  0.0336  0.3750
 4586TIP3    H135393   0.404   3.857   0.950 -1.8736  0.1064 -0.1648
 4586TIP3    H235394   0.546   3.881   0.904 -2.0757 -1.5712 -1.8001
 4587TIP3   OH235395   2.269   6.858   1.314  0.5407  0.0278  0.1192
 4587TIP3    H135396   2.282   6.932   1.374  0.4173  0.6830 -0.6294
 4587TIP3    H235397   2.180   6.828   1.332  1.3179 -1.3649  1.9286
 4588TIP3   OH235398   0.986   6.725   3.225 -0.1299  0.0514  0.2029
 4588TIP3    H135399   1.008   6.732   3.132  0.4745 -0.6324  0.2875
 4588TIP3    H235400   1.056   6.673   3.263 -1.5216 -1.6497  0.5965
 4589TIP3   OH235401   6.069   5.127   7.736 -0.8702  0.0080 -0.7002
 4589TIP3    H135402   5.995   5.148   7.793 -1.8370 -0.0596 -1.8937
 4589TIP3    H235403   6.072   5.199   7.673  0.4726  0.3150 -0.3203
 4590TIP3   OH235404   0.056   1.321   8.254  0.6032  0.3914  0.2052
 4590TIP3    H135405   0.081   1.285   8.169  1.4720 -1.5521  1.2141
 4590TIP3    H235406   0.126   1.383   8.274  0.7487  0.3737 -0.2188
 4591TIP3   OH235407   3.492   1.269   0.836  0.0648  0.2743  0.2994
 4591TIP3    H135408   3.475   1.324   0.760 -0.3612  0.0093  0.1983
 4591TIP3    H235409   3.584   1.247   0.830 -0.4186 -1.5736 -1.3781
 4592TIP3   OH235410   5.693   6.236   1.725 -0.6916 -0.4496  0.6099
 4592TIP3    H135411   5.779   6.274   1.741 -0.4728  0.6549 -2.5221
 4592TIP3    H235412   5.706   6.142   1.732  0.9825 -0.3328 -0.4305
 4593TIP3   OH235413   2.116   6.463   0.341  0.6864 -0.2744  0.3993
 4593TIP3    H135414   2.124   6.383   0.392  0.2944 -0.1952  0.5895
 4593TIP3    H235415   2.069   6.523   0.399  0.3161 -0.1551 -0.0265
 4594TIP3   OH235416   6.221   4.912   1.024 -0.5881  0.0880 -0.0427
 4594TIP3    H135417   6.292   4.976   1.016 -0.3837 -0.2411 -1.0757
 4594TIP3    H235418   6.251   4.853   1.093  0.0803  0.0504 -0.3477
 4595TIP3   OH235419   1.873   6.734   8.413  0.2440  0.8423  1.0177
 4595TIP3    H135420   1.876   6.668   8.344  2.6862 -0.8995  2.5909
 4595TIP3    H235421   1.946   6.793   8.393  0.4919  0.7689  1.6817
 4596TIP3   OH235422   6.500   3.834   8.144  0.2753 -0.5277  0.4163
 4596TIP3    H135423   6.557   3.759   8.162 -0.5230 -1.6465 -1.4607
 4596TIP3    H235424   6.555   3.910   8.162  0.7521 -1.4399  3.5471
 4597TIP3   OH235425   5.188   6.559   0.619 -0.5988  0.5828  0.7751
 4597TIP3    H135426   5.131   6.516   0.555  2.1040 -0.9795 -0.7430
 4597TIP3    H235427   5.235   6.625   0.570 -0.2557  1.0708  1.7301
 4598TIP3   OH235428   3.601   4.974   1.862 -0.0626 -0.5515 -0.1340
 4598TIP3    H135429   3.625   4.909   1.928  1.9514 -1.2278 -1.4232
 4598TIP3    H235430   3.510   4.952   1.839 -0.5850 -0.7064  1.8717
 4599TIP3   OH235431   3.725   0.998   1.495 -0.3143  0.4021  0.3712
 4599TIP3    H135432   3.801   0.959   1.452  0.3308  0.9119  1.0323
 4599TIP3    H235433   3.729   1.091   1.471 -0.7016  0.4437  0.4527
 4600TIP3   OH235434   4.859   4.637   2.506 -0.0687  0.2106 -0.7315
 4600TIP3    H135435   4.817   4.559   2.471  0.3464 -0.7276  0.7817
 4600TIP3    H235436   4.808   4.659   2.585 -0.0063  1.2987 -0.9755
 4601TIP3   OH235437   2.965   1.208   2.242 -0.5448  0.3355 -0.6024
 4601TIP3    H135438   2.919   1.281   2.286 -0.6965 -1.9999  3.6849
 4601TIP3    H235439   3.058   1.227   2.256 -0.5995 -0.9486  2.0911
 4602TIP3   OH235440   0.991   2.361   2.337  0.0744  0.5539 -0.2582
 4602TIP3    H135441   0.949   2.402   2.413  0.2796  1.1210 -0.4391
 4602TIP3    H235442   0.929   2.293   2.309 -0.2678  0.7246  0.0684
 4603TIP3   OH235443   5.626   0.013   1.079 -0.3464  0.6044  0.2983
 4603TIP3    H135444   5.569  -0.049   1.035  0.1613 -0.1721  0.7108
 4603TIP3    H235445   5.714  -0.024   1.069  0.2311  2.2177 -1.0998
 4604TIP3   OH235446   4.689   2.907   1.575 -0.2591  0.0699 -0.9630
 4604TIP3    H135447   4.748   2.960   1.629 -0.4173  1.5278 -2.1687
 4604TIP3    H235448   4.735   2.897   1.491 -1.0977  0.0020 -1.4257
 4605TIP3   OH235449   6.326   6.352   0.007  0.5757  0.0139 -0.7666
 4605TIP3    H135450   6.236   6.322   0.025  0.3093  0.2627 -1.6371
 4605TIP3    H235451   6.381   6.277   0.029  0.3650  0.4864  1.6993
 4606TIP3   OH235452   4.043   3.442   1.000  0.5476  0.2965 -0.2483
 4606TIP3    H135453   4.042   3.466   1.093 -0.0309  1.0282 -0.4380
 4606TIP3    H235454   4.022   3.349   1.000  2.4839 -0.2057  0.4760
 4607TIP3   OH235455   5.663   1.466   0.872 -0.0987 -0.1275 -0.1927
 4607TIP3    H135456   5.659   1.378   0.911  1.6533 -0.2333 -0.1859
 4607TIP3    H235457   5.658   1.525   0.947  0.1940 -0.2631 -0.0626
 4608TIP3   OH235458   6.154   1.336   7.760  0.0288 -0.0408  0.0522
 4608TIP3    H135459   6.077   1.379   7.798 -1.0666 -1.1486 -0.8465
 4608TIP3    H235460   6.178   1.268   7.824  1.0129  1.0492  0.8877
 4609TIP3   OH235461   4.985   3.847   0.797 -0.3793 -0.5164 -0.6686
 4609TIP3    H135462   5.009   3.828   0.888 -0.4589  2.3340  0.0540
 4609TIP3    H235463   5.043   3.793   0.744  0.6823 -1.1659  1.0828
 4610TIP3   OH235464   3.613   2.363   0.459 -0.0426 -0.2088  0.4534
 4610TIP3    H135465   3.543   2.301   0.478  1.6121 -1.7941  1.7389
 4610TIP3    H235466   3.572   2.449   0.466 -2.2889 -1.1066 -0.8507
 4611TIP3   OH235467   6.590   4.606   0.163 -0.4065  0.1284 -0.1805
 4611TIP3    H135468   6.612   4.513   0.155 -1.4929 -0.2728  1.2011
 4611TIP3    H235469   6.672   4.651   0.143 -0.3954 -0.9854 -3.2059
 4612TIP3   OH235470   0.729   0.540   0.069  0.2786  0.3078 -0.3551
 4612TIP3    H135471   0.764   0.575  -0.013  0.6191  0.3844 -0.1777
 4612TIP3    H235472   0.686   0.458   0.043 -0.8090  1.0008 -0.8175
 4613TIP3   OH235473   4.127   5.969   7.714 -0.0239  0.4696  0.2611
 4613TIP3    H135474   4.094   6.033   7.651  0.6837  1.3791  0.7818
 4613TIP3    H235475   4.102   6.005   7.799 -0.2347 -0.3168  0.5361
 4614TIP3   OH235476   6.767   2.592   1.316 -0.0292  0.2017  0.0350
 4614TIP3    H135477   6.813   2.535   1.254 -0.0118  0.4293 -0.1675
 4614TIP3    H235478   6.804   2.570   1.401 -1.4736 -1.5375  0.2569
 4615TIP3   OH235479   1.513   0.706   1.102  0.4309  1.1566 -0.0979
 4615TIP3    H135480   1.551   0.698   1.014 -0.4630  0.5651 -0.4432
 4615TIP3    H235481   1.588   0.729   1.158  2.0384 -2.7509 -0.2500
 4616TIP3   OH235482   2.029   4.132   7.598  0.4201 -0.0746 -0.3590
 4616TIP3    H135483   2.078   4.111   7.677 -0.7957 -1.6007  0.0504
 4616TIP3    H235484   2.069   4.078   7.530  0.1777 -0.3272 -0.3077
 4617TIP3   OH235485   5.293   1.395   8.493 -0.0455  0.1783 -0.3221
 4617TIP3    H135486   5.314   1.477   8.539  0.7594 -0.7579  1.0645
 4617TIP3    H235487   5.208   1.370   8.528 -0.0977  0.1988 -0.4331
 4618TIP3   OH235488   1.914   2.564   1.706  0.1433  0.2859 -0.4815
 4618TIP3    H135489   1.855   2.518   1.647 -1.0157 -0.3418  1.0937
 4618TIP3    H235490   1.857   2.620   1.759  0.9159 -0.3992  1.1497
 4619TIP3   OH235491   0.298   4.897   2.547  0.8754 -0.4178 -0.2892
 4619TIP3    H135492   0.294   4.871   2.639 -1.5513 -1.2580 -0.5529
 4619TIP3    H235493   0.209   4.925   2.526  1.5422  0.4608 -2.2122
 4620TIP3   OH235494   1.289   3.744   8.485 -0.1142 -0.1324 -0.5691
 4620TIP3    H135495   1.238   3.796   8.423 -1.6262 -3.0107 -1.9061
 4620TIP3    H235496   1.339   3.683   8.431  2.5764  0.6101  0.8812
 4621TIP3   OH235497   5.031   4.373   2.637 -0.2382 -1.0550 -0.0301
 4621TIP3    H135498   5.008   4.385   2.729 -0.1342  1.4050 -0.2782
 4621TIP3    H235499   4.947   4.369   2.591 -0.2866 -0.1682 -0.0372
 4622TIP3   OH235500   2.215   6.424   2.861  0.2506 -0.1256  0.6816
 4622TIP3    H135501   2.296   6.396   2.817 -0.9982  0.4482 -2.2434
 4622TIP3    H235502   2.154   6.351   2.847 -0.3676  0.3377  0.9435
 4623TIP3   OH235503   0.996   4.230   3.481  0.0386  0.6593  0.0099
 4623TIP3    H135504   0.926   4.279   3.438 -0.9524 -0.5829  0.1495
 4623TIP3    H235505   1.072   4.289   3.479 -0.1466  0.9237 -2.7832
 4624TIP3   OH235506   6.323   4.212   0.734  0.9644 -0.8614  0.1008
 4624TIP3    H135507   6.239   4.233   0.775  0.3336 -1.9297 -0.6073
 4624TIP3    H235508   6.378   4.179   0.806  0.4185 -1.1897  0.3669
 4625TIP3   OH235509   1.731   5.395   1.325 -0.7572  0.0395 -0.5327
 4625TIP3    H135510   1.646   5.415   1.364  0.3611  1.1134  1.5270
 4625TIP3    H235511   1.717   5.313   1.277 -2.1541 -1.7749  2.6728
 4626TIP3   OH235512   4.197   2.382   7.988  0.1495 -0.0827 -0.3395
 4626TIP3    H135513   4.235   2.451   7.934 -0.5535 -0.4330 -1.2913
 4626TIP3    H235514   4.134   2.427   8.044 -0.2059  0.0773 -0.8630
 4627TIP3   OH235515   2.365   5.771   2.272 -0.1518 -0.5328 -0.0717
 4627TIP3    H135516   2.394   5.747   2.360  1.7021 -1.5480 -0.9009
 4627TIP3    H235517   2.443   5.808   2.231 -0.8116 -0.6620 -1.5014
 4628TIP3   OH235518   0.363   4.713   1.841 -0.0468 -0.1715 -0.1074
 4628TIP3    H135519   0.404   4.629   1.860 -1.2327 -0.7640 -0.0901
 4628TIP3    H235520   0.306   4.729   1.917  0.5189  0.8860  0.1172
 4629TIP3   OH235521   2.429   3.723   1.750  0.2149 -0.0366 -0.1962
 4629TIP3    H135522   2.350   3.693   1.794  1.2174 -1.0716  0.9864
 4629TIP3    H235523   2.485   3.646   1.745  1.6435  0.9356  0.1002
 4630TIP3   OH235524   3.002   0.829   1.633  0.1459 -0.1152  0.4226
 4630TIP3    H135525   3.087   0.848   1.594 -0.8932  1.7468 -1.1166
 4630TIP3    H235526   3.007   0.736   1.656  2.1128 -0.3846 -0.8297
 4631TIP3   OH235527   5.837   5.252   2.833  0.1583 -0.4980  0.7463
 4631TIP3    H135528   5.930   5.233   2.842  0.5070  0.9818  0.5001
 4631TIP3    H235529   5.814   5.301   2.911 -0.6351 -1.5549  1.2058
 4632TIP3   OH235530   1.320   5.191   0.257  0.0529 -0.7128  0.1989
 4632TIP3    H135531   1.257   5.220   0.190  1.2440 -0.0666 -0.6802
 4632TIP3    H235532   1.348   5.272   0.300  0.3966 -0.9827  0.4853
 4633TIP3   OH235533   3.057   1.343   3.076  0.0513  0.2555  0.2002
 4633TIP3    H135534   3.071   1.265   3.130  1.6253  0.7809  0.5981
 4633TIP3    H235535   2.973   1.378   3.106 -1.6854 -2.3121 -1.3429
 4634TIP3   OH235536   4.049   1.322   1.169  0.0559  0.0094 -0.4106
 4634TIP3    H135537   4.143   1.308   1.154 -0.2299 -1.1989 -1.1913
 4634TIP3    H235538   4.029   1.273   1.248 -0.0187 -0.1181 -0.5095
 4635TIP3   OH235539   5.683   6.764   1.609 -0.0049 -0.3183 -0.1048
 4635TIP3    H135540   5.677   6.829   1.538 -0.8361  0.8957  1.0373
 4635TIP3    H235541   5.602   6.714   1.602 -1.2836  1.3954  1.4248
 4636TIP3   OH235542   4.739   1.956   1.275  0.1909 -0.0930 -0.3658
 4636TIP3    H135543   4.726   1.913   1.360  1.0185  1.1739  0.4354
 4636TIP3    H235544   4.663   2.014   1.266  0.0096 -0.3593 -0.5966
 4637TIP3   OH235545   6.072   2.280   8.613  0.3045 -0.1768  0.2977
 4637TIP3    H135546   5.996   2.321   8.654  0.1412 -1.4336  1.2876
 4637TIP3    H235547   6.145   2.302   8.670  0.6811  0.8147 -0.5203
 4638TIP3   OH235548   0.704   4.885   3.423  0.3500  0.4568 -0.1670
 4638TIP3    H135549   0.667   4.964   3.462 -2.0890 -1.7292  2.3627
 4638TIP3    H235550   0.774   4.859   3.483  0.7862  0.3708 -0.6999
 4639TIP3   OH235551   2.321   1.568   2.095 -0.2130  0.5054  0.2828
 4639TIP3    H135552   2.402   1.585   2.047  0.5878 -0.2609  1.3112
 4639TIP3    H235553   2.260   1.635   2.064  0.6912  0.8609 -0.7930
 4640TIP3   OH235554   5.847   0.633   0.482 -0.3974  0.5974  0.1656
 4640TIP3    H135555   5.779   0.574   0.449  0.5155  0.6010 -1.8494
 4640TIP3    H235556   5.926   0.580   0.485 -0.2118  0.9077  1.3815
 4641TIP3   OH235557   1.163   1.776   2.119  0.6119 -0.0549 -0.1504
 4641TIP3    H135558   1.228   1.810   2.058  1.8327 -0.3755  0.9019
 4641TIP3    H235559   1.171   1.681   2.111 -0.5503 -0.1149 -0.8163
 4642TIP3   OH235560   5.398   4.452   1.220 -0.5812 -0.1922  0.1909
 4642TIP3    H135561   5.425   4.516   1.285  1.4055  0.7475 -1.4493
 4642TIP3    H235562   5.348   4.503   1.156 -1.1395 -0.7861  0.1483
 4643TIP3   OH235563   3.371   1.014   2.283  0.3659 -0.4022  0.0714
 4643TIP3    H135564   3.330   0.970   2.357 -1.4841  0.8192 -0.1583
 4643TIP3    H235565   3.326   1.098   2.277  1.9755  0.4411 -1.1091
 4644TIP3   OH235566   1.584   3.798   1.281 -0.2450 -0.4549 -0.0543
 4644TIP3    H135567   1.678   3.808   1.266 -0.4210  1.7126 -0.0599
 4644TIP3    H235568   1.557   3.882   1.320 -2.5452 -0.1254 -2.1093
 4645TIP3   OH235569   3.607   2.071   0.080 -0.3327 -0.0229 -0.3215
 4645TIP3    H135570   3.536   2.074   0.144  0.3757  1.6179  0.4577
 4645TIP3    H235571   3.682   2.109   0.126  0.6591 -0.3557 -1.5970
 4646TIP3   OH235572   4.488   1.498   0.366 -0.2935 -0.3267  0.2641
 4646TIP3    H135573   4.564   1.511   0.308 -0.7411 -1.5668 -0.6396
 4646TIP3    H235574   4.489   1.404   0.385 -1.0413 -0.1791  1.0491
 4647TIP3   OH235575   1.539   6.698   8.624 -0.0657  0.4511 -0.0299
 4647TIP3    H135576   1.615   6.755   8.614 -0.2462  0.4984 -1.2339
 4647TIP3    H235577   1.524   6.661   8.537 -1.5596  0.6155  0.1194
 4648TIP3   OH235578   0.963   3.695   0.343 -0.4078 -0.1220 -0.0968
 4648TIP3    H135579   0.964   3.790   0.351  0.1703 -0.1886  0.7371
 4648TIP3    H235580   0.874   3.674   0.314 -0.4469  0.6875 -0.5748
 4649TIP3   OH235581   1.809   4.384   1.313 -0.1887  0.4869 -1.1122
 4649TIP3    H135582   1.820   4.470   1.354  1.1881  0.1927 -0.7956
 4649TIP3    H235583   1.771   4.330   1.382 -0.8272  0.7802 -1.2331
 4650TIP3   OH235584   1.199   6.255   0.330  0.2301  0.0455  0.2154
 4650TIP3    H135585   1.153   6.172   0.343  3.5828 -1.6057  3.6635
 4650TIP3    H235586   1.284   6.229   0.294  1.1201  2.0528  0.7365
 4651TIP3   OH235587   2.037   2.075   1.862 -0.4491 -0.3872  0.3608
 4651TIP3    H135588   2.023   1.990   1.822  0.8741 -0.8206  0.7625
 4651TIP3    H235589   2.029   2.138   1.790  2.5285 -1.1903 -0.8110
 4652TIP3   OH235590   1.849   1.601   8.229 -0.4332 -0.1187  0.5614
 4652TIP3    H135591   1.912   1.625   8.297  1.5699  1.8097 -1.7734
 4652TIP3    H235592   1.781   1.668   8.234 -0.6411 -0.3502  1.0012
 4653TIP3   OH235593   2.519   4.656   7.694  0.2994 -0.1054  0.2398
 4653TIP3    H135594   2.474   4.630   7.614  4.0102 -0.6909 -1.9143
 4653TIP3    H235595   2.539   4.749   7.682  0.9354 -0.2080  0.4180
 4654TIP3   OH235596   2.556   1.900   1.264 -0.3346 -0.0233 -0.5337
 4654TIP3    H135597   2.514   1.948   1.336 -1.1645 -0.6386 -0.5995
 4654TIP3    H235598   2.579   1.968   1.200 -0.5964  0.3984 -0.1824
 4655TIP3   OH235599   4.008   1.400   2.125 -0.3332 -0.1387 -0.5653
 4655TIP3    H135600   4.049   1.483   2.100  0.3703 -0.5440 -0.7955
 4655TIP3    H235601   3.968   1.417   2.210  2.4385 -0.3965  0.8703
 4656TIP3   OH235602   6.081   3.974   8.222 -0.0428 -0.0375  0.1355
 4656TIP3    H135603   6.026   3.966   8.299  0.7337  1.6666  0.9291
 4656TIP3    H235604   6.170   3.979   8.256  0.4303 -0.4810 -0.9643
 4657TIP3   OH235605   3.193   3.725   1.722 -0.0996  0.2631 -0.1060
 4657TIP3    H135606   3.213   3.749   1.632  1.5039 -0.1525  0.1099
 4657TIP3    H235607   3.263   3.765   1.774 -1.4649  1.2406  1.0869
 4658TIP3   OH235608   1.485   2.179   2.647  0.2699 -0.2807 -0.0775
 4658TIP3    H135609   1.409   2.215   2.600 -1.1730 -0.3610  2.0570
 4658TIP3    H235610   1.447   2.138   2.725  2.3490 -2.0556  0.0843
 4659TIP3   OH235611   2.890   4.367   0.360 -0.3708  0.4133 -0.1244
 4659TIP3    H135612   2.795   4.375   0.358 -0.4450 -0.0372  0.9202
 4659TIP3    H235613   2.922   4.455   0.339 -0.9279 -0.0406 -3.4128
 4660TIP3   OH235614   3.689   6.793   0.098 -0.3212 -0.0963 -0.4660
 4660TIP3    H135615   3.656   6.726   0.158  0.0236  0.7195  0.6622
 4660TIP3    H235616   3.771   6.822   0.137  0.9935 -0.9851 -2.4109
 4661TIP3   OH235617   0.489   5.837   2.622  0.2851  0.0654  0.1442
 4661TIP3    H135618   0.414   5.818   2.677  0.5599 -0.5522  0.3152
 4661TIP3    H235619   0.494   5.933   2.620  0.0436  0.1009  0.8745
 4662TIP3   OH235620   0.863   4.346   1.134  0.1075 -0.3156 -0.1055
 4662TIP3    H135621   0.813   4.413   1.086  0.7851  0.4498  0.2330
 4662TIP3    H235622   0.941   4.331   1.081 -0.6701 -1.8689 -0.8827
 4663TIP3   OH235623   0.512   4.720   2.614  0.0149  0.2595 -0.0428
 4663TIP3    H135624   0.427   4.747   2.580 -0.7541 -0.9513  0.8365
 4663TIP3    H235625   0.566   4.706   2.536 -1.0511 -0.3913 -0.6888
 4664TIP3   OH235626   6.664   0.905   8.394  0.1253 -0.0311  0.6956
 4664TIP3    H135627   6.628   0.823   8.362  0.7515 -0.7905  1.8778
 4664TIP3    H235628   6.646   0.968   8.323 -1.0277 -0.9912  0.0951
 4665TIP3   OH235629   5.630   4.439   8.116 -0.4424 -0.1835 -0.2700
 4665TIP3    H135630   5.568   4.485   8.172  0.9411  1.1053  0.2932
 4665TIP3    H235631   5.715   4.456   8.157  0.5042 -0.1195 -2.1573
 4666TIP3   OH235632   5.662   6.467   7.336 -0.3088 -0.4553  0.1172
 4666TIP3    H135633   5.581   6.488   7.382  0.8339  1.1547  1.5458
 4666TIP3    H235634   5.669   6.372   7.341 -1.6530 -0.5495  0.7470
 4667TIP3   OH235635   1.360   4.868   0.739 -0.7047  0.4040 -0.1560
 4667TIP3    H135636   1.379   4.962   0.735  1.3020  0.0280 -0.4962
 4667TIP3    H235637   1.327   4.854   0.828 -3.2948  1.7461 -0.7907
 4668TIP3   OH235638   2.108   4.954   7.984  0.2901 -0.0743  0.6432
 4668TIP3    H135639   2.177   4.889   7.997 -0.3946 -0.6675  1.5064
 4668TIP3    H235640   2.153   5.032   7.954  1.1849 -0.8211  0.0034
 4669TIP3   OH235641   1.128   0.735   2.444 -0.1330  0.1054  0.0956
 4669TIP3    H135642   1.073   0.690   2.380  0.6463  0.1021 -0.5915
 4669TIP3    H235643   1.153   0.667   2.506 -1.8833  0.3499  1.1452
 4670TIP3   OH235644   0.945   4.072   1.271  0.3484 -0.1037  0.4960
 4670TIP3    H135645   0.998   4.107   1.343  0.3417 -0.6126  0.7538
 4670TIP3    H235646   0.907   4.149   1.230 -0.9893  0.1226  2.0651
 4671TIP3   OH235647   4.477   4.020   1.778  0.5887 -0.2740 -0.3109
 4671TIP3    H135648   4.529   4.028   1.858 -0.4614  1.3746  0.2594
 4671TIP3    H235649   4.513   3.943   1.733  0.3982 -2.0222  2.3287
 4672TIP3   OH235650   3.608   5.331   1.340 -0.2984 -0.0885 -0.0502
 4672TIP3    H135651   3.657   5.254   1.314  2.8334  0.3081  3.6854
 4672TIP3    H235652   3.675   5.398   1.357 -2.4613  1.9114  1.3261
 4673TIP3   OH235653   1.502   2.508   0.433 -0.3822 -0.1298 -0.1716
 4673TIP3    H135654   1.591   2.543   0.425 -0.4579  0.2793  0.6164
 4673TIP3    H235655   1.455   2.575   0.483 -1.6235  0.5022 -2.0853
 4674TIP3   OH235656   6.391   5.658   8.129 -0.5324  0.5898  0.4964
 4674TIP3    H135657   6.340   5.594   8.179 -1.5554  1.0787  0.0825
 4674TIP3    H235658   6.374   5.636   8.038 -1.3656  1.8025  0.3379
 4675TIP3   OH235659   3.049   6.521   8.222 -0.1527 -0.1891 -0.1699
 4675TIP3    H135660   3.079   6.434   8.249  2.0955  1.0780  1.8395
 4675TIP3    H235661   2.955   6.511   8.209  0.2909 -3.3201 -1.9524
 4676TIP3   OH235662   0.779   6.484   0.228  0.0015 -0.4014  0.3625
 4676TIP3    H135663   0.838   6.513   0.298  1.6931  1.0872 -1.5595
 4676TIP3    H235664   0.693   6.517   0.254  0.9281  1.8016  0.8406
 4677TIP3   OH235665   5.112   4.434   3.336 -0.0605 -0.5137  0.2559
 4677TIP3    H135666   5.156   4.505   3.383 -0.1203  0.1736 -0.7008
 4677TIP3    H235667   5.021   4.439   3.365  0.2622 -1.3274  1.5060
 4678TIP3   OH235668   3.581   2.288   7.331  0.8171  0.2283 -0.0639
 4678TIP3    H135669   3.515   2.321   7.271  1.7241  1.7968 -0.2466
 4678TIP3    H235670   3.608   2.204   7.294 -1.3717 -0.6979  0.2763
 4679TIP3   OH235671   0.603   4.956   2.382 -0.2444 -0.0977  0.2472
 4679TIP3    H135672   0.511   4.966   2.404 -0.0936  2.6151 -0.1033
 4679TIP3    H235673   0.605   4.952   2.286  0.1346  2.9061  0.0433
 4680TIP3   OH235674   0.799   1.498   0.624 -0.4754 -0.4196 -0.2974
 4680TIP3    H135675   0.881   1.545   0.607 -1.0458  1.3939  1.5315
 4680TIP3    H235676   0.790   1.438   0.550  2.9706 -1.4059 -0.1255
 4681TIP3   OH235677   0.877   4.328   8.165 -0.1440  0.2833  0.0294
 4681TIP3    H135678   0.941   4.309   8.233  1.1563 -1.8404 -1.6226
 4681TIP3    H235679   0.921   4.303   8.083 -1.5141  2.9027 -1.6781
 4682TIP3   OH235680   5.286   0.631   8.526  0.2949  0.5489 -0.2206
 4682TIP3    H135681   5.220   0.625   8.594 -0.0984 -0.0867 -0.6486
 4682TIP3    H235682   5.285   0.723   8.499 -0.8859  0.4053 -0.6899
 4683TIP3   OH235683   4.190   1.718   8.542 -0.4200 -0.1783  0.0139
 4683TIP3    H135684   4.211   1.793   8.597 -3.1148 -0.2128  1.2405
 4683TIP3    H235685   4.164   1.756   8.458 -1.4227  0.2925  0.5168
 4684TIP3   OH235686   4.248   5.220   0.589  0.1272 -0.7709  0.2221
 4684TIP3    H135687   4.216   5.300   0.631 -0.1814 -0.7986  0.0441
 4684TIP3    H235688   4.311   5.184   0.652 -0.7869 -1.1361  0.9566
 4685TIP3   OH235689   1.975   3.774   7.707 -0.4826  0.4253  0.4824
 4685TIP3    H135690   2.069   3.770   7.694 -0.6192 -0.1792 -0.4482
 4685TIP3    H235691   1.938   3.747   7.623 -1.4722 -0.4559  1.1678
 4686TIP3   OH235692   1.188   4.421   8.195  0.0139  0.3214  0.4813
 4686TIP3    H135693   1.262   4.464   8.152 -0.2160 -0.4703 -0.7529
 4686TIP3    H235694   1.111   4.465   8.160 -0.1948 -0.6264 -0.2833
 4687TIP3   OH235695   0.561   4.558   1.602 -0.2035 -0.3795  0.1265
 4687TIP3    H135696   0.628   4.506   1.647 -0.7335 -0.7095  0.5428
 4687TIP3    H235697   0.479   4.516   1.624 -0.5487 -0.0170 -0.4444
 4688TIP3   OH235698   3.330   1.829   8.241  0.2528  0.4900 -0.3275
 4688TIP3    H135699   3.334   1.922   8.262  1.1966  0.3166  0.3380
 4688TIP3    H235700   3.237   1.812   8.224  0.0213  1.4693 -0.0889
 4689TIP3   OH235701   3.599   6.512   0.953  0.1000 -0.3841 -0.3630
 4689TIP3    H135702   3.656   6.489   0.880 -0.3317 -0.8189 -0.5684
 4689TIP3    H235703   3.581   6.429   0.997 -1.1725 -0.4067 -0.8865
 4690TIP3   OH235704   2.741   1.423   0.306  0.3447 -0.3596  0.1171
 4690TIP3    H135705   2.661   1.375   0.326 -0.8572  2.0782  1.7137
 4690TIP3    H235706   2.732   1.447   0.213 -0.3100 -0.9248  0.0285
 4691TIP3   OH235707   4.513   6.824   2.464  0.2655 -0.1138 -0.5641
 4691TIP3    H135708   4.505   6.812   2.370  1.6222  2.1687 -1.0435
 4691TIP3    H235709   4.423   6.822   2.496 -0.2492 -0.4865 -1.9641
 4692TIP3   OH235710   2.520   3.870   1.517  0.0977 -0.3599 -0.1274
 4692TIP3    H135711   2.577   3.933   1.562  0.8988 -0.1521 -1.3776
 4692TIP3    H235712   2.491   3.810   1.586  2.8882 -1.2753  0.3784
 4693TIP3   OH235713   0.016   3.666   7.821 -0.2253 -1.0942  0.1726
 4693TIP3    H135714  -0.025   3.587   7.855 -1.4417  0.4060  2.4658
 4693TIP3    H235715  -0.026   3.738   7.870  1.8847  0.8647 -0.7105
 4694TIP3   OH235716   0.023   4.165   0.138 -0.1957  0.4239 -0.3751
 4694TIP3    H135717   0.053   4.139   0.225 -0.2650 -0.2659 -0.5553
 4694TIP3    H235718  -0.030   4.091   0.108  0.0947  0.5203 -1.1366
 4695TIP3   OH235719   1.249   5.137   2.519  0.1529  0.2093  0.5894
 4695TIP3    H135720   1.158   5.125   2.546  0.1080  1.2706  0.9209
 4695TIP3    H235721   1.300   5.105   2.594  0.0499  0.4704  0.7702
 4696TIP3   OH235722   2.672   3.420   2.591  0.3805  0.0966 -0.3002
 4696TIP3    H135723   2.619   3.498   2.607  2.5624  1.8813 -1.1178
 4696TIP3    H235724   2.704   3.431   2.501  1.3526 -1.3509 -0.1709
 4697TIP3   OH235725   0.940   4.863   7.604  0.1823  0.0762  0.4971
 4697TIP3    H135726   0.941   4.814   7.522 -2.7794  1.9170 -0.8014
 4697TIP3    H235727   0.881   4.814   7.661  0.0037  0.2986  0.5021
 4698TIP3   OH235728   3.503   0.547   3.132  0.1162 -0.6873 -0.1703
 4698TIP3    H135729   3.456   0.471   3.098  2.6327 -2.2921 -0.3602
 4698TIP3    H235730   3.567   0.510   3.193  0.6951  1.4010  0.5546
 4699TIP3   OH235731   5.440   1.482   0.713  0.0389 -0.0403 -0.0380
 4699TIP3    H135732   5.443   1.428   0.634  0.8216 -0.8518  0.5269
 4699TIP3    H235733   5.531   1.486   0.743 -0.2088  0.4967  0.6670
 4700TIP3   OH235734   4.215   1.185   1.384 -0.1120 -0.0107 -0.2799
 4700TIP3    H135735   4.157   1.183   1.460 -1.3396 -2.2113 -1.1741
 4700TIP3    H235736   4.270   1.107   1.394  0.5770  0.3680 -1.0119
 4701TIP3   OH235737   6.735   3.701   0.484  0.6856  0.3585  0.1693
 4701TIP3    H135738   6.719   3.623   0.537  0.8918  1.0642  1.3117
 4701TIP3    H235739   6.718   3.775   0.543 -0.6588  1.2200 -1.2122
 4702TIP3   OH235740   3.339   3.038   2.352  0.2311 -0.3339 -0.2648
 4702TIP3    H135741   3.347   2.975   2.281  0.7660  2.0072 -2.4036
 4702TIP3    H235742   3.428   3.054   2.381  0.1956  0.2982 -0.5091
 4703TIP3   OH235743   4.815   0.901   1.514 -0.2794 -0.0461 -0.3309
 4703TIP3    H135744   4.877   0.832   1.489  0.8091 -0.2089  2.4329
 4703TIP3    H235745   4.739   0.854   1.547 -0.6347  0.1238 -0.8983
 4704TIP3   OH235746   0.370   4.053   1.817 -0.1875  0.2227  0.2586
 4704TIP3    H135747   0.341   3.998   1.744  2.9935 -0.3907 -0.6985
 4704TIP3    H235748   0.386   3.991   1.888  1.1945  0.1635 -0.0804
 4705TIP3   OH235749   3.398   0.643   1.311  0.8847 -0.3223 -0.2657
 4705TIP3    H135750   3.485   0.615   1.342  1.3153  1.0364 -0.2069
 4705TIP3    H235751   3.396   0.737   1.328 -0.4417 -0.2657 -0.6814
 4706TIP3   OH235752   2.094   6.504   7.244  0.0322 -0.5198 -0.5248
 4706TIP3    H135753   2.007   6.535   7.220 -0.8836 -1.6820  1.0753
 4706TIP3    H235754   2.149   6.582   7.240 -2.2722  1.7633  4.0568
 4707TIP3   OH235755   0.546   0.963   8.171 -0.3000  0.1197  0.6647
 4707TIP3    H135756   0.610   1.007   8.227 -0.2750  1.4108 -0.3212
 4707TIP3    H235757   0.468   1.017   8.178  0.0591  1.0167 -1.4128
 4708TIP3   OH235758   4.793   5.340   0.362  0.1769  0.3350  0.1373
 4708TIP3    H135759   4.886   5.332   0.340  0.1285  0.1917 -0.0130
 4708TIP3    H235760   4.750   5.272   0.311 -0.1274  0.9648 -0.4706
 4709TIP3   OH235761   5.254   6.184   1.617 -0.2315 -0.2524  0.7792
 4709TIP3    H135762   5.201   6.231   1.681 -1.1157 -0.7799  0.4514
 4709TIP3    H235763   5.203   6.105   1.597 -0.7021  0.5710 -1.6217
 4710TIP3   OH235764   4.484   2.425   0.653  0.0464 -0.3407  0.2492
 4710TIP3    H135765   4.519   2.514   0.650 -1.2594  0.2507  1.4938
 4710TIP3    H235766   4.391   2.436   0.673 -0.2685 -1.9695 -0.1563
 4711TIP3   OH235767   6.635   4.346   2.463  0.1098 -0.5563  0.4600
 4711TIP3    H135768   6.561   4.287   2.445  0.3887 -0.2847 -1.8369
 4711TIP3    H235769   6.638   4.405   2.388  0.8386  1.4151  1.9383
 4712TIP3   OH235770   3.043   2.142   8.185 -0.2790  0.7187 -0.6274
 4712TIP3    H135771   2.971   2.206   8.193 -1.6450 -0.7841 -0.4000
 4712TIP3    H235772   3.076   2.155   8.096 -0.1835  2.0795 -0.4135
 4713TIP3   OH235773   3.433   0.240   0.679  0.2062  0.0086 -0.2560
 4713TIP3    H135774   3.417   0.260   0.771  0.8588 -1.2597  0.1616
 4713TIP3    H235775   3.360   0.183   0.654  0.6538 -0.6165 -0.1669
 4714TIP3   OH235776   2.050   3.569   0.070 -0.7378 -0.1199  0.3110
 4714TIP3    H135777   2.126   3.543   0.123 -1.0724  1.6286  1.7420
 4714TIP3    H235778   1.974   3.540   0.121 -1.0631  1.2230  0.6279
 4715TIP3   OH235779   5.786   3.323   2.175  0.2970 -0.5162 -0.3257
 4715TIP3    H135780   5.779   3.242   2.124 -1.5643 -0.5874 -0.0295
 4715TIP3    H235781   5.725   3.311   2.248  2.2125 -0.0404  1.4456
 4716TIP3   OH235782   1.271   0.240   3.067 -0.3999 -0.6130  0.0830
 4716TIP3    H135783   1.353   0.285   3.084 -0.4164 -1.0570  1.5159
 4716TIP3    H235784   1.213   0.307   3.031  0.2983 -0.0840 -0.0735
 4717TIP3   OH235785   5.810   1.513   1.223 -0.5472  0.4455  0.3710
 4717TIP3    H135786   5.879   1.477   1.168 -1.6699 -1.9068  0.3566
 4717TIP3    H235787   5.769   1.581   1.169  0.8533  0.9350 -0.1237
 4718TIP3   OH235788   6.346   5.624   7.846 -0.5011 -0.4665  0.4937
 4718TIP3    H135789   6.250   5.619   7.854 -0.5890  1.5726  1.5659
 4718TIP3    H235790   6.361   5.668   7.763 -0.3160 -3.3912 -1.1414
 4719TIP3   OH235791   3.021   6.346   1.710 -0.6442  0.2243 -0.2316
 4719TIP3    H135792   2.984   6.432   1.728 -0.7495  0.5656 -1.8998
 4719TIP3    H235793   2.979   6.288   1.773 -0.4190  1.4087  1.0534
 4720TIP3   OH235794   1.896   0.200   0.006 -0.2155  0.3404  0.1821
 4720TIP3    H135795   1.905   0.284   0.051  3.1607  0.7041 -0.8862
 4720TIP3    H235796   1.892   0.223  -0.087 -0.8496 -0.6524 -0.0512
 4721TIP3   OH235797   3.018   4.158   8.218  0.1059  0.3010  0.0041
 4721TIP3    H135798   3.043   4.243   8.182  0.3303 -0.0650 -0.7300
 4721TIP3    H235799   3.096   4.129   8.266  0.6693 -0.2578 -1.2024
 4722TIP3   OH235800   3.384   2.139   8.247  0.4263 -0.0535  1.1707
 4722TIP3    H135801   3.466   2.155   8.293  0.4046  1.6940  0.6787
 4722TIP3    H235802   3.390   2.193   8.168 -0.0684 -1.9777 -0.2855
 4723TIP3   OH235803   6.551   4.844   7.734  0.7727  0.4041 -0.1584
 4723TIP3    H135804   6.492   4.911   7.770  0.5599  1.2854 -2.0420
 4723TIP3    H235805   6.512   4.761   7.762 -0.3730  1.0152  0.1403
 4724TIP3   OH235806   0.210   1.763   0.150 -0.1138 -0.1176  0.0199
 4724TIP3    H135807   0.148   1.690   0.146  0.8609 -0.9341 -1.3549
 4724TIP3    H235808   0.261   1.747   0.230 -1.7185  0.6445  1.2394
 4725TIP3   OH235809   4.442   2.670   2.267  0.2175  0.2669 -0.6742
 4725TIP3    H135810   4.398   2.746   2.304  0.1356 -0.6236  1.1895
 4725TIP3    H235811   4.443   2.686   2.173 -2.5935  1.1058 -0.6459
 4726TIP3   OH235812   5.893   2.822   7.617  0.0407  0.2071 -0.1961
 4726TIP3    H135813   5.960   2.850   7.554 -1.1555  0.8687 -1.2082
 4726TIP3    H235814   5.834   2.897   7.624  0.3855  0.3344  2.1009
 4727TIP3   OH235815   4.956   4.039   2.113  0.2334 -0.3839 -0.2385
 4727TIP3    H135816   5.045   4.055   2.142 -0.2588  1.2850  0.4502
 4727TIP3    H235817   4.951   3.944   2.101  1.6810 -0.6485  1.0742
 4728TIP3   OH235818   2.201   6.594   1.450  0.4131 -0.1994  0.1010
 4728TIP3    H135819   2.197   6.504   1.484  0.3920 -0.0813  0.4172
 4728TIP3    H235820   2.127   6.638   1.493  1.7361  0.5654  1.7136
 4729TIP3   OH235821   6.300   5.011   1.627  0.6199 -0.1229  0.0527
 4729TIP3    H135822   6.385   5.024   1.669  1.0082  1.6639 -1.1645
 4729TIP3    H235823   6.247   5.086   1.656 -1.0132 -1.8230  1.7652
 4730TIP3   OH235824   2.454   1.455   2.905  0.1072  0.2921  0.3027
 4730TIP3    H135825   2.439   1.461   2.811 -0.8646 -0.0822  0.4258
 4730TIP3    H235826   2.385   1.396   2.937  1.1308 -0.5032  1.0852
 4731TIP3   OH235827   3.964   5.266   0.814  0.4279 -0.6506 -0.0327
 4731TIP3    H135828   3.987   5.323   0.740 -0.2269 -0.4396 -0.0812
 4731TIP3    H235829   4.045   5.256   0.863  0.4039  0.9529  0.3994
 4732TIP3   OH235830   0.977   3.481   0.834  0.2730  0.1384 -0.0739
 4732TIP3    H135831   1.017   3.424   0.900 -0.0172 -0.0251 -0.0404
 4732TIP3    H235832   0.984   3.569   0.871 -1.6942 -0.1571  1.0912
 4733TIP3   OH235833   3.014   3.884   7.517 -0.6837  0.5413 -0.3122
 4733TIP3    H135834   3.083   3.839   7.468 -1.2184  0.5739 -1.1118
 4733TIP3    H235835   2.935   3.835   7.496 -1.2962  1.8956 -1.2638
 4734TIP3   OH235836   2.589   4.328   2.137 -0.4157 -0.2675  0.1403
 4734TIP3    H135837   2.522   4.373   2.086 -1.0731 -1.3195  0.0359
 4734TIP3    H235838   2.663   4.321   2.077 -0.5903 -0.0242 -0.1103
 4735TIP3   OH235839   3.919   6.121   0.624  0.2746  0.2576 -0.3364
 4735TIP3    H135840   3.921   6.177   0.702  1.3868 -1.7239  1.1628
 4735TIP3    H235841   4.011   6.107   0.603  0.0820 -1.8367  0.0165
 4736TIP3   OH235842   4.890   0.185   7.245  0.5062 -0.0212  0.0227
 4736TIP3    H135843   4.880   0.093   7.269  0.9085  0.5739  2.7781
 4736TIP3    H235844   4.802   0.214   7.221  0.1497 -0.8056  0.3520
 4737TIP3   OH235845   5.842   6.612   1.885  0.4018 -1.3020  0.1646
 4737TIP3    H135846   5.800   6.544   1.939 -2.1897 -0.1935 -0.2935
 4737TIP3    H235847   5.792   6.611   1.803 -0.3160  1.6956  0.4670
 4738TIP3   OH235848   5.760   6.281   0.398 -0.1295  0.2270 -0.2614
 4738TIP3    H135849   5.839   6.283   0.344 -0.7720  1.0790 -1.2372
 4738TIP3    H235850   5.689   6.266   0.335 -0.8834  0.9865  0.3804
 4739TIP3   OH235851   4.474   2.842   2.022 -0.4136  0.0870  0.2384
 4739TIP3    H135852   4.529   2.919   2.007 -1.1592  1.0633  2.2141
 4739TIP3    H235853   4.386   2.872   2.000 -0.6532 -0.3411  0.6203
 4740TIP3   OH235854   0.247   1.716   2.582  0.2173 -0.8384 -0.4666
 4740TIP3    H135855   0.174   1.686   2.635  0.3364  1.4920  1.1481
 4740TIP3    H235856   0.207   1.764   2.510  0.0891  0.3844  0.3839
 4741TIP3   OH235857   4.890   1.134   7.571  0.2261 -0.1406  0.1850
 4741TIP3    H135858   4.872   1.072   7.500 -1.8950  0.8620 -0.2250
 4741TIP3    H235859   4.948   1.200   7.531  0.0718 -0.2647 -0.2487
 4742TIP3   OH235860   4.587   5.035   8.207  0.3947  0.1562 -0.5968
 4742TIP3    H135861   4.631   4.958   8.171  1.2897  1.2811 -2.0525
 4742TIP3    H235862   4.656   5.082   8.254 -0.0333  0.3092 -0.1142
 4743TIP3   OH235863   2.549   3.113   0.103  0.4262 -0.0168 -0.0951
 4743TIP3    H135864   2.458   3.085   0.117  0.6989 -1.3564 -0.8468
 4743TIP3    H235865   2.541   3.202   0.070 -0.6121 -0.0910 -0.1028
 4744TIP3   OH235866   1.590   5.788   7.636 -0.0558  0.2980  0.0564
 4744TIP3    H135867   1.680   5.799   7.604 -0.5180  1.3682 -0.9399
 4744TIP3    H235868   1.535   5.826   7.568 -1.2856 -0.4350  0.6050
 4745TIP3   OH235869   1.178   6.365   3.339  0.2639 -0.0348 -0.5560
 4745TIP3    H135870   1.201   6.353   3.431  1.7504  1.2841 -0.7149
 4745TIP3    H235871   1.154   6.457   3.331 -1.1750 -0.4267 -1.2607
 4746TIP3   OH235872   6.177   0.604   0.889  0.4269 -0.9716 -0.3635
 4746TIP3    H135873   6.161   0.665   0.961  1.5918  0.0718 -0.9367
 4746TIP3    H235874   6.269   0.579   0.899  0.2024 -1.9480 -0.6628
 4747TIP3   OH235875   4.409   2.684   8.614 -0.3809 -0.4447 -0.3567
 4747TIP3    H135876   4.415   2.778   8.631  2.2638 -0.6514  0.2557
 4747TIP3    H235877   4.345   2.677   8.543  1.5879  2.1454 -2.6209
 4748TIP3   OH235878   1.866   0.382   0.224 -0.0354  0.3437  0.3690
 4748TIP3    H135879   1.955   0.407   0.248 -0.1076  1.2236 -0.2084
 4748TIP3    H235880   1.818   0.380   0.307 -0.1121  2.5932  0.4506
 4749TIP3   OH235881   1.071   6.204   2.927  0.2479 -0.2362  0.1470
 4749TIP3    H135882   1.118   6.274   2.882  1.6451 -0.6725  0.8704
 4749TIP3    H235883   1.059   6.136   2.860  2.3618 -0.9043  0.3724
 4750TIP3   OH235884   0.201   3.784   2.884 -0.1071  0.8361 -0.5669
 4750TIP3    H135885   0.188   3.811   2.975 -1.7407 -2.2808  0.2715
 4750TIP3    H235886   0.276   3.835   2.854  0.1640  2.3399  2.3448
 4751TIP3   OH235887   5.358   3.238   2.581 -0.6022 -0.0348  0.1871
 4751TIP3    H135888   5.450   3.259   2.595 -0.8002  0.3911  0.9241
 4751TIP3    H235889   5.331   3.295   2.510 -0.2335 -0.3486 -0.2079
 4752TIP3   OH235890   1.007   3.959   0.463 -0.0389  0.4193 -0.0417
 4752TIP3    H135891   1.065   3.977   0.536  0.9598  1.0159 -0.9558
 4752TIP3    H235892   0.965   4.043   0.444  2.0720  1.1091 -2.1275
 4753TIP3   OH235893   1.578   1.565   1.304  0.4005  0.4491  0.6158
 4753TIP3    H135894   1.662   1.574   1.260  0.0314  0.6851 -0.0478
 4753TIP3    H235895   1.590   1.612   1.387  0.7376  0.9957  0.2657
 4754TIP3   OH235896   1.035   2.071   0.987  0.4383 -0.0470  0.0441
 4754TIP3    H135897   1.045   2.053   1.081  4.3045  2.0638  0.2373
 4754TIP3    H235898   1.096   2.011   0.944 -1.5646 -1.2532 -1.2886
 4755TIP3   OH235899   0.904   4.715   8.159  0.2438 -0.0901 -0.4243
 4755TIP3    H135900   0.963   4.707   8.234 -1.0301 -2.2244  0.4475
 4755TIP3    H235901   0.917   4.804   8.128  1.1197  0.7494  2.0836
 4756TIP3   OH235902   5.436   6.826   2.256  0.2504 -0.2576  0.6134
 4756TIP3    H135903   5.365   6.771   2.225  1.3773 -1.1522 -0.4431
 4756TIP3    H235904   5.514   6.791   2.214  1.0646  1.9138  0.2140
 4757TIP3   OH235905   0.655   1.668   0.936 -0.5763  0.3366 -0.0577
 4757TIP3    H135906   0.696   1.721   0.867  0.6772 -1.4008 -0.7121
 4757TIP3    H235907   0.727   1.621   0.977 -1.5843 -0.4931  0.8271
 4758TIP3   OH235908   3.551   4.515   7.473 -0.1172  0.3012 -0.4783
 4758TIP3    H135909   3.612   4.441   7.479  0.4659  0.7865 -0.2809
 4758TIP3    H235910   3.465   4.474   7.464  0.2602 -0.3994 -1.0212
 4759TIP3   OH235911   6.641   6.534   7.625 -0.5127  0.2215 -0.2044
 4759TIP3    H135912   6.643   6.552   7.719  1.6023 -0.6686 -0.0221
 4759TIP3    H235913   6.572   6.468   7.615 -0.6984  0.2503  0.7204
 4760TIP3   OH235914   4.459   6.641   0.938  0.0784 -0.0176 -0.0580
 4760TIP3    H135915   4.388   6.582   0.916 -2.5947  3.1719 -0.7954
 4760TIP3    H235916   4.465   6.701   0.864 -0.0555  2.9446  2.1284
 4761TIP3   OH235917   5.303   3.394   2.874 -0.6497  0.0347 -0.3511
 4761TIP3    H135918   5.266   3.433   2.954  0.1497 -2.5562  1.4090
 4761TIP3    H235919   5.232   3.339   2.840  0.3447 -2.4073  1.2286
 4762TIP3   OH235920   2.656   6.056   7.853  0.1071 -0.0295 -0.6075
 4762TIP3    H135921   2.714   6.043   7.778 -0.8300 -2.6196 -0.9779
 4762TIP3    H235922   2.710   6.034   7.929 -0.2294 -2.2455 -0.9394
 4763TIP3   OH235923   3.762   4.116   3.116 -0.0027  0.4078 -0.4041
 4763TIP3    H135924   3.694   4.109   3.049 -2.1811 -1.5733  1.7936
 4763TIP3    H235925   3.770   4.210   3.132 -1.3468  0.7657 -1.5901
 4764TIP3   OH235926   6.889   5.596   0.573  0.1322  0.0419 -0.6374
 4764TIP3    H135927   6.844   5.670   0.532  0.5887  0.7584  0.1323
 4764TIP3    H235928   6.835   5.573   0.648 -0.3846 -0.8783 -1.2774
 4765TIP3   OH235929   3.370   5.834   1.243 -0.2039  0.2985 -0.2226
 4765TIP3    H135930   3.450   5.792   1.275  0.2678  0.1032 -1.6205
 4765TIP3    H235931   3.399   5.889   1.171 -1.3333  0.2549 -0.7222
 4766TIP3   OH235932   4.466   5.781   2.115 -0.2138 -0.0327 -0.0365
 4766TIP3    H135933   4.524   5.706   2.125  0.8917  0.4622 -2.2145
 4766TIP3    H235934   4.523   5.857   2.128 -0.6002  0.4510 -1.0941
 4767TIP3   OH235935   3.323   4.148   7.859 -0.1840 -0.1972 -0.9632
 4767TIP3    H135936   3.341   4.054   7.867 -0.0798 -0.1430 -0.5393
 4767TIP3    H235937   3.296   4.175   7.946  0.2938  0.2723 -0.9547
 4768TIP3   OH235938   5.342   1.436   8.198 -0.4043 -0.3058  0.1584
 4768TIP3    H135939   5.431   1.411   8.174 -0.8042 -1.8660  0.2037
 4768TIP3    H235940   5.339   1.426   8.293 -0.9102 -1.2523  0.0507
 4769TIP3   OH235941   6.628   5.717   0.361 -0.2279  0.3872 -0.0370
 4769TIP3    H135942   6.714   5.741   0.326  0.1193  1.3534  1.3591
 4769TIP3    H235943   6.616   5.626   0.335  0.7154  0.5599 -1.2050
 4770TIP3   OH235944   0.365   2.725   0.816  0.0653 -0.6376  0.3314
 4770TIP3    H135945   0.398   2.751   0.730 -0.3658 -0.4662  0.2185
 4770TIP3    H235946   0.306   2.652   0.799 -1.9293  0.9050  0.1916
 4771TIP3   OH235947   6.670   4.158   7.678 -0.0178 -0.4866 -0.2601
 4771TIP3    H135948   6.636   4.214   7.747  1.3045  0.4769 -0.3638
 4771TIP3    H235949   6.688   4.074   7.722  3.1349  0.8199  1.2453
 4772TIP3   OH235950   5.814   5.792   0.505 -0.0081  0.2699  0.5304
 4772TIP3    H135951   5.855   5.870   0.467 -0.3260  0.5851  0.8356
 4772TIP3    H235952   5.878   5.759   0.567  0.0526  0.3895  0.5318
 4773TIP3   OH235953   0.365   6.328   1.692  0.1790 -0.4657 -0.6241
 4773TIP3    H135954   0.336   6.371   1.772  0.2638  4.4993 -2.8305
 4773TIP3    H235955   0.461   6.328   1.698  0.2677  1.3563 -1.1728
 4774TIP3   OH235956   1.087   6.097   2.616  0.6764  0.0204 -0.4312
 4774TIP3    H135957   1.141   6.177   2.617 -0.1677  0.6315 -1.4846
 4774TIP3    H235958   1.001   6.127   2.587  0.2858 -1.2429 -0.6159
 4775TIP3   OH235959   3.683   5.984   0.013  0.1772  0.2989  0.0603
 4775TIP3    H135960   3.638   6.065   0.036 -0.0194 -0.0473  0.9331
 4775TIP3    H235961   3.665   5.925   0.086  0.6577 -0.3980 -0.3727
 4776TIP3   OH235962   4.705   5.880   0.049  0.0049 -0.6090 -0.3578
 4776TIP3    H135963   4.623   5.882   0.000  0.3036  1.3893 -0.8526
 4776TIP3    H235964   4.685   5.921   0.133  0.2730 -1.0348 -0.0797
 4777TIP3   OH235965   2.435   1.757   8.676 -0.0085 -0.6435  0.3623
 4777TIP3    H135966   2.427   1.843   8.635  0.6997 -0.7223  0.0462
 4777TIP3    H235967   2.519   1.759   8.721 -1.0701 -0.2836  2.5012
 4778TIP3   OH235968   2.489   5.397   2.811 -0.6929  0.7073 -0.1166
 4778TIP3    H135969   2.466   5.358   2.895 -0.6209  0.9674  0.0225
 4778TIP3    H235970   2.542   5.330   2.768 -0.4988  0.6842  0.1586
 4779TIP3   OH235971   1.473   5.446   1.365 -0.3243 -0.3893 -0.1104
 4779TIP3    H135972   1.426   5.450   1.281 -0.9181 -0.4704  0.2119
 4779TIP3    H235973   1.404   5.453   1.431  0.2430  0.8565  0.3705
 4780TIP3   OH235974   5.662   1.959   0.490 -0.7407  0.0679 -0.0271
 4780TIP3    H135975   5.756   1.977   0.499 -0.4029 -1.8328  0.6998
 4780TIP3    H235976   5.646   1.961   0.396  0.9572 -3.5339 -0.5506
 4781TIP3   OH235977   5.922   4.727   7.776  0.5091  0.1774  0.2952
 4781TIP3    H135978   5.882   4.640   7.777  0.0642  0.3659  1.9835
 4781TIP3    H235979   5.902   4.764   7.863  2.1168  1.3117  0.2317
 4782TIP3   OH235980   5.576   4.622   2.082  0.7069 -0.1068 -0.1061
 4782TIP3    H135981   5.661   4.597   2.047  0.8741  1.1317 -0.6310
 4782TIP3    H235982   5.595   4.664   2.166  0.6497  0.5448 -0.4185
 4783TIP3   OH235983   5.023   6.798   0.396  0.2668 -0.1772  0.0847
 4783TIP3    H135984   4.949   6.748   0.362 -0.3509 -0.7397  2.1044
 4783TIP3    H235985   5.100   6.745   0.373  0.3253  1.1409 -3.3696
 4784TIP3   OH235986   0.437   4.234   0.710  0.1721 -0.5203  0.3229
 4784TIP3    H135987   0.361   4.267   0.663  1.1061  0.3606 -0.6282
 4784TIP3    H235988   0.430   4.139   0.705 -1.0443 -0.4569  0.5752
 4785TIP3   OH235989   6.439   1.001   0.460 -0.2524 -0.0581  0.3384
 4785TIP3    H135990   6.464   0.979   0.371 -2.1487 -2.3298  0.2455
 4785TIP3    H235991   6.356   0.954   0.473 -0.6979  1.2718  2.8538
 4786TIP3   OH235992   6.263   4.648   2.589  0.3761 -0.4440 -0.3313
 4786TIP3    H135993   6.340   4.592   2.598 -0.3028 -1.1184  1.9299
 4786TIP3    H235994   6.232   4.660   2.679 -0.4585  2.2506 -0.8853
 4787TIP3   OH235995   4.778   6.188   6.845  0.1255 -0.1477 -0.0232
 4787TIP3    H135996   4.847   6.129   6.814  0.3039 -1.2690  2.2839
 4787TIP3    H235997   4.697   6.147   6.815  0.3396 -0.5881 -0.0211
 4788TIP3   OH235998   2.825   1.515   0.541 -0.6673 -0.2270  0.4017
 4788TIP3    H135999   2.789   1.471   0.464  0.3418  0.5854 -0.5620
 4788TIP3    H236000   2.777   1.597   0.547  0.6483  0.6481 -0.6122
 4789TIP3   OH236001   2.701   0.521   7.590  0.0119  0.0530  0.4091
 4789TIP3    H136002   2.796   0.519   7.596 -0.0375 -2.1766  1.3418
 4789TIP3    H236003   2.673   0.571   7.667  0.4218 -0.2040  0.7322
 4790TIP3   OH236004   3.757   3.519   0.385 -0.1269 -0.1911  0.4521
 4790TIP3    H136005   3.776   3.606   0.420 -2.8754 -0.0920  2.0040
 4790TIP3    H236006   3.758   3.530   0.290 -0.5647  1.5634  0.6299
 4791TIP3   OH236007   6.329   0.543   3.274  0.3602  0.3197  0.2779
 4791TIP3    H136008   6.328   0.470   3.211  0.4897 -1.0952  1.8572
 4791TIP3    H236009   6.421   0.568   3.280  0.5829 -0.6067  1.0428
 4792TIP3   OH236010   5.685   6.490   1.104 -0.3068 -0.1295  0.3533
 4792TIP3    H136011   5.656   6.424   1.041  0.7113  0.1398 -0.4277
 4792TIP3    H236012   5.724   6.440   1.176 -1.8210 -0.4526  0.9717
 4793TIP3   OH236013   5.314   3.568   8.654  0.1807  0.3404 -0.2933
 4793TIP3    H136014   5.230   3.548   8.613  0.5189 -0.0381 -0.8208
 4793TIP3    H236015   5.372   3.498   8.623  0.7014  0.6347  0.0136
 4794TIP3   OH236016   1.252   5.130   1.044  0.2315 -0.5813 -0.2533
 4794TIP3    H136017   1.180   5.077   1.080  0.5475 -0.6617  0.2694
 4794TIP3    H236018   1.321   5.067   1.025  0.2556 -0.4735 -0.5279
 4795TIP3   OH236019   3.431   6.110   8.650 -0.2838 -0.3755  0.0723
 4795TIP3    H136020   3.482   6.173   8.700  0.8703 -3.0555  2.5593
 4795TIP3    H236021   3.464   6.118   8.561 -1.0340  3.2254 -0.0251
 4796TIP3   OH236022   4.680   3.854   1.398  0.1640  0.0230 -0.4449
 4796TIP3    H136023   4.670   3.933   1.453 -3.3006 -0.0611 -0.7612
 4796TIP3    H236024   4.668   3.885   1.309  0.8708 -0.5990 -0.7684
 4797TIP3   OH236025   1.280   2.343   8.039 -0.0285 -0.0241 -0.0477
 4797TIP3    H136026   1.285   2.419   7.981  0.3260  0.5985  0.7785
 4797TIP3    H236027   1.188   2.320   8.041  0.0378 -0.4774 -1.3846
 4798TIP3   OH236028   5.102   5.123   7.587  0.1995 -0.7157 -0.4024
 4798TIP3    H136029   5.011   5.134   7.616  0.2507  2.0175 -1.0384
 4798TIP3    H236030   5.098   5.050   7.525 -1.5145 -0.7540 -0.3089
 4799TIP3   OH236031   0.119   6.809   7.284 -0.2972  0.2476  0.4553
 4799TIP3    H136032   0.049   6.769   7.335  2.1213 -2.1775  2.2113
 4799TIP3    H236033   0.151   6.880   7.339 -0.6067  0.5748  0.2121
 4800TIP3   OH236034   6.667   6.105   0.549 -0.3623  0.1558 -0.2831
 4800TIP3    H136035   6.739   6.056   0.509 -0.4568  0.0808 -0.3592
 4800TIP3    H236036   6.591   6.083   0.496 -1.1650 -2.3813  1.7300
 4801TIP3   OH236037   4.446   1.542   1.651  0.5751 -0.9273  0.6620
 4801TIP3    H136038   4.476   1.575   1.566 -0.0471  1.2285  1.2172
 4801TIP3    H236039   4.491   1.598   1.715  0.5398 -2.0923  1.7406
 4802TIP3   OH236040   5.863   5.085   2.132  0.3421  0.6219 -0.6214
 4802TIP3    H136041   5.789   5.139   2.158  1.1969  0.7183  1.9167
 4802TIP3    H236042   5.838   5.049   2.047 -2.8982  0.1610  0.3723
 4803TIP3   OH236043   5.102   6.191   1.314 -0.2498 -0.2887 -0.7626
 4803TIP3    H136044   5.187   6.234   1.306 -0.6631  0.5410 -0.7507
 4803TIP3    H236045   5.056   6.241   1.381 -0.0318 -1.9343  0.6922
 4804TIP3   OH236046   6.870   2.283   8.387 -0.1341 -0.1061 -0.0680
 4804TIP3    H136047   6.802   2.330   8.338 -0.9817 -1.0150  0.1863
 4804TIP3    H236048   6.940   2.270   8.323  0.1267  1.4689 -0.1388
 4805TIP3   OH236049   4.030   1.643   2.008 -0.1485  0.4887  0.0684
 4805TIP3    H136050   3.968   1.707   2.043 -1.1294 -1.3397  1.8663
 4805TIP3    H236051   4.012   1.643   1.913  0.6148  3.5245 -0.2016
 4806TIP3   OH236052   2.208   2.281   8.679  1.0348  0.5286 -0.2036
 4806TIP3    H136053   2.266   2.209   8.702 -1.2325 -1.0432  1.0419
 4806TIP3    H236054   2.173   2.312   8.763 -1.6893 -0.2203 -0.9434
 4807TIP3   OH236055   1.391   2.418   0.211 -0.1595  0.0143  0.7710
 4807TIP3    H136056   1.433   2.432   0.296 -0.5180  2.6091  0.5776
 4807TIP3    H236057   1.418   2.493   0.158 -1.3914 -0.6303 -0.8421
 4808TIP3   OH236058   4.360   0.519   2.746 -0.4573  0.5367 -0.0106
 4808TIP3    H136059   4.452   0.504   2.723 -0.5486  0.5462 -0.3878
 4808TIP3    H236060   4.337   0.443   2.800 -0.6292 -0.2005 -1.0829
 4809TIP3   OH236061   4.417   5.170   0.801 -0.4004  0.3339 -1.2636
 4809TIP3    H136062   4.442   5.152   0.891 -1.3656 -0.1233 -1.0735
 4809TIP3    H236063   4.495   5.148   0.750  0.7887  2.3104 -0.4145
 4810TIP3   OH236064   6.279   5.821   1.053  0.6094  0.1825 -0.7079
 4810TIP3    H136065   6.207   5.779   1.099  1.8598 -1.0560  0.1879
 4810TIP3    H236066   6.339   5.749   1.030  1.7806  1.2199 -1.0324
 4811TIP3   OH236067   5.004   2.204   7.825 -0.2652  0.3877  0.5238
 4811TIP3    H136068   5.005   2.174   7.915 -2.2090  3.0599  1.5537
 4811TIP3    H236069   4.933   2.155   7.784  1.6394 -2.0063 -0.1144
 4812TIP3   OH236070   6.876   5.271   1.345  0.3739 -0.2154  0.0939
 4812TIP3    H136071   6.833   5.261   1.260  2.0899  2.0017 -1.1235
 4812TIP3    H236072   6.960   5.227   1.335  0.3094 -0.5448  0.9079
 4813TIP3   OH236073   4.036   4.466   2.175  0.2387 -0.3367 -0.2893
 4813TIP3    H136074   4.041   4.459   2.080 -0.2780 -0.1513 -0.3323
 4813TIP3    H236075   3.944   4.485   2.193  0.5368  0.7309  0.1750
 4814TIP3   OH236076   6.283   5.925   0.200 -0.3712 -0.2482  0.0524
 4814TIP3    H136077   6.194   5.899   0.224 -0.8752  1.7740  0.5102
 4814TIP3    H236078   6.276   5.958   0.110  0.1752 -1.1636 -0.3521
 4815TIP3   OH236079   6.283   6.700   0.799 -0.4427  0.4691 -0.3965
 4815TIP3    H136080   6.234   6.618   0.809 -0.9304  0.6523 -1.1582
 4815TIP3    H236081   6.218   6.763   0.767  0.8838 -0.1162 -4.8791
 4816TIP3   OH236082   3.291   1.536   0.996 -0.8257 -0.0728 -0.2328
 4816TIP3    H136083   3.387   1.537   0.990 -0.7796  1.3807  0.2283
 4816TIP3    H236084   3.262   1.568   0.910 -0.8718  0.1559 -0.1328
 4817TIP3   OH236085   1.682   2.852   2.940  0.0477 -0.0907  0.2269
 4817TIP3    H136086   1.744   2.902   2.992  1.5815 -0.3359 -1.2824
 4817TIP3    H236087   1.722   2.847   2.853 -2.7325  0.9867 -1.2583
 4818TIP3   OH236088   0.915   1.854   1.367  0.0878  0.4225 -0.4070
 4818TIP3    H136089   0.966   1.919   1.414 -0.8274 -1.0849  2.9942
 4818TIP3    H236090   0.824   1.881   1.380 -0.2126  0.3444 -2.0658
 4819TIP3   OH236091   0.745   5.636   0.985 -0.0678 -0.1403 -0.2249
 4819TIP3    H136092   0.655   5.669   0.978  0.0265  0.0109 -0.7513
 4819TIP3    H236093   0.750   5.566   0.920  0.2159 -0.1050 -0.2404
 4820TIP3   OH236094   5.483   2.680   8.013  0.4865 -0.0376  0.1963
 4820TIP3    H136095   5.540   2.735   7.959  0.4486 -0.7432 -0.5817
 4820TIP3    H236096   5.400   2.677   7.965  0.5165 -0.8355  0.1788
 4821TIP3   OH236097   0.509   1.276   2.340  0.2396 -0.3136  0.1519
 4821TIP3    H136098   0.459   1.343   2.293 -1.2837 -0.6563  1.2207
 4821TIP3    H236099   0.450   1.201   2.345  0.6294 -0.5377  1.9582
 4822TIP3   OH236100   6.867   0.856   8.088 -0.0509 -0.0194  0.2888
 4822TIP3    H136101   6.818   0.919   8.141 -0.3948 -0.8516  0.9689
 4822TIP3    H236102   6.946   0.839   8.139  0.2233  0.1502 -0.0788
 4823TIP3   OH236103   2.840   3.303   7.479  0.4710  0.2610 -0.3641
 4823TIP3    H136104   2.867   3.377   7.533 -1.2922 -0.2457  1.3247
 4823TIP3    H236105   2.796   3.342   7.404  0.1650  0.9577  0.1652
 4824TIP3   OH236106   5.037   4.514   8.186 -0.0744  0.0944  0.0234
 4824TIP3    H136107   5.010   4.521   8.095 -0.9302 -1.3222  0.1393
 4824TIP3    H236108   5.128   4.484   8.182 -0.4707 -1.1398 -0.3986
 4825TIP3   OH236109   3.986   1.639   1.691  0.1527 -0.3138 -0.3319
 4825TIP3    H136110   3.929   1.568   1.720  0.1180  0.0398  0.4872
 4825TIP3    H236111   3.989   1.630   1.596  0.3015 -1.5303 -0.2334
 4826TIP3   OH236112   3.607   0.196   1.203 -0.5615  0.1623 -0.1249
 4826TIP3    H136113   3.524   0.230   1.236 -0.3676  1.1137 -0.6037
 4826TIP3    H236114   3.668   0.269   1.210 -0.2755  0.0975 -1.6981
 4827TIP3   OH236115   6.659   4.309   0.147  0.5024  0.3916  0.2096
 4827TIP3    H136116   6.601   4.253   0.198 -0.1974  0.4600 -0.4970
 4827TIP3    H236117   6.747   4.271   0.161  0.4973  0.9975  2.2420
 4828TIP3   OH236118   5.945   4.236   0.292 -0.0951  0.2036 -0.4445
 4828TIP3    H136119   6.038   4.254   0.279 -0.0148  1.5596  1.6034
 4828TIP3    H236120   5.902   4.321   0.286 -0.7984  0.0392  1.5545
 4829TIP3   OH236121   1.972   6.114   1.887 -0.3438 -0.3852  0.0522
 4829TIP3    H136122   1.953   6.203   1.857  0.7033 -0.2341 -0.2076
 4829TIP3    H236123   1.889   6.082   1.922 -0.7509  0.6709  0.0843
 4830TIP3   OH236124   5.433   1.005   1.873 -0.3927 -0.2548  0.0510
 4830TIP3    H136125   5.461   0.924   1.831  1.1038  0.7968 -1.0758
 4830TIP3    H236126   5.362   1.037   1.817 -1.3144 -0.9887  0.7643
 4831TIP3   OH236127   2.274   6.720   7.264  0.1015 -1.0581 -0.1825
 4831TIP3    H136128   2.248   6.812   7.275  0.4390 -0.8392 -1.0565
 4831TIP3    H236129   2.351   6.710   7.320  0.2226 -0.7249 -0.2863
 4832TIP3   OH236130   4.055   4.331   1.934 -0.4819  0.0778 -0.0322
 4832TIP3    H136131   4.109   4.334   1.855  0.6624 -2.4122  0.5259
 4832TIP3    H236132   3.980   4.386   1.915  1.6881  2.8441 -1.2801
 4833TIP3   OH236133   1.766   0.390   1.077 -0.1382 -0.2488  0.1952
 4833TIP3    H136134   1.681   0.428   1.097  0.3036 -0.2342  2.3761
 4833TIP3    H236135   1.749   0.297   1.063 -0.3987 -0.5134  2.0225
 4834TIP3   OH236136   5.887   2.670   0.556  0.3980  0.0817  0.1717
 4834TIP3    H136137   5.980   2.648   0.543  0.8464  1.5574  0.5960
 4834TIP3    H236138   5.887   2.766   0.565 -1.3094  0.2210 -0.9164
 4835TIP3   OH236139   5.449   3.958   1.424 -0.1661 -0.1934  0.2863
 4835TIP3    H136140   5.454   4.052   1.405 -0.9380 -0.0148  0.9469
 4835TIP3    H236141   5.407   3.920   1.346  0.1592 -0.0038  0.0123
 4836TIP3   OH236142   0.002   6.043   0.428 -0.3184 -0.4800  0.0776
 4836TIP3    H136143   0.081   6.030   0.481 -0.2020 -0.1166 -0.0004
 4836TIP3    H236144   0.005   5.973   0.363  0.6729  0.3235 -0.7822
 4837TIP3   OH236145   5.438   2.753   1.352  0.3411 -0.3731  0.1312
 4837TIP3    H136146   5.430   2.736   1.446  1.0134 -0.3058  0.2027
 4837TIP3    H236147   5.347   2.757   1.321  0.1072  0.0986  0.8600
 4838TIP3   OH236148   2.963   3.400   0.424 -0.4655  0.6567  0.4165
 4838TIP3    H136149   3.010   3.419   0.505 -1.0977 -0.6570  1.1264
 4838TIP3    H236150   2.968   3.304   0.415 -0.0709  0.8042 -1.3081
 4839TIP3   OH236151   4.990   0.119   8.514 -0.2497 -0.1023 -0.1997
 4839TIP3    H136152   4.994   0.206   8.476  0.1663 -1.0052 -2.3784
 4839TIP3    H236153   4.987   0.134   8.608  0.1179  2.2387 -0.5018
 4840TIP3   OH236154   0.344   3.716   1.318 -0.0828 -0.0631 -0.1130
 4840TIP3    H136155   0.267   3.678   1.361  1.6563 -2.7815  0.8508
 4840TIP3    H236156   0.398   3.748   1.390  0.4519  0.2894 -0.6653
 4841TIP3   OH236157   4.593   2.622   0.309 -0.0914 -0.3830 -0.0246
 4841TIP3    H136158   4.526   2.555   0.297 -0.1599 -0.4132  0.5115
 4841TIP3    H236159   4.594   2.670   0.226 -0.9979 -0.1794  0.0723
 4842TIP3   OH236160   5.587   4.977   8.579 -0.1836  0.3418  0.1337
 4842TIP3    H136161   5.667   5.023   8.604  0.2121 -0.6895  0.7946
 4842TIP3    H236162   5.525   5.048   8.557  0.5832  1.1724  0.5864
 4843TIP3   OH236163   6.249   3.092   7.656  0.1262  0.0443 -0.3420
 4843TIP3    H136164   6.340   3.087   7.683  0.0479  0.2037 -0.0412
 4843TIP3    H236165   6.249   3.156   7.585 -0.0275  1.5726  0.9584
 4844TIP3   OH236166   1.514   0.319   0.558  0.3165  0.0681 -0.0034
 4844TIP3    H136167   1.471   0.347   0.639  1.3506  1.8111  0.0150
 4844TIP3    H236168   1.540   0.229   0.574 -0.1424  0.1503  1.3456
 4845TIP3   OH236169   5.802   5.431   8.067 -0.1795 -0.4402 -0.3792
 4845TIP3    H136170   5.711   5.443   8.094  0.1762 -1.4754  1.4366
 4845TIP3    H236171   5.843   5.517   8.082 -0.6512 -0.2203 -0.3405
 4846TIP3   OH236172   4.061   6.819   0.974 -0.3141 -0.0977  0.4642
 4846TIP3    H136173   3.993   6.762   0.938 -0.7489  1.9443 -2.2488
 4846TIP3    H236174   4.015   6.899   0.998  0.5778 -0.1066  2.4246
 4847TIP3   OH236175   4.626   5.816   7.410 -0.1671  0.4673 -0.1291
 4847TIP3    H136176   4.657   5.843   7.323  1.8314  0.2050  0.4525
 4847TIP3    H236177   4.535   5.792   7.396  0.5520 -1.2701 -2.5509
 4848TIP3   OH236178   5.618   6.565   2.795  0.9165  0.5906 -0.0363
 4848TIP3    H136179   5.658   6.484   2.827  0.5800  0.2391 -0.5006
 4848TIP3    H236180   5.684   6.632   2.811  1.4497  0.1192 -0.2211
 4849TIP3   OH236181   4.564   0.459   8.453 -0.6546  0.0753 -0.3057
 4849TIP3    H136182   4.587   0.415   8.535  0.6401  0.7951 -0.2707
 4849TIP3    H236183   4.493   0.519   8.477 -0.4493  0.0996  0.2458
 4850TIP3   OH236184   3.911   4.791   0.929  0.1124  0.5951 -0.2122
 4850TIP3    H136185   3.922   4.777   0.835  0.0291  0.7048 -0.2388
 4850TIP3    H236186   3.933   4.707   0.969 -1.2786  0.1034 -0.4296
 4851TIP3   OH236187   4.159   6.205   7.572  0.3360  0.0082 -0.2922
 4851TIP3    H136188   4.167   6.272   7.640  0.8679  0.1329 -0.4656
 4851TIP3    H236189   4.249   6.191   7.542  0.1263 -0.1391 -0.8750
 4852TIP3   OH236190   2.743   4.630   8.425  0.2394  0.1296  0.5257
 4852TIP3    H136191   2.760   4.660   8.514 -0.9102  0.9924  0.4774
 4852TIP3    H236192   2.761   4.707   8.370  0.7903 -0.3515  0.0137
 4853TIP3   OH236193   1.064   1.651   8.640 -0.5324 -0.3039 -0.0265
 4853TIP3    H136194   0.972   1.678   8.638 -0.3919  0.2406  0.4959
 4853TIP3    H236195   1.108   1.723   8.685  0.3953  0.1546 -1.6002
 4854TIP3   OH236196   0.974   5.581   1.832 -0.0290 -0.3304  0.2719
 4854TIP3    H136197   0.940   5.510   1.885  0.3556 -0.6210  0.1369
 4854TIP3    H236198   1.037   5.626   1.890  2.4622 -2.2773 -0.7216
 4855TIP3   OH236199   5.890   4.512   0.175  0.2001  0.1371 -0.1250
 4855TIP3    H136200   5.807   4.538   0.135 -0.0745 -1.1671 -0.4622
 4855TIP3    H236201   5.956   4.527   0.106  0.1353  0.4700 -0.1151
 4856TIP3   OH236202   1.382   6.375   2.359  0.0105 -0.2946  0.8273
 4856TIP3    H136203   1.442   6.391   2.431 -0.0484  0.8846  0.6329
 4856TIP3    H236204   1.429   6.407   2.281 -0.4880 -0.2361  0.5453
 4857TIP3   OH236205   5.881   3.538   7.562  0.1288  0.1611  0.3144
 4857TIP3    H136206   5.968   3.570   7.586  0.6225 -0.9949  0.1017
 4857TIP3    H236207   5.873   3.559   7.469  0.7697 -0.9997 -0.0175
 4858TIP3   OH236208   6.105   4.057   1.744  0.4230 -0.0895  0.3749
 4858TIP3    H136209   6.023   4.071   1.696  1.1940  1.5522 -0.5476
 4858TIP3    H236210   6.164   4.018   1.679  0.8659  0.2589  0.5628
 4859TIP3   OH236211   3.030   1.879   8.247  0.2315 -0.4063  0.0010
 4859TIP3    H136212   3.049   1.874   8.341  0.9657 -1.1201 -0.1701
 4859TIP3    H236213   3.051   1.969   8.223 -0.6460 -0.0200  0.6605
 4860TIP3   OH236214   0.959   2.209   0.314  0.1331  0.1131  0.7478
 4860TIP3    H136215   0.975   2.115   0.304 -0.2446  0.1488 -0.4078
 4860TIP3    H236216   0.865   2.219   0.298  0.5259  0.9279 -1.5377
 4861TIP3   OH236217   0.034   3.458   1.170  0.0079 -0.3889 -0.3230
 4861TIP3    H136218   0.084   3.383   1.201  0.7040 -0.3032 -1.2018
 4861TIP3    H236219   0.018   3.440   1.077  1.7139  1.3148 -1.0288
 4862TIP3   OH236220   0.846   5.412   0.559  0.2050  0.2496  0.4394
 4862TIP3    H136221   0.799   5.416   0.476  1.1938  1.6262 -0.0858
 4862TIP3    H236222   0.936   5.390   0.534  0.2816 -0.3905  1.2514
 4863TIP3   OH236223   3.476   1.210   1.299  0.2277 -0.9490 -0.3235
 4863TIP3    H136224   3.386   1.179   1.298  0.2509 -1.1786  1.6435
 4863TIP3    H236225   3.529   1.131   1.288  0.2071 -1.1361  0.7902
 4864TIP3   OH236226   0.851   3.441   0.114  0.0010 -0.3773 -0.0763
 4864TIP3    H136227   0.786   3.477   0.054 -2.2409 -1.2476  1.7136
 4864TIP3    H236228   0.872   3.355   0.077 -0.4638 -0.4238 -0.2431
 4865TIP3   OH236229   0.031   0.629   1.261 -0.2377  0.4976 -0.4042
 4865TIP3    H136230   0.016   0.707   1.313 -0.0620  0.8005 -0.8078
 4865TIP3    H236231   0.075   0.660   1.181  0.8336 -0.1252 -0.0891
 4866TIP3   OH236232   1.443   1.601   2.107  0.2524  0.4176 -0.3860
 4866TIP3    H136233   1.509   1.612   2.175  1.9789 -2.2970 -1.4376
 4866TIP3    H236234   1.368   1.563   2.152  0.6458  0.4555  0.3190
 4867TIP3   OH236235   4.082   2.173   2.327 -0.3232 -0.5028  0.5534
 4867TIP3    H136236   4.070   2.268   2.328 -0.6959 -0.5488  0.6462
 4867TIP3    H236237   3.996   2.139   2.302 -0.0511 -0.7929 -0.0048
 4868TIP3   OH236238   5.246   6.499   1.379  0.7661  0.2344  0.5213
 4868TIP3    H136239   5.161   6.544   1.382  0.7939  0.3281  0.0527
 4868TIP3    H236240   5.274   6.508   1.288 -0.2447 -2.6393 -0.1675
 4869TIP3   OH236241   6.316   2.067   8.555  0.1514  0.5087  0.4498
 4869TIP3    H136242   6.260   2.134   8.516  1.0414  1.6329  1.0258
 4869TIP3    H236243   6.363   2.113   8.625  1.7136 -0.3928  0.0428
 4870TIP3   OH236244   6.834   1.063   7.711  0.4940 -0.0268  0.2746
 4870TIP3    H136245   6.874   0.976   7.707 -2.1122 -1.3143 -0.2547
 4870TIP3    H236246   6.776   1.065   7.634  0.5368  2.2358  0.2431
 4871TIP3   OH236247   0.336   3.466   1.520  0.4425 -0.2062  0.1466
 4871TIP3    H136248   0.335   3.377   1.485  0.4947 -0.7997  1.5964
 4871TIP3    H236249   0.244   3.490   1.527  0.4419  0.3029 -1.2785
 4872TIP3   OH236250   4.858   3.398   1.437 -0.0034 -0.2080  0.0138
 4872TIP3    H136251   4.909   3.385   1.517 -0.0300 -0.7152 -0.0519
 4872TIP3    H236252   4.804   3.476   1.455  1.7905  1.1950 -0.4217
 4873TIP3   OH236253   3.826   6.418   0.221 -0.3419 -0.0685  0.5325
 4873TIP3    H136254   3.834   6.334   0.267  1.9447 -0.7221 -0.8691
 4873TIP3    H236255   3.916   6.450   0.215 -1.1047  2.2181  0.5011
 4874TIP3   OH236256   2.011   3.507   1.807  0.2867  0.1404 -0.2074
 4874TIP3    H136257   1.966   3.580   1.849 -1.2498 -0.0218 -1.4786
 4874TIP3    H236258   2.032   3.538   1.719 -0.7498 -1.0598 -0.9050
 4875TIP3   OH236259   2.704   3.474   0.614 -0.2474 -0.0077 -0.0356
 4875TIP3    H136260   2.756   3.489   0.693 -1.8868  1.6288  0.7835
 4875TIP3    H236261   2.732   3.543   0.554 -0.5610  0.0845 -0.0754
 4876TIP3   OH236262   5.110   6.539   3.373  0.5520 -0.6305  0.7634
 4876TIP3    H136263   5.099   6.627   3.339 -0.9111 -0.6589  1.0823
 4876TIP3    H236264   5.194   6.540   3.417  1.1969  0.1971 -0.4387
 4877TIP3   OH236265   0.903   1.607   2.053  0.0239 -0.1146 -0.4997
 4877TIP3    H136266   0.834   1.638   1.995  0.0870  0.6972 -0.1513
 4877TIP3    H236267   0.967   1.567   1.995  0.2009  0.9038 -1.0240
 4878TIP3   OH236268   3.046   1.578   8.400 -0.3569 -0.4183 -0.7359
 4878TIP3    H136269   3.053   1.596   8.306 -2.5103  1.3640 -0.6240
 4878TIP3    H236270   2.966   1.526   8.409  1.9070 -4.2255 -0.2025
 4879TIP3   OH236271   0.909   3.896   0.009  0.2416 -0.2926  0.4098
 4879TIP3    H136272   0.860   3.862   0.084 -0.8553  1.2793  0.4457
 4879TIP3    H236273   0.845   3.947  -0.041  1.3456  0.0460 -0.7131
 4880TIP3   OH236274   2.559   0.304   7.806 -0.1743  0.0552  0.0359
 4880TIP3    H136275   2.531   0.287   7.717 -1.4075 -0.9507  0.5904
 4880TIP3    H236276   2.528   0.392   7.825 -1.3861 -0.3464  0.0099
 4881TIP3   OH236277   0.064   0.095   3.043  0.2902  0.0847 -0.6609
 4881TIP3    H136278  -0.008   0.040   3.075 -1.4768  2.3006 -0.6388
 4881TIP3    H236279   0.121   0.105   3.119 -0.4187 -0.0703 -0.0959
 4882TIP3   OH236280   6.352   1.039   8.212 -0.2789 -0.5717 -0.3328
 4882TIP3    H136281   6.352   0.984   8.133  0.0421 -0.4014 -0.4532
 4882TIP3    H236282   6.307   0.986   8.278 -3.2550  0.4378 -1.3997
 4883TIP3   OH236283   1.431   6.727   2.885  0.6215 -0.1515 -0.1623
 4883TIP3    H136284   1.363   6.662   2.905  1.5671 -0.9586  0.5393
 4883TIP3    H236285   1.505   6.675   2.854  2.0292  0.3824  2.0917
 4884TIP3   OH236286   1.942   6.757   1.203 -0.2211 -0.1197  0.2501
 4884TIP3    H136287   1.920   6.739   1.111 -0.3121  2.5494 -0.3199
 4884TIP3    H236288   1.926   6.674   1.248  1.7067 -2.1216 -2.4246
 4885TIP3   OH236289   4.588   6.512   8.159  1.1972  0.3842  0.3207
 4885TIP3    H136290   4.589   6.561   8.077 -1.4104 -0.3241 -0.2178
 4885TIP3    H236291   4.506   6.537   8.201  1.5232 -0.8119  1.7364
 4886TIP3   OH236292   6.487   4.761   1.210  0.6474  0.2308 -0.6692
 4886TIP3    H136293   6.455   4.714   1.133 -0.3267 -2.0854  1.0065
 4886TIP3    H236294   6.580   4.738   1.216  0.6565  0.1868 -0.9972
 4887TIP3   OH236295   2.522   0.479   0.815 -0.3724 -0.1529  0.0492
 4887TIP3    H136296   2.458   0.481   0.886 -1.6051 -2.0969 -0.9198
 4887TIP3    H236297   2.605   0.458   0.857 -0.9204 -0.3919  1.0311
 4888TIP3   OH236298   2.773   4.644   1.569 -0.2526  0.0671  0.2330
 4888TIP3    H136299   2.712   4.622   1.498  0.1452  0.1850 -0.1518
 4888TIP3    H236300   2.852   4.594   1.549 -0.1553  0.0652  0.6223
 4889TIP3   OH236301   1.506   5.726   1.746 -0.3705 -0.6222  0.4093
 4889TIP3    H136302   1.590   5.730   1.791 -1.0063 -2.7069  1.9642
 4889TIP3    H236303   1.527   5.734   1.653  1.0970  2.8826  0.8949
 4890TIP3   OH236304   6.546   1.912   8.647  0.5551  0.4858 -0.5252
 4890TIP3    H136305   6.475   1.849   8.636  1.5041 -0.5200 -1.1095
 4890TIP3    H236306   6.516   1.991   8.603  0.6910 -0.6474 -2.7818
 4891TIP3   OH236307   1.063   6.017   8.390 -0.4753  0.0152 -0.3345
 4891TIP3    H136308   1.131   6.016   8.323  1.1084  0.9833  1.1836
 4891TIP3    H236309   1.078   6.098   8.438 -0.7749 -1.2216  1.9577
 4892TIP3   OH236310   4.972   3.458   7.632  0.4345 -0.0679 -0.1133
 4892TIP3    H136311   5.054   3.425   7.670  0.8128  1.0328  0.0835
 4892TIP3    H236312   4.996   3.544   7.596 -0.0688 -0.7846 -2.2949
 4893TIP3   OH236313   5.678   1.220   7.243  0.3477  0.5229  0.3062
 4893TIP3    H136314   5.663   1.201   7.151 -0.9588  1.2436  0.3408
 4893TIP3    H236315   5.772   1.237   7.250  1.0272 -2.3326 -0.3346
 4894TIP3   OH236316   3.826   4.186   8.234 -0.2716 -0.2518 -0.3922
 4894TIP3    H136317   3.899   4.234   8.194  0.2953 -2.7181 -2.6750
 4894TIP3    H236318   3.868   4.122   8.291 -0.8964  0.5571  1.0159
 4895TIP3   OH236319   1.615   6.798   0.407  0.3354  0.7199  0.6153
 4895TIP3    H136320   1.650   6.879   0.371 -1.3577  0.6855 -1.2728
 4895TIP3    H236321   1.527   6.791   0.370 -0.4511 -0.8214  2.5758
 4896TIP3   OH236322   1.509   6.166   3.162 -0.1635  0.3921 -0.1037
 4896TIP3    H136323   1.424   6.177   3.205  0.5800  1.8082  1.0995
 4896TIP3    H236324   1.566   6.133   3.231  0.1764 -1.0299 -1.0326
 4897TIP3   OH236325   2.524   0.635   3.074  0.1545  0.1185  0.5290
 4897TIP3    H136326   2.439   0.621   3.032  0.1162  0.0913  0.6153
 4897TIP3    H236327   2.579   0.672   3.005  0.1999 -0.2786  0.3534
 4898TIP3   OH236328   4.617   6.420   0.472 -0.3577  0.6090 -0.4505
 4898TIP3    H136329   4.679   6.472   0.421 -1.0079  1.4843 -0.3863
 4898TIP3    H236330   4.664   6.400   0.553 -0.7448  2.8809  0.4177
 4899TIP3   OH236331   0.853   3.584   1.289 -0.3779  0.2121  0.6347
 4899TIP3    H136332   0.813   3.671   1.299  1.0941  0.7277  2.9982
 4899TIP3    H236333   0.856   3.550   1.378  0.4076 -1.6621 -0.0723
 4900TIP3   OH236334   6.775   4.312   0.520 -0.1409  0.1248 -0.0376
 4900TIP3    H136335   6.749   4.253   0.450 -0.1018  1.7769 -1.5197
 4900TIP3    H236336   6.780   4.398   0.478  0.9040  1.0031  1.7661
 4901TIP3   OH236337   5.603   5.508   2.808  0.1817  0.3277 -0.2602
 4901TIP3    H136338   5.687   5.471   2.782  0.4049  0.0080  0.8394
 4901TIP3    H236339   5.607   5.509   2.904 -1.1862  0.0086 -0.1855
 4902TIP3   OH236340   5.046   5.794   2.490 -0.3660 -0.2236 -0.6414
 4902TIP3    H136341   5.131   5.789   2.446 -1.1309  0.1301 -2.2566
 4902TIP3    H236342   5.000   5.864   2.445 -1.2619  0.0864  0.6955
 4903TIP3   OH236343   2.670   5.326   2.009  0.1472  0.4482  0.7070
 4903TIP3    H136344   2.696   5.243   1.970  1.3106  0.2668  1.7952
 4903TIP3    H236345   2.753   5.368   2.034 -0.4370  1.6978  0.6682
 4904TIP3   OH236346   1.181   3.056   2.821  0.8397  0.0279  0.2177
 4904TIP3    H136347   1.150   3.044   2.911  0.3531 -0.4845 -0.0135
 4904TIP3    H236348   1.168   3.149   2.803 -0.1210 -0.0851  0.2920
 4905TIP3   OH236349   4.202   6.171   0.056  0.6523  0.3018  0.1646
 4905TIP3    H136350   4.206   6.224   0.136 -1.7589  1.1586 -0.2168
 4905TIP3    H236351   4.123   6.118   0.065  1.4713 -1.1484 -0.7512
 4906TIP3   OH236352   1.812   2.750   0.478 -0.2591 -0.1711  0.3761
 4906TIP3    H136353   1.783   2.660   0.467 -1.0433 -0.0567  1.3209
 4906TIP3    H236354   1.734   2.796   0.510 -0.2986  1.1614 -1.4465
 4907TIP3   OH236355   1.827   4.990   7.142  0.4396 -0.5580  0.3939
 4907TIP3    H136356   1.806   4.901   7.111  0.7971 -0.1612 -1.0551
 4907TIP3    H236357   1.921   4.998   7.130  0.6753 -0.5337  2.0736
 4908TIP3   OH236358   5.265   3.927   7.804  0.2721 -0.4162  0.0518
 4908TIP3    H136359   5.273   4.020   7.786  2.7073 -0.2067  1.8165
 4908TIP3    H236360   5.328   3.886   7.744  0.9081 -0.6719  0.8783
 4909TIP3   OH236361   5.556   4.230   1.433 -0.8852 -0.0474  0.0746
 4909TIP3    H136362   5.522   4.220   1.522 -1.2876  0.8609  0.0315
 4909TIP3    H236363   5.646   4.198   1.438 -0.6369  0.7541  1.0094
 4910TIP3   OH236364   3.695   4.966   7.691  0.3252  1.0230  0.1353
 4910TIP3    H136365   3.682   4.910   7.614 -0.7006 -2.7893  2.7800
 4910TIP3    H236366   3.607   5.000   7.711 -0.1392 -0.8481  1.4881
 4911TIP3   OH236367   4.771   6.724   3.561 -0.0827  0.1997  0.3273
 4911TIP3    H136368   4.791   6.798   3.503 -0.7936  1.8864  2.1059
 4911TIP3    H236369   4.678   6.733   3.579 -0.4184 -1.7817 -0.1955
 4912TIP3   OH236370   0.852   5.974   1.451  0.6269 -0.0774 -0.2112
 4912TIP3    H136371   0.778   6.011   1.500  1.8324 -0.3760  1.9581
 4912TIP3    H236372   0.823   5.886   1.428 -0.1678  0.2482 -0.4953
 4913TIP3   OH236373   0.414   5.641   0.977  0.2038  0.1982  0.0065
 4913TIP3    H136374   0.336   5.643   0.921 -0.1911  0.9294  0.5754
 4913TIP3    H236375   0.437   5.733   0.988  1.1088 -0.0143 -0.0944
 4914TIP3   OH236376   4.127   3.841   2.710  0.5669 -0.6386 -0.5829
 4914TIP3    H136377   4.185   3.917   2.701 -1.5982  0.9870 -1.8862
 4914TIP3    H236378   4.098   3.845   2.802  0.0660  0.4659 -0.7698
 4915TIP3   OH236379   2.082   0.192   0.536  0.5178 -0.3556 -0.3212
 4915TIP3    H136380   2.169   0.159   0.555  0.5716  0.9941  2.4455
 4915TIP3    H236381   2.041   0.202   0.623 -1.1312  2.2133 -1.2676
 4916TIP3   OH236382   4.218   0.099   7.805 -0.1161  0.0529  0.2270
 4916TIP3    H136383   4.207   0.112   7.711  0.3251 -0.2376  0.1326
 4916TIP3    H236384   4.191   0.009   7.821  2.0613 -0.7085 -0.0245
 4917TIP3   OH236385   3.254   1.555   1.549 -0.0342 -0.4945  0.6079
 4917TIP3    H136386   3.313   1.519   1.483  2.1335  0.7024  1.7453
 4917TIP3    H236387   3.186   1.600   1.500  0.9418 -0.5063 -0.7992
 4918TIP3   OH236388   3.021   1.713   3.202  0.1317  0.2564 -0.8704
 4918TIP3    H136389   3.022   1.801   3.164 -0.6496  0.2102 -1.0223
 4918TIP3    H236390   3.097   1.670   3.164 -0.1076  0.5149 -1.6781
 4919TIP3   OH236391   0.022   0.014   0.632 -0.4829 -0.2445  0.0962
 4919TIP3    H136392  -0.019  -0.069   0.658  0.6314 -1.2593 -1.2467
 4919TIP3    H236393  -0.039   0.052   0.569 -0.7605 -0.2862  0.3356
 4920TIP3   OH236394   3.831   1.370   1.033  0.3233  0.1631 -0.0619
 4920TIP3    H136395   3.906   1.357   1.091  1.5357  3.5598 -0.6307
 4920TIP3    H236396   3.856   1.327   0.951  0.5310 -0.8688  0.5330
 4921TIP3   OH236397   0.478   3.131   8.108  0.0377 -0.1438  0.5300
 4921TIP3    H136398   0.535   3.083   8.048  1.0129  1.1382  0.3875
 4921TIP3    H236399   0.484   3.222   8.080  0.0370  0.4037  2.1713
 4922TIP3   OH236400   3.145   3.389   1.002  0.1681 -0.3775 -0.0997
 4922TIP3    H136401   3.206   3.315   1.003  0.0893 -0.4393  0.1861
 4922TIP3    H236402   3.194   3.460   1.043  0.3415 -0.1870 -0.6153
 4923TIP3   OH236403   3.872   2.016   1.838 -0.2314 -0.0640  0.9030
 4923TIP3    H136404   3.828   1.933   1.821  2.5665 -1.7465  1.3226
 4923TIP3    H236405   3.803   2.074   1.870 -2.8155 -1.2941 -1.9902
 4924TIP3   OH236406   3.439   2.349   0.739 -0.0395  0.2304  0.0221
 4924TIP3    H136407   3.450   2.327   0.831 -0.8567  0.7566  0.2547
 4924TIP3    H236408   3.503   2.419   0.723 -0.7031  0.9631  0.5022
 4925TIP3   OH236409   4.355   2.437   0.215 -0.0810 -0.1634  0.4653
 4925TIP3    H136410   4.376   2.349   0.247 -1.7973  0.2351  2.9459
 4925TIP3    H236411   4.259   2.441   0.216 -0.0715  1.3029 -0.8894
 4926TIP3   OH236412   1.767   6.356   0.888  0.2899  0.0171  0.2430
 4926TIP3    H136413   1.800   6.407   0.814 -1.3428  1.4277  0.4176
 4926TIP3    H236414   1.838   6.355   0.951  0.4444  1.9520  0.1451
 4927TIP3   OH236415   0.243   5.121   8.349 -0.0761 -0.0933 -0.1408
 4927TIP3    H136416   0.200   5.157   8.271  0.9300  0.4056 -0.4717
 4927TIP3    H236417   0.230   5.026   8.342 -0.9054  0.0270 -0.3548
 4928TIP3   OH236418   2.689   1.457   0.040 -0.0795 -0.0693  0.1216
 4928TIP3    H136419   2.723   1.390  -0.019  0.4434 -0.8251  1.2569
 4928TIP3    H236420   2.738   1.536   0.016 -1.1429  0.1041 -1.6459
 4929TIP3   OH236421   5.193   0.941   7.774  0.4095 -0.8106 -0.1080
 4929TIP3    H136422   5.100   0.949   7.796  0.1043 -0.2186 -1.5598
 4929TIP3    H236423   5.195   0.934   7.679  2.0027  1.8166 -0.3503
 4930TIP3   OH236424   5.180   2.817   7.560 -0.2690 -0.4981  0.5899
 4930TIP3    H136425   5.226   2.763   7.496 -0.1475  0.3775 -0.0759
 4930TIP3    H236426   5.141   2.888   7.509 -2.6891 -1.3894  1.0717
 4931TIP3   OH236427   6.041   6.174   7.993 -0.3152  0.6314 -0.2167
 4931TIP3    H136428   6.031   6.230   8.070 -0.6404  0.0193  0.1907
 4931TIP3    H236429   5.959   6.125   7.988  0.2738 -0.4077 -0.0751
 4932TIP3   OH236430   4.573   6.754   2.197  0.2183 -0.0125 -0.0083
 4932TIP3    H136431   4.484   6.725   2.174  0.9185 -2.6564  0.2695
 4932TIP3    H236432   4.598   6.814   2.126 -1.3072 -0.2425 -0.7813
 4933TIP3   OH236433   1.811   4.653   8.678  0.0121  0.4263  0.3425
 4933TIP3    H136434   1.751   4.709   8.629 -0.4845  0.2018  0.6801
 4933TIP3    H236435   1.767   4.568   8.681  0.7987 -0.0127 -0.2448
 4934TIP3   OH236436   1.228   0.942   1.576 -0.2107  0.3823 -0.0980
 4934TIP3    H136437   1.182   1.026   1.570  1.1528  1.0833 -1.5965
 4934TIP3    H236438   1.220   0.905   1.488  1.4857  0.2377 -0.2166
 4935TIP3   OH236439   1.087   4.198   8.429  0.0963 -0.3880 -0.1132
 4935TIP3    H136440   1.166   4.201   8.376 -1.1886 -0.6990 -2.1547
 4935TIP3    H236441   1.055   4.108   8.419 -0.4499 -0.3072  0.8010
 4936TIP3   OH236442   6.318   1.608   2.900 -0.3183  0.2623 -0.1418
 4936TIP3    H136443   6.264   1.682   2.926 -0.8921  0.2430 -1.2096
 4936TIP3    H236444   6.294   1.537   2.960 -2.1637 -0.0206 -1.1441
 4937TIP3   OH236445   5.823   6.032   2.589  0.2476 -0.3447  0.0834
 4937TIP3    H136446   5.863   6.008   2.672 -0.1774 -1.5961 -0.0376
 4937TIP3    H236447   5.853   6.121   2.571  2.3414 -0.9551  0.3494
 4938TIP3   OH236448   3.071   1.651   1.375 -0.0949 -0.0276  0.8185
 4938TIP3    H136449   3.001   1.703   1.335  1.4203  1.1198 -0.4620
 4938TIP3    H236450   3.047   1.560   1.356 -1.1589  0.3375  0.2966
 4939TIP3   OH236451   3.168   0.902   8.619 -0.1842 -0.6116  1.1235
 4939TIP3    H136452   3.080   0.884   8.654  0.1133 -1.6923  1.3365
 4939TIP3    H236453   3.207   0.963   8.681 -2.0355  2.8161 -0.7732
 4940TIP3   OH236454   6.232   4.513   8.445 -0.5574 -0.1759 -0.0705
 4940TIP3    H136455   6.239   4.420   8.426 -2.4070 -0.5588  0.7831
 4940TIP3    H236456   6.269   4.557   8.369  0.6138 -1.5889 -0.3609
 4941TIP3   OH236457   5.174   5.362   1.068 -0.2007 -0.0620  0.1052
 4941TIP3    H136458   5.147   5.352   0.977  0.1143 -0.1790  0.0246
 4941TIP3    H236459   5.249   5.421   1.065 -0.6673  0.5628  0.3668
 4942TIP3   OH236460   3.823   0.556   8.443  0.0963 -0.1296 -0.5488
 4942TIP3    H136461   3.853   0.479   8.394  1.0229 -0.0390 -0.1355
 4942TIP3    H236462   3.903   0.600   8.470 -0.4276  1.0438 -0.8596
 4943TIP3   OH236463   0.095   1.178   8.022 -0.1701 -0.0217 -0.2605
 4943TIP3    H136464   0.136   1.214   7.944 -1.0072 -0.9325 -1.1449
 4943TIP3    H236465   0.005   1.159   7.996  0.2550 -2.9259  0.0568
 4944TIP3   OH236466   6.052   5.131   2.458  0.2244 -0.1262  0.0410
 4944TIP3    H136467   6.053   5.039   2.430  1.1089  0.6953 -3.0336
 4944TIP3    H236468   6.139   5.163   2.435  0.0620  1.4188  1.4333
 4945TIP3   OH236469   3.986   1.073   2.858  0.1020  0.9245  0.0651
 4945TIP3    H136470   3.973   1.058   2.951  1.2619  1.4423  0.3406
 4945TIP3    H236471   3.902   1.107   2.826 -0.7276 -0.5654  0.6132
 4946TIP3   OH236472   4.932   0.621   7.201  0.8312  0.0579  0.5773
 4946TIP3    H136473   4.945   0.528   7.221  0.5500 -0.2020 -0.4029
 4946TIP3    H236474   4.930   0.625   7.106 -3.1330  0.4729  0.5129
 4947TIP3   OH236475   5.701   1.951   7.357 -0.6904 -0.3592 -0.4927
 4947TIP3    H136476   5.642   2.025   7.363 -0.2851 -0.1263  1.1233
 4947TIP3    H236477   5.645   1.876   7.339 -1.1911  0.2060 -1.3131
 4948TIP3   OH236478   5.251   3.075   8.385 -0.0213 -0.2116 -0.6831
 4948TIP3    H136479   5.271   3.018   8.459  0.1984  1.9840  1.0635
 4948TIP3    H236480   5.164   3.048   8.356  0.7052 -2.4257 -0.9793
 4949TIP3   OH236481   1.774   5.363   0.108  0.6997  0.2021 -0.8625
 4949TIP3    H136482   1.703   5.304   0.133  0.3146  1.5905  1.6381
 4949TIP3    H236483   1.774   5.361   0.012 -0.8254 -2.0051 -0.8841
 4950TIP3   OH236484   0.284   4.373   7.095 -0.3825 -0.3270  0.2070
 4950TIP3    H136485   0.192   4.362   7.069 -0.3110  1.9152 -1.2701
 4950TIP3    H236486   0.333   4.315   7.036 -0.8040 -1.5450  1.0109
 4951TIP3   OH236487   1.825   5.027   3.168  0.1035 -0.2066 -0.6422
 4951TIP3    H136488   1.752   4.972   3.196  0.2257 -0.7277 -1.3319
 4951TIP3    H236489   1.783   5.099   3.121  0.0729 -1.2666 -2.3322
 4952TIP3   OH236490   4.432   6.184   1.147 -0.2656 -0.8598 -0.2421
 4952TIP3    H136491   4.491   6.209   1.076  1.7500 -0.6538  1.4410
 4952TIP3    H236492   4.489   6.151   1.216 -1.8493  1.3509  2.3188
 4953TIP3   OH236493   4.381   0.544   0.218 -0.2410 -0.1124 -0.0384
 4953TIP3    H136494   4.394   0.500   0.301  0.3341  1.1401  0.5659
 4953TIP3    H236495   4.406   0.635   0.235 -1.3456  0.4471 -1.2361
 4954TIP3   OH236496   3.819   3.247   8.116  0.3250  0.1186  0.3464
 4954TIP3    H136497   3.781   3.295   8.042 -0.7137 -1.7398 -0.3868
 4954TIP3    H236498   3.913   3.253   8.103  0.1571 -0.1399 -1.1130
 4955TIP3   OH236499   3.266   3.088   1.035 -0.5568 -0.0700  0.6436
 4955TIP3    H136500   3.296   3.053   0.951  0.3428  0.8391  0.5619
 4955TIP3    H236501   3.171   3.096   1.025 -0.7312 -1.9666  0.4976
 4956TIP3   OH236502   3.116   4.562   0.787  0.4549  0.0442  0.1416
 4956TIP3    H136503   3.113   4.611   0.705  1.0319 -1.1988 -0.6517
 4956TIP3    H236504   3.050   4.604   0.843 -1.0058  0.0052 -1.4732
 4957TIP3   OH236505   0.912   1.452   7.899  0.4207 -0.4532  0.5452
 4957TIP3    H136506   0.910   1.368   7.854  1.0892 -0.0366 -0.2746
 4957TIP3    H236507   0.961   1.435   7.980  0.1815 -0.9438  0.5896
 4958TIP3   OH236508   2.035   2.137   0.537 -0.2894  0.3335  0.0263
 4958TIP3    H136509   1.958   2.085   0.562 -0.6402  0.5414 -0.5982
 4958TIP3    H236510   2.094   2.074   0.495 -0.2660  0.2436  0.1909
 4959TIP3   OH236511   2.773   4.230   8.056  0.3818 -0.0859 -0.0925
 4959TIP3    H136512   2.763   4.186   8.140 -0.6597 -0.6093 -0.4690
 4959TIP3    H236513   2.694   4.282   8.047  0.8964  0.6622 -0.3541
 4960TIP3   OH236514   1.856   5.451   8.512 -0.3206 -0.1989  0.4018
 4960TIP3    H136515   1.945   5.419   8.527 -0.5423 -0.2835  1.5738
 4960TIP3    H236516   1.863   5.546   8.526 -0.5501 -0.2918  1.1765
 4961TIP3   OH236517   5.711   4.852   0.090 -0.3585 -0.0464 -0.2700
 4961TIP3    H136518   5.670   4.866   0.004 -2.4001  0.8902  0.7904
 4961TIP3    H236519   5.713   4.939   0.130 -0.2091 -0.5923  0.9532
 4962TIP3   OH236520   4.280   3.493   7.650 -0.1934 -0.4430 -0.0510
 4962TIP3    H136521   4.340   3.458   7.585  0.3189 -0.4375  0.4156
 4962TIP3    H236522   4.250   3.576   7.613  0.1583 -0.3986 -0.2412
 4963TIP3   OH236523   3.934   0.509   2.381  0.6408  0.0287 -0.0450
 4963TIP3    H136524   4.014   0.458   2.366  1.2520  0.9450 -0.0050
 4963TIP3    H236525   3.882   0.456   2.441  2.0607  0.2545  1.4364
 4964TIP3   OH236526   0.013   0.668   0.670  0.0385  0.1580  0.0669
 4964TIP3    H136527  -0.038   0.631   0.743 -0.4811 -1.0288 -0.8755
 4964TIP3    H236528   0.100   0.681   0.707 -0.2922 -0.1200  0.9957
 4965TIP3   OH236529   2.753   0.507   2.167 -0.6398  0.5181 -0.2729
 4965TIP3    H136530   2.670   0.530   2.209 -0.9914 -0.4683 -0.3919
 4965TIP3    H236531   2.771   0.418   2.198 -0.3683  0.1755 -1.3735
 4966TIP3   OH236532   0.938   3.319   2.474  0.0199  0.3352 -0.2621
 4966TIP3    H136533   1.033   3.320   2.486  0.1097  0.4770 -0.9455
 4966TIP3    H236534   0.909   3.241   2.522  0.5614 -0.0839 -0.5939
 4967TIP3   OH236535   0.260   2.393   2.998 -0.3100  0.2249 -0.2156
 4967TIP3    H136536   0.168   2.367   3.011 -0.1473 -0.7620 -0.9542
 4967TIP3    H236537   0.259   2.488   3.005 -1.6453  0.3494 -1.6630
 4968TIP3   OH236538   5.933   3.849   1.444 -0.0773  0.7989  0.4487
 4968TIP3    H136539   5.908   3.911   1.513 -0.1127  1.1193  0.1530
 4968TIP3    H236540   5.851   3.825   1.402  0.0138  1.1720  0.0467
 4969TIP3   OH236541   0.889   3.985   8.407  0.1861  0.2359  0.2527
 4969TIP3    H136542   0.869   3.982   8.313 -1.5664 -0.3531  0.6143
 4969TIP3    H236543   0.806   4.008   8.448  0.9733  0.6540  1.6655
 4970TIP3   OH236544   5.269   5.211   1.269  0.2589 -0.2253 -0.2783
 4970TIP3    H136545   5.220   5.277   1.219  0.6238 -0.5137 -1.0134
 4970TIP3    H236546   5.348   5.256   1.298 -0.5034  0.3148  1.1104
 4971TIP3   OH236547   2.078   1.544   1.698 -0.2019  0.1214 -0.3597
 4971TIP3    H136548   2.046   1.541   1.607  0.2850  0.6629 -0.5519
 4971TIP3    H236549   2.067   1.635   1.724 -0.6742 -0.1096  0.2538
 4972TIP3   OH236550   4.840   6.282   3.240 -0.0677 -0.5498  0.3844
 4972TIP3    H136551   4.811   6.232   3.164  1.2839 -2.2276  0.9214
 4972TIP3    H236552   4.763   6.283   3.298 -0.4567 -1.0517 -0.1111
 4973TIP3   OH236553   3.370   5.075   1.027  0.5914 -0.1625 -0.4549
 4973TIP3    H136554   3.387   5.049   0.937  0.9471 -1.9411  0.0948
 4973TIP3    H236555   3.413   5.009   1.081 -1.8032 -0.6686  1.0083
 4974TIP3   OH236556   0.943   3.036   0.595 -0.2417  0.2517 -0.0509
 4974TIP3    H136557   1.005   3.108   0.604 -0.9953  1.0342 -0.9438
 4974TIP3    H236558   0.913   3.019   0.684 -0.6303  1.5689  0.0816
 4975TIP3   OH236559   0.666   1.299   1.763  0.4989  0.1310 -0.1001
 4975TIP3    H136560   0.628   1.282   1.849  2.9426  1.1127  1.3017
 4975TIP3    H236561   0.617   1.244   1.703 -0.7191 -1.2791  2.0633
 4976TIP3   OH236562   5.970   5.099   3.059 -0.0554  0.2396  0.2515
 4976TIP3    H136563   5.879   5.073   3.076  0.0407 -0.1956  0.1004
 4976TIP3    H236564   5.982   5.178   3.111  0.4767 -1.5069  3.0056
 4977TIP3   OH236565   0.370   4.235   1.581 -0.1866 -0.2451 -0.1322
 4977TIP3    H136566   0.296   4.244   1.521 -0.3487  1.3491  0.2528
 4977TIP3    H236567   0.347   4.291   1.656  1.0778 -0.3048  0.3217
 4978TIP3   OH236568   0.943   5.595   1.461 -0.3123 -0.6598  0.1412
 4978TIP3    H136569   0.866   5.639   1.496  0.1626 -0.7789  1.3819
 4978TIP3    H236570   0.958   5.636   1.376 -0.0343  1.4315  1.1261
 4979TIP3   OH236571   2.865   6.482   1.108  0.4542 -0.1155 -0.5090
 4979TIP3    H136572   2.864   6.418   1.036  2.3026 -0.2396 -0.4724
 4979TIP3    H236573   2.786   6.535   1.094 -0.1203 -1.2122 -1.6276
 4980TIP3   OH236574   1.475   2.678   1.740  0.3052 -1.0303 -0.0251
 4980TIP3    H136575   1.434   2.661   1.825  1.1373  1.8458  1.0975
 4980TIP3    H236576   1.562   2.713   1.763  0.6707 -0.5006 -2.0691
 4981TIP3   OH236577   4.921   1.415   8.398  0.2295  0.0232 -0.0612
 4981TIP3    H136578   4.987   1.380   8.458 -1.5728 -0.5075  1.7481
 4981TIP3    H236579   4.921   1.355   8.324  1.3499 -0.3239  0.2111
 4982TIP3   OH236580   0.012   6.541   2.319  0.3967  0.4926 -0.4142
 4982TIP3    H136581   0.100   6.539   2.283  0.5735  0.8165  0.0002
 4982TIP3    H236582  -0.003   6.451   2.349  1.3600  0.8988  1.3643
 4983TIP3   OH236583   2.749   2.204   0.345  0.0856  0.8777  0.8216
 4983TIP3    H136584   2.776   2.126   0.394 -1.0618  0.2914  0.5755
 4983TIP3    H236585   2.794   2.277   0.388  0.9209  0.1149  1.2644
 4984TIP3   OH236586   4.337   1.869   1.474 -0.0021  0.0966  0.6170
 4984TIP3    H136587   4.297   1.830   1.551 -0.6192  0.9638  0.7468
 4984TIP3    H236588   4.357   1.959   1.499 -2.5023  1.2183 -0.9290
 4985TIP3   OH236589   2.389   2.272   0.615  0.3549 -0.1311 -0.0128
 4985TIP3    H136590   2.363   2.342   0.675  0.9513  0.0516  0.0386
 4985TIP3    H236591   2.404   2.317   0.532  1.3596 -0.0883  0.1763
 4986TIP3   OH236592   4.397   3.436   1.866  0.4741  0.0620 -0.2879
 4986TIP3    H136593   4.351   3.520   1.864  0.1077 -0.1217  0.1034
 4986TIP3    H236594   4.338   3.378   1.915 -0.3886 -1.0916 -2.5486
 4987TIP3   OH236595   6.743   5.893   1.907 -0.0147  0.2295  0.2890
 4987TIP3    H136596   6.737   5.853   1.821  0.1106 -1.0360  0.8426
 4987TIP3    H236597   6.693   5.974   1.900  1.2353  0.9093 -1.3803
 4988TIP3   OH236598   3.352   6.131   1.625  0.3571  0.4660 -0.2430
 4988TIP3    H136599   3.320   6.054   1.673  2.0261  0.3622  0.7683
 4988TIP3    H236600   3.447   6.120   1.623  0.6487  2.6126  0.1199
 4989TIP3   OH236601   2.364   2.182   1.313 -0.0509  0.0022 -0.0905
 4989TIP3    H136602   2.390   2.274   1.309  1.4577 -0.4240 -0.7860
 4989TIP3    H236603   2.425   2.142   1.375 -0.9857 -0.4595  0.5576
 4990TIP3   OH236604   0.881   3.467   2.233  0.2945 -0.4903 -0.5334
 4990TIP3    H136605   0.878   3.405   2.305  1.6982 -0.0189 -0.0263
 4990TIP3    H236606   0.801   3.451   2.184  0.0390 -1.8537  0.2719
 4991TIP3   OH236607   1.941   0.494   8.155  0.2288  0.1166  0.2181
 4991TIP3    H136608   2.017   0.479   8.211  0.7221  3.1083  0.4670
 4991TIP3    H236609   1.975   0.544   8.081 -1.2718  0.2773 -0.3898
 4992TIP3   OH236610   3.993   3.466   0.668 -0.0291 -0.2547 -0.2363
 4992TIP3    H136611   4.029   3.386   0.707  1.5343  1.0278  1.0811
 4992TIP3    H236612   4.036   3.471   0.582  0.7405 -0.2692  0.1358
 4993TIP3   OH236613   5.050   6.691   1.152  0.3202 -0.5254  0.4428
 4993TIP3    H136614   4.958   6.718   1.152  0.6369  1.1875 -3.1700
 4993TIP3    H236615   5.055   6.623   1.085  2.0913  1.8568 -2.0556
 4994TIP3   OH236616   3.421   2.687   2.821 -0.2201  0.5603  0.1448
 4994TIP3    H136617   3.445   2.623   2.755 -1.8879 -0.9737  0.9296
 4994TIP3    H236618   3.422   2.771   2.775  2.4328  0.0981 -0.8011
 4995TIP3   OH236619   0.423   0.785   2.111  0.0429  0.4432 -0.2177
 4995TIP3    H136620   0.356   0.742   2.164  0.2688 -0.4213 -0.6099
 4995TIP3    H236621   0.380   0.804   2.028  0.6147 -1.3770 -0.9948
 4996TIP3   OH236622   0.655   1.482   8.455  0.8791 -0.2320  0.4042
 4996TIP3    H136623   0.731   1.439   8.416  2.1982 -1.2498  3.7484
 4996TIP3    H236624   0.654   1.569   8.415  2.3645 -0.9937 -1.4397
 4997TIP3   OH236625   6.785   0.141   8.576 -0.0291  0.0272 -0.3400
 4997TIP3    H136626   6.740   0.191   8.508  0.6132 -1.0206 -1.5946
 4997TIP3    H236627   6.720   0.128   8.645 -0.4127  1.9458 -0.3006
 4998TIP3   OH236628   1.998   4.069   0.340  0.3401 -0.4624 -0.1783
 4998TIP3    H136629   2.057   4.081   0.266 -0.7745 -0.6855 -1.1166
 4998TIP3    H236630   2.032   4.129   0.407 -0.3073  1.9521 -1.8856
 4999TIP3   OH236631   3.446   3.152   1.894 -0.2872 -0.2440  0.3061
 4999TIP3    H136632   3.531   3.108   1.889 -0.3594 -0.4617  0.9634
 4999TIP3    H236633   3.407   3.137   1.808  0.2262 -0.3686  0.0889
 5000TIP3   OH236634   0.553   4.797   3.204 -0.0290 -0.2581  0.2091
 5000TIP3    H136635   0.491   4.735   3.244 -1.3544  1.2956  0.6514
 5000TIP3    H236636   0.601   4.834   3.278  1.3116 -1.2637 -0.1127
 5001TIP3   OH236637   5.340   4.803   2.408  0.6087  0.3002 -0.2648
 5001TIP3    H136638   5.422   4.776   2.366  0.2723 -0.3985 -0.4859
 5001TIP3    H236639   5.345   4.898   2.411  0.3894  0.4132 -2.3854
 5002TIP3   OH236640   3.700   2.959   8.529  0.2579 -0.1549 -0.0975
 5002TIP3    H136641   3.795   2.973   8.528  0.6945 -2.6529 -0.7271
 5002TIP3    H236642   3.687   2.880   8.476 -2.1243 -0.1858  0.4291
 5003TIP3   OH236643   5.515   0.785   7.965 -0.5905 -0.0619 -0.7249
 5003TIP3    H136644   5.523   0.858   8.026 -0.6250 -1.1804  0.6675
 5003TIP3    H236645   5.554   0.818   7.884  0.2328  1.1954  0.1339
 5004TIP3   OH236646   0.843   6.547   7.457 -0.5573 -0.3553 -0.1218
 5004TIP3    H136647   0.877   6.603   7.387 -1.1002  0.3176  0.1304
 5004TIP3    H236648   0.909   6.480   7.469 -1.5428 -2.0719 -3.0455
 5005TIP3   OH236649   5.641   0.317   0.885  0.9105  0.1873 -0.0575
 5005TIP3    H136650   5.662   0.390   0.827  0.2362  0.0030 -0.5443
 5005TIP3    H236651   5.648   0.239   0.830  0.3153  0.0042  0.1154
 5006TIP3   OH236652   5.267   2.843   1.884  0.1168  0.1643 -0.1790
 5006TIP3    H136653   5.297   2.932   1.904 -0.9431  0.1712  1.6162
 5006TIP3    H236654   5.346   2.789   1.892  0.4603  0.7329  0.3971
 5007TIP3   OH236655   0.947   0.872   8.100  0.3593  0.5369 -0.1516
 5007TIP3    H136656   0.912   0.962   8.103  0.5734  0.6458 -0.7327
 5007TIP3    H236657   1.037   0.881   8.129  0.8309  0.7576 -1.5970
 5008TIP3   OH236658   0.498   4.377   0.189  0.0801 -0.0331 -0.7155
 5008TIP3    H136659   0.521   4.440   0.121 -0.4685  0.3809 -0.5254
 5008TIP3    H236660   0.438   4.316   0.147  1.4015 -1.0541 -1.1839
 5009TIP3   OH236661   4.745   4.929   0.995  0.0302 -0.6737 -0.0669
 5009TIP3    H136662   4.818   4.878   1.031  1.1786  0.7547 -0.2768
 5009TIP3    H236663   4.678   4.926   1.062  0.6466 -1.2234  0.5417
 5010TIP3   OH236664   1.258   0.732   0.061 -0.7131  0.2058  0.0665
 5010TIP3    H136665   1.215   0.749   0.145 -1.4963 -1.2033 -0.0229
 5010TIP3    H236666   1.254   0.637   0.051  2.6345 -0.0647  0.1518
 5011TIP3   OH236667   0.837   3.099   2.582 -0.3821  0.0241  0.1676
 5011TIP3    H136668   0.849   3.054   2.666  0.0356 -0.7386 -0.2897
 5011TIP3    H236669   0.844   3.029   2.517  0.6091  0.8104 -0.5853
 5012TIP3   OH236670   2.897   0.914   1.926  0.1296  0.1213  0.0479
 5012TIP3    H136671   2.940   0.998   1.942  0.4830  0.3989 -2.0891
 5012TIP3    H236672   2.953   0.870   1.862 -0.4685 -1.4149  0.5303
 5013TIP3   OH236673   3.839   2.112   7.609  0.4553  0.4186 -0.4251
 5013TIP3    H136674   3.880   2.168   7.542  0.3898 -1.1845 -1.8982
 5013TIP3    H236675   3.764   2.073   7.564  0.6094 -0.9695  0.4843
 5014TIP3   OH236676   5.128   0.365   0.202  0.7054 -1.0324  0.4965
 5014TIP3    H136677   5.090   0.403   0.281 -2.5150 -0.3747 -1.1714
 5014TIP3    H236678   5.080   0.282   0.191 -1.7717  0.5584 -2.5445
 5015TIP3   OH236679   3.818   4.654   1.412  0.3726  0.6471 -0.2354
 5015TIP3    H136680   3.905   4.632   1.447  0.2864  0.4207 -0.1628
 5015TIP3    H236681   3.801   4.586   1.347  1.0695  1.7416 -1.6410
 5016TIP3   OH236682   3.099   6.274   2.450  0.2835  0.8407 -0.7091
 5016TIP3    H136683   3.041   6.240   2.518  0.7742  1.1637 -0.1137
 5016TIP3    H236684   3.187   6.257   2.483  0.6211 -1.7793 -2.6522
 5017TIP3   OH236685   1.916   3.442   8.225 -0.2506 -0.3246  0.2244
 5017TIP3    H136686   1.925   3.440   8.321  0.0056  0.6564  0.2384
 5017TIP3    H236687   1.821   3.443   8.210 -0.2913 -0.4716  0.4671
 5018TIP3   OH236688   6.810   0.249   1.437  0.1070  0.0662 -0.0033
 5018TIP3    H136689   6.906   0.250   1.434  0.2312  2.6866  1.3598
 5018TIP3    H236690   6.789   0.287   1.522 -2.1690 -0.7562 -0.1501
 5019TIP3   OH236691   1.773   0.120   1.026 -0.2519 -0.0495  0.0687
 5019TIP3    H136692   1.691   0.071   1.023 -1.0711  1.2729  0.2374
 5019TIP3    H236693   1.840   0.056   0.999 -1.3494 -1.0826 -0.2975
 5020TIP3   OH236694   6.182   0.083   0.771 -0.0831 -0.5318  0.1362
 5020TIP3    H136695   6.145   0.061   0.685 -1.3987  1.2528  0.2006
 5020TIP3    H236696   6.242   0.155   0.753 -1.4054  0.7941  0.8532
 5021TIP3   OH236697   4.100   2.209   0.963 -0.5932 -0.2707 -0.6098
 5021TIP3    H136698   4.184   2.252   0.945 -0.3457  0.3366  1.7150
 5021TIP3    H236699   4.079   2.163   0.882  0.6004  1.8350 -2.2052
 5022TIP3   OH236700   6.881   0.965   0.684  0.3698  0.2491  0.3218
 5022TIP3    H136701   6.972   0.945   0.661  0.2586 -0.1993  0.2574
 5022TIP3    H236702   6.841   0.879   0.699 -0.4701  0.3329 -1.2313
 5023TIP3   OH236703   5.209   2.394   1.582 -0.1890 -0.2121  0.2603
 5023TIP3    H136704   5.221   2.303   1.608  0.2515  0.1188  1.2778
 5023TIP3    H236705   5.240   2.398   1.491  2.6032 -0.5041  1.1026
 5024TIP3   OH236706   0.517   3.771   1.945 -0.3701  0.0634 -0.0440
 5024TIP3    H136707   0.426   3.792   1.924 -0.2926 -0.5479 -1.0730
 5024TIP3    H236708   0.522   3.676   1.939  0.1590  0.0255  0.8208
 5025TIP3   OH236709   5.553   0.135   2.392 -0.0869 -0.1385  0.8637
 5025TIP3    H136710   5.551   0.090   2.476 -0.0174  0.4696  1.1966
 5025TIP3    H236711   5.500   0.080   2.334  0.7084 -1.0863  1.0302
 5026TIP3   OH236712   5.183   6.295   6.738  0.1470 -0.8612  0.0872
 5026TIP3    H136713   5.195   6.228   6.806  1.6034 -1.0491 -0.3301
 5026TIP3    H236714   5.132   6.251   6.670  0.0489 -1.1574  0.3497
 5027TIP3   OH236715   2.065   4.381   8.389  0.0636 -0.3676  0.0491
 5027TIP3    H136716   2.094   4.453   8.333 -1.0543  0.6971  0.7699
 5027TIP3    H236717   2.107   4.398   8.473 -1.5154  0.4500  0.7187
 5028TIP3   OH236718   1.005   1.797   1.121  0.2028 -1.0173  0.5231
 5028TIP3    H136719   1.099   1.813   1.131  0.2347 -1.7360  1.6561
 5028TIP3    H236720   0.966   1.838   1.198 -0.3496 -1.1977  0.3410
 5029TIP3   OH236721   3.671   0.417   0.756  0.3243 -0.1873  0.1491
 5029TIP3    H136722   3.657   0.374   0.841 -0.1927 -1.3395 -0.4882
 5029TIP3    H236723   3.621   0.363   0.694 -0.7453  1.6124 -0.6389
 5030TIP3   OH236724   1.342   6.154   2.164 -0.1178  0.1153 -0.1751
 5030TIP3    H136725   1.272   6.219   2.177  0.9025  0.8764  2.2444
 5030TIP3    H236726   1.296   6.074   2.139 -1.5163  1.4357 -2.1186
 5031TIP3   OH236727   2.868   5.279   1.205  0.5390  0.7522 -0.4545
 5031TIP3    H136728   2.920   5.292   1.125  0.9453 -0.5705 -0.4328
 5031TIP3    H236729   2.787   5.238   1.174 -0.7912  3.2617 -0.5523
 5032TIP3   OH236730   0.837   4.743   1.501 -0.9231 -0.6558 -0.2164
 5032TIP3    H136731   0.800   4.762   1.587 -1.1913  0.3599 -0.5439
 5032TIP3    H236732   0.838   4.647   1.497  1.5433 -0.8386  1.9522
 5033TIP3   OH236733   3.067   0.646   0.951  0.5509  0.0051 -0.1352
 5033TIP3    H136734   3.120   0.703   1.007 -0.8253  1.0450  0.1817
 5033TIP3    H236735   3.043   0.573   1.008 -2.7870  2.1772  1.5757
 5034TIP3   OH236736   4.410   1.894   7.931  0.3102  0.5019 -0.1000
 5034TIP3    H136737   4.476   1.953   7.966 -0.1415 -0.1845  2.0242
 5034TIP3    H236738   4.439   1.807   7.957  0.1574 -0.1145 -1.8603
 5035TIP3   OH236739   0.308   5.456   7.792  0.1021 -0.2242  0.1546
 5035TIP3    H136740   0.333   5.369   7.823 -1.1831 -0.7515 -0.2458
 5035TIP3    H236741   0.266   5.498   7.867  1.5335  0.4235  0.6311
 5036TIP3   OH236742   2.194   1.280   0.532  1.0886  0.1930 -0.4048
 5036TIP3    H136743   2.200   1.205   0.591 -2.9869  0.7364  1.0184
 5036TIP3    H236744   2.190   1.356   0.590 -1.8790  0.8394 -1.3063
 5037TIP3   OH236745   5.861   5.574   7.558  0.4756 -0.9843 -0.2222
 5037TIP3    H136746   5.907   5.654   7.533  0.2537 -1.2122 -1.3744
 5037TIP3    H236747   5.880   5.512   7.488 -2.0818 -0.8916 -1.0787
 5038TIP3   OH236748   5.898   6.154   0.036  0.2105 -0.1411  0.5853
 5038TIP3    H136749   5.850   6.199  -0.033  1.1128  1.6835  1.1020
 5038TIP3    H236750   5.953   6.091  -0.011 -0.9178 -0.6174 -0.1628
 5039TIP3   OH236751   2.117   2.495   1.863 -0.1817  0.0860 -0.3184
 5039TIP3    H136752   2.038   2.545   1.844 -1.6503 -1.5527  1.2119
 5039TIP3    H236753   2.102   2.409   1.823  0.6536 -0.3912  0.3512
 5040TIP3   OH236754   6.245   5.852   8.630 -0.1422 -0.2081 -0.2754
 5040TIP3    H136755   6.216   5.790   8.563 -0.3693 -1.8758  1.2854
 5040TIP3    H236756   6.340   5.846   8.629 -0.1700 -0.8708  0.0813
 5041TIP3   OH236757   4.124   2.479   7.028 -0.3210  0.0479  0.3760
 5041TIP3    H136758   4.077   2.517   6.954 -1.0196 -1.5328 -0.0199
 5041TIP3    H236759   4.198   2.433   6.988 -0.2214 -0.1136  0.7434
 5042TIP3   OH236760   5.450   6.323   7.989 -0.2206  0.3948 -0.0407
 5042TIP3    H136761   5.480   6.388   7.925  0.0577 -1.0890 -1.4768
 5042TIP3    H236762   5.525   6.265   8.001 -1.0410 -0.7142 -0.1597
 5043TIP3   OH236763   0.295   3.295   2.729  0.4225  0.1805  0.1718
 5043TIP3    H136764   0.316   3.238   2.802  2.3610  0.2416 -0.2807
 5043TIP3    H236765   0.380   3.323   2.695 -0.4280  0.8303 -1.5666
 5044TIP3   OH236766   6.734   6.746   2.279 -0.1473  0.2119 -0.0169
 5044TIP3    H136767   6.730   6.733   2.184  0.5314 -3.4140  0.3040
 5044TIP3    H236768   6.786   6.673   2.311 -2.2575 -0.0252  3.3902
 5045TIP3   OH236769   6.237   6.093   0.967  0.4234  0.0410  0.5156
 5045TIP3    H136770   6.311   6.152   0.986  0.3310 -0.0052  1.0142
 5045TIP3    H236771   6.272   6.006   0.983  0.5506 -0.0460 -0.1954
 5046TIP3   OH236772   3.840   4.344   0.980  0.5131 -0.0684  0.1371
 5046TIP3    H136773   3.924   4.301   0.997  0.1408  0.1189  3.0525
 5046TIP3    H236774   3.781   4.272   0.957  1.2371 -0.3227 -0.9735
 5047TIP3   OH236775   2.598   3.256   8.354 -0.1521  0.3279  0.0442
 5047TIP3    H136776   2.620   3.196   8.426 -0.6059 -1.6565 -1.3909
 5047TIP3    H236777   2.671   3.247   8.292 -0.6169  0.6813 -0.5624
 5048TIP3   OH236778   6.524   6.105   3.028  0.2576  0.3084  0.8153
 5048TIP3    H136779   6.453   6.097   3.092 -0.2941  0.4754  0.2385
 5048TIP3    H236780   6.497   6.047   2.956  0.5268  0.6513  0.4327
 5049TIP3   OH236781   4.598   2.356   1.726  0.4184 -0.5204 -0.1639
 5049TIP3    H136782   4.593   2.450   1.710 -2.0901 -0.2139  1.7743
 5049TIP3    H236783   4.684   2.342   1.766  1.0561  0.8220 -1.0129
 5050TIP3   OH236784   5.887   5.170   8.209 -0.0802  0.2611  0.1897
 5050TIP3    H136785   5.857   5.260   8.222  1.2946  0.8095 -0.2946
 5050TIP3    H236786   5.872   5.153   8.116 -0.1498  0.0490  0.2387
 5051TIP3   OH236787   3.048   0.955   1.048 -0.1969 -0.2258 -0.4260
 5051TIP3    H136788   3.114   0.887   1.037 -0.4042 -0.6701  0.8851
 5051TIP3    H236789   3.083   1.031   1.002  0.0885 -1.1725 -1.8260
 5052TIP3   OH236790   5.804   3.191   7.971 -0.1087 -0.4641 -0.2782
 5052TIP3    H136791   5.808   3.106   8.013  0.7765  1.3330  3.6665
 5052TIP3    H236792   5.888   3.200   7.926 -0.0538 -1.4400 -0.4047
 5053TIP3   OH236793   1.585   3.131   2.534  0.8240 -0.2303 -0.0255
 5053TIP3    H136794   1.526   3.108   2.606 -0.6254 -1.5664 -1.5241
 5053TIP3    H236795   1.629   3.211   2.562 -0.7857  0.1025  1.7210
 5054TIP3   OH236796   3.184   5.867   7.449 -0.2816  0.6986  0.8002
 5054TIP3    H136797   3.233   5.877   7.531  0.2094  2.4359  0.3420
 5054TIP3    H236798   3.114   5.806   7.471  1.1828 -0.6932  1.8743
 5055TIP3   OH236799   1.687   1.736   0.533  0.5300  0.2450  0.0894
 5055TIP3    H136800   1.593   1.752   0.531  0.1859 -1.6146 -1.2809
 5055TIP3    H236801   1.702   1.695   0.619 -0.4264 -1.8523 -0.6634
 5056TIP3   OH236802   4.957   2.159   0.888 -0.9800  0.3611 -0.0805
 5056TIP3    H136803   4.905   2.096   0.938  0.0050 -0.6601 -0.3023
 5056TIP3    H236804   4.894   2.198   0.827 -2.0717  1.1738  1.4914
 5057TIP3   OH236805   1.517   5.780   0.285  0.0973 -0.7608 -0.0146
 5057TIP3    H136806   1.554   5.861   0.250 -1.0209 -1.1757 -2.4070
 5057TIP3    H236807   1.455   5.809   0.353  2.2616  0.0978  1.6939
 5058TIP3   OH236808   1.886   4.957   0.534  0.1610 -0.0614  0.3957
 5058TIP3    H136809   1.972   4.942   0.573  0.0338 -4.1339 -0.4406
 5058TIP3    H236810   1.825   4.951   0.607  0.3813 -0.3604  0.5571
 5059TIP3   OH236811   0.585   3.202   1.216  0.8106 -0.1935  0.1309
 5059TIP3    H136812   0.567   3.179   1.125 -2.3407 -0.2774  0.6855
 5059TIP3    H236813   0.547   3.289   1.228 -2.2781 -1.6538  2.2035
 5060TIP3   OH236814   1.273   4.314   2.197 -0.0377 -0.1105  0.4706
 5060TIP3    H136815   1.229   4.257   2.260 -0.5270 -2.3027 -1.7152
 5060TIP3    H236816   1.356   4.271   2.179 -0.3507 -0.0836 -1.1340
 5061TIP3   OH236817   3.256   5.498   2.198  0.0246  0.5193  0.4690
 5061TIP3    H136818   3.243   5.420   2.144  1.3177  1.2465 -0.9766
 5061TIP3    H236819   3.351   5.510   2.200 -0.1462  2.0504  0.6306
 5062TIP3   OH236820   1.697   6.685   8.100  0.5486 -0.1207  0.2363
 5062TIP3    H136821   1.612   6.661   8.064  0.5093 -0.4983  0.5806
 5062TIP3    H236822   1.724   6.609   8.152  0.1006  0.8024  1.9198
 5063TIP3   OH236823   0.552   1.234   3.206  0.4004 -0.4578  0.1664
 5063TIP3    H136824   0.622   1.299   3.201 -0.3636  0.3475 -0.2467
 5063TIP3    H236825   0.475   1.278   3.169 -0.1712 -1.5372  0.0288
 5064TIP3   OH236826   5.130   2.347   8.405 -0.4860 -0.0098 -0.2186
 5064TIP3    H136827   5.044   2.344   8.447 -0.5971  1.2271 -0.3189
 5064TIP3    H236828   5.113   2.386   8.319  0.5954  3.5438  1.0076
 5065TIP3   OH236829   4.831   4.824   1.455 -0.4847 -0.4666 -0.0163
 5065TIP3    H136830   4.851   4.814   1.362  0.5795  1.4354 -0.0195
 5065TIP3    H236831   4.911   4.798   1.500  0.1243  1.6781  0.2087
 5066TIP3   OH236832   3.365   5.542   8.323 -0.3627  0.9224 -0.6944
 5066TIP3    H136833   3.312   5.502   8.254 -3.0789  2.2333  0.4626
 5066TIP3    H236834   3.330   5.631   8.331  0.7079  1.2014  1.5438
 5067TIP3   OH236835   5.360   4.409   0.390  0.1243 -0.4443  0.0308
 5067TIP3    H136836   5.396   4.356   0.461  1.7126  2.2063  1.3609
 5067TIP3    H236837   5.265   4.400   0.399  0.3102 -0.8122  1.9924
 5068TIP3   OH236838   6.737   5.461   0.324  0.6489  0.0748  0.2217
 5068TIP3    H136839   6.809   5.499   0.374  2.2715 -2.2026 -0.2472
 5068TIP3    H236840   6.769   5.460   0.234 -0.7305  0.6833 -0.2946
 5069TIP3   OH236841   3.987   6.446   1.185 -0.4552 -0.3718 -0.0833
 5069TIP3    H136842   4.079   6.455   1.160 -0.2166 -0.6667  0.6874
 5069TIP3    H236843   3.957   6.536   1.198 -1.0454 -0.0324 -2.9467
 5070TIP3   OH236844   6.413   5.785   0.764 -0.9487 -0.1277  0.1247
 5070TIP3    H136845   6.385   5.869   0.799 -0.2240  0.7967 -1.4016
 5070TIP3    H236846   6.377   5.783   0.675  1.9140  0.1760 -1.1513
 5071TIP3   OH236847   2.741   1.770   0.997  0.3546 -0.4070 -0.4166
 5071TIP3    H136848   2.731   1.692   1.051  1.3732 -0.5029 -0.3539
 5071TIP3    H236849   2.789   1.832   1.052  1.6421 -0.5979 -1.2712
 5072TIP3   OH236850   1.310   3.246   1.520 -0.1960  0.2382  0.0729
 5072TIP3    H136851   1.363   3.311   1.473  0.6320 -0.2315  0.3281
 5072TIP3    H236852   1.343   3.250   1.610 -0.4730 -0.1981  0.1927
 5073TIP3   OH236853   4.749   5.703   0.998 -0.3248  0.5762 -0.2360
 5073TIP3    H136854   4.806   5.638   1.040 -0.8003  1.4319  1.8390
 5073TIP3    H236855   4.694   5.652   0.939  0.6914 -0.6198 -0.1889
 5074TIP3   OH236856   3.049   2.837   7.554  0.0846  0.1905  0.8686
 5074TIP3    H136857   2.978   2.897   7.535 -0.5105 -0.9163 -0.6895
 5074TIP3    H236858   3.093   2.825   7.469 -0.0421 -1.7987  1.0352
 5075TIP3   OH236859   3.632   5.323   1.703 -0.2386 -0.3536  0.3157
 5075TIP3    H136860   3.695   5.258   1.735 -1.8811 -3.6730 -2.5207
 5075TIP3    H236861   3.684   5.384   1.651  0.8762 -2.6845 -1.4907
 5076TIP3   OH236862   2.343   0.557   0.083 -0.0147 -0.3043  0.0325
 5076TIP3    H136863   2.421   0.520   0.042 -0.8721 -1.7800 -0.3355
 5076TIP3    H236864   2.331   0.642   0.040  2.5294  0.9305  1.5515
 5077TIP3   OH236865   6.123   5.811   2.305  0.4674 -0.2202 -0.7564
 5077TIP3    H136866   6.115   5.898   2.267  0.7628 -0.9749 -2.6237
 5077TIP3    H236867   6.216   5.803   2.328  0.0180  0.8596  1.8476
 5078TIP3   OH236868   0.390   3.051   7.165  0.1973  0.2687 -0.4115
 5078TIP3    H136869   0.327   2.986   7.196  0.0649 -0.0296 -1.2862
 5078TIP3    H236870   0.361   3.133   7.205 -0.2824 -0.0109 -0.1776
 5079TIP3   OH236871   5.562   5.338   7.125 -0.1665 -0.4449 -0.1406
 5079TIP3    H136872   5.627   5.408   7.127  0.2531 -0.6013 -2.9624
 5079TIP3    H236873   5.482   5.377   7.157  0.4847  0.8185 -0.0016
 5080TIP3   OH236874   4.095   3.377   0.390  0.3215  0.1473  0.5406
 5080TIP3    H136875   4.063   3.348   0.304  0.7528 -3.1502  1.3536
 5080TIP3    H236876   4.177   3.423   0.370  1.0050 -1.5331 -0.8260
 5081TIP3   OH236877   0.972   6.724   0.643  0.3375 -0.2934  0.3656
 5081TIP3    H136878   1.035   6.796   0.644 -0.6293  0.5648  0.5731
 5081TIP3    H236879   1.021   6.649   0.678  0.7058  0.8329  2.4289
 5082TIP3   OH236880   6.430   4.647   0.968  0.3329 -0.1164 -0.1377
 5082TIP3    H136881   6.356   4.652   0.908  1.4708 -1.9981 -1.8496
 5082TIP3    H236882   6.506   4.670   0.914  1.1185  0.7562  1.2998
 5083TIP3   OH236883   1.195   3.267   2.569  0.4738 -0.4603 -0.4693
 5083TIP3    H136884   1.278   3.295   2.608 -0.2257  0.1304  0.6620
 5083TIP3    H236885   1.214   3.181   2.532  1.9895  0.3538 -1.6711
 5084TIP3   OH236886   3.899   3.992   1.833 -0.8492  0.1204  0.5982
 5084TIP3    H136887   3.865   4.049   1.764  2.3911  0.7903 -0.6294
 5084TIP3    H236888   3.916   4.050   1.907 -0.9870  0.0625  0.6754
 5085TIP3   OH236889   1.853   6.847   2.652  0.3841 -0.1645 -0.0069
 5085TIP3    H136890   1.913   6.809   2.588 -0.4523 -0.8833 -0.3839
 5085TIP3    H236891   1.909   6.874   2.724  1.1782 -0.6780 -0.4118
 5086TIP3   OH236892   6.059   4.217   2.670  0.1147  0.4414 -0.4616
 5086TIP3    H136893   5.997   4.213   2.743  1.6472  0.4167  0.8688
 5086TIP3    H236894   6.062   4.310   2.646 -0.5760  0.4146 -0.6915
 5087TIP3   OH236895   4.173   4.995   7.210 -0.0012  0.3218 -0.8808
 5087TIP3    H136896   4.172   5.021   7.303 -1.5854  0.6961 -0.9805
 5087TIP3    H236897   4.184   5.078   7.163 -3.5534  0.7755 -1.1423
 5088TIP3   OH236898   1.656   4.378   0.024 -0.3896 -0.2244 -0.0325
 5088TIP3    H136899   1.738   4.331   0.032  1.0101  1.9732 -0.5997
 5088TIP3    H236900   1.595   4.315  -0.015  0.9820 -1.8961  0.4072
 5089TIP3   OH236901   5.633   5.775   2.068 -0.0250 -0.2180 -0.0861
 5089TIP3    H136902   5.656   5.767   2.161 -1.1161 -0.7050  0.1543
 5089TIP3    H236903   5.574   5.702   2.051 -0.8366  0.5875 -0.8453
 5090TIP3   OH236904   1.471   4.158   2.081  0.5712 -0.1402  0.1211
 5090TIP3    H136905   1.534   4.105   2.033  1.0132 -0.1731  0.7200
 5090TIP3    H236906   1.387   4.115   2.068  0.6598 -0.0619 -0.7360
 5091TIP3   OH236907   4.465   4.152   1.348  0.7849  0.3309  0.4925
 5091TIP3    H136908   4.447   4.069   1.304  0.1129  0.4697  0.4806
 5091TIP3    H236909   4.379   4.180   1.380  1.1959  0.4263  1.5486
 5092TIP3   OH236910   3.377   3.730   8.401  0.3017  0.0197 -0.6257
 5092TIP3    H136911   3.388   3.738   8.495 -2.0481  1.7496 -0.4011
 5092TIP3    H236912   3.459   3.763   8.364  0.1271  2.2290  0.8060
 5093TIP3   OH236913   3.601   2.889   1.950 -0.3110  0.1882  0.6538
 5093TIP3    H136914   3.651   2.956   1.902 -0.2789  0.2086  0.7157
 5093TIP3    H236915   3.639   2.806   1.919 -0.2017  0.2053  0.7403
 5094TIP3   OH236916   2.892   6.701   2.762 -0.1435  0.0631  0.0075
 5094TIP3    H136917   2.896   6.720   2.668 -0.4115  2.1313  0.3723
 5094TIP3    H236918   2.817   6.643   2.771  0.4494 -0.9277 -1.1559
 5095TIP3   OH236919   1.758   1.152   8.516 -0.6722 -0.6722  0.3456
 5095TIP3    H136920   1.746   1.157   8.421  0.2729 -1.4288  0.1628
 5095TIP3    H236921   1.828   1.215   8.535 -1.1869 -0.1771  0.6100
 5096TIP3   OH236922   3.073   3.512   0.651 -0.0865  0.1653 -0.0062
 5096TIP3    H136923   3.151   3.525   0.597 -0.8007 -0.1368 -1.1539
 5096TIP3    H236924   3.027   3.596   0.647  0.5729  0.6278  1.3748
 5097TIP3   OH236925   6.445   0.206   1.031  0.1042 -0.1939  0.2515
 5097TIP3    H136926   6.469   0.198   1.123 -0.6445  0.3427  0.4965
 5097TIP3    H236927   6.465   0.120   0.993 -0.6543 -0.7758  1.1576
 5098TIP3   OH236928   3.506   0.730   2.708 -0.0222  0.1101  0.0176
 5098TIP3    H136929   3.534   0.694   2.792 -1.2590  0.6156  0.6799
 5098TIP3    H236930   3.530   0.663   2.644  0.4832 -0.5133  0.8378
 5099TIP3   OH236931   0.303   2.152   8.250 -0.7564  0.6150 -0.1378
 5099TIP3    H136932   0.325   2.114   8.165  0.1239 -0.0251  0.3479
 5099TIP3    H236933   0.253   2.230   8.230 -1.4048 -0.0532 -1.2201
 5100TIP3   OH236934   2.596   6.656   3.064 -1.0172 -0.0805 -0.2500
 5100TIP3    H136935   2.539   6.645   3.140 -0.5550  2.5414  0.5764
 5100TIP3    H236936   2.683   6.633   3.095 -0.8281  0.9910  0.0483
 5101TIP3   OH236937   4.999   0.149   0.101  1.1090  0.2281 -0.0826
 5101TIP3    H136938   4.919   0.173   0.147  1.6311  0.3959  0.7523
 5101TIP3    H236939   5.025   0.065   0.140 -0.1154 -1.2592 -2.2275
 5102TIP3   OH236940   3.785   5.791   8.315  0.1485  0.1490  0.0993
 5102TIP3    H136941   3.843   5.831   8.250  0.3940  0.2487  0.3777
 5102TIP3    H236942   3.794   5.697   8.301  0.7487  0.1515  0.4630
 5103TIP3   OH236943   4.888   5.443   2.439 -0.0226  0.3408 -0.8422
 5103TIP3    H136944   4.909   5.512   2.502 -0.1878 -0.3627  0.0021
 5103TIP3    H236945   4.797   5.421   2.456  0.5105 -1.3335  0.1849
 5104TIP3   OH236946   0.518   3.027   2.747  0.2879 -0.1840  1.1756
 5104TIP3    H136947   0.452   2.977   2.795  1.4136 -0.9425  1.9913
 5104TIP3    H236948   0.541   3.099   2.805  1.3330 -0.8520  1.6276
 5105TIP3   OH236949   5.846   5.079   1.571 -0.8704 -0.2870  0.3232
 5105TIP3    H136950   5.857   5.009   1.506  0.9657  0.7040 -0.5217
 5105TIP3    H236951   5.760   5.116   1.552 -0.4738 -0.1687 -1.4416
 5106TIP3   OH236952   2.522   2.581   1.084  0.4415  0.1932  0.1993
 5106TIP3    H136953   2.572   2.585   1.002  0.6283  0.1189  0.3078
 5106TIP3    H236954   2.588   2.565   1.151  0.1882 -0.6498  0.2597
 5107TIP3   OH236955   5.612   5.151   8.301 -0.1534  0.4376  0.4216
 5107TIP3    H136956   5.575   5.204   8.231  2.2159  1.0613 -0.4683
 5107TIP3    H236957   5.651   5.215   8.361  0.1210 -0.1849  0.9195
 5108TIP3   OH236958   0.713   6.362   8.548  0.7883  0.4111 -0.2349
 5108TIP3    H136959   0.730   6.359   8.642 -3.1157 -0.5568  0.6323
 5108TIP3    H236960   0.653   6.436   8.536 -1.0282 -1.1341 -1.3789
 5109TIP3   OH236961   4.204   4.038   1.835 -0.0362  0.5905 -0.8018
 5109TIP3    H136962   4.200   4.051   1.929 -0.2815 -0.0612 -0.7210
 5109TIP3    H236963   4.297   4.038   1.814  0.0078  1.9880 -0.7466
 5110TIP3   OH236964   2.119   5.109   3.155  0.0513 -0.3042  0.4623
 5110TIP3    H136965   2.128   5.190   3.205 -0.6343 -0.1845  0.3914
 5110TIP3    H236966   2.034   5.074   3.179 -0.0395 -0.5492 -0.1797
 5111TIP3   OH236967   2.159   2.790   0.026 -0.4537 -0.2693  0.4909
 5111TIP3    H136968   2.249   2.789   0.059 -0.4871  1.6330  0.7564
 5111TIP3    H236969   2.105   2.797   0.104 -0.7136  0.6934  0.2380
 5112TIP3   OH236970   1.958   2.776   3.500 -0.4390  0.1463 -0.2576
 5112TIP3    H136971   1.873   2.766   3.456  0.2262  1.0669 -1.8187
 5112TIP3    H236972   1.971   2.870   3.506  0.7414  0.0127 -0.5561
 5113TIP3   OH236973   5.217   1.030   2.362  0.7701  0.3187  0.1934
 5113TIP3    H136974   5.253   1.040   2.274  0.4163  0.8938  0.1071
 5113TIP3    H236975   5.171   1.113   2.378 -0.0377 -0.1842  0.5165
 5114TIP3   OH236976   5.224   1.060   0.880 -0.1127  0.1594 -0.1323
 5114TIP3    H136977   5.244   1.154   0.885 -2.1400  0.6327 -0.0956
 5114TIP3    H236978   5.129   1.055   0.890  0.0541 -2.0042  0.9585
 5115TIP3   OH236979   4.583   1.932   2.148 -0.4268  0.6525 -0.1142
 5115TIP3    H136980   4.520   1.875   2.103  1.2822 -0.3101 -1.4638
 5115TIP3    H236981   4.540   1.957   2.230 -2.5777  0.1791 -1.0350
 5116TIP3   OH236982   5.558   6.517   0.309 -0.7469 -0.2239 -0.2882
 5116TIP3    H136983   5.622   6.512   0.238 -0.6291  0.4198 -0.2321
 5116TIP3    H236984   5.493   6.450   0.287 -0.1106 -0.8309 -0.3951
 5117TIP3   OH236985   6.184   6.191   3.001  0.5374  0.0138  0.1733
 5117TIP3    H136986   6.244   6.256   3.037  0.6058  0.7199 -1.1388
 5117TIP3    H236987   6.105   6.199   3.054 -0.0269  2.2961 -0.9072
 5118TIP3   OH236988   1.475   1.031   0.188  0.1865 -0.2988  0.5545
 5118TIP3    H136989   1.508   1.076   0.110  2.4164 -0.9221  1.0629
 5118TIP3    H236990   1.530   0.953   0.195 -0.4085 -0.5873  2.3934
 5119TIP3   OH236991   0.144   0.721   2.486 -0.1884  0.5229 -0.0388
 5119TIP3    H136992   0.217   0.765   2.529  0.8654 -1.2813  0.1307
 5119TIP3    H236993   0.169   0.719   2.394  0.1401 -0.3359  0.0570
 5120TIP3   OH236994   6.523   4.708   2.998  0.4004 -1.1059 -0.4043
 5120TIP3    H136995   6.476   4.760   2.933 -1.2764 -1.0598  0.7950
 5120TIP3    H236996   6.575   4.772   3.046 -1.7187 -0.4410  1.1210
 5121TIP3   OH236997   5.080   2.106   8.123  0.4786 -0.1246 -0.2129
 5121TIP3    H136998   5.055   2.100   8.216 -1.7631  2.3472 -0.5197
 5121TIP3    H236999   5.029   2.039   8.080 -1.2494  1.0098 -0.0355
 5122TIP3   OH237000   6.179   3.294   8.432 -0.2860 -0.3818  0.3737
 5122TIP3    H137001   6.252   3.354   8.420 -0.2030 -0.4426  0.5617
 5122TIP3    H237002   6.195   3.254   8.518  0.3250 -1.5707 -0.2643
 5123TIP3   OH237003   4.111   0.222   0.901 -0.3457 -0.4393  0.4456
 5123TIP3    H137004   4.166   0.147   0.882  0.2352 -0.3703  1.7851
 5123TIP3    H237005   4.052   0.228   0.825  0.5495 -1.3514 -0.3462
 5124TIP3   OH237006   3.000   3.135   2.654 -0.4818  0.3464 -0.1426
 5124TIP3    H137007   2.953   3.153   2.572 -0.7862 -2.6078 -0.7500
 5124TIP3    H237008   3.092   3.149   2.633 -0.6399  0.6280 -0.6624
 5125TIP3   OH237009   3.536   3.557   0.864 -0.0409  0.2851 -0.1721
 5125TIP3    H137010   3.626   3.526   0.862 -0.4712 -1.0514  0.4094
 5125TIP3    H237011   3.542   3.646   0.899  0.8563 -0.5900  2.0994
 5126TIP3   OH237012   1.566   0.102   2.902 -0.0665 -0.2000  0.3508
 5126TIP3    H137013   1.575   0.092   2.997  1.1940  0.2764  0.2944
 5126TIP3    H237014   1.519   0.023   2.874  0.0478 -0.6162  1.2953
 5127TIP3   OH237015   1.077   0.763   1.698  0.3302 -0.2696  0.0872
 5127TIP3    H137016   1.127   0.845   1.694  0.4338 -0.2769  0.9882
 5127TIP3    H237017   1.119   0.706   1.635  0.6270  0.1771 -0.1240
 5128TIP3   OH237018   6.488   2.669   2.976  1.0760 -0.2239  0.1902
 5128TIP3    H137019   6.480   2.729   3.050 -0.7559  0.9909 -0.9268
 5128TIP3    H237020   6.560   2.704   2.924  0.9861  0.1468  0.3126
 5129TIP3   OH237021   6.099   3.939   8.556 -0.3698 -0.5042 -0.3057
 5129TIP3    H137022   6.156   4.013   8.574 -0.4718 -0.0921 -1.6227
 5129TIP3    H237023   6.136   3.867   8.607  1.9844 -0.5486 -1.9680
 5130TIP3   OH237024   0.983   6.515   0.032  0.0888  0.8773  0.2809
 5130TIP3    H137025   0.924   6.476   0.096  1.3221  0.1931  1.0497
 5130TIP3    H237026   0.978   6.609   0.048 -1.0202  0.8532  0.1118
 5131TIP3   OH237027   2.359   0.879   8.074  0.0290  0.2773  0.2001
 5131TIP3    H137028   2.340   0.787   8.090 -1.2419  0.7196  1.4902
 5131TIP3    H237029   2.289   0.908   8.015 -0.3326  0.6991  0.8220
 5132TIP3   OH237030   5.513   0.001   0.325  0.4403 -0.0316  0.0075
 5132TIP3    H137031   5.544  -0.041   0.245  0.8433  1.5395 -0.6931
 5132TIP3    H237032   5.583   0.061   0.350  0.5411 -0.8573  1.8422
 5133TIP3   OH237033   5.820   5.000   7.212  0.1392  0.7483  0.4136
 5133TIP3    H137034   5.915   4.985   7.214  0.2253  1.2166 -0.0500
 5133TIP3    H237035   5.784   4.931   7.268  0.9125  1.8368  2.3570
 5134TIP3   OH237036   0.975   1.520   3.233 -0.2011 -0.1871 -0.8874
 5134TIP3    H137037   1.064   1.498   3.259 -1.1460 -0.6643  2.3817
 5134TIP3    H237038   0.955   1.601   3.280 -1.1287  0.6348 -2.5894
 5135TIP3   OH237039   6.556   0.721   0.600 -0.5840 -0.2104  0.3473
 5135TIP3    H137040   6.497   0.649   0.582  0.3531 -0.5874 -1.4188
 5135TIP3    H237041   6.615   0.723   0.525 -1.3527  3.2120 -0.3109
 5136TIP3   OH237042   0.063   5.602   1.106 -0.7799 -0.0395 -0.3716
 5136TIP3    H137043   0.137   5.542   1.107 -1.0275 -0.3386  1.1088
 5136TIP3    H237044  -0.011   5.549   1.077 -1.1091 -0.6271  1.4314
 5137TIP3   OH237045   3.003   5.615   1.415  0.3057  0.4992  0.4342
 5137TIP3    H137046   2.920   5.627   1.461 -1.7303 -1.0392 -2.5191
 5137TIP3    H237047   3.001   5.678   1.344 -0.0109 -1.7065 -1.6632
 5138TIP3   OH237048   4.184   2.161   6.987  0.4241 -0.1615  0.5300
 5138TIP3    H137049   4.092   2.157   6.959  0.9389 -2.7356 -1.1154
 5138TIP3    H237050   4.222   2.231   6.936 -0.2394 -0.2135 -0.0519
 5139TIP3   OH237051   6.415   2.985   8.221 -0.1969 -0.0202 -0.5950
 5139TIP3    H137052   6.495   3.006   8.173  0.9019  0.7481  1.4124
 5139TIP3    H237053   6.399   2.893   8.204  0.3280  0.1519 -2.1146
 5140TIP3   OH237054   2.754   3.440   7.276 -0.2650  0.1100  0.2921
 5140TIP3    H137055   2.662   3.465   7.284 -0.2748 -0.3049  1.5555
 5140TIP3    H237056   2.763   3.413   7.184 -2.0079 -2.2092  0.7198
 5141TIP3   OH237057   1.335   6.399   1.473 -0.2995 -0.0806 -0.0578
 5141TIP3    H137058   1.414   6.453   1.463  0.3809 -1.0662 -0.1722
 5141TIP3    H237059   1.360   6.333   1.537 -1.4188  0.2727  0.7755
 5142TIP3   OH237060   3.378   0.513   0.021 -0.2930  0.4740 -0.0774
 5142TIP3    H137061   3.448   0.482   0.079 -0.4309  0.9637  0.3551
 5142TIP3    H237062   3.298   0.476   0.058 -0.2725 -0.0424 -0.5413
 5143TIP3   OH237063   5.133   6.703   2.439 -0.2675  0.7323 -0.4974
 5143TIP3    H137064   5.155   6.635   2.503  0.1894  0.9430 -0.4252
 5143TIP3    H237065   5.181   6.678   2.360  0.2567  1.2083 -0.3341
 5144TIP3   OH237066   5.750   5.901   8.510  0.4090  0.3344  0.0156
 5144TIP3    H137067   5.717   5.926   8.424  0.1022  0.4917  0.1757
 5144TIP3    H237068   5.843   5.924   8.507  1.0309 -2.0003 -1.1539
 5145TIP3   OH237069   6.765   3.685   3.031 -0.4138 -0.1435 -0.4830
 5145TIP3    H137070   6.678   3.707   2.998 -0.8644  0.3955  0.9789
 5145TIP3    H237071   6.818   3.763   3.014 -0.3566 -0.2664 -0.8790
 5146TIP3   OH237072   3.279   5.326   8.515 -0.3464 -0.1822  0.3272
 5146TIP3    H137073   3.346   5.383   8.477 -1.3741  0.4986 -0.5368
 5146TIP3    H237074   3.325   5.245   8.537  0.7934  0.3472 -0.0274
 5147TIP3   OH237075   2.751   6.508   8.203  0.0451 -0.1138 -0.2691
 5147TIP3    H137076   2.682   6.495   8.268 -0.3892  0.5953 -0.5833
 5147TIP3    H237077   2.732   6.593   8.164  0.5504 -0.3421 -1.0309
 5148TIP3   OH237078   6.684   2.352   0.153  0.2213 -0.1605 -0.1860
 5148TIP3    H137079   6.759   2.299   0.182  0.2338  0.1223  0.3082
 5148TIP3    H237080   6.686   2.347   0.057  0.9402 -0.0604 -0.1776
 5149TIP3   OH237081   2.506   3.529   0.982  0.1318 -0.1656 -0.0779
 5149TIP3    H137082   2.578   3.479   0.944  0.1814 -0.6609  0.6463
 5149TIP3    H237083   2.514   3.516   1.076  0.9167  2.2616  0.2603
 5150TIP3   OH237084   0.490   0.956   1.872 -0.2353  0.1623 -0.0966
 5150TIP3    H137085   0.559   0.907   1.826  0.1398  1.6322 -1.1682
 5150TIP3    H237086   0.410   0.906   1.856  0.0191  0.2349 -1.7576
 5151TIP3   OH237087   2.625   1.195   1.724 -0.1755  0.6997  0.3337
 5151TIP3    H137088   2.576   1.113   1.724 -0.5928  0.8793 -2.2511
 5151TIP3    H237089   2.687   1.186   1.652 -2.6398  3.9262 -2.4922
 5152TIP3   OH237090   1.852   5.001   7.997 -0.1312 -0.1017 -0.0816
 5152TIP3    H137091   1.945   4.979   8.000 -0.4576 -1.5500  2.3942
 5152TIP3    H237092   1.815   4.939   7.935  0.5609  0.6654 -1.2994
 5153TIP3   OH237093   2.677   0.417   8.146  0.2884 -0.4854  0.1797
 5153TIP3    H137094   2.767   0.421   8.179  0.7082 -0.7494 -0.8893
 5153TIP3    H237095   2.686   0.417   8.051 -0.9296  1.3554 -0.0008
 5154TIP3   OH237096   3.161   4.770   2.140 -0.0769 -0.1801  0.6215
 5154TIP3    H137097   3.176   4.726   2.056 -1.2695  0.2793  0.1349
 5154TIP3    H237098   3.087   4.722   2.179  0.3537 -0.2778  1.3368
 5155TIP3   OH237099   1.068   4.332   0.435 -0.2958  0.2997  0.4522
 5155TIP3    H137100   1.015   4.405   0.468  0.2756  0.0495  2.0015
 5155TIP3    H237101   1.110   4.367   0.356 -2.0628  0.7812 -0.3156
 5156TIP3   OH237102   6.016   6.181   1.558 -0.6652  0.3335 -0.4129
 5156TIP3    H137103   5.937   6.183   1.504  0.0965  0.1223 -1.5877
 5156TIP3    H237104   6.047   6.091   1.551 -0.6749  0.2493  0.5803
 5157TIP3   OH237105   6.757   5.895   0.054 -0.3504 -0.0928 -0.2932
 5157TIP3    H137106   6.760   5.828  -0.015  0.4752  0.6231 -0.9830
 5157TIP3    H237107   6.818   5.962   0.024 -1.4259  1.1423  0.2240
 5158TIP3   OH237108   6.669   5.818   1.448 -0.0260 -0.4185  0.1930
 5158TIP3    H137109   6.689   5.908   1.474  0.2609 -0.1863 -0.7859
 5158TIP3    H237110   6.622   5.782   1.523  3.5645 -0.8498  2.4885
 5159TIP3   OH237111   6.720   0.645   2.152  0.1028 -1.3008 -0.3395
 5159TIP3    H137112   6.713   0.566   2.099 -2.8975 -2.3019  1.3321
 5159TIP3    H237113   6.724   0.614   2.242  0.1886  0.4307  0.2946
 5160TIP3   OH237114   5.192   1.595   0.720  0.1634 -0.7460 -0.0524
 5160TIP3    H137115   5.144   1.528   0.673  1.5085 -0.9000 -1.2733
 5160TIP3    H237116   5.281   1.561   0.726  0.4957  0.2147  0.7526
 5161TIP3   OH237117   0.325   1.649   2.137 -0.6476 -0.6136  0.4482
 5161TIP3    H137118   0.416   1.677   2.152 -0.5302 -0.4466 -0.4876
 5161TIP3    H237119   0.282   1.728   2.102 -0.4488 -1.4041 -1.7276
 5162TIP3   OH237120   0.134   3.676   2.635 -0.3517 -0.4773 -0.4686
 5162TIP3    H137121   0.092   3.739   2.575 -1.5327 -0.4708  0.3194
 5162TIP3    H237122   0.136   3.722   2.719  0.5004 -0.8025 -0.3108
 5163TIP3   OH237123   3.050   3.979   0.240  0.0517  0.3228 -0.3536
 5163TIP3    H137124   3.118   3.918   0.211  1.8618  1.2954  1.6048
 5163TIP3    H237125   3.002   4.001   0.160 -0.8798 -3.7120 -1.1588
 5164TIP3   OH237126   3.741   2.553   2.424  0.6212  0.5255 -0.1514
 5164TIP3    H137127   3.821   2.505   2.446  0.5407  1.1593  1.6979
 5164TIP3    H237128   3.772   2.639   2.394  0.6402  0.9954  1.1711
 5165TIP3   OH237129   1.620   1.658   2.334  0.2311  0.0415  0.4441
 5165TIP3    H137130   1.595   1.745   2.304 -1.4387 -0.6805 -0.4142
 5165TIP3    H237131   1.588   1.654   2.424  0.4551  0.3703  0.5384
 5166TIP3   OH237132   1.460   2.578   2.432 -0.5742 -0.4325  0.1265
 5166TIP3    H137133   1.378   2.562   2.478 -1.7609  1.2350 -1.2675
 5166TIP3    H237134   1.499   2.652   2.478 -1.3207  0.6458 -0.8916
 5167TIP3   OH237135   6.692   4.030   8.195 -0.0151  0.1443 -0.4715
 5167TIP3    H137136   6.762   4.017   8.259  0.1422  0.0265 -0.6663
 5167TIP3    H237137   6.653   4.114   8.219 -0.9516 -0.6164  0.7187
 5168TIP3   OH237138   2.552   4.824   1.128  0.3638 -0.1198 -0.2690
 5168TIP3    H137139   2.598   4.800   1.048 -0.0467 -0.3573 -0.4378
 5168TIP3    H237140   2.459   4.822   1.104  0.2738  0.6806 -0.0268
 5169TIP3   OH237141   3.818   3.538   1.763  0.4403  0.0651 -0.1401
 5169TIP3    H137142   3.791   3.625   1.793 -1.7706 -0.8994  0.9520
 5169TIP3    H237143   3.875   3.555   1.688 -0.2758  2.4340 -0.2472
 5170TIP3   OH237144   3.260   4.398   0.259  0.0673 -0.2202 -0.1595
 5170TIP3    H137145   3.240   4.446   0.339  0.8439 -1.2731  0.6930
 5170TIP3    H237146   3.271   4.307   0.287 -0.4924 -0.7702 -1.5923
 5171TIP3   OH237147   1.347   5.962   7.780 -0.0867 -0.2756  0.0130
 5171TIP3    H137148   1.332   5.935   7.690  0.3180  1.7382 -0.7069
 5171TIP3    H237149   1.322   6.054   7.782  3.1106  0.7225  1.0558
 5172TIP3   OH237150   6.771   3.044   8.359  0.0750 -0.0135 -0.1934
 5172TIP3    H137151   6.720   3.123   8.378  0.2789  0.4396 -1.4421
 5172TIP3    H237152   6.706   2.979   8.333  0.1547  1.0115 -3.3096
 5173TIP3   OH237153   6.742   0.569   8.307 -0.0651 -0.6701 -0.2832
 5173TIP3    H137154   6.690   0.648   8.293  0.1878 -0.2589  0.9411
 5173TIP3    H237155   6.679   0.497   8.302  0.0454 -0.6615 -3.6961
 5174TIP3   OH237156   4.831   2.710   1.005 -0.6302  0.4430 -0.8282
 5174TIP3    H137157   4.872   2.697   0.920  0.8075  1.8541 -0.3774
 5174TIP3    H237158   4.805   2.802   1.006 -4.2056 -0.4088 -1.2145
 5175TIP3   OH237159   6.732   5.340   0.632  0.2538 -0.3421 -0.4562
 5175TIP3    H137160   6.736   5.274   0.563 -0.1035  1.5709 -2.4303
 5175TIP3    H237161   6.640   5.363   0.639  0.5016  0.8535 -0.7710
 5176TIP3   OH237162   5.244   0.067   0.229  1.0697  0.2605  0.5496
 5176TIP3    H137163   5.258   0.159   0.206  0.2529  0.5047  0.9902
 5176TIP3    H237164   5.329   0.037   0.260  1.5568  0.6263 -0.4019
 5177TIP3   OH237165   3.931   4.122   2.105  0.7838  0.2549  0.3062
 5177TIP3    H137166   3.996   4.183   2.070  1.2809 -0.0024  0.7675
 5177TIP3    H237167   3.983   4.054   2.148  0.2838 -0.9635 -0.9292
 5178TIP3   OH237168   6.606   5.047   0.179  0.3234  0.1788  0.0972
 5178TIP3    H137169   6.652   5.120   0.137 -1.6985  1.2019 -0.4441
 5178TIP3    H237170   6.554   5.008   0.109  0.4403 -1.0337  0.6637
 5179TIP3   OH237171   3.281   2.031   7.484  0.1530  0.2045 -0.5626
 5179TIP3    H137172   3.240   2.108   7.445  0.1166 -0.3443 -1.6366
 5179TIP3    H237173   3.232   1.957   7.448  1.4606 -0.4156 -1.1017
 5180TIP3   OH237174   2.676   2.310   1.493  0.3161 -0.7626 -0.0851
 5180TIP3    H137175   2.724   2.387   1.523 -1.3273  0.4918 -0.5175
 5180TIP3    H237176   2.743   2.255   1.451  1.8324 -0.4356  1.7814
 5181TIP3   OH237177   2.622   3.200   2.771  0.4859 -1.1162 -0.9289
 5181TIP3    H137178   2.549   3.189   2.709 -0.3324 -0.5065 -0.1076
 5181TIP3    H237179   2.660   3.285   2.748  0.8647 -1.3777 -1.2772
 5182TIP3   OH237180   1.731   2.884   1.628 -0.5622 -0.2250 -0.2524
 5182TIP3    H137181   1.639   2.907   1.641 -0.2535  0.5603  0.5650
 5182TIP3    H237182   1.760   2.940   1.556 -0.3328  0.5566  0.4497
 5183TIP3   OH237183   6.121   4.018   2.045  1.3445  0.0120 -0.4970
 5183TIP3    H137184   6.213   3.994   2.035  0.6292 -2.5302 -1.5894
 5183TIP3    H237185   6.086   4.019   1.956 -0.2183 -1.5010  0.0471
 5184TIP3   OH237186   2.958   5.958   1.517  0.1755 -0.0631 -0.1247
 5184TIP3    H137187   2.949   6.029   1.454 -1.4680 -0.6009 -0.5459
 5184TIP3    H237188   2.883   5.968   1.576  0.4268 -0.9102  0.3526
 5185TIP3   OH237189   3.115   3.600   8.026 -0.0417 -0.5440  0.3147
 5185TIP3    H137190   3.132   3.663   8.095 -1.5279 -1.0018  1.1501
 5185TIP3    H237191   3.149   3.641   7.947  1.0036  0.3203  1.1804
 5186TIP3   OH237192   5.317   2.626   0.215  0.2914 -0.0715  0.2500
 5186TIP3    H137193   5.346   2.577   0.292  1.4198  0.9848  0.5323
 5186TIP3    H237194   5.260   2.566   0.168 -0.8558 -0.5898  2.1645
 5187TIP3   OH237195   2.676   1.302   7.141  0.0545 -0.2147 -0.2870
 5187TIP3    H137196   2.677   1.380   7.086  0.8908 -0.0038  0.0151
 5187TIP3    H237197   2.600   1.253   7.111  0.3802 -0.0086 -1.4955
 5188TIP3   OH237198   4.026   4.503   8.542  0.2186 -0.1555 -0.6279
 5188TIP3    H137199   4.044   4.496   8.449  0.3186  0.1816 -0.6333
 5188TIP3    H237200   4.108   4.533   8.581 -0.1164  0.6797 -0.5591
 5189TIP3   OH237201   3.587   2.583   0.741  0.4282 -0.0808  0.2330
 5189TIP3    H137202   3.545   2.663   0.770 -0.2912 -0.2205 -0.4097
 5189TIP3    H237203   3.623   2.604   0.654 -1.3407 -0.9550 -0.7567
 5190TIP3   OH237204   0.217   6.755   7.027 -0.0622 -0.3239  0.6376
 5190TIP3    H137205   0.169   6.770   7.108 -1.8592  0.5481 -0.5223
 5190TIP3    H237206   0.153   6.718   6.967  1.4539 -1.8207 -0.1561
 5191TIP3   OH237207   6.020   1.937   1.527 -0.2513 -0.7559 -0.2421
 5191TIP3    H137208   6.055   1.910   1.443 -1.4916  0.9087 -1.3583
 5191TIP3    H237209   5.980   1.858   1.563  0.5502 -1.5559 -1.0476
 5192TIP3   OH237210   1.110   1.436   8.087 -0.5236  0.7530  0.3548
 5192TIP3    H137211   1.094   1.522   8.127  2.2819  0.7520  1.7037
 5192TIP3    H237212   1.199   1.414   8.112  0.0513 -1.0750 -2.7681
 5193TIP3   OH237213   5.117   5.433   2.277 -0.2791  0.0428  0.0967
 5193TIP3    H137214   5.053   5.459   2.343  0.5969 -0.1295  1.0441
 5193TIP3    H237215   5.066   5.390   2.209 -1.3816  1.5110 -0.0454
 5194TIP3   OH237216   5.153   1.921   2.269  0.7346 -0.1306 -0.0793
 5194TIP3    H137217   5.074   1.970   2.289  0.9649 -0.5164  2.0726
 5194TIP3    H237218   5.217   1.988   2.243  0.0444  0.2964 -0.7043
 5195TIP3   OH237219   1.528   6.640   1.490  0.1660  0.2520  0.3328
 5195TIP3    H137220   1.559   6.721   1.532  0.8316  1.0307 -1.5416
 5195TIP3    H237221   1.591   6.623   1.421 -1.1270 -0.6999 -0.6663
 5196TIP3   OH237222   4.115   2.712   2.232  0.2522  0.1932 -0.2173
 5196TIP3    H137223   4.148   2.676   2.150 -0.0444 -0.6712  0.0254
 5196TIP3    H237224   4.184   2.771   2.262 -0.2901  1.7191 -1.8416
 5197TIP3   OH237225   4.103   3.947   1.146 -0.3033  0.5135  0.1903
 5197TIP3    H137226   4.021   3.898   1.139  0.5081 -0.8438 -0.3819
 5197TIP3    H237227   4.146   3.934   1.061  0.0037  2.1780  0.0476
 5198TIP3   OH237228   1.762   2.373   1.856 -0.5028  0.1815  0.4800
 5198TIP3    H137229   1.751   2.455   1.808  0.4647  0.6347  1.0032
 5198TIP3    H237230   1.801   2.399   1.940 -0.0716 -0.8148  0.6051
 5199TIP3   OH237231   6.678   2.662   7.422  0.0915 -0.2008  0.0512
 5199TIP3    H137232   6.643   2.613   7.347 -1.8562 -0.5516  1.1176
 5199TIP3    H237233   6.694   2.750   7.387 -1.3651 -0.1872 -0.6675
 5200TIP3   OH237234   0.027   6.350   1.766  0.1485  0.2222  0.3981
 5200TIP3    H137235   0.098   6.354   1.701  0.1419  1.5433  0.4304
 5200TIP3    H237236   0.061   6.295   1.836  1.0056  0.5156  0.2302
 5201TIP3   OH237237   6.800   0.021   0.948 -0.1743  0.3455 -0.3055
 5201TIP3    H137238   6.770  -0.070   0.949 -0.0702  0.3096  0.3339
 5201TIP3    H237239   6.793   0.048   0.857  0.4070 -0.5136 -0.6250
 5202TIP3   OH237240   1.247   0.101   2.271  0.1611 -0.3014 -0.3762
 5202TIP3    H137241   1.302   0.046   2.216  0.4538 -0.4213  0.0319
 5202TIP3    H237242   1.188   0.145   2.210  0.3553 -0.5771 -0.7643
 5203TIP3   OH237243   4.522   5.022   2.979 -0.2908 -0.2312  0.3140
 5203TIP3    H137244   4.440   5.069   2.988  0.4372  1.1172  0.1718
 5203TIP3    H237245   4.532   4.973   3.061 -1.0416 -0.1187  0.4754
 5204TIP3   OH237246   5.212   3.140   1.680 -0.2190  0.3964  0.2338
 5204TIP3    H137247   5.281   3.074   1.676  1.4248  2.0666 -0.0087
 5204TIP3    H237248   5.186   3.154   1.589  0.5492  1.1818  0.1229
 5205TIP3   OH237249   6.656   4.024   3.224 -0.3031  0.0894 -0.1493
 5205TIP3    H137250   6.616   3.938   3.236  1.2900 -0.8443 -1.1972
 5205TIP3    H237251   6.744   4.006   3.193  0.3831  2.1031  0.4342
 5206TIP3   OH237252   4.510   2.967   8.027 -0.1812 -0.0166 -0.0750
 5206TIP3    H137253   4.425   2.998   7.997 -0.2156 -2.2164 -2.5465
 5206TIP3    H237254   4.566   2.969   7.949  1.0705 -1.7360  0.6988
 5207TIP3   OH237255   4.843   3.413   0.842  0.5905  0.5617 -0.1247
 5207TIP3    H137256   4.928   3.450   0.863 -0.4685  2.7063  0.6741
 5207TIP3    H237257   4.793   3.419   0.924  0.9189 -4.7598  0.7922
 5208TIP3   OH237258   6.562   0.284   0.413  0.3850  0.1342 -0.1028
 5208TIP3    H137259   6.644   0.241   0.436  1.0805  2.6958  2.7839
 5208TIP3    H237260   6.587   0.373   0.388 -1.4959  1.3740  2.0387
 5209TIP3   OH237261   5.499   3.690   0.939  1.1149  0.1393 -0.8868
 5209TIP3    H137262   5.530   3.773   0.975  2.0503 -0.4720 -0.2562
 5209TIP3    H237263   5.545   3.623   0.989  0.3869 -0.7694 -1.4025
 5210TIP3   OH237264   1.555   4.368   2.347 -0.8977  0.2633 -0.0065
 5210TIP3    H137265   1.600   4.369   2.262 -0.2485  0.4283  0.3303
 5210TIP3    H237266   1.480   4.426   2.335 -0.8737  0.1959 -0.5067
 5211TIP3   OH237267   6.562   2.080   8.289  0.0665  0.3506  0.0486
 5211TIP3    H137268   6.590   2.024   8.216 -0.5016  0.9558 -0.6518
 5211TIP3    H237269   6.595   2.167   8.266  1.0436  0.3063  1.1868
 5212TIP3   OH237270   6.522   5.528   0.704 -0.1204 -0.9371 -0.1112
 5212TIP3    H137271   6.469   5.606   0.722 -1.2911 -1.5346 -0.7828
 5212TIP3    H237272   6.496   5.502   0.616  0.6323 -1.7910 -0.0912
 5213TIP3   OH237273   5.784   5.067   0.489  0.1391 -0.4012  0.4088
 5213TIP3    H137274   5.832   5.122   0.427 -2.8255  0.2534 -1.5625
 5213TIP3    H237275   5.788   5.116   0.571  0.5105  1.0212 -0.4061
 5214TIP3   OH237276   0.278   3.303   8.269  0.4246  0.0874  0.2998
 5214TIP3    H137277   0.341   3.308   8.198 -0.3013 -1.7282 -0.5341
 5214TIP3    H237278   0.314   3.237   8.329 -0.5171 -0.7825 -0.0589
 5215TIP3   OH237279   3.156   4.902   1.590 -0.2036  0.1602  0.2255
 5215TIP3    H137280   3.184   4.972   1.530 -2.7940  0.2333 -1.0388
 5215TIP3    H237281   3.145   4.825   1.535  2.4426 -1.3397  1.5782
 5216TIP3   OH237282   1.963   1.361   0.383  0.1568 -0.2861 -0.0737
 5216TIP3    H137283   1.991   1.450   0.406  1.2463 -0.4473 -0.7103
 5216TIP3    H237284   2.036   1.305   0.407  0.0546 -0.8295 -0.9798
 5217TIP3   OH237285   3.601   2.110   1.291  0.6398 -0.4140 -1.0001
 5217TIP3    H137286   3.657   2.185   1.269 -0.0829  0.3099 -0.4369
 5217TIP3    H237287   3.632   2.082   1.378 -0.3665  0.4972 -0.3241
 5218TIP3   OH237288   0.621   4.596   2.352  0.4089  0.3496  0.4715
 5218TIP3    H137289   0.667   4.639   2.279  1.1783  0.8444  1.2253
 5218TIP3    H237290   0.534   4.578   2.318  0.9016  0.1351 -0.7352
 5219TIP3   OH237291   0.210   6.859   1.961  0.5766  0.6023 -0.1812
 5219TIP3    H137292   0.180   6.773   1.992 -1.5174  0.6997 -1.8006
 5219TIP3    H237293   0.180   6.920   2.028  1.1245  0.2256  0.4289
 5220TIP3   OH237294   2.809   5.094   3.094  0.9831  0.4879 -0.1908
 5220TIP3    H137295   2.838   5.039   3.022  0.1508 -1.4554  0.8713
 5220TIP3    H237296   2.874   5.080   3.163 -0.2167 -0.7320  0.7604
 5221TIP3   OH237297   0.866   6.604   8.404  0.5563 -0.0823 -0.6260
 5221TIP3    H137298   0.850   6.603   8.498 -2.0977  0.3258 -0.9914
 5221TIP3    H237299   0.919   6.526   8.388  0.2841 -0.6593  1.1046
 5222TIP3   OH237300   0.009   0.386   3.103  0.2651  0.0509 -0.1052
 5222TIP3    H137301   0.001   0.425   3.016  0.0521  2.0833  0.7621
 5222TIP3    H237302   0.027   0.294   3.087  0.2602  0.3869 -2.2966
 5223TIP3   OH237303   5.264   2.411   3.256  0.3630 -0.2448  0.2127
 5223TIP3    H137304   5.232   2.321   3.263 -0.0534 -0.1781 -0.6776
 5223TIP3    H237305   5.184   2.464   3.247  0.6161  0.1913  0.4813
 5224TIP3   OH237306   6.299   5.520   7.511 -0.0592  0.0822 -0.0788
 5224TIP3    H137307   6.379   5.496   7.557  2.4649  0.9946 -3.5997
 5224TIP3    H237308   6.305   5.615   7.499 -0.7545 -0.0737 -1.9433
 5225TIP3   OH237309   4.247   6.765   2.528 -0.5653  0.2512 -0.3486
 5225TIP3    H137310   4.212   6.732   2.610 -1.0188  1.6803  0.0531
 5225TIP3    H237311   4.248   6.689   2.470 -1.1610 -0.5520  0.6759
 5226TIP3   OH237312   0.523   1.244   2.656  0.1077 -0.4015 -0.1059
 5226TIP3    H137313   0.559   1.327   2.685  0.1781 -0.2524 -0.6144
 5226TIP3    H237314   0.535   1.244   2.561 -2.0917  0.0816 -0.4400
 5227TIP3   OH237315   1.753   6.076   2.200 -0.5542  0.8601 -0.3882
 5227TIP3    H137316   1.825   6.084   2.262 -0.3374  1.8710 -0.7493
 5227TIP3    H237317   1.733   5.982   2.198 -0.2192  0.7502  0.7953
 5228TIP3   OH237318   5.628   4.631   2.361 -0.3821  0.2232  0.5811
 5228TIP3    H137319   5.658   4.550   2.402  0.1970 -0.3189 -0.8451
 5228TIP3    H237320   5.684   4.699   2.399 -0.0537 -0.2156  0.8940
 5229TIP3   OH237321   2.879   4.611   7.726  0.2335  0.9738 -0.4228
 5229TIP3    H137322   2.930   4.538   7.691 -2.1658 -1.2445  0.3725
 5229TIP3    H237323   2.835   4.648   7.650  1.3946  1.6110 -0.8190
 5230TIP3   OH237324   5.123   6.202   7.650 -0.2348 -0.8818 -0.0503
 5230TIP3    H137325   5.211   6.165   7.646  0.4619  0.4909  1.4636
 5230TIP3    H237326   5.072   6.136   7.697  0.9532 -0.1282  2.4951
 5231TIP3   OH237327   6.648   4.951   1.643  0.2781 -0.0027 -0.1143
 5231TIP3    H137328   6.733   4.994   1.634  0.4125 -0.2931 -0.2561
 5231TIP3    H237329   6.654   4.874   1.586  0.1909 -0.4229  0.4354
 5232TIP3   OH237330   1.036   2.508   2.737 -0.2336  0.3807 -0.0907
 5232TIP3    H137331   0.979   2.536   2.809 -0.4977  2.8744 -1.1825
 5232TIP3    H237332   0.977   2.487   2.666  0.1170  0.5454 -0.4346
 5233TIP3   OH237333   2.133   2.980   8.085 -0.7038 -0.8839  0.0942
 5233TIP3    H137334   2.119   3.023   8.001  2.5757  0.2886 -0.0044
 5233TIP3    H237335   2.113   3.048   8.150 -0.6576 -0.9382  0.1655
 5234TIP3   OH237336   0.639   0.255   8.611  0.2183  0.4044 -0.1857
 5234TIP3    H137337   0.611   0.334   8.565 -1.9776  0.8713  1.7263
 5234TIP3    H237338   0.565   0.194   8.599 -0.2394  0.4032  2.2332
 5235TIP3   OH237339   3.070   1.912   2.262  0.9131  0.0647  0.0587
 5235TIP3    H137340   3.080   1.932   2.355  0.4251  0.5049  0.0236
 5235TIP3    H237341   3.058   1.817   2.259  0.2540  0.1203  0.5167
 5236TIP3   OH237342   0.079   1.651   2.235 -0.3418 -0.9949  0.4178
 5236TIP3    H137343   0.025   1.640   2.157 -1.3361  0.8625  0.7959
 5236TIP3    H237344   0.168   1.658   2.200 -0.4025 -3.0350 -0.2898
 5237TIP3   OH237345   5.588   5.240   1.494  0.0126  0.0620 -0.1048
 5237TIP3    H137346   5.594   5.336   1.493 -1.5491  0.1783 -0.5407
 5237TIP3    H237347   5.534   5.220   1.570 -1.2815 -0.3372 -1.0918
 5238TIP3   OH237348   4.956   5.651   8.436  0.8818 -0.1148 -0.3885
 5238TIP3    H137349   4.914   5.575   8.396  0.2555  0.3945 -0.7151
 5238TIP3    H237350   4.984   5.620   8.523  0.0970 -0.5556 -0.2777
 5239TIP3   OH237351   6.740   4.727   1.495 -0.0486 -0.1526  0.0961
 5239TIP3    H137352   6.831   4.752   1.506 -0.1061  0.1801 -0.1650
 5239TIP3    H237353   6.724   4.733   1.401 -1.1797  2.8377  0.3617
 5240TIP3   OH237354   0.756   1.070   7.772 -0.1032  0.1520 -0.0867
 5240TIP3    H137355   0.690   1.139   7.778  0.0540  0.3508 -0.6049
 5240TIP3    H237356   0.834   1.108   7.813 -0.1320  0.1364 -0.0174
 5241TIP3   OH237357   4.313   1.059   0.723  0.3052  0.2434  0.3925
 5241TIP3    H137358   4.394   1.066   0.773 -0.1895  1.1157  1.1030
 5241TIP3    H237359   4.244   1.076   0.787 -0.3350  1.5591 -0.5948
 5242TIP3   OH237360   5.208   0.408   7.126 -0.3924  0.1170 -0.3764
 5242TIP3    H137361   5.300   0.414   7.151 -0.3316  0.0211 -0.5717
 5242TIP3    H237362   5.174   0.333   7.175 -0.9078  1.3974  1.3256
 5243TIP3   OH237363   1.205   4.951   2.217 -0.3081  0.0546 -0.0330
 5243TIP3    H137364   1.277   5.014   2.214 -0.3932  0.1648  0.1589
 5243TIP3    H237365   1.132   5.000   2.256 -0.4320 -0.1070 -0.0591
 5244TIP3   OH237366   2.472   0.812   1.222  0.0008  0.0471 -0.0401
 5244TIP3    H137367   2.426   0.875   1.277 -0.6397 -0.9235  0.5746
 5244TIP3    H237368   2.414   0.799   1.147 -0.8809 -1.3368  0.8378
 5245TIP3   OH237369   3.904   3.145   8.589  0.1296  0.3723 -1.1104
 5245TIP3    H137370   3.925   3.231   8.551  1.4477  1.0903  1.0829
 5245TIP3    H237371   3.830   3.162   8.648  0.3036 -0.0354 -0.7723
 5246TIP3   OH237372   4.277   4.792   8.242  0.4952  0.2908 -0.2033
 5246TIP3    H137373   4.252   4.754   8.158  0.5086 -0.6067  0.1938
 5246TIP3    H237374   4.249   4.884   8.236 -1.2121 -0.2067 -0.4998
 5247TIP3   OH237375   0.272   4.002   8.141 -0.5409  0.5526  0.3773
 5247TIP3    H137376   0.323   3.968   8.215 -0.7215  0.6696  0.5600
 5247TIP3    H237377   0.313   4.085   8.120  0.3275 -0.0862 -0.5216
 5248TIP3   OH237378   1.420   6.752   8.367 -0.3404 -0.6980  0.0535
 5248TIP3    H137379   1.450   6.691   8.300  0.0385 -1.5146  0.9344
 5248TIP3    H237380   1.450   6.838   8.338  0.5201 -1.1510 -0.4088
 5249TIP3   OH237381   2.588   1.192   0.715 -0.8898  0.2829 -0.1319
 5249TIP3    H137382   2.557   1.124   0.775  1.9145  0.3606  1.5463
 5249TIP3    H237383   2.683   1.180   0.711 -0.7122  1.6595 -2.9441
 5250TIP3   OH237384   6.085   0.233   1.983 -0.3882  0.5484 -0.0849
 5250TIP3    H137385   6.056   0.200   1.897 -0.8767 -0.6962  0.5348
 5250TIP3    H237386   6.005   0.266   2.024 -0.4105 -0.1500  0.4454
 5251TIP3   OH237387   2.485   5.595   1.447  0.1426 -0.2111  0.2689
 5251TIP3    H137388   2.394   5.567   1.451 -0.0316  0.1882 -0.5815
 5251TIP3    H237389   2.530   5.523   1.402  0.2552 -0.4195  0.7117
 5252TIP3   OH237390   1.680   0.938   1.983  0.3097  0.1474  0.3254
 5252TIP3    H137391   1.750   0.993   1.948 -0.1350  0.1117 -0.6457
 5252TIP3    H237392   1.616   1.001   2.017  0.3245  0.1994  0.2573
 5253TIP3   OH237393   0.220   6.372   1.467 -0.2180 -0.2725 -0.5124
 5253TIP3    H137394   0.255   6.434   1.403 -0.9649 -0.1614 -0.8320
 5253TIP3    H237395   0.290   6.361   1.531 -0.2590  1.3053 -0.1643
 5254TIP3   OH237396   4.062   3.521   1.567  0.3619 -0.2886 -0.6018
 5254TIP3    H137397   4.004   3.591   1.537  0.8957  0.5378  0.2498
 5254TIP3    H237398   4.055   3.454   1.499  0.5813  0.9959 -1.9295
 5255TIP3   OH237399   6.694   4.484   0.727 -0.4227 -0.7121  0.0975
 5255TIP3    H137400   6.622   4.540   0.698 -0.2362 -0.4837  0.0735
 5255TIP3    H237401   6.707   4.423   0.655 -0.1529 -0.3312 -0.1771
 5256TIP3   OH237402   3.027   0.178   2.668 -0.6783 -0.0274  0.3398
 5256TIP3    H137403   3.113   0.140   2.683 -0.6495 -0.0224  0.1859
 5256TIP3    H237404   3.006   0.156   2.577  0.2244  2.0228 -0.4454
 5257TIP3   OH237405   3.217   1.891   1.478 -0.1276  0.1327  0.3220
 5257TIP3    H137406   3.183   1.808   1.446  1.6398 -0.4501 -0.1500
 5257TIP3    H237407   3.139   1.943   1.499 -1.3292 -0.5822 -2.0348
 5258TIP3   OH237408   5.434   3.160   1.291  0.6726 -0.2552  0.0017
 5258TIP3    H137409   5.435   3.118   1.377 -0.3734  0.7199  0.5176
 5258TIP3    H237410   5.429   3.253   1.310  1.2317  0.0265 -1.1291
 5259TIP3   OH237411   3.971   5.151   7.561  0.0240  0.1822  0.3658
 5259TIP3    H137412   4.032   5.078   7.568 -0.2909 -0.0795  0.4448
 5259TIP3    H237413   3.899   5.116   7.508  0.7149  1.0115 -1.1696
 5260TIP3   OH237414   2.614   5.332   2.491 -0.1441 -0.1587  0.2509
 5260TIP3    H137415   2.611   5.282   2.572 -1.4755  3.7612  2.9484
 5260TIP3    H237416   2.548   5.292   2.435  1.1655 -3.2987  0.7273
 5261TIP3   OH237417   1.048   4.142   1.882  0.1945  0.4477 -0.0209
 5261TIP3    H137418   1.037   4.231   1.916  3.1988  0.8004  0.2925
 5261TIP3    H237419   1.062   4.154   1.788 -1.0127  0.1145 -0.2624
 5262TIP3   OH237420   2.757   1.270   8.566  0.4831  0.2006  0.3727
 5262TIP3    H137421   2.699   1.198   8.542  0.4227  0.4032 -0.1070
 5262TIP3    H237422   2.844   1.231   8.569  0.1836 -0.3848  2.3261
 5263TIP3   OH237423   2.666   4.342   1.244 -0.4357 -0.6263 -0.0235
 5263TIP3    H137424   2.620   4.352   1.161 -0.6510  0.9302  0.2570
 5263TIP3    H237425   2.671   4.430   1.280 -0.0038 -1.2161  1.4472
 5264TIP3   OH237426   1.848   0.862   7.586  0.4932 -0.3142  0.5302
 5264TIP3    H137427   1.767   0.819   7.612 -0.1002  1.3010  1.4756
 5264TIP3    H237428   1.917   0.810   7.627 -0.0479 -1.6452 -0.1982
 5265TIP3   OH237429   5.357   0.400   0.485  0.0924  0.3278 -0.2665
 5265TIP3    H137430   5.348   0.307   0.508  0.6071 -0.0752 -1.5738
 5265TIP3    H237431   5.270   0.437   0.497 -0.2009 -0.4083 -0.0769
 5266TIP3   OH237432   2.640   1.868   3.241 -0.3947  0.1907  0.4940
 5266TIP3    H137433   2.556   1.892   3.201 -0.5587  1.7988  1.7244
 5266TIP3    H237434   2.616   1.812   3.314 -0.3326  0.0248  0.3884
 5267TIP3   OH237435   3.135   3.748   7.814 -0.1610  0.2389 -0.1718
 5267TIP3    H137436   3.102   3.695   7.741 -0.7592 -0.6342  0.6990
 5267TIP3    H237437   3.077   3.824   7.817  0.1205  0.4903 -0.8464
 5268TIP3   OH237438   1.773   0.406   0.491 -0.8454 -0.0981  0.1093
 5268TIP3    H137439   1.808   0.385   0.578 -1.3868 -0.6183  0.2014
 5268TIP3    H237440   1.679   0.395   0.499 -0.8606 -0.6172 -0.6781
 5269TIP3   OH237441   4.000   6.536   2.323 -0.4049 -0.2318  0.2346
 5269TIP3    H137442   3.967   6.594   2.392  0.6282  0.0434  0.5151
 5269TIP3    H237443   3.972   6.578   2.241 -0.9817 -0.1548  0.4663
 5270TIP3   OH237444   0.427   4.965   7.983 -0.5354 -0.4246 -0.3420
 5270TIP3    H137445   0.351   4.913   7.959  0.5847 -2.4191  0.1210
 5270TIP3    H237446   0.433   4.956   8.078  0.2094 -0.2419 -0.3600
 5271TIP3   OH237447   5.926   4.545   2.305  0.2176  0.6052 -0.1000
 5271TIP3    H137448   5.910   4.621   2.250  1.8970  0.9602 -0.1404
 5271TIP3    H237449   5.880   4.473   2.261 -0.2715  1.3254 -0.7822
 5272TIP3   OH237450   2.600   5.856   2.448 -0.1976 -0.3063 -0.2638
 5272TIP3    H137451   2.681   5.855   2.499  0.3931 -0.4568 -1.1851
 5272TIP3    H237452   2.628   5.841   2.358 -1.2129  0.0845 -0.6578
 5273TIP3   OH237453   2.577   6.119   3.612  0.6218  0.5297  0.2366
 5273TIP3    H137454   2.500   6.176   3.615  0.4699  0.4260 -0.9938
 5273TIP3    H237455   2.545   6.035   3.645  1.1262  1.3782  3.1439
 5274TIP3   OH237456   6.797   1.895   8.535  0.1220  0.3260 -0.0008
 5274TIP3    H137457   6.708   1.901   8.572  0.2482  1.3775  0.1495
 5274TIP3    H237458   6.812   1.801   8.526 -0.3975  0.0711  1.4642
 5275TIP3   OH237459   1.570   6.178   8.236  0.8648  0.1084  0.1716
 5275TIP3    H137460   1.570   6.083   8.222  0.5072  0.1137  0.1126
 5275TIP3    H237461   1.514   6.190   8.314  0.3398  0.3236 -0.2349
 5276TIP3   OH237462   2.991   1.399   2.820 -0.4036  0.0105  0.2289
 5276TIP3    H137463   2.972   1.493   2.815  2.4283  0.6179 -0.8383
 5276TIP3    H237464   3.047   1.390   2.897 -1.1293 -0.9481  0.6700
 5277TIP3   OH237465   6.066   6.384   2.360  0.6849 -0.4405 -0.0018
 5277TIP3    H137466   6.095   6.342   2.441  1.7550  0.8445  0.3230
 5277TIP3    H237467   6.139   6.372   2.300  0.6617  0.2179 -0.1641
 5278TIP3   OH237468   6.471   0.939   0.165 -0.9730  0.4695 -0.2195
 5278TIP3    H137469   6.472   0.849   0.199  2.6310  0.9412  1.3504
 5278TIP3    H237470   6.521   0.934   0.084 -0.3796  1.0918  0.0967
 5279TIP3   OH237471   3.306   5.514   0.460  0.3950 -0.1495 -0.4683
 5279TIP3    H137472   3.335   5.527   0.370 -0.3677 -0.1729 -0.7221
 5279TIP3    H237473   3.212   5.500   0.454  0.0704  1.4001  0.4832
 5280TIP3   OH237474   5.288   6.886   1.795  0.3119 -0.4212  0.1160
 5280TIP3    H137475   5.214   6.884   1.856 -0.6441  0.7263 -0.9706
 5280TIP3    H237476   5.361   6.849   1.846 -1.0970 -2.0952  1.0334
 5281TIP3   OH237477   4.786   6.717   1.172  0.0034  0.5822  0.6025
 5281TIP3    H137478   4.744   6.776   1.234 -0.4744  2.9173 -1.7386
 5281TIP3    H237479   4.721   6.650   1.154  0.0774 -0.0071  2.3887
 5282TIP3   OH237480   5.989   5.393   7.326 -0.5666 -0.0920  0.0286
 5282TIP3    H137481   6.023   5.479   7.299 -1.0820  0.1215  0.0492
 5282TIP3    H237482   5.997   5.339   7.247 -2.3722  0.6217 -0.7021
 5283TIP3   OH237483   0.980   0.724   7.887 -0.6560 -0.3789  0.7381
 5283TIP3    H137484   1.071   0.749   7.873 -0.5644 -0.8053  0.5594
 5283TIP3    H237485   0.950   0.779   7.959 -0.4006  0.1057  0.4760
 5284TIP3   OH237486   5.634   5.844   2.863  0.5206 -0.0282 -0.5178
 5284TIP3    H137487   5.711   5.900   2.853  1.2720 -0.9108  0.1686
 5284TIP3    H237488   5.617   5.845   2.958  0.4965 -0.8883 -0.5064
 5285TIP3   OH237489   3.433   6.445   8.662 -0.4100 -0.1625  0.3576
 5285TIP3    H137490   3.504   6.395   8.703  0.7403  1.3665  0.3377
 5285TIP3    H237491   3.468   6.471   8.577 -0.7033  1.2377  0.6454
 5286TIP3   OH237492   0.080   5.958   0.704 -0.2105  0.0043 -0.1124
 5286TIP3    H137493   0.090   5.900   0.780 -1.0109  0.1427  0.1107
 5286TIP3    H237494  -0.011   5.948   0.678  0.0785 -0.1086 -1.1282
 5287TIP3   OH237495   2.316   2.656   0.308 -0.1180 -0.0752 -0.5787
 5287TIP3    H137496   2.279   2.704   0.234  0.6112  0.2886 -0.7118
 5287TIP3    H237497   2.240   2.633   0.362 -0.4421  2.1181  0.0185
 5288TIP3   OH237498   1.636   1.016   0.811 -0.3280 -0.0768 -0.2100
 5288TIP3    H137499   1.677   1.055   0.889  0.1970  2.1599 -1.5196
 5288TIP3    H237500   1.617   0.926   0.837  0.2259  0.4608  2.3501
 5289TIP3   OH237501   6.783   6.351   0.649  0.1275 -0.4847 -0.2703
 5289TIP3    H137502   6.752   6.277   0.596 -0.9714 -0.0595 -0.2557
 5289TIP3    H237503   6.779   6.319   0.739 -1.6124 -0.0340 -0.1377
 5290TIP3   OH237504   6.607   0.825   7.713  0.4643 -0.0753 -0.0292
 5290TIP3    H137505   6.684   0.771   7.691 -0.6067 -1.4401 -0.5656
 5290TIP3    H237506   6.605   0.892   7.645  1.2605  0.0703  0.0772
 5291TIP3   OH237507   5.604   1.200   1.944  0.4716 -0.2326  0.6578
 5291TIP3    H137508   5.676   1.148   1.908 -0.6623 -0.6309 -1.1782
 5291TIP3    H237509   5.525   1.152   1.918 -0.5513  1.5217  0.3672
 5292TIP3   OH237510   4.998   5.105   8.143 -0.0737  0.4202 -0.6034
 5292TIP3    H137511   5.081   5.102   8.095  0.1258 -0.7851 -0.2398
 5292TIP3    H237512   5.009   5.175   8.207  0.2144  1.0512 -1.3340
 5293TIP3   OH237513   5.399   1.879   0.407  0.0140 -0.4357 -0.3961
 5293TIP3    H137514   5.492   1.868   0.427  0.3917 -0.8419 -2.2572
 5293TIP3    H237515   5.355   1.868   0.492  1.6423 -0.2577  0.5067
 5294TIP3   OH237516   4.066   5.927   8.538  0.1459 -0.2419 -0.0743
 5294TIP3    H137517   4.037   5.866   8.606  0.5776  0.0829  0.4082
 5294TIP3    H237518   4.159   5.908   8.527  0.8357  1.7644  1.6446
 5295TIP3   OH237519   3.828   0.756   1.067  0.3267  0.4851 -0.6393
 5295TIP3    H137520   3.852   0.849   1.070  3.3389 -0.1793 -1.1020
 5295TIP3    H237521   3.889   0.714   1.127 -2.8330 -0.9659  1.7989
 5296TIP3   OH237522   6.764   4.649   2.771 -0.5858 -0.2818  0.8499
 5296TIP3    H137523   6.806   4.663   2.856 -0.9275  0.6751  0.8707
 5296TIP3    H237524   6.772   4.733   2.726  0.9609 -1.1927 -0.6984
 5297TIP3   OH237525   4.623   3.713   8.331 -0.3626  0.3543  0.2741
 5297TIP3    H137526   4.593   3.803   8.314 -0.5815  0.0415 -1.0486
 5297TIP3    H237527   4.552   3.674   8.382 -1.0520  0.4263 -0.6021
 5298TIP3   OH237528   4.828   4.318   0.246  0.6244 -0.4059 -0.6127
 5298TIP3    H137529   4.906   4.268   0.223  0.4970 -0.1194 -1.6798
 5298TIP3    H237530   4.838   4.334   0.340  0.8664 -2.0753 -0.3124
 5299TIP3   OH237531   1.568   3.727   2.415  0.4249 -0.4042 -0.6222
 5299TIP3    H137532   1.576   3.822   2.402  0.9243 -0.2700  0.5624
 5299TIP3    H237533   1.550   3.693   2.327 -0.8527  0.8874 -0.9176
 5300TIP3   OH237534   3.000   0.087   0.768 -0.2572  0.1557 -0.0753
 5300TIP3    H137535   2.925   0.036   0.797  0.6449 -0.2982  1.5497
 5300TIP3    H237536   3.030   0.042   0.689 -0.7756 -0.5572  0.1254
 5301TIP3   OH237537   0.503   0.063   8.249 -0.5993  0.1636  0.0097
 5301TIP3    H137538   0.591   0.056   8.213 -0.2801  0.3147  0.7404
 5301TIP3    H237539   0.481   0.156   8.242 -0.3074  0.2914  0.7174
 5302TIP3   OH237540   6.034   6.408   8.558  0.0351 -0.4753  0.1333
 5302TIP3    H137541   5.943   6.379   8.568 -0.5295  1.4408  1.0789
 5302TIP3    H237542   6.040   6.436   8.467 -1.1624  1.8417  0.6921
 5303TIP3   OH237543   1.883   2.291   8.010  0.1939 -0.4002  0.1085
 5303TIP3    H137544   1.864   2.199   7.988 -2.0939 -0.0628  0.4272
 5303TIP3    H237545   1.819   2.341   7.959 -0.5068  0.8360  2.1151
 5304TIP3   OH237546   4.554   1.481   8.388  0.5559  0.8773  0.8119
 5304TIP3    H137547   4.492   1.504   8.457  0.0042  1.3570  0.1744
 5304TIP3    H237548   4.515   1.517   8.308 -0.2981 -2.0947 -0.2393
 5305TIP3   OH237549   2.854   1.118   7.899 -0.1020 -0.6266 -0.1719
 5305TIP3    H137550   2.781   1.145   7.843  0.7170 -1.4900 -1.6830
 5305TIP3    H237551   2.887   1.038   7.860  0.5099 -1.2667  1.5586
 5306TIP3   OH237552   3.026   1.724   1.786  0.3718  0.1170  0.0714
 5306TIP3    H137553   3.035   1.806   1.836  0.6057  2.3649 -3.3300
 5306TIP3    H237554   3.114   1.708   1.751  0.1781 -1.3068  0.1755
 5307TIP3   OH237555   6.473   2.509   2.429  0.7249  0.7646  0.4985
 5307TIP3    H137556   6.530   2.558   2.489  0.4405  0.6195  0.8974
 5307TIP3    H237557   6.474   2.560   2.348  3.4180 -0.5237 -0.3959
 5308TIP3   OH237558   2.681   2.570   2.631 -0.1925 -0.0007  0.7817
 5308TIP3    H137559   2.720   2.635   2.690  1.6273 -1.6463  1.5267
 5308TIP3    H237560   2.595   2.552   2.670 -0.7838  1.9659  0.4984
 5309TIP3   OH237561   5.014   1.425   0.632  0.3022  0.1996 -0.0553
 5309TIP3    H137562   5.041   1.335   0.615 -1.7582 -0.5315  0.2663
 5309TIP3    H237563   4.919   1.421   0.638  0.2418  2.1520  1.4427
 5310TIP3   OH237564   2.972   2.020   0.986 -0.2159 -0.2129 -0.0643
 5310TIP3    H137565   2.956   1.938   0.939 -1.3084 -0.4666  0.7062
 5310TIP3    H237566   3.067   2.029   0.987  0.1827 -3.1023  2.4783
 5311TIP3   OH237567   4.483   4.969   7.708 -0.0095 -0.5389  0.7486
 5311TIP3    H137568   4.471   4.883   7.747  0.8670 -1.2345 -0.4299
 5311TIP3    H237569   4.547   4.955   7.638 -2.2357  0.4333 -1.6217
 5312TIP3   OH237570   5.763   5.103   0.991  0.0571 -0.5661 -0.3271
 5312TIP3    H137571   5.780   5.190   1.029 -1.6524  0.0674 -0.9201
 5312TIP3    H237572   5.675   5.080   1.023  0.6244 -2.2734  0.1285
 5313TIP3   OH237573   6.017   1.837   0.082 -0.2988 -0.1683  0.5963
 5313TIP3    H137574   5.939   1.861   0.133 -0.1978  0.6003  0.4072
 5313TIP3    H237575   5.989   1.844  -0.009  0.3584  1.5250  0.4831
 5314TIP3   OH237576   2.280   5.004   0.851 -0.2220 -0.1782  0.0821
 5314TIP3    H137577   2.307   4.939   0.916 -0.5315  0.0213  0.4119
 5314TIP3    H237578   2.215   5.057   0.896 -2.0917 -1.3907 -1.0509
 5315TIP3   OH237579   0.393   2.916   7.582  0.5230 -0.4881 -1.0801
 5315TIP3    H137580   0.480   2.957   7.576  1.4508 -1.9970  0.7812
 5315TIP3    H237581   0.338   2.968   7.524  1.7925  2.8093  0.4169
 5316TIP3   OH237582   6.350   6.027   3.225  0.4387 -0.2879 -0.5474
 5316TIP3    H137583   6.334   5.933   3.230 -0.1055 -0.3021 -1.9412
 5316TIP3    H237584   6.396   6.049   3.306 -0.7414 -1.4802  0.4917
 5317TIP3   OH237585   2.383   0.576   1.724 -0.0723 -0.0812  0.1460
 5317TIP3    H137586   2.434   0.617   1.654 -1.9801  0.4085 -1.0303
 5317TIP3    H237587   2.416   0.486   1.728  0.3609  0.0003 -1.0891
 5318TIP3   OH237588   6.644   1.279   1.085 -0.0919 -0.1464 -0.3507
 5318TIP3    H137589   6.639   1.195   1.131 -0.5309  0.2223  0.2996
 5318TIP3    H237590   6.659   1.343   1.155 -2.4089  0.6350 -0.4792
 5319TIP3   OH237591   6.579   3.994   1.256 -0.2727  0.0685  0.6518
 5319TIP3    H137592   6.552   3.978   1.347 -1.6583 -1.2674  0.0480
 5319TIP3    H237593   6.666   3.955   1.251 -0.4681 -0.4814  1.2412
 5320TIP3   OH237594   1.834   1.442   1.506  0.5765 -0.3814 -0.4460
 5320TIP3    H137595   1.871   1.448   1.417  2.1703 -0.2133  0.1964
 5320TIP3    H237596   1.740   1.456   1.494  0.8464  0.2752 -2.0340
 5321TIP3   OH237597   0.554   2.931   1.688 -0.3614 -0.1920 -0.3571
 5321TIP3    H137598   0.558   2.837   1.669 -0.6960 -0.2969  0.0807
 5321TIP3    H237599   0.582   2.973   1.607  1.5544 -0.7079 -0.0367
 5322TIP3   OH237600   4.412   1.936   0.715  0.4662  0.0686 -0.1061
 5322TIP3    H137601   4.468   2.006   0.682 -0.2618  0.7423  0.0375
 5322TIP3    H237602   4.471   1.877   0.760  1.0664  0.7572  0.0355
 5323TIP3   OH237603   4.794   3.285   0.303 -0.2735  0.1846 -0.0948
 5323TIP3    H137604   4.886   3.259   0.309 -0.0863  0.9250  0.3902
 5323TIP3    H237605   4.754   3.249   0.382 -0.1314  0.8603  0.2992
 5324TIP3   OH237606   6.605   2.674   7.681 -0.2050 -0.7456  0.1637
 5324TIP3    H137607   6.540   2.608   7.704 -1.0421  0.4262  1.3358
 5324TIP3    H237608   6.642   2.644   7.597 -1.7851 -1.7793 -0.1986
 5325TIP3   OH237609   0.774   6.392   1.266 -0.0305  0.0383 -0.1353
 5325TIP3    H137610   0.734   6.478   1.252  2.7230  1.2488 -1.2975
 5325TIP3    H237611   0.700   6.332   1.277 -2.0970  2.1126 -1.8777
 5326TIP3   OH237612   5.102   0.316   1.341  0.0571  0.6403  0.1115
 5326TIP3    H137613   5.064   0.328   1.428 -2.8719  0.4566 -1.0444
 5326TIP3    H237614   5.136   0.402   1.318 -0.5440  1.0773  0.8202
 5327TIP3   OH237615   4.033   3.123   2.259  0.8363  0.5313  0.0428
 5327TIP3    H137616   4.127   3.121   2.277  1.2506 -1.8680 -1.8102
 5327TIP3    H237617   4.026   3.093   2.168 -1.7325  0.7520  0.0953
 5328TIP3   OH237618   6.879   6.756   8.542 -0.3342 -0.0102 -0.0012
 5328TIP3    H137619   6.867   6.851   8.543  0.5696  0.1596  2.7309
 5328TIP3    H237620   6.889   6.732   8.634  2.8305 -2.2702 -0.7531
 5329TIP3   OH237621   3.088   1.604   8.122  0.9621 -0.4024 -0.1896
 5329TIP3    H137622   3.094   1.581   8.029 -2.5942 -0.2596 -0.5642
 5329TIP3    H237623   3.054   1.693   8.123 -0.1629 -0.8224  1.2480
 5330TIP3   OH237624   3.685   5.529   2.535 -0.1465  0.4442  0.6431
 5330TIP3    H137625   3.704   5.499   2.623  2.4967 -1.1584 -0.3555
 5330TIP3    H237626   3.681   5.450   2.482  1.0499  1.4781 -1.1074
 5331TIP3   OH237627   2.288   4.152   8.428 -0.2642  0.5597  0.0119
 5331TIP3    H137628   2.312   4.147   8.335 -0.7526 -0.3202 -0.0813
 5331TIP3    H237629   2.364   4.191   8.471  1.0630 -1.4888 -0.3692
 5332TIP3   OH237630   4.188   5.546   2.521 -0.3938  0.1136  0.3761
 5332TIP3    H137631   4.122   5.597   2.474  0.3899 -0.1522 -1.0874
 5332TIP3    H237632   4.261   5.607   2.534 -0.6353  0.2069  1.3390
 5333TIP3   OH237633   4.216   5.984   8.178 -0.3994 -0.6815 -0.5832
 5333TIP3    H137634   4.290   5.973   8.238 -2.3042 -3.0110  1.5705
 5333TIP3    H237635   4.154   6.038   8.226 -1.3681 -1.3114 -1.1089
 5334TIP3   OH237636   2.724   6.529   7.294 -0.3727 -0.2323  0.0572
 5334TIP3    H137637   2.751   6.570   7.212 -1.0759 -1.5464 -0.8649
 5334TIP3    H237638   2.790   6.462   7.311 -0.5667 -0.3868  0.2210
 5335TIP3   OH237639   3.297   4.435   8.675  0.7893  0.2848 -0.2584
 5335TIP3    H137640   3.297   4.409   8.767  2.6689 -0.4883 -0.4283
 5335TIP3    H237641   3.228   4.382   8.635 -0.4424  1.0508  0.7839
 5336TIP3   OH237642   0.342   0.454   8.660  0.2302  0.3104 -0.2718
 5336TIP3    H137643   0.393   0.500   8.593 -1.0109  0.3005 -1.2467
 5336TIP3    H237644   0.276   0.406   8.611 -1.1987  0.9117  0.9981
 5337TIP3   OH237645   2.689   5.240   8.518 -0.0653  0.0696  0.6363
 5337TIP3    H137646   2.702   5.330   8.547 -3.4475  0.2242  2.0910
 5337TIP3    H237647   2.701   5.187   8.597  1.3537 -0.7494 -0.0901
 5338TIP3   OH237648   5.216   4.823   7.732 -0.1423 -0.3301 -0.2755
 5338TIP3    H137649   5.227   4.735   7.770  0.3024  0.6076  1.9575
 5338TIP3    H237650   5.122   4.838   7.733 -0.2680 -0.9420 -1.1587
 5339TIP3   OH237651   5.925   6.232   2.131  0.0976  0.1658 -0.3938
 5339TIP3    H137652   5.974   6.302   2.088  1.6295 -0.5630  0.1002
 5339TIP3    H237653   5.989   6.163   2.146 -1.3220 -1.2865 -0.6914
 5340TIP3   OH237654   2.469   1.493   2.360 -0.3407  0.0757  0.6424
 5340TIP3    H137655   2.398   1.514   2.299  1.3835  1.1194 -1.1094
 5340TIP3    H237656   2.528   1.569   2.356  2.0515 -1.6896  0.2574
 5341TIP3   OH237657   5.020   4.326   2.043 -0.5531  0.5344 -0.1081
 5341TIP3    H137658   4.944   4.380   2.020 -0.8749 -0.2978 -1.1065
 5341TIP3    H237659   4.982   4.248   2.083 -0.1913  0.4100 -0.0035
 5342TIP3   OH237660   5.863   4.411   8.582  0.2321 -0.0700  0.4041
 5342TIP3    H137661   5.946   4.447   8.613 -0.4622  0.9842  1.0724
 5342TIP3    H237662   5.859   4.323   8.620  0.8410  0.0318  0.7121
 5343TIP3   OH237663   2.077   2.796   1.554  0.1502  0.0171  0.9950
 5343TIP3    H137664   2.044   2.730   1.615 -1.6017 -0.0111  0.0785
 5343TIP3    H237665   2.172   2.796   1.568  0.1144 -2.1286  1.5938
 5344TIP3   OH237666   3.468   2.822   1.305 -0.2200  0.2969  0.3234
 5344TIP3    H137667   3.519   2.796   1.229 -0.9528  1.0904 -0.4595
 5344TIP3    H237668   3.473   2.918   1.306  0.3255  0.2700  1.6614
 5345TIP3   OH237669   5.612   3.882   7.675  0.7140  0.1756  0.1423
 5345TIP3    H137670   5.522   3.862   7.649  0.8011  1.4937 -1.3320
 5345TIP3    H237671   5.606   3.965   7.723  1.1185  0.1780  0.1954
 5346TIP3   OH237672   4.085   3.583   1.248  0.0410  0.5255 -0.2434
 5346TIP3    H137673   4.175   3.611   1.266  0.6210 -0.7955 -0.9931
 5346TIP3    H237674   4.071   3.509   1.307 -0.0125 -0.2474 -1.2148
 5347TIP3   OH237675   3.142   5.367   1.647  0.7320 -0.3444  0.3972
 5347TIP3    H137676   3.210   5.362   1.580  0.6053 -1.8977  0.3555
 5347TIP3    H237677   3.189   5.389   1.727  1.3690 -1.8333  0.4589
 5348TIP3   OH237678   5.166   4.452   7.301 -0.2222  0.1421  0.3823
 5348TIP3    H137679   5.163   4.502   7.219  2.7503 -0.6581 -0.3427
 5348TIP3    H237680   5.204   4.368   7.277  0.4996 -0.2211  2.5313
 5349TIP3   OH237681   5.608   1.281   2.217  0.0832 -0.5334  0.1927
 5349TIP3    H137682   5.587   1.193   2.247 -2.1014 -0.1618 -0.0591
 5349TIP3    H237683   5.577   1.284   2.126 -0.8123  0.7739  0.5067
 5350TIP3   OH237684   0.244   5.777   0.165 -0.9838 -0.3767 -0.2531
 5350TIP3    H137685   0.202   5.698   0.130 -2.0570  0.1705 -0.2416
 5350TIP3    H237686   0.335   5.770   0.136 -1.9821  0.5486 -4.1893
 5351TIP3   OH237687   4.459   0.171   1.898  0.1526  0.4629 -0.5872
 5351TIP3    H137688   4.525   0.114   1.937 -1.2921 -0.5901  0.4783
 5351TIP3    H237689   4.472   0.164   1.804 -0.1259 -1.9063 -0.5159
 5352TIP3   OH237690   2.812   3.269   7.957 -0.3810  0.4261 -0.2658
 5352TIP3    H137691   2.878   3.338   7.958  0.1247 -0.0502 -0.2996
 5352TIP3    H237692   2.849   3.201   7.901  0.4470 -1.1334  2.0325
 5353TIP3   OH237693   5.327   4.912   0.965  0.2582  0.3690 -0.0268
 5353TIP3    H137694   5.246   4.960   0.980  0.3324  0.5658 -0.2541
 5353TIP3    H237695   5.309   4.857   0.889  0.5703  0.9614 -0.5441
 5354TIP3   OH237696   2.682   4.088   2.817  0.0759  0.5180  0.6872
 5354TIP3    H137697   2.751   4.068   2.754 -0.6187  2.5247 -0.7975
 5354TIP3    H237698   2.642   4.003   2.836  2.4154 -0.5965  1.0220
 5355TIP3   OH237699   2.763   0.213   2.748 -0.3991 -0.4295 -0.0138
 5355TIP3    H137700   2.858   0.206   2.740 -0.2634  0.8036  0.3784
 5355TIP3    H237701   2.748   0.240   2.839 -1.0479  0.6206 -0.4243
 5356TIP3   OH237702   1.984   5.769   2.585 -0.6268 -0.3258 -0.1280
 5356TIP3    H137703   1.929   5.693   2.605  0.6642 -1.5311 -0.9286
 5356TIP3    H237704   2.063   5.756   2.637 -0.2423  0.2824 -0.5408
 5357TIP3   OH237705   3.505   5.957   8.143  0.0919 -0.7221  0.5294
 5357TIP3    H137706   3.493   6.052   8.141 -0.9591 -0.8424  0.6904
 5357TIP3    H237707   3.537   5.935   8.055 -1.7457 -0.4713 -0.2391
 5358TIP3   OH237708   2.070   5.155   1.609 -0.0479 -0.2433 -0.6066
 5358TIP3    H137709   1.987   5.201   1.592  0.4207  1.0128  0.3439
 5358TIP3    H237710   2.131   5.192   1.545  0.7937  1.8889  1.2620
 5359TIP3   OH237711   2.439   1.031   3.546  0.4581 -0.2873  0.0453
 5359TIP3    H137712   2.457   1.063   3.458  0.2616  0.0941  0.1423
 5359TIP3    H237713   2.347   1.005   3.545  0.7926 -1.5260 -0.2328
 5360TIP3   OH237714   0.123   5.556   0.049  0.5987 -0.0167  0.3196
 5360TIP3    H137715   0.167   5.481   0.009  2.4022  0.1908  1.7798
 5360TIP3    H237716   0.032   5.529   0.057  0.8537 -1.3229 -0.8715
 5361TIP3   OH237717   0.401   3.967   0.141 -0.1680  0.1394  0.3848
 5361TIP3    H137718   0.433   4.009   0.221 -0.0184  0.5416  0.1174
 5361TIP3    H237719   0.325   3.916   0.169 -1.8823  2.4957  0.3647
 5362TIP3   OH237720   6.712   6.509   8.575  0.1814  0.5329  0.1090
 5362TIP3    H137721   6.667   6.444   8.628  1.9348 -0.6473  0.2175
 5362TIP3    H237722   6.737   6.578   8.637 -0.8660  0.8996  0.1507
 5363TIP3   OH237723   1.357   4.540   2.659 -0.8493 -0.0481  0.0384
 5363TIP3    H137724   1.335   4.448   2.671  0.4684 -0.5579 -1.2603
 5363TIP3    H237725   1.296   4.571   2.593 -0.4544 -0.3344 -0.4623
 5364TIP3   OH237726   1.445   2.061   1.395 -0.3315  0.2155  0.0805
 5364TIP3    H137727   1.397   2.013   1.462  0.9886 -1.1268  0.1121
 5364TIP3    H237728   1.484   2.135   1.441 -1.0160  0.3863  0.3877
 5365TIP3   OH237729   2.550   1.286   0.467 -0.3523  0.3958 -0.0111
 5365TIP3    H137730   2.543   1.291   0.562 -3.7086 -2.2031  0.0763
 5365TIP3    H237731   2.536   1.193   0.447 -0.3797  0.9630 -3.0825
 5366TIP3   OH237732   1.446   4.657   2.367 -0.0296 -0.3192 -0.0083
 5366TIP3    H137733   1.358   4.689   2.385 -0.7169 -1.4587 -1.1707
 5366TIP3    H237734   1.485   4.725   2.312 -0.5399 -0.2525 -0.3002
 5367TIP3   OH237735   1.129   3.246   3.165 -0.8491  0.4137  0.3822
 5367TIP3    H137736   1.109   3.163   3.122  0.4686  0.2682 -0.0032
 5367TIP3    H237737   1.093   3.237   3.253 -1.6876 -0.1296 -0.0087
 5368TIP3   OH237738   1.793   2.409   8.298  0.2902  0.2484  0.4332
 5368TIP3    H137739   1.718   2.420   8.240  0.0824 -1.4729  0.3151
 5368TIP3    H237740   1.775   2.467   8.372 -0.2050  1.2770 -0.4561
 5369TIP3   OH237741   2.333   0.505   1.039 -0.0080  0.5254  0.3121
 5369TIP3    H137742   2.364   0.483   1.126  0.3520 -0.4677 -0.0497
 5369TIP3    H237743   2.258   0.448   1.025  1.1868 -0.8629 -0.7996
 5370TIP3   OH237744   4.563   6.450   8.566  0.4814 -0.0573  0.1609
 5370TIP3    H137745   4.655   6.478   8.562 -0.0104  1.9580  1.4730
 5370TIP3    H237746   4.514   6.522   8.527 -0.5491 -1.3418 -1.0117
 5371TIP3   OH237747   4.760   2.862   8.138  0.1432  0.2125  0.1987
 5371TIP3    H137748   4.680   2.823   8.102  0.5118  0.5451 -1.0473
 5371TIP3    H237749   4.815   2.878   8.061  1.0159  0.8672  0.9382
 5372TIP3   OH237750   3.697   4.449   1.214  0.2009  0.5643  0.4772
 5372TIP3    H137751   3.739   4.458   1.128 -1.5532  0.9547 -0.3775
 5372TIP3    H237752   3.606   4.475   1.200 -1.2672 -3.2368  1.4683
 5373TIP3   OH237753   1.061   6.231   2.126  0.2916  0.0055 -0.6867
 5373TIP3    H137754   1.082   6.274   2.043  1.3599 -0.6500 -0.7613
 5373TIP3    H237755   1.071   6.301   2.191  0.2233  0.3197 -1.0052
 5374TIP3   OH237756   0.549   3.983   1.181 -0.3923 -0.3274 -0.0227
 5374TIP3    H137757   0.539   3.975   1.086 -0.9149 -0.4525  0.0432
 5374TIP3    H237758   0.550   4.077   1.197  1.5987 -0.2440 -0.3455
 5375TIP3   OH237759   2.197   3.801   2.722 -0.1932  0.0152  0.1204
 5375TIP3    H137760   2.111   3.778   2.758 -0.2739 -1.7111 -1.0402
 5375TIP3    H237761   2.258   3.747   2.772 -0.0128 -0.2251 -0.3483
 5376TIP3   OH237762   3.269   3.384   7.685 -0.1040  0.3060 -0.2299
 5376TIP3    H137763   3.308   3.417   7.766 -1.8126  0.0160  0.7600
 5376TIP3    H237764   3.261   3.461   7.629  0.0170  0.7388  0.3410
 5377TIP3   OH237765   5.848   1.151   3.207 -0.2689  0.4066 -0.2060
 5377TIP3    H137766   5.821   1.234   3.245 -1.0011  0.4402 -0.7771
 5377TIP3    H237767   5.770   1.095   3.215  0.1597 -0.1754  0.0170
 5378TIP3   OH237768   6.746   6.857   1.229  0.3016  0.4121  0.9260
 5378TIP3    H137769   6.748   6.889   1.138  0.1394 -1.1988  0.3198
 5378TIP3    H237770   6.828   6.888   1.267  0.9804  0.0235 -0.1789
 5379TIP3   OH237771   0.198   0.446   1.409  0.3738  0.3105  0.7014
 5379TIP3    H137772   0.113   0.484   1.386 -0.1127  0.4098  2.4585
 5379TIP3    H237773   0.215   0.380   1.342 -0.1790  1.5912 -0.7402
 5380TIP3   OH237774   4.809   4.482   1.981 -0.4096 -0.0828 -0.8035
 5380TIP3    H137775   4.840   4.565   1.946  1.0638 -0.1928  0.1658
 5380TIP3    H237776   4.735   4.506   2.037 -0.5157  0.4801 -1.1824
 5381TIP3   OH237777   2.812   4.480   8.689 -0.5576 -0.2192  0.2506
 5381TIP3    H137778   2.836   4.466   8.597 -1.3700  0.9287 -0.1557
 5381TIP3    H237779   2.843   4.568   8.709 -3.0218  0.7489  0.1319
 5382TIP3   OH237780   3.197   5.236   2.091 -0.8538 -0.8226 -0.5587
 5382TIP3    H137781   3.238   5.199   2.013  1.7709  0.0927  0.3027
 5382TIP3    H237782   3.207   5.169   2.158 -3.3026 -1.6995 -0.9325
 5383TIP3   OH237783   4.170   0.374   0.288 -0.0431 -0.3391  0.2584
 5383TIP3    H137784   4.236   0.316   0.325  2.0049  0.3737 -2.0378
 5383TIP3    H237785   4.219   0.447   0.251 -2.1864  0.6101 -0.9391
 5384TIP3   OH237786   1.622   6.453   1.092  0.6711  0.2499 -0.0969
 5384TIP3    H137787   1.626   6.371   1.142 -1.7455  0.4655  0.6128
 5384TIP3    H237788   1.678   6.438   1.016  0.4576 -1.9952  0.1211
 5385TIP3   OH237789   2.609   0.223   0.684 -0.5517  0.7185  0.5129
 5385TIP3    H137790   2.583   0.306   0.644  0.0353  1.6765  2.0354
 5385TIP3    H237791   2.591   0.234   0.777  0.5232 -0.4863  0.8970
 5386TIP3   OH237792   0.740   1.597   0.216  0.6141 -0.3350  0.6231
 5386TIP3    H137793   0.785   1.666   0.264 -0.0860  0.0188  0.7912
 5386TIP3    H237794   0.681   1.644   0.157  1.3941 -0.7609 -0.5374
 5387TIP3   OH237795   1.339   4.767   8.182  0.2834  0.1621 -0.1206
 5387TIP3    H137796   1.306   4.754   8.093 -0.1548  1.6928 -0.2153
 5387TIP3    H237797   1.285   4.838   8.217  0.5505 -0.3110  1.3211
 5388TIP3   OH237798   6.015   3.648   1.058 -0.4271 -0.4736 -0.4164
 5388TIP3    H137799   6.032   3.652   1.152  0.3572 -0.4440 -0.5539
 5388TIP3    H237800   5.920   3.650   1.051 -0.4811  0.5455  0.3348
 5389TIP3   OH237801   2.385   6.263   0.742 -0.1570 -0.6483  0.0395
 5389TIP3    H137802   2.295   6.246   0.712  0.2368  1.7111 -2.9713
 5389TIP3    H237803   2.384   6.354   0.771  1.3126 -0.4242 -0.4986
 5390TIP3   OH237804   3.960   4.214   1.284 -0.5368  0.1375  0.1531
 5390TIP3    H137805   3.980   4.306   1.271 -0.9293  0.4363  1.5751
 5390TIP3    H237806   3.998   4.170   1.207 -0.6737  1.5090 -0.7219
 5391TIP3   OH237807   6.873   4.017   8.401 -0.1746  0.1173 -0.0674
 5391TIP3    H137808   6.920   3.946   8.357  0.6236 -0.3657  1.4705
 5391TIP3    H237809   6.943   4.074   8.435 -0.7765  0.9356 -0.1802
 5392TIP3   OH237810   1.321   5.516   8.259  0.2263  0.2610 -0.2744
 5392TIP3    H137811   1.390   5.573   8.292 -0.0347 -0.1089  0.9651
 5392TIP3    H237812   1.303   5.455   8.331 -0.1814 -0.7639 -1.2058
 5393TIP3   OH237813   4.201   5.500   7.722  0.1516 -0.5559 -0.4311
 5393TIP3    H137814   4.162   5.570   7.669  0.9191 -0.5622 -1.0290
 5393TIP3    H237815   4.224   5.432   7.658  2.2429 -0.0466 -0.2993
 5394TIP3   OH237816   2.419   1.199   7.117  0.2344  0.2116 -0.7610
 5394TIP3    H137817   2.352   1.162   7.059 -0.5755  0.4313  0.0129
 5394TIP3    H237818   2.373   1.216   7.199  0.8916  1.6980 -0.6641
 5395TIP3   OH237819   3.916   6.235   0.893  0.1600 -0.1375 -0.4980
 5395TIP3    H137820   3.852   6.182   0.939  2.2787 -0.8064  1.9380
 5395TIP3    H237821   3.902   6.324   0.927  1.2623 -0.5073  1.0346
 5396TIP3   OH237822   6.305   2.098   2.425  0.8396  0.3663  0.2590
 5396TIP3    H137823   6.321   2.063   2.337  1.2868  0.6806  0.2109
 5396TIP3    H237824   6.229   2.155   2.414 -0.2444 -0.9957  0.4508
 5397TIP3   OH237825   6.818   2.960   0.231  0.0038  0.4311 -0.2068
 5397TIP3    H137826   6.904   3.000   0.244  0.2092 -0.3361  0.9946
 5397TIP3    H237827   6.829   2.904   0.154  0.0655  1.6557 -1.1157
 5398TIP3   OH237828   5.855   1.608   8.187  0.3067  0.3200  0.0011
 5398TIP3    H137829   5.938   1.560   8.180  0.8863  1.3917 -0.8200
 5398TIP3    H237830   5.882   1.700   8.199 -0.7587  0.3789  2.5736
 5399TIP3   OH237831   3.531   6.146   0.452 -0.0625  0.1308 -0.0106
 5399TIP3    H137832   3.500   6.055   0.443 -2.3097  0.8157  0.0980
 5399TIP3    H237833   3.572   6.149   0.538  0.3435 -0.8603 -0.1579
 5400TIP3   OH237834   0.999   3.086   2.294 -0.1980  0.3631  0.3181
 5400TIP3    H137835   1.035   3.011   2.247  1.2422  1.3321 -0.1591
 5400TIP3    H237836   0.905   3.067   2.299 -0.0393 -0.9137 -0.8116
 5401TIP3   OH237837   3.933   5.885   8.085 -0.3246 -0.6708 -0.3066
 5401TIP3    H137838   3.950   5.820   8.017 -0.5486 -0.8885 -0.1518
 5401TIP3    H237839   3.986   5.960   8.059  1.1452 -1.4523  0.3307
 5402TIP3   OH237840   0.679   5.918   7.500 -0.2310 -0.1594 -0.0859
 5402TIP3    H137841   0.635   5.997   7.470  0.3275  0.3627  0.4326
 5402TIP3    H237842   0.772   5.940   7.497 -0.1378 -0.0260  2.0588
 5403TIP3   OH237843   3.830   2.159   8.619  0.2226 -0.1034  0.2893
 5403TIP3    H137844   3.761   2.102   8.652  0.9522 -1.1792  0.0149
 5403TIP3    H237845   3.784   2.232   8.578 -0.7322 -0.4318  0.7589
 5404TIP3   OH237846   5.299   0.704   0.576 -0.1498  0.1153 -0.0537
 5404TIP3    H137847   5.388   0.693   0.609  1.0168  0.8931 -2.6581
 5404TIP3    H237848   5.305   0.680   0.484 -3.0106 -1.1987  0.0149
 5405TIP3   OH237849   4.553   3.460   8.460  0.1890  0.0775  0.0144
 5405TIP3    H137850   4.528   3.422   8.545 -1.4279 -1.0707 -0.9264
 5405TIP3    H237851   4.642   3.428   8.445 -0.7112 -2.6027 -0.2352
 5406TIP3   OH237852   4.597   3.217   0.110  0.4494  0.1817  0.3387
 5406TIP3    H137853   4.678   3.249   0.149  0.6277 -2.7685  2.7267
 5406TIP3    H237854   4.626   3.170   0.031  1.0960 -0.7758  1.1251
 5407TIP3   OH237855   1.149   0.330   8.053  0.0586 -0.3114 -0.1369
 5407TIP3    H137856   1.157   0.426   8.053 -0.8232 -0.2260  0.9064
 5407TIP3    H237857   1.055   0.314   8.060  0.1136 -1.2735 -1.2640
 5408TIP3   OH237858   6.173   0.180   1.021  0.0200 -0.2011  0.4396
 5408TIP3    H137859   6.165   0.133   0.938  1.7988  0.0146  0.1054
 5408TIP3    H237860   6.266   0.203   1.027 -0.4159  1.4996  1.5516
 5409TIP3   OH237861   1.622   5.579   2.838  0.0166  0.4562  0.1254
 5409TIP3    H137862   1.637   5.536   2.922 -1.4075  1.0171  0.6950
 5409TIP3    H237863   1.530   5.564   2.820 -0.0854  1.7501 -0.5276
 5410TIP3   OH237864   0.038   2.207   2.710  0.6790  0.3189  0.0562
 5410TIP3    H137865   0.019   2.114   2.726  1.2732  0.4757  1.9206
 5410TIP3    H237866  -0.043   2.252   2.735  0.6921  0.3658  0.0124
 5411TIP3   OH237867   1.831   1.526   1.199 -0.6011 -0.7326  0.1491
 5411TIP3    H137868   1.855   1.619   1.204 -3.2412  0.1322 -1.0088
 5411TIP3    H237869   1.905   1.484   1.156  0.6654  0.8307  0.7268
 5412TIP3   OH237870   2.438   2.002   1.508  0.0279  0.2962  0.0122
 5412TIP3    H137871   2.347   1.979   1.522  0.7602 -1.7567  1.8810
 5412TIP3    H237872   2.453   2.077   1.565 -0.0295 -0.5946  1.2316
 5413TIP3   OH237873   5.429   0.917   0.089  0.1284  0.3296 -0.1316
 5413TIP3    H137874   5.520   0.889   0.080  0.5568  1.7715 -0.4747
 5413TIP3    H237875   5.429   0.974   0.166 -0.1782  1.4983 -0.9780
 5414TIP3   OH237876   6.688   6.444   2.541  0.1233 -0.1717 -0.1952
 5414TIP3    H137877   6.749   6.376   2.569  1.8329  1.0814 -0.7323
 5414TIP3    H237878   6.695   6.512   2.607 -1.5618 -0.4394  0.3234
 5415TIP3   OH237879   6.141   1.653   1.899  0.0638  0.7543 -0.2988
 5415TIP3    H137880   6.130   1.638   1.992 -1.1325 -3.2289 -0.8938
 5415TIP3    H237881   6.060   1.621   1.859  1.0219  1.1950 -2.8107
 5416TIP3   OH237882   3.083   5.258   0.660 -0.1109  0.4853 -0.1259
 5416TIP3    H137883   3.019   5.310   0.611 -0.2481 -0.4304 -0.9666
 5416TIP3    H237884   3.031   5.192   0.705  0.1396  0.5025  0.1953
 5417TIP3   OH237885   0.415   6.660   2.055 -0.3433  0.4918 -0.8772
 5417TIP3    H137886   0.482   6.683   1.991  0.2408  2.4142  0.3328
 5417TIP3    H237887   0.362   6.739   2.063 -1.5089 -0.3184 -0.2811
 5418TIP3   OH237888   1.029   0.215   1.386 -0.1726 -0.0387 -0.2122
 5418TIP3    H137889   1.064   0.292   1.431 -0.2518 -0.8244  1.2842
 5418TIP3    H237890   0.939   0.207   1.418  0.8927 -2.8112  2.7316
 5419TIP3   OH237891   6.072   6.439   1.105  0.1011 -0.0918  0.4244
 5419TIP3    H137892   6.145   6.444   1.167  0.4742  2.1599 -0.0919
 5419TIP3    H237893   6.114   6.434   1.019 -0.2402  2.2360  0.0480
 5420TIP3   OH237894   0.062   0.452   8.185 -0.0686  0.1054  0.3041
 5420TIP3    H137895   0.024   0.387   8.126 -0.4489  0.7811 -0.2015
 5420TIP3    H237896  -0.013   0.491   8.230  0.1575  0.2386  0.5704
 5421TIP3   OH237897   4.378   3.165   2.136 -0.2398  0.0530 -0.1829
 5421TIP3    H137898   4.315   3.236   2.147 -0.3706 -0.2513  1.1003
 5421TIP3    H237899   4.351   3.122   2.054  0.0732  1.6911 -1.1839
 5422TIP3   OH237900   5.568   6.091   2.421 -0.0841 -0.4975 -0.7814
 5422TIP3    H137901   5.597   6.119   2.334 -0.9206  1.4595 -0.4807
 5422TIP3    H237902   5.646   6.098   2.476  0.2655 -1.0210 -1.1962
 5423TIP3   OH237903   1.617   5.746   0.545  0.6800 -0.6215 -0.3259
 5423TIP3    H137904   1.585   5.823   0.593 -0.3136 -1.7418  0.8693
 5423TIP3    H237905   1.597   5.765   0.453  0.6087  0.6202 -0.0703
 5424TIP3   OH237906   1.108   0.352   1.031  0.3267  0.6500  0.3502
 5424TIP3    H137907   1.117   0.330   0.938 -2.0433  2.7607 -0.4937
 5424TIP3    H237908   1.168   0.292   1.075  1.0316 -0.9208 -2.4545
 5425TIP3   OH237909   0.907   2.761   2.453  0.6561  0.1162 -0.3438
 5425TIP3    H137910   1.002   2.762   2.446  0.7455 -2.7091 -1.0824
 5425TIP3    H237911   0.889   2.761   2.547  1.4094  0.2973 -0.1987
 5426TIP3   OH237912   6.054   0.459   1.526  0.1172 -0.0555  0.1267
 5426TIP3    H137913   6.096   0.410   1.455  0.7720  1.9437 -0.9348
 5426TIP3    H237914   5.961   0.441   1.515  0.2568 -0.2570 -0.8929
 5427TIP3   OH237915   6.634   2.158   1.124  0.1429 -0.2404  0.2147
 5427TIP3    H137916   6.692   2.119   1.190  1.3142  1.1386  0.0618
 5427TIP3    H237917   6.689   2.168   1.046 -0.4663  0.5349 -0.1312
 5428TIP3   OH237918   1.725   0.885   0.150  0.5840 -0.3025  0.5291
 5428TIP3    H137919   1.678   0.802   0.159  0.3985 -0.4844 -1.7182
 5428TIP3    H237920   1.808   0.870   0.195 -0.0252 -1.1893  1.4167
 5429TIP3   OH237921   1.170   0.988   8.240 -0.1833 -0.0276  0.1178
 5429TIP3    H137922   1.257   1.028   8.234 -1.3234  2.9722  1.4424
 5429TIP3    H237923   1.140   1.010   8.328 -2.8265  0.2863 -0.7822
 5430TIP3   OH237924   2.247   0.279   8.109  0.2501  0.1001  0.4543
 5430TIP3    H137925   2.194   0.201   8.095 -1.4984  1.5336 -1.6690
 5430TIP3    H237926   2.334   0.245   8.129 -0.9611 -2.3537  2.1117
 5431TIP3   OH237927   1.375   0.804   3.166  0.1261 -0.4991 -0.7389
 5431TIP3    H137928   1.299   0.780   3.219 -0.4294 -0.7292 -1.6102
 5431TIP3    H237929   1.345   0.794   3.076  0.9333  0.2400 -1.1059
 5432TIP3   OH237930   6.734   6.692   0.595  0.4519 -0.1312 -0.2495
 5432TIP3    H137931   6.659   6.707   0.538 -1.1265  1.5586  2.0745
 5432TIP3    H237932   6.697   6.661   0.678  2.4629 -0.8536  0.4580
 5433TIP3   OH237933   0.454   6.330   0.689  0.5226 -0.0429 -0.0430
 5433TIP3    H137934   0.470   6.315   0.782  1.2560 -2.1500 -0.4601
 5433TIP3    H237935   0.391   6.262   0.665  0.6045  0.2616 -1.1646
 5434TIP3   OH237936   4.110   6.829   8.102  0.5022  0.5982  0.0340
 5434TIP3    H137937   4.022   6.840   8.067  0.6965 -1.4471 -1.2885
 5434TIP3    H237938   4.100   6.770   8.176  0.6239  1.5022  0.7925
 5435TIP3   OH237939   5.077   1.672   1.693  0.0394  0.1220 -0.1432
 5435TIP3    H137940   5.120   1.627   1.765 -0.2673  1.2896  0.8035
 5435TIP3    H237941   5.141   1.671   1.622  0.1822 -1.4109 -0.0273
 5436TIP3   OH237942   1.893   5.250   2.866  0.4955  0.2848 -0.1529
 5436TIP3    H137943   1.871   5.228   2.775 -0.2278 -1.3507  0.3744
 5436TIP3    H237944   1.811   5.237   2.914  0.9853  0.6852  0.8084
 5437TIP3   OH237945   6.363   3.027   7.201 -0.3281  0.2638  0.2802
 5437TIP3    H137946   6.318   2.966   7.142  0.5211  0.1053 -0.2289
 5437TIP3    H237947   6.399   2.972   7.270 -0.9032  0.3890  0.6833
 5438TIP3   OH237948   5.923   2.264   7.234  0.0494 -0.6546  0.3040
 5438TIP3    H137949   6.008   2.290   7.200 -0.4329 -0.1022 -0.5106
 5438TIP3    H237950   5.874   2.346   7.241 -0.9136 -1.1215 -0.6760
 5439TIP3   OH237951   3.395   6.044   0.728 -0.1710 -0.2621  0.2701
 5439TIP3    H137952   3.365   6.034   0.818  0.4713 -1.6987  0.3586
 5439TIP3    H237953   3.357   5.969   0.682 -0.1282  0.2121 -0.5602
 5440TIP3   OH237954   5.056   4.561   1.398  0.3465  0.6863 -0.7545
 5440TIP3    H137955   5.035   4.607   1.317 -0.2600  0.2745 -0.8403
 5440TIP3    H237956   5.128   4.503   1.375  1.3293  1.7848 -0.5726
 5441TIP3   OH237957   1.771   2.781   8.217  0.5210 -0.4371 -0.5115
 5441TIP3    H137958   1.831   2.766   8.145  1.9365 -0.2484  0.5856
 5441TIP3    H237959   1.730   2.866   8.197 -0.6553 -1.3133 -2.0798
 5442TIP3   OH237960   5.204   0.300   2.347  0.0023 -0.6249 -0.9382
 5442TIP3    H137961   5.217   0.389   2.315  0.2955  0.2906  1.5046
 5442TIP3    H237962   5.234   0.244   2.275  0.6013  1.2400 -2.2170
 5443TIP3   OH237963   6.521   4.000   1.522  0.5050 -0.2398 -0.6508
 5443TIP3    H137964   6.486   4.086   1.544  2.2324  0.6223 -1.0835
 5443TIP3    H237965   6.540   3.959   1.606 -0.2180 -0.1587 -0.4446
 5444TIP3   OH237966   5.752   2.030   2.070  0.3474 -0.3358  0.1836
 5444TIP3    H137967   5.792   1.972   2.004  0.8714  0.8049 -0.5270
 5444TIP3    H237968   5.815   2.029   2.143  0.9539  0.2790 -0.3216
 5445TIP3   OH237969   4.484   2.851   7.123  0.3053 -0.2374  0.2388
 5445TIP3    H137970   4.523   2.890   7.045  1.0885  1.3708  1.3830
 5445TIP3    H237971   4.481   2.922   7.187  1.1206 -1.8550  2.1951
 5446TIP3   OH237972   4.231   2.864   1.936  0.4405 -0.5517  1.1038
 5446TIP3    H137973   4.192   2.778   1.948 -0.7712  0.1925  2.8693
 5446TIP3    H237974   4.167   2.913   1.883 -0.6124  0.3150  3.0620
 5447TIP3   OH237975   5.284   2.221   2.672  0.4295  0.7265 -0.0976
 5447TIP3    H137976   5.233   2.141   2.689 -0.0108  0.7045 -1.4172
 5447TIP3    H237977   5.218   2.286   2.648  0.8926  1.1255 -0.2843
 5448TIP3   OH237978   1.721   5.192   7.299  0.1374  0.0042 -0.1201
 5448TIP3    H137979   1.759   5.130   7.237  0.5400 -2.1135  2.1111
 5448TIP3    H237980   1.782   5.266   7.299  0.7216 -0.4596 -1.3896
 5449TIP3   OH237981   0.599   4.327   8.189 -0.3061  0.4089 -0.7291
 5449TIP3    H137982   0.690   4.351   8.205  0.2234 -2.0699  0.4686
 5449TIP3    H237983   0.603   4.260   8.121 -1.1518 -0.2480 -0.1579
 5450TIP3   OH237984   2.700   3.282   1.558 -0.2290 -0.3189 -0.5749
 5450TIP3    H137985   2.653   3.225   1.496  1.4402  0.6885 -2.9403
 5450TIP3    H237986   2.775   3.313   1.508  0.4604  1.6956  1.5791
 5451TIP3   OH237987   6.526   5.972   1.216 -0.3983 -0.2527  0.4855
 5451TIP3    H137988   6.600   5.941   1.268  0.3377  0.2803 -0.2425
 5451TIP3    H237989   6.561   5.983   1.128 -0.7015  2.3640  0.6306
 5452TIP3   OH237990   2.154   0.869   3.259  0.0087 -0.4570  0.2243
 5452TIP3    H137991   2.098   0.806   3.214  0.5763 -0.5854 -0.3094
 5452TIP3    H237992   2.151   0.947   3.203  1.2418 -0.8370 -0.4024
 5453TIP3   OH237993   5.287   3.945   0.986 -0.8364 -0.1645  0.5498
 5453TIP3    H137994   5.329   3.986   0.910 -1.2581  1.8481  1.3389
 5453TIP3    H237995   5.230   3.878   0.949  1.6368 -1.7415 -0.6622
 5454TIP3   OH237996   6.635   6.766   2.522 -0.1796 -0.4444 -0.2858
 5454TIP3    H137997   6.540   6.761   2.521 -0.1304 -3.7138  0.0698
 5454TIP3    H237998   6.660   6.757   2.430 -0.1846  1.3396 -0.4863
 5455TIP3   OH237999   2.270   2.954   1.168 -0.6984  0.1687 -0.2552
 5455TIP3    H138000   2.236   3.039   1.140  0.2027  0.4728 -0.4553
 5455TIP3    H238001   2.193   2.906   1.198 -1.3182  0.8001 -0.7978
 5456TIP3   OH238002   4.482   1.276   1.636  0.7903 -0.2110  1.1355
 5456TIP3    H138003   4.474   1.370   1.655  0.4290  0.2672 -1.1760
 5456TIP3    H238004   4.400   1.239   1.670  0.6525  0.3996  1.5074
 5457TIP3   OH238005   3.738   0.710   0.796  0.3635 -0.1712 -0.1768
 5457TIP3    H138006   3.766   0.734   0.885 -2.5657  1.3482  0.4826
 5457TIP3    H238007   3.685   0.631   0.808  1.7047 -1.2094 -0.9243
 5458TIP3   OH238008   0.000   2.384   1.183  0.1603 -0.0978  0.3614
 5458TIP3    H138009   0.094   2.371   1.170  0.4987 -0.0109  2.4849
 5458TIP3    H238010  -0.039   2.301   1.155  1.0561 -0.8355  1.2274
 5459TIP3   OH238011   0.665   4.819   0.889  0.5873 -0.5825 -0.3166
 5459TIP3    H138012   0.714   4.852   0.814 -0.0608 -0.7903 -0.8375
 5459TIP3    H238013   0.573   4.829   0.865  0.3489  0.1063  0.7725
 5460TIP3   OH238014   5.348   1.047   7.997  0.1667  0.4221  0.1789
 5460TIP3    H138015   5.301   1.015   7.920 -1.2164  0.9440  0.7742
 5460TIP3    H238016   5.363   1.140   7.979  0.8866  0.2897  0.0515
 5461TIP3   OH238017   5.269   4.049   2.210 -0.7147  0.2089  0.1380
 5461TIP3    H138018   5.262   3.970   2.158  2.4334 -0.1412  0.0547
 5461TIP3    H238019   5.297   4.117   2.148 -3.7012  1.5960  0.1286
 5462TIP3   OH238020   3.070   1.057   0.546  0.1474 -0.5185 -0.4678
 5462TIP3    H138021   3.123   1.120   0.595  0.2743 -0.5135 -0.6147
 5462TIP3    H238022   3.005   1.111   0.500 -2.8486 -0.6896  3.0728
 5463TIP3   OH238023   3.347   2.199   7.156 -0.2930 -0.2938  0.5431
 5463TIP3    H138024   3.322   2.203   7.249 -0.9305 -1.7728  0.4647
 5463TIP3    H238025   3.273   2.239   7.110 -0.3342 -0.2709  0.6283
 5464TIP3   OH238026   1.499   2.400   2.861 -0.3178 -0.3515  0.1237
 5464TIP3    H138027   1.520   2.345   2.785 -1.4656 -0.6994  0.0397
 5464TIP3    H238028   1.460   2.339   2.924 -2.3832  0.4614 -0.2831
 5465TIP3   OH238029   0.705   4.645   8.411  0.3890 -0.0701  0.1405
 5465TIP3    H138030   0.697   4.636   8.317  0.1637 -1.4073  0.2798
 5465TIP3    H238031   0.774   4.583   8.436 -0.1568 -0.3760  0.9545
 5466TIP3   OH238032   1.731   5.001   2.606 -0.3437  0.1179 -0.3342
 5466TIP3    H138033   1.812   4.969   2.646  0.6374  1.0204 -1.5254
 5466TIP3    H238034   1.674   5.021   2.680  0.1328 -1.4882  0.5001
 5467TIP3   OH238035   1.331   6.513   3.066 -0.0462 -0.2563  0.2280
 5467TIP3    H138036   1.298   6.467   3.143 -0.3836 -2.2631 -1.0496
 5467TIP3    H238037   1.415   6.550   3.094 -1.4248  1.5630  2.3672
 5468TIP3   OH238038   4.416   2.420   2.047  0.1730  0.0505  0.3729
 5468TIP3    H138039   4.445   2.331   2.024 -0.2628  0.4318 -1.8085
 5468TIP3    H238040   4.481   2.477   2.006 -0.8502  0.7823 -0.2713
 5469TIP3   OH238041   5.159   6.705   0.150  0.5293 -0.6569  0.0220
 5469TIP3    H138042   5.128   6.732   0.064  0.4801 -1.4677 -0.2217
 5469TIP3    H238043   5.159   6.785   0.202 -1.7863 -0.5856 -0.0223
 5470TIP3   OH238044   1.624   6.229   0.683  0.3527 -0.4635 -0.0591
 5470TIP3    H138045   1.668   6.254   0.764 -1.4263  3.2806 -0.0365
 5470TIP3    H238046   1.659   6.288   0.617 -2.6906  0.9663 -0.5469
 5471TIP3   OH238047   2.396   3.669   0.718  0.4472 -0.3422  0.2750
 5471TIP3    H138048   2.430   3.658   0.629  1.3692  0.1584  0.5504
 5471TIP3    H238049   2.321   3.727   0.707  0.8675  0.1402 -0.1304
 5472TIP3   OH238050   5.651   3.221   2.384 -0.2785 -0.0665 -0.6896
 5472TIP3    H138051   5.647   3.230   2.479  2.6744 -0.3845 -0.4263
 5472TIP3    H238052   5.622   3.131   2.367 -1.5319  0.2298 -0.1912
 5473TIP3   OH238053   0.049   1.903   1.565 -0.0237 -0.7658  0.7132
 5473TIP3    H138054   0.113   1.964   1.527 -2.2251  1.0705 -0.2750
 5473TIP3    H238055   0.053   1.826   1.508 -1.2667  0.8333 -1.7166
 5474TIP3   OH238056   0.968   6.470   2.833  0.3612  0.4047 -0.0793
 5474TIP3    H138057   0.906   6.398   2.846  0.9676 -0.1162 -0.0211
 5474TIP3    H238058   1.051   6.436   2.867  0.5813  1.2555  0.2531
 5475TIP3   OH238059   3.973   6.207   7.889  0.2227 -0.4202  0.1469
 5475TIP3    H138060   3.954   6.300   7.884  0.5011 -0.3885 -0.3603
 5475TIP3    H238061   4.064   6.202   7.918  0.2027 -0.5353  0.1925
 5476TIP3   OH238062   5.661   6.619   7.929  0.8086 -0.1082  0.2237
 5476TIP3    H138063   5.621   6.705   7.945 -0.1368 -0.1401 -1.7223
 5476TIP3    H238064   5.616   6.585   7.852  1.6337 -2.0826  0.5446
 5477TIP3   OH238065   1.078   2.457   0.240 -0.9640  0.0621 -0.7647
 5477TIP3    H138066   1.062   2.364   0.259 -2.7922  0.6837  1.0827
 5477TIP3    H238067   1.173   2.467   0.249 -0.9345 -1.2668  0.8260
 5478TIP3   OH238068   1.175   1.933   2.754  0.5702  0.2076 -0.5901
 5478TIP3    H138069   1.122   2.006   2.720 -1.2324 -0.8192 -0.1334
 5478TIP3    H238070   1.250   1.976   2.796 -0.5289  1.8424 -0.1696
 5479TIP3   OH238071   5.641   6.744   8.531  0.1047  0.2662  0.3847
 5479TIP3    H138072   5.557   6.788   8.527 -0.3346 -0.4292  1.4158
 5479TIP3    H238073   5.699   6.796   8.476 -0.4870  1.8901  1.2495
 5480TIP3   OH238074   4.154   2.420   7.568  0.1309 -0.4307 -0.0796
 5480TIP3    H138075   4.238   2.404   7.525 -0.6984  0.5201 -2.2243
 5480TIP3    H238076   4.090   2.374   7.513 -0.9568  0.5868  0.2852
 5481TIP3   OH238077   2.689   3.989   2.525  0.7365  0.4782 -0.3996
 5481TIP3    H138078   2.613   3.983   2.467  0.2476  0.0015  0.2637
 5481TIP3    H238079   2.703   3.899   2.555  1.7210  0.5264 -0.7013
 5482TIP3   OH238080   4.860   3.705   7.178 -0.5203  0.1817  0.1768
 5482TIP3    H138081   4.805   3.645   7.228 -0.4285 -0.3940 -0.3895
 5482TIP3    H238082   4.806   3.782   7.164 -1.4447 -0.6248 -0.9246
 5483TIP3   OH238083   1.835   1.886   0.811  0.8975 -0.1708 -0.1465
 5483TIP3    H138084   1.913   1.842   0.777  0.7039 -0.0731 -0.7185
 5483TIP3    H238085   1.782   1.815   0.848  1.0133 -0.3002 -0.2302
 5484TIP3   OH238086   3.669   1.294   1.909  0.2042  0.0216 -0.1582
 5484TIP3    H138087   3.578   1.272   1.889 -0.2081  1.9910 -0.6314
 5484TIP3    H238088   3.668   1.389   1.921  2.1555  0.0306  0.1224
 5485TIP3   OH238089   2.230   0.610   3.061  0.0731  0.2207 -0.2965
 5485TIP3    H138090   2.243   0.515   3.068 -1.3076 -0.0440 -0.9505
 5485TIP3    H238091   2.135   0.621   3.062  0.2276  1.6153 -0.0773
 5486TIP3   OH238092   6.391   6.642   2.197  0.1699  0.2913  0.1406
 5486TIP3    H138093   6.299   6.667   2.209  0.1654  0.1696  0.3674
 5486TIP3    H238094   6.396   6.615   2.105 -0.2518 -0.6249  0.3692
 5487TIP3   OH238095   2.848   3.698   7.741 -0.2097  0.4797  0.0973
 5487TIP3    H138096   2.816   3.712   7.830 -3.3528 -1.5144 -0.5247
 5487TIP3    H238097   2.809   3.770   7.690 -1.6103 -0.4484 -0.2085
 5488TIP3   OH238098   5.301   5.025   0.514 -0.2637  0.4192 -0.4845
 5488TIP3    H138099   5.367   4.961   0.541 -1.3904 -0.5090  0.1642
 5488TIP3    H238100   5.226   5.008   0.571 -0.6931  2.1673 -0.4574
 5489TIP3   OH238101   1.904   5.270   7.927  0.5560  0.3759 -0.1809
 5489TIP3    H138102   1.919   5.334   7.857  1.4091 -0.5466 -0.8803
 5489TIP3    H238103   1.965   5.296   7.996  1.8161 -0.3646 -0.9631
 5490TIP3   OH238104   2.223   0.802   1.818  1.0242  0.1498 -0.5532
 5490TIP3    H138105   2.248   0.881   1.866 -0.0205 -0.9568  2.0073
 5490TIP3    H238106   2.306   0.768   1.784  2.3843 -0.3912  2.8330
 5491TIP3   OH238107   0.938   2.813   1.542 -0.6492 -0.1719  0.0393
 5491TIP3    H138108   0.859   2.778   1.500 -0.3610  1.3499 -1.9551
 5491TIP3    H238109   0.952   2.897   1.499  0.8848  0.5625  1.8554
 5492TIP3   OH238110   1.426   5.738   2.162 -0.1751 -0.6342  0.2836
 5492TIP3    H138111   1.382   5.777   2.086 -1.3466 -2.1291  0.1566
 5492TIP3    H238112   1.363   5.746   2.233  0.2631 -0.7480  0.6903
 5493TIP3   OH238113   4.077   6.685   7.542 -0.4170  0.5272 -0.8862
 5493TIP3    H138114   4.113   6.773   7.531  2.8482 -0.5612  0.1203
 5493TIP3    H238115   4.111   6.635   7.468  1.4258 -0.8736  0.7956
 5494TIP3   OH238116   4.226   3.930   7.201  0.3256  0.2514  0.3327
 5494TIP3    H138117   4.304   3.984   7.212  0.3620  0.3143 -0.2108
 5494TIP3    H238118   4.187   3.960   7.118  1.0288 -1.3739 -0.6498
 5495TIP3   OH238119   6.177   0.093   2.690 -0.0809 -0.7709  0.0264
 5495TIP3    H138120   6.087   0.063   2.698 -0.8163  0.9660 -1.2613
 5495TIP3    H238121   6.230   0.013   2.695 -1.7470 -1.9316 -0.3892
 5496TIP3   OH238122   0.529   1.828   1.127 -0.1111 -0.6153  0.7621
 5496TIP3    H138123   0.584   1.778   1.068  0.0824  0.8267 -0.3534
 5496TIP3    H238124   0.440   1.815   1.094 -0.2399 -1.4110  1.3971
 5497TIP3   OH238125   4.047   0.792   2.401  0.0865  0.2149  0.0474
 5497TIP3    H138126   4.024   0.702   2.378 -1.6008  0.9229 -1.1805
 5497TIP3    H238127   4.079   0.786   2.491  0.6601 -1.6987 -0.2452
 5498TIP3   OH238128   6.863   3.821   2.459 -1.2041 -0.7900  0.3734
 5498TIP3    H138129   6.807   3.859   2.392  2.3414  1.2254 -1.7858
 5498TIP3    H238130   6.885   3.894   2.517  2.8651 -0.0307 -1.7438
 5499TIP3   OH238131   3.750   2.786   7.436  0.2521 -0.6043 -0.0596
 5499TIP3    H138132   3.663   2.749   7.423 -1.5100  3.2491 -0.8973
 5499TIP3    H238133   3.801   2.759   7.360 -0.6512 -1.7901 -0.2566
 5500TIP3   OH238134   5.296   4.442   8.221 -0.4677  0.0528  0.3783
 5500TIP3    H138135   5.251   4.402   8.296 -1.3465 -0.5715 -0.4651
 5500TIP3    H238136   5.348   4.512   8.260 -1.2831  0.0599  1.5257
 5501TIP3   OH238137   3.541   4.819   2.565 -0.7829  0.1721  0.2886
 5501TIP3    H138138   3.500   4.845   2.648 -0.8279 -1.7026  0.9056
 5501TIP3    H238139   3.629   4.790   2.590 -0.9897 -0.9460 -0.1918
 5502TIP3   OH238140   6.513   3.846   7.521  0.0093  0.0286  0.6075
 5502TIP3    H138141   6.552   3.762   7.496 -0.2072 -0.2909  1.3086
 5502TIP3    H238142   6.573   3.912   7.487  0.1470 -0.4057 -0.0153
 5503TIP3   OH238143   4.540   6.638   0.155  0.0383 -0.3150  0.0218
 5503TIP3    H138144   4.567   6.714   0.104  2.5591 -0.1017  1.5166
 5503TIP3    H238145   4.445   6.648   0.165 -0.1581  0.9204 -2.4456
 5504TIP3   OH238146   6.466   0.718   1.146 -0.0222  0.4535 -0.0283
 5504TIP3    H138147   6.452   0.740   1.054 -0.1361  0.2824 -0.0520
 5504TIP3    H238148   6.429   0.793   1.194  0.7389  0.9091 -0.1353
 5505TIP3   OH238149   2.368   5.253   7.479 -0.4214  0.4014 -0.6881
 5505TIP3    H138150   2.404   5.324   7.426 -2.0549  2.1544  0.4357
 5505TIP3    H238151   2.287   5.288   7.515 -0.7168 -1.6610  0.8451
 5506TIP3   OH238152   4.636   3.049   1.965 -0.0970 -0.0137 -0.2937
 5506TIP3    H138153   4.672   3.025   1.880 -1.2659 -1.4666 -0.4233
 5506TIP3    H238154   4.639   3.145   1.967  1.5542 -0.0213 -1.2258
 5507TIP3   OH238155   1.863   5.573   2.359  0.2647 -0.1999  0.1407
 5507TIP3    H138156   1.856   5.481   2.334 -0.2927 -0.0795 -0.1662
 5507TIP3    H238157   1.833   5.576   2.450 -0.1366 -0.2596  0.0137
 5508TIP3   OH238158   0.013   1.944   2.506  0.2967 -0.1433 -0.1235
 5508TIP3    H138159  -0.034   1.964   2.425  0.9421  0.7303 -0.2948
 5508TIP3    H238160  -0.037   1.873   2.546  0.5405 -1.3159 -1.7950
 5509TIP3   OH238161   6.821   6.599   3.403  0.6378  0.1448 -0.4127
 5509TIP3    H138162   6.825   6.676   3.460  0.8484 -0.3480  0.2461
 5509TIP3    H238163   6.907   6.558   3.412  0.3718 -0.4129 -0.4221
 5510TIP3   OH238164   6.264   0.442   7.250 -0.2120 -0.3783 -0.4852
 5510TIP3    H138165   6.278   0.403   7.336 -1.9960 -3.5341 -1.4758
 5510TIP3    H238166   6.329   0.401   7.194 -0.7282 -0.3152 -1.1450
 5511TIP3   OH238167   4.234   3.143   2.489 -0.4750  0.1917 -0.8987
 5511TIP3    H138168   4.325   3.152   2.517 -0.2723 -1.8490 -0.7116
 5511TIP3    H238169   4.183   3.176   2.563  0.1211 -0.8905  0.0322
 5512TIP3   OH238170   1.083   3.039   7.317  0.1123  0.1467  0.4422
 5512TIP3    H138171   1.163   3.035   7.264 -0.2526  1.8192 -0.3103
 5512TIP3    H238172   1.091   2.966   7.379  1.8509 -0.1716 -0.1084
 5513TIP3   OH238173   6.527   0.041   2.141 -0.2854  0.2057 -0.7725
 5513TIP3    H138174   6.440   0.067   2.111 -0.6667  1.6387  1.3195
 5513TIP3    H238175   6.512  -0.037   2.194 -0.1943  0.0027 -1.0479
 5514TIP3   OH238176   2.967   3.096   0.428 -0.7227  0.3375 -0.3529
 5514TIP3    H138177   3.019   3.099   0.348 -0.6675  0.3967 -0.3157
 5514TIP3    H238178   2.876   3.101   0.399 -0.7990 -1.5005 -0.5343
 5515TIP3   OH238179   6.463   5.904   8.030 -0.3269  0.3736 -0.8020
 5515TIP3    H138180   6.434   5.826   8.078  1.7579  0.8854  1.4707
 5515TIP3    H238181   6.389   5.925   7.972 -1.9556 -1.8029  0.3276
 5516TIP3   OH238182   6.414   0.063   8.018  0.5995  0.1727 -0.1130
 5516TIP3    H138183   6.363   0.140   7.995 -0.3346  0.0750  1.5327
 5516TIP3    H238184   6.505   0.092   8.013  0.2979  1.0397 -0.6632
 5517TIP3   OH238185   5.572   4.904   2.102 -0.0378 -0.0231 -0.2885
 5517TIP3    H138186   5.603   4.816   2.080  1.6054  0.1294  1.1495
 5517TIP3    H238187   5.574   4.952   2.019 -0.0307 -1.0822 -0.9163
 5518TIP3   OH238188   1.300   4.278   2.701  0.0881 -0.0548 -0.8604
 5518TIP3    H138189   1.354   4.255   2.776 -0.3841 -1.5220 -0.9305
 5518TIP3    H238190   1.345   4.240   2.626 -0.3209 -0.0835 -1.0967
 5519TIP3   OH238191   3.956   2.009   1.222 -0.3887  0.2331 -0.5783
 5519TIP3    H138192   3.904   2.065   1.164 -1.1982 -0.9416 -1.0268
 5519TIP3    H238193   3.995   1.944   1.164 -1.3972 -1.1074  0.1807
 5520TIP3   OH238194   3.278   0.062   1.784 -0.8339  0.0624 -0.1202
 5520TIP3    H138195   3.371   0.054   1.808 -0.3994  0.9155 -1.4410
 5520TIP3    H238196   3.277   0.047   1.690 -1.8236  1.6111 -0.3837
 5521TIP3   OH238197   5.713   2.944   0.499 -0.0993  0.3202  0.1239
 5521TIP3    H138198   5.763   2.915   0.423  0.3674  0.5467  0.3394
 5521TIP3    H238199   5.777   2.992   0.553 -0.8444  1.7725 -0.2365
 5522TIP3   OH238200   6.191   1.565   1.262  0.2429  0.0596  0.1235
 5522TIP3    H138201   6.280   1.552   1.232 -0.3213 -2.2290 -0.7625
 5522TIP3    H238202   6.137   1.513   1.202 -1.5108  0.0738  1.5864
 5523TIP3   OH238203   1.536   5.384   2.639 -0.1060  0.2127  0.0511
 5523TIP3    H138204   1.525   5.479   2.629 -0.6111 -0.0529 -2.5736
 5523TIP3    H238205   1.471   5.360   2.705 -0.4323  1.5902  0.2780
 5524TIP3   OH238206   3.346   6.027   3.495  0.4929  0.5370 -0.2438
 5524TIP3    H138207   3.440   6.019   3.476  0.4951  1.2095 -0.5451
 5524TIP3    H238208   3.310   6.071   3.418 -0.3747 -1.1984 -0.8994
 5525TIP3   OH238209   1.530   0.561   3.248  0.4487 -0.8669 -0.0395
 5525TIP3    H138210   1.500   0.648   3.221  2.1774 -0.7042 -1.6635
 5525TIP3    H238211   1.626   0.570   3.255  0.7008 -2.7460 -0.6880
 5526TIP3   OH238212   4.326   1.461   0.891  0.5706  0.0550 -0.4232
 5526TIP3    H138213   4.298   1.519   0.962  1.6896 -0.5962  0.5953
 5526TIP3    H238214   4.386   1.514   0.839 -0.1052  0.4775 -0.7809
 5527TIP3   OH238215   5.806   2.423   8.329  0.0166  0.3160  0.2169
 5527TIP3    H138216   5.747   2.384   8.264  1.5996 -2.1229  0.1120
 5527TIP3    H238217   5.766   2.404   8.413  0.9586 -2.1713  0.2018
 5528TIP3   OH238218   1.372   4.563   0.128  0.9373 -0.0105 -0.2594
 5528TIP3    H138219   1.285   4.537   0.158  0.7415  1.4149  0.5030
 5528TIP3    H238220   1.376   4.531   0.037 -0.3868 -0.0765 -0.3232
 5529TIP3   OH238221   5.872   1.325   2.546 -0.1489 -0.0088  0.0084
 5529TIP3    H138222   5.931   1.326   2.621 -0.4217  0.5267  0.2183
 5529TIP3    H238223   5.787   1.303   2.582 -0.5652  1.6086  0.0770
 5530TIP3   OH238224   1.711   5.389   0.418  0.1209  0.0161  0.1846
 5530TIP3    H138225   1.727   5.299   0.391  2.1877 -0.2071  1.9101
 5530TIP3    H238226   1.695   5.436   0.336 -1.5849 -1.9616 -0.7080
 5531TIP3   OH238227   5.674   4.726   8.536 -0.1262  0.3746  0.4265
 5531TIP3    H138228   5.634   4.813   8.529  0.1581  0.7987  3.0849
 5531TIP3    H238229   5.757   4.735   8.488 -0.1624  1.5435  0.5416
 5532TIP3   OH238230   3.213   0.663   2.381  0.0920 -0.8009  0.2034
 5532TIP3    H138231   3.223   0.691   2.290  0.0818  0.9659  0.7115
 5532TIP3    H238232   3.240   0.739   2.433 -0.1945 -1.6647  1.6842
 5533TIP3   OH238233   2.473   5.742   2.781  0.0394  0.2880  0.0039
 5533TIP3    H138234   2.512   5.717   2.864 -0.2643 -0.5392 -0.0929
 5533TIP3    H238235   2.544   5.785   2.733  0.5350 -0.2453  0.2468
 5534TIP3   OH238236   5.991   2.882   1.205 -0.0333  0.6832 -0.6075
 5534TIP3    H138237   5.913   2.893   1.151 -0.8694  0.1192  0.4430
 5534TIP3    H238238   6.058   2.937   1.163 -1.3478  2.1661 -0.8405
 5535TIP3   OH238239   6.083   3.899   2.730 -0.0570  0.3142  0.6753
 5535TIP3    H138240   6.076   3.930   2.639 -1.3229  0.9180  0.9555
 5535TIP3    H238241   6.079   3.978   2.783  0.9107 -0.0157  1.2660
 5536TIP3   OH238242   1.186   2.031   1.232 -0.4721 -0.9236 -0.1369
 5536TIP3    H138243   1.211   2.023   1.324 -0.7218  0.9517  0.1404
 5536TIP3    H238244   1.267   2.055   1.187 -1.1830  3.6242  0.5269
 5537TIP3   OH238245   5.714   3.939   8.032  0.4502 -0.2993  0.2403
 5537TIP3    H138246   5.754   4.026   8.024  0.6094 -0.3099  0.8776
 5537TIP3    H238247   5.767   3.895   8.098  0.2937 -0.8416  0.0098
 5538TIP3   OH238248   0.069   3.349   7.704 -0.1958 -0.0564  0.1316
 5538TIP3    H138249  -0.023   3.340   7.730 -0.5452 -3.9655 -1.8422
 5538TIP3    H238250   0.065   3.390   7.618 -0.1541 -0.5943 -0.1307
 5539TIP3   OH238251   0.574   2.487   2.662  0.3917  0.0216 -0.5637
 5539TIP3    H138252   0.534   2.551   2.721  0.6526 -0.2661 -0.0765
 5539TIP3    H238253   0.526   2.498   2.580 -1.2361 -0.8667  0.2262
 5540TIP3   OH238254   1.568   2.029   0.750 -0.3111 -0.0078  0.2280
 5540TIP3    H138255   1.629   2.092   0.787 -1.3622  0.3086  1.5046
 5540TIP3    H238256   1.524   2.077   0.680 -0.4601  0.3866  0.5890
 5541TIP3   OH238257   2.502   1.922   0.992 -0.0835  0.4209 -0.1695
 5541TIP3    H138258   2.498   1.933   0.897 -2.6286 -0.0929 -0.1950
 5541TIP3    H238259   2.574   1.861   1.006  0.3652  0.5449 -1.7605
 5542TIP3   OH238260   5.534   1.835   1.232 -0.0743  0.0551  0.0650
 5542TIP3    H138261   5.443   1.866   1.232  0.8735  3.1264  0.1867
 5542TIP3    H238262   5.567   1.856   1.319  1.1089  0.1435 -0.3847
 5543TIP3   OH238263   4.859   1.999   0.162  0.2549  0.1871 -0.1758
 5543TIP3    H138264   4.767   2.014   0.182 -0.2302 -2.1685 -0.2851
 5543TIP3    H238265   4.903   1.998   0.247 -0.3380 -1.3712  0.1516
 5544TIP3   OH238266   1.098   4.087   2.304 -0.1181  0.3111 -0.0365
 5544TIP3    H138267   1.133   4.049   2.385 -1.9845  0.7329  1.0264
 5544TIP3    H238268   1.015   4.041   2.290 -1.6656  2.8031  0.4104
 5545TIP3   OH238269   2.440   5.700   7.839  0.5855 -0.4011 -0.2687
 5545TIP3    H138270   2.409   5.610   7.836 -1.5739  0.2990 -0.9642
 5545TIP3    H238271   2.415   5.731   7.927 -0.0636 -0.0656 -0.5592
 5546TIP3   OH238272   1.173   5.274   3.098 -0.0386 -0.4559  0.4835
 5546TIP3    H138273   1.268   5.284   3.111 -0.0408 -0.3339  0.4143
 5546TIP3    H238274   1.134   5.312   3.177 -0.0424 -0.0470  0.2894
 5547TIP3   OH238275   1.834   5.155   0.327  0.2153  0.4973  0.4007
 5547TIP3    H138276   1.782   5.115   0.257  0.7762  1.5944 -0.6915
 5547TIP3    H238277   1.850   5.084   0.389  0.4371 -0.7556 -1.0299
 5548TIP3   OH238278   5.362   4.675   1.419  0.2072  0.2497 -0.2708
 5548TIP3    H138279   5.335   4.730   1.345 -0.8366  0.1571  0.0206
 5548TIP3    H238280   5.296   4.693   1.487  0.7685 -0.1709  0.3953
 5549TIP3   OH238281   2.692   0.846   1.694 -0.1458  0.2403 -0.6059
 5549TIP3    H138282   2.685   0.766   1.746 -0.8980 -0.1626 -1.2925
 5549TIP3    H238283   2.785   0.856   1.677  0.0771  0.1950  0.5167
 5550TIP3   OH238284   2.881   5.448   1.688 -0.1005  0.2512 -0.1141
 5550TIP3    H138285   2.817   5.406   1.631  0.2098 -0.0334 -0.2578
 5550TIP3    H238286   2.963   5.402   1.669  0.0376  0.2694  0.4361
 5551TIP3   OH238287   0.816   4.796   2.481  0.6831 -0.7028 -0.2287
 5551TIP3    H138288   0.731   4.839   2.471  1.0867  0.2749  0.4229
 5551TIP3    H238289   0.840   4.770   2.392  0.3744  0.3317 -0.6308
 5552TIP3   OH238290   6.652   1.005   7.520 -0.0527 -0.0274  0.1224
 5552TIP3    H138291   6.585   0.964   7.465  0.4851  0.7188 -1.1441
 5552TIP3    H238292   6.676   1.085   7.473  2.0417 -0.4900  0.2942
 5553TIP3   OH238293   0.578   4.270   1.232 -0.2729  0.3188  0.6668
 5553TIP3    H138294   0.526   4.333   1.183 -1.9456 -0.5584  1.2099
 5553TIP3    H238295   0.666   4.276   1.196 -1.5802 -1.0104 -3.1786
 5554TIP3   OH238296   4.562   2.145   0.589  0.5340  0.1030 -0.3501
 5554TIP3    H138297   4.637   2.137   0.530  1.4571 -0.2606  0.8538
 5554TIP3    H238298   4.564   2.235   0.619  1.5530 -0.3588  1.0423
 5555TIP3   OH238299   0.697   6.823   0.658 -0.1090 -0.0173 -0.2345
 5555TIP3    H138300   0.777   6.783   0.695  0.1007  0.7718  0.1841
 5555TIP3    H238301   0.663   6.878   0.729 -0.9784 -0.2729 -0.4452
 5556TIP3   OH238302   6.314   4.364   0.487 -0.5897  0.3639  0.5178
 5556TIP3    H138303   6.239   4.420   0.505 -0.9964 -0.0239  0.0524
 5556TIP3    H238304   6.330   4.317   0.569  0.6508  2.1665  1.3835
 5557TIP3   OH238305   3.972   6.662   1.637  0.2627  0.1760  0.3373
 5557TIP3    H138306   4.015   6.687   1.556 -1.8394  1.9361 -0.3087
 5557TIP3    H238307   3.944   6.572   1.622  1.3788 -0.1022 -0.2035
 5558TIP3   OH238308   6.667   1.352   8.265  0.2841  0.0397  0.0220
 5558TIP3    H138309   6.644   1.317   8.351 -2.1980  0.3647 -0.4310
 5558TIP3    H238310   6.762   1.348   8.262  0.4025 -0.6189  2.5051
 5559TIP3   OH238311   4.901   3.376   7.384  0.2276  0.3760 -0.2089
 5559TIP3    H138312   4.829   3.436   7.364 -0.6625 -0.2770  0.8640
 5559TIP3    H238313   4.925   3.396   7.475  0.9523  0.1337 -0.3370
 5560TIP3   OH238314   6.351   4.361   1.290  0.6438  0.0888 -0.0525
 5560TIP3    H138315   6.347   4.337   1.383  0.4708 -1.4215 -0.4236
 5560TIP3    H238316   6.444   4.356   1.268  0.7084  0.6472  0.0821
 5561TIP3   OH238317   5.574   0.169   2.811 -0.1235  0.3250  0.1289
 5561TIP3    H138318   5.589   0.245   2.755  1.4550  0.2344  0.3915
 5561TIP3    H238319   5.479   0.157   2.810 -0.2927  1.5594 -0.8795
 5562TIP3   OH238320   2.091   0.491   8.654 -0.3745 -0.0223  0.1893
 5562TIP3    H138321   2.033   0.565   8.674  0.6796  0.6887  0.6884
 5562TIP3    H238322   2.177   0.520   8.683  0.3216 -0.8870 -0.9578
 5563TIP3   OH238323   2.932   3.164   2.398  0.5730  0.2516 -0.2531
 5563TIP3    H138324   2.986   3.100   2.353 -0.4074 -1.7849  1.3188
 5563TIP3    H238325   2.860   3.181   2.338  1.5413  0.9909 -1.2527
 5564TIP3   OH238326   2.349   2.682   1.276 -0.1848  0.1443 -0.4971
 5564TIP3    H138327   2.389   2.596   1.290  2.2122  1.0781 -1.1308
 5564TIP3    H238328   2.356   2.726   1.360 -0.4333  0.1167 -0.4599
 5565TIP3   OH238329   6.217   1.678   0.151 -0.6662  0.8738 -0.5455
 5565TIP3    H138330   6.141   1.730   0.124 -1.2839 -0.7719 -2.1688
 5565TIP3    H238331   6.179   1.599   0.189  0.1399 -0.8725 -3.1511
 5566TIP3   OH238332   1.261   4.904   2.996  0.3979 -0.1931 -0.1001
 5566TIP3    H138333   1.305   4.828   2.958 -1.4364 -1.2503 -0.2436
 5566TIP3    H238334   1.236   4.876   3.084 -0.6241  0.0852 -0.2899
 5567TIP3   OH238335   4.351   2.775   7.600  0.1855 -0.4093 -0.3310
 5567TIP3    H138336   4.380   2.855   7.643  1.7346  0.3537 -2.6006
 5567TIP3    H238337   4.425   2.748   7.546 -1.1018 -2.1173 -1.3737
 5568TIP3   OH238338   0.709   3.870   2.966  0.4331 -0.6928  0.0422
 5568TIP3    H138339   0.634   3.824   3.004 -0.0121 -1.0022 -1.1328
 5568TIP3    H238340   0.698   3.961   2.993 -0.0673 -0.8407  0.3451
 5569TIP3   OH238341   5.409   1.294   7.873  0.3737 -0.3092  0.1116
 5569TIP3    H138342   5.327   1.333   7.842 -0.3520 -0.8074  1.3726
 5569TIP3    H238343   5.473   1.366   7.867 -0.6957  0.7895  1.3719
 5570TIP3   OH238344   6.673   3.626   8.548  0.6257 -0.0138 -0.4883
 5570TIP3    H138345   6.762   3.641   8.580  0.3143  0.1412  0.3082
 5570TIP3    H238346   6.673   3.666   8.461  1.3683 -0.1202 -0.5502
 5571TIP3   OH238347   0.389   3.015   8.342 -0.0242 -0.4077 -0.2344
 5571TIP3    H138348   0.441   2.937   8.360  1.2871  0.6070  0.5761
 5571TIP3    H238349   0.438   3.062   8.275 -2.1057 -1.4703 -2.6455
 5572TIP3   OH238350   1.010   5.589   2.389  0.2175  0.4449 -0.5460
 5572TIP3    H138351   1.057   5.668   2.414 -1.3556  0.9704  0.9762
 5572TIP3    H238352   0.949   5.617   2.321  0.0607  0.4451 -0.4088
 5573TIP3   OH238353   0.603   5.391   1.512  0.4751  0.0840  0.2360
 5573TIP3    H138354   0.667   5.439   1.565 -1.7601  2.6616  0.8177
 5573TIP3    H238355   0.630   5.407   1.422  0.2259  1.9278  0.4383
 5574TIP3   OH238356   1.529   0.852   0.614 -0.6607 -0.1090  0.6244
 5574TIP3    H138357   1.474   0.874   0.539 -0.3523 -0.7936  0.1906
 5574TIP3    H238358   1.557   0.937   0.647  1.5640  0.2430 -1.8064
 5575TIP3   OH238359   3.662   4.913   8.261 -0.4411  0.0666  0.2270
 5575TIP3    H138360   3.692   4.823   8.266  0.5486  0.1107 -2.6605
 5575TIP3    H238361   3.670   4.935   8.168 -0.5992  3.1488  0.8441
 5576TIP3   OH238362   6.307   6.187   3.528  0.1772 -0.0578  0.0859
 5576TIP3    H138363   6.377   6.129   3.499  0.7382  0.6794 -0.0592
 5576TIP3    H238364   6.227   6.145   3.496  0.5230 -1.0079  0.4193
 5577TIP3   OH238365   2.774   2.759   0.783  0.1750  0.4493  0.7596
 5577TIP3    H138366   2.687   2.720   0.768 -0.9236  3.1341 -0.4655
 5577TIP3    H238367   2.809   2.710   0.858 -1.7304 -1.7249  0.3576
 5578TIP3   OH238368   3.666   4.894   7.978  0.3197 -0.3517 -0.8070
 5578TIP3    H138369   3.729   4.855   7.918  0.0912 -0.4913 -0.9561
 5578TIP3    H238370   3.664   4.987   7.954  0.2236 -0.4093 -1.0175
 5579TIP3   OH238371   0.115   1.127   1.178 -0.1765 -0.3903  0.5647
 5579TIP3    H138372   0.121   1.209   1.128 -3.5480  0.6681  1.6127
 5579TIP3    H238373   0.051   1.074   1.130  0.5253 -1.6040  0.9408
 5580TIP3   OH238374   0.394   3.589   8.662 -0.2144  0.5775 -0.6369
 5580TIP3    H138375   0.344   3.650   8.608 -0.3702  2.3508  1.3414
 5580TIP3    H238376   0.329   3.552   8.722  0.3341  0.6165 -0.0032
 5581TIP3   OH238377   3.451   1.319   8.379 -0.0058  0.3299 -0.1230
 5581TIP3    H138378   3.451   1.361   8.293 -1.4363 -0.4364 -0.5240
 5581TIP3    H238379   3.382   1.365   8.428 -1.3536 -1.2588 -0.4519
 5582TIP3   OH238380   6.255   3.234   7.416 -0.5918  0.2310 -0.2115
 5582TIP3    H138381   6.180   3.258   7.362  1.0656  0.4874 -2.5304
 5582TIP3    H238382   6.293   3.158   7.371  0.6192  0.1722  0.8602
 5583TIP3   OH238383   0.248   3.194   2.284 -0.4343 -0.5977 -0.0492
 5583TIP3    H138384   0.234   3.101   2.299 -1.4542 -0.4488  0.0244
 5583TIP3    H238385   0.281   3.199   2.194  0.4222 -1.0850  0.2341
 5584TIP3   OH238386   3.525   4.833   8.692  0.1082 -0.0927  0.1741
 5584TIP3    H138387   3.564   4.766   8.637 -1.7645 -0.9577 -0.1445
 5584TIP3    H238388   3.508   4.790   8.775 -0.9092  0.0348  0.0409
 5585TIP3   OH238389   2.452   6.542   8.049 -1.0837  0.2220 -0.0101
 5585TIP3    H138390   2.366   6.566   8.084 -1.1924 -0.2453  0.0582
 5585TIP3    H238391   2.462   6.450   8.073 -0.3345  0.4083  0.4399
 5586TIP3   OH238392   2.361   5.623   8.543 -0.3855  0.4801 -0.3336
 5586TIP3    H138393   2.428   5.665   8.596 -1.9037  2.4424  0.1612
 5586TIP3    H238394   2.281   5.627   8.597 -1.3094 -0.1169 -1.5964
 5587TIP3   OH238395   3.078   6.114   8.175  0.3368 -0.0064  0.0032
 5587TIP3    H138396   3.109   6.157   8.095  0.1056  0.8859  0.3952
 5587TIP3    H238397   2.991   6.150   8.190  0.8523  0.7177  1.3216
 5588TIP3   OH238398   2.449   4.097   8.203  0.3649 -0.5310 -0.1511
 5588TIP3    H138399   2.367   4.053   8.183  1.2590 -2.5867  0.4805
 5588TIP3    H238400   2.451   4.173   8.144 -0.9464 -1.6780 -1.7423
 5589TIP3   OH238401   5.658   3.426   8.544  0.5244  0.1731  0.2314
 5589TIP3    H138402   5.710   3.504   8.525  0.8952 -0.1225  0.0286
 5589TIP3    H238403   5.613   3.408   8.461  0.2034  0.3445  0.3654
 5590TIP3   OH238404   3.779   6.709   1.258 -0.4982  0.1377  0.5558
 5590TIP3    H138405   3.742   6.726   1.344  0.9969 -1.2854  1.5470
 5590TIP3    H238406   3.712   6.658   1.213 -0.8920  0.0342  1.2491
 5591TIP3   OH238407   0.971   0.070   7.922  0.3339  1.2534  0.0952
 5591TIP3    H138408   1.038   0.092   7.988  1.5045 -1.9393  0.1348
 5591TIP3    H238409   1.019   0.069   7.839  0.2022 -0.1970  0.0081
 5592TIP3   OH238410   5.569   3.937   1.116 -0.1565 -0.5176 -0.3843
 5592TIP3    H138411   5.474   3.927   1.127  0.1447 -1.6390  1.4169
 5592TIP3    H238412   5.586   4.029   1.136 -0.7571 -0.5053  0.0776
 5593TIP3   OH238413   1.329   0.514   7.226  0.1277 -0.6869 -0.0137
 5593TIP3    H138414   1.351   0.425   7.198  1.4253 -0.0439 -1.2109
 5593TIP3    H238415   1.407   0.544   7.272  0.5182  0.4808 -1.3595
 5594TIP3   OH238416   6.463   1.904   8.052  0.2904 -0.3700  0.4663
 5594TIP3    H138417   6.554   1.916   8.022  0.3677 -2.6851 -0.4766
 5594TIP3    H238418   6.415   1.978   8.014  1.4371 -0.2019 -0.7431
 5595TIP3   OH238419   2.853   2.332   7.496 -0.1859 -0.0901  0.2082
 5595TIP3    H138420   2.897   2.395   7.438  1.4556 -1.3195  0.0509
 5595TIP3    H238421   2.877   2.247   7.460 -1.1230 -0.8361  1.3094
 5596TIP3   OH238422   5.077   1.676   0.492 -0.4525  0.2272 -0.0666
 5596TIP3    H138423   4.985   1.651   0.481  0.0080 -1.2678 -0.8719
 5596TIP3    H238424   5.094   1.666   0.586 -1.4202  1.7492  0.2979
 5597TIP3   OH238425   0.448   2.776   0.533 -0.2968  0.4789 -0.4287
 5597TIP3    H138426   0.516   2.713   0.557 -2.4587 -1.8621 -0.1670
 5597TIP3    H238427   0.423   2.752   0.444 -2.6151 -0.4616  0.4248
 5598TIP3   OH238428   5.883   2.979   2.947 -0.8565 -0.2332  0.3104
 5598TIP3    H138429   5.850   3.067   2.963 -0.5646 -0.2028  0.7479
 5598TIP3    H238430   5.809   2.933   2.906 -1.9185 -0.5301  2.3939
 5599TIP3   OH238431   3.130   4.665   7.918  0.2035  0.5320  0.5078
 5599TIP3    H138432   3.099   4.708   7.998 -0.7825 -0.2726  0.5789
 5599TIP3    H238433   3.060   4.679   7.855  1.1434  1.4926 -0.3674
 5600TIP3   OH238434   4.689   3.597   1.524 -0.1874  0.2433  0.6237
 5600TIP3    H138435   4.685   3.688   1.494 -0.9185 -0.0952 -0.3672
 5600TIP3    H238436   4.704   3.603   1.619 -0.3354  1.3912  0.5817
 5601TIP3   OH238437   0.584   4.406   3.251 -0.2389 -0.0226  0.5640
 5601TIP3    H138438   0.578   4.311   3.263  2.0271 -0.4242 -0.8856
 5601TIP3    H238439   0.653   4.434   3.311 -0.3065  0.5739  0.3685
 5602TIP3   OH238440   6.584   1.461   7.194  0.7269  0.4066 -0.2907
 5602TIP3    H138441   6.501   1.507   7.207  0.5779  0.7282 -2.1276
 5602TIP3    H238442   6.651   1.526   7.217  0.4841  0.9587 -1.0926
 5603TIP3   OH238443   0.094   4.513   2.166  0.4666 -0.3577  0.0652
 5603TIP3    H138444   0.097   4.533   2.073  1.3462 -0.5808  0.0360
 5603TIP3    H238445   0.039   4.581   2.204 -0.4463 -0.6418 -0.7051
 5604TIP3   OH238446   2.645   2.209   8.238  0.7128 -0.3024 -0.7332
 5604TIP3    H138447   2.709   2.277   8.214  1.5233 -0.9800 -0.5051
 5604TIP3    H238448   2.680   2.129   8.200  0.4017 -0.8270  0.0685
 5605TIP3   OH238449   5.229   6.095   8.565  0.8061 -0.7423  0.6890
 5605TIP3    H138450   5.163   6.050   8.511  0.0430 -1.0961  1.8712
 5605TIP3    H238451   5.183   6.169   8.603  1.9887  0.9604 -1.0127
 5606TIP3   OH238452   0.374   5.615   1.634 -0.0001  0.2822  0.0376
 5606TIP3    H138453   0.316   5.569   1.573  0.0209  1.9741 -1.3316
 5606TIP3    H238454   0.395   5.550   1.701 -0.2539 -1.5639 -1.5953
 5607TIP3   OH238455   3.842   2.176   1.032  0.1368 -0.0884 -0.2373
 5607TIP3    H138456   3.777   2.241   1.005  0.5820  0.8109  0.7813
 5607TIP3    H238457   3.924   2.207   0.993  0.2501 -0.3333 -0.1947
 5608TIP3   OH238458   4.959   3.372   1.696 -0.1295 -0.1956 -0.1992
 5608TIP3    H138459   5.045   3.401   1.665  0.0221 -1.1503 -0.7009
 5608TIP3    H238460   4.976   3.330   1.780 -0.3380  1.0407  0.4865
 5609TIP3   OH238461   3.872   4.926   0.532 -0.9202  0.4546  0.3934
 5609TIP3    H138462   3.888   4.850   0.589  1.3354  0.0841 -0.6157
 5609TIP3    H238463   3.928   4.911   0.456 -0.3343  3.1808  0.1915
 5610TIP3   OH238464   0.183   4.014   0.689  0.0668  0.4730  0.4092
 5610TIP3    H138465   0.154   4.092   0.737  0.4867  1.5532 -1.0246
 5610TIP3    H238466   0.140   3.941   0.734 -3.1387  1.7853 -0.1860
 5611TIP3   OH238467   2.619   6.296   8.022  0.5663 -0.0087 -0.4377
 5611TIP3    H138468   2.630   6.376   7.970 -0.4411 -0.6993 -1.7967
 5611TIP3    H238469   2.626   6.225   7.958 -0.6019 -0.9055  0.3836
 5612TIP3   OH238470   0.954   5.217   7.169  0.5591  0.6542  0.3273
 5612TIP3    H138471   1.023   5.282   7.156  0.1614  0.6240 -2.5330
 5612TIP3    H238472   0.972   5.150   7.103 -0.5112 -0.8733  1.5337
 5613TIP3   OH238473   1.300   4.993   0.456 -0.1163  0.0720  0.1219
 5613TIP3    H138474   1.283   5.072   0.405 -0.1347  0.3490  0.5451
 5613TIP3    H238475   1.333   5.026   0.540  1.6416 -0.4062 -0.3251
 5614TIP3   OH238476   0.065   2.774   1.651 -0.1800 -0.1942  0.1064
 5614TIP3    H138477   0.159   2.767   1.636 -0.4271 -1.2911 -1.1420
 5614TIP3    H238478   0.032   2.684   1.639 -1.3101  0.0510  1.1335
 5615TIP3   OH238479   3.619   1.520   1.590 -0.1269  0.0124  0.8414
 5615TIP3    H138480   3.653   1.543   1.503  0.1549  0.5582  1.0921
 5615TIP3    H238481   3.537   1.569   1.597  0.1978  0.5283  1.1537
 5616TIP3   OH238482   4.787   5.909   1.175 -0.8344  0.1669  0.6735
 5616TIP3    H138483   4.829   5.984   1.131 -0.2226  0.0651  1.0776
 5616TIP3    H238484   4.796   5.837   1.112 -1.5152  0.4421  0.2395
 5617TIP3   OH238485   0.854   3.893   7.927 -0.3298 -0.1486 -0.6557
 5617TIP3    H138486   0.936   3.931   7.895 -0.1725 -0.1314 -0.2327
 5617TIP3    H238487   0.881   3.833   7.996 -0.7183  0.3634 -0.0450
 5618TIP3   OH238488   0.766   6.650   2.966  0.3519 -0.2424  0.9489
 5618TIP3    H138489   0.770   6.745   2.967 -0.8253 -0.1527 -0.4233
 5618TIP3    H238490   0.851   6.623   2.930 -0.0758  0.3904 -0.6015
 5619TIP3   OH238491   3.567   4.397   2.359 -0.2954  0.3322 -0.5200
 5619TIP3    H138492   3.529   4.468   2.306 -1.7233  0.1985  0.2611
 5619TIP3    H238493   3.599   4.441   2.437 -0.0312  0.2695 -0.5929
 5620TIP3   OH238494   2.504   5.853   1.377 -0.5336  0.2973 -0.0351
 5620TIP3    H138495   2.596   5.862   1.353 -0.3928 -0.4264  0.2001
 5620TIP3    H238496   2.495   5.760   1.401 -1.5758  0.0898 -1.1403
 5621TIP3   OH238497   2.290   2.062   1.079  0.3457 -0.1675  0.2985
 5621TIP3    H138498   2.313   2.109   1.159 -1.0721  2.1168 -0.5625
 5621TIP3    H238499   2.372   2.019   1.053  1.5710  1.3485  1.4649
 5622TIP3   OH238500   3.721   2.157   8.315 -0.2530 -0.2621  0.3075
 5622TIP3    H138501   3.706   2.251   8.312 -0.3665 -0.2588  0.8802
 5622TIP3    H238502   3.790   2.142   8.251 -1.3899 -0.0202 -1.0069
 5623TIP3   OH238503   1.385   3.483   0.151 -0.0625  0.4726 -0.2623
 5623TIP3    H138504   1.301   3.522   0.127  0.1214  1.0977  0.1114
 5623TIP3    H238505   1.377   3.461   0.244  0.2444  0.6845 -0.1834
 5624TIP3   OH238506   3.585   5.702   0.180  0.3578 -0.5579 -1.1025
 5624TIP3    H138507   3.512   5.686   0.120  0.2298 -0.0792 -1.0793
 5624TIP3    H238508   3.616   5.615   0.205 -1.8485 -0.8577  0.9203
 5625TIP3   OH238509   1.138   5.263   0.068 -0.0253 -0.0205  0.1217
 5625TIP3    H138510   1.159   5.292  -0.021 -0.4423 -1.2777 -0.4203
 5625TIP3    H238511   1.066   5.319   0.096 -2.0768 -1.6003 -1.6060
 5626TIP3   OH238512   3.891   0.347   7.511  0.3207 -1.2189  0.2822
 5626TIP3    H138513   3.881   0.437   7.539  2.5454 -0.3335 -1.4604
 5626TIP3    H238514   3.840   0.341   7.431  0.3899 -1.4288  0.2527
 5627TIP3   OH238515   0.246   5.795   2.126  0.3070 -0.5976 -0.4074
 5627TIP3    H138516   0.188   5.871   2.122  0.8975 -0.1278 -0.1843
 5627TIP3    H238517   0.220   5.749   2.207  0.3493 -0.3006 -0.2234
 5628TIP3   OH238518   5.500   1.288   1.283 -0.1213 -0.1392 -0.1353
 5628TIP3    H138519   5.435   1.357   1.274  0.0737  0.2119  0.9652
 5628TIP3    H238520   5.463   1.228   1.347 -0.0611 -0.8044 -0.7041
 5629TIP3   OH238521   2.939   0.814   0.053  0.0021  0.0914  0.0093
 5629TIP3    H138522   2.875   0.885   0.056 -1.6913 -1.3575 -0.0442
 5629TIP3    H238523   2.914   0.756   0.125 -1.5316 -2.6868 -2.4929
 5630TIP3   OH238524   5.075   4.676   0.692  0.6090 -0.4340 -0.0301
 5630TIP3    H138525   5.132   4.600   0.682 -0.7077 -1.3369 -1.1438
 5630TIP3    H238526   5.105   4.738   0.625 -0.3079 -1.3260 -1.3145
 5631TIP3   OH238527   4.505   3.083   7.259  0.6694  0.3530  0.5927
 5631TIP3    H138528   4.552   3.158   7.222  0.7808  0.3033  0.6342
 5631TIP3    H238529   4.458   3.119   7.334 -1.3279  0.9439 -0.8537
 5632TIP3   OH238530   2.227   2.431   1.598  0.4603  0.0183  0.0958
 5632TIP3    H138531   2.216   2.500   1.663  0.7413  1.7000 -1.5862
 5632TIP3    H238532   2.172   2.359   1.630  0.9270  0.5939  2.3978
 5633TIP3   OH238533   2.200   2.392   2.137 -0.2360 -0.2800 -0.1761
 5633TIP3    H138534   2.284   2.437   2.126 -1.3006  1.6231 -1.0237
 5633TIP3    H238535   2.219   2.301   2.114  1.5986  0.0808 -0.2789
 5634TIP3   OH238536   6.255   2.402   0.654 -0.0839  0.1478  0.1528
 5634TIP3    H138537   6.289   2.412   0.743  1.5673  0.4945 -0.4859
 5634TIP3    H238538   6.257   2.490   0.618  0.7599 -0.2120 -0.7250
 5635TIP3   OH238539   2.276   3.099   0.226  0.0946  0.2589  0.4342
 5635TIP3    H138540   2.290   3.042   0.301 -0.8382 -0.0078  0.4114
 5635TIP3    H238541   2.182   3.096   0.209  0.0423  1.6290  0.2953
 5636TIP3   OH238542   2.395   6.355   2.155  0.7044 -0.4321 -0.2481
 5636TIP3    H138543   2.483   6.316   2.156  0.6968 -0.4606  1.3799
 5636TIP3    H238544   2.342   6.297   2.209  0.2292  0.7982  0.6538
 5637TIP3   OH238545   1.918   3.921   7.934 -0.0754 -0.3017 -0.2109
 5637TIP3    H138546   1.947   3.864   8.005  2.1112  0.3088 -0.5420
 5637TIP3    H238547   1.934   3.871   7.854  0.7969  0.3287 -0.4419
 5638TIP3   OH238548   0.237   0.296   1.197  0.0473  0.2665  0.2911
 5638TIP3    H138549   0.267   0.353   1.127  1.7408 -0.0685  0.6957
 5638TIP3    H238550   0.198   0.221   1.152 -0.3360  0.7836 -0.2558
 5639TIP3   OH238551   4.068   0.865   7.951 -0.3885  0.9497  0.0039
 5639TIP3    H138552   4.134   0.918   7.996 -0.9970  1.3396  0.4551
 5639TIP3    H238553   4.103   0.775   7.955  0.6142  1.2897 -0.7069
 5640TIP3   OH238554   0.770   0.152   3.799  0.1863  0.0443  0.2099
 5640TIP3    H138555   0.733   0.180   3.883 -1.5169  2.9794 -1.3191
 5640TIP3    H238556   0.865   0.166   3.809 -0.0918  1.4338  1.3400
 5641TIP3   OH238557   5.069   5.743   1.365 -0.2279 -0.0470 -0.1215
 5641TIP3    H138558   4.996   5.691   1.398 -0.1544 -0.2112 -0.2156
 5641TIP3    H238559   5.044   5.834   1.383  0.3963 -0.1896  1.5613
 5642TIP3   OH238560   0.589   6.114   1.410  0.6390 -0.0880  0.0152
 5642TIP3    H138561   0.552   6.192   1.369  1.0588 -0.6284 -1.4565
 5642TIP3    H238562   0.518   6.080   1.464 -0.2533  0.1541 -0.9685
 5643TIP3   OH238563   5.276   2.972   0.460  0.0029 -0.2331  0.2659
 5643TIP3    H138564   5.300   3.065   0.456 -0.0564 -0.0974  2.0963
 5643TIP3    H238565   5.360   2.926   0.459  0.1617 -0.0157  1.6415
 5644TIP3   OH238566   4.807   5.357   1.267  0.4920 -0.0350  0.2198
 5644TIP3    H138567   4.722   5.348   1.309 -0.3180  0.3539 -1.2799
 5644TIP3    H238568   4.869   5.321   1.331 -0.6869  0.4219  1.6751
 5645TIP3   OH238569   4.477   5.621   2.413 -0.6112 -0.3276  0.4936
 5645TIP3    H138570   4.415   5.555   2.383 -1.2047  1.3193 -2.2081
 5645TIP3    H238571   4.559   5.574   2.424 -1.5466 -1.9182  0.9373
 5646TIP3   OH238572   6.696   1.281   0.080 -0.0621  0.8529 -0.5843
 5646TIP3    H138573   6.633   1.272   0.152  0.1549  1.1261 -0.3546
 5646TIP3    H238574   6.759   1.210   0.094 -0.1164  0.7998 -0.6068
 5647TIP3   OH238575   2.376   1.603   0.812  0.3768  0.4240  0.1392
 5647TIP3    H138576   2.454   1.548   0.826 -0.5227 -0.9924 -0.2052
 5647TIP3    H238577   2.394   1.649   0.731 -0.7335 -2.9758 -2.2733
 5648TIP3   OH238578   1.567   0.667   0.798 -0.9744  0.2264 -0.0290
 5648TIP3    H138579   1.500   0.599   0.806 -0.6889 -0.1098 -0.4263
 5648TIP3    H238580   1.559   0.696   0.707  0.6919 -1.1760 -0.6924
 5649TIP3   OH238581   2.418   0.315   2.276  0.0557 -0.0092  0.2995
 5649TIP3    H138582   2.336   0.282   2.312 -1.0354 -0.0986 -2.1009
 5649TIP3    H238583   2.395   0.397   2.231  1.3920  0.2963  0.0999
 5650TIP3   OH238584   3.927   2.898   1.313 -0.2710 -0.6100 -0.5178
 5650TIP3    H138585   4.017   2.866   1.312  0.2089  0.4268  2.0351
 5650TIP3    H238586   3.878   2.831   1.361 -0.9903 -1.3519 -2.2179
 5651TIP3   OH238587   2.892   1.889   0.230  0.3854 -0.5767 -0.6962
 5651TIP3    H138588   2.898   1.952   0.301 -0.4711 -0.8436 -0.3756
 5651TIP3    H238589   2.941   1.813   0.262 -0.4516 -0.9009 -0.1525
 5652TIP3   OH238590   6.054   0.983   2.946  0.4320 -0.1128  0.2923
 5652TIP3    H138591   5.978   0.962   2.891 -0.5571 -0.6201  1.7970
 5652TIP3    H238592   6.121   0.920   2.920 -0.4362 -1.1426  0.5169
 5653TIP3   OH238593   4.046   4.165   8.542  0.2044 -0.2105  0.2338
 5653TIP3    H138594   4.084   4.241   8.497  2.4473 -1.3588  0.0419
 5653TIP3    H238595   4.061   4.092   8.483 -1.9935 -0.8333  0.3876
 5654TIP3   OH238596   3.801   1.004   8.477 -0.2305 -0.5560  0.2288
 5654TIP3    H138597   3.894   0.997   8.496 -0.1177  0.8269  0.2971
 5654TIP3    H238598   3.758   0.950   8.544  0.5066 -1.1024  0.2660
 5655TIP3   OH238599   4.209   2.278   1.820  0.0076  0.2403 -0.2461
 5655TIP3    H138600   4.143   2.231   1.872  0.0280  2.4693  1.9507
 5655TIP3    H238601   4.159   2.346   1.775  0.7177  1.9279  1.4137
 5656TIP3   OH238602   4.691   2.954   7.799 -0.1498  0.0613 -0.4932
 5656TIP3    H138603   4.697   2.918   7.711 -2.1641  0.8627 -1.0062
 5656TIP3    H238604   4.759   3.021   7.802 -0.6553  0.6566 -1.7695
 5657TIP3   OH238605   4.011   3.648   8.658 -0.1048  0.4006  0.0522
 5657TIP3    H138606   4.001   3.742   8.678  0.8691  0.7391 -1.0156
 5657TIP3    H238607   4.076   3.617   8.721 -1.5621  0.0543  1.4598
 5658TIP3   OH238608   3.222   0.341   1.510 -0.0741  0.5734 -0.1899
 5658TIP3    H138609   3.141   0.292   1.518  0.0583  0.4546  0.5365
 5658TIP3    H238610   3.198   0.432   1.530  0.1641  0.3590  1.1370
 5659TIP3   OH238611   2.125   0.359   0.291 -0.1276  0.1890  0.0456
 5659TIP3    H138612   2.130   0.302   0.368 -2.0671 -0.2019 -0.0887
 5659TIP3    H238613   2.215   0.360   0.257  0.3750 -1.1155  1.2321
 5660TIP3   OH238614   5.004   3.684   1.801  0.0002 -0.3449  0.1661
 5660TIP3    H138615   4.946   3.609   1.782 -3.4838  2.3086 -0.7218
 5660TIP3    H238616   5.040   3.708   1.716 -0.4676  0.1246  0.0938
 5661TIP3   OH238617   2.380   2.515   1.979 -0.1180 -0.3044  0.1769
 5661TIP3    H138618   2.398   2.607   1.999  0.3248  0.4295 -2.9859
 5661TIP3    H238619   2.291   2.515   1.943 -0.1075 -1.0929  0.1428
 5662TIP3   OH238620   2.603   3.816   0.767  0.4158 -0.3694  0.4690
 5662TIP3    H138621   2.600   3.837   0.674 -1.0187  0.3476  0.6504
 5662TIP3    H238622   2.532   3.753   0.781  0.7186 -0.5950  1.0523
 5663TIP3   OH238623   4.523   2.487   1.193  0.1102 -0.5845  0.7617
 5663TIP3    H138624   4.519   2.551   1.265  2.0077  2.0331 -1.2719
 5663TIP3    H238625   4.615   2.461   1.189  0.1540 -0.2385 -1.0449
 5664TIP3   OH238626   6.399   2.146   2.010  0.6012 -0.1613 -0.0928
 5664TIP3    H138627   6.487   2.111   2.000 -0.0116 -2.2277  1.1229
 5664TIP3    H238628   6.357   2.088   2.073 -1.5096  1.0214 -0.3058
 5665TIP3   OH238629   5.361   5.092   7.603 -0.4245 -0.0621  0.7028
 5665TIP3    H138630   5.269   5.100   7.581  0.0645  2.4418 -0.7190
 5665TIP3    H238631   5.407   5.101   7.520  1.1540 -0.6785  1.4617
 5666TIP3   OH238632   1.043   6.805   2.617  0.2631 -0.4523  0.1169
 5666TIP3    H138633   1.103   6.749   2.568 -1.8306 -1.5294 -1.3871
 5666TIP3    H238634   0.968   6.749   2.635 -1.3041  1.4534 -0.1588
 5667TIP3   OH238635   6.127   3.706   7.872 -0.2665 -0.0365 -0.0284
 5667TIP3    H138636   6.200   3.670   7.923 -1.2266 -3.5697 -0.9211
 5667TIP3    H238637   6.062   3.732   7.938 -0.2075 -1.5819  0.6857
 5668TIP3   OH238638   2.103   4.227   0.593 -0.5742  0.4673 -0.1605
 5668TIP3    H138639   2.012   4.254   0.604 -0.5277  0.3601  0.5216
 5668TIP3    H238640   2.140   4.229   0.681 -0.4475 -1.3388 -0.1394
 5669TIP3   OH238641   0.406   0.606   1.434  0.3707  0.5831  0.8034
 5669TIP3    H138642   0.316   0.577   1.427  0.6850 -0.1845 -0.2839
 5669TIP3    H238643   0.416   0.671   1.363  1.2522 -0.9645 -0.5572
 5670TIP3   OH238644   4.706   4.584   0.285 -0.2621 -0.0998 -0.2399
 5670TIP3    H138645   4.720   4.520   0.354 -1.5136 -1.3959 -1.1096
 5670TIP3    H238646   4.794   4.608   0.256  0.3131  1.0499  2.2402
 5671TIP3   OH238647   6.762   0.815   2.728  0.1628  0.4859  0.4011
 5671TIP3    H138648   6.839   0.872   2.722  0.0285  0.7209  0.8522
 5671TIP3    H238649   6.702   0.849   2.661  1.1240 -0.7743 -1.1671
 5672TIP3   OH238650   2.205   0.504   2.437 -0.0632 -0.0881 -0.9072
 5672TIP3    H138651   2.212   0.585   2.487 -0.0990  0.0577 -1.1425
 5672TIP3    H238652   2.218   0.435   2.503  0.5679  0.1166 -0.8137
 5673TIP3   OH238653   5.886   0.753   8.348 -0.1061  0.8053  0.0262
 5673TIP3    H138654   5.966   0.703   8.363 -0.1848  1.0889  1.5059
 5673TIP3    H238655   5.848   0.714   8.269  0.2575 -0.9295  0.6714
 5674TIP3   OH238656   0.224   4.561   8.505 -0.2184 -0.0866  0.0242
 5674TIP3    H138657   0.201   4.477   8.545 -0.0854  0.5269  1.4558
 5674TIP3    H238658   0.315   4.576   8.531 -0.5417  0.9408  0.5780
 5675TIP3   OH238659   5.199   6.419   8.483 -0.1021 -0.0884 -0.0580
 5675TIP3    H138660   5.119   6.428   8.431  0.0467 -0.6560 -0.3944
 5675TIP3    H238661   5.264   6.386   8.422  0.5084  0.7630  0.1185
 5676TIP3   OH238662   3.976   4.864   8.345 -0.5088 -1.1535  0.5094
 5676TIP3    H138663   4.062   4.847   8.384 -0.5364 -0.7767  0.7338
 5676TIP3    H238664   3.937   4.931   8.401 -0.1972  0.0525 -0.6594
 5677TIP3   OH238665   0.219   2.841   2.724  0.1598 -0.1972  0.1575
 5677TIP3    H138666   0.213   2.878   2.636  0.8751  0.8329  0.5327
 5677TIP3    H238667   0.188   2.911   2.782  0.1266 -0.7078  0.7701
 5678TIP3   OH238668   2.149   1.830   2.034  0.2649  0.0917 -0.1860
 5678TIP3    H138669   2.161   1.911   2.083 -1.0883 -0.5613  1.2957
 5678TIP3    H238670   2.054   1.820   2.027  0.4171 -1.0899 -0.8119
 5679TIP3   OH238671   1.360   3.773   1.502 -0.3447  0.3113  0.5407
 5679TIP3    H138672   1.386   3.688   1.466 -0.8450  0.3635  0.0367
 5679TIP3    H238673   1.442   3.816   1.525 -0.1090 -0.6088  1.5105
 5680TIP3   OH238674   0.783   2.006   2.309 -0.0901 -0.1283  0.3297
 5680TIP3    H138675   0.799   1.949   2.234  1.2373  1.7993 -0.9721
 5680TIP3    H238676   0.858   1.991   2.367  0.2581  0.2390 -0.0125
 5681TIP3   OH238677   4.133   2.885   0.951 -0.0345 -0.3978 -0.2069
 5681TIP3    H138678   4.202   2.951   0.961  0.5598 -1.0516  0.0864
 5681TIP3    H238679   4.086   2.912   0.872 -0.3479  0.8631  0.3769
 5682TIP3   OH238680   5.703   1.120   1.291 -0.1881 -0.3676  0.0368
 5682TIP3    H138681   5.657   1.053   1.240 -0.3688  0.0032 -0.2964
 5682TIP3    H238682   5.638   1.188   1.306  0.6403  0.9240 -1.8321
 5683TIP3   OH238683   2.444   1.990   8.497  0.5670  0.4774 -0.3658
 5683TIP3    H138684   2.520   1.953   8.452 -1.0917 -2.0413 -1.3650
 5683TIP3    H238685   2.420   2.066   8.445  1.5962  0.5119 -0.8224
 5684TIP3   OH238686   3.942   5.761   1.697 -0.0690  0.5350 -0.2763
 5684TIP3    H138687   3.985   5.744   1.613 -2.4621 -1.9954 -1.1412
 5684TIP3    H238688   3.867   5.816   1.676  0.2403  1.2799  0.5037
 5685TIP3   OH238689   3.111   4.810   1.031 -0.1853 -0.1028 -0.4654
 5685TIP3    H138690   3.022   4.795   1.063  0.5494 -1.1108  1.2482
 5685TIP3    H238691   3.104   4.887   0.975 -1.9727  0.3832  0.3602
 5686TIP3   OH238692   1.884   5.780   3.527  0.3579 -0.3119 -0.6904
 5686TIP3    H138693   1.837   5.699   3.511  1.6142 -0.9684 -1.2202
 5686TIP3    H238694   1.819   5.839   3.563 -0.4881 -1.6755  0.0832
 5687TIP3   OH238695   0.189   0.209   0.311 -0.3506  0.4050 -0.2324
 5687TIP3    H138696   0.252   0.176   0.374 -0.5922  0.5453  0.0826
 5687TIP3    H238697   0.183   0.141   0.244  0.1005  0.3717 -0.2416
 5688TIP3   OH238698   5.990   0.648   7.884 -0.1319 -0.2428 -0.0865
 5688TIP3    H138699   5.923   0.635   7.951 -0.3311 -1.0590 -0.4369
 5688TIP3    H238700   5.942   0.685   7.809 -0.0052  0.1456  0.0209
 5689TIP3   OH238701   2.629   2.530   8.234 -0.4524 -0.8579  0.2455
 5689TIP3    H138702   2.671   2.506   8.151 -0.3842  0.6721 -0.2091
 5689TIP3    H238703   2.535   2.519   8.217 -0.3734 -4.2889  1.2671
 5690TIP3   OH238704   5.527   6.273   7.588  0.7841  0.1044 -0.3718
 5690TIP3    H138705   5.621   6.264   7.575  0.6478 -0.6444 -0.9221
 5690TIP3    H238706   5.493   6.184   7.580  0.1632  0.1872  1.0476
 5691TIP3   OH238707   2.451   2.768   0.025  0.4713 -0.2385  0.0939
 5691TIP3    H138708   2.478   2.695  -0.031 -0.5346  1.1665 -2.3448
 5691TIP3    H238709   2.504   2.842  -0.003 -0.1198  0.5439  0.9611
 5692TIP3   OH238710   1.193   2.406   1.894 -0.1737 -0.0475 -0.6329
 5692TIP3    H138711   1.188   2.385   1.801  3.8391  0.0148 -1.0234
 5692TIP3    H238712   1.247   2.337   1.932 -0.6878  0.5957  1.4380
 5693TIP3   OH238713   3.108   5.179   1.021 -0.0787 -0.0267  0.5455
 5693TIP3    H138714   3.082   5.122   0.949  1.1284 -1.2826  1.0504
 5693TIP3    H238715   3.186   5.137   1.058 -0.4270  0.7823  2.3265
 5694TIP3   OH238716   6.000   6.644   0.645  0.2011 -0.2208 -0.0500
 5694TIP3    H138717   5.928   6.678   0.592  0.8853 -1.0788 -1.5919
 5694TIP3    H238718   6.006   6.705   0.719 -0.7560  1.0529 -0.9722
 5695TIP3   OH238719   2.756   0.704   8.281 -0.6734  0.1776  0.0290
 5695TIP3    H138720   2.750   0.790   8.241  3.1298  1.4525  1.6480
 5695TIP3    H238721   2.836   0.666   8.244 -0.3998 -1.1430  1.8261
 5696TIP3   OH238722   6.770   3.531   2.447  0.3248  0.5775  0.3169
 5696TIP3    H138723   6.779   3.626   2.438  0.8088  0.6739  1.5964
 5696TIP3    H238724   6.723   3.519   2.530  1.3381 -0.3176  0.7925
 5697TIP3   OH238725   1.939   1.926   1.110 -0.3705  0.9850  0.2513
 5697TIP3    H138726   1.864   1.966   1.066 -0.5062  0.3075 -0.1505
 5697TIP3    H238727   2.014   1.980   1.084 -0.8996  2.5574  1.8353
 5698TIP3   OH238728   1.679   1.493   0.383 -0.2784 -0.6831  0.3639
 5698TIP3    H138729   1.672   1.585   0.407 -0.1459  0.1942 -2.6513
 5698TIP3    H238730   1.599   1.475   0.333 -0.2559 -2.2129  0.8028
 5699TIP3   OH238731   1.369   3.682   3.106  0.4826  0.0346  0.5180
 5699TIP3    H138732   1.449   3.731   3.088 -0.2521  0.9147 -0.4606
 5699TIP3    H238733   1.318   3.739   3.165  0.1069 -0.0270  0.2601
 5700TIP3   OH238734   6.144   4.677   2.843 -0.2134 -0.1542 -0.2570
 5700TIP3    H138735   6.089   4.626   2.903  1.7837 -1.6299  0.4548
 5700TIP3    H238736   6.196   4.733   2.901  0.8829 -0.7235 -0.6574
 5701TIP3   OH238737   2.490   2.120   2.343 -0.1186 -0.0097 -0.6899
 5701TIP3    H138738   2.584   2.138   2.345 -0.1951  0.3369  0.8690
 5701TIP3    H238739   2.474   2.084   2.256  1.5849 -0.7358 -0.7333
 5702TIP3   OH238740   6.441   6.389   7.968  0.6395  0.7481  0.7304
 5702TIP3    H138741   6.503   6.322   7.998  3.1138  3.3600  1.8976
 5702TIP3    H238742   6.368   6.384   8.030  0.8014 -0.7362  0.8448
 5703TIP3   OH238743   1.062   6.467   1.453 -0.3793  0.0926 -0.4343
 5703TIP3    H138744   1.051   6.552   1.496  2.5381 -0.6823  2.2109
 5703TIP3    H238745   1.126   6.421   1.506 -1.6963 -3.7899 -1.8152
 5704TIP3   OH238746   4.104   6.717   2.780  0.1328  0.0415  0.3291
 5704TIP3    H138747   4.141   6.715   2.868 -1.8188 -1.2733  1.1834
 5704TIP3    H238748   4.045   6.641   2.777 -1.4378  1.2434 -1.3779
 5705TIP3   OH238749   2.802   6.234   3.014  0.4671  0.4078  0.7029
 5705TIP3    H138750   2.871   6.300   3.008  0.1970  0.7834  1.6073
 5705TIP3    H238751   2.721   6.281   2.995  0.4642 -0.0908 -0.6461
 5706TIP3   OH238752   0.682   0.402   0.475 -0.6047  0.5995 -0.1114
 5706TIP3    H138753   0.614   0.432   0.416  0.3445 -1.6769 -2.5657
 5706TIP3    H238754   0.640   0.335   0.529 -0.5204 -0.3497 -1.1900
 5707TIP3   OH238755   5.684   1.537   2.337 -0.0881  0.3244 -0.7144
 5707TIP3    H138756   5.653   1.449   2.314  0.3334 -0.3472  1.0394
 5707TIP3    H238757   5.645   1.553   2.423  0.2540  1.6552 -0.7934
 5708TIP3   OH238758   2.009   6.316   7.736 -0.1970  0.2033 -0.0743
 5708TIP3    H138759   1.949   6.262   7.685 -0.1196 -0.0654  0.1179
 5708TIP3    H238760   2.052   6.371   7.671 -0.4568  0.2114 -0.2445
 5709TIP3   OH238761   2.775   5.975   8.094 -0.5377 -0.1660 -0.2360
 5709TIP3    H138762   2.809   6.051   8.141 -1.0551  0.9607 -1.5895
 5709TIP3    H238763   2.712   5.935   8.153  0.6218 -0.2678  0.9652
 5710TIP3   OH238764   3.260   4.435   1.115 -0.5716  0.5464 -0.2452
 5710TIP3    H138765   3.325   4.499   1.145 -0.9482  0.6963  0.2667
 5710TIP3    H238766   3.282   4.420   1.023 -0.9889  2.0529 -0.6217
 5711TIP3   OH238767   2.887   3.710   3.089  0.1084  0.0181  0.3789
 5711TIP3    H138768   2.796   3.718   3.115 -0.2099 -0.2330 -0.6198
 5711TIP3    H238769   2.884   3.669   3.003  1.1033  1.1079 -0.2036
 5712TIP3   OH238770   0.897   1.551   1.022 -0.1132  0.6717  0.3087
 5712TIP3    H138771   0.949   1.540   0.943 -0.0233  2.1682  0.1329
 5712TIP3    H238772   0.943   1.619   1.072 -0.1988 -0.2085  1.6325
 5713TIP3   OH238773   1.326   1.814   1.458 -0.6636  0.4500  0.4170
 5713TIP3    H138774   1.385   1.750   1.496 -0.8105  1.2550  2.0596
 5713TIP3    H238775   1.242   1.769   1.453 -0.7195  0.4313  1.3783
 5714TIP3   OH238776   2.039   6.613   8.680 -0.0239  0.2248 -0.1527
 5714TIP3    H138777   1.991   6.617   8.763 -0.6446 -3.0349 -0.2453
 5714TIP3    H238778   1.972   6.623   8.613  0.6574  4.5980 -0.4819
 5715TIP3   OH238779   3.035   0.294   0.542  0.0001 -0.1330 -0.5850
 5715TIP3    H138780   2.971   0.296   0.613  1.4364  1.5689  0.7927
 5715TIP3    H238781   3.073   0.382   0.542  0.9599 -0.4846 -2.6400
 5716TIP3   OH238782   1.463   0.410   8.165  0.5829  0.1822 -0.1665
 5716TIP3    H138783   1.429   0.493   8.199 -0.4008  0.1361 -0.9752
 5716TIP3    H238784   1.558   0.421   8.166  0.5247  0.7272  1.1592
 5717TIP3   OH238785   1.369   0.896   1.792 -0.0668  0.7060 -0.5126
 5717TIP3    H138786   1.324   0.920   1.711  0.8346  1.6967 -0.7439
 5717TIP3    H238787   1.338   0.961   1.856  0.6721  1.1218 -0.5628
 5718TIP3   OH238788   2.593   1.429   0.864 -0.1780 -0.5421 -0.0488
 5718TIP3    H138789   2.595   1.342   0.824  0.6822 -0.7323  0.3834
 5718TIP3    H238790   2.684   1.458   0.864 -0.5125  0.5569 -0.5877
 5719TIP3   OH238791   5.780   2.565   8.080 -0.0747  0.1838 -0.6268
 5719TIP3    H138792   5.781   2.528   8.169 -1.1143 -0.3716 -0.8277
 5719TIP3    H238793   5.687   2.582   8.062  0.0097 -0.6353 -1.9710
 5720TIP3   OH238794   5.583   6.649   0.788 -0.3559 -0.3110  0.4191
 5720TIP3    H138795   5.537   6.698   0.856 -0.9395 -0.8262  0.4126
 5720TIP3    H238796   5.513   6.619   0.729  0.1901  0.7576 -0.8382
 5721TIP3   OH238797   5.541   1.671   3.163  0.5499  0.5279  0.0673
 5721TIP3    H138798   5.524   1.726   3.086 -1.1950 -0.7725 -0.5322
 5721TIP3    H238799   5.455   1.660   3.204  1.5682  2.0890  2.9176
 5722TIP3   OH238800   4.830   4.612   1.715 -0.6680 -0.2569 -0.1019
 5722TIP3    H138801   4.906   4.624   1.771 -2.9657  0.3243  3.1616
 5722TIP3    H238802   4.804   4.701   1.691  0.9279 -0.5057 -3.3074
 5723TIP3   OH238803   4.174   3.349   8.507  0.1596 -0.2596 -0.3951
 5723TIP3    H138804   4.254   3.353   8.560  0.3256 -0.9191 -0.5910
 5723TIP3    H238805   4.185   3.272   8.452  0.1580  0.6147 -1.6649
 5724TIP3   OH238806   2.391   4.136   0.597 -0.3712 -0.5353 -0.4654
 5724TIP3    H138807   2.308   4.170   0.561 -0.1341  0.6547  0.0530
 5724TIP3    H238808   2.374   4.044   0.613 -1.2706 -0.5391 -1.3226
 5725TIP3   OH238809   0.568   1.812   0.407 -0.2698 -0.5827  0.2825
 5725TIP3    H138810   0.516   1.878   0.453  0.2038  0.4979 -0.7001
 5725TIP3    H238811   0.600   1.755   0.477 -0.2165  0.5563  1.2162
 5726TIP3   OH238812   5.471   0.571   0.060  0.0753 -0.4907  0.1941
 5726TIP3    H138813   5.427   0.597  -0.021 -1.7759  0.3149  1.4138
 5726TIP3    H238814   5.530   0.644   0.079  0.5978 -0.7299 -0.4511
 5727TIP3   OH238815   0.457   6.643   1.754  0.2316 -0.6292 -0.3228
 5727TIP3    H138816   0.364   6.662   1.757 -0.1813 -2.4643  2.7485
 5727TIP3    H238817   0.490   6.693   1.679 -2.8281  1.6248 -0.3237
 5728TIP3   OH238818   4.500   6.598   1.588 -0.4807  0.2191  0.2050
 5728TIP3    H138819   4.484   6.557   1.673  0.0133 -0.1846  0.1116
 5728TIP3    H238820   4.416   6.635   1.563 -1.1027 -1.2489  0.0252
 5729TIP3   OH238821   5.211   1.385   2.664  1.1079 -0.8525  0.8111
 5729TIP3    H138822   5.188   1.472   2.631  0.0894 -1.3186  0.2345
 5729TIP3    H238823   5.163   1.379   2.747  2.4639 -0.2634  1.6709
 5730TIP3   OH238824   5.324   3.795   1.216 -0.0619 -0.0693 -0.2696
 5730TIP3    H138825   5.299   3.768   1.127 -0.5256  0.2912 -0.2533
 5730TIP3    H238826   5.266   3.745   1.273 -0.6034  0.6032 -0.2216
 5731TIP3   OH238827   3.154   1.543   2.010  0.2127 -0.3890 -0.2485
 5731TIP3    H138828   3.106   1.570   2.088 -1.8879 -0.5119 -1.4017
 5731TIP3    H238829   3.133   1.610   1.945  3.6263  0.8855 -0.2138
 5732TIP3   OH238830   4.431   6.201   0.733 -0.2814 -0.2310  0.1970
 5732TIP3    H138831   4.456   6.161   0.649 -0.8481 -1.8794  0.7777
 5732TIP3    H238832   4.339   6.225   0.721 -0.0431  0.5916 -0.0270
 5733TIP3   OH238833   3.580   4.332   7.732  0.0560 -0.1739  0.6807
 5733TIP3    H138834   3.498   4.294   7.764  0.2273  0.3102  1.7130
 5733TIP3    H238835   3.590   4.413   7.781 -1.0066  2.0203 -2.4384
 5734TIP3   OH238836   3.010   5.163   8.179 -0.3753 -0.2014  0.4629
 5734TIP3    H138837   3.063   5.208   8.245 -0.1002 -0.8119  0.6605
 5734TIP3    H238838   2.934   5.130   8.227 -0.1169 -0.7487  0.5017
 5735TIP3   OH238839   4.445   6.071   2.983  0.1958  0.0167 -0.0178
 5735TIP3    H138840   4.391   6.115   2.918 -0.5659 -0.6099  0.1800
 5735TIP3    H238841   4.456   6.136   3.052 -0.1037  0.2328 -0.1708
 5736TIP3   OH238842   4.402   2.883   1.170  0.2007 -0.3458  0.0601
 5736TIP3    H138843   4.464   2.816   1.140  1.7100  0.9992  0.0193
 5736TIP3    H238844   4.403   2.948   1.100 -0.0188  0.4624  0.7966
 5737TIP3   OH238845   3.200   1.116   8.324 -0.5430  0.2117  0.0669
 5737TIP3    H138846   3.209   1.050   8.255  0.5181 -0.5645  0.9026
 5737TIP3    H238847   3.174   1.195   8.278  0.8302 -0.0965 -1.3463
 5738TIP3   OH238848   4.158   5.225   2.567 -0.0482 -0.5163 -0.4515
 5738TIP3    H138849   4.076   5.272   2.582  0.6762  1.4306 -2.2197
 5738TIP3    H238850   4.226   5.290   2.581  1.0241 -1.1332 -2.3977
 5739TIP3   OH238851   3.116   0.598   0.159 -0.1431  0.0631  0.2596
 5739TIP3    H138852   3.028   0.613   0.194 -0.2649  1.9010 -0.7325
 5739TIP3    H238853   3.175   0.635   0.224 -0.1819  0.0851  0.2822
 5740TIP3   OH238854   3.610   1.525   2.466  0.7921  1.0075  0.1633
 5740TIP3    H138855   3.596   1.618   2.481 -2.3067  0.4774  1.3280
 5740TIP3    H238856   3.633   1.489   2.551 -0.0719  0.4343  0.1715
 5741TIP3   OH238857   6.451   1.373   0.185  0.0064 -0.2490 -0.1495
 5741TIP3    H138858   6.404   1.445   0.228 -1.6454  0.5767 -3.0586
 5741TIP3    H238859   6.486   1.411   0.104  3.7205 -1.4962  0.6594
 5742TIP3   OH238860   4.920   6.165   7.953 -0.5944  0.1244 -0.3523
 5742TIP3    H138861   4.864   6.088   7.951 -2.0550  1.1516 -0.6172
 5742TIP3    H238862   4.860   6.239   7.957  0.7652  1.2619  0.0577
 5743TIP3   OH238863   0.368   4.582   8.047  0.2067 -0.0491  0.1585
 5743TIP3    H138864   0.345   4.494   8.016 -1.0260  0.3139 -0.0360
 5743TIP3    H238865   0.326   4.641   7.984  1.2145  0.6870  0.1563
 5744TIP3   OH238866   3.301   4.446   0.533  0.5543  0.1543  1.2313
 5744TIP3    H138867   3.311   4.424   0.626  0.5032 -2.1864  0.7514
 5744TIP3    H238868   3.381   4.412   0.492 -0.2562 -0.5633  0.1888
 5745TIP3   OH238869   6.818   6.597   1.738  0.0495  0.3561 -0.2414
 5745TIP3    H138870   6.809   6.608   1.643 -1.3086 -1.4895 -0.3843
 5745TIP3    H238871   6.849   6.507   1.748 -0.1577  0.4220  1.0805
 5746TIP3   OH238872   3.649   3.159   7.749  1.1000 -0.2033  0.2331
 5746TIP3    H138873   3.734   3.130   7.781  0.2855 -0.6156  2.1702
 5746TIP3    H238874   3.609   3.080   7.712  1.3725 -0.1090 -0.2684
 5747TIP3   OH238875   2.663   4.930   8.484  0.5771 -0.3486 -0.2020
 5747TIP3    H138876   2.630   4.883   8.561 -0.8246  0.8744 -0.0116
 5747TIP3    H238877   2.615   4.892   8.410  1.5763 -1.1901 -0.4505
 5748TIP3   OH238878   4.242   1.874   0.509 -0.4469  0.2998  0.6226
 5748TIP3    H138879   4.305   1.889   0.580  0.8747 -1.8879  0.0192
 5748TIP3    H238880   4.221   1.781   0.515 -2.2556  0.5995 -0.3501
 5749TIP3   OH238881   0.063   4.394   8.680 -0.4303  0.0711  0.2485
 5749TIP3    H138882  -0.007   4.371   8.620  0.2475  0.3669 -0.6796
 5749TIP3    H238883   0.064   4.324   8.745  0.5919 -1.7654 -1.6462
 5750TIP3   OH238884   3.257   1.614   0.450 -0.1924  0.0067 -0.4054
 5750TIP3    H138885   3.182   1.577   0.403  0.0422 -0.2695 -0.5673
 5750TIP3    H238886   3.301   1.669   0.386  0.8483 -1.3523 -0.9221
 5751TIP3   OH238887   5.279   5.658   2.194 -0.1557 -0.0321 -0.2895
 5751TIP3    H138888   5.320   5.601   2.128  0.8487 -1.6855  1.6488
 5751TIP3    H238889   5.207   5.605   2.229  0.6253 -0.0339  1.3691
 5752TIP3   OH238890   5.313   5.430   8.327 -0.2189 -0.2162  0.1644
 5752TIP3    H138891   5.406   5.431   8.350 -0.3105  0.4160  0.5294
 5752TIP3    H238892   5.291   5.337   8.321 -0.0311 -0.4146  1.9983
 5753TIP3   OH238893   4.191   6.069   1.222 -0.1619  0.1740  0.1683
 5753TIP3    H138894   4.287   6.066   1.221 -0.1158  1.1604 -1.0546
 5753TIP3    H238895   4.167   6.097   1.133 -1.6176 -0.7741  0.2350
 5754TIP3   OH238896   2.103   2.973   2.160  0.5019 -0.2324 -0.0231
 5754TIP3    H138897   2.040   2.933   2.220 -0.6367 -0.3307 -1.2227
 5754TIP3    H238898   2.188   2.940   2.189  0.3346  1.7046  3.0576
 5755TIP3   OH238899   0.676   1.987   8.155 -0.1526  0.5188 -0.0652
 5755TIP3    H138900   0.598   1.932   8.165 -0.4220  1.0741  1.0425
 5755TIP3    H238901   0.749   1.926   8.159 -0.4725  0.1679  0.4710
 5756TIP3   OH238902   4.873   5.326   2.738  0.2027 -0.1042  0.5457
 5756TIP3    H138903   4.954   5.298   2.782  1.1303  2.6462  0.8072
 5756TIP3    H238904   4.903   5.367   2.657 -1.1286 -0.8709 -0.3605
 5757TIP3   OH238905   2.535   3.964   1.884  0.5115  0.3876 -0.3357
 5757TIP3    H138906   2.479   3.904   1.834  1.6144 -1.5396  0.6312
 5757TIP3    H238907   2.475   4.008   1.945 -0.1969 -0.3665 -0.4823
 5758TIP3   OH238908   6.195   1.271   0.842 -0.1759 -0.0491 -0.2077
 5758TIP3    H138909   6.201   1.181   0.876  2.3413 -0.8388 -2.4037
 5758TIP3    H238910   6.133   1.264   0.768  1.3750 -0.4702 -1.5270
 5759TIP3   OH238911   0.928   1.276   2.097 -0.0920 -0.4306 -0.0527
 5759TIP3    H138912   0.918   1.238   2.184 -1.9852  1.3984  0.6099
 5759TIP3    H238913   0.856   1.338   2.089  1.0275  0.7225 -2.2661
 5760TIP3   OH238914   0.160   5.055   3.030 -0.3874  0.4616 -0.3553
 5760TIP3    H138915   0.097   5.105   3.082  0.2293  1.4142 -0.4959
 5760TIP3    H238916   0.163   4.969   3.072 -1.9143  0.3331 -0.4693
 5761TIP3   OH238917   5.172   0.563   1.210  0.2236  0.5064 -0.4674
 5761TIP3    H138918   5.264   0.592   1.205  0.4403 -0.2531 -1.0414
 5761TIP3    H238919   5.141   0.566   1.120 -0.7786  2.1459 -0.1013
 5762TIP3   OH238920   1.865   3.202   0.902  1.0400 -0.1858  0.4674
 5762TIP3    H138921   1.808   3.239   0.970  1.5899  0.0878  0.7796
 5762TIP3    H238922   1.927   3.272   0.881  0.2361  0.1215 -1.0792
 5763TIP3   OH238923   4.713   4.583   1.239 -0.2804  0.3463 -0.4037
 5763TIP3    H138924   4.786   4.618   1.188 -1.1242  1.4942 -0.8699
 5763TIP3    H238925   4.641   4.646   1.225 -0.9789 -0.0801  1.0358
 5764TIP3   OH238926   1.803   6.477   2.411  0.2652  0.2202 -0.2416
 5764TIP3    H138927   1.857   6.429   2.475  1.4335  0.4114 -1.0519
 5764TIP3    H238928   1.733   6.515   2.463  0.8317 -0.1557  0.8374
 5765TIP3   OH238929   0.894   4.525   0.498 -0.2589 -0.2539  0.3533
 5765TIP3    H138930   0.894   4.526   0.594  0.3092 -0.4447  0.3535
 5765TIP3    H238931   0.805   4.553   0.475 -0.7117 -1.1418  0.9393
 5766TIP3   OH238932   0.081   0.526   3.397  0.0549 -0.1148 -0.1138
 5766TIP3    H138933   0.070   0.594   3.330  0.0239  0.6922  0.6810
 5766TIP3    H238934   0.075   0.444   3.350 -2.9514  0.3294 -0.7001
 5767TIP3   OH238935   0.428   2.560   8.131 -0.7522  0.4686 -0.0083
 5767TIP3    H138936   0.396   2.502   8.200 -0.8304 -2.1452 -2.0724
 5767TIP3    H238937   0.353   2.573   8.073  0.3725 -1.1782 -1.9617
 5768TIP3   OH238938   1.173   2.962   1.159 -0.0592  0.4507  0.2946
 5768TIP3    H138939   1.103   2.915   1.203  1.2964 -1.1930  0.7989
 5768TIP3    H238940   1.136   3.049   1.140 -1.9098 -0.0791  1.2865
 5769TIP3   OH238941   1.690   0.496   8.269  0.1840  0.2962 -0.0897
 5769TIP3    H138942   1.699   0.417   8.323  1.0754  1.1503  1.0507
 5769TIP3    H238943   1.771   0.499   8.218 -1.0024 -0.9790 -2.2320
 5770TIP3   OH238944   1.474   5.638   2.573  0.5084  0.0480 -0.0273
 5770TIP3    H138945   1.550   5.697   2.572  1.0138 -0.4994  1.9657
 5770TIP3    H238946   1.403   5.690   2.536  0.5008  2.5935  3.1414
 5771TIP3   OH238947   5.088   6.800   7.429  0.0761  0.5011  0.0056
 5771TIP3    H138948   5.102   6.872   7.491 -0.0524  0.7370 -0.2322
 5771TIP3    H238949   4.995   6.806   7.407  0.2810  0.9141 -0.7962
 5772TIP3   OH238950   6.273   1.035   1.026 -0.1971  0.1792 -0.1965
 5772TIP3    H138951   6.279   1.108   1.087 -0.0324 -0.1384  0.1701
 5772TIP3    H238952   6.357   1.035   0.980 -0.2828  0.3550 -0.3559
 5773TIP3   OH238953   6.251   2.656   7.954 -0.0546 -0.2509 -0.3545
 5773TIP3    H138954   6.161   2.675   7.927 -0.1396 -1.5673 -1.1070
 5773TIP3    H238955   6.301   2.733   7.929 -0.4397 -0.7368 -2.8603
 5774TIP3   OH238956   6.216   2.270   2.742  0.0427 -0.0348 -0.1099
 5774TIP3    H138957   6.249   2.186   2.710 -2.0785 -1.1755  0.5338
 5774TIP3    H238958   6.265   2.335   2.692  1.8319 -1.6116 -0.5625
 5775TIP3   OH238959   1.031   5.568   0.285 -0.2720  0.0395  0.2249
 5775TIP3    H138960   0.952   5.515   0.284  0.8751 -1.7409 -0.7270
 5775TIP3    H238961   1.049   5.583   0.377 -2.8200  2.3077  0.4731
 5776TIP3   OH238962   3.105   0.323   8.506 -0.2883  0.4609  0.5175
 5776TIP3    H138963   3.134   0.414   8.512  1.6348 -0.0680 -0.0841
 5776TIP3    H238964   3.149   0.279   8.580  0.3140 -0.3279 -0.2880
 5777TIP3   OH238965   5.921   4.663   3.562 -0.3426  0.0045 -0.5168
 5777TIP3    H138966   6.002   4.693   3.521 -0.4755  1.6836  0.3501
 5777TIP3    H238967   5.938   4.671   3.656 -1.2638 -0.3758 -0.3105
 5778TIP3   OH238968   5.788   4.657   0.505  0.1335 -0.0187 -0.3405
 5778TIP3    H138969   5.734   4.593   0.458  0.0648  0.0478 -0.3520
 5778TIP3    H238970   5.800   4.619   0.592 -0.5507  0.3132 -0.0973
 5779TIP3   OH238971   0.813   0.697   1.495 -0.8498  0.6451  0.1197
 5779TIP3    H138972   0.885   0.743   1.451 -0.6857  1.0569  0.8072
 5779TIP3    H238973   0.851   0.663   1.575 -0.6164 -1.8783 -0.9625
 5780TIP3   OH238974   1.637   6.667   1.797  0.5664 -0.4940  0.0811
 5780TIP3    H138975   1.660   6.730   1.729  1.0922 -0.2757  0.4506
 5780TIP3    H238976   1.552   6.697   1.830  0.9906  0.2526  0.5177
 5781TIP3   OH238977   5.101   3.558   0.846 -0.4630 -0.0533 -0.1491
 5781TIP3    H138978   5.111   3.602   0.931 -1.5119 -1.0669  0.5252
 5781TIP3    H238979   5.164   3.602   0.789  0.1935  0.7216  1.1256
 5782TIP3   OH238980   0.612   3.596   2.546 -0.0663  0.3743 -0.3861
 5782TIP3    H138981   0.598   3.502   2.537 -0.0920 -0.0390  2.6800
 5782TIP3    H238982   0.707   3.608   2.537  0.3899 -0.5238  2.2797
 5783TIP3   OH238983   1.251   3.874   3.275 -0.5222 -0.3423  0.1650
 5783TIP3    H138984   1.188   3.903   3.342 -2.1398 -0.1700 -1.3513
 5783TIP3    H238985   1.230   3.928   3.198  2.4871  0.7493 -0.0060
 5784TIP3   OH238986   0.627   0.738   1.733 -0.0221  0.0080  0.3494
 5784TIP3    H138987   0.574   0.658   1.732 -0.9205  0.5984  0.1966
 5784TIP3    H238988   0.608   0.781   1.650  0.1193  0.6020  0.6212
 5785TIP3   OH238989   2.999   2.934   1.303  0.1238  0.3493  0.0907
 5785TIP3    H138990   2.921   2.984   1.280 -0.3331 -1.1691 -1.9311
 5785TIP3    H238991   2.970   2.875   1.373 -0.7674 -0.6686 -1.0994
 5786TIP3   OH238992   6.384   1.993   0.571  0.1926 -0.1444 -0.2686
 5786TIP3    H138993   6.345   1.908   0.594  0.2689 -0.5579 -1.5878
 5786TIP3    H238994   6.414   2.029   0.655 -0.9316 -0.8645  0.4699
 5787TIP3   OH238995   3.909   1.452   2.357 -0.0369 -0.4146  0.7469
 5787TIP3    H138996   3.894   1.450   2.452  0.1568  0.5185  0.8074
 5787TIP3    H238997   3.829   1.487   2.320  0.3415  0.4036  0.6828
 5788TIP3   OH238998   0.498   5.394   0.929 -0.7386 -0.0834  0.1832
 5788TIP3    H138999   0.487   5.479   0.973  0.8597  0.4237 -0.3299
 5788TIP3    H239000   0.582   5.401   0.885 -1.0311 -1.6041 -0.6756
 5789TIP3   OH239001   3.754   5.570   0.373 -0.4545  0.2539 -0.2252
 5789TIP3    H139002   3.759   5.502   0.441 -1.6552  0.7581  0.4088
 5789TIP3    H239003   3.735   5.651   0.421  0.0112  0.8677 -1.0551
 5790TIP3   OH239004   4.173   0.431   8.230 -0.7420  0.2243  0.0988
 5790TIP3    H139005   4.160   0.360   8.167 -1.3564  0.4401 -0.0187
 5790TIP3    H239006   4.094   0.431   8.283 -0.3809  0.2821  0.6418
 5791TIP3   OH239007   0.307   2.048   1.475  0.4250 -0.0154  0.1185
 5791TIP3    H139008   0.314   2.011   1.563  0.8549  2.3231  1.1503
 5791TIP3    H239009   0.385   2.103   1.466 -0.4463  1.0721 -1.0934
 5792TIP3   OH239010   3.600   2.565   7.643  0.0987 -0.2775  0.0974
 5792TIP3    H139011   3.675   2.541   7.590 -0.5633 -0.2676 -0.8713
 5792TIP3    H239012   3.549   2.624   7.587  0.4101  1.3741  1.4889
 5793TIP3   OH239013   5.871   0.879   0.606  0.4269 -0.0464 -0.0305
 5793TIP3    H139014   5.905   0.792   0.586 -0.8488 -0.7578  0.7856
 5793TIP3    H239015   5.942   0.938   0.580  0.8945 -1.2317 -1.6483
 5794TIP3   OH239016   2.330   6.273   8.375 -0.1256  0.0180 -0.2527
 5794TIP3    H139017   2.339   6.346   8.435  0.5381 -0.3869  0.1558
 5794TIP3    H239018   2.262   6.301   8.313 -0.7963  0.4544  0.6516
 5795TIP3   OH239019   5.061   4.048   1.441  0.5473  0.6575  0.6414
 5795TIP3    H139020   5.126   4.034   1.373 -1.5005 -0.6013 -1.1837
 5795TIP3    H239021   5.051   4.143   1.445  1.0384  0.7733 -0.4802
 5796TIP3   OH239022   5.773   3.916   2.478  0.6347  0.0739  0.7256
 5796TIP3    H139023   5.771   3.860   2.555  0.6369 -1.5223 -0.3733
 5796TIP3    H239024   5.693   3.892   2.429  1.4194 -0.1138 -0.5157
 5797TIP3   OH239025   2.461   2.249   1.651 -0.9375 -0.3609 -0.1665
 5797TIP3    H139026   2.546   2.272   1.613 -0.8388 -0.1656  0.1594
 5797TIP3    H239027   2.402   2.319   1.621 -0.4210  0.9231  1.6121
 5798TIP3   OH239028   5.320   3.357   2.056  0.4895 -0.5118 -0.0580
 5798TIP3    H139029   5.264   3.343   2.133 -0.1271 -0.5416 -0.5113
 5798TIP3    H239030   5.388   3.416   2.088 -0.8755  1.0982  0.0153
 5799TIP3   OH239031   0.025   3.964   7.550  0.2107  0.5647 -0.5876
 5799TIP3    H139032  -0.004   4.033   7.490 -2.2671  0.4261  0.3548
 5799TIP3    H239033   0.110   3.996   7.583  0.3739  1.8764 -2.1477
 5800TIP3   OH239034   0.145   5.299   8.595 -0.1232 -0.9527  0.0528
 5800TIP3    H139035   0.195   5.310   8.514  0.1846  1.2238  0.4858
 5800TIP3    H239036   0.053   5.308   8.568 -0.0260 -0.3232 -0.0786
 5801TIP3   OH239037   1.158   4.233   1.334  0.2646 -0.0833 -0.2987
 5801TIP3    H139038   1.228   4.231   1.268  0.4444  1.7423 -0.2150
 5801TIP3    H239039   1.129   4.324   1.335 -1.0450 -0.4803  0.8107
 5802TIP3   OH239040   1.518   5.012   0.946  0.0659  0.4499 -0.0548
 5802TIP3    H139041   1.605   4.982   0.974 -0.0029  0.0432 -0.2782
 5802TIP3    H239042   1.535   5.095   0.901  0.0321  2.0742  2.6607
 5803TIP3   OH239043   0.670   1.331   0.853  0.4339  0.3488  0.6692
 5803TIP3    H139044   0.668   1.239   0.827 -1.6105  0.2548  0.9875
 5803TIP3    H239045   0.710   1.376   0.779  0.2845 -0.6417 -0.0332
 5804TIP3   OH239046   5.180   3.888   0.031  0.4236  0.2221  0.0656
 5804TIP3    H139047   5.132   3.891   0.113  1.0430  2.1387  0.4142
 5804TIP3    H239048   5.205   3.796   0.020 -0.6948 -0.2646  1.3842
 5805TIP3   OH239049   4.140   6.454   2.003 -0.2368  0.4717  0.1460
 5805TIP3    H139050   4.048   6.480   2.008 -0.2011  0.5899  0.1722
 5805TIP3    H239051   4.138   6.370   1.956 -0.4755 -0.1450  1.2073
 5806TIP3   OH239052   1.818   2.516   2.933  0.1338 -0.3518 -0.2257
 5806TIP3    H139053   1.912   2.503   2.922  0.0500 -0.4708 -0.8300
 5806TIP3    H239054   1.810   2.560   3.018  1.0600  3.1728 -1.7652
 5807TIP3   OH239055   0.119   0.862   0.011  0.0513  0.1617 -0.2985
 5807TIP3    H139056   0.033   0.863   0.054 -0.4904  0.6006 -1.3537
 5807TIP3    H239057   0.181   0.886   0.080 -0.5887 -0.8165  0.6423
 5808TIP3   OH239058   2.513   6.849   8.138 -0.0465 -0.4871 -0.1093
 5808TIP3    H139059   2.454   6.861   8.063  0.4585 -0.4222 -0.5004
 5808TIP3    H239060   2.593   6.813   8.100  0.4134  0.0546  0.3222
 5809TIP3   OH239061   3.154   5.043   2.279 -0.1649  0.3326  0.0665
 5809TIP3    H139062   3.166   4.972   2.216 -1.3845  1.5207 -1.6073
 5809TIP3    H239063   3.096   5.007   2.346 -0.5661 -0.3478 -0.6247
 5810TIP3   OH239064   3.245   0.907   1.858 -0.2049 -0.2996 -0.2499
 5810TIP3    H139065   3.293   0.972   1.909 -1.1295 -0.5107  0.9437
 5810TIP3    H239066   3.223   0.951   1.776 -0.1223  0.6118  0.2098
 5811TIP3   OH239067   6.825   2.382   2.238  0.6005  0.0356  0.2344
 5811TIP3    H139068   6.911   2.384   2.279  0.7523  0.5763 -0.0879
 5811TIP3    H239069   6.832   2.445   2.166  0.0509 -0.1926 -0.0237
 5812TIP3   OH239070   0.004   1.971   0.553 -0.3058 -0.1712 -0.3253
 5812TIP3    H139071  -0.083   1.963   0.514  0.9047  0.8700 -3.5216
 5812TIP3    H239072  -0.008   2.032   0.626 -2.4434 -1.0590  0.1438
 5813TIP3   OH239073   2.946   0.605   3.019  0.2790  0.3224  0.1068
 5813TIP3    H139074   2.929   0.694   3.050  0.0935 -0.3695  2.1616
 5813TIP3    H239075   2.942   0.611   2.924 -0.2797  2.3900  0.2208
 5814TIP3   OH239076   4.045   4.362   8.188  0.1631 -0.9480  0.2688
 5814TIP3    H139077   3.995   4.439   8.215  1.5041 -0.3215  1.0811
 5814TIP3    H239078   4.121   4.360   8.247  1.3661 -1.5604 -1.2182
 5815TIP3   OH239079   4.886   1.300   8.090 -0.4121  0.2658 -0.3533
 5815TIP3    H139080   4.956   1.362   8.071  0.4402 -0.8614 -0.9686
 5815TIP3    H239081   4.864   1.262   8.005  1.5964 -2.9047  0.3727
 5816TIP3   OH239082   3.781   6.371   8.507 -0.5481 -0.1415  0.1412
 5816TIP3    H139083   3.708   6.432   8.495 -1.6974 -1.4841  0.0112
 5816TIP3    H239084   3.859   6.422   8.483 -1.4414  1.2786  0.1040
 5817TIP3   OH239085   3.718   5.160   7.881  0.3178  0.6211 -0.0593
 5817TIP3    H139086   3.808   5.177   7.910  0.9008  1.4990 -2.1865
 5817TIP3    H239087   3.725   5.149   7.786 -1.7617  0.1318 -0.2065
 5818TIP3   OH239088   4.454   0.559   1.493  0.6395  0.0347 -0.2833
 5818TIP3    H139089   4.391   0.613   1.540  2.0598  1.8597 -0.3818
 5818TIP3    H239090   4.404   0.482   1.467 -0.9719  0.3961  1.5085
 5819TIP3   OH239091   2.538   4.357   0.935  0.1087 -0.2722  0.1553
 5819TIP3    H139092   2.619   4.407   0.933  0.5244 -0.9155  0.5880
 5819TIP3    H239093   2.556   4.279   0.882  0.2703 -1.1356  1.4284
 5820TIP3   OH239094   0.099   4.563   7.375 -0.3464 -0.2118 -0.2128
 5820TIP3    H139095   0.020   4.516   7.351  0.8004 -0.5112 -4.0055
 5820TIP3    H239096   0.077   4.655   7.363 -0.4363 -0.2224 -0.1329
 5821TIP3   OH239097   3.983   6.173   8.259 -0.4389  1.0406  0.0576
 5821TIP3    H139098   3.970   6.260   8.296 -1.6649  1.2704 -0.8258
 5821TIP3    H239099   3.944   6.113   8.322 -0.1042  1.1770  0.3970
 5822TIP3   OH239100   4.775   1.643   8.056 -0.2248  0.3309  0.0334
 5822TIP3    H139101   4.728   1.643   7.973  1.4490  1.6496 -0.9860
 5822TIP3    H239102   4.859   1.601   8.035  0.9518  2.2877  0.5405
 5823TIP3   OH239103   1.727   6.099   1.505 -0.0073 -0.0328 -0.1954
 5823TIP3    H139104   1.802   6.151   1.533 -0.5729  0.0986  1.1303
 5823TIP3    H239105   1.696   6.056   1.585 -0.8713 -0.7013 -0.8679
 5824TIP3   OH239106   6.318   0.292   8.238  0.5135  0.1092 -0.3629
 5824TIP3    H139107   6.292   0.208   8.275 -1.1237  1.1518  1.0529
 5824TIP3    H239108   6.287   0.289   8.147  1.3546 -1.1476 -0.6294
 5825TIP3   OH239109   5.749   4.472   3.435  0.7664  0.2120  0.5904
 5825TIP3    H139110   5.677   4.500   3.491  1.3030  2.2584  0.3203
 5825TIP3    H239111   5.826   4.518   3.468  1.5828 -0.4523 -0.3049
 5826TIP3   OH239112   1.842   2.310   7.633 -0.1044  0.2014 -0.2290
 5826TIP3    H139113   1.852   2.219   7.662  1.6592 -0.3648 -2.3610
 5826TIP3    H239114   1.777   2.305   7.563  0.5211  0.4400 -0.8363
 5827TIP3   OH239115   0.988   3.380   7.384 -0.2260  0.4006 -0.3483
 5827TIP3    H139116   0.988   3.408   7.475  0.3923  0.9099 -0.4958
 5827TIP3    H239117   0.906   3.414   7.348 -1.8925 -2.1580  0.6779
 5828TIP3   OH239118   2.923   3.580   0.194 -0.4137  0.3750  0.1217
 5828TIP3    H139119   2.935   3.520   0.267  0.3151  1.1867  0.6961
 5828TIP3    H239120   2.957   3.533   0.118  0.8453  0.3310  0.6963
 5829TIP3   OH239121   0.997   1.175   7.855  0.2113 -0.2025  0.1660
 5829TIP3    H139122   1.053   1.101   7.831  2.1888  0.8021  1.5251
 5829TIP3    H239123   0.976   1.161   7.947 -2.2964 -0.8077 -0.3934
 5830TIP3   OH239124   1.459   2.790   7.359 -0.2290  0.3291  0.2356
 5830TIP3    H139125   1.551   2.765   7.354 -0.0960  0.8883 -0.3197
 5830TIP3    H239126   1.434   2.775   7.450  0.0676 -0.9962  0.1118
 5831TIP3   OH239127   4.391   5.090   2.331 -0.0395  0.3395 -0.4330
 5831TIP3    H139128   4.355   5.143   2.402 -0.4673  0.5761 -0.8201
 5831TIP3    H239129   4.483   5.078   2.353 -0.4578 -0.7190  0.8553
 5832TIP3   OH239130   0.692   5.724   1.967 -0.0333 -0.2212  0.2451
 5832TIP3    H139131   0.699   5.759   1.879 -1.2715  1.1145  0.6455
 5832TIP3    H239132   0.782   5.722   1.999  0.4098 -0.5629 -0.9731
 5833TIP3   OH239133   1.111   3.776   1.304 -0.1302 -0.7002  0.4051
 5833TIP3    H139134   1.094   3.858   1.350 -0.8572 -1.0124  0.7192
 5833TIP3    H239135   1.206   3.765   1.310  0.1313  0.7226 -0.7286
 5834TIP3   OH239136   0.742   2.398   0.824 -0.6717 -0.3952 -0.2184
 5834TIP3    H139137   0.677   2.408   0.893 -0.0692 -1.5705  0.5739
 5834TIP3    H239138   0.776   2.309   0.836 -0.2297 -0.4714 -1.7605
 5835TIP3   OH239139   1.194   1.461   2.215  0.1279 -0.2056  0.5697
 5835TIP3    H139140   1.119   1.499   2.260  0.4269  0.3454  0.6235
 5835TIP3    H239141   1.189   1.368   2.233 -1.7157 -0.4932 -1.1591
 5836TIP3   OH239142   5.153   2.153   1.264 -0.0068 -0.0264 -0.2962
 5836TIP3    H139143   5.104   2.202   1.197  1.7751  0.3731 -1.3597
 5836TIP3    H239144   5.191   2.221   1.319 -0.2060 -0.3250  0.2127
 5837TIP3   OH239145   1.722   6.697   2.808  0.1546 -0.0953  0.2321
 5837TIP3    H139146   1.792   6.643   2.772 -0.3525 -0.3439 -0.3787
 5837TIP3    H239147   1.747   6.787   2.784 -0.0996 -0.2446 -0.6096
 5838TIP3   OH239148   3.533   1.044   0.347 -0.4304 -0.1673  0.3255
 5838TIP3    H139149   3.481   1.008   0.419 -0.5177 -2.6242 -0.8936
 5838TIP3    H239150   3.617   0.999   0.353 -0.4469 -0.4287 -1.1188
 5839TIP3   OH239151   5.720   6.875   0.687 -0.2032  0.4221  0.4735
 5839TIP3    H139152   5.705   6.783   0.664  1.6868  0.3220 -0.5956
 5839TIP3    H239153   5.768   6.871   0.770 -0.5674  0.4831  0.6910
 5840TIP3   OH239154   0.557   0.085   1.133 -0.5125  0.3525  0.5710
 5840TIP3    H139155   0.495   0.021   1.167 -1.6390  0.3748 -1.3196
 5840TIP3    H239156   0.524   0.169   1.163 -1.4977  0.3731 -0.5183
 5841TIP3   OH239157   0.871   0.775   0.575  1.0803 -0.4321 -0.3414
 5841TIP3    H139158   0.869   0.868   0.597 -0.4438 -0.4735 -0.1466
 5841TIP3    H239159   0.918   0.770   0.492  0.0998  0.6825 -1.0001
 5842TIP3   OH239160   4.032   2.519   1.789  0.6745  0.0019  0.0025
 5842TIP3    H139161   3.953   2.529   1.843  0.1135  1.0912 -0.9834
 5842TIP3    H239162   3.999   2.518   1.699  1.8642  1.6372 -0.4835
 5843TIP3   OH239163   5.666   6.402   1.451 -0.1364 -0.2174  0.6267
 5843TIP3    H139164   5.584   6.360   1.479 -0.6617  0.0297 -0.4953
 5843TIP3    H239165   5.732   6.333   1.457 -1.0611 -1.3913 -1.5897
 5844TIP3   OH239166   0.900   2.783   7.257 -0.1526 -0.7400  0.1082
 5844TIP3    H139167   0.995   2.774   7.256  0.0200  0.8326 -0.5029
 5844TIP3    H239168   0.884   2.877   7.267 -1.6771 -1.1408  2.1063
 5845TIP3   OH239169   2.417   1.088   2.735  0.3664 -0.5709 -0.0163
 5845TIP3    H139170   2.388   1.081   2.826  0.4641  1.0081  0.1549
 5845TIP3    H239171   2.428   1.182   2.720  0.5429 -0.8175 -1.6036
 5846TIP3   OH239172   6.295   4.035   2.339 -0.4927  0.3598 -0.2283
 5846TIP3    H139173   6.224   4.058   2.399 -0.3730 -2.8225  1.3184
 5846TIP3    H239174   6.284   4.096   2.265 -3.9334  0.9437  0.5802
 5847TIP3   OH239175   6.200   0.560   7.667 -0.1580 -0.1013  0.1493
 5847TIP3    H139176   6.115   0.531   7.701 -0.5974 -0.0769 -0.8945
 5847TIP3    H239177   6.205   0.523   7.579  0.2961  1.0638 -0.3307
 5848TIP3   OH239178   4.134   4.925   3.095 -0.0176  0.0786  0.3224
 5848TIP3    H139179   4.077   4.932   3.018  0.4742  1.0568  0.0302
 5848TIP3    H239180   4.188   5.004   3.092  0.4682 -0.2008  1.3103
 5849TIP3   OH239181   4.624   4.861   7.457  0.2215  0.1419 -0.4902
 5849TIP3    H139182   4.699   4.831   7.406  0.1185  2.0465 -1.8991
 5849TIP3    H239183   4.588   4.933   7.405 -0.9768  1.0162  1.4472
 5850TIP3   OH239184   0.434   5.589   8.224 -0.3141 -0.4996 -0.0413
 5850TIP3    H139185   0.444   5.520   8.289  0.1076 -0.9609 -0.5952
 5850TIP3    H239186   0.348   5.627   8.243  0.5283  0.5785  1.9437
 5851TIP3   OH239187   3.587   4.674   0.342  0.2391  0.3386 -0.4944
 5851TIP3    H139188   3.561   4.640   0.256 -0.1608  1.5775 -0.8937
 5851TIP3    H239189   3.675   4.639   0.356  0.9649  1.3666 -2.1526
 5852TIP3   OH239190   6.247   3.562   8.064  0.3123 -0.4769 -0.3017
 5852TIP3    H139191   6.326   3.508   8.068  1.6159  1.2509 -0.9936
 5852TIP3    H239192   6.243   3.605   8.150  0.7628  0.2348 -0.6242
 5853TIP3   OH239193   1.497   2.204   7.993  0.0927 -0.2093 -0.1159
 5853TIP3    H139194   1.424   2.260   8.021 -0.4072 -0.3277 -1.1190
 5853TIP3    H239195   1.562   2.264   7.958 -0.1084 -0.1973 -0.4707
 5854TIP3   OH239196   6.367   4.864   2.809  0.1380  0.0307 -0.2244
 5854TIP3    H139197   6.326   4.949   2.823  2.2537  1.3003 -1.3061
 5854TIP3    H239198   6.350   4.844   2.717  0.8180 -0.0418 -0.3402
 5855TIP3   OH239199   2.366   5.082   2.737  0.3833 -0.3283 -0.0216
 5855TIP3    H139200   2.390   4.998   2.775  0.1887 -1.0578 -1.4621
 5855TIP3    H239201   2.449   5.127   2.721  0.5383 -0.6993 -0.2531
 5856TIP3   OH239202   6.814   5.677   2.062 -0.2458  0.6270  0.2293
 5856TIP3    H139203   6.784   5.758   2.020  1.5727  0.9097 -0.6012
 5856TIP3    H239204   6.876   5.706   2.129 -0.2862 -0.0432  0.5683
 5857TIP3   OH239205   4.846   3.577   0.522 -0.4019  0.2547 -0.3590
 5857TIP3    H139206   4.898   3.522   0.581  0.6684  1.3027 -0.2934
 5857TIP3    H239207   4.756   3.556   0.544 -0.0386 -1.3630 -0.2354
 5858TIP3   OH239208   6.339   1.872   1.830 -0.5228  0.1331 -0.2373
 5858TIP3    H139209   6.292   1.916   1.901  0.1501 -1.2869  1.1344
 5858TIP3    H239210   6.282   1.799   1.805  1.2361 -2.2806  2.1850
 5859TIP3   OH239211   5.553   2.384   0.144  0.2170  0.1340 -0.0257
 5859TIP3    H139212   5.508   2.468   0.149  0.1085  0.0230  0.9501
 5859TIP3    H239213   5.525   2.347   0.060 -1.1162  0.2945  0.3300
 5860TIP3   OH239214   5.256   4.151   2.927 -0.1384  0.6318 -0.4810
 5860TIP3    H139215   5.280   4.163   3.019  1.8287  0.1427 -0.8867
 5860TIP3    H239216   5.266   4.057   2.912 -1.4829  0.5405 -0.9586
 5861TIP3   OH239217   5.662   1.725   8.396 -0.5020 -0.7086 -0.4108
 5861TIP3    H139218   5.629   1.682   8.317 -1.0481 -0.7165 -0.1855
 5861TIP3    H239219   5.589   1.778   8.426 -0.0883 -0.2181 -0.2525
 5862TIP3   OH239220   2.809   4.810   0.706 -0.0787  0.1523 -0.0926
 5862TIP3    H139221   2.748   4.835   0.636 -0.4680  0.5408  0.3736
 5862TIP3    H239222   2.829   4.718   0.689 -2.4102 -0.6059  0.9152
 5863TIP3   OH239223   6.425   0.201   1.473 -0.2557 -0.5019 -0.3197
 5863TIP3    H139224   6.372   0.217   1.551 -0.0254 -0.8107 -0.0970
 5863TIP3    H239225   6.490   0.271   1.473  1.5098 -2.0663  1.3131
 5864TIP3   OH239226   6.657   2.774   8.325  0.4474  0.0372  0.3159
 5864TIP3    H139227   6.648   2.733   8.239  2.2645  1.9900 -0.9098
 5864TIP3    H239228   6.655   2.701   8.387  0.0527 -1.5187 -1.4392
 5865TIP3   OH239229   4.522   3.611   0.534 -0.4753  0.2189 -0.3487
 5865TIP3    H139230   4.484   3.556   0.602  0.5085 -0.1307 -0.0566
 5865TIP3    H239231   4.493   3.571   0.452 -1.4955  0.5173 -0.1395
 5866TIP3   OH239232   6.787   3.515   0.905 -0.4208 -0.4659 -0.6531
 5866TIP3    H139233   6.734   3.590   0.931  1.6425  0.9596 -0.3184
 5866TIP3    H239234   6.746   3.484   0.824 -0.9488  1.4895 -1.1952
 5867TIP3   OH239235   6.385   3.131   1.916  0.1485 -0.6338  0.5438
 5867TIP3    H139236   6.290   3.136   1.926  0.0403 -0.1347 -0.5667
 5867TIP3    H239237   6.417   3.219   1.937  0.3224 -0.6723  0.4455
 5868TIP3   OH239238   2.674   5.210   8.056  0.2992 -0.0773 -0.3215
 5868TIP3    H139239   2.663   5.152   7.981  0.5060  0.4462 -0.7675
 5868TIP3    H239240   2.721   5.157   8.121 -0.8207 -0.8745 -0.1423
 5869TIP3   OH239241   1.341   0.224   1.435  0.2636  0.1925 -0.3096
 5869TIP3    H139242   1.275   0.195   1.498  2.2048 -0.1227  1.6914
 5869TIP3    H239243   1.317   0.315   1.416 -0.7839  0.0631  0.2793
 5870TIP3   OH239244   0.060   1.371   0.081  0.0256 -0.3174  0.8658
 5870TIP3    H139245  -0.034   1.360   0.067  0.2315 -1.3458  0.1961
 5870TIP3    H239246   0.069   1.389   0.174 -0.6818 -2.3338  1.3737
 5871TIP3   OH239247   1.745   0.790   1.717  0.2730  0.0700 -0.3255
 5871TIP3    H139248   1.727   0.879   1.687 -2.2480  0.3451  1.6635
 5871TIP3    H239249   1.754   0.798   1.812  3.1534 -1.4332 -0.3565
 5872TIP3   OH239250   3.199   0.674   3.025  0.5789  0.3595  0.3808
 5872TIP3    H139251   3.105   0.652   3.029  0.6871 -0.0741  0.5739
 5872TIP3    H239252   3.242   0.590   3.007  1.0709  0.2350  1.9667
 5873TIP3   OH239253   1.546   6.520   2.536  0.2585  0.1141  0.0285
 5873TIP3    H139254   1.493   6.591   2.571 -0.3447 -0.4950  0.3864
 5873TIP3    H239255   1.525   6.445   2.592  1.4063 -0.1698  0.0939
 5874TIP3   OH239256   2.211   1.110   2.532  0.3795 -0.6573 -0.1882
 5874TIP3    H139257   2.287   1.163   2.508 -0.5437  0.5744 -0.4894
 5874TIP3    H239258   2.231   1.078   2.620  0.6576  0.8251  0.3146
 5875TIP3   OH239259   2.661   6.578   0.355 -0.2262  0.3430  0.4532
 5875TIP3    H139260   2.645   6.484   0.352 -0.0164  0.2453  1.8533
 5875TIP3    H239261   2.739   6.591   0.301  0.0815 -0.3695  0.7186
 5876TIP3   OH239262   3.554   3.062   7.991  0.2922 -0.3221 -0.0854
 5876TIP3    H139263   3.517   3.132   8.044  3.2682  0.8189  0.7072
 5876TIP3    H239264   3.574   3.104   7.907 -0.4437 -1.0014 -0.6202
 5877TIP3   OH239265   5.073   4.806   8.086  0.0563 -0.0259 -0.6576
 5877TIP3    H139266   5.053   4.754   8.008 -0.8740  0.5628 -0.8344
 5877TIP3    H239267   5.130   4.876   8.053 -0.1682  0.1023 -0.7815
 5878TIP3   OH239268   3.997   0.050   2.591  0.2526 -0.0804 -0.3380
 5878TIP3    H139269   4.080   0.012   2.618 -0.0750  0.3162  1.3564
 5878TIP3    H239270   3.994   0.134   2.636 -1.1533 -0.1863 -0.2015
 5879TIP3   OH239271   2.394   6.818   7.594 -0.4954  0.2903  0.1020
 5879TIP3    H139272   2.306   6.782   7.609 -0.0682 -0.5309  0.7075
 5879TIP3    H239273   2.436   6.753   7.538 -0.0605  0.3612  0.3482
 5880TIP3   OH239274   1.882   6.802   7.895 -0.1794  0.1036 -0.1352
 5880TIP3    H139275   1.826   6.801   7.973  0.6246  3.0727  0.6225
 5880TIP3    H239276   1.832   6.853   7.831  0.5595  0.5766 -0.3422
 5881TIP3   OH239277   1.252   6.401   3.607  0.0133  0.4258 -0.5677
 5881TIP3    H139278   1.248   6.460   3.682  1.2260  2.1572 -1.7901
 5881TIP3    H239279   1.345   6.390   3.590 -0.2246 -0.9439 -1.0702
 5882TIP3   OH239280   4.373   1.779   2.048 -0.1743  0.3772 -0.0443
 5882TIP3    H139281   4.304   1.796   1.983  1.8767 -2.6595 -3.4040
 5882TIP3    H239282   4.326   1.750   2.126 -2.7395  2.9750 -0.4400
 5883TIP3   OH239283   0.791   2.725   2.720 -0.5326  0.1932 -0.1281
 5883TIP3    H139284   0.803   2.700   2.812 -1.6650 -0.7578 -0.2138
 5883TIP3    H239285   0.696   2.728   2.709 -0.4576  2.5764 -0.6896
 5884TIP3   OH239286   2.941   1.352   7.996 -0.4578  0.0916  0.1497
 5884TIP3    H139287   3.012   1.343   8.059  0.5565 -0.0963 -0.9829
 5884TIP3    H239288   2.916   1.262   7.975 -1.0092  0.1563  0.4978
 5885TIP3   OH239289   0.490   3.141   0.962 -0.1589  0.0732 -0.5942
 5885TIP3    H139290   0.463   3.192   0.885 -1.8928  1.2561  0.7340
 5885TIP3    H239291   0.437   3.062   0.958 -2.4896  1.4704  0.9048
 5886TIP3   OH239292   2.395   0.555   2.793 -0.4957  0.1780 -0.2603
 5886TIP3    H139293   2.462   0.521   2.734  1.0092  1.3917  0.6564
 5886TIP3    H239294   2.359   0.477   2.835  2.1151 -0.4671  1.0276
 5887TIP3   OH239295   1.144   6.696   8.400 -1.1218  0.5896  0.6237
 5887TIP3    H139296   1.130   6.608   8.435 -1.2181  0.5993  0.6091
 5887TIP3    H239297   1.238   6.700   8.382 -1.1398  0.4411  0.4964
 5888TIP3   OH239298   1.605   0.572   1.642  0.1698 -0.2084 -0.1350
 5888TIP3    H139299   1.539   0.571   1.710 -0.3185  0.9280 -0.5642
 5888TIP3    H239300   1.649   0.657   1.652  0.1537 -0.0666 -1.1562
 5889TIP3   OH239301   0.042   1.026   2.732  0.4977 -0.3421  0.4989
 5889TIP3    H139302   0.133   1.057   2.735  0.9439 -1.5825  0.5243
 5889TIP3    H239303   0.004   1.057   2.814  0.6771  0.8047  0.1646
 5890TIP3   OH239304   6.288   2.715   1.574 -0.3969  0.3849 -0.8443
 5890TIP3    H139305   6.335   2.773   1.635 -1.3599  0.0199  0.2669
 5890TIP3    H239306   6.218   2.770   1.539 -0.6561  0.2060 -0.6067
 5891TIP3   OH239307   6.418   6.096   8.354  0.2360 -0.2060 -0.1779
 5891TIP3    H139308   6.450   6.090   8.264 -1.3315  0.5505 -0.8239
 5891TIP3    H239309   6.425   6.007   8.388  2.2964 -0.2108 -0.4988
 5892TIP3   OH239310   5.858   0.307   1.338 -0.6033 -0.2776 -0.1254
 5892TIP3    H139311   5.810   0.302   1.255  1.1295 -1.2340 -1.1177
 5892TIP3    H239312   5.950   0.312   1.313  0.0511 -1.8092  1.7535
 5893TIP3   OH239313   2.939   4.638   2.328 -0.1488  0.0893 -0.1863
 5893TIP3    H139314   2.999   4.575   2.288  0.2999  0.4030 -0.0043
 5893TIP3    H239315   2.881   4.584   2.381 -0.2815 -0.2541 -0.6681
 5894TIP3   OH239316   0.366   2.163   0.351  0.3896 -0.4699  0.3928
 5894TIP3    H139317   0.349   2.200   0.265 -0.7557  0.1682  0.8595
 5894TIP3    H239318   0.424   2.225   0.394  1.9264 -1.3696 -0.2999
 5895TIP3   OH239319   3.529   3.404   0.271 -0.3671 -0.1256  0.4274
 5895TIP3    H139320   3.513   3.328   0.215  0.0338 -1.1775  1.7110
 5895TIP3    H239321   3.618   3.433   0.248 -0.2058 -0.5508  0.5186
 5896TIP3   OH239322   6.308   5.273   0.284 -0.1527  0.1182  0.5611
 5896TIP3    H139323   6.280   5.185   0.310 -5.3353  1.5666  0.9023
 5896TIP3    H239324   6.320   5.268   0.189 -1.1440 -0.7881  0.4729
 5897TIP3   OH239325   6.373   3.929   1.106  0.1649  0.2375  0.4463
 5897TIP3    H139326   6.418   3.976   1.177 -0.5404  1.6256  0.0169
 5897TIP3    H239327   6.444   3.895   1.052  0.7082 -0.3246  1.4890
 5898TIP3   OH239328   1.667   4.383   2.103 -0.0160 -0.1755 -0.4015
 5898TIP3    H139329   1.595   4.321   2.097 -0.3815  0.3529 -1.6279
 5898TIP3    H239330   1.639   4.458   2.052  2.3197 -0.8760 -2.9390
 5899TIP3   OH239331   5.923   0.212   0.878  0.0259 -0.2953  0.2403
 5899TIP3    H139332   5.936   0.150   0.807 -0.8591  0.4310 -0.5955
 5899TIP3    H239333   6.011   0.230   0.911  0.5527 -0.0484 -1.2132
 5900TIP3   OH239334   2.772   5.072   8.261 -0.2711 -0.2848  0.1742
 5900TIP3    H139335   2.784   4.978   8.247 -0.0427 -0.3154  0.5449
 5900TIP3    H239336   2.750   5.079   8.354 -0.7313 -0.0098  0.0495
 5901TIP3   OH239337   2.065   4.628   1.439  0.3682  0.3636 -0.3265
 5901TIP3    H139338   2.003   4.700   1.435 -1.5443 -1.2269 -0.7099
 5901TIP3    H239339   2.048   4.577   1.360  1.9929 -0.2864 -0.3063
 5902TIP3   OH239340   4.025   6.447   7.744  0.1754 -0.0347 -0.5324
 5902TIP3    H139341   3.957   6.423   7.680 -1.4378  3.1735 -0.2344
 5902TIP3    H239342   4.085   6.504   7.694  0.7585 -0.1531  0.0282
 5903TIP3   OH239343   1.352   4.175   0.837  0.0819 -0.3855  0.6130
 5903TIP3    H139344   1.283   4.227   0.795 -2.4911 -2.7617  1.5733
 5903TIP3    H239345   1.379   4.112   0.771 -1.2755 -1.7176  1.2791
 5904TIP3   OH239346   6.131   5.434   8.031  0.1103 -0.1418 -0.5943
 5904TIP3    H139347   6.079   5.473   7.960 -0.4985 -0.8219 -0.5221
 5904TIP3    H239348   6.206   5.395   7.986  0.7896  1.1539 -0.6634
 5905TIP3   OH239349   3.870   1.962   2.886 -0.4863 -0.1710 -0.5269
 5905TIP3    H139350   3.924   1.960   2.964  0.5047  2.5065 -1.0167
 5905TIP3    H239351   3.929   1.991   2.816 -1.8666 -0.1522 -1.7489
 5906TIP3   OH239352   3.844   3.404   2.318  0.2099  0.1400  0.1007
 5906TIP3    H139353   3.864   3.331   2.259 -0.0982 -1.3169  1.7345
 5906TIP3    H239354   3.928   3.423   2.361  0.4242  1.1743 -0.7275
 5907TIP3   OH239355   1.779   4.027   0.791  0.6418  0.3268 -0.0588
 5907TIP3    H139356   1.740   4.001   0.708 -0.7513  0.0164  0.6581
 5907TIP3    H239357   1.745   4.115   0.807  0.1073 -0.0031  0.6489
 5908TIP3   OH239358   5.255   2.063   1.909 -0.8166 -0.4708 -0.2357
 5908TIP3    H139359   5.233   1.972   1.929  0.7625 -0.8689 -0.1852
 5908TIP3    H239360   5.345   2.074   1.941 -0.8185  0.9828 -0.6394
 5909TIP3   OH239361   2.461   3.084   1.419 -0.4714  0.3637  0.2356
 5909TIP3    H139362   2.436   2.995   1.397  1.1425 -0.3624  1.1333
 5909TIP3    H239363   2.394   3.114   1.481 -0.6885 -0.4555  0.4083
 5910TIP3   OH239364   4.955   0.269   2.446  0.4181  0.0865 -0.4855
 5910TIP3    H139365   5.041   0.295   2.415  1.2128 -1.1088  0.6446
 5910TIP3    H239366   4.966   0.181   2.480 -1.3585 -0.2731 -0.7082
 5911TIP3   OH239367   0.218   4.807   7.850 -0.6444  0.0676 -0.3257
 5911TIP3    H139368   0.155   4.879   7.856  1.5806  2.2660 -1.2638
 5911TIP3    H239369   0.228   4.792   7.756 -0.3797 -0.8108 -0.1650
 5912TIP3   OH239370   1.418   2.701   8.316  0.5472  0.1106  0.8646
 5912TIP3    H139371   1.489   2.643   8.289 -0.8959 -0.6323 -1.6157
 5912TIP3    H239372   1.412   2.765   8.246 -1.0604  0.3154  1.1576
 5913TIP3   OH239373   5.239   2.574   2.214 -0.4638 -0.1846  0.0326
 5913TIP3    H139374   5.187   2.643   2.173 -0.5654 -0.0934  0.3134
 5913TIP3    H239375   5.180   2.498   2.218  0.0846 -0.7395 -1.5694
 5914TIP3   OH239376   5.328   2.182   7.986  0.7867 -0.1429 -0.3936
 5914TIP3    H139377   5.262   2.191   8.055  0.8653 -0.5531 -0.2612
 5914TIP3    H239378   5.392   2.120   8.022  2.1362  1.5090  0.1519
 5915TIP3   OH239379   2.710   2.563   1.277 -0.4383  0.0466  0.5472
 5915TIP3    H139380   2.745   2.639   1.324  0.0601  1.5754 -2.1040
 5915TIP3    H239381   2.776   2.495   1.289 -0.5505  0.2197  2.3755
 5916TIP3   OH239382   3.579   1.847   8.639  0.9607 -0.5065  0.4631
 5916TIP3    H139383   3.593   1.933   8.677 -1.5582  0.0656  0.2448
 5916TIP3    H239384   3.576   1.862   8.545  0.7279 -0.8755  0.4098
 5917TIP3   OH239385   3.986   3.175   0.980  0.5079 -0.0769  0.1120
 5917TIP3    H139386   3.920   3.178   0.911  0.3216  0.0853  0.2962
 5917TIP3    H239387   3.938   3.150   1.059  0.5134  0.8643  0.4264
 5918TIP3   OH239388   3.896   4.731   0.131  0.6213  0.1682 -0.3827
 5918TIP3    H139389   3.871   4.816   0.166  0.1853  0.2393 -0.8569
 5918TIP3    H239390   3.836   4.716   0.058  0.4161 -0.7316 -0.0471
 5919TIP3   OH239391   5.096   3.433   8.515  0.1876  0.0575  0.1482
 5919TIP3    H139392   5.058   3.441   8.428  1.3975 -2.7864 -0.7550
 5919TIP3    H239393   5.020   3.428   8.574 -1.1479 -4.3861 -1.4731
 5920TIP3   OH239394   6.076   5.372   7.595  0.2467  0.1786 -0.2825
 5920TIP3    H139395   6.045   5.343   7.509  2.1298 -1.4126 -0.4983
 5920TIP3    H239396   6.148   5.433   7.575  0.5123  0.0131  0.1460
 5921TIP3   OH239397   4.664   1.593   7.813  0.3014  0.0061 -0.1725
 5921TIP3    H139398   4.571   1.612   7.801 -0.0256 -0.7035  1.0432
 5921TIP3    H239399   4.679   1.516   7.758 -0.2256 -0.8160  0.7888
 5922TIP3   OH239400   3.460   3.113   8.548 -0.0252  0.1042 -0.2277
 5922TIP3    H139401   3.543   3.069   8.529  0.4900  1.1902 -0.6300
 5922TIP3    H239402   3.445   3.169   8.471 -0.3604  1.0201  0.4783
 5923TIP3   OH239403   0.212   4.787   2.771  0.8702 -0.0794 -0.2567
 5923TIP3    H139404   0.270   4.768   2.844  1.5440 -1.6829 -1.1704
 5923TIP3    H239405   0.155   4.710   2.765  0.7009  0.1119 -1.2873
 5924TIP3   OH239406   3.088   1.945   2.522  0.6437  0.6784 -0.2780
 5924TIP3    H139407   3.040   1.945   2.605 -0.4923  1.8962 -0.8900
 5924TIP3    H239408   3.158   2.009   2.534  0.8364  0.4228 -0.0580
 5925TIP3   OH239409   0.015   2.045   1.302  0.4376 -0.3847 -0.1205
 5925TIP3    H139410  -0.042   1.976   1.336 -0.8278  0.8944  0.4337
 5925TIP3    H239411   0.097   2.000   1.280  0.1270 -1.8329  1.4880
 5926TIP3   OH239412   5.081   0.625   0.005 -0.3520 -0.3868  0.4760
 5926TIP3    H139413   5.094   0.571   0.083  0.9092  0.2673  0.7469
 5926TIP3    H239414   5.040   0.705   0.038  0.9044  0.2225  0.6184
 5927TIP3   OH239415   0.808   4.623   1.016 -0.6945 -0.5042  0.6015
 5927TIP3    H139416   0.729   4.610   1.068 -1.1220  2.6722  0.9550
 5927TIP3    H239417   0.785   4.692   0.954  2.3786  2.3181  2.3048
 5928TIP3   OH239418   5.145   1.836   0.281 -0.4348 -0.2918  0.9101
 5928TIP3    H139419   5.181   1.915   0.321 -0.0569 -0.9684  1.9553
 5928TIP3    H239420   5.126   1.779   0.355 -3.3155 -0.1465  0.4080
 5929TIP3   OH239421   5.901   6.562   1.589  0.1334  0.3977 -0.1093
 5929TIP3    H139422   5.839   6.635   1.593 -0.2159  0.1713 -1.0847
 5929TIP3    H239423   5.862   6.500   1.527  1.2509  0.1859 -0.6351
 5930TIP3   OH239424   4.595   6.730   7.918 -0.1178  0.2132 -0.0382
 5930TIP3    H139425   4.547   6.812   7.904  0.5459  0.7931  0.9299
 5930TIP3    H239426   4.687   6.754   7.903  0.0435 -0.4471 -0.1076
 5931TIP3   OH239427   5.023   5.647   1.890 -0.4371  0.7932 -0.6945
 5931TIP3    H139428   5.118   5.630   1.889 -0.4179  0.8476  0.0275
 5931TIP3    H239429   5.001   5.657   1.982 -1.3624 -0.3795 -0.7638
 5932TIP3   OH239430   6.047   6.522   0.108  0.1624  0.4343  0.0243
 5932TIP3    H139431   6.064   6.491   0.019  0.7433 -0.8412  0.5533
 5932TIP3    H239432   6.072   6.614   0.107  1.6777  0.0518 -0.7553
 5933TIP3   OH239433   1.141   3.937   1.588 -0.4046 -0.9493 -0.4552
 5933TIP3    H139434   1.059   3.907   1.628  0.3013 -1.3038  0.7935
 5933TIP3    H239435   1.188   3.857   1.567  0.5804 -0.7867  0.9560
 5934TIP3   OH239436   5.869   2.425   3.508 -0.3762  0.1191 -0.6105
 5934TIP3    H139437   5.928   2.350   3.499 -1.3972 -0.7374 -0.2959
 5934TIP3    H239438   5.843   2.425   3.600  0.7892  1.7863 -0.2331
 5935TIP3   OH239439   6.035   2.375   8.079  0.1095  0.3195 -0.2747
 5935TIP3    H139440   5.969   2.307   8.080  0.8700 -0.5705 -2.8604
 5935TIP3    H239441   5.989   2.454   8.050 -0.0073 -0.0648 -1.1390
 5936TIP3   OH239442   1.525   0.717   0.134 -0.0084  0.1112  0.2767
 5936TIP3    H139443   1.505   0.651   0.200  0.5905 -1.1642 -0.7858
 5936TIP3    H239444   1.442   0.731   0.088 -0.2095  0.3364  0.7069
 5937TIP3   OH239445   5.550   4.988   0.653  0.1423 -0.2246 -0.2624
 5937TIP3    H139446   5.613   4.999   0.582 -0.2495 -0.5129 -0.6577
 5937TIP3    H239447   5.589   5.036   0.726  1.1089 -0.9088 -0.3140
 5938TIP3   OH239448   4.533   6.049   0.487  0.7746  0.2262  0.4752
 5938TIP3    H139449   4.624   6.023   0.479  1.8258  3.1612  1.5613
 5938TIP3    H239450   4.522   6.120   0.424 -1.1295 -0.7368 -0.3946
 5939TIP3   OH239451   3.599   3.425   2.408  0.0861 -0.1173  0.4451
 5939TIP3    H139452   3.686   3.424   2.367  0.9791  1.0900  2.2164
 5939TIP3    H239453   3.611   3.379   2.491 -1.5063 -1.7873 -0.1778
 5940TIP3   OH239454   2.230   1.735   0.994  0.2517 -0.0895 -0.3557
 5940TIP3    H139455   2.279   1.816   1.012  0.5521  0.6299 -3.7333
 5940TIP3    H239456   2.287   1.684   0.938 -1.5741 -0.7053 -1.7648
 5941TIP3   OH239457   2.052   5.491   1.058 -0.3879 -0.8466 -0.3031
 5941TIP3    H139458   2.039   5.558   0.990  2.1919 -0.4587 -0.4995
 5941TIP3    H239459   2.031   5.409   1.013  3.2182 -0.8284 -2.3731
 5942TIP3   OH239460   2.261   4.015   1.487  0.0201 -0.2564  0.6375
 5942TIP3    H139461   2.233   3.939   1.437 -0.4378  0.6247 -0.4874
 5942TIP3    H239462   2.354   4.002   1.503  0.0663 -0.7781 -0.0438
 5943TIP3   OH239463   0.406   2.378   0.821 -0.3339 -0.2257  0.0944
 5943TIP3    H139464   0.328   2.429   0.798 -0.2794 -0.6802 -1.1475
 5943TIP3    H239465   0.372   2.294   0.849 -0.2792 -0.8902 -1.6893
 5944TIP3   OH239466   2.983   2.310   2.286 -0.1469 -0.1314 -0.2619
 5944TIP3    H139467   2.990   2.319   2.191 -0.2142 -0.5915 -0.3098
 5944TIP3    H239468   3.070   2.285   2.315  0.0438  0.6471 -0.1230
 5945TIP3   OH239469   0.021   6.667   2.982  0.1323  0.4281 -0.1157
 5945TIP3    H139470   0.047   6.578   3.004 -0.5955  0.6383  1.7713
 5945TIP3    H239471  -0.074   6.666   2.982  0.0533  0.7314 -2.3710
 5946TIP3   OH239472   5.515   1.755   7.218 -0.2582 -1.0925 -0.1185
 5946TIP3    H139473   5.456   1.762   7.144 -0.7026  0.0128  0.3117
 5946TIP3    H239474   5.602   1.772   7.182 -0.5631  0.2785 -0.2823
 5947TIP3   OH239475   2.888   6.044   0.980  0.0058 -0.1689  0.6071
 5947TIP3    H139476   2.857   5.971   1.033  0.0015 -1.0848 -0.6100
 5947TIP3    H239477   2.937   6.003   0.908  1.4309  1.1019  0.7992
 5948TIP3   OH239478   5.512   4.204   1.134 -0.0819  0.1021  0.1445
 5948TIP3    H139479   5.495   4.270   1.200 -2.8452  0.3223 -0.6858
 5948TIP3    H239480   5.547   4.253   1.059  1.3888  0.0676  0.7633
 5949TIP3   OH239481   1.457   2.901   0.869  0.2260  0.3693 -0.8280
 5949TIP3    H139482   1.410   2.860   0.941 -0.9464 -0.8487 -2.2158
 5949TIP3    H239483   1.413   2.985   0.856  0.4789  0.6206 -0.1220
 5950TIP3   OH239484   2.031   6.506   7.973 -0.5676 -0.0104  0.0687
 5950TIP3    H139485   2.003   6.595   7.949 -0.1163  0.6427  1.7698
 5950TIP3    H239486   2.031   6.458   7.891 -2.4487  1.1096 -0.6614
 5951TIP3   OH239487   6.764   0.804   0.999 -0.4271  0.2031  0.3991
 5951TIP3    H139488   6.805   0.718   1.012  1.1313  0.9459  0.6636
 5951TIP3    H239489   6.673   0.784   0.978 -0.4118 -1.4720  1.6715
 5952TIP3   OH239490   2.024   5.642   0.826 -0.3314  0.1108  0.0783
 5952TIP3    H139491   1.963   5.641   0.752 -0.7431  2.5353  0.3074
 5952TIP3    H239492   2.110   5.651   0.784 -0.2753 -1.2217 -0.1566
 5953TIP3   OH239493   4.559   1.113   0.841 -0.1712  0.6176 -0.0677
 5953TIP3    H139494   4.637   1.100   0.787 -0.7168 -3.3043 -0.2175
 5953TIP3    H239495   4.589   1.098   0.931 -0.6494 -0.7462 -0.1099
 5954TIP3   OH239496   3.961   5.312   1.197 -0.2015 -0.0102 -0.1865
 5954TIP3    H139497   3.995   5.257   1.126 -0.0899 -0.5381  0.2635
 5954TIP3    H239498   3.880   5.269   1.224  0.7364 -0.9467  1.3005
 5955TIP3   OH239499   1.698   0.163   0.272  0.3379 -0.6195  0.2117
 5955TIP3    H139500   1.642   0.236   0.297 -1.0854 -1.4881 -0.2859
 5955TIP3    H239501   1.774   0.203   0.230  0.6083  0.6389  1.8129
 5956TIP3   OH239502   2.554   5.934   0.669 -0.3794  0.2973 -0.1921
 5956TIP3    H139503   2.545   5.842   0.644 -0.4394  0.4329 -0.6651
 5956TIP3    H239504   2.475   5.952   0.719 -0.1742 -0.0212  0.2611
 5957TIP3   OH239505   0.916   3.025   1.365  0.0041 -0.2042 -0.4446
 5957TIP3    H139506   0.988   3.080   1.334 -0.1914  0.0206 -0.4935
 5957TIP3    H239507   0.869   2.999   1.286 -0.9628  1.0056 -0.2926
 5958TIP3   OH239508   3.290   0.778   1.100 -0.2763 -0.1980  0.3286
 5958TIP3    H139509   3.316   0.722   1.173 -2.2474 -0.8406  0.5932
 5958TIP3    H239510   3.372   0.818   1.070  0.7745 -1.0341  1.9467
 5959TIP3   OH239511   0.664   5.521   2.415  0.8313  0.0696  0.6100
 5959TIP3    H139512   0.755   5.533   2.390  0.8698 -0.7626  0.3195
 5959TIP3    H239513   0.628   5.462   2.349  0.0826  0.3603  0.7355
 5960TIP3   OH239514   4.208   3.667   7.449  0.0618 -0.2311  0.0901
 5960TIP3    H139515   4.164   3.716   7.519  2.9844  1.2283  1.0836
 5960TIP3    H239516   4.203   3.724   7.373  0.6730  0.1795  0.3525
 5961TIP3   OH239517   0.340   0.059   2.256 -0.0724 -0.0651 -0.5382
 5961TIP3    H139518   0.315   0.150   2.240  0.6239  0.1895 -0.2408
 5961TIP3    H239519   0.310   0.042   2.345 -0.5529 -0.2542 -0.7352
 5962TIP3   OH239520   3.248   6.678   7.675 -0.7508 -0.8019 -0.3375
 5962TIP3    H139521   3.164   6.677   7.627 -1.3549 -1.1478  0.6994
 5962TIP3    H239522   3.231   6.627   7.754 -0.1054  0.6825  0.8011
 5963TIP3   OH239523   5.909   3.224   8.498 -0.1154 -0.1822 -0.8420
 5963TIP3    H139524   6.000   3.250   8.481  0.4447 -1.1368  0.4567
 5963TIP3    H239525   5.899   3.234   8.593 -1.1274 -0.7922 -0.8715
 5964TIP3   OH239526   4.290   5.372   2.323 -0.4323 -0.1821 -0.3931
 5964TIP3    H139527   4.335   5.332   2.397  0.3603  2.7478  0.8384
 5964TIP3    H239528   4.217   5.420   2.361 -0.3335  0.9479 -1.5556
 5965TIP3   OH239529   6.816   0.323   1.743 -0.4194  0.3141  0.5245
 5965TIP3    H139530   6.753   0.272   1.795 -0.9302 -0.9631 -1.2721
 5965TIP3    H239531   6.896   0.271   1.744 -0.5402  0.1015 -0.2269
 5966TIP3   OH239532   2.856   0.669   0.281 -0.1062  0.1166 -0.2847
 5966TIP3    H139533   2.766   0.637   0.288  1.1319 -3.7375  0.5810
 5966TIP3    H239534   2.875   0.707   0.367 -0.9773  1.3498 -0.6157
 5967TIP3   OH239535   6.309   2.724   1.966  0.2812  0.7007 -0.0992
 5967TIP3    H139536   6.219   2.742   1.938  0.2128  1.6014  0.6413
 5967TIP3    H239537   6.299   2.665   2.040  0.1479  2.4015  1.3040
 5968TIP3   OH239538   3.500   5.870   1.878 -0.5700 -0.0607 -0.2848
 5968TIP3    H139539   3.523   5.823   1.798  0.6531  1.0838 -0.6509
 5968TIP3    H239540   3.532   5.815   1.949  0.4275 -0.0086 -0.6866
 5969TIP3   OH239541   6.316   0.245   2.109  1.1138 -0.0431 -0.2344
 5969TIP3    H139542   6.231   0.241   2.065  1.1194  1.1447 -0.3888
 5969TIP3    H239543   6.295   0.261   2.201  1.1453 -1.1455 -0.0190
 5970TIP3   OH239544   5.897   0.957   2.659  0.0598 -0.4833  0.0856
 5970TIP3    H139545   5.847   1.018   2.714  0.8660  1.4626 -1.2306
 5970TIP3    H239546   5.978   1.004   2.639  0.6638 -1.9674 -1.0847
 5971TIP3   OH239547   4.136   5.184   1.846  0.1381  0.5293  1.1479
 5971TIP3    H139548   4.173   5.128   1.915  0.4905 -0.1275  0.4526
 5971TIP3    H239549   4.108   5.263   1.891  0.9472  0.3797  1.9529
 5972TIP3   OH239550   3.919   4.885   1.299  0.1846 -0.5439 -0.3891
 5972TIP3    H139551   3.957   4.899   1.386 -0.7940 -0.8446  0.0922
 5972TIP3    H239552   3.875   4.801   1.305  0.7143 -0.9150 -1.4092
 5973TIP3   OH239553   1.285   3.502   2.312  0.0375  0.1698 -0.1360
 5973TIP3    H139554   1.245   3.419   2.285  0.0055  0.3377 -0.6235
 5973TIP3    H239555   1.376   3.495   2.284 -0.3565  0.9765 -1.7998
 5974TIP3   OH239556   1.198   5.617   8.033  0.6972 -0.0551  0.0332
 5974TIP3    H139557   1.251   5.599   8.110 -2.0716  0.3244  2.1651
 5974TIP3    H239558   1.160   5.532   8.010 -0.8774  0.3577  1.0227
 5975TIP3   OH239559   2.535   3.838   1.223  0.2746  0.3004 -0.5896
 5975TIP3    H139560   2.503   3.837   1.313 -0.3899  0.7875 -0.8191
 5975TIP3    H239561   2.615   3.891   1.227  0.2326  0.3418 -0.2903
 5976TIP3   OH239562   5.309   2.013   1.055  0.1955 -0.8574 -0.2254
 5976TIP3    H139563   5.279   1.928   1.087 -0.2428 -1.1894 -1.4632
 5976TIP3    H239564   5.255   2.076   1.102 -1.0512 -1.3709 -0.9266
 5977TIP3   OH239565   6.441   2.830   7.849  0.2856  0.5075 -0.5310
 5977TIP3    H139566   6.457   2.923   7.831  3.3568  0.3754  0.8576
 5977TIP3    H239567   6.506   2.784   7.797 -0.8551 -0.8683 -0.7968
 5978TIP3   OH239568   6.020   3.182   7.818  0.6925 -0.1092 -0.3896
 5978TIP3    H139569   6.084   3.133   7.766  0.3403  0.3450 -1.2750
 5978TIP3    H239570   6.051   3.272   7.815 -0.0741  0.1401 -0.9609
 5979TIP3   OH239571   2.723   3.885   7.578  0.0691 -0.1313 -0.1030
 5979TIP3    H139572   2.719   3.853   7.488 -0.2786  1.5160 -0.7103
 5979TIP3    H239573   2.646   3.846   7.620  0.3416 -1.0698 -0.4635
 5980TIP3   OH239574   2.761   4.637   7.981 -0.5329  0.2155 -0.1092
 5980TIP3    H139575   2.829   4.612   7.918 -0.5735 -0.7728  0.2158
 5980TIP3    H239576   2.692   4.572   7.968  0.1118 -0.9840  1.9918
 5981TIP3   OH239577   0.109   5.547   3.379  0.3714  0.4392 -0.2285
 5981TIP3    H139578   0.035   5.485   3.380  0.9973 -0.4722  2.9670
 5981TIP3    H239579   0.073   5.627   3.418  0.9484  0.0344  1.2173
 5982TIP3   OH239580   6.543   5.467   7.656  0.0024  0.4293 -0.6408
 5982TIP3    H139581   6.617   5.496   7.602  1.4665 -2.5010 -0.4123
 5982TIP3    H239582   6.581   5.402   7.715 -2.2059  1.1008  1.6921
 5983TIP3   OH239583   3.687   2.377   8.506 -0.0193 -0.5656  0.5776
 5983TIP3    H139584   3.613   2.374   8.566 -1.1794 -0.1051 -0.7615
 5983TIP3    H239585   3.648   2.367   8.419  1.3879  0.5482 -0.2350
 5984TIP3   OH239586   1.888   2.818   2.741 -0.0583 -0.4765 -0.5475
 5984TIP3    H139587   1.973   2.776   2.744 -0.7393 -1.8423  0.7061
 5984TIP3    H239588   1.851   2.791   2.656  0.9416  0.6131 -1.3716
 5985TIP3   OH239589   0.423   0.721   0.116 -0.6894  0.0567 -0.4868
 5985TIP3    H139590   0.466   0.712   0.031 -0.7403 -0.6213 -0.4433
 5985TIP3    H239591   0.361   0.793   0.104  1.0900  1.7364 -0.2793
 5986TIP3   OH239592   1.963   4.370   7.743  0.0129 -0.3525 -0.5285
 5986TIP3    H139593   1.983   4.288   7.699  1.4721  0.1697 -0.8851
 5986TIP3    H239594   1.874   4.392   7.713 -0.0850 -1.3878 -1.0416
 5987TIP3   OH239595   2.341   6.064   1.457  0.6691  0.3267 -0.1136
 5987TIP3    H139596   2.298   6.018   1.529 -1.0926 -0.8044 -1.7783
 5987TIP3    H239597   2.398   5.999   1.417  1.5719  0.9234  0.1663
 5988TIP3   OH239598   1.842   0.683   0.862 -0.2783 -0.5069 -0.0801
 5988TIP3    H139599   1.751   0.657   0.849 -0.0554 -0.4094 -2.2840
 5988TIP3    H239600   1.893   0.605   0.839  0.2242 -0.9356  2.2563
 5989TIP3   OH239601   1.405   2.237   1.981  0.0542 -0.6182  0.1616
 5989TIP3    H139602   1.467   2.266   2.048  1.5538 -1.7865 -0.6555
 5989TIP3    H239603   1.374   2.151   2.012  0.1799 -0.8214 -0.2661
 5990TIP3   OH239604   0.515   3.672   0.561  0.0874 -0.4732 -0.2131
 5990TIP3    H139605   0.595   3.640   0.603  0.8726  2.2660  0.6494
 5990TIP3    H239606   0.450   3.673   0.631  0.0470 -0.3274 -0.2513
 5991TIP3   OH239607   6.291   5.684   0.528 -0.2497  0.0042  0.1458
 5991TIP3    H139608   6.370   5.703   0.479  0.0317  0.1397  0.6395
 5991TIP3    H239609   6.235   5.637   0.467 -0.5644  1.5360 -0.8118
 5992TIP3   OH239610   0.462   2.222   2.371 -0.2526 -0.5347 -0.1859
 5992TIP3    H139611   0.465   2.254   2.462 -0.1806  0.8429 -0.6532
 5992TIP3    H239612   0.413   2.140   2.377  1.9087 -1.8245  1.4636
 5993TIP3   OH239613   4.377   5.606   7.499  0.1537 -0.1251 -0.0355
 5993TIP3    H139614   4.301   5.561   7.536  0.1776 -0.0686  0.0834
 5993TIP3    H239615   4.371   5.695   7.534 -1.0896  0.5909 -1.9671
 5994TIP3   OH239616   3.500   5.463   0.650 -0.0981 -0.3104  0.3150
 5994TIP3    H139617   3.432   5.481   0.585 -2.0443 -0.3012  2.2155
 5994TIP3    H239618   3.455   5.415   0.719  1.5817  0.6086  2.1626
 5995TIP3   OH239619   0.213   4.397   0.379 -1.0985  0.0091  0.5328
 5995TIP3    H139620   0.286   4.452   0.406 -1.4285  0.5499  0.3365
 5995TIP3    H239621   0.249   4.308   0.380 -0.7612  0.1411  1.5349
 5996TIP3   OH239622   0.670   4.630   0.351  0.0502 -0.6457 -0.4409
 5996TIP3    H139623   0.711   4.717   0.357 -0.1690 -0.6144  1.2621
 5996TIP3    H239624   0.732   4.578   0.300  0.0278  0.5769 -1.7811
 5997TIP3   OH239625   0.554   5.823   3.427  0.8674  0.1776 -0.0884
 5997TIP3    H139626   0.580   5.758   3.362  2.3855  1.2128 -0.5796
 5997TIP3    H239627   0.459   5.828   3.420  0.8021 -1.3540 -0.6350
 5998TIP3   OH239628   5.094   5.027   1.057 -0.2837 -0.1664  0.2942
 5998TIP3    H139629   5.106   5.084   1.133  0.1030 -0.1985  0.2571
 5998TIP3    H239630   5.052   4.949   1.092 -0.9202  0.1847  0.3269
 5999TIP3   OH239631   5.180   0.130   7.529  0.0595 -0.7139  0.2106
 5999TIP3    H139632   5.144   0.175   7.452 -1.1277 -1.1666  0.4778
 5999TIP3    H239633   5.272   0.113   7.506  0.5322  1.6903  0.0347
 6000TIP3   OH239634   5.258   4.096   1.238 -0.0728 -0.2547  0.4307
 6000TIP3    H139635   5.198   4.057   1.175  0.1621 -1.0150  0.6691
 6000TIP3    H239636   5.337   4.114   1.188 -1.0876  2.4910 -0.3486
 6001TIP3   OH239637   1.698   3.005   0.795  0.5823 -0.1721  0.2112
 6001TIP3    H139638   1.754   3.066   0.844 -0.5705  0.5459  0.6988
 6001TIP3    H239639   1.646   2.961   0.862  0.1892 -0.4325 -0.2556
 6002TIP3   OH239640   0.033   3.250   0.972 -0.9550  0.1524 -0.2899
 6002TIP3    H139641   0.076   3.218   0.893 -0.5671  0.5495 -0.2443
 6002TIP3    H239642   0.004   3.171   1.018  0.5777 -0.1839  0.1577
 6003TIP3   OH239643   6.540   3.619   1.749  0.4808  0.3481 -0.0644
 6003TIP3    H139644   6.472   3.554   1.730  0.3830 -0.0756  1.5747
 6003TIP3    H239645   6.506   3.669   1.823  1.4855  0.8366  0.0898
 6004TIP3   OH239646   0.625   5.314   7.609 -0.0594 -0.6328  0.5129
 6004TIP3    H139647   0.619   5.350   7.520  0.2988  0.8439  1.0467
 6004TIP3    H239648   0.642   5.221   7.596  0.0579 -0.4359 -0.9728
 6005TIP3   OH239649   1.917   4.553   1.959 -0.3335  0.0912  0.0049
 6005TIP3    H139650   1.990   4.577   1.902 -0.9626  0.4209 -0.6871
 6005TIP3    H239651   1.862   4.632   1.961 -1.0031 -0.3720 -0.0193
 6006TIP3   OH239652   0.255   3.798   7.829 -0.1114 -0.4857  0.0448
 6006TIP3    H139653   0.165   3.766   7.823 -0.4084  0.3049  0.1179
 6006TIP3    H239654   0.261   3.867   7.763 -0.1849  0.8636  1.3864
 6007TIP3   OH239655   0.223   1.278   7.782 -0.4953  0.2589 -0.5502
 6007TIP3    H139656   0.272   1.259   7.702 -3.6820 -1.6535 -2.2531
 6007TIP3    H239657   0.165   1.351   7.758 -2.9744 -1.6837 -0.8108
 6008TIP3   OH239658   1.667   0.143   2.490  0.3388 -0.3741  0.1971
 6008TIP3    H139659   1.578   0.132   2.525 -0.1571 -0.8852 -1.1541
 6008TIP3    H239660   1.712   0.063   2.515  0.1925 -0.4330  0.2766
 6009TIP3   OH239661   1.049   5.062   0.254 -0.7477  0.0160 -0.2939
 6009TIP3    H139662   1.123   5.063   0.192 -1.8282 -0.0283 -1.6249
 6009TIP3    H239663   1.052   5.148   0.296  2.0381 -1.1056  2.1798
 6010TIP3   OH239664   6.817   6.740   7.480  0.1282 -0.0479 -0.1475
 6010TIP3    H139665   6.859   6.759   7.564  0.7337  0.2960 -0.5224
 6010TIP3    H239666   6.828   6.646   7.468  1.6878  0.1744 -0.7009
 6011TIP3   OH239667   2.969   3.525   7.592  0.2235  0.0126  0.1785
 6011TIP3    H139668   3.059   3.548   7.567  0.2375  0.1636  0.3686
 6011TIP3    H239669   2.948   3.585   7.663 -0.0405 -0.0033  0.1131
 6012TIP3   OH239670   3.839   1.820   2.094 -0.2394 -0.0692 -0.2436
 6012TIP3    H139671   3.846   1.907   2.132 -1.1036  0.0637 -0.3710
 6012TIP3    H239672   3.783   1.772   2.155 -1.6069  0.1362 -1.2954
 6013TIP3   OH239673   2.927   1.040   2.615  0.1385 -0.4987  0.3645
 6013TIP3    H139674   2.989   0.970   2.636  1.5631  0.4567 -0.4435
 6013TIP3    H239675   2.863   1.038   2.685  0.5573 -2.1408  0.7361
 6014TIP3   OH239676   1.375   6.176   1.667  0.4686 -0.0746  0.3464
 6014TIP3    H139677   1.325   6.118   1.724  0.3893 -1.0452 -0.6823
 6014TIP3    H239678   1.449   6.205   1.720 -1.1373  1.4238  1.9358
 6015TIP3   OH239679   4.557   0.511   3.083  0.5040  0.7340  0.4803
 6015TIP3    H139680   4.477   0.531   3.132 -1.7880 -0.8082 -2.3384
 6015TIP3    H239681   4.577   0.591   3.035 -0.9012  0.4108 -0.7153
 6016TIP3   OH239682   0.798   6.017   8.300 -0.0917  0.1503  0.6021
 6016TIP3    H139683   0.765   6.101   8.331 -0.7547 -0.0713  0.5234
 6016TIP3    H239684   0.888   6.012   8.332 -0.3284  0.5159  1.3372
 6017TIP3   OH239685   2.393   5.046   3.083  0.5650 -0.2329 -0.2298
 6017TIP3    H139686   2.435   5.024   3.166  2.1691 -0.0012 -0.9452
 6017TIP3    H239687   2.303   5.068   3.107  1.0771  0.1327  1.4843
 6018TIP3   OH239688   6.673   1.759   0.491 -0.4642 -0.2897 -0.3393
 6018TIP3    H139689   6.586   1.798   0.485  0.3436  1.4122 -1.7805
 6018TIP3    H239690   6.688   1.720   0.405  1.1283  1.6010 -0.9814
 6019TIP3   OH239691   0.110   3.606   1.386  0.1059 -0.4024 -0.0169
 6019TIP3    H139692   0.035   3.649   1.429  0.6929  0.4164  0.2179
 6019TIP3    H239693   0.072   3.564   1.309 -0.4683  0.7461 -0.3828
 6020TIP3   OH239694   0.307   0.982   0.139 -0.5709 -0.3710  0.3729
 6020TIP3    H139695   0.301   1.039   0.062 -0.7151 -0.1029  0.5809
 6020TIP3    H239696   0.278   1.037   0.212 -0.4099 -0.6148  0.6241
 6021TIP3   OH239697   0.770   0.251   8.328  0.3256 -0.1892  0.0839
 6021TIP3    H139698   0.859   0.218   8.344  1.5048  2.6227 -0.0987
 6021TIP3    H239699   0.728   0.250   8.414  1.1536  0.0250  0.5035
 6022TIP3   OH239700   5.929   2.114   2.564  0.3360 -0.3646  0.4682
 6022TIP3    H139701   5.968   2.193   2.599 -0.8123 -0.1981  1.4376
 6022TIP3    H239702   5.883   2.075   2.638 -0.7538 -0.8935 -0.4566
 6023TIP3   OH239703   2.753   2.866   7.674 -0.8787  0.2433  0.0049
 6023TIP3    H139704   2.718   2.780   7.650 -0.3324  0.4425 -1.6026
 6023TIP3    H239705   2.763   2.912   7.591  1.2617  0.9334  0.5880
 6024TIP3   OH239706   2.157   2.122   2.546  0.1531  0.4071 -0.7345
 6024TIP3    H139707   2.239   2.084   2.576 -0.3940 -0.0978  0.1727
 6024TIP3    H239708   2.141   2.082   2.461  0.6232  0.1862 -0.7188
 6025TIP3   OH239709   3.392   5.304   1.525 -0.0911  0.7843  0.3509
 6025TIP3    H139710   3.426   5.317   1.437 -1.0269  2.0115  0.1455
 6025TIP3    H239711   3.468   5.314   1.582  0.8842 -1.8311 -0.3777
 6026TIP3   OH239712   1.007   3.400   0.358 -0.6844  0.1621 -0.0660
 6026TIP3    H139713   1.013   3.367   0.268  0.7964 -1.7945  0.6832
 6026TIP3    H239714   0.992   3.494   0.348  1.8628  0.4516 -2.4019
 6027TIP3   OH239715   6.808   3.110   0.531 -0.2815 -0.3063  0.5996
 6027TIP3    H139716   6.894   3.085   0.496 -0.3694 -1.3677  1.1022
 6027TIP3    H239717   6.768   3.027   0.557 -1.9568  0.0420 -0.7093
 6028TIP3   OH239718   0.882   1.754   3.489 -0.6462  0.2450 -0.0384
 6028TIP3    H139719   0.841   1.821   3.543  0.3867 -0.2551  1.4195
 6028TIP3    H239720   0.920   1.692   3.551  3.4280  1.2917 -1.2057
 6029TIP3   OH239721   6.247   1.108   1.892 -0.3775  0.0245  0.2671
 6029TIP3    H139722   6.301   1.129   1.815 -0.1496  1.6438  0.8226
 6029TIP3    H239723   6.165   1.075   1.856  0.0019  0.0541 -0.6462
 6030TIP3   OH239724   5.119   4.607   1.834  0.6031  0.3939 -0.2177
 6030TIP3    H139725   5.186   4.557   1.788 -0.3322 -0.4609 -0.6943
 6030TIP3    H239726   5.149   4.610   1.925  0.6991 -1.0602 -0.1745
 6031TIP3   OH239727   3.346   4.890   7.886  1.1834  0.7115 -0.2036
 6031TIP3    H139728   3.367   4.954   7.817 -0.4569  0.3350 -1.1267
 6031TIP3    H239729   3.315   4.944   7.959 -0.8597  1.0365 -1.2212
 6032TIP3   OH239730   0.941   0.636   2.287 -0.0371 -0.0381  0.0345
 6032TIP3    H139731   0.855   0.647   2.328  0.4793  0.0131  1.1474
 6032TIP3    H239732   0.963   0.544   2.305  1.4158  0.6950  2.3962
 6033TIP3   OH239733   2.634   6.723   1.086 -0.1677 -0.0527 -0.1125
 6033TIP3    H139734   2.646   6.749   1.178  1.4206  0.6342 -0.4642
 6033TIP3    H239735   2.540   6.714   1.075 -0.4778  1.0938  1.2775
 6034TIP3   OH239736   6.742   5.478   0.036 -0.1493 -0.5741 -0.9544
 6034TIP3    H139737   6.775   5.548  -0.021 -2.0432  1.3900  0.2112
 6034TIP3    H239738   6.658   5.453  -0.002 -0.6551 -0.4165  0.0270
 6035TIP3   OH239739   1.881   2.808   1.361  0.1911 -0.4423 -0.5927
 6035TIP3    H139740   1.945   2.849   1.419 -2.2980  1.9696  0.6719
 6035TIP3    H239741   1.852   2.730   1.408 -0.7237  0.6873  0.8019
 6036TIP3   OH239742   5.410   2.061   7.765  0.0478  0.3330  0.2521
 6036TIP3    H139743   5.347   2.115   7.813  0.9613  2.1073 -0.4542
 6036TIP3    H239744   5.410   2.098   7.677  1.3412 -0.2934 -0.0296
 6037TIP3   OH239745   4.746   2.170   2.506  0.0998 -0.1871 -0.0752
 6037TIP3    H139746   4.691   2.154   2.582  0.6254 -3.0379 -0.1667
 6037TIP3    H239747   4.697   2.134   2.432  1.4836 -1.7781 -0.3133
 6038TIP3   OH239748   5.596   1.565   2.846 -0.0140 -0.6384  0.1907
 6038TIP3    H139749   5.565   1.649   2.880  0.6304  0.7536 -2.3949
 6038TIP3    H239750   5.618   1.514   2.924  0.8177  2.0712  1.8582
 6039TIP3   OH239751   1.190   5.148   1.380  0.4901 -0.0262 -0.2392
 6039TIP3    H139752   1.207   5.144   1.475  1.4697  0.3028 -0.3834
 6039TIP3    H239753   1.277   5.139   1.340  0.0189 -0.7675 -1.1319
 6040TIP3   OH239754   4.978   5.006   2.293 -1.1177  0.0792  0.2137
 6040TIP3    H139755   5.069   5.026   2.270 -0.5163 -0.8054  1.7251
 6040TIP3    H239756   4.961   4.921   2.252 -0.6778 -0.5754  1.3502
 6041TIP3   OH239757   4.502   6.468   1.859  0.1879 -0.1386  0.2392
 6041TIP3    H139758   4.511   6.435   1.948  2.1339 -0.8510 -0.1819
 6041TIP3    H239759   4.544   6.402   1.804 -0.2759  0.6643 -1.1382
 6042TIP3   OH239760   4.434   5.375   0.283  0.1470  0.1338  0.0359
 6042TIP3    H139761   4.409   5.456   0.328  1.0195  0.9272 -0.8393
 6042TIP3    H239762   4.370   5.310   0.312  0.9051  0.4562  2.7444
 6043TIP3   OH239763   2.313   5.381   0.165  0.8422 -0.2360  0.0563
 6043TIP3    H139764   2.350   5.339   0.243  0.6726 -3.3286 -1.3526
 6043TIP3    H239765   2.219   5.384   0.183  0.9887  0.8544  0.7086
 6044TIP3   OH239766   3.710   6.321   2.279  0.1486  0.3558 -0.9037
 6044TIP3    H139767   3.671   6.279   2.356 -0.8953 -0.4708 -1.8381
 6044TIP3    H239768   3.800   6.290   2.278 -0.8742 -3.1663 -2.2795
 6045TIP3   OH239769   4.694   2.887   0.453 -0.1122  0.2004 -0.0525
 6045TIP3    H139770   4.749   2.923   0.383 -0.9237 -1.1311 -1.4264
 6045TIP3    H239771   4.605   2.900   0.422 -0.5175  0.1639  1.0527
 6046TIP3   OH239772   6.481   0.703   8.697 -0.2261  0.0222  0.1486
 6046TIP3    H139773   6.541   0.770   8.663 -0.3715 -0.4252 -1.0364
 6046TIP3    H239774   6.512   0.621   8.656 -3.0740  0.1014 -2.5057
 6047TIP3   OH239775   1.143   1.527   8.422 -0.2623 -0.2465 -0.1146
 6047TIP3    H139776   1.117   1.574   8.501  0.1512  1.0989 -0.7602
 6047TIP3    H239777   1.122   1.586   8.350 -0.2396 -1.2780 -1.0009
 6048TIP3   OH239778   0.263   0.817   8.212 -0.3985 -0.2419 -0.6242
 6048TIP3    H139779   0.310   0.900   8.206 -0.5240 -0.1090  0.2095
 6048TIP3    H239780   0.207   0.825   8.288 -0.1778 -1.2040 -0.3353
 6049TIP3   OH239781   3.951   1.768   7.124 -0.0563  0.3905 -0.3491
 6049TIP3    H139782   4.035   1.758   7.079  0.2510 -0.8364  0.4646
 6049TIP3    H239783   3.886   1.765   7.054  0.4695 -0.6673 -0.8154
 6050TIP3   OH239784   6.864   3.409   8.236 -0.3130 -0.4697  0.0077
 6050TIP3    H139785   6.885   3.427   8.328  1.1324 -1.7603 -0.0220
 6050TIP3    H239786   6.802   3.337   8.239 -1.0230  0.1248 -0.0302
 6051TIP3   OH239787   5.949   6.849   8.091  0.0300 -0.2656  0.2316
 6051TIP3    H139788   5.972   6.791   8.164  0.9957  1.2510  1.1705
 6051TIP3    H239789   5.857   6.871   8.106  0.2570  0.1306  1.0617
 6052TIP3   OH239790   0.855   2.198   1.892  0.5519  0.3734 -0.3436
 6052TIP3    H139791   0.883   2.260   1.825  2.3339  1.7242  1.5094
 6052TIP3    H239792   0.908   2.120   1.876 -0.0956  0.1420 -1.3740
 6053TIP3   OH239793   4.952   3.266   2.186 -0.1531  0.0958 -0.2694
 6053TIP3    H139794   4.874   3.307   2.147  1.2111  1.2529 -1.9356
 6053TIP3    H239795   4.985   3.209   2.117  0.2870 -0.6534  0.5509
 6054TIP3   OH239796   1.035   4.945   1.088 -0.6048  0.0280  0.0013
 6054TIP3    H139797   1.019   4.923   1.180 -1.3409 -1.0019 -0.3609
 6054TIP3    H239798   1.044   4.861   1.044  0.4994  0.5155 -0.7627
 6055TIP3   OH239799   6.181   3.660   8.348 -0.0961  0.1963 -0.1272
 6055TIP3    H139800   6.127   3.698   8.279 -0.2340  0.7219  0.2609
 6055TIP3    H239801   6.121   3.606   8.399 -0.8208  2.4562  1.6083
 6056TIP3   OH239802   5.374   3.575   1.595  0.2737 -0.8381  0.3251
 6056TIP3    H139803   5.344   3.513   1.662 -1.1566  0.8902  1.3853
 6056TIP3    H239804   5.364   3.661   1.637 -0.0950  0.2633 -1.9110
 6057TIP3   OH239805   6.535   5.764   1.675 -0.3342  0.4605  0.4406
 6057TIP3    H139806   6.457   5.787   1.726  0.7880 -0.2896  2.6247
 6057TIP3    H239807   6.563   5.679   1.711 -0.0125 -0.6004 -2.1280
 6058TIP3   OH239808   6.116   6.789   0.152 -0.3746 -0.2693  0.4096
 6058TIP3    H139809   6.038   6.822   0.198 -1.1196 -1.8956  0.3690
 6058TIP3    H239810   6.159   6.733   0.215 -0.2579 -0.8556 -0.1867
 6059TIP3   OH239811   0.644   5.527   2.858 -0.2537  0.7108 -0.3700
 6059TIP3    H139812   0.602   5.443   2.839 -2.8994  2.2520 -1.9420
 6059TIP3    H239813   0.708   5.538   2.788  0.6104 -0.2560  0.2395
 6060TIP3   OH239814   1.772   2.504   0.380  0.4065 -0.4781 -0.0553
 6060TIP3    H139815   1.819   2.420   0.384  2.8083  0.7607 -0.7048
 6060TIP3    H239816   1.762   2.521   0.286  1.2266  0.6043  0.0355
 6061TIP3   OH239817   6.215   2.071   1.678 -0.0219 -0.5943  0.1412
 6061TIP3    H139818   6.274   2.029   1.740 -0.8911  0.0107  1.4184
 6061TIP3    H239819   6.141   2.010   1.670  0.2339 -0.8184 -0.5585
 6062TIP3   OH239820   4.094   4.735   0.451  0.0653 -0.1652  0.0036
 6062TIP3    H139821   4.174   4.769   0.411  1.5766 -2.0944  1.1967
 6062TIP3    H239822   4.058   4.675   0.385  1.3768 -1.6978  0.6230
 6063TIP3   OH239823   1.388   2.364   7.638  0.1614 -0.2326 -0.2283
 6063TIP3    H139824   1.310   2.383   7.587  0.2999  0.5934 -0.1455
 6063TIP3    H239825   1.386   2.269   7.651  0.0774 -0.4497 -1.6842
 6064TIP3   OH239826   2.014   3.367   2.749  0.1501  0.0400 -0.3704
 6064TIP3    H139827   2.012   3.276   2.722 -2.0564 -0.1459  0.2372
 6064TIP3    H239828   2.102   3.380   2.785  0.6922 -1.6481 -1.0210
 6065TIP3   OH239829   3.673   3.877   8.668 -0.3465 -0.2405 -0.7109
 6065TIP3    H139830   3.765   3.902   8.681 -0.7556  0.3557  1.3753
 6065TIP3    H239831   3.678   3.801   8.610  1.4279  0.0876 -1.0598
 6066TIP3   OH239832   3.618   0.602   2.492  1.0852  0.2284 -0.5988
 6066TIP3    H139833   3.612   0.575   2.401  3.3152 -0.1032 -0.6996
 6066TIP3    H239834   3.671   0.535   2.534 -1.0855 -0.4272  1.3452
 6067TIP3   OH239835   4.988   3.941   7.731 -0.0257 -0.2407 -0.2157
 6067TIP3    H139836   5.018   3.957   7.821  4.4286  1.1208 -1.6813
 6067TIP3    H239837   5.030   3.858   7.707  1.0259  0.7151 -1.7985
 6068TIP3   OH239838   0.765   3.419   8.534  0.3874 -0.1787  0.0715
 6068TIP3    H139839   0.741   3.465   8.453 -1.2828 -0.0797  0.5848
 6068TIP3    H239840   0.757   3.326   8.512 -0.0176 -0.1531  0.1060
 6069TIP3   OH239841   3.978   6.249   1.368 -0.0977  0.0246  0.0295
 6069TIP3    H139842   3.953   6.307   1.297  1.5222  0.0555 -0.5606
 6069TIP3    H239843   4.028   6.179   1.326 -0.2075 -0.6544  0.9843
 6070TIP3   OH239844   6.734   4.842   1.954  0.7259 -0.3398  0.4548
 6070TIP3    H139845   6.674   4.847   2.028  1.4040  0.8522  0.9482
 6070TIP3    H239846   6.678   4.821   1.879 -0.2380  0.2150  0.9975
 6071TIP3   OH239847   6.385   4.997   3.184 -0.3813 -0.2827 -0.0791
 6071TIP3    H139848   6.375   5.065   3.251  0.1011 -0.5223  0.2471
 6071TIP3    H239849   6.475   5.007   3.153 -0.9903  0.6953 -1.6650
 6072TIP3   OH239850   2.454   4.326   8.055  0.6288 -0.3292 -0.0645
 6072TIP3    H139851   2.524   4.382   8.088  0.2152  0.1996 -0.0578
 6072TIP3    H239852   2.388   4.388   8.023  0.1389 -0.8173 -0.0113
 6073TIP3   OH239853   0.745   2.406   8.109 -0.0936 -0.2271 -0.1128
 6073TIP3    H139854   0.727   2.386   8.201  1.0179 -0.1322  0.1459
 6073TIP3    H239855   0.761   2.501   8.108 -3.0583  0.3478 -0.9391
 6074TIP3   OH239856   0.141   6.510   0.945 -0.1387 -0.4707  0.2011
 6074TIP3    H139857   0.084   6.558   0.885 -1.5051 -2.2408  0.0327
 6074TIP3    H239858   0.220   6.565   0.950 -0.4707  0.3818 -2.1969
 6075TIP3   OH239859   6.218   1.275   8.063  0.4672  0.3238 -0.5141
 6075TIP3    H139860   6.313   1.282   8.073  0.6029  0.3208 -1.7026
 6075TIP3    H239861   6.204   1.203   8.002 -0.2997  0.3231 -0.3547
 6076TIP3   OH239862   1.062   4.733   0.808 -0.1174 -0.0109  0.3512
 6076TIP3    H139863   1.058   4.673   0.883  0.0051  0.2812  0.5941
 6076TIP3    H239864   1.140   4.786   0.823 -0.8012  0.9334  0.7024
 6077TIP3   OH239865   3.931   5.448   7.840  0.3936  0.4625  0.0798
 6077TIP3    H139866   3.990   5.421   7.770  0.9209  0.1753  0.6235
 6077TIP3    H239867   3.926   5.373   7.899 -0.6487  0.4254 -0.0350
 6078TIP3   OH239868   4.931   6.499   1.298  0.2367  0.0230  0.6940
 6078TIP3    H139869   4.978   6.443   1.236 -1.3175 -1.1282  0.4891
 6078TIP3    H239870   4.905   6.575   1.246 -1.0272 -0.9198 -0.1206
 6079TIP3   OH239871   5.870   3.554   2.404  0.1446 -0.0797  0.4579
 6079TIP3    H139872   5.880   3.643   2.371 -0.4893 -0.0390  0.3710
 6079TIP3    H239873   5.803   3.560   2.472 -1.3299 -0.8052 -0.8761
 6080TIP3   OH239874   0.858   6.210   2.474 -0.5952  0.6635 -0.0610
 6080TIP3    H139875   0.858   6.306   2.470 -1.4282  0.6600 -0.3698
 6080TIP3    H239876   0.841   6.182   2.384 -1.6085  0.2549  0.2468
 6081TIP3   OH239877   3.723   3.225   1.428 -0.0404 -0.1772  0.0190
 6081TIP3    H139878   3.752   3.178   1.350 -1.4038 -1.0431 -0.0086
 6081TIP3    H239879   3.796   3.216   1.490  0.7571 -0.1081 -0.8822
 6082TIP3   OH239880   5.553   1.515   7.901  0.3442 -0.0453  0.1675
 6082TIP3    H139881   5.615   1.550   7.837  1.3535  0.0164  1.1436
 6082TIP3    H239882   5.571   1.564   7.982 -0.8196 -0.1937  0.5433
 6083TIP3   OH239883   2.313   3.170   0.965 -0.1965  0.5148  0.1796
 6083TIP3    H139884   2.251   3.104   0.933 -1.7227  1.3857  1.2365
 6083TIP3    H239885   2.285   3.252   0.924  0.8137  0.7899 -0.0115
 6084TIP3   OH239886   0.954   3.725   8.457  0.0034 -0.1502 -0.3113
 6084TIP3    H139887   0.923   3.808   8.422  1.1156  0.2799 -0.3254
 6084TIP3    H239888   0.963   3.740   8.551  1.4021  0.1786 -0.4654
 6085TIP3   OH239889   2.129   1.984   0.300  0.7568  0.0261  0.4911
 6085TIP3    H139890   2.071   2.059   0.282  0.5900 -0.0656  0.6331
 6085TIP3    H239891   2.184   1.976   0.223 -1.8072 -2.1262 -1.2972
 6086TIP3   OH239892   2.659   4.394   1.740 -0.0052  0.1347 -0.0364
 6086TIP3    H139893   2.667   4.475   1.791 -0.9147 -0.5024  1.1809
 6086TIP3    H239894   2.705   4.412   1.658  0.3732  1.6513  0.4810
 6087TIP3   OH239895   5.109   2.179   3.202  0.2811 -0.0496  0.1614
 6087TIP3    H139896   5.041   2.112   3.199  0.3390 -0.1021  0.0108
 6087TIP3    H239897   5.190   2.131   3.220  0.0734  0.1638  1.8599
 6088TIP3   OH239898   4.778   6.710   2.487 -0.4841 -0.2496 -0.5115
 6088TIP3    H139899   4.801   6.735   2.577  1.9357 -1.4704 -0.7010
 6088TIP3    H239900   4.683   6.721   2.483 -0.6968 -0.2588  2.2162
 6089TIP3   OH239901   6.173   4.183   1.208 -0.6762 -0.4357  0.2312
 6089TIP3    H139902   6.231   4.107   1.205 -0.7701 -0.6237  1.9453
 6089TIP3    H239903   6.231   4.256   1.231 -1.1449 -0.7268  2.5392
 6090TIP3   OH239904   1.367   4.032   3.065  0.3178 -0.0905  0.3784
 6090TIP3    H139905   1.450   3.997   3.099  0.3915 -1.1160 -0.8010
 6090TIP3    H239906   1.391   4.117   3.027  0.8273 -0.3529  0.0936
 6091TIP3   OH239907   0.307   3.009   1.201  0.1128  0.0797 -0.6041
 6091TIP3    H139908   0.300   3.036   1.109  0.4689 -1.6827 -1.1896
 6091TIP3    H239909   0.369   2.936   1.199 -1.2840 -1.2069  0.7611
 6092TIP3   OH239910   1.142   6.589   0.807 -0.9297  0.3997 -0.4352
 6092TIP3    H139911   1.216   6.531   0.788  0.6163  1.3572  2.0100
 6092TIP3    H239912   1.080   6.534   0.855 -1.0117 -0.0202 -1.0223
 6093TIP3   OH239913   0.253   3.174   1.724  0.0213 -0.9435  0.4914
 6093TIP3    H139914   0.284   3.129   1.646  0.5309  0.8171 -0.3686
 6093TIP3    H239915   0.174   3.220   1.696  0.6502  0.3513  0.7683
 6094TIP3   OH239916   1.479   3.030   2.771 -0.3811 -0.0389  0.1476
 6094TIP3    H139917   1.403   2.995   2.818 -1.0846  0.0604 -0.8973
 6094TIP3    H239918   1.548   2.967   2.788 -0.6452 -0.0677  1.2230
 6095TIP3   OH239919   2.030   5.866   0.070  0.2382 -0.0541 -0.1538
 6095TIP3    H139920   2.015   5.949   0.115  2.6431 -0.7525  2.2333
 6095TIP3    H239921   1.947   5.820   0.074 -0.2082  0.8595  1.6233
 6096TIP3   OH239922   1.139   0.537   0.391  0.7570 -0.2050 -0.3609
 6096TIP3    H139923   1.131   0.499   0.303  1.8764 -0.8377 -0.2078
 6096TIP3    H239924   1.074   0.489   0.443  0.4362 -0.1704 -0.7212
 6097TIP3   OH239925   1.926   5.289   0.715 -0.0359 -0.2947  0.3756
 6097TIP3    H139926   1.976   5.261   0.638 -1.3430 -0.1451 -0.5637
 6097TIP3    H239927   1.979   5.261   0.790  0.8552 -1.2156 -0.5704
 6098TIP3   OH239928   1.617   3.661   2.688 -0.1169  0.0405 -0.6207
 6098TIP3    H139929   1.612   3.709   2.606  0.3351 -0.5504 -1.0010
 6098TIP3    H239930   1.608   3.728   2.756  0.0324  0.5961 -1.1460
 6099TIP3   OH239931   6.023   5.746   0.697  0.3037  0.1492  0.1486
 6099TIP3    H139932   6.064   5.719   0.614 -1.4605  2.3645 -1.5809
 6099TIP3    H239933   6.050   5.837   0.709  0.8587 -0.2494  2.3015
 6100TIP3   OH239934   3.370   3.892   1.898  0.7403 -0.4522 -0.1017
 6100TIP3    H139935   3.445   3.888   1.957 -0.0654 -0.5434  0.9449
 6100TIP3    H239936   3.321   3.969   1.927  1.5556  0.9691 -2.2131
 6101TIP3   OH239937   5.827   2.165   1.018 -0.1653  0.1117  0.1215
 6101TIP3    H139938   5.798   2.242   1.066 -0.5259  0.2159 -0.2589
 6101TIP3    H239939   5.756   2.146   0.958 -0.0616 -0.4932  0.1793
 6102TIP3   OH239940   4.191   5.297   7.531 -0.3421  0.1462  0.0357
 6102TIP3    H139941   4.114   5.248   7.560 -2.2272  2.1648 -1.2956
 6102TIP3    H239942   4.200   5.274   7.438  1.3377 -0.8213  0.3864
 6103TIP3   OH239943   3.546   0.768   2.193  0.4696  0.5730 -0.2680
 6103TIP3    H139944   3.493   0.829   2.244  0.4918 -0.1500  0.6369
 6103TIP3    H239945   3.505   0.683   2.205  0.4490  0.3869 -1.5087
 6104TIP3   OH239946   5.080   2.742   8.554  0.1294 -0.0891 -0.1670
 6104TIP3    H139947   5.038   2.744   8.468  0.0989 -0.3296 -0.1565
 6104TIP3    H239948   5.156   2.685   8.542 -0.2219 -0.6273  0.1253
 6105TIP3   OH239949   5.674   2.883   8.284  0.0230  0.0925 -0.3614
 6105TIP3    H139950   5.617   2.907   8.210 -0.0219  0.3237 -0.2524
 6105TIP3    H239951   5.621   2.822   8.336  0.2888 -0.5811 -0.8576
 6106TIP3   OH239952   3.159   0.619   1.430 -0.2512 -0.6046  0.5088
 6106TIP3    H139953   3.239   0.623   1.377 -0.8552  2.7634 -0.4418
 6106TIP3    H239954   3.092   0.588   1.369 -0.1947 -0.6385  0.4632
 6107TIP3   OH239955   3.043   4.298   8.531 -0.1537  0.0117 -0.2128
 6107TIP3    H139956   2.980   4.226   8.529  2.4350 -2.5193  1.3076
 6107TIP3    H239957   3.116   4.269   8.477  2.8669 -0.6772  3.7852
 6108TIP3   OH239958   1.513   5.855   8.608  0.1959  0.3187 -0.1998
 6108TIP3    H139959   1.497   5.794   8.536 -0.0607  0.4090 -0.2196
 6108TIP3    H239960   1.462   5.821   8.681 -0.1530  0.6482 -0.2862
 6109TIP3   OH239961   6.372   0.519   8.395 -0.0652  0.2051  0.6780
 6109TIP3    H139962   6.398   0.466   8.319  0.8780 -0.5440  1.5124
 6109TIP3    H239963   6.435   0.497   8.463 -0.2692  1.6643  1.3651
 6110TIP3   OH239964   0.007   5.796   0.278  0.1271  0.1184  0.0510
 6110TIP3    H139965  -0.047   5.810   0.200 -1.1324  0.4832  0.9538
 6110TIP3    H239966   0.095   5.821   0.251 -0.3820  0.7459 -1.0973
 6111TIP3   OH239967   0.120   1.444   1.894 -0.1666 -0.1484 -0.0125
 6111TIP3    H139968   0.084   1.474   1.810  0.0262 -0.3589 -0.1728
 6111TIP3    H239969   0.092   1.510   1.957 -0.6722 -0.2104 -0.1683
 6112TIP3   OH239970   2.101   0.732   8.109  0.6362 -0.0195  0.0407
 6112TIP3    H139971   2.093   0.806   8.050  0.8308 -0.3841 -0.4484
 6112TIP3    H239972   2.088   0.769   8.196 -2.4362  0.0866 -0.3749
 6113TIP3   OH239973   4.452   3.298   8.251 -0.5644  0.2536  0.3610
 6113TIP3    H139974   4.367   3.342   8.244 -0.6408  0.0858  0.2378
 6113TIP3    H239975   4.502   3.353   8.312 -0.8533  0.2059  0.6408
 6114TIP3   OH239976   4.181   5.303   8.164  0.2654  0.4497 -0.1381
 6114TIP3    H139977   4.187   5.383   8.111  0.9618  0.0507 -0.6753
 6114TIP3    H239978   4.265   5.259   8.152  0.2530  0.1044  0.9282
 6115TIP3   OH239979   0.286   1.939   0.505 -0.2039  0.2677  0.4241
 6115TIP3    H139980   0.195   1.959   0.525 -0.2579 -0.3029  0.7522
 6115TIP3    H239981   0.318   2.018   0.461 -0.7052  0.6782  0.7787
 6116TIP3   OH239982   4.844   5.067   7.288 -0.1258 -0.3218 -0.4698
 6116TIP3    H139983   4.935   5.062   7.318 -0.0775  0.8475 -0.3684
 6116TIP3    H239984   4.845   5.021   7.204  0.6581  0.0250 -0.6667
 6117TIP3   OH239985   3.404   5.070   8.587 -0.2192 -0.1592 -0.3521
 6117TIP3    H139986   3.467   5.123   8.538 -0.3603  1.6204  1.2586
 6117TIP3    H239987   3.454   4.993   8.615  0.8427  0.5316 -0.2843
 6118TIP3   OH239988   2.772   3.251   2.171 -0.3873 -0.0721  0.9516
 6118TIP3    H139989   2.741   3.161   2.164  0.2309 -0.2944  1.0789
 6118TIP3    H239990   2.792   3.277   2.081 -1.4672  0.2680  0.7910
 6119TIP3   OH239991   0.506   1.980   1.961  0.2024  0.0231  0.4742
 6119TIP3    H139992   0.424   1.960   1.916  1.6899 -0.4508 -2.1955
 6119TIP3    H239993   0.504   1.925   2.040 -0.4024 -2.8732 -1.4346
 6120TIP3   OH239994   6.842   3.417   0.482 -0.4468 -0.2988 -0.7943
 6120TIP3    H139995   6.788   3.452   0.553  0.4555 -0.4098 -0.0280
 6120TIP3    H239996   6.780   3.369   0.427 -1.6660  2.0827 -1.6626
 6121TIP3   OH239997   1.607   3.958   1.951  0.3337 -0.1972 -0.5410
 6121TIP3    H139998   1.641   3.941   2.039 -1.8950 -2.5677 -0.0058
 6121TIP3    H239999   1.579   3.872   1.919 -0.8401  0.9070 -2.7404
 6122TIP3   OH240000   2.217   1.114   2.267  0.5823 -0.4205  0.1277
 6122TIP3    H140001   2.307   1.107   2.236  0.0891 -0.3701 -1.4018
 6122TIP3    H240002   2.225   1.131   2.361  2.1245 -2.9533  0.5490
 6123TIP3   OH240003   1.054   1.155   1.623  0.2459 -0.0315  0.1706
 6123TIP3    H140004   1.001   1.118   1.694  1.2506  1.2093  1.6629
 6123TIP3    H240005   1.008   1.235   1.599  1.1441  0.8323  1.1849
 6124TIP3   OH240006   6.346   3.200   1.296  0.4042 -0.3198 -0.1538
 6124TIP3    H140007   6.304   3.175   1.378 -0.4322 -1.2045 -0.8305
 6124TIP3    H240008   6.283   3.177   1.228 -0.0925  2.8529 -0.9572
 6125TIP3   OH240009   5.693   2.287   1.493  0.3213 -0.2616  0.0766
 6125TIP3    H140010   5.776   2.294   1.540  1.0700 -2.1103 -0.8743
 6125TIP3    H240011   5.702   2.208   1.439 -2.6026 -1.3667  1.0239
 6126TIP3   OH240012   4.086   4.692   7.499 -0.5966 -0.1486 -0.0361
 6126TIP3    H140013   4.114   4.607   7.467  0.0276 -0.5386  1.4637
 6126TIP3    H240014   3.993   4.698   7.475 -0.4922 -0.9744 -0.6796
 6127TIP3   OH240015   6.158   2.253   1.423 -0.2008 -0.0755 -0.2940
 6127TIP3    H140016   6.237   2.261   1.477 -0.7544 -0.6618  0.6254
 6127TIP3    H240017   6.124   2.166   1.443 -1.4973  0.4595 -0.0960
 6128TIP3   OH240018   3.780   1.576   8.479 -0.3077  0.1421 -0.4623
 6128TIP3    H140019   3.697   1.535   8.504  0.1594 -0.4412  0.1967
 6128TIP3    H240020   3.846   1.512   8.505  0.3913  0.9255 -0.2824
 6129TIP3   OH240021   2.191   2.673   0.977  0.6769  0.4007  0.0904
 6129TIP3    H140022   2.136   2.732   1.028 -0.0427  0.6217 -0.9164
 6129TIP3    H240023   2.212   2.602   1.037 -0.3120  0.5491  0.6315
 6130TIP3   OH240024   4.472   6.855   0.713  0.4813 -0.3167 -0.0262
 6130TIP3    H140025   4.519   6.924   0.760  0.6159 -0.0328 -0.5696
 6130TIP3    H240026   4.380   6.880   0.720  0.4411 -0.6223  0.6361
 6131TIP3   OH240027   6.375   3.377   1.014 -0.9367  0.7351  0.3267
 6131TIP3    H140028   6.463   3.346   1.035 -0.3388  1.5561 -0.8717
 6131TIP3    H240029   6.345   3.420   1.094  0.0839  1.1609  0.5000
 6132TIP3   OH240030   5.971   4.792   1.672  0.1552  0.0726 -0.5225
 6132TIP3    H140031   6.066   4.787   1.679  0.1413 -0.0921 -0.4457
 6132TIP3    H240032   5.955   4.823   1.583  0.2216 -2.5466 -1.5349
 6133TIP3   OH240033   2.807   0.874   2.819  0.1218  0.3134  0.5839
 6133TIP3    H140034   2.715   0.884   2.843  0.4208  2.4205  1.0039
 6133TIP3    H240035   2.852   0.863   2.902  0.3547  0.1618  0.4376
 6134TIP3   OH240036   3.058   5.470   2.390 -0.0450  0.5208 -0.0988
 6134TIP3    H140037   3.121   5.489   2.320  0.5686 -0.8426  0.0618
 6134TIP3    H240038   2.973   5.468   2.345 -0.1118  2.9702 -0.2175
 6135TIP3   OH240039   6.521   2.866   3.365 -0.6807  0.0042 -0.0858
 6135TIP3    H140040   6.498   2.854   3.457 -3.1193  0.0239 -0.6188
 6135TIP3    H240041   6.437   2.875   3.320  0.4792  2.3528 -2.0174
 6136TIP3   OH240042   1.250   1.962   0.583 -0.1158 -0.0859 -0.3724
 6136TIP3    H140043   1.260   1.887   0.524  2.4473 -1.7933  1.9866
 6136TIP3    H240044   1.325   2.018   0.564 -0.7296  0.7233 -0.4820
 6137TIP3   OH240045   2.231   1.446   3.667 -0.3199 -0.1720 -0.0425
 6137TIP3    H140046   2.264   1.463   3.579  1.5140 -0.1901  0.6104
 6137TIP3    H240047   2.254   1.354   3.684  1.8715  0.5831  1.4616
 6138TIP3   OH240048   5.913   4.244   1.153 -0.3729  0.5582  0.1337
 6138TIP3    H140049   5.999   4.211   1.176 -0.5412  0.7147  1.0212
 6138TIP3    H240050   5.865   4.248   1.236 -1.7007 -0.8530 -0.5230
 6139TIP3   OH240051   3.575   4.548   7.919  0.1848 -0.7397 -0.4809
 6139TIP3    H140052   3.592   4.530   8.012  0.9395 -0.9216 -0.6459
 6139TIP3    H240053   3.661   4.572   7.884 -0.2495  0.1605 -0.9498
 6140TIP3   OH240054   4.686   1.937   3.145 -0.5503 -0.4279 -0.5322
 6140TIP3    H140055   4.603   1.911   3.187 -0.3885 -3.7984 -1.9429
 6140TIP3    H240056   4.669   1.925   3.051  0.9759  0.7590 -0.9863
 6141TIP3   OH240057   5.912   0.729   2.107 -0.4950 -0.6712 -0.2427
 6141TIP3    H140058   5.845   0.738   2.038 -0.6235 -0.6404 -0.1138
 6141TIP3    H240059   5.890   0.797   2.171 -1.1944 -1.5726  0.5080
 6142TIP3   OH240060   6.660   3.350   1.571  0.3579  0.3617 -0.5485
 6142TIP3    H140061   6.612   3.269   1.587  1.2445  0.3297  2.6102
 6142TIP3    H240062   6.736   3.344   1.629  0.6774  3.2238 -0.5511
 6143TIP3   OH240063   2.810   1.472   1.346 -0.1471 -0.4943  0.5654
 6143TIP3    H140064   2.728   1.520   1.357  0.0246 -0.0952  0.1292
 6143TIP3    H240065   2.823   1.469   1.251  0.0198 -1.1109  0.6020
 6144TIP3   OH240066   3.602   6.455   1.379 -0.3157  0.0012  0.5110
 6144TIP3    H140067   3.602   6.538   1.331  1.0620 -0.2195  0.0786
 6144TIP3    H240068   3.570   6.478   1.467 -1.3865  0.6975 -0.0440
 6145TIP3   OH240069   6.032   2.090   8.403 -0.1332 -0.4188 -0.0826
 6145TIP3    H140070   6.116   2.097   8.357 -0.0243  0.1427  0.1969
 6145TIP3    H240071   6.036   2.157   8.471 -0.9410 -0.1665 -0.2704
 6146TIP3   OH240072   0.907   2.410   1.712 -0.4730 -0.6845  0.0239
 6146TIP3    H140073   0.995   2.391   1.680 -0.5379 -1.1049  0.0832
 6146TIP3    H240074   0.920   2.462   1.791 -0.2078 -2.0949  0.9619
 6147TIP3   OH240075   1.029   2.722   0.298  0.0290 -0.1908  0.3370
 6147TIP3    H140076   1.050   2.630   0.284 -0.8271 -0.2543 -0.7203
 6147TIP3    H240077   0.978   2.747   0.220 -0.4179  0.9641  0.9666
 6148TIP3   OH240078   1.225   4.729   7.924  0.3545  0.2043 -0.2169
 6148TIP3    H140079   1.166   4.790   7.881 -0.9468 -2.0032 -1.7834
 6148TIP3    H240080   1.312   4.750   7.890 -0.4632 -0.6287 -3.0769
 6149TIP3   OH240081   3.121   3.748   1.192 -0.2158  0.2108  0.3509
 6149TIP3    H140082   3.101   3.711   1.107 -0.9990  1.0111  0.1639
 6149TIP3    H240083   3.216   3.750   1.197 -0.1693 -0.1166 -0.3775
 6150TIP3   OH240084   2.187   4.758   2.809  0.4480 -0.1726 -0.0863
 6150TIP3    H140085   2.173   4.835   2.866 -0.0342 -0.4791  0.2179
 6150TIP3    H240086   2.166   4.683   2.865 -2.6041 -0.4119 -1.3482
 6151TIP3   OH240087   2.588   1.365   1.948  0.3990 -0.5073  0.0524
 6151TIP3    H140088   2.608   1.288   1.895  2.1969 -0.4109  0.5333
 6151TIP3    H240089   2.669   1.415   1.950 -0.7988  1.5563 -0.4413
 6152TIP3   OH240090   3.351   6.103   3.230 -0.2997  0.4704 -0.5422
 6152TIP3    H140091   3.291   6.139   3.164  0.0373  2.6855  0.2627
 6152TIP3    H240092   3.427   6.162   3.227  1.3491 -1.5760 -0.7056
 6153TIP3   OH240093   3.306   0.364   8.284 -0.6441 -0.0101  0.3772
 6153TIP3    H140094   3.267   0.432   8.229  0.6931  1.3335  1.0242
 6153TIP3    H240095   3.237   0.340   8.346 -1.3229  0.3061 -0.2410
 6154TIP3   OH240096   3.543   0.110   0.939  0.0287  0.5524  0.2105
 6154TIP3    H140097   3.553   0.118   1.034  1.9773  2.1745 -0.0711
 6154TIP3    H240098   3.452   0.085   0.926 -0.2699  0.2939  2.5035
 6155TIP3   OH240099   2.046   5.079   1.859 -0.0348  0.0989  0.4079
 6155TIP3    H140100   2.051   5.099   1.766 -4.1232 -2.2215 -0.5419
 6155TIP3    H240101   2.098   4.999   1.869  0.1166  0.1484  0.0365
 6156TIP3   OH240102   5.475   6.514   7.751 -0.6301  0.3516  0.1115
 6156TIP3    H140103   5.452   6.440   7.695 -1.3416  0.7644 -0.1606
 6156TIP3    H240104   5.548   6.556   7.706 -0.2597 -0.1482  0.2388
 6157TIP3   OH240105   3.659   1.274   1.481  0.2405  0.0601  0.2453
 6157TIP3    H140106   3.652   1.359   1.524 -0.1549  1.4372 -2.3214
 6157TIP3    H240107   3.581   1.268   1.427  2.3381  0.2273 -3.0898
 6158TIP3   OH240108   3.239   4.005   0.979  0.6965 -0.4283 -0.6532
 6158TIP3    H140109   3.312   4.066   0.985 -0.1494  0.5940 -0.3898
 6158TIP3    H240110   3.178   4.034   1.047 -0.9592  0.1368 -2.2917
 6159TIP3   OH240111   3.192   0.765   2.112 -0.1225  0.4492  0.0976
 6159TIP3    H140112   3.115   0.714   2.088 -1.1799  1.7221  0.6285
 6159TIP3    H240113   3.194   0.837   2.049  0.2125  0.8323  0.5406
 6160TIP3   OH240114   0.471   0.480   7.520  0.0631  0.4770 -0.8497
 6160TIP3    H140115   0.484   0.529   7.601 -2.2153  0.1590 -0.2308
 6160TIP3    H240116   0.452   0.546   7.454 -1.4536  0.5765 -0.3514
 6161TIP3   OH240117   5.035   1.317   2.095 -0.0158 -0.3082 -0.6412
 6161TIP3    H140118   5.128   1.324   2.074  0.3669  2.0363  1.3646
 6161TIP3    H240119   5.032   1.274   2.180 -0.2169  3.9510  1.7707
 6162TIP3   OH240120   2.662   1.762   2.646  0.0777 -0.0853 -0.0124
 6162TIP3    H140121   2.621   1.837   2.688 -0.6222  0.4133 -1.5338
 6162TIP3    H240122   2.666   1.784   2.553 -0.0218 -1.8585 -0.4848
 6163TIP3   OH240123   1.755   5.157   1.862  0.1916  0.2476  0.0544
 6163TIP3    H140124   1.846   5.142   1.887 -0.3879  1.0434  3.0985
 6163TIP3    H240125   1.759   5.194   1.774  2.9492  1.8787  0.7799
 6164TIP3   OH240126   1.564   0.235   3.546  0.2761  0.1656  0.1073
 6164TIP3    H140127   1.497   0.199   3.487  0.7695  0.3037 -0.5417
 6164TIP3    H240128   1.631   0.271   3.488 -0.1900  2.1476  0.7281
 6165TIP3   OH240129   2.903   6.722   1.574 -0.5870  0.0102 -0.4075
 6165TIP3    H140130   2.834   6.698   1.636 -2.3420  1.9105 -1.4931
 6165TIP3    H240131   2.983   6.684   1.611 -1.6948  0.2310  2.4816
 6166TIP3   OH240132   6.491   3.802   0.053 -0.0858  0.1763  0.2052
 6166TIP3    H140133   6.461   3.712   0.054  0.5784 -0.0437  0.6632
 6166TIP3    H240134   6.586   3.796   0.042  0.0209  0.8014  0.7183
 6167TIP3   OH240135   6.869   3.000   1.047  0.2814 -0.3049 -0.0644
 6167TIP3    H140136   6.851   2.932   1.112  2.5072 -2.5718 -1.6640
 6167TIP3    H240137   6.963   2.995   1.031  0.0024  0.9053 -2.6426
 6168TIP3   OH240138   0.016   3.466   1.773 -0.4286  0.4276  0.2407
 6168TIP3    H140139  -0.020   3.553   1.792 -2.1458 -0.1946 -0.0465
 6168TIP3    H240140  -0.024   3.408   1.837 -0.0600 -0.3320 -0.1989
 6169TIP3   OH240141   2.628   5.591   8.390  0.2930  0.0268 -0.2614
 6169TIP3    H140142   2.683   5.544   8.453 -0.7514 -0.4039  0.3538
 6169TIP3    H240143   2.543   5.598   8.433  0.3802  2.4800 -0.3326
 6170TIP3   OH240144   4.647   0.473   0.533 -0.0985 -0.2248 -0.5191
 6170TIP3    H140145   4.692   0.456   0.616 -2.7208 -2.3421  0.6179
 6170TIP3    H240146   4.610   0.561   0.544  0.6013  0.0159  0.0165
 6171TIP3   OH240147   5.686   6.773   2.127  0.3309  0.6017  0.1877
 6171TIP3    H140148   5.708   6.690   2.171 -1.7072 -0.8426 -1.3152
 6171TIP3    H240149   5.745   6.837   2.166  1.9425 -1.5304  1.4894
 6172TIP3   OH240150   0.920   1.416   8.333 -0.4449  0.0759  0.1358
 6172TIP3    H140151   0.920   1.485   8.267 -0.5659  1.7607  1.8053
 6172TIP3    H240152   0.992   1.438   8.391 -1.1330 -0.6018  1.2980
 6173TIP3   OH240153   0.008   6.511   7.941  0.1608 -0.2001  0.0339
 6173TIP3    H140154  -0.059   6.566   7.982  0.1885  0.6147 -0.9649
 6173TIP3    H240155   0.086   6.527   7.993 -0.1461 -0.2824  0.5268
 6174TIP3   OH240156   2.980   6.532   8.543 -0.5393 -0.3345  0.1236
 6174TIP3    H140157   3.061   6.581   8.524 -1.2653 -0.1381 -2.9674
 6174TIP3    H240158   3.000   6.442   8.517 -0.7934 -0.6819  1.0748
 6175TIP3   OH240159   6.497   0.927   7.968  0.3595  0.5132 -0.2595
 6175TIP3    H140160   6.456   1.014   7.963 -0.7860 -0.0103 -0.1104
 6175TIP3    H240161   6.528   0.911   7.878  1.7342  1.5995 -0.0228
 6176TIP3   OH240162   2.308   0.589   0.366 -0.0076 -0.2550 -0.3826
 6176TIP3    H140163   2.222   0.617   0.334 -1.0873 -2.8664  0.0211
 6176TIP3    H240164   2.341   0.530   0.299  0.8834 -0.3286  0.1015
 6177TIP3   OH240165   3.760   4.463   0.755  0.1062 -0.0214  0.7217
 6177TIP3    H140166   3.667   4.486   0.766  0.0089 -0.5142  0.9757
 6177TIP3    H240167   3.783   4.419   0.837 -0.0633 -1.9418 -0.2140
 6178TIP3   OH240168   5.586   4.772   1.270 -0.7493  0.6941  0.0079
 6178TIP3    H140169   5.540   4.742   1.349 -1.7999  0.6402 -0.6063
 6178TIP3    H240170   5.596   4.866   1.282  1.2699  0.3632  1.2886
 6179TIP3   OH240171   5.166   3.805   2.577 -0.2710  0.5256  0.4313
 6179TIP3    H140172   5.169   3.826   2.670 -1.2158  1.1771  0.3302
 6179TIP3    H240173   5.166   3.890   2.533 -1.4565  0.2865 -0.0862
 6180TIP3   OH240174   4.012   0.029   1.443 -0.1721  0.3726  0.1930
 6180TIP3    H140175   3.942  -0.027   1.409 -1.4980 -0.5227  3.9338
 6180TIP3    H240176   3.969   0.085   1.507  2.0542  2.1204  0.2869
 6181TIP3   OH240177   6.276   6.151   2.502 -0.5372 -0.1194 -0.2859
 6181TIP3    H140178   6.257   6.148   2.595  1.3909  0.9905  0.1943
 6181TIP3    H240179   6.370   6.170   2.497 -1.0109  2.2695 -2.3997
 6182TIP3   OH240180   6.490   3.479   0.315  0.1820  1.1482 -0.2825
 6182TIP3    H140181   6.500   3.501   0.222 -0.9351  0.2539 -0.6444
 6182TIP3    H240182   6.545   3.401   0.326 -0.8206  0.3840 -0.5672
 6183TIP3   OH240183   2.785   4.818   8.199 -0.0163  0.0738 -0.1459
 6183TIP3    H140184   2.880   4.813   8.198 -0.0750 -2.0771  0.1037
 6183TIP3    H240185   2.757   4.760   8.127 -1.1455  1.1072 -0.5870
 6184TIP3   OH240186   3.166   4.701   2.527 -0.0965  0.2525  0.1116
 6184TIP3    H140187   3.187   4.766   2.594 -0.0638 -1.0534  1.4199
 6184TIP3    H240188   3.097   4.741   2.474 -0.1550  1.2865  0.9563
 6185TIP3   OH240189   1.088   4.084   8.099  0.2906 -0.0618  0.2724
 6185TIP3    H140190   1.177   4.119   8.104 -0.0723  0.7128  1.5057
 6185TIP3    H240191   1.073   4.071   8.005  1.8236 -0.5431  0.0668
 6186TIP3   OH240192   1.947   3.167   8.635  0.4831 -0.3278  0.0369
 6186TIP3    H140193   1.947   3.151   8.730  2.0746  0.8671  0.2877
 6186TIP3    H240194   2.024   3.119   8.603 -0.4403 -1.3010 -0.7865
 6187TIP3   OH240195   0.428   1.105   0.693  0.2673  0.1964  0.0944
 6187TIP3    H140196   0.381   1.064   0.621  0.3504 -0.3301  0.3338
 6187TIP3    H240197   0.519   1.109   0.664  0.2641  0.1801  0.0822
 6188TIP3   OH240198   0.005   3.907   1.044  0.2276  0.6524  0.4876
 6188TIP3    H140199  -0.029   3.993   1.017 -3.5741 -0.6454  0.5155
 6188TIP3    H240200   0.008   3.857   0.962 -2.4521 -0.5422  0.9960
 6189TIP3   OH240201   5.561   4.994   2.528  0.4351 -0.3090  0.2703
 6189TIP3    H140202   5.635   4.958   2.479 -0.3266  0.2154 -1.3268
 6189TIP3    H240203   5.581   5.087   2.537 -0.2070 -0.0892 -0.5231
 6190TIP3   OH240204   2.799   2.516   1.626 -0.3837 -0.0488  0.6880
 6190TIP3    H140205   2.842   2.447   1.676  0.7217 -0.6047 -0.9567
 6190TIP3    H240206   2.713   2.526   1.668 -0.8095 -2.8051  0.6831
 6191TIP3   OH240207   0.514   4.834   2.102 -0.3265  0.1853  0.4571
 6191TIP3    H140208   0.475   4.889   2.034 -1.8330 -0.5340  0.6939
 6191TIP3    H240209   0.550   4.759   2.055  1.0873  1.0018  0.2052
 6192TIP3   OH240210   3.734   0.166   0.270  0.1496 -0.2461  0.0937
 6192TIP3    H140211   3.678   0.169   0.347 -0.5451 -1.9603 -0.2880
 6192TIP3    H240212   3.673   0.154   0.197  0.6271  3.0310 -1.0157
 6193TIP3   OH240213   2.994   5.582   0.768  0.1692  0.7526  0.4523
 6193TIP3    H140214   2.928   5.528   0.726  0.4464  0.2534  0.6343
 6193TIP3    H240215   3.030   5.637   0.699 -1.2609  1.9027  0.5829
 6194TIP3   OH240216   5.609   6.238   0.123  0.3234  0.4088 -0.2415
 6194TIP3    H140217   5.656   6.290   0.058 -0.0421  1.2477  0.1471
 6194TIP3    H240218   5.521   6.276   0.124 -1.2434 -2.6910 -2.7808
 6195TIP3   OH240219   4.364   1.005   8.342 -0.4982 -0.1222 -0.0743
 6195TIP3    H140220   4.382   0.924   8.390 -1.5275 -0.8804 -0.9107
 6195TIP3    H240221   4.291   1.045   8.389 -0.0942  0.2423  0.2453
 6196TIP3   OH240222   1.524   0.455   1.184 -0.0866 -0.1990  0.3649
 6196TIP3    H140223   1.449   0.459   1.243 -0.0515  2.0257  0.3400
 6196TIP3    H240224   1.532   0.544   1.149  2.3748 -0.4426  0.1366
 6197TIP3   OH240225   0.668   1.441   2.908 -0.0746  0.0683 -0.4763
 6197TIP3    H140226   0.690   1.464   2.998 -0.5638 -0.1671 -0.2895
 6197TIP3    H240227   0.574   1.460   2.901 -0.1188 -0.2707 -0.8192
 6198TIP3   OH240228   5.938   1.187   1.466 -0.6102 -0.5490 -0.2228
 6198TIP3    H140229   5.849   1.176   1.431 -0.3526 -0.4263 -0.9236
 6198TIP3    H240230   5.993   1.197   1.389 -0.0467 -0.1215  0.2293
 6199TIP3   OH240231   2.719   0.764   2.224  0.0208  0.1537  0.4262
 6199TIP3    H140232   2.630   0.736   2.247  0.0299  0.3773  0.7436
 6199TIP3    H240233   2.762   0.684   2.195 -0.0691 -0.0936  0.9639
 6200TIP3   OH240234   5.099   1.619   2.599  0.4519  0.1272 -0.1131
 6200TIP3    H140235   5.073   1.635   2.508 -1.8879 -1.1673  0.2499
 6200TIP3    H240236   5.040   1.674   2.651  1.8291  0.9253  0.6698
 6201TIP3   OH240237   3.547   6.523   8.430  0.8670  0.1714  0.3698
 6201TIP3    H140238   3.548   6.520   8.334 -1.6474  0.2194  0.2927
 6201TIP3    H240239   3.571   6.613   8.452  0.4916  0.4228 -0.2440
 6202TIP3   OH240240   4.924   4.024   2.493 -0.3106 -0.2405 -0.0736
 6202TIP3    H140241   4.930   3.931   2.470 -0.5760 -0.7692  1.8162
 6202TIP3    H240242   4.951   4.027   2.585  0.2196  1.6394 -0.2705
 6203TIP3   OH240243   6.122   6.757   1.071 -0.6125 -0.0026  0.6660
 6203TIP3    H140244   6.181   6.708   1.128  0.4391 -0.3360 -0.6591
 6203TIP3    H240245   6.176   6.828   1.037 -1.6015  0.9875  1.1128
 6204TIP3   OH240246   1.079   2.622   3.462  0.2345 -0.4986  0.6320
 6204TIP3    H140247   1.082   2.696   3.402 -0.5521  0.5952  1.8658
 6204TIP3    H240248   1.156   2.632   3.518  2.1495 -2.6961 -1.4232
 6205TIP3   OH240249   2.591   1.845   1.831 -0.2710  0.0530 -0.1779
 6205TIP3    H140250   2.624   1.760   1.860  0.4918  0.1408 -0.7800
 6205TIP3    H240251   2.501   1.826   1.801 -0.3985 -0.3798  0.4522
 6206TIP3   OH240252   4.508   4.284   0.910 -0.4053  0.1449  0.1888
 6206TIP3    H140253   4.464   4.267   0.827 -1.8373  1.3962  0.6518
 6206TIP3    H240254   4.465   4.362   0.945  0.8403  0.2354  1.6423
 6207TIP3   OH240255   4.982   5.254   1.497  0.3436 -0.2501  0.1779
 6207TIP3    H140256   4.961   5.179   1.552 -1.0920  0.1822  0.2556
 6207TIP3    H240257   4.993   5.327   1.558 -1.1052  0.1974 -0.0533
 6208TIP3   OH240258   5.766   1.702   7.526 -0.9048 -0.1404  0.4523
 6208TIP3    H140259   5.779   1.792   7.494  1.2328 -0.5897 -0.1297
 6208TIP3    H240260   5.772   1.648   7.448 -3.1528 -0.7813  0.6613
 6209TIP3   OH240261   0.784   3.882   2.511 -0.4606 -0.5015  0.5822
 6209TIP3    H140262   0.725   3.817   2.474  0.7488 -1.5248  0.3626
 6209TIP3    H240263   0.871   3.856   2.479 -0.0682  1.9411 -0.5119
 6210TIP3   OH240264   2.921   4.628   2.042  0.0578 -0.7029  0.3307
 6210TIP3    H140265   2.997   4.673   2.005 -1.0490 -0.4935 -1.8139
 6210TIP3    H240266   2.849   4.647   1.982 -1.6812 -1.0561  2.1914
 6211TIP3   OH240267   0.458   5.518   0.151  0.5351  0.3646 -0.0747
 6211TIP3    H140268   0.377   5.501   0.199 -0.8959 -0.2622 -2.4983
 6211TIP3    H240269   0.500   5.432   0.145 -1.6992 -0.7081 -3.7913
 6212TIP3   OH240270   5.958   2.046   7.418  0.1176  0.0452 -0.1571
 6212TIP3    H140271   5.931   2.124   7.369 -1.6332  0.7371  1.7140
 6212TIP3    H240272   5.880   1.991   7.419 -0.2573  0.4804  2.4889
 6213TIP3   OH240273   0.216   5.350   1.034 -0.1902 -0.2811  0.1219
 6213TIP3    H140274   0.148   5.305   0.984  1.7056 -4.2460  0.6912
 6213TIP3    H240275   0.291   5.353   0.975  0.2734  0.6165  0.7310
 6214TIP3   OH240276   4.990   4.230   7.771  0.5394  0.2023  0.6902
 6214TIP3    H140277   4.939   4.243   7.851 -0.6348 -1.5176  0.2781
 6214TIP3    H240278   4.990   4.135   7.758  0.9111  0.4233 -1.2113
 6215TIP3   OH240279   1.662   3.725   0.292 -0.1504 -0.3974 -0.3875
 6215TIP3    H140280   1.606   3.798   0.264 -0.7556 -1.0925 -1.0026
 6215TIP3    H240281   1.745   3.739   0.246  0.3769  0.8647  0.8365
 6216TIP3   OH240282   1.474   5.461   2.065  0.0064  0.0905 -0.1408
 6216TIP3    H140283   1.410   5.421   2.123  2.2354 -1.9115  1.1192
 6216TIP3    H240284   1.499   5.543   2.109 -2.7122  1.7777 -1.4602
 6217TIP3   OH240285   0.271   0.706   0.757 -0.2754  0.2108 -0.4668
 6217TIP3    H140286   0.333   0.780   0.758 -0.7628  0.7441 -2.9672
 6217TIP3    H240287   0.324   0.631   0.783  0.9348  1.0014 -0.5444
 6218TIP3   OH240288   5.547   2.091   0.957 -0.1193 -0.5329  0.0929
 6218TIP3    H140289   5.584   2.042   0.883 -0.4514 -2.8743  1.3847
 6218TIP3    H240290   5.465   2.047   0.977 -1.3692  1.7252  0.2212
 6219TIP3   OH240291   5.257   1.947   3.239 -0.3585 -0.1259  0.0201
 6219TIP3    H140292   5.249   1.852   3.227  1.9977 -0.2411 -1.1308
 6219TIP3    H240293   5.314   1.957   3.315 -1.7190  0.4332  1.0055
 6220TIP3   OH240294   6.299   6.656   1.240  0.5883  0.2414  0.5023
 6220TIP3    H140295   6.329   6.746   1.255 -1.2945  1.0963 -0.4352
 6220TIP3    H240296   6.277   6.624   1.328  4.0117 -0.4424  1.2188
 6221TIP3   OH240297   2.765   4.239   8.350  0.0308 -0.3790 -0.2014
 6221TIP3    H140298   2.838   4.208   8.297  3.2932  2.3156  2.2197
 6221TIP3    H240299   2.757   4.174   8.420  0.3995 -0.5059 -0.2755
 6222TIP3   OH240300   0.671   3.742   0.910 -0.5011  0.5413 -0.3828
 6222TIP3    H140301   0.744   3.746   0.848 -0.6480 -0.7293 -0.6561
 6222TIP3    H240302   0.691   3.668   0.966 -1.0725  0.8239  0.2089
 6223TIP3   OH240303   0.205   2.922   2.322  0.3993  0.4169 -0.0314
 6223TIP3    H140304   0.287   2.879   2.298  0.1295  0.1291 -0.4450
 6223TIP3    H240305   0.161   2.858   2.379  0.3640  0.4854  0.0185
 6224TIP3   OH240306   6.334   2.195   0.387  0.0352  0.3477  0.2933
 6224TIP3    H140307   6.354   2.130   0.319  0.9591  1.1873 -0.2767
 6224TIP3    H240308   6.353   2.151   0.469 -0.3763 -0.4439 -0.0285
 6225TIP3   OH240309   4.395   1.635   7.793 -0.6301  0.0627  0.3995
 6225TIP3    H140310   4.399   1.567   7.860 -1.0450  0.8160  1.2084
 6225TIP3    H240311   4.306   1.628   7.758  0.2559 -1.8335 -1.7276
 6226TIP3   OH240312   3.003   1.975   1.901 -0.1532 -0.2985 -0.2341
 6226TIP3    H140313   2.932   1.969   1.965  0.9645 -1.4860  0.9750
 6226TIP3    H240314   3.038   2.064   1.912  0.4725 -0.7062  1.3720
 6227TIP3   OH240315   5.065   2.756   1.194 -0.4171  0.6352  0.4084
 6227TIP3    H140316   4.991   2.701   1.169  1.2530 -2.4756  1.8461
 6227TIP3    H240317   5.042   2.791   1.280 -1.6369  2.7006 -0.6605
 6228TIP3   OH240318   4.101   4.139   0.151  0.5188 -0.1706 -0.3496
 6228TIP3    H140319   4.138   4.142   0.239 -0.8363 -0.1075  0.2441
 6228TIP3    H240320   4.142   4.212   0.105  0.1446  0.7384  0.7027
 6229TIP3   OH240321   4.921   3.640   2.942 -0.0320 -0.0644  0.3343
 6229TIP3    H140322   4.959   3.566   2.894 -0.9186 -0.8585  0.8100
 6229TIP3    H240323   4.995   3.681   2.985  0.6556  0.1055 -0.9461
 6230TIP3   OH240324   3.284   3.379   1.553 -0.1343 -0.2751 -0.3282
 6230TIP3    H140325   3.361   3.429   1.578  0.0244 -0.0266 -1.2786
 6230TIP3    H240326   3.291   3.369   1.458 -2.1413  1.2572 -0.7198
 6231TIP3   OH240327   4.659   6.278   7.402  0.6232  0.2923  0.3321
 6231TIP3    H140328   4.707   6.219   7.345 -0.4408  0.5884 -0.9214
 6231TIP3    H240329   4.686   6.366   7.374  3.3264  0.5283  3.1426
 6232TIP3   OH240330   2.175   3.253   2.150 -0.0947  0.3372  0.3618
 6232TIP3    H140331   2.161   3.253   2.245  1.3126 -0.4586  0.6083
 6232TIP3    H240332   2.190   3.161   2.128 -0.5206  0.5040 -0.6551
 6233TIP3   OH240333   1.854   5.104   8.528 -0.7365 -0.4149 -0.5817
 6233TIP3    H140334   1.929   5.162   8.514 -0.8145  0.3320  1.6630
 6233TIP3    H240335   1.778   5.160   8.514 -0.8236 -0.3455  0.1193
 6234TIP3   OH240336   2.240   6.010   8.160  0.1848 -0.1822 -0.2305
 6234TIP3    H140337   2.193   6.093   8.148  1.1959  0.4418 -0.0320
 6234TIP3    H240338   2.332   6.036   8.171  0.4172 -1.2863  0.5991
 6235TIP3   OH240339   1.777   1.615   1.737 -0.4113 -0.4005 -0.1205
 6235TIP3    H140340   1.776   1.521   1.717 -1.1489 -0.8194  1.7048
 6235TIP3    H240341   1.742   1.656   1.658  1.9750 -1.4022 -1.8444
 6236TIP3   OH240342   2.847   0.099   3.073 -0.0796 -0.0406  0.5396
 6236TIP3    H140343   2.848   0.190   3.101  0.9238  0.0587  0.2256
 6236TIP3    H240344   2.894   0.052   3.141  0.7421 -0.0777 -0.0324
 6237TIP3   OH240345   2.273   3.444   2.860 -0.5825 -0.1797  0.1245
 6237TIP3    H140346   2.331   3.405   2.794  0.1496  0.6106  0.2788
 6237TIP3    H240347   2.322   3.519   2.893 -2.3569  1.5242 -0.9083
 6238TIP3   OH240348   3.644   5.108   8.441 -0.0914 -0.7170  0.2952
 6238TIP3    H140349   3.716   5.073   8.495  0.1799 -1.4774 -0.5255
 6238TIP3    H240350   3.634   5.043   8.371  0.3263  0.7688 -1.2137
 6239TIP3   OH240351   0.480   0.683   7.338  0.0450 -0.5875 -0.1260
 6239TIP3    H140352   0.450   0.713   7.253 -1.4395 -2.6512 -0.3857
 6239TIP3    H240353   0.574   0.667   7.326  0.4929  1.9078 -0.4900
 6240TIP3   OH240354   0.011   1.890   7.681 -0.4246 -0.1443  0.0280
 6240TIP3    H140355  -0.010   1.856   7.594  0.4952  1.9801 -1.0808
 6240TIP3    H240356   0.106   1.879   7.688 -0.2921  0.9847  0.1526
 6241TIP3   OH240357   0.406   2.182   2.904 -0.5193  0.1873  0.5820
 6241TIP3    H140358   0.354   2.251   2.946  0.2791  0.5059  1.0709
 6241TIP3    H240359   0.490   2.224   2.884 -0.0769 -0.5944  0.7522
 6242TIP3   OH240360   0.904   6.148   0.716 -0.3156  0.0324 -0.1545
 6242TIP3    H140361   0.847   6.172   0.642  0.9177  0.1003 -1.1169
 6242TIP3    H240362   0.859   6.076   0.759 -1.8271  1.0161 -0.0069
 6243TIP3   OH240363   5.102   4.445   0.420  0.6319 -0.5520  0.3493
 6243TIP3    H140364   5.026   4.396   0.450 -0.5260  0.6359 -0.4685
 6243TIP3    H240365   5.064   4.517   0.369  2.3486 -0.4163 -0.8093
 6244TIP3   OH240366   3.838   1.780   8.658 -0.2741  0.2181  0.7388
 6244TIP3    H140367   3.743   1.783   8.673 -0.3444  0.2625  0.3154
 6244TIP3    H240368   3.847   1.732   8.576  0.0737  0.1920  0.7921
 6245TIP3   OH240369   4.010   4.538   0.279 -0.0604  0.1462  0.1430
 6245TIP3    H140370   3.985   4.594   0.205  0.9230  1.6186  0.8565
 6245TIP3    H240371   3.927   4.505   0.313 -0.4795 -3.2691 -3.4743
 6246TIP3   OH240372   6.712   2.811   1.878  0.4467 -0.0360  0.3681
 6246TIP3    H140373   6.641   2.791   1.817  1.6869  1.0128 -1.5380
 6246TIP3    H240374   6.668   2.853   1.952 -0.9938  0.0128 -0.4646
 6247TIP3   OH240375   0.280   6.084   0.130  0.1449 -0.3216  0.0328
 6247TIP3    H140376   0.270   6.131   0.213  2.0898  0.3833 -0.0773
 6247TIP3    H240377   0.251   5.995   0.150 -0.8362  0.1997  1.0458
 6248TIP3   OH240378   4.347   4.758   0.649 -0.3900 -0.2529 -0.1846
 6248TIP3    H140379   4.402   4.835   0.633  0.1557 -0.4489  0.6541
 6248TIP3    H240380   4.278   4.763   0.583  0.2960  0.3291 -0.8809
 6249TIP3   OH240381   1.010   2.769   1.889  0.1724 -0.1384 -1.1377
 6249TIP3    H140382   1.071   2.839   1.866 -0.0392  0.2086 -0.6459
 6249TIP3    H240383   0.945   2.770   1.819 -0.7537  1.2496 -0.2996
 6250TIP3   OH240384   4.706   0.249   6.806  0.2881  0.4170  0.3766
 6250TIP3    H140385   4.709   0.155   6.820  0.6672  0.2728 -0.5651
 6250TIP3    H240386   4.798   0.275   6.794  0.2678  1.0520  1.4623
 6251TIP3   OH240387   0.792   3.158   1.580  0.7327  0.3256  0.2196
 6251TIP3    H140388   0.709   3.151   1.533  1.2340  1.3799 -0.8735
 6251TIP3    H240389   0.853   3.105   1.529  0.7429 -0.4906  1.0495
 6252TIP3   OH240390   1.988   0.898   0.930 -0.0328 -0.0119 -0.3811
 6252TIP3    H140391   1.928   0.839   0.885  0.1930 -0.6199  0.1000
 6252TIP3    H240392   2.038   0.841   0.989 -2.4887  1.1114  3.0660
 6253TIP3   OH240393   5.450   5.217   1.740 -0.0537 -0.2211 -0.5177
 6253TIP3    H140394   5.478   5.235   1.829  2.0420  1.3254 -1.3960
 6253TIP3    H240395   5.452   5.122   1.733  0.4430 -0.3331  0.8845
 6254TIP3   OH240396   1.940   2.230   1.033 -0.2193  0.2208  0.3611
 6254TIP3    H140397   1.949   2.321   1.060  0.8121  0.2413 -0.0120
 6254TIP3    H240398   2.016   2.213   0.977 -0.8056 -0.6419 -0.2163
 6255TIP3   OH240399   2.119   4.134   1.949  0.0988 -0.3857 -0.2256
 6255TIP3    H140400   2.035   4.176   1.969  0.4612  0.3043 -0.1188
 6255TIP3    H240401   2.154   4.184   1.875  0.2094 -0.9567 -0.5662
 6256TIP3   OH240402   5.514   1.217   7.013  0.9208 -0.0610 -0.0135
 6256TIP3    H140403   5.511   1.122   7.025 -0.8395 -0.0122  0.1629
 6256TIP3    H240404   5.427   1.240   6.981  1.6419  1.3838 -1.0405
 6257TIP3   OH240405   0.829   2.380   0.554 -0.1128  0.0652  0.4682
 6257TIP3    H140406   0.914   2.342   0.575 -0.4872 -0.9382  0.2190
 6257TIP3    H240407   0.789   2.399   0.639  0.2972  0.4089  0.5866
 6258TIP3   OH240408   2.886   2.283   1.748  0.1042  0.3608  0.0071
 6258TIP3    H140409   2.814   2.221   1.735 -1.1369  1.7554 -0.0025
 6258TIP3    H240410   2.906   2.277   1.842  0.3189 -0.3620 -0.0735
 6259TIP3   OH240411   0.382   5.877   3.169 -0.0607 -0.4697 -0.4305
 6259TIP3    H140412   0.448   5.809   3.159 -1.4241 -2.0236  0.6940
 6259TIP3    H240413   0.343   5.861   3.255  0.6443  2.7419  0.6638
 6260TIP3   OH240414   5.788   1.996   7.718 -0.4606 -0.0313 -0.4776
 6260TIP3    H140415   5.743   1.988   7.803 -0.2255 -0.0180 -0.3508
 6260TIP3    H240416   5.767   2.085   7.688  0.1900  0.2903 -0.0075
 6261TIP3   OH240417   1.323   5.791   2.962 -0.0093 -0.4599 -0.2157
 6261TIP3    H140418   1.268   5.755   2.893  0.2720 -1.0487 -0.1384
 6261TIP3    H240419   1.330   5.720   3.026 -0.0628 -0.0101  0.3013
 6262TIP3   OH240420   3.050   4.544   8.377 -0.1220  0.1967 -0.5820
 6262TIP3    H140421   3.049   4.499   8.293 -0.4729 -0.2920 -0.3286
 6262TIP3    H240422   3.027   4.475   8.440  0.1360  0.5577 -0.0922
 6263TIP3   OH240423   2.005   5.942   2.864 -0.4184  0.2007 -0.1937
 6263TIP3    H140424   2.071   5.901   2.808 -0.2584  0.9372 -0.5567
 6263TIP3    H240425   2.055   5.979   2.937 -0.8156 -2.5065  1.5616
 6264TIP3   OH240426   0.272   0.050   0.526  0.6825  0.0797 -0.0958
 6264TIP3    H140427   0.307  -0.039   0.517  0.4500 -0.1280  0.8644
 6264TIP3    H240428   0.182   0.037   0.555  0.5729  0.6258 -0.1912
 6265TIP3   OH240429   6.065   5.701   2.712  0.5329  0.0617  0.3354
 6265TIP3    H140430   6.019   5.681   2.793 -0.7288  0.3161 -0.2882
 6265TIP3    H240431   6.003   5.678   2.643  1.6535 -0.3519 -0.5771
 6266TIP3   OH240432   3.760   4.488   0.441 -0.1848  0.8243 -0.0354
 6266TIP3    H140433   3.790   4.463   0.528  0.4811  1.8508  0.0498
 6266TIP3    H240434   3.678   4.439   0.428  1.5501 -2.2269 -0.3667
 6267TIP3   OH240435   1.554   6.820   1.002  0.1290  0.0373 -0.4020
 6267TIP3    H140436   1.538   6.865   1.085  2.4404 -1.2975  0.8601
 6267TIP3    H240437   1.475   6.768   0.989  0.2534 -0.8204  1.7563
 6268TIP3   OH240438   5.646   0.404   8.606 -0.6205 -0.3152 -0.2793
 6268TIP3    H140439   5.589   0.444   8.672 -1.5570  1.2565 -1.9621
 6268TIP3    H240440   5.676   0.323   8.647 -0.8259  0.7745  2.2341
 6269TIP3   OH240441   1.084   4.051   3.092  0.1341 -0.1562  0.1433
 6269TIP3    H140442   1.059   3.980   3.034  0.5576 -2.7481  2.8999
 6269TIP3    H240443   1.179   4.058   3.081 -0.0398  0.9814 -1.0384
 6270TIP3   OH240444   3.048   1.324   1.429 -0.0688  0.8492 -0.4194
 6270TIP3    H140445   2.953   1.317   1.417 -0.0329  0.3100 -0.3960
 6270TIP3    H240446   3.084   1.314   1.341  0.0675 -0.9043 -0.2065
 6271TIP3   OH240447   1.615   5.136   7.812  0.2543  0.2128  0.4133
 6271TIP3    H140448   1.661   5.053   7.821  0.0405 -0.0095 -0.4585
 6271TIP3    H240449   1.624   5.158   7.720 -1.1207  0.3241  0.2908
 6272TIP3   OH240450   3.158   4.419   1.446 -0.3027 -0.1122 -0.2513
 6272TIP3    H140451   3.191   4.356   1.382 -0.9185  0.5059 -1.2085
 6272TIP3    H240452   3.236   4.456   1.486  0.0697 -1.5442  0.4065
 6273TIP3   OH240453   2.396   3.733   2.136 -0.2163 -0.0869 -0.6409
 6273TIP3    H140454   2.382   3.828   2.136 -1.2902 -0.2058  0.8032
 6273TIP3    H240455   2.371   3.706   2.047  0.3040  0.9858 -1.1422
 6274TIP3   OH240456   1.100   0.784   0.284 -0.0066  0.1662  0.2231
 6274TIP3    H140457   1.132   0.718   0.345  0.5597  1.2844  1.1695
 6274TIP3    H240458   1.007   0.764   0.272  0.0539 -0.5108  0.8687
 6275TIP3   OH240459   4.645   0.673   7.113 -0.0297 -0.2678 -0.6121
 6275TIP3    H140460   4.739   0.657   7.109  0.3747  1.8985 -1.2007
 6275TIP3    H240461   4.615   0.663   7.023 -0.1869 -0.1197 -0.5784
 6276TIP3   OH240462   3.937   1.745   2.435  0.4559  0.7464 -0.6229
 6276TIP3    H140463   3.938   1.726   2.529 -0.4545  2.8491 -0.1354
 6276TIP3    H240464   4.029   1.754   2.412  0.6563  1.9290  0.4926
 6277TIP3   OH240465   6.699   1.647   0.743 -0.1636 -0.0314  0.1813
 6277TIP3    H140466   6.722   1.665   0.652  2.1358  0.3675  0.7619
 6277TIP3    H240467   6.681   1.553   0.745 -2.0044  0.2425 -0.9606
 6278TIP3   OH240468   5.141   5.828   2.924  0.3101  0.0692 -0.7826
 6278TIP3    H140469   5.075   5.758   2.927  0.5451 -0.1538 -0.7187
 6278TIP3    H240470   5.101   5.901   2.972  0.6878 -0.5768  0.5931
 6279TIP3   OH240471   4.865   6.716   2.758  0.5180  0.6089 -0.0953
 6279TIP3    H140472   4.792   6.660   2.784 -0.2306  0.9661 -1.3191
 6279TIP3    H240473   4.927   6.657   2.715  1.2831  0.1927  1.5311
 6280TIP3   OH240474   2.403   6.078   2.744 -0.7273 -0.3294 -0.3723
 6280TIP3    H140475   2.479   6.020   2.736  0.0050  0.5489 -0.0479
 6280TIP3    H240476   2.352   6.062   2.665  0.7604  0.3891 -1.5340
 6281TIP3   OH240477   2.484   2.163   7.212 -0.0621  0.0230  0.1439
 6281TIP3    H140478   2.497   2.220   7.287  0.0701  2.0548 -1.3296
 6281TIP3    H240479   2.572   2.145   7.179 -0.1870  0.4830 -0.4570
 6282TIP3   OH240480   3.983   3.805   7.299  0.2721 -0.1687  0.0692
 6282TIP3    H140481   4.040   3.881   7.307  0.3092 -0.0643 -0.9982
 6282TIP3    H240482   3.910   3.824   7.357  1.6890 -0.6892  2.1179
 6283TIP3   OH240483   4.461   4.773   1.231 -0.2237  0.3507  0.1623
 6283TIP3    H140484   4.398   4.712   1.191 -0.8642 -0.0070  1.6472
 6283TIP3    H240485   4.418   4.802   1.312  1.8065 -0.4715  1.6302
 6284TIP3   OH240486   6.635   3.620   7.389  0.4307  0.2450 -1.1607
 6284TIP3    H140487   6.663   3.598   7.300  2.7007  1.0746 -0.7090
 6284TIP3    H240488   6.716   3.643   7.435 -0.5135 -1.1828  1.4400
 6285TIP3   OH240489   5.215   2.779   0.917  0.0236 -0.0756  0.0349
 6285TIP3    H140490   5.202   2.794   1.010 -1.9915 -2.2439  0.1730
 6285TIP3    H240491   5.246   2.864   0.884 -3.2119  2.0738  1.9584
 6286TIP3   OH240492   1.672   0.212   8.386 -0.0283  0.1273 -0.4673
 6286TIP3    H140493   1.751   0.161   8.403 -0.1196  0.2849  0.4785
 6286TIP3    H240494   1.668   0.275   8.458  0.3552  1.8251 -1.8665
 6287TIP3   OH240495   2.996   2.380   0.111  0.3504  0.3530  0.2328
 6287TIP3    H140496   2.917   2.327   0.122  1.1114 -0.5657  1.5923
 6287TIP3    H240497   2.996   2.405   0.019 -0.4882 -1.3302 -0.2694
 6288TIP3   OH240498   5.891   2.957   8.111  0.1351  0.0688 -0.3220
 6288TIP3    H140499   5.936   3.010   8.176  0.6957  1.1039 -1.5116
 6288TIP3    H240500   5.809   2.931   8.154  0.9287 -0.1295  1.1365
 6289TIP3   OH240501   6.290   1.272   1.172 -0.8469  0.3552 -0.6137
 6289TIP3    H140502   6.348   1.299   1.243 -2.3144  2.0565 -0.0084
 6289TIP3    H240503   6.335   1.300   1.093 -0.5153  1.0491 -0.1904
 6290TIP3   OH240504   2.137   1.461   0.120  0.2224  0.2895  0.0296
 6290TIP3    H140505   2.166   1.385   0.070 -0.7634  0.8536 -1.4419
 6290TIP3    H240506   2.202   1.468   0.191  1.5403 -0.6574 -1.0192
 6291TIP3   OH240507   6.000   4.948   0.060 -0.1047 -0.3762 -0.6858
 6291TIP3    H140508   6.090   4.917   0.067  0.6988  1.6865 -1.3230
 6291TIP3    H240509   5.953   4.897   0.126  1.8244 -0.4624  0.7238
 6292TIP3   OH240510   2.140   2.698   2.699 -0.0744 -0.1818 -0.1235
 6292TIP3    H140511   2.153   2.637   2.772  1.0300 -0.4755 -0.5401
 6292TIP3    H240512   2.225   2.743   2.691 -0.4785  0.5030 -0.6424
 6293TIP3   OH240513   5.986   1.441   0.541 -0.2286  0.1401 -0.6757
 6293TIP3    H140514   5.921   1.432   0.471 -1.9743  0.0127  0.9033
 6293TIP3    H240515   5.949   1.393   0.615  2.7183 -1.9059 -0.3581
 6294TIP3   OH240516   4.685   1.112   0.338  0.1234  0.1540  0.0362
 6294TIP3    H140517   4.725   1.054   0.273  1.5324  1.5693 -0.4230
 6294TIP3    H240518   4.591   1.094   0.331  0.5156 -2.6817  0.5571
 6295TIP3   OH240519   4.962   1.008   0.940 -0.1284  0.4611  0.5423
 6295TIP3    H140520   4.933   0.921   0.968 -0.8587  0.8651  1.1041
 6295TIP3    H240521   4.915   1.068   0.998  0.1129  1.2436 -0.0545
 6296TIP3   OH240522   3.876   6.717   2.501  0.7646  0.3605  0.2947
 6296TIP3    H140523   3.940   6.784   2.524  1.1742 -0.4125  1.4771
 6296TIP3    H240524   3.806   6.766   2.456  0.5301  1.7733  2.0644
 6297TIP3   OH240525   2.891   4.366   2.103 -0.5283 -0.1347  0.5445
 6297TIP3    H140526   2.910   4.352   2.196  1.7610  1.7040  0.4327
 6297TIP3    H240527   2.911   4.458   2.088 -2.9168  0.1727 -1.3677
 6298TIP3   OH240528   1.504   2.403   8.548  0.0775 -0.3887 -0.2913
 6298TIP3    H140529   1.558   2.466   8.502 -0.7554  0.2602 -0.3968
 6298TIP3    H240530   1.499   2.327   8.489 -1.4739  0.6583 -1.5879
 6299TIP3   OH240531   4.140   1.221   3.140 -0.7306  0.1395  0.2567
 6299TIP3    H140532   4.083   1.298   3.141  0.1329  0.7832  0.7499
 6299TIP3    H240533   4.099   1.160   3.201 -0.4493  0.9288  1.2515
 6300TIP3   OH240534   4.627   3.350   1.740 -0.0635  0.4295  0.4631
 6300TIP3    H140535   4.542   3.356   1.784 -0.8500 -1.4029 -0.6835
 6300TIP3    H240536   4.668   3.435   1.754 -1.8713  1.1739  1.4845
 6301TIP3   OH240537   3.489   2.791   7.846 -0.0071  0.2645  0.1350
 6301TIP3    H140538   3.516   2.864   7.902 -0.6457  0.7907 -0.2294
 6301TIP3    H240539   3.497   2.826   7.757 -0.0142 -0.2205 -0.0555
 6302TIP3   OH240540   5.999   6.054   0.478  0.1209  0.3312 -0.1225
 6302TIP3    H140541   6.094   6.041   0.479  0.1169  0.0559 -1.3727
 6302TIP3    H240542   5.981   6.102   0.558  1.1202 -0.8844  0.8782
 6303TIP3   OH240543   1.392   5.483   1.807  0.0525  0.5520 -1.0117
 6303TIP3    H140544   1.436   5.458   1.888 -0.3002 -0.6413 -1.1562
 6303TIP3    H240545   1.435   5.563   1.778 -0.1277  1.2639  0.5991
 6304TIP3   OH240546   4.664   6.262   7.089 -0.0228  0.0549 -0.2932
 6304TIP3    H140547   4.706   6.263   7.003 -0.8228  1.0927 -0.6938
 6304TIP3    H240548   4.710   6.194   7.138  0.7732 -0.2048 -1.3770
 6305TIP3   OH240549   1.249   2.972   1.580 -0.4105  0.4182 -0.0736
 6305TIP3    H140550   1.247   3.060   1.543 -1.7982  0.4433 -0.0082
 6305TIP3    H240551   1.194   2.978   1.659 -1.1766 -0.6640 -0.5014
 6306TIP3   OH240552   6.006   6.679   8.296 -0.0597 -0.1479  0.4138
 6306TIP3    H140553   6.036   6.716   8.379 -0.1492  1.8628 -0.3964
 6306TIP3    H240554   5.927   6.630   8.318  0.2423 -0.1298  1.5900
 6307TIP3   OH240555   4.887   6.511   3.008 -0.3345 -0.1209 -0.1411
 6307TIP3    H140556   4.816   6.539   2.951 -2.0722 -2.1289  0.8694
 6307TIP3    H240557   4.872   6.558   3.090 -0.4481 -0.4416  0.0265
 6308TIP3   OH240558   6.174   4.322   0.947  0.6176 -0.2944  0.5681
 6308TIP3    H140559   6.133   4.408   0.955  0.9948 -0.2147  1.8307
 6308TIP3    H240560   6.138   4.271   1.019  1.6132 -0.6725  0.8188
 6309TIP3   OH240561   4.350   4.877   1.872  0.1526  0.6741 -0.0095
 6309TIP3    H140562   4.341   4.941   1.801 -0.8169  0.7106  0.1337
 6309TIP3    H240563   4.322   4.794   1.833  1.0859  0.3862 -0.0971
 6310TIP3   OH240564   1.297   1.890   2.312  0.3398  0.6101 -0.5010
 6310TIP3    H140565   1.257   1.826   2.254 -0.6314 -0.9081  1.6950
 6310TIP3    H240566   1.248   1.971   2.296 -1.4645 -0.3677 -0.2460
 6311TIP3   OH240567   5.321   2.355   1.348  0.0427  0.0708  0.2545
 6311TIP3    H140568   5.309   2.419   1.279 -0.7380  0.7421  0.9848
 6311TIP3    H240569   5.398   2.305   1.322 -0.0295  0.5381 -0.9071
 6312TIP3   OH240570   1.381   5.014   7.658 -0.3838  0.0053  0.6178
 6312TIP3    H140571   1.453   5.068   7.625 -1.1189  2.2320  2.3466
 6312TIP3    H240572   1.424   4.941   7.703  0.8156  1.1760  1.4315
 6313TIP3   OH240573   4.664   3.175   8.134 -0.5608  0.3745  0.0674
 6313TIP3    H140574   4.612   3.207   8.209 -0.3068  1.0279 -0.0307
 6313TIP3    H240575   4.639   3.083   8.126 -0.0878  0.1123  1.3812
 6314TIP3   OH240576   6.545   5.467   2.860 -0.0064 -0.4988  0.5423
 6314TIP3    H140577   6.499   5.419   2.929  0.1713  0.0982  1.0739
 6314TIP3    H240578   6.475   5.503   2.805 -0.2524 -3.9367 -1.7685
 6315TIP3   OH240579   0.325   0.981   3.222 -0.2083 -0.2711 -0.6134
 6315TIP3    H140580   0.277   1.054   3.260 -1.1597  0.0008 -2.2424
 6315TIP3    H240581   0.417   1.005   3.233 -0.5019  1.0195 -0.8031
 6316TIP3   OH240582   1.819   3.434   0.295 -0.0653 -0.0567  0.6523
 6316TIP3    H140583   1.763   3.476   0.361  2.2959 -0.1432  2.8491
 6316TIP3    H240584   1.857   3.359   0.339  0.3869 -1.0953 -1.3678
 6317TIP3   OH240585   1.539   0.824   1.396 -0.2332 -0.1509 -0.6826
 6317TIP3    H140586   1.487   0.761   1.347 -3.1594  1.3106  0.2606
 6317TIP3    H240587   1.599   0.861   1.332  0.7639 -2.9907 -1.4996
 6318TIP3   OH240588   5.386   6.629   3.405  0.2247  0.3409  0.6475
 6318TIP3    H140589   5.438   6.608   3.327 -0.4015 -0.1047  0.3401
 6318TIP3    H240590   5.444   6.608   3.478 -0.0865 -1.8474  0.3496
 6319TIP3   OH240591   2.922   3.862   1.836 -0.4993  0.1468  0.2742
 6319TIP3    H140592   2.992   3.895   1.780  0.6415 -1.5125  0.6645
 6319TIP3    H240593   2.968   3.820   1.909 -1.9246 -0.2663  0.9629
 6320TIP3   OH240594   6.356   5.341   3.045 -0.0072 -0.1162 -0.2780
 6320TIP3    H140595   6.358   5.331   3.141 -0.8217 -1.8839 -0.3999
 6320TIP3    H240596   6.282   5.399   3.029  0.5764  0.7793  0.1828
 6321TIP3   OH240597   0.435   4.012   8.371 -0.0675 -0.2568  0.8110
 6321TIP3    H140598   0.410   4.104   8.381 -1.6968 -0.1963 -2.6617
 6321TIP3    H240599   0.521   4.014   8.328  0.0943 -0.3943  1.1191
 6322TIP3   OH240600   5.558   5.655   8.143  0.4408  0.0474  0.9194
 6322TIP3    H140601   5.463   5.659   8.136  0.5177  2.1261  0.5264
 6322TIP3    H240602   5.574   5.618   8.231 -0.7255  0.6994  1.4232
 6323TIP3   OH240603   5.018   4.106   0.664 -0.2916 -0.6418 -0.1321
 6323TIP3    H140604   4.985   4.177   0.719 -1.8503  0.1942 -1.9953
 6323TIP3    H240605   4.987   4.026   0.707 -2.8397  0.0429 -0.5321
 6324TIP3   OH240606   6.874   3.264   2.766  0.6541 -0.0576 -0.0052
 6324TIP3    H140607   6.937   3.201   2.800 -1.3774 -0.9247  2.4526
 6324TIP3    H240608   6.846   3.314   2.843 -0.9388  0.9535 -1.1716
 6325TIP3   OH240609   2.478   1.448   1.698 -0.5405  0.0288 -0.5543
 6325TIP3    H140610   2.387   1.434   1.724 -1.5511  3.1664 -1.9479
 6325TIP3    H240611   2.514   1.360   1.686 -2.8469 -1.3277  1.6387
 6326TIP3   OH240612   6.199   2.277   7.190 -0.4942  0.2333  0.1704
 6326TIP3    H140613   6.218   2.252   7.100  3.7165  1.5747  0.4924
 6326TIP3    H240614   6.230   2.204   7.243  2.1012  1.5578  0.6391
 6327TIP3   OH240615   3.123   3.763   2.023  0.1709  0.0587  0.4368
 6327TIP3    H140616   3.082   3.836   2.070 -0.5455  0.4301 -0.7180
 6327TIP3    H240617   3.209   3.796   1.998  0.2249  0.1574  0.7481
 6328TIP3   OH240618   5.183   5.256   1.782  0.1190  0.2633 -0.5103
 6328TIP3    H140619   5.183   5.310   1.703  0.9212 -0.3771 -0.9592
 6328TIP3    H240620   5.270   5.217   1.784 -0.4318 -0.9843 -0.1815
 6329TIP3   OH240621   3.527   3.410   8.166 -0.4182 -0.1280  0.7746
 6329TIP3    H140622   3.536   3.339   8.230  0.7286 -0.3498  0.3836
 6329TIP3    H240623   3.612   3.415   8.123 -1.0671  0.2311 -0.5276
 6330TIP3   OH240624   5.961   2.695   1.608  0.7276  0.3729 -0.4264
 6330TIP3    H140625   6.009   2.768   1.570  1.9207 -0.7500 -1.1997
 6330TIP3    H240626   5.940   2.639   1.533  0.5277 -0.4463  0.2276
 6331TIP3   OH240627   2.840   5.854   2.597 -0.2982 -0.1164  0.5849
 6331TIP3    H140628   2.908   5.883   2.536  0.7760 -1.3880  1.1186
 6331TIP3    H240629   2.883   5.789   2.653 -1.1100  1.2989  3.0283
 6332TIP3   OH240630   6.785   1.858   0.234  0.0411  0.2094 -0.7569
 6332TIP3    H140631   6.745   1.926   0.289 -2.2780 -1.7622  0.2045
 6332TIP3    H240632   6.865   1.898   0.201 -0.7899  3.1053  0.3807
 6333TIP3   OH240633   3.022   4.930   0.509  0.3307 -0.4215 -0.5905
 6333TIP3    H140634   3.074   4.861   0.551  1.6470  0.7555 -0.2006
 6333TIP3    H240635   3.027   4.911   0.416 -0.0744 -1.3515 -0.4308
 6334TIP3   OH240636   4.482   3.231   0.357 -0.1134 -0.2012  0.0215
 6334TIP3    H140637   4.410   3.291   0.340  0.9367  1.7236  1.9822
 6334TIP3    H240638   4.534   3.234   0.277 -0.4035  1.0468 -0.1431
 6335TIP3   OH240639   4.701   0.961   1.110 -0.1473 -0.5773 -0.3875
 6335TIP3    H140640   4.766   0.902   1.147 -0.1530 -0.2342  0.1823
 6335TIP3    H240641   4.625   0.906   1.092 -0.7086 -0.5145  1.5293
 6336TIP3   OH240642   6.721   6.258   2.153 -0.4028  0.3285  0.7800
 6336TIP3    H140643   6.680   6.341   2.177  0.4445  0.2987  2.4353
 6336TIP3    H240644   6.650   6.206   2.115 -1.1770  1.4062  0.7090
 6337TIP3   OH240645   5.661   1.922   0.755  0.1963  0.1155 -0.2689
 6337TIP3    H140646   5.667   1.827   0.746  1.7485  0.2738 -1.2900
 6337TIP3    H240647   5.662   1.955   0.665 -2.4629  1.0571 -0.0410
 6338TIP3   OH240648   3.838   5.711   8.601 -0.0667 -0.3112  0.1341
 6338TIP3    H140649   3.820   5.626   8.563 -1.7103 -0.0331  0.2267
 6338TIP3    H240650   3.924   5.701   8.642  0.7303 -1.2756 -1.6436
 6339TIP3   OH240651   1.102   3.928   1.036  0.4684 -0.0426 -0.0705
 6339TIP3    H140652   1.119   3.938   1.130 -3.7584 -0.0523  0.8831
 6339TIP3    H240653   1.096   4.018   1.003  2.9793 -0.0258 -0.6837
 6340TIP3   OH240654   0.290   5.044   0.469  0.0061  0.1036  0.0332
 6340TIP3    H140655   0.374   5.072   0.433 -0.7098  0.4746 -1.4750
 6340TIP3    H240656   0.287   5.081   0.557  1.4200  0.0641  0.1093
 6341TIP3   OH240657   1.862   6.577   1.976 -0.1565 -0.1948  0.1671
 6341TIP3    H140658   1.945   6.531   1.961 -0.1612 -0.0436 -0.3559
 6341TIP3    H240659   1.817   6.571   1.892 -1.1602 -1.2489  0.7540
 6342TIP3   OH240660   5.839   0.565   1.189 -0.1846 -0.2746 -0.0473
 6342TIP3    H140661   5.856   0.520   1.106 -1.5661  2.1847 -1.7763
 6342TIP3    H240662   5.926   0.596   1.217  0.4782 -2.1451  0.1579
 6343TIP3   OH240663   1.101   6.832   1.349  0.1290 -0.4489 -0.1921
 6343TIP3    H140664   1.084   6.926   1.350  0.2863 -0.3756  2.1653
 6343TIP3    H240665   1.018   6.792   1.372  0.3594 -0.8089  0.0279
 6344TIP3   OH240666   5.089   2.951   2.478  0.1802  0.3088 -0.3360
 6344TIP3    H140667   5.088   2.957   2.573 -0.4723  1.0162 -0.3787
 6344TIP3    H240668   5.084   3.042   2.448  0.6962  0.1176 -1.0475
 6345TIP3   OH240669   1.862   3.202   0.433 -0.1482 -0.0279  0.5429
 6345TIP3    H140670   1.944   3.229   0.475 -0.0019 -0.3049  0.4435
 6345TIP3    H240671   1.799   3.195   0.504 -0.3172  1.0209  0.5132
 6346TIP3   OH240672   1.320   4.265   7.482  0.6330  0.3199  0.2666
 6346TIP3    H140673   1.243   4.235   7.435  1.1685  0.3523 -0.6554
 6346TIP3    H240674   1.303   4.243   7.574  0.2966 -1.2831 -0.1579
 6347TIP3   OH240675   3.336   2.687   8.061  0.1582  0.4089  0.2102
 6347TIP3    H140676   3.363   2.720   7.975 -0.5405  0.2723 -0.0696
 6347TIP3    H240677   3.366   2.754   8.123  1.8081 -0.1019  0.0112
 6348TIP3   OH240678   4.963   0.033   7.754  0.1074  0.2307  0.5892
 6348TIP3    H140679   5.055   0.008   7.745  0.3421 -0.0091  2.9123
 6348TIP3    H240680   4.941   0.011   7.845 -2.5865 -0.7733 -0.1802
 6349TIP3   OH240681   3.955   2.595   7.619 -0.0846 -0.7381  0.5050
 6349TIP3    H140682   3.906   2.574   7.540 -0.0546  1.8486 -0.2727
 6349TIP3    H240683   4.047   2.582   7.594 -0.1344 -1.1299  0.5199
 6350TIP3   OH240684   5.954   0.031   1.375  0.0431 -0.1371 -0.0359
 6350TIP3    H140685   5.894   0.105   1.368 -1.8322 -1.4868  0.6358
 6350TIP3    H240686   5.991   0.039   1.463  0.1477  0.2089 -0.1098
 6351TIP3   OH240687   6.146   0.618   7.090  0.4387  0.3233 -0.5886
 6351TIP3    H140688   6.176   0.709   7.085 -1.2394  1.2751  3.0992
 6351TIP3    H240689   6.217   0.572   7.133 -0.1307  0.7714  0.8769
 6352TIP3   OH240690   2.332   1.399   7.953  0.3109 -0.1250  0.2014
 6352TIP3    H140691   2.392   1.412   7.879  0.6517 -1.2358  0.2615
 6352TIP3    H240692   2.389   1.380   8.027 -0.0948 -0.5244  0.4139
 6353TIP3   OH240693   0.887   3.174   0.019 -0.1643  0.1149  0.0507
 6353TIP3    H140694   0.821   3.172  -0.051 -0.6388  0.7205  0.4707
 6353TIP3    H240695   0.853   3.113   0.085  0.2183 -0.3581 -0.1882
 6354TIP3   OH240696   6.122   3.743   7.569  0.4213 -0.4914 -0.5371
 6354TIP3    H140697   6.210   3.744   7.532  0.8137 -0.3910  0.3809
 6354TIP3    H240698   6.068   3.784   7.502  1.3174  0.7731 -0.5236
 6355TIP3   OH240699   0.061   3.443   7.443 -0.2562  0.0847 -0.2475
 6355TIP3    H140700   0.012   3.432   7.361 -1.0294 -0.7858  0.3019
 6355TIP3    H240701   0.028   3.525   7.480 -1.0672 -0.3072 -0.0648
 6356TIP3   OH240702   2.786   3.737   7.341  0.0350 -0.2900 -0.1704
 6356TIP3    H140703   2.739   3.740   7.258  2.3508  1.2445 -1.5484
 6356TIP3    H240704   2.758   3.655   7.382 -3.6423  0.4129 -0.8711
 6357TIP3   OH240705   3.892   1.497   0.449 -0.1555  0.7246 -0.3243
 6357TIP3    H140706   3.817   1.458   0.403  0.0182 -0.4217  0.3183
 6357TIP3    H240707   3.867   1.496   0.541  0.4159  0.8817 -0.1649
 6358TIP3   OH240708   0.055   4.903   0.757 -0.9945  0.6052  0.4577
 6358TIP3    H140709   0.005   4.896   0.676  0.1119  0.5731 -0.2424
 6358TIP3    H240710   0.025   4.830   0.811 -0.5990 -0.3526 -0.5818
 6359TIP3   OH240711   4.693   2.685   8.587  0.4000 -0.0062  0.0608
 6359TIP3    H140712   4.612   2.636   8.602  0.3316  0.0237 -0.2127
 6359TIP3    H240713   4.754   2.650   8.652  0.0679  0.2083  0.4934
 6360TIP3   OH240714   4.293   6.332   8.312  0.3058  0.1362 -0.4070
 6360TIP3    H140715   4.237   6.355   8.238  0.5954 -1.5068 -1.2091
 6360TIP3    H240716   4.366   6.393   8.307  0.5104 -0.1811 -1.7478
 6361TIP3   OH240717   6.613   0.553   3.197 -0.0227  0.7892 -0.1201
 6361TIP3    H140718   6.701   0.591   3.195 -0.1137  1.0273  0.1705
 6361TIP3    H240719   6.627   0.459   3.207  0.1990  0.8908  0.6407
 6362TIP3   OH240720   4.558   5.758   7.941 -0.3931 -0.1292 -0.0247
 6362TIP3    H140721   4.624   5.723   7.882 -1.2216  0.5127 -1.3774
 6362TIP3    H240722   4.592   5.741   8.029  0.5630 -1.6844 -0.6690
 6363TIP3   OH240723   3.628   5.948   2.291  0.0775 -0.3640  0.0423
 6363TIP3    H140724   3.545   5.983   2.260  0.1820 -1.5373 -1.6493
 6363TIP3    H240725   3.614   5.854   2.298  1.6404 -0.7785 -1.6780
 6364TIP3   OH240726   4.229   5.566   8.323 -0.2125 -0.4202 -0.1219
 6364TIP3    H140727   4.230   5.544   8.230 -0.0083  2.5492 -0.9386
 6364TIP3    H240728   4.137   5.569   8.346 -0.4028  0.9576 -0.8940
 6365TIP3   OH240729   0.966   3.898   1.819  0.4304  0.5195  0.2147
 6365TIP3    H140730   0.916   3.886   1.900  0.4717  1.1904  0.3512
 6365TIP3    H240731   1.010   3.982   1.831  1.6857 -0.1168  0.1403
 6366TIP3   OH240732   5.943   4.885   1.088  0.4010  0.5237  0.2853
 6366TIP3    H140733   5.886   4.953   1.050  1.0059  0.1264 -1.4089
 6366TIP3    H240734   6.031   4.912   1.063  0.8286  0.2471  1.4632
 6367TIP3   OH240735   5.546   1.321   0.067  0.2062 -0.6829  0.1615
 6367TIP3    H140736   5.612   1.275   0.016  0.0369 -1.1836  0.3852
 6367TIP3    H240737   5.467   1.268   0.057 -0.0504 -0.3247  0.2528
 6368TIP3   OH240738   5.371   5.305   2.300 -0.0480 -0.0559  0.0883
 6368TIP3    H140739   5.427   5.373   2.338 -0.4122  0.3578 -0.1050
 6368TIP3    H240740   5.283   5.343   2.303  0.0272  0.3960 -2.0600
 6369TIP3   OH240741   1.006   5.683   2.675  0.7525  0.1471 -0.1020
 6369TIP3    H140742   0.918   5.696   2.641 -0.3761 -1.2752  2.0641
 6369TIP3    H240743   1.042   5.612   2.622  0.8252  1.0655 -1.3195
 6370TIP3   OH240744   3.391   1.539   1.780  0.0456  0.1118  0.2201
 6370TIP3    H140745   3.330   1.545   1.706  1.6006  1.1707 -1.0645
 6370TIP3    H240746   3.377   1.452   1.816 -0.5466 -0.5714 -1.5502
 6371TIP3   OH240747   2.586   5.984   8.591 -0.3217  0.1334 -0.2654
 6371TIP3    H140748   2.492   5.986   8.569 -0.8527 -1.3959  1.5815
 6371TIP3    H240749   2.619   6.069   8.562 -2.4945  1.1095 -0.0968
 6372TIP3   OH240750   3.199   4.609   1.915 -0.1344  0.2375  0.5043
 6372TIP3    H140751   3.218   4.547   1.985  0.8517  0.3402  0.3370
 6372TIP3    H240752   3.284   4.630   1.877 -0.6892 -0.4375 -1.2624
 6373TIP3   OH240753   1.216   3.957   2.615 -0.2937  0.3602 -0.5582
 6373TIP3    H140754   1.213   4.048   2.643  1.5303  1.1220 -2.5121
 6373TIP3    H240755   1.287   3.918   2.666 -1.1467 -0.0217  0.3570
 6374TIP3   OH240756   3.236   1.001   0.820  0.5151 -0.7058 -0.5651
 6374TIP3    H140757   3.288   0.922   0.801  0.0014 -0.5977 -2.6784
 6374TIP3    H240758   3.152   0.985   0.776 -1.2665 -0.7925  2.6007
 6375TIP3   OH240759   1.610   3.483   1.763 -0.4039 -0.2019  0.6035
 6375TIP3    H140760   1.694   3.467   1.806  0.6759  2.9899 -0.0502
 6375TIP3    H240761   1.583   3.397   1.730  2.4429 -1.3920  1.0980
 6376TIP3   OH240762   2.194   3.302   3.075  0.4084 -0.7223  0.0537
 6376TIP3    H140763   2.227   3.349   2.999 -1.4178  0.5018 -0.0377
 6376TIP3    H240764   2.239   3.342   3.150 -1.5834  1.7638  0.0478
 6377TIP3   OH240765   0.599   4.570   2.823  0.2655 -0.3753 -0.2867
 6377TIP3    H140766   0.668   4.612   2.875 -0.1925 -0.6342  0.5545
 6377TIP3    H240767   0.569   4.639   2.764  0.5821  0.0295  0.0135
 6378TIP3   OH240768   5.785   3.711   0.832 -0.1456 -0.3290  0.2035
 6378TIP3    H140769   5.762   3.707   0.924  0.6476 -2.6583  0.3576
 6378TIP3    H240770   5.721   3.655   0.788 -1.1165  1.5133 -0.8409
 6379TIP3   OH240771   1.470   1.641   1.835 -0.4539  0.6217 -0.3396
 6379TIP3    H140772   1.468   1.625   1.929 -0.8304 -0.8757 -0.5795
 6379TIP3    H240773   1.543   1.702   1.823 -0.3868  0.8181  0.9157
 6380TIP3   OH240774   1.312   2.695   1.965  0.1952 -0.4558 -0.5616
 6380TIP3    H140775   1.265   2.612   1.961 -1.0153  0.2397 -1.3009
 6380TIP3    H240776   1.285   2.735   2.048 -0.8339  0.0960 -1.1393
 6381TIP3   OH240777   1.968   0.019   2.293  0.5566  0.3023  0.2003
 6381TIP3    H140778   1.968   0.057   2.205 -0.3179 -0.3931 -0.1113
 6381TIP3    H240779   1.982  -0.075   2.279  3.5226  0.5049  0.9974
 6382TIP3   OH240780   4.488   6.459   2.504 -0.7705  0.5113  1.0168
 6382TIP3    H140781   4.405   6.476   2.459 -0.6097 -0.2345  0.4060
 6382TIP3    H240782   4.462   6.430   2.591 -1.2348 -0.8087  0.4821
 6383TIP3   OH240783   6.213   5.959   7.938  0.0215  0.7694 -0.1860
 6383TIP3    H140784   6.166   6.035   7.975  0.2528  1.0740 -0.5127
 6383TIP3    H240785   6.209   5.972   7.843 -0.8176 -0.1586 -0.2937
 6384TIP3   OH240786   2.864   3.129   7.686  0.6225  0.4557  0.2831
 6384TIP3    H140787   2.852   3.186   7.610  2.4116  0.3967 -0.0827
 6384TIP3    H240788   2.806   3.054   7.669 -0.9047  1.5962  0.2336
 6385TIP3   OH240789   1.114   6.123   1.421  0.4307 -0.5086  0.1992
 6385TIP3    H140790   1.043   6.065   1.449  0.3642  0.3845  1.9695
 6385TIP3    H240791   1.128   6.099   1.329 -3.0800  0.1693 -0.6665
 6386TIP3   OH240792   1.249   1.182   1.292 -0.5569 -0.0485 -1.0849
 6386TIP3    H140793   1.171   1.183   1.237 -1.0653  0.2943 -0.3763
 6386TIP3    H240794   1.322   1.173   1.230 -1.1773 -0.9255 -1.7170
 6387TIP3   OH240795   2.325   5.959   2.527 -0.3091 -1.0549  0.0366
 6387TIP3    H140796   2.409   5.955   2.481 -0.8374  0.6385 -1.1701
 6387TIP3    H240797   2.295   5.868   2.531  0.7470 -1.4710 -1.0982
 6388TIP3   OH240798   6.494   4.659   8.566  0.2660 -0.1771  0.1974
 6388TIP3    H140799   6.417   4.602   8.557 -0.7289  1.2019 -0.3124
 6388TIP3    H240800   6.568   4.601   8.546 -0.4901 -1.8447  1.8770
 6389TIP3   OH240801   2.699   0.837   2.577  0.0543  0.3471  0.3598
 6389TIP3    H140802   2.739   0.843   2.664  1.3134 -0.3625 -0.1309
 6389TIP3    H240803   2.605   0.846   2.592  0.2844  0.5947  1.7452
 6390TIP3   OH240804   6.184   4.206   7.409  0.5731 -0.2724  0.4018
 6390TIP3    H140805   6.278   4.190   7.416  0.4865 -0.7643  0.4232
 6390TIP3    H240806   6.143   4.133   7.454  0.1792  0.0126  0.5143
 6391TIP3   OH240807   4.058   3.876   0.410  0.1545  0.5185  0.1836
 6391TIP3    H140808   3.966   3.866   0.388  0.5226 -0.5574 -1.0180
 6391TIP3    H240809   4.068   3.831   0.494 -0.4192  0.7516  0.3841
 6392TIP3   OH240810   3.696   0.003   2.193  0.0426 -0.0099  0.0526
 6392TIP3    H140811   3.786  -0.010   2.161  0.3929 -0.5113  1.1918
 6392TIP3    H240812   3.642  -0.047   2.133  0.8192 -2.0765  0.9570
 6393TIP3   OH240813   0.442   6.183   2.871  0.1971 -0.4401 -0.4330
 6393TIP3    H140814   0.372   6.248   2.867  2.4113  2.0952 -0.6851
 6393TIP3    H240815   0.455   6.168   2.965 -1.4184 -1.8853 -0.3921
 6394TIP3   OH240816   4.746   4.528   7.803  0.3992  0.0657 -0.0332
 6394TIP3    H140817   4.718   4.453   7.855 -0.7418  0.5664  0.0924
 6394TIP3    H240818   4.676   4.592   7.811  1.6238  1.4244  0.3836
 6395TIP3   OH240819   3.770   5.114   0.697 -0.9107  0.1234 -0.0297
 6395TIP3    H140820   3.816   5.057   0.636 -1.2614 -1.4786  1.1236
 6395TIP3    H240821   3.839   5.149   0.754 -0.9555 -1.9106  1.4032
 6396TIP3   OH240822   0.636   1.598   2.344  0.9243 -0.8630 -0.1141
 6396TIP3    H140823   0.604   1.672   2.292  1.4000 -1.0573 -0.6963
 6396TIP3    H240824   0.594   1.608   2.429 -1.0609 -1.3578 -0.9699
 6397TIP3   OH240825   3.378   0.601   1.977  0.0251 -0.1124 -0.3267
 6397TIP3    H140826   3.332   0.597   1.893 -1.2271  1.9973  0.1594
 6397TIP3    H240827   3.314   0.642   2.036  0.6210 -2.1314  1.8612
 6398TIP3   OH240828   1.245   1.862   0.080  0.3118 -0.0939  0.6955
 6398TIP3    H140829   1.278   1.809   0.153  0.5350  1.1320  1.5091
 6398TIP3    H240830   1.319   1.867   0.020  0.7349  0.3782  1.2391
 6399TIP3   OH240831   2.005   3.651   1.593 -0.1990  0.2907  0.1572
 6399TIP3    H140832   2.087   3.651   1.544 -0.6981 -0.4176 -0.7129
 6399TIP3    H240833   1.952   3.583   1.551 -0.1111 -1.4006  2.5650
 6400TIP3   OH240834   5.961   6.050   0.988  0.1482 -0.3053 -0.2556
 6400TIP3    H140835   6.056   6.040   0.997  0.2633  1.1374  0.5212
 6400TIP3    H240836   5.925   6.005   1.065  0.3486  0.8755  0.5550
 6401TIP3   OH240837   1.085   2.850   2.164  1.1049  0.4493 -0.1825
 6401TIP3    H140838   1.155   2.797   2.202  0.4896 -0.3704 -0.1522
 6401TIP3    H240839   1.076   2.818   2.074 -0.7889 -1.1446  0.4955
 6402TIP3   OH240840   1.110   3.196   0.177 -0.2274  0.2457 -0.3066
 6402TIP3    H140841   1.035   3.204   0.118 -0.2383 -0.6263 -0.4300
 6402TIP3    H240842   1.097   3.112   0.220  1.4267 -0.6327 -1.4066
 6403TIP3   OH240843   0.496   1.261   1.202  0.3261 -0.0403  0.0032
 6403TIP3    H140844   0.567   1.308   1.245  0.5731 -0.5324  0.1422
 6403TIP3    H240845   0.460   1.324   1.139  0.0627  0.6295  0.8095
 6404TIP3   OH240846   0.044   2.121   8.584 -0.3136  0.4882  0.4147
 6404TIP3    H140847  -0.006   2.039   8.576 -0.2494  0.2005  2.3802
 6404TIP3    H240848  -0.003   2.183   8.529 -0.7302 -0.7049 -0.6235
 6405TIP3   OH240849   6.756   1.339   0.818  0.4368  0.6604  0.2675
 6405TIP3    H140850   6.667   1.305   0.810  0.4504  0.6836 -0.0214
 6405TIP3    H240851   6.789   1.304   0.900 -0.6214  2.4584  1.5467
 6406TIP3   OH240852   1.435   2.816   8.049  0.1112  0.1483  0.3748
 6406TIP3    H140853   1.395   2.846   7.967 -0.2282 -0.0516  0.4674
 6406TIP3    H240854   1.423   2.889   8.110  2.0607  1.0927 -0.2778
 6407TIP3   OH240855   2.711   0.264   1.229 -0.9551 -0.3262 -0.2774
 6407TIP3    H140856   2.665   0.271   1.313  0.5833 -0.3383  0.6098
 6407TIP3    H240857   2.764   0.185   1.236  1.1071  0.9673 -0.2177
 6408TIP3   OH240858   3.034   4.941   2.488  0.6906  0.1445 -0.5785
 6408TIP3    H140859   3.074   4.936   2.575  0.0800 -1.1517 -0.3575
 6408TIP3    H240860   2.946   4.976   2.503  0.0312 -1.4875 -0.4609
 6409TIP3   OH240861   5.036   2.456   8.133  0.0083  0.0402  0.0407
 6409TIP3    H140862   5.083   2.510   8.070 -0.1145 -0.3861 -0.4302
 6409TIP3    H240863   5.021   2.373   8.086 -1.1120  0.1313  0.2081
 6410TIP3   OH240864   4.640   3.652   8.044  0.4598  0.4619  0.4252
 6410TIP3    H140865   4.625   3.654   8.138  0.5046  0.0114  0.4439
 6410TIP3    H240866   4.581   3.584   8.011  0.0890  0.9481  0.0597
 6411TIP3   OH240867   3.813   5.129   1.710  1.0301 -0.0271  0.0136
 6411TIP3    H140868   3.874   5.074   1.663  1.3802  0.6725 -0.3714
 6411TIP3    H240869   3.762   5.069   1.764  0.8451 -0.8085 -1.0135
 6412TIP3   OH240870   1.360   5.271   7.850 -0.1612  0.3024 -0.5590
 6412TIP3    H140871   1.382   5.340   7.788 -0.6571  0.4637 -0.5549
 6412TIP3    H240872   1.392   5.191   7.809  0.5430  0.5471 -0.4998
 6413TIP3   OH240873   1.100   0.428   2.972  0.1868 -0.7431  0.2511
 6413TIP3    H140874   1.092   0.363   2.902  0.5542 -1.3170  0.7406
 6413TIP3    H240875   1.097   0.512   2.926 -1.6408 -1.0502 -0.2607
 6414TIP3   OH240876   4.354   4.366   7.952  0.2258  0.2882  0.5393
 6414TIP3    H140877   4.263   4.370   7.923  0.4956  0.1837 -0.3371
 6414TIP3    H240878   4.383   4.278   7.928 -0.0274 -0.4489  2.6524
 6415TIP3   OH240879   0.376   5.621   1.269 -0.1428  0.2522 -0.3577
 6415TIP3    H140880   0.303   5.601   1.328 -0.4815 -0.2713 -0.9511
 6415TIP3    H240881   0.431   5.543   1.272  0.2028  0.5036 -0.1945
 6416TIP3   OH240882   2.068   4.123   8.635 -0.1270  0.0139  0.9701
 6416TIP3    H140883   2.041   4.047   8.583 -1.0657 -0.7775  2.5266
 6416TIP3    H240884   2.155   4.145   8.602 -0.9341  0.0099 -1.3895
 6417TIP3   OH240885   0.964   5.114   2.308 -0.0553 -0.5320  0.7361
 6417TIP3    H140886   0.873   5.127   2.281 -0.2346 -1.2335  0.9768
 6417TIP3    H240887   0.958   5.097   2.402  0.1176 -2.5136  0.4315
 6418TIP3   OH240888   0.482   6.170   2.383  0.5551 -0.3586  0.1968
 6418TIP3    H140889   0.519   6.135   2.464  0.5503  0.2589  0.4737
 6418TIP3    H240890   0.391   6.190   2.405  0.2218 -1.2920 -0.3052
 6419TIP3   OH240891   1.339   2.640   0.623 -0.1281 -0.0521 -0.4389
 6419TIP3    H140892   1.276   2.712   0.625 -0.2972 -0.2098  1.1755
 6419TIP3    H240893   1.297   2.570   0.673  1.1509 -0.3114  0.3273
 6420TIP3   OH240894   1.809   4.718   0.334 -0.2636 -0.0323 -0.2487
 6420TIP3    H140895   1.874   4.683   0.395  0.2296  0.5625 -0.4185
 6420TIP3    H240896   1.731   4.732   0.388 -0.0095 -0.0333  0.1251
 6421TIP3   OH240897   6.519   5.875   8.643  0.4913 -0.0819  0.1403
 6421TIP3    H140898   6.582   5.860   8.714  1.0725  2.1842  0.1869
 6421TIP3    H240899   6.552   5.953   8.598 -1.1551 -0.0892 -1.1635
 6422TIP3   OH240900   6.516   5.237   2.315  0.4703 -0.4442 -0.4433
 6422TIP3    H140901   6.560   5.264   2.235 -0.2299  0.0864 -0.6545
 6422TIP3    H240902   6.586   5.233   2.380  0.8905  0.0423 -0.8587
 6423TIP3   OH240903   0.110   2.360   1.782 -0.4354 -0.8269 -0.5732
 6423TIP3    H140904   0.028   2.390   1.822 -0.8703 -0.8412 -1.4283
 6423TIP3    H240905   0.116   2.409   1.700  1.3455  0.5381  0.3090
 6424TIP3   OH240906   2.069   1.668   8.375 -0.8187  0.5783 -0.1485
 6424TIP3    H140907   2.092   1.732   8.308  1.5597 -1.1187 -1.0919
 6424TIP3    H240908   2.153   1.643   8.414 -1.7608 -1.2549  0.8412
 6425TIP3   OH240909   4.996   3.540   1.237  0.7775 -0.4199  0.6988
 6425TIP3    H140910   4.965   3.523   1.326  0.9119 -2.4798  0.4181
 6425TIP3    H240911   5.092   3.540   1.244  0.9560 -4.0054  0.1544
 6426TIP3   OH240912   0.264   5.224   1.553 -0.1359 -0.1438  0.1643
 6426TIP3    H140913   0.299   5.195   1.468 -0.3548  3.3268 -1.2890
 6426TIP3    H240914   0.336   5.208   1.614  0.1711 -2.3828 -0.6729
 6427TIP3   OH240915   0.660   4.303   0.917  0.6346  0.4868 -0.0505
 6427TIP3    H140916   0.718   4.226   0.915  1.1964  0.9117 -0.4019
 6427TIP3    H240917   0.572   4.266   0.913  0.7164 -0.3393  3.1374
 6428TIP3   OH240918   4.129   4.249   7.801  0.0044  0.2676  0.0863
 6428TIP3    H140919   4.188   4.185   7.761  0.6715 -0.2292  1.7847
 6428TIP3    H240920   4.062   4.197   7.846  1.1613  0.6471  2.4065
 6429TIP3   OH240921   0.524   5.801   0.191  0.1860 -0.1792  0.6210
 6429TIP3    H140922   0.537   5.706   0.194 -0.4124 -0.3742 -1.6705
 6429TIP3    H240923   0.612   5.836   0.176  0.3979 -0.3500  1.3944
 6430TIP3   OH240924   6.643   5.083   3.147  0.4498 -0.2210  0.5659
 6430TIP3    H140925   6.667   4.999   3.186 -0.7304 -0.3552  1.0204
 6430TIP3    H240926   6.718   5.140   3.166  0.8999 -0.9386  0.9738
 6431TIP3   OH240927   3.504   4.563   0.122 -0.1033 -0.4396 -0.3550
 6431TIP3    H140928   3.535   4.480   0.158  1.8920 -0.7619 -2.5601
 6431TIP3    H240929   3.436   4.538   0.059 -1.3932 -0.1316  0.8704
 6432TIP3   OH240930   6.593   4.251   1.206  0.9996  0.2312 -0.2851
 6432TIP3    H140931   6.556   4.162   1.200  0.8679  0.1651  1.1658
 6432TIP3    H240932   6.630   4.255   1.294  0.9628  1.6386 -0.3229
 6433TIP3   OH240933   4.284   0.252   2.135  0.0732 -0.7970  0.7324
 6433TIP3    H140934   4.323   0.228   2.051 -1.0868 -0.2579  0.0216
 6433TIP3    H240935   4.264   0.345   2.127 -0.6802 -0.8945  1.3362
 6434TIP3   OH240936   5.475   5.203   7.385 -0.0541 -0.3240  0.0716
 6434TIP3    H140937   5.541   5.270   7.403 -2.7937  2.2302  1.7700
 6434TIP3    H240938   5.490   5.179   7.294  2.7551  0.5715  0.1940
 6435TIP3   OH240939   1.022   6.335   7.476 -0.5872  0.4878  0.8554
 6435TIP3    H140940   1.053   6.259   7.428 -3.1379 -0.1167  0.0195
 6435TIP3    H240941   1.086   6.346   7.547  1.1782 -0.8918 -0.4312
 6436TIP3   OH240942   4.166   1.585   0.499  0.3344  0.5890 -0.2976
 6436TIP3    H140943   4.212   1.542   0.571 -0.3606  1.2224  0.5472
 6436TIP3    H240944   4.075   1.559   0.509  0.0953  1.3302 -0.4591
 6437TIP3   OH240945   6.464   2.940   0.107  0.3268 -0.4420  0.4898
 6437TIP3    H140946   6.502   3.019   0.069  2.4214 -0.7804  1.7006
 6437TIP3    H240947   6.467   2.875   0.037  1.0848 -0.1659  0.2617
 6438TIP3   OH240948   6.503   4.506   2.647  0.2897 -0.2453  0.1434
 6438TIP3    H140949   6.550   4.438   2.598  0.3132 -1.2043  1.4527
 6438TIP3    H240950   6.572   4.556   2.690  0.2313  0.0756 -0.1343
 6439TIP3   OH240951   6.058   2.725   0.177  0.2454 -0.2901  0.3330
 6439TIP3    H140952   6.106   2.747   0.098 -1.3648 -0.3903 -0.7143
 6439TIP3    H240953   6.072   2.800   0.236  1.3966 -0.1905 -0.0571
 6440TIP3   OH240954   6.674   5.106   0.458 -0.2964  0.1882 -0.2864
 6440TIP3    H140955   6.718   5.029   0.494 -0.7973 -0.3358 -0.7533
 6440TIP3    H240956   6.671   5.089   0.364 -0.1623  0.9181 -0.4234
 6441TIP3   OH240957   6.407   2.261   0.019  0.2123 -0.0651  0.3192
 6441TIP3    H140958   6.397   2.353   0.045  1.8708  0.6980 -1.5407
 6441TIP3    H240959   6.464   2.264  -0.058 -2.2634 -2.3983 -1.7828
 6442TIP3   OH240960   4.230   0.140   8.519 -0.1196 -0.3708  0.5348
 6442TIP3    H140961   4.201   0.227   8.546 -0.3894 -0.7612  1.5393
 6442TIP3    H240962   4.255   0.151   8.427 -0.2320  0.7418  0.6204
 6443TIP3   OH240963   3.839   5.806   2.483 -0.0776  0.7594 -0.0487
 6443TIP3    H140964   3.770   5.863   2.447 -0.1075 -0.0451 -1.3190
 6443TIP3    H240965   3.874   5.855   2.557  0.0611  2.5567 -1.2464
 6444TIP3   OH240966   2.367   1.808   2.398  0.5246  0.9262  0.1687
 6444TIP3    H140967   2.397   1.800   2.488  0.2654  2.5308  0.4408
 6444TIP3    H240968   2.298   1.742   2.389  2.2477 -0.9968  0.3254
 6445TIP3   OH240969   1.744   0.751   8.324 -0.3684 -0.2725 -0.4169
 6445TIP3    H140970   1.658   0.790   8.339 -0.2071  0.5413 -1.4945
 6445TIP3    H240971   1.726   0.658   8.309 -0.7886 -0.6283  1.8929
 6446TIP3   OH240972   5.100   4.130   0.251  0.0091 -0.5124  0.0899
 6446TIP3    H140973   5.072   4.043   0.221  0.2457 -0.6111  0.1546
 6446TIP3    H240974   5.170   4.155   0.191  0.5400 -0.7447  0.6043
 6447TIP3   OH240975   2.064   0.405   1.041 -0.3326  0.5230 -0.2643
 6447TIP3    H140976   2.066   0.310   1.027 -0.9269  0.3148  0.9101
 6447TIP3    H240977   1.971   0.426   1.046 -0.2117  1.2265 -0.7958
 6448TIP3   OH240978   4.095   3.738   7.725  0.2435  0.5786 -0.1173
 6448TIP3    H140979   4.027   3.805   7.734  0.9177  1.3093 -0.3985
 6448TIP3    H240980   4.112   3.709   7.814 -1.4700 -0.6735 -0.1524
 6449TIP3   OH240981   1.943   6.749   3.438 -0.9729  0.4567  0.7894
 6449TIP3    H140982   2.007   6.811   3.405 -1.2851 -0.4431 -1.7306
 6449TIP3    H240983   1.859   6.795   3.433 -0.9933  0.3909  0.5330
 6450TIP3   OH240984   4.786   5.943   8.017  0.1434 -0.3836  0.0043
 6450TIP3    H140985   4.826   5.862   8.049 -1.4683 -2.3263 -2.4839
 6450TIP3    H240986   4.707   5.914   7.971  0.0503  2.5147 -1.9289
 6451TIP3   OH240987   2.353   4.044   1.149  0.0978 -0.5673  0.2000
 6451TIP3    H140988   2.327   3.975   1.210  0.3356 -0.4816  0.4009
 6451TIP3    H240989   2.431   4.009   1.105  0.2981 -0.3753  0.3980
 6452TIP3   OH240990   1.910   3.620   2.877  0.1253 -0.5360  0.0206
 6452TIP3    H140991   1.904   3.553   2.808  0.0414 -1.1927  0.6571
 6452TIP3    H240992   1.962   3.579   2.945  1.6452  0.7329 -0.3423
 6453TIP3   OH240993   4.496   5.067   0.391  0.0546  0.2362 -0.1079
 6453TIP3    H140994   4.533   5.068   0.302  0.2516  0.3827 -0.0258
 6453TIP3    H240995   4.425   5.132   0.388  0.8674  1.1741  0.1740
 6454TIP3   OH240996   5.852   1.786   2.340  0.0185  0.3798  0.3820
 6454TIP3    H140997   5.819   1.700   2.367  0.6640  0.0356  0.1084
 6454TIP3    H240998   5.899   1.818   2.417 -0.1281  0.4398  0.4470
 6455TIP3   OH240999   0.536   0.005   1.931  0.2830 -0.2215 -0.3215
 6455TIP3    H141000   0.556   0.052   1.850 -0.9235  0.7498 -0.0892
 6455TIP3    H241001   0.443   0.023   1.947  0.7564  0.6317  1.9150
 6456TIP3   OH241002   1.642   0.727   7.670 -0.2000 -0.3722  0.4716
 6456TIP3    H141003   1.620   0.654   7.728 -0.6009  0.3435  1.2417
 6456TIP3    H241004   1.564   0.782   7.670  0.8162  1.1575  1.6145
 6457TIP3   OH241005   6.698   2.595   8.555 -0.2152  0.3522 -0.0709
 6457TIP3    H141006   6.603   2.583   8.550 -0.2714  1.0496 -0.7975
 6457TIP3    H241007   6.712   2.638   8.640 -0.8777  2.9244 -1.1543
 6458TIP3   OH241008   2.416   6.609   3.281  0.2733 -0.0933 -0.1034
 6458TIP3    H141009   2.422   6.514   3.282  2.9053 -0.0339  2.1228
 6458TIP3    H241010   2.448   6.636   3.367 -1.8002  2.7930 -0.0779
 6459TIP3   OH241011   4.406   1.111   0.131  0.1810  0.5907  0.2738
 6459TIP3    H141012   4.431   1.192   0.087 -1.2306  2.3863  2.5039
 6459TIP3    H241013   4.311   1.103   0.115 -0.0571  0.4390  1.6222
 6460TIP3   OH241014   6.379   6.596   0.118  0.0260 -0.3626 -0.2446
 6460TIP3    H141015   6.373   6.505   0.088  0.9198 -0.4053 -0.3221
 6460TIP3    H241016   6.333   6.646   0.051 -1.9369 -0.8887  0.6136
 6461TIP3   OH241017   6.323   0.315   7.923 -0.1087 -0.2121  0.3390
 6461TIP3    H141018   6.235   0.347   7.902 -2.5828 -6.0720 -0.1252
 6461TIP3    H241019   6.364   0.300   7.838  0.5790  0.6332  0.5117
 6462TIP3   OH241020   6.888   0.459   2.844 -0.6671  0.7054 -0.6418
 6462TIP3    H141021   6.821   0.432   2.781 -1.7789  1.2466  0.2762
 6462TIP3    H241022   6.932   0.533   2.802 -2.5507  2.1783 -0.1107
 6463TIP3   OH241023   5.020   4.736   7.146  0.1916  0.3094 -0.1740
 6463TIP3    H141024   5.073   4.671   7.099  0.1477  1.0251 -1.2419
 6463TIP3    H241025   5.082   4.805   7.169 -0.2963  1.3248 -1.7490
 6464TIP3   OH241026   3.631   4.848   2.910 -0.4188  0.0795  0.3810
 6464TIP3    H141027   3.544   4.844   2.872  0.2084  0.0095 -1.1277
 6464TIP3    H241028   3.686   4.798   2.850  0.3137 -1.6452  2.3746
 6465TIP3   OH241029   3.625   0.610   8.256 -0.0331 -0.2059 -0.4356
 6465TIP3    H141030   3.686   0.584   8.326  0.6390  2.3375  0.0244
 6465TIP3    H241031   3.539   0.604   8.297  0.3337  1.0526  0.6100
 6466TIP3   OH241032   2.911   0.614   8.070 -0.2278  0.2644  0.4572
 6466TIP3    H141033   2.947   0.682   8.013 -0.7038  0.8614  0.8495
 6466TIP3    H241034   2.856   0.561   8.012 -0.2674  0.5336  0.2470
 6467TIP3   OH241035   0.413   2.262   8.004 -0.3085  0.4077  0.3799
 6467TIP3    H141036   0.504   2.244   7.979  0.0014 -0.0295  1.7631
 6467TIP3    H241037   0.405   2.357   7.994  0.1753  0.4054 -0.1164
 6468TIP3   OH241038   4.115   6.108   6.989 -0.0959 -0.4567  0.1430
 6468TIP3    H141039   4.150   6.019   6.993  0.2637 -0.2668  3.1440
 6468TIP3    H241040   4.102   6.124   6.895 -1.4186 -4.1121 -0.4614
 6469TIP3   OH241041   5.939   3.601   1.313  0.5607 -0.2388 -0.1641
 6469TIP3    H141042   5.927   3.680   1.365  1.6043 -0.2688  0.1455
 6469TIP3    H241043   5.865   3.545   1.336  0.6626  0.0161  0.8037
 6470TIP3   OH241044   2.355   3.374   3.286 -0.1295  0.2384  0.3616
 6470TIP3    H141045   2.365   3.322   3.366 -0.5569  0.1204  0.3406
 6470TIP3    H241046   2.442   3.374   3.246  0.2613  0.9071  1.1970
 6471TIP3   OH241047   1.481   1.134   2.009  0.3805  0.5257 -0.4455
 6471TIP3    H141048   1.386   1.146   1.997  0.6345  2.3145 -0.9739
 6471TIP3    H241049   1.520   1.196   1.947  1.8982  0.1399  0.1033
 6472TIP3   OH241050   4.300   5.203   1.367  0.0242 -0.4439  0.0100
 6472TIP3    H141051   4.249   5.281   1.390  0.7284  0.0765 -0.1806
 6472TIP3    H241052   4.285   5.142   1.439 -0.5844 -0.1644  0.1292
 6473TIP3   OH241053   2.097   5.693   0.384 -0.4049  0.0166 -0.8354
 6473TIP3    H141054   2.037   5.684   0.458 -1.9621  0.5285 -1.9810
 6473TIP3    H241055   2.144   5.775   0.401  1.8706 -1.5663  1.3028
 6474TIP3   OH241056   2.243   3.578   8.374 -0.5318  0.2590 -0.1169
 6474TIP3    H141057   2.157   3.611   8.351 -0.0793  0.7827 -1.1288
 6474TIP3    H241058   2.296   3.591   8.295  0.5937  0.3595  0.6249
 6475TIP3   OH241059   6.634   0.942   8.657  0.0285 -0.1156  0.2881
 6475TIP3    H141060   6.648   0.921   8.564 -2.5611 -3.0931  0.3948
 6475TIP3    H241061   6.710   0.904   8.702  1.0005  0.8133 -0.5187
 6476TIP3   OH241062   4.153   3.259   0.778  0.0352  0.2139 -0.6323
 6476TIP3    H141063   4.108   3.235   0.859  1.3308  0.4951  0.1971
 6476TIP3    H241064   4.196   3.178   0.750  1.6737  0.7104  0.3617
 6477TIP3   OH241065   0.813   4.988   1.393  0.2018 -0.3518 -0.7157
 6477TIP3    H141066   0.832   4.905   1.435  0.0098 -0.9143 -1.6972
 6477TIP3    H241067   0.778   4.964   1.307  0.0611  0.7391 -0.9826
 6478TIP3   OH241068   4.952   2.494   1.615  0.3792 -0.0912 -0.2167
 6478TIP3    H141069   5.025   2.436   1.593  0.4203  0.0975 -0.5834
 6478TIP3    H241070   4.950   2.494   1.710  0.6145 -0.4016 -0.2076
 6479TIP3   OH241071   6.481   2.948   2.102  0.6540  0.5264  0.6866
 6479TIP3    H141072   6.549   2.979   2.161 -1.1173  1.8668  2.1430
 6479TIP3    H241073   6.475   3.017   2.035  0.3606  0.6841  0.8742
 6480TIP3   OH241074   4.268   0.011   2.268 -0.7370 -0.1996  0.5531
 6480TIP3    H141075   4.262   0.105   2.250 -0.5385 -0.3588 -0.3804
 6480TIP3    H241076   4.234   0.002   2.357 -1.7006  0.6359  0.2976
 6481TIP3   OH241077   5.243   6.261   3.441 -0.3990  0.5034 -0.2004
 6481TIP3    H141078   5.334   6.286   3.459  0.1705 -0.4424 -1.6031
 6481TIP3    H241079   5.242   6.166   3.455 -1.3001  0.5768  0.2630
 6482TIP3   OH241080   6.254   5.993   1.863  0.4005 -0.0358 -0.1760
 6482TIP3    H141081   6.297   5.955   1.939  2.0441  2.0840  0.0499
 6482TIP3    H241082   6.269   6.087   1.872 -1.2657  0.4600 -1.9913
 6483TIP3   OH241083   4.619   6.822   1.407  0.1700  0.3619 -0.3581
 6483TIP3    H141084   4.661   6.753   1.459  1.1015  1.9191  1.0498
 6483TIP3    H241085   4.537   6.839   1.453  0.2695  0.6586 -0.2856
 6484TIP3   OH241086   5.754   1.008   2.187  0.0496  0.0841  0.8682
 6484TIP3    H141087   5.827   1.068   2.203 -0.0428  0.2540  0.6390
 6484TIP3    H241088   5.734   0.972   2.274  0.0954  0.3946  1.0105
 6485TIP3   OH241089   2.471   0.183   7.584  0.4350  0.0080  0.0865
 6485TIP3    H141090   2.440   0.093   7.596 -0.1709  0.1293 -0.5249
 6485TIP3    H241091   2.493   0.189   7.491 -1.9748  1.2214 -0.4840
 6486TIP3   OH241092   0.929   1.622   2.869 -0.0038  0.5497  0.4733
 6486TIP3    H141093   0.867   1.662   2.930  0.6516  1.2032  0.7282
 6486TIP3    H241094   0.878   1.608   2.789 -1.3624 -1.8857  1.6491
 6487TIP3   OH241095   3.359   2.092   7.737 -0.4962 -0.2157  0.4279
 6487TIP3    H141096   3.306   2.057   7.665 -2.2053 -0.3243  1.6816
 6487TIP3    H241097   3.395   2.174   7.703 -0.8433 -0.5272 -0.7209
 6488TIP3   OH241098   0.645   1.902   1.372  0.5893 -0.5532  0.0648
 6488TIP3    H141099   0.570   1.863   1.417 -0.6714  1.4796 -0.1250
 6488TIP3    H241100   0.618   1.907   1.280  1.2857 -0.5138 -0.1463
 6489TIP3   OH241101   1.481   2.887   1.440 -0.3396  0.2587 -0.4195
 6489TIP3    H141102   1.412   2.917   1.500 -0.0969  0.7670 -0.3890
 6489TIP3    H241103   1.493   2.960   1.379  0.0315  0.0929 -0.5473
 6490TIP3   OH241104   2.336   1.370   0.304 -0.0734 -0.0957  0.3372
 6490TIP3    H141105   2.420   1.336   0.335 -0.2479 -2.3099 -1.3132
 6490TIP3    H241106   2.279   1.370   0.381  0.7327 -1.0963  0.9477
 6491TIP3   OH241107   2.093   5.610   3.348 -0.2030  0.3063  0.0581
 6491TIP3    H141108   2.108   5.689   3.297 -1.8992 -0.0985 -1.1583
 6491TIP3    H241109   2.054   5.642   3.430 -1.8253  0.7260 -0.8276
 6492TIP3   OH241110   2.157   1.519   0.695 -0.4101 -0.1575  0.4872
 6492TIP3    H141111   2.115   1.600   0.667  1.4791  0.9971  0.8200
 6492TIP3    H241112   2.232   1.548   0.747  1.6108 -2.0535 -1.1981
 6493TIP3   OH241113   2.337   0.117   3.693 -0.2719 -1.2181  0.9712
 6493TIP3    H141114   2.418   0.127   3.743 -1.0224  0.0755  1.9948
 6493TIP3    H241115   2.346   0.178   3.620 -0.3197 -1.0644  1.0925
 6494TIP3   OH241116   6.534   1.727   2.021  0.1679  0.0283 -0.4947
 6494TIP3    H141117   6.482   1.681   1.955 -2.4327  0.2127  1.2524
 6494TIP3    H241118   6.522   1.820   2.001 -0.3699  0.0766  0.0126
 6495TIP3   OH241119   2.708   5.909   1.118 -0.2763  0.2855 -0.2246
 6495TIP3    H141120   2.613   5.913   1.111 -0.5508  0.1471  2.2451
 6495TIP3    H241121   2.731   5.822   1.085 -0.9412  0.4788 -1.2296
 6496TIP3   OH241122   3.120   5.394   1.350  0.1119 -0.3643 -0.1482
 6496TIP3    H141123   3.038   5.345   1.349  0.7125 -1.4332  0.8269
 6496TIP3    H241124   3.101   5.473   1.402 -0.3590 -0.4897 -0.1310
 6497TIP3   OH241125   1.775   6.005   8.636  0.2726  0.0237  0.1781
 6497TIP3    H141126   1.755   6.098   8.622  0.7897 -0.2432 -3.1092
 6497TIP3    H241127   1.705   5.958   8.590 -0.1267 -1.2723  2.0113
 6498TIP3   OH241128   4.030   2.246   8.434 -0.1773  0.2863 -0.1919
 6498TIP3    H141129   4.021   2.226   8.341 -1.6036  1.5721 -0.3631
 6498TIP3    H241130   3.958   2.197   8.475 -2.6825  3.4610 -0.4244
 6499TIP3   OH241131   3.860   3.846   7.026  0.4222  0.1256 -0.1417
 6499TIP3    H141132   3.899   3.787   6.962  0.0120 -2.2313  1.6502
 6499TIP3    H241133   3.901   3.822   7.109 -0.7402  1.4676  0.8803
 6500TIP3   OH241134   3.058   0.051   8.420 -0.0580  0.0751  0.0573
 6500TIP3    H141135   3.054   0.147   8.425 -2.6284  0.0693 -0.3956
 6500TIP3    H241136   3.093   0.033   8.333  0.4802  0.5865  0.1588
 6501TIP3   OH241137   6.306   0.156   0.409  0.2875  0.6461 -0.1158
 6501TIP3    H141138   6.344   0.107   0.336  0.5587 -0.2350  0.6039
 6501TIP3    H241139   6.370   0.224   0.429  2.0402 -1.4017  1.7152
 6502TIP3   OH241140   4.491   2.684   1.380 -0.1776 -0.2886 -0.5675
 6502TIP3    H141141   4.493   2.773   1.346  0.4019 -0.7967 -1.9334
 6502TIP3    H241142   4.409   2.678   1.428 -0.3286  0.9036 -0.6642
 6503TIP3   OH241143   2.457   4.202   1.447  0.2634  0.4878  0.2976
 6503TIP3    H141144   2.366   4.172   1.459  0.9297 -0.8164  2.8238
 6503TIP3    H241145   2.461   4.231   1.356 -2.7295  0.7659  0.1526
 6504TIP3   OH241146   6.296   2.387   8.202  0.1629 -0.4435 -0.5160
 6504TIP3    H141147   6.205   2.398   8.176 -0.6145 -1.3049  1.6153
 6504TIP3    H241148   6.346   2.413   8.125 -1.8813 -0.7670 -2.0403
 6505TIP3   OH241149   2.968   5.022   0.838  0.2137 -0.4709 -0.0711
 6505TIP3    H141150   2.892   5.081   0.839  0.7811  0.2766 -0.1589
 6505TIP3    H241151   2.943   4.953   0.777  0.3430  0.8092 -1.6630
 6506TIP3   OH241152   3.401   6.868   8.429 -0.4869  0.1763 -0.3640
 6506TIP3    H141153   3.383   6.927   8.503 -0.0569 -1.1975  0.8763
 6506TIP3    H241154   3.434   6.926   8.360  1.1191  1.2721  1.2278
 6507TIP3   OH241155   5.537   5.271   2.985  0.2776 -0.0612 -0.2454
 6507TIP3    H141156   5.622   5.295   3.022 -0.9907  1.3330  2.0064
 6507TIP3    H241157   5.518   5.185   3.024 -0.5377  0.8917  1.6014
 6508TIP3   OH241158   2.564   0.944   2.933  0.0150 -0.2427 -0.7151
 6508TIP3    H141159   2.484   0.981   2.968  0.9930 -0.1512  1.5858
 6508TIP3    H241160   2.622   1.019   2.919  1.7957 -0.5712  3.4263
 6509TIP3   OH241161   5.209   4.528   7.795 -0.3418 -0.2827  0.0463
 6509TIP3    H141162   5.261   4.522   7.714  1.3104  0.6590  0.9820
 6509TIP3    H241163   5.229   4.447   7.842 -1.0684 -0.6906 -0.3210
 6510TIP3   OH241164   2.526   4.632   0.308  0.3288  0.2289 -0.0722
 6510TIP3    H141165   2.445   4.680   0.326  0.4004  0.4849 -0.4221
 6510TIP3    H241166   2.590   4.701   0.287  0.4003 -0.0299 -0.7069
 6511TIP3   OH241167   3.636   0.860   8.645  0.6366  0.0402  0.2145
 6511TIP3    H141168   3.567   0.871   8.710 -0.1981  1.3804 -0.8550
 6511TIP3    H241169   3.632   0.768   8.621 -0.2602 -0.0613  0.7193
 6512TIP3   OH241170   6.297   6.311   2.200 -0.2785 -0.4424 -0.2676
 6512TIP3    H141171   6.337   6.380   2.253 -0.9100  1.3641 -1.9832
 6512TIP3    H241172   6.368   6.250   2.181  0.7940  0.7938 -0.3160
 6513TIP3   OH241173   2.185   3.483   0.403  0.1814 -0.2971 -0.5878
 6513TIP3    H141174   2.113   3.437   0.447  1.9165 -2.5361  0.1171
 6513TIP3    H241175   2.229   3.415   0.352  1.6642  1.0421 -1.1842
 6514TIP3   OH241176   2.932   2.383   8.523  0.6501 -0.5278  0.0204
 6514TIP3    H141177   2.921   2.477   8.509 -1.5540 -0.5725  0.9886
 6514TIP3    H241178   3.004   2.358   8.464 -0.4521  1.2804 -2.2733
 6515TIP3   OH241179   2.715   1.089   2.347  0.1269  0.1933  0.7445
 6515TIP3    H141180   2.758   1.164   2.307  2.1430 -1.0779  0.3692
 6515TIP3    H241181   2.712   1.111   2.440  2.5727 -0.0286  0.9550
 6516TIP3   OH241182   4.752   4.244   2.674 -0.4395 -0.6913  0.3832
 6516TIP3    H141183   4.662   4.210   2.667 -1.1063  1.1502 -0.6739
 6516TIP3    H241184   4.804   4.169   2.701 -2.7199 -1.2465  3.8604
 6517TIP3   OH241185   2.648   0.042   7.845 -0.7632  0.1439 -0.2032
 6517TIP3    H141186   2.735   0.080   7.857  0.0397 -1.6656  0.0339
 6517TIP3    H241187   2.588   0.116   7.856  0.6853  1.2704  0.5120
 6518TIP3   OH241188   6.381   6.762   7.793  0.2746 -0.1328  0.0550
 6518TIP3    H141189   6.450   6.697   7.808  1.6726  1.1708 -0.4218
 6518TIP3    H241190   6.393   6.825   7.864 -0.9010 -0.2625  0.3756
 6519TIP3   OH241191   3.919   1.347   7.369 -0.4797  0.3140  0.4781
 6519TIP3    H141192   3.903   1.388   7.455  1.6331  1.3715  0.4270
 6519TIP3    H241193   3.970   1.412   7.321 -0.2788 -0.9124 -1.0292
 6520TIP3   OH241194   2.509   5.203   8.292  0.4702  0.2911  0.0128
 6520TIP3    H141195   2.569   5.218   8.219  0.1373  0.0809 -0.3058
 6520TIP3    H241196   2.561   5.222   8.370  0.7323  0.8188 -0.2903
 6521TIP3   OH241197   4.111   3.336   0.115  0.3430 -0.0667  0.0283
 6521TIP3    H141198   4.088   3.383   0.035  0.0431 -0.8205 -0.3352
 6521TIP3    H241199   4.189   3.381   0.147  2.3113 -1.5672 -2.2989
 6522TIP3   OH241200   0.360   5.432   8.432 -0.2976 -0.7982  0.0964
 6522TIP3    H141201   0.387   5.499   8.495  1.6819  0.2908 -1.7596
 6522TIP3    H241202   0.392   5.350   8.469  1.8628 -0.0444  0.0654
 6523TIP3   OH241203   6.383   3.847   7.783  0.5577  0.2256 -0.0273
 6523TIP3    H141204   6.437   3.831   7.706  2.6523  0.6287  1.2781
 6523TIP3    H241205   6.397   3.769   7.838  0.3011  0.5974  0.5802
 6524TIP3   OH241206   3.500   3.276   0.927 -0.3150 -0.1939  0.2801
 6524TIP3    H141207   3.498   3.366   0.896 -0.1609  0.2405  1.4875
 6524TIP3    H241208   3.415   3.240   0.901 -0.0496  0.0188 -0.9589
 6525TIP3   OH241209   2.300   0.208   1.941  0.5242 -0.2359  0.7899
 6525TIP3    H141210   2.323   0.270   1.872  0.4143 -0.1774  0.8054
 6525TIP3    H241211   2.303   0.258   2.022  0.3839 -0.2376  0.7963
 6526TIP3   OH241212   0.022   6.257   0.865 -0.3918  0.1940 -0.4056
 6526TIP3    H141213   0.067   6.339   0.887 -3.1642  0.8374  3.9337
 6526TIP3    H241214   0.073   6.189   0.910 -0.4638  0.0982 -0.4690
 6527TIP3   OH241215   5.023   3.162   1.885  0.0124 -0.5081 -0.5896
 6527TIP3    H141216   5.074   3.148   1.805 -0.6902  0.4421 -1.2188
 6527TIP3    H241217   5.051   3.092   1.943  1.9803 -0.0690 -0.9420
 6528TIP3   OH241218   3.033   3.828   2.425 -0.3258  0.1058  0.3425
 6528TIP3    H141219   3.073   3.915   2.421  3.2431 -1.3785  0.2232
 6528TIP3    H241220   3.003   3.820   2.516 -1.3238  1.6130  0.1973
 6529TIP3   OH241221   2.219   0.139   2.355 -0.1944  0.2399 -0.4083
 6529TIP3    H141222   2.267   0.060   2.329 -0.6040  0.1414 -0.8732
 6529TIP3    H241223   2.127   0.114   2.349 -0.3150  0.5052  0.2361
 6530TIP3   OH241224   2.661   6.826   2.021  0.4385  0.4460 -0.3687
 6530TIP3    H141225   2.685   6.782   1.940  0.6177 -0.1833  0.0199
 6530TIP3    H241226   2.711   6.781   2.089 -1.4924 -0.6250  0.4224
 6531TIP3   OH241227   0.057   1.390   1.069 -0.2596  0.6038 -0.2345
 6531TIP3    H141228   0.034   1.482   1.082  0.1231  0.7462 -0.5315
 6531TIP3    H241229  -0.007   1.341   1.121 -0.5512  1.0308 -0.1891
 6532TIP3   OH241230   4.469   5.558   7.146  0.1054 -0.0852 -0.5112
 6532TIP3    H141231   4.499   5.648   7.159  3.4774 -0.9632 -1.1893
 6532TIP3    H241232   4.392   5.550   7.202 -0.1464  3.1074 -0.2206
 6533TIP3   OH241233   0.035   4.960   2.130  0.0778 -0.2908  0.8138
 6533TIP3    H141234   0.001   4.903   2.061  0.6152  2.6985 -2.1985
 6533TIP3    H241235  -0.020   5.039   2.124  2.0045  1.2063  1.7707
 6534TIP3   OH241236   4.563   6.006   2.239  0.3147  0.3003  0.1708
 6534TIP3    H141237   4.566   6.080   2.179 -0.4178  0.9915  0.9768
 6534TIP3    H241238   4.649   6.006   2.281 -0.0126  1.2750  0.8529
 6535TIP3   OH241239   5.256   2.702   0.641 -0.0129 -0.0766  0.0434
 6535TIP3    H141240   5.289   2.781   0.599 -0.3003  0.0755  0.1017
 6535TIP3    H241241   5.247   2.726   0.733  1.0592 -0.5462  0.2936
 6536TIP3   OH241242   4.146   1.967   1.923 -0.2142 -0.5929 -0.1794
 6536TIP3    H141243   4.187   2.004   2.000 -0.3333 -0.6523 -0.0868
 6536TIP3    H241244   4.058   2.005   1.922 -0.0365 -0.1795 -0.5784
 6537TIP3   OH241245   3.864   6.864   7.993 -0.1439  0.2267  0.0535
 6537TIP3    H141246   3.806   6.789   7.981 -0.3908  0.3067  0.6843
 6537TIP3    H241247   3.889   6.891   7.905 -0.0522 -0.5984 -0.1794
 6538TIP3   OH241248   2.143   6.876   1.918 -0.3228  0.2381 -0.5442
 6538TIP3    H141249   2.096   6.952   1.953  0.6645  0.9676 -0.7782
 6538TIP3    H241250   2.228   6.910   1.891 -0.2883 -0.7238 -1.7313
 6539TIP3   OH241251   1.871   0.177   8.133  0.3562 -0.2791 -0.2735
 6539TIP3    H141252   1.900   0.133   8.214 -0.9189 -0.5497  0.0486
 6539TIP3    H241253   1.894   0.269   8.146  2.6388 -0.7199 -0.7594
 6540TIP3   OH241254   3.266   0.914   0.411 -0.2164  0.0009  0.0242
 6540TIP3    H141255   3.279   0.958   0.326 -0.4331  0.3762  0.1840
 6540TIP3    H241256   3.186   0.952   0.446 -0.2380 -0.3034  0.3067
 6541TIP3   OH241257   4.437   0.230   8.304  0.3604  0.3043 -0.5024
 6541TIP3    H141258   4.468   0.300   8.361  1.2745  0.0730 -0.6991
 6541TIP3    H241259   4.374   0.273   8.246  0.1171  0.7340  0.0661
 6542TIP3   OH241260   3.856   1.492   7.620  0.1241 -0.2026  0.1599
 6542TIP3    H141261   3.887   1.567   7.671 -0.2519  0.5680 -0.7012
 6542TIP3    H241262   3.760   1.498   7.625  0.0928 -0.5353 -0.0326
 6543TIP3   OH241263   4.771   2.382   1.216 -0.5224  0.0898  0.6258
 6543TIP3    H141264   4.824   2.370   1.137 -0.9226 -1.5177  0.5633
 6543TIP3    H241265   4.815   2.451   1.265 -0.5261  1.4774 -1.2084
 6544TIP3   OH241266   6.765   0.619   2.443 -0.7914  0.6217 -0.2871
 6544TIP3    H141267   6.766   0.534   2.486 -2.4069  0.7886  0.1400
 6544TIP3    H241268   6.851   0.656   2.462  0.1175 -1.0674 -0.8480
 6545TIP3   OH241269   4.009   1.479   3.061  0.6016  0.1043  0.3865
 6545TIP3    H141270   3.943   1.446   3.000  0.9526  0.4892 -0.2120
 6545TIP3    H241271   4.060   1.541   3.010  1.2472  0.0298  0.9218
 6546TIP3   OH241272   6.188   0.797   8.082  0.0390  0.1586  0.4287
 6546TIP3    H141273   6.248   0.771   8.012  0.9168  1.2388  0.7532
 6546TIP3    H241274   6.184   0.721   8.140 -0.0875 -0.4638 -0.3824
 6547TIP3   OH241275   2.022   0.054   0.312  0.0593  0.2646 -0.5153
 6547TIP3    H141276   2.097   0.011   0.352 -0.1769  1.1092  0.8896
 6547TIP3    H241277   2.016   0.139   0.356 -1.1094  0.6331 -1.3212
 6548TIP3   OH241278   2.998   3.126   8.396  0.3900  0.3235  0.5032
 6548TIP3    H141279   2.942   3.126   8.473 -0.1294  2.6940  0.2242
 6548TIP3    H241280   2.955   3.186   8.335  2.8067  1.6860 -0.0011
 6549TIP3   OH241281   3.195   4.348   7.712 -0.0229  0.0584  0.3625
 6549TIP3    H141282   3.242   4.275   7.754  0.0016  0.5742  1.2549
 6549TIP3    H241283   3.113   4.354   7.761  0.2965  1.1037  0.7917
 6550TIP3   OH241284   2.764   5.666   1.545  0.3523 -0.0233 -0.1900
 6550TIP3    H141285   2.811   5.613   1.609 -0.9261 -0.9250  0.0318
 6550TIP3    H241286   2.682   5.620   1.531 -1.1051  2.2194  0.4896
 6551TIP3   OH241287   1.464   2.355   0.974  0.1760  0.3820 -0.2577
 6551TIP3    H141288   1.539   2.308   0.939 -0.2726 -1.4027  1.0580
 6551TIP3    H241289   1.471   2.346   1.069 -1.1767  0.9829 -0.0668
 6552TIP3   OH241290   5.009   5.684   0.894  0.2801 -0.0944 -0.0496
 6552TIP3    H141291   4.995   5.605   0.842  0.5779 -0.8429  0.9704
 6552TIP3    H241292   4.956   5.670   0.972  1.1330  0.2465  0.6004
 6553TIP3   OH241293   2.782   5.478   8.609  0.2875 -0.0661  0.0409
 6553TIP3    H141294   2.769   5.416   8.680 -0.2443 -0.4614 -0.3941
 6553TIP3    H241295   2.788   5.563   8.652  1.3011 -0.4394  0.6645
 6554TIP3   OH241296   6.438   2.196   3.016  0.4597  0.3053 -0.0807
 6554TIP3    H141297   6.397   2.110   3.004  1.7134 -0.0931 -2.1225
 6554TIP3    H241298   6.431   2.238   2.930  0.0828  2.1721  0.8156
 6555TIP3   OH241299   6.474   3.377   1.976 -0.0909 -0.3129 -0.3121
 6555TIP3    H141300   6.546   3.412   2.028 -0.5043 -0.7897  0.6064
 6555TIP3    H241301   6.397   3.388   2.031 -0.3877 -1.7496 -0.3917
 6556TIP3   OH241302   6.489   1.475   0.508 -0.0982  0.4955  0.5250
 6556TIP3    H141303   6.475   1.569   0.497 -0.3303  0.3639 -0.3743
 6556TIP3    H241304   6.565   1.456   0.453 -1.3626 -0.2092 -1.0379
 6557TIP3   OH241305   0.220   5.658   7.609 -0.1153  0.5291  0.2863
 6557TIP3    H141306   0.246   5.616   7.691 -0.0245 -1.3784 -0.6876
 6557TIP3    H241307   0.295   5.648   7.551 -1.1154 -0.4922 -0.8810
 6558TIP3   OH241308   2.714   5.776   7.757  0.4661  0.3608 -0.2682
 6558TIP3    H141309   2.754   5.693   7.731 -1.6593 -0.6016 -0.6967
 6558TIP3    H241310   2.631   5.751   7.798 -0.3282  2.2765 -0.5903
 6559TIP3   OH241311   4.519   2.465   7.815 -0.2123 -0.1706 -0.5093
 6559TIP3    H141312   4.437   2.513   7.799 -0.1097 -0.6820 -3.0134
 6559TIP3    H241313   4.490   2.377   7.841 -0.5276 -0.5041 -1.8784
 6560TIP3   OH241314   1.170   5.193   8.408  0.1682 -0.1276 -0.4435
 6560TIP3    H141315   1.189   5.282   8.438  1.2252  0.1007 -1.7054
 6560TIP3    H241316   1.110   5.206   8.334  0.8567 -0.4230 -1.0566
 6561TIP3   OH241317   4.757   5.097   0.795 -0.2178  0.5025 -0.0255
 6561TIP3    H141318   4.742   5.067   0.884 -2.8401  1.3790 -0.0763
 6561TIP3    H241319   4.766   5.017   0.744  1.0840 -0.0103  0.9654
 6562TIP3   OH241320   5.136   4.320   8.399  0.1509 -0.3145 -0.0031
 6562TIP3    H141321   5.077   4.368   8.457 -0.4629  0.9246 -1.5791
 6562TIP3    H241322   5.128   4.229   8.426 -2.2711 -0.1465  0.0424
 6563TIP3   OH241323   4.676   4.018   1.128  0.1583 -0.2539 -0.1744
 6563TIP3    H141324   4.632   4.090   1.172  0.1792 -0.9814  1.0896
 6563TIP3    H241325   4.708   4.055   1.046 -1.7279  0.6166 -0.5755
 6564TIP3   OH241326   5.849   4.273   1.431  0.3176 -0.0711  0.0537
 6564TIP3    H141327   5.944   4.272   1.417 -0.0530 -0.6601 -3.2028
 6564TIP3    H241328   5.835   4.337   1.501  3.1407 -0.5475  1.1593
 6565TIP3   OH241329   2.562   0.339   1.802 -0.5674 -0.1414  0.0808
 6565TIP3    H141330   2.646   0.384   1.801 -1.1959  1.1706 -2.0835
 6565TIP3    H241331   2.561   0.290   1.884  3.1333 -1.8431 -0.6925
 6566TIP3   OH241332   5.592   0.820   1.685 -0.3013  0.2631 -0.1181
 6566TIP3    H141333   5.633   0.886   1.629 -0.6700  1.7008  1.2514
 6566TIP3    H241334   5.504   0.810   1.648  0.5908 -1.5663 -2.0008
 6567TIP3   OH241335   3.413   6.303   2.790  0.6523  0.7898 -0.3191
 6567TIP3    H141336   3.387   6.278   2.879 -1.6537 -0.2889 -1.2425
 6567TIP3    H241337   3.385   6.394   2.782 -0.7514  0.3541 -0.5065
 6568TIP3   OH241338   6.683   5.729   1.013  0.2349  0.2147 -0.2091
 6568TIP3    H141339   6.587   5.736   1.018  0.2828  0.4611  0.4771
 6568TIP3    H241340   6.707   5.675   1.088  0.5715 -0.5494 -0.8534
 6569TIP3   OH241341   3.670   4.506   1.667 -0.3748  0.2087 -0.1474
 6569TIP3    H141342   3.737   4.452   1.625  0.2254  0.9635 -0.1813
 6569TIP3    H241343   3.716   4.587   1.692 -0.9912  0.2505  0.9133
 6570TIP3   OH241344   3.186   6.200   3.039 -0.1725 -0.3649  0.2421
 6570TIP3    H141345   3.132   6.278   3.023  0.8608  0.3951  0.3818
 6570TIP3    H241346   3.139   6.129   2.994 -1.8512  0.0472  1.2640
 6571TIP3   OH241347   6.238   6.729   1.826 -0.1981 -0.2024  0.6177
 6571TIP3    H141348   6.172   6.743   1.758 -0.7072  1.0502  1.3311
 6571TIP3    H241349   6.194   6.754   1.908  0.7619 -0.5770  1.2676
 6572TIP3   OH241350   3.704   1.958   1.493  0.3923 -0.3021 -0.5346
 6572TIP3    H141351   3.673   1.909   1.570  0.6481  0.2473 -0.0795
 6572TIP3    H241352   3.729   1.890   1.431  1.3957 -0.7647  0.3481
 6573TIP3   OH241353   4.642   6.231   0.909  0.4552  0.1548  0.1182
 6573TIP3    H141354   4.723   6.205   0.865  1.0723 -0.5675  1.5704
 6573TIP3    H241355   4.572   6.211   0.846  1.2883 -0.7975 -0.5365
 6574TIP3   OH241356   0.631   5.014   8.589 -0.2212  0.0771 -0.6164
 6574TIP3    H141357   0.702   4.975   8.537  0.5083  2.6279 -1.6972
 6574TIP3    H241358   0.663   5.009   8.680  0.8576  0.1439 -0.9695
 6575TIP3   OH241359   1.291   4.432   8.580 -0.6104  0.1322  0.3825
 6575TIP3    H141360   1.355   4.364   8.602  0.0895  1.1000  1.4408
 6575TIP3    H241361   1.311   4.455   8.489 -1.5603 -1.7994 -0.3530
 6576TIP3   OH241362   2.544   3.073   2.986 -0.1593 -0.6848 -0.0735
 6576TIP3    H141363   2.581   3.101   2.902  1.9823  0.4310  1.1612
 6576TIP3    H241364   2.590   2.991   3.006 -0.4493 -0.7946  0.1399
 6577TIP3   OH241365   2.229   0.563   1.419  0.0621  0.0554 -0.1990
 6577TIP3    H141366   2.297   0.525   1.364  0.1851  0.4586 -0.3270
 6577TIP3    H241367   2.266   0.564   1.507 -1.2285 -3.3993  0.5100
 6578TIP3   OH241368   4.768   2.266   0.383  0.1145  0.2800 -0.3525
 6578TIP3    H141369   4.859   2.248   0.406 -0.2498  1.1092  1.9657
 6578TIP3    H241370   4.768   2.359   0.359 -0.1952  0.3866  0.0612
 6579TIP3   OH241371   6.316   5.132   2.468  0.0183  0.5092  0.4659
 6579TIP3    H141372   6.354   5.162   2.386 -2.1093  2.5284  0.1312
 6579TIP3    H241373   6.384   5.077   2.507  1.3193 -0.0460 -2.3298
 6580TIP3   OH241374   4.370   1.106   7.359 -0.1084 -0.3743 -0.3214
 6580TIP3    H141375   4.332   1.029   7.317 -1.2194  0.2901 -0.5647
 6580TIP3    H241376   4.375   1.083   7.451  0.2199 -0.9868 -0.4841
 6581TIP3   OH241377   6.345   0.542   2.587 -0.0900 -0.1709 -0.1236
 6581TIP3    H141378   6.415   0.576   2.642 -0.7549 -1.8491  1.8893
 6581TIP3    H241379   6.363   0.578   2.500  1.0942  2.4633  1.1137
 6582TIP3   OH241380   4.869   4.310   0.508 -0.0152  0.3528  0.5786
 6582TIP3    H141381   4.894   4.218   0.516 -0.8188  0.1820  1.3001
 6582TIP3    H241382   4.874   4.344   0.597  1.5356  1.3685  0.1364
 6583TIP3   OH241383   0.137   0.857   3.062  0.3302 -0.0794  0.1295
 6583TIP3    H141384   0.097   0.939   3.034 -0.3334 -0.1901  0.7101
 6583TIP3    H241385   0.215   0.883   3.110  0.0066  0.2287  0.4985
 6584TIP3   OH241386   2.939   5.141   1.566  0.3444 -0.0999 -0.0016
 6584TIP3    H141387   3.016   5.184   1.601 -0.5519  0.9506  0.7331
 6584TIP3    H241388   2.974   5.077   1.503  1.6921  2.0726 -1.6029
 6585TIP3   OH241389   3.714   2.223   1.994 -0.1188  0.2080  0.4908
 6585TIP3    H141390   3.703   2.269   2.078 -1.6748 -0.9627  0.9750
 6585TIP3    H241391   3.637   2.167   1.988 -1.0080  1.5406 -2.5753
 6586TIP3   OH241392   0.935   1.102   1.869 -0.0623 -0.0246 -0.3008
 6586TIP3    H141393   0.914   1.141   1.953 -0.6968  2.1849 -1.4069
 6586TIP3    H241394   0.891   1.017   1.870 -1.1641  0.5281  1.0662
 6587TIP3   OH241395   1.645   3.985   0.562 -0.0317 -0.3089 -0.3427
 6587TIP3    H141396   1.688   4.037   0.494  0.1637  0.1011  0.0901
 6587TIP3    H241397   1.569   3.947   0.519  0.0688 -0.0198 -0.7805
 6588TIP3   OH241398   3.831   3.194   6.910 -0.6699  0.5899  0.2830
 6588TIP3    H141399   3.861   3.122   6.966  0.0212  0.5262 -0.1488
 6588TIP3    H241400   3.854   3.165   6.821 -2.4957  0.3030 -0.1398
 6589TIP3   OH241401   0.449   1.388   8.629  0.4789  0.3091 -0.7154
 6589TIP3    H141402   0.521   1.423   8.577  1.8345 -1.0082  0.1781
 6589TIP3    H241403   0.487   1.373   8.715 -0.9622 -0.1560 -0.1283
 6590TIP3   OH241404   0.285   5.051   2.067 -0.0792 -0.5238 -0.1944
 6590TIP3    H141405   0.273   5.135   2.024 -1.3078  0.6784  2.2945
 6590TIP3    H241406   0.197   5.015   2.075  0.0430 -0.5089  1.5883
 6591TIP3   OH241407   3.960   3.362   1.341 -0.1092 -0.1260  0.2215
 6591TIP3    H141408   3.959   3.285   1.397  0.4313  0.3996  0.9826
 6591TIP3    H241409   3.868   3.383   1.326 -0.2655 -1.3403 -0.6147
 6592TIP3   OH241410   4.153   1.159   8.435  0.3473 -0.3745 -0.3232
 6592TIP3    H141411   4.107   1.217   8.495  0.9180 -0.2985  0.0432
 6592TIP3    H241412   4.131   1.071   8.465  0.6674 -0.3362  0.0204
 6593TIP3   OH241413   4.037   1.837   0.982 -0.1195  0.5700  0.0995
 6593TIP3    H141414   3.957   1.791   0.957 -0.1248  0.1221  0.9100
 6593TIP3    H241415   4.067   1.878   0.901  1.1950 -2.7562 -1.2978
 6594TIP3   OH241416   6.529   3.783   3.213 -0.1290  0.2458  0.1950
 6594TIP3    H141417   6.517   3.779   3.308 -0.3515  0.9875  0.2037
 6594TIP3    H241418   6.443   3.762   3.177 -0.1896  0.5224  0.1730
 6595TIP3   OH241419   4.203   5.504   7.272 -0.1410 -0.3417  0.4828
 6595TIP3    H141420   4.249   5.561   7.334  1.2455 -0.1902 -0.6243
 6595TIP3    H241421   4.111   5.515   7.293  0.2747 -0.2886  2.4974
 6596TIP3   OH241422   6.178   0.849   2.421 -0.1544 -0.1307 -0.4765
 6596TIP3    H141423   6.175   0.859   2.326  1.2013  0.3775 -0.4924
 6596TIP3    H241424   6.105   0.790   2.442  0.6640 -1.7995 -2.0492
 6597TIP3   OH241425   2.846   3.323   8.246 -0.5909  0.5273 -0.3399
 6597TIP3    H141426   2.901   3.371   8.309 -1.1504  1.1912 -0.3474
 6597TIP3    H241427   2.811   3.390   8.189 -1.5053  0.1196 -0.2662
 6598TIP3   OH241428   1.868   4.250   1.985 -0.1823 -0.2604 -0.0390
 6598TIP3    H141429   1.864   4.303   1.905  0.8055  0.2928  0.2575
 6598TIP3    H241430   1.800   4.288   2.042 -0.0664  0.1342 -0.1567
 6599TIP3   OH241431   0.136   5.846   8.473 -0.1964  0.0386  0.2764
 6599TIP3    H141432   0.215   5.819   8.520 -0.1779  1.3588  1.0559
 6599TIP3    H241433   0.114   5.932   8.509 -1.6314 -0.0120 -0.3770
 6600TIP3   OH241434   0.938   0.582   8.203 -0.1766 -0.6684  0.2602
 6600TIP3    H141435   1.016   0.602   8.151 -1.2640 -1.2062 -1.6902
 6600TIP3    H241436   0.967   0.515   8.265  1.1446 -0.1186  0.2681
 6601TIP3   OH241437   6.286   5.722   3.193  0.0321  0.0568 -0.4555
 6601TIP3    H141438   6.203   5.730   3.146 -0.4337  1.8315  0.5758
 6601TIP3    H241439   6.270   5.653   3.257 -0.9555  0.9623  0.3027
 6602TIP3   OH241440   4.336   3.917   1.280  0.6464  0.1015 -0.6647
 6602TIP3    H141441   4.256   3.912   1.228  1.0354  4.9855 -2.2387
 6602TIP3    H241442   4.377   3.832   1.269 -1.1292 -0.4363 -5.4190
 6603TIP3   OH241443   5.414   4.029   0.242  0.0957  0.3785  0.5333
 6603TIP3    H141444   5.485   4.088   0.265  4.3959 -3.3492 -1.5838
 6603TIP3    H241445   5.408   4.036   0.146 -1.2324 -0.5940  0.5184
 6604TIP3   OH241446   4.374   0.879   8.631 -0.1343 -0.0457  0.0797
 6604TIP3    H141447   4.279   0.872   8.629 -0.0390 -1.4501 -1.0413
 6604TIP3    H241448   4.392   0.945   8.698 -1.7811 -1.7387  2.3437
 6605TIP3   OH241449   1.745   4.616   1.531  0.0832  0.1396 -0.4263
 6605TIP3    H141450   1.701   4.574   1.605 -0.4138 -2.2578 -1.9588
 6605TIP3    H241451   1.820   4.660   1.569 -1.9156  1.8236  1.8991
 6606TIP3   OH241452   1.735   4.459   0.273 -0.2791  0.3871  0.2156
 6606TIP3    H141453   1.698   4.437   0.187 -3.7955  2.6919  0.8980
 6606TIP3    H241454   1.770   4.548   0.261  1.3132 -0.1511  0.6753
 6607TIP3   OH241455   4.769   6.652   0.329 -0.2423  0.0902  0.2997
 6607TIP3    H141456   4.681   6.671   0.297 -0.5604 -0.7540  0.6479
 6607TIP3    H241457   4.814   6.613   0.254  0.1960  1.4897 -0.2069
 6608TIP3   OH241458   5.909   2.107   2.298  0.2803 -0.1079  0.0628
 6608TIP3    H141459   5.914   2.109   2.393 -0.4732 -1.0235  0.1364
 6608TIP3    H241460   6.000   2.098   2.269  0.3276 -3.8389  0.8762
 6609TIP3   OH241461   1.795   2.118   1.295 -0.0605  0.6247  0.2381
 6609TIP3    H141462   1.889   2.111   1.280  0.0848  2.4574  0.0805
 6609TIP3    H241463   1.766   2.190   1.239 -2.0100 -1.3401 -1.4479
 6610TIP3   OH241464   2.952   3.629   0.951 -0.2263 -0.1771  0.0698
 6610TIP3    H141465   2.876   3.602   1.002  1.1255  0.5722  2.6106
 6610TIP3    H241466   2.970   3.555   0.894 -1.3464 -1.3793  1.2247
 6611TIP3   OH241467   4.295   2.011   8.351 -0.6931  0.0753  0.2926
 6611TIP3    H141468   4.308   2.088   8.296 -1.8716  0.3677  0.3926
 6611TIP3    H241469   4.276   1.940   8.289 -0.8689  0.1505  0.2597
 6612TIP3   OH241470   2.576   3.184   2.493 -0.5449 -0.6105  0.3617
 6612TIP3    H141471   2.649   3.232   2.532 -1.4239  1.5521 -0.4754
 6612TIP3    H241472   2.615   3.102   2.463  1.1228 -0.3163  1.5643
 6613TIP3   OH241473   0.992   4.996   3.603 -0.3277  0.4813  0.3046
 6613TIP3    H141474   0.987   5.073   3.660  0.2855  0.1636  0.7911
 6613TIP3    H241475   0.995   4.921   3.662 -1.5790  0.0250 -0.1682
 6614TIP3   OH241476   6.197   1.852   0.938 -0.2855  0.3005  0.6292
 6614TIP3    H141477   6.244   1.825   1.016  1.0100 -0.1056 -0.2657
 6614TIP3    H241478   6.256   1.831   0.865 -1.1335  1.3663 -0.4081
 6615TIP3   OH241479   2.058   3.061   7.848  0.3688 -0.6066  0.4372
 6615TIP3    H141480   2.095   3.126   7.788 -2.7073  0.0875 -0.9414
 6615TIP3    H241481   2.081   2.977   7.811 -1.8436 -0.1952 -2.1791
 6616TIP3   OH241482   3.087   1.841   7.383 -0.3577  0.1693  0.0358
 6616TIP3    H141483   3.037   1.783   7.440 -2.2773  0.0581 -1.6672
 6616TIP3    H241484   3.105   1.789   7.305 -2.0168  1.7224 -1.4786
 6617TIP3   OH241485   0.796   6.657   2.643  0.2875  0.3955 -0.3833
 6617TIP3    H141486   0.703   6.641   2.627  0.8260 -1.0524 -2.4007
 6617TIP3    H241487   0.831   6.573   2.671  0.9997  0.9597  0.5086
 6618TIP3   OH241488   3.459   4.640   1.888 -0.8412 -0.4201 -0.3077
 6618TIP3    H141489   3.544   4.681   1.900 -2.1982  2.3803  0.6146
 6618TIP3    H241490   3.478   4.547   1.878  2.3424  0.1985 -0.8953
 6619TIP3   OH241491   5.595   4.537   1.512 -0.1240 -0.0722 -0.2036
 6619TIP3    H141492   5.512   4.576   1.483 -0.8035 -0.1364  1.5150
 6619TIP3    H241493   5.578   4.443   1.513  0.1047 -0.1142 -0.2476
 6620TIP3   OH241494   3.601   3.390   7.613  0.1237  0.3232  0.1094
 6620TIP3    H141495   3.626   3.309   7.658  3.2373  2.4735  2.7414
 6620TIP3    H241496   3.632   3.378   7.523  0.3908 -1.4405  0.3967
 6621TIP3   OH241497   6.691   6.426   0.150 -0.3803 -0.2414  0.0798
 6621TIP3    H141498   6.739   6.372   0.214 -1.5092 -0.4019  0.8131
 6621TIP3    H241499   6.628   6.366   0.111  0.5028 -0.2200 -1.4565
 6622TIP3   OH241500   6.583   1.396   7.689  0.0463  0.4214  1.0753
 6622TIP3    H141501   6.642   1.444   7.631 -1.3597  0.8358 -0.0721
 6622TIP3    H241502   6.556   1.459   7.755  0.9867  0.1841  1.7045
 6623TIP3   OH241503   6.024   4.017   2.458  0.2618 -0.3326  0.3921
 6623TIP3    H141504   5.945   3.963   2.460 -0.9094  1.1602 -1.3944
 6623TIP3    H241505   6.003   4.093   2.512 -0.2988  0.9517 -1.5412
 6624TIP3   OH241506   5.277   2.501   2.817 -0.2362 -0.5238  0.4953
 6624TIP3    H141507   5.232   2.585   2.814 -0.4721 -0.6582  0.0502
 6624TIP3    H241508   5.216   2.442   2.861 -0.7871 -0.8625 -0.6727
 6625TIP3   OH241509   6.487   4.835   0.287  0.4568 -0.5290  0.2091
 6625TIP3    H141510   6.529   4.766   0.235  0.3595 -0.5100  0.1030
 6625TIP3    H241511   6.538   4.913   0.268  0.0345 -0.3852 -0.3638
 6626TIP3   OH241512   1.850   3.458   7.765  0.1822 -0.3110  1.3285
 6626TIP3    H141513   1.777   3.435   7.707  0.5467  3.3852 -0.9359
 6626TIP3    H241514   1.928   3.442   7.712  0.5940  1.8157  1.2022
 6627TIP3   OH241515   4.423   5.926   1.854  0.2230  0.3411  0.5278
 6627TIP3    H141516   4.457   5.858   1.911  0.9008  1.0827  1.0272
 6627TIP3    H241517   4.331   5.905   1.844  0.5120 -0.9052  0.3013
 6628TIP3   OH241518   4.805   4.046   0.104 -0.7168 -0.0330 -0.1646
 6628TIP3    H141519   4.734   3.992   0.140 -0.0523 -1.6470 -1.1385
 6628TIP3    H241520   4.782   4.057   0.012  0.2555 -0.5805 -0.4929
 6629TIP3   OH241521   0.773   0.646   2.514 -0.6900 -0.1571  0.7850
 6629TIP3    H141522   0.828   0.568   2.522  2.1208  1.2502 -2.2504
 6629TIP3    H241523   0.810   0.707   2.578  0.6627  0.3855 -0.4536
 6630TIP3   OH241524   1.738   5.454   1.872 -0.2194 -0.1280  0.1281
 6630TIP3    H141525   1.654   5.409   1.885 -0.3944  0.0707 -0.2840
 6630TIP3    H241526   1.791   5.427   1.947 -0.3992 -0.8347  0.0121
 6631TIP3   OH241527   4.259   6.489   0.844  0.4930  0.2414 -0.2159
 6631TIP3    H141528   4.180   6.534   0.811  1.3251  1.6302 -0.4267
 6631TIP3    H241529   4.249   6.399   0.816 -0.9415  0.4378 -0.4006
 6632TIP3   OH241530   2.621   6.461   8.451 -0.8777 -0.3739  0.0983
 6632TIP3    H141531   2.537   6.439   8.492 -0.9403  0.3891  0.3967
 6632TIP3    H241532   2.665   6.518   8.514 -0.2987 -0.4531 -0.2232
 6633TIP3   OH241533   1.492   4.801   0.197 -0.2935  0.5231 -0.4980
 6633TIP3    H141534   1.415   4.780   0.145 -0.8217 -0.6491  0.7162
 6633TIP3    H241535   1.503   4.726   0.256  3.6792 -0.9126 -2.7466
 6634TIP3   OH241536   4.929   0.286   3.139 -0.3461  0.0532  0.4512
 6634TIP3    H141537   5.024   0.289   3.135 -0.2661 -1.1665  0.8623
 6634TIP3    H241538   4.908   0.193   3.129 -1.4674  0.2460  0.8638
 6635TIP3   OH241539   6.330   4.902   8.432  0.7311  0.4390  0.1832
 6635TIP3    H141540   6.372   4.819   8.454 -2.5059 -1.2759  0.3239
 6635TIP3    H241541   6.353   4.917   8.340 -0.8707 -2.1191 -0.7143
 6636TIP3   OH241542   6.393   4.962   8.179  0.1063  0.0123  0.1691
 6636TIP3    H141543   6.335   4.911   8.123 -0.5681  0.2926  0.5926
 6636TIP3    H241544   6.354   5.050   8.178  1.0240  0.4307 -0.2393
 6637TIP3   OH241545   6.542   3.089   1.608  0.6345  0.0646  0.0298
 6637TIP3    H141546   6.632   3.068   1.583  0.8058  0.0334  0.6637
 6637TIP3    H241547   6.512   3.011   1.655 -0.1370 -0.4205 -1.2006
 6638TIP3   OH241548   1.900   4.266   0.096 -0.3344  0.5266 -0.1379
 6638TIP3    H141549   1.954   4.340   0.125 -1.3126  1.0838  0.3056
 6638TIP3    H241550   1.962   4.207   0.052  1.1323 -0.0696  2.5208
 6639TIP3   OH241551   0.306   2.123   0.957 -0.1097 -0.2312  0.1040
 6639TIP3    H141552   0.250   2.049   0.981  0.5698 -0.5580  0.7094
 6639TIP3    H241553   0.361   2.090   0.886 -0.0338 -0.2109  0.1521
 6640TIP3   OH241554   2.792   5.067   0.459  0.0143 -0.1969  0.0242
 6640TIP3    H141555   2.813   5.160   0.469  1.6503 -0.6954  2.0763
 6640TIP3    H241556   2.874   5.022   0.481 -0.6111 -2.1330 -1.3599
 6641TIP3   OH241557   0.555   6.094   2.636  0.0287 -0.4757  0.6262
 6641TIP3    H141558   0.503   6.147   2.696  0.0500  0.7921 -0.4199
 6641TIP3    H241559   0.618   6.049   2.692 -0.2017  0.3741  1.6032
 6642TIP3   OH241560   4.238   2.498   7.291 -0.0354 -0.5535  0.3869
 6642TIP3    H141561   4.191   2.484   7.209  1.7205  0.7693 -0.9142
 6642TIP3    H241562   4.208   2.583   7.321  0.6133 -0.2581  0.1990
 6643TIP3   OH241563   2.293   5.941   0.783 -0.6551  0.1986  0.2081
 6643TIP3    H141564   2.315   5.932   0.876 -2.4638 -0.5116  0.5996
 6643TIP3    H241565   2.248   5.860   0.760  1.7970 -0.7104 -1.9652
 6644TIP3   OH241566   5.157   6.517   8.053 -0.1853  0.3588 -0.0241
 6644TIP3    H141567   5.163   6.569   7.973  1.5539  0.0160 -0.1593
 6644TIP3    H241568   5.152   6.426   8.023  0.6524  0.2171  0.2430
 6645TIP3   OH241569   3.550   5.211   0.347 -0.2594  0.1469 -0.4031
 6645TIP3    H141570   3.476   5.215   0.407 -1.2908 -1.5571 -1.4533
 6645TIP3    H241571   3.587   5.123   0.359  0.7247  0.4703 -0.8920
 6646TIP3   OH241572   2.427   6.790   8.443  0.5639  0.1105  0.7752
 6646TIP3    H141573   2.480   6.824   8.370  0.6267  1.0589  1.2376
 6646TIP3    H241574   2.354   6.851   8.450  0.3449 -0.1985  1.2486
 6647TIP3   OH241575   5.090   2.995   2.099 -0.8167  0.4806  0.1617
 6647TIP3    H141576   5.046   2.910   2.102  0.9111 -0.4208  2.3332
 6647TIP3    H241577   5.183   2.974   2.096 -0.3278  2.2795  1.4429
 6648TIP3   OH241578   3.602   2.413   8.253  0.1451  0.3568  0.3014
 6648TIP3    H141579   3.539   2.384   8.187  1.3390 -1.0821 -0.2541
 6648TIP3    H241580   3.574   2.502   8.275 -1.3887  0.1766 -0.7633
 6649TIP3   OH241581   5.672   5.988   0.296  0.3364  0.4437  0.3814
 6649TIP3    H141582   5.602   5.926   0.275  2.1990 -1.4195 -0.8056
 6649TIP3    H241583   5.660   6.060   0.235 -0.1191 -0.2460 -0.3665
 6650TIP3   OH241584   2.041   5.561   1.678  0.3114  0.0986 -0.0429
 6650TIP3    H141585   2.040   5.616   1.756  1.3751 -0.6569  0.5314
 6650TIP3    H241586   1.980   5.603   1.618  0.5090  1.4536  0.6761
 6651TIP3   OH241587   2.616   6.389   1.902  0.7627  0.5314  0.2317
 6651TIP3    H141588   2.604   6.298   1.874 -0.6204 -0.3953  3.3568
 6651TIP3    H241589   2.530   6.430   1.890  1.4662  1.6323 -1.5077
 6652TIP3   OH241590   5.943   1.207   2.314  0.0791  0.0160 -0.0328
 6652TIP3    H141591   6.030   1.243   2.331  0.0617  1.5367 -2.6971
 6652TIP3    H241592   5.892   1.229   2.392  1.0888  2.5796 -0.0156
 6653TIP3   OH241593   5.797   1.376   0.353 -0.1659  0.1103  0.0747
 6653TIP3    H141594   5.854   1.389   0.277  1.5532 -0.7268  1.1761
 6653TIP3    H241595   5.768   1.285   0.345 -0.4034  0.1781  0.1593
 6654TIP3   OH241596   1.990   0.982   8.614  0.1996 -0.0502 -0.6841
 6654TIP3    H141597   1.913   1.013   8.567 -0.4499 -1.0002 -0.2772
 6654TIP3    H241598   2.060   0.982   8.549 -0.1137  0.8886 -1.0379
 6655TIP3   OH241599   3.222   5.428   1.087 -1.0399  0.0867 -0.3090
 6655TIP3    H141600   3.173   5.350   1.062 -1.7394  0.0421  1.0998
 6655TIP3    H241601   3.191   5.448   1.176  1.9798 -0.3457  0.9490
 6656TIP3   OH241602   5.423   0.516   1.653 -0.2543 -0.2075 -0.0611
 6656TIP3    H141603   5.392   0.601   1.683  1.5546  0.1932  0.8626
 6656TIP3    H241604   5.364   0.492   1.582 -1.6659  1.1453  0.6044
 6657TIP3   OH241605   2.057   6.781   0.643 -0.0898  0.7008 -0.1603
 6657TIP3    H141606   1.966   6.754   0.641  0.1904 -0.3165  0.2519
 6657TIP3    H241607   2.080   6.793   0.551 -0.2718 -0.3710 -0.3630
 6658TIP3   OH241608   3.223   0.554   2.671  0.5342 -0.5409  0.1475
 6658TIP3    H141609   3.298   0.608   2.647 -0.8087  0.9504 -0.8454
 6658TIP3    H241610   3.255   0.464   2.661  2.1274  0.0390 -0.3867
 6659TIP3   OH241611   2.875   4.055   8.529  0.0829  0.1700 -0.3987
 6659TIP3    H141612   2.909   3.976   8.487  2.9381  0.6121  0.8739
 6659TIP3    H241613   2.861   4.029   8.620 -1.1896  0.5522 -0.4705
 6660TIP3   OH241614   5.839   4.602   1.346 -0.1272  0.7388  0.4595
 6660TIP3    H141615   5.861   4.686   1.385  0.0339  0.0132  1.9971
 6660TIP3    H241616   5.757   4.576   1.388  0.9391 -0.8698  1.6448
 6661TIP3   OH241617   1.538   4.003   0.228 -0.0971  0.7484 -0.3160
 6661TIP3    H141618   1.517   3.950   0.151  0.2127 -0.7056  0.5520
 6661TIP3    H241619   1.462   4.060   0.240  0.1358  1.4898 -2.0658
 6662TIP3   OH241620   6.490   2.910   8.517  0.2105  0.0901  0.3471
 6662TIP3    H141621   6.539   2.864   8.449 -0.1797 -0.0336  0.1491
 6662TIP3    H241622   6.509   3.003   8.503 -0.4132  0.1175 -0.3607
 6663TIP3   OH241623   3.300   0.371   2.368  0.2500  0.3325  0.5499
 6663TIP3    H141624   3.291   0.464   2.388 -0.7097  0.1921  0.8533
 6663TIP3    H241625   3.301   0.328   2.453 -4.6610 -0.3338  0.5782
 6664TIP3   OH241626   2.810   1.439   1.080 -0.1974  0.1827 -0.3698
 6664TIP3    H141627   2.841   1.457   0.991  1.3360  0.0156  0.0953
 6664TIP3    H241628   2.848   1.354   1.102 -0.0621  0.4873  0.6443
 6665TIP3   OH241629   6.622   1.120   0.635 -0.0781 -0.4324  0.1154
 6665TIP3    H141630   6.699   1.064   0.645 -0.2921 -0.5189  1.4377
 6665TIP3    H241631   6.554   1.062   0.603 -0.3367 -0.9909  1.6072
 6666TIP3   OH241632   3.930   6.183   2.564 -0.1122 -0.1059 -0.5041
 6666TIP3    H141633   4.020   6.197   2.593 -0.9948  0.9739  2.0459
 6666TIP3    H241634   3.908   6.096   2.597 -0.5799  0.4298  0.6544
 6667TIP3   OH241635   4.237   2.127   1.588 -0.0989 -0.5489 -0.4115
 6667TIP3    H141636   4.196   2.072   1.521 -0.6988 -0.1324 -0.3919
 6667TIP3    H241637   4.164   2.168   1.633  0.3387  0.4999 -0.6262
 6668TIP3   OH241638   0.693   5.865   1.734  0.0027 -0.1634 -0.3850
 6668TIP3    H141639   0.703   5.960   1.744  1.4908 -0.3842  0.3511
 6668TIP3    H241640   0.652   5.855   1.648 -0.7772  1.1670 -0.1974
 6669TIP3   OH241641   6.159   3.788   0.077 -0.1935  0.0390 -0.1069
 6669TIP3    H141642   6.071   3.823   0.088 -0.7452 -1.5362  0.6154
 6669TIP3    H241643   6.205   3.814   0.157  0.1174  1.0918 -0.5984
 6670TIP3   OH241644   4.780   1.616   8.504  0.1115 -0.4462 -0.3163
 6670TIP3    H141645   4.823   1.539   8.467  1.1252  0.9448 -2.1982
 6670TIP3    H241646   4.690   1.609   8.473  0.8372  0.4729 -2.9212
 6671TIP3   OH241647   4.593   1.136   8.414 -0.4914 -0.3177  0.3406
 6671TIP3    H141648   4.556   1.224   8.409 -1.1317 -0.6135 -0.2859
 6671TIP3    H241649   4.518   1.077   8.400 -0.1466 -0.9715  1.1803
 6672TIP3   OH241650   5.948   5.173   1.308  0.2068 -0.9255 -0.1319
 6672TIP3    H141651   5.926   5.229   1.234  2.5111 -0.8055 -0.8011
 6672TIP3    H241652   5.869   5.120   1.323 -1.7290  1.7727 -0.0768
 6673TIP3   OH241653   0.897   1.393   1.646  1.1028  0.0112 -0.2303
 6673TIP3    H141654   0.818   1.349   1.677  1.1711 -0.4631 -0.7116
 6673TIP3    H241655   0.950   1.405   1.725  0.5579  0.3248  0.0921
 6674TIP3   OH241656   2.018   1.425   7.987 -0.3597 -0.1765  0.3684
 6674TIP3    H141657   2.112   1.432   7.970 -0.5699  0.8835 -0.4882
 6674TIP3    H241658   2.010   1.429   8.083  0.2922  3.0348  0.4082
 6675TIP3   OH241659   1.569   5.360   8.077 -0.3996  0.1377 -0.4523
 6675TIP3    H141660   1.593   5.449   8.100  0.6688  0.1977 -1.6621
 6675TIP3    H241661   1.513   5.369   8.000 -0.3283 -0.2267 -0.5491
 6676TIP3   OH241662   3.866   5.552   1.114  0.2399  0.8063  0.1934
 6676TIP3    H141663   3.781   5.535   1.073 -0.7724  0.5602  2.2279
 6676TIP3    H241664   3.912   5.468   1.110 -0.3581  0.4509  0.6795
 6677TIP3   OH241665   5.838   1.080   0.108  0.5627 -0.6468 -0.3705
 6677TIP3    H141666   5.862   1.156   0.054  1.4549 -2.1635 -2.2535
 6677TIP3    H241667   5.915   1.066   0.164  1.0686 -1.0883 -1.1574
 6678TIP3   OH241668   6.018   2.866   0.837 -0.3336  0.0719  0.6824
 6678TIP3    H141669   5.938   2.914   0.856 -0.9199 -0.7613  0.4011
 6678TIP3    H241670   6.047   2.833   0.922 -0.6966 -0.2237  0.6973
 6679TIP3   OH241671   5.698   3.121   1.550 -0.7507  0.0964  0.4305
 6679TIP3    H141672   5.725   3.068   1.625  0.9822  0.5259  0.1702
 6679TIP3    H241673   5.727   3.071   1.474  2.2990  1.9137  0.1880
 6680TIP3   OH241674   2.678   2.293   1.152  0.3384 -0.3429  0.1545
 6680TIP3    H141675   2.751   2.336   1.107 -0.7225  2.8698  1.2310
 6680TIP3    H241676   2.600   2.330   1.112 -0.6343  0.4477  2.5964
 6681TIP3   OH241677   2.672   3.934   8.272 -0.0960 -0.6410 -0.1785
 6681TIP3    H141678   2.670   3.901   8.362 -3.5335 -1.2412 -0.3147
 6681TIP3    H241679   2.591   3.984   8.263  0.7278  0.4148 -2.6211
 6682TIP3   OH241680   3.904   6.624   2.007  0.0154 -0.0624 -0.1477
 6682TIP3    H141681   3.951   6.684   1.949 -0.6479  1.4952  0.8626
 6682TIP3    H241682   3.846   6.575   1.949  0.9031 -0.0765 -1.0513
 6683TIP3   OH241683   0.888   2.526   1.968 -0.7926  0.0952 -0.2714
 6683TIP3    H141684   0.911   2.487   2.052 -1.5757  1.5311  0.6490
 6683TIP3    H241685   0.935   2.610   1.967 -0.5245 -0.0620 -1.4166
 6684TIP3   OH241686   1.971   6.221   1.251 -0.1312 -0.3773 -0.3959
 6684TIP3    H141687   2.042   6.252   1.195 -1.5589 -0.7846 -2.5624
 6684TIP3    H241688   2.000   6.134   1.280  0.2479 -0.5620 -1.2904
 6685TIP3   OH241689   5.793   2.994   1.761 -0.1202  0.4405 -0.4022
 6685TIP3    H141690   5.787   2.899   1.769  1.5697 -0.0846 -3.8263
 6685TIP3    H241691   5.885   3.014   1.778 -0.0888  1.2356 -1.4507
 6686TIP3   OH241692   5.743   1.176   0.633  0.1971 -1.0209  0.2023
 6686TIP3    H141693   5.652   1.170   0.664 -0.4801  0.8891 -1.2086
 6686TIP3    H241694   5.742   1.134   0.548  0.3613 -0.0835 -0.2750
 6687TIP3   OH241695   2.516   0.788   0.405 -0.5829  0.5305 -0.3409
 6687TIP3    H141696   2.450   0.732   0.363  2.0641 -2.4313 -0.9842
 6687TIP3    H241697   2.539   0.741   0.485 -0.1532  2.1797  0.5481
 6688TIP3   OH241698   5.220   4.584   1.058  0.6449 -0.1336  0.1806
 6688TIP3    H141699   5.203   4.555   0.968  1.0892  1.1184 -0.3213
 6688TIP3    H241700   5.138   4.623   1.087 -0.0404 -2.0118  0.9533
 6689TIP3   OH241701   3.708   5.680   7.175  0.3508  0.0759  0.8908
 6689TIP3    H141702   3.673   5.765   7.201  0.5175  0.6616 -0.6729
 6689TIP3    H241703   3.631   5.629   7.151  0.3110  0.0832  1.0039
 6690TIP3   OH241704   2.353   6.713   1.090  0.2961  0.2152  0.2200
 6690TIP3    H141705   2.333   6.758   1.172  2.2590  1.6834 -0.0254
 6690TIP3    H241706   2.328   6.622   1.106 -2.7683  1.1103  1.1210
 6691TIP3   OH241707   2.072   3.299   0.579  0.4659  0.2055 -0.2820
 6691TIP3    H141708   2.021   3.336   0.651 -0.6328 -0.4233 -0.7172
 6691TIP3    H241709   2.159   3.340   0.587 -1.0960  4.3654 -1.7630
 6692TIP3   OH241710   5.585   1.622   0.144  0.4632 -0.2685 -0.1340
 6692TIP3    H141711   5.659   1.580   0.101  0.3958 -0.0566 -0.4641
 6692TIP3    H241712   5.613   1.636   0.234  0.4898 -1.0094 -0.0245
 6693TIP3   OH241713   0.037   4.339   7.708 -0.2488  0.4300 -0.5064
 6693TIP3    H141714   0.037   4.308   7.617 -0.3880 -0.0293 -0.3513
 6693TIP3    H241715  -0.014   4.420   7.705 -0.4303  0.3089 -0.8032
 6694TIP3   OH241716   2.330   4.983   0.042 -0.0843  0.0530  0.4085
 6694TIP3    H141717   2.369   5.063   0.009 -0.7818 -0.0630 -0.7487
 6694TIP3    H241718   2.343   4.987   0.137 -2.4280  2.8449  0.7518
 6695TIP3   OH241719   1.409   0.228   1.968  0.2820 -0.1054  0.3723
 6695TIP3    H141720   1.450   0.276   2.040 -0.2624  1.4848 -0.3504
 6695TIP3    H241721   1.468   0.153   1.954  1.7697  0.9332  0.7932
 6696TIP3   OH241722   1.712   3.623   1.533 -0.4350  0.0107  0.2090
 6696TIP3    H141723   1.770   3.548   1.516 -1.1750 -0.5131 -0.0679
 6696TIP3    H241724   1.630   3.583   1.562  0.0146  0.7937  2.7761
 6697TIP3   OH241725   3.246   4.100   8.386  0.0213 -0.0019  0.7696
 6697TIP3    H141726   3.204   4.043   8.450 -0.7857  0.0173  0.2641
 6697TIP3    H241727   3.339   4.095   8.407 -0.1423 -0.7200  1.3527
 6698TIP3   OH241728   5.918   1.290   1.838  0.5875  0.3050  0.4171
 6698TIP3    H141729   5.955   1.202   1.836 -0.5490 -0.1674 -0.8191
 6698TIP3    H241730   5.930   1.319   1.929  1.8313 -0.7252  0.6154
 6699TIP3   OH241731   6.487   6.097   0.774  0.1070 -0.2758  0.2953
 6699TIP3    H141732   6.491   6.173   0.833 -2.1917  0.3411 -0.2552
 6699TIP3    H241733   6.503   6.134   0.687  0.5259 -0.6906  0.1953
 6700TIP3   OH241734   3.500   5.124   0.755  0.7404 -0.3385 -0.0191
 6700TIP3    H141735   3.592   5.119   0.727  1.0978 -0.1453  1.0762
 6700TIP3    H241736   3.494   5.207   0.802 -0.6897  1.0336 -2.4269
 6701TIP3   OH241737   5.015   5.245   8.390 -0.4504 -0.3735 -0.3318
 6701TIP3    H141738   5.078   5.188   8.434 -0.4158  0.3919  0.6408
 6701TIP3    H241739   4.997   5.314   8.453  0.1086  1.1413 -1.7400
 6702TIP3   OH241740   4.994   0.577   8.293  0.4000  0.3408 -0.3856
 6702TIP3    H141741   5.060   0.639   8.325  0.3633  0.3272 -0.2826
 6702TIP3    H241742   4.910   0.617   8.319  0.4097 -1.0692  2.1539
 6703TIP3   OH241743   0.034   5.798   1.320  0.1599 -0.2892 -0.1308
 6703TIP3    H141744   0.066   5.731   1.259 -0.8149 -0.6397 -0.2729
 6703TIP3    H241745  -0.047   5.762   1.354 -0.7882  1.1420 -0.7708
 6704TIP3   OH241746   3.567   6.841   7.407  0.9577  0.0332 -0.4244
 6704TIP3    H141747   3.654   6.819   7.440  0.7563  0.6375  0.5515
 6704TIP3    H241748   3.580   6.923   7.359  0.8877  0.2519 -0.0721
 6705TIP3   OH241749   6.219   5.352   2.724  0.2374 -0.4155  0.5123
 6705TIP3    H141750   6.140   5.372   2.674 -0.8253 -0.9196  1.9110
 6705TIP3    H241751   6.203   5.389   2.811  1.3351 -0.9441  0.9696
 6706TIP3   OH241752   3.408   6.379   1.756 -0.3008  0.2942  0.0235
 6706TIP3    H141753   3.360   6.416   1.830  0.6147 -1.2584  1.4679
 6706TIP3    H241754   3.374   6.290   1.747 -2.1070  1.1086 -3.0516
 6707TIP3   OH241755   1.480   3.875   8.668 -0.5848  0.7017 -0.1649
 6707TIP3    H141756   1.391   3.847   8.646  0.2446 -3.4373  0.9077
 6707TIP3    H241757   1.537   3.810   8.627  1.6316  0.3031  3.0942
 6708TIP3   OH241758   0.635   1.564   1.613 -0.6260  0.3490  0.7303
 6708TIP3    H141759   0.697   1.631   1.644  0.3517 -0.5774  0.8468
 6708TIP3    H241760   0.645   1.492   1.674 -1.2682 -0.1245  0.2882
 6709TIP3   OH241761   6.002   4.216   7.216  0.5188  0.6855 -0.3306
 6709TIP3    H141762   6.013   4.124   7.190  0.9366  0.9784 -1.2507
 6709TIP3    H241763   6.069   4.230   7.283 -0.2290  0.0514  0.5776
 6710TIP3   OH241764   6.835   2.571   0.980 -0.2352 -0.1007 -0.3679
 6710TIP3    H141765   6.747   2.604   0.996  0.2391  0.8606  0.3100
 6710TIP3    H241766   6.857   2.520   1.058 -0.5992 -1.3073 -1.0121
 6711TIP3   OH241767   4.529   2.459   2.595 -0.1285  0.1368  0.1945
 6711TIP3    H141768   4.589   2.458   2.520  1.3697  1.5361  1.2899
 6711TIP3    H241769   4.577   2.508   2.662 -3.1578  2.8837  0.5823
 6712TIP3   OH241770   4.389   6.348   2.108  0.2373 -0.6035  0.4179
 6712TIP3    H141771   4.339   6.415   2.062  1.4653 -0.7074 -1.1328
 6712TIP3    H241772   4.338   6.331   2.188 -0.4270  1.6906  0.5550
 6713TIP3   OH241773   4.850   0.795   8.575 -0.4317 -0.1100 -0.7273
 6713TIP3    H141774   4.919   0.846   8.533  0.2914  0.2858  0.8652
 6713TIP3    H241775   4.886   0.707   8.582 -1.2291 -0.6207 -2.4220
 6714TIP3   OH241776   0.679   2.190   7.973 -0.1914  0.5161 -0.8861
 6714TIP3    H141777   0.689   2.119   8.036 -0.3291  0.6698 -0.6901
 6714TIP3    H241778   0.701   2.269   8.023  2.7431  0.3849 -1.7934
 6715TIP3   OH241779   5.252   0.249   3.742  0.3538 -0.1215  0.0169
 6715TIP3    H141780   5.221   0.333   3.708  2.5048  0.3582 -0.9668
 6715TIP3    H241781   5.301   0.271   3.821  1.1124 -0.3953 -0.3645
 6716TIP3   OH241782   6.187   4.849   3.061 -0.7099  0.4436 -0.2645
 6716TIP3    H141783   6.247   4.921   3.078 -1.1329  0.9562 -0.9116
 6716TIP3    H241784   6.102   4.891   3.045 -0.9803 -0.1960 -0.5535
 6717TIP3   OH241785   6.798   5.698   8.567  0.2673 -0.4107 -0.6928
 6717TIP3    H141786   6.869   5.735   8.515 -0.1652 -0.9465 -1.6776
 6717TIP3    H241787   6.730   5.675   8.504  0.5482 -2.9954 -0.1781
 6718TIP3   OH241788   6.227   2.078   7.426  0.0632 -0.2924 -0.2047
 6718TIP3    H141789   6.218   2.002   7.369 -1.6503 -1.0099  0.9411
 6718TIP3    H241790   6.138   2.108   7.442  0.7074  2.2861 -0.9745
 6719TIP3   OH241791   5.908   2.041   0.455  0.7325  0.1536 -0.4047
 6719TIP3    H141792   5.977   2.000   0.403  1.4011 -0.3836  0.8531
 6719TIP3    H241793   5.953   2.106   0.509  0.7780 -1.8829  2.2439
 6720TIP3   OH241794   4.252   2.900   0.156 -0.3819  0.5988  0.4564
 6720TIP3    H141795   4.217   2.813   0.137 -1.8731  1.1433  0.5804
 6720TIP3    H241796   4.174   2.954   0.171  0.5391  1.8187  0.9654
 6721TIP3   OH241797   5.577   4.290   2.953  0.2138 -0.2619  0.1012
 6721TIP3    H141798   5.633   4.354   2.997 -0.3095  2.0418 -2.3493
 6721TIP3    H241799   5.536   4.241   3.024  0.5186  2.2278  2.1370
 6722TIP3   OH241800   4.193   2.572   2.010 -0.6530  0.3245  0.6427
 6722TIP3    H141801   4.268   2.513   2.016  1.3715  2.5113 -1.2147
 6722TIP3    H241802   4.146   2.544   1.931  1.2776  2.0881 -1.2399
 6723TIP3   OH241803   5.105   2.033   2.782  0.3275 -1.0168 -0.0456
 6723TIP3    H141804   5.025   2.041   2.833  0.9612  2.6893  0.6835
 6723TIP3    H241805   5.163   1.980   2.836 -0.8956 -1.9224  0.4116
 6724TIP3   OH241806   0.447   5.030   7.633  0.2871 -0.4505 -0.2503
 6724TIP3    H141807   0.514   5.029   7.564 -1.3442  0.2271 -1.9423
 6724TIP3    H241808   0.408   4.943   7.629 -1.0166  0.1534 -1.4966
 6725TIP3   OH241809   2.323   4.043   2.098  0.0985 -0.2254  0.4082
 6725TIP3    H141810   2.238   4.066   2.060  1.6113  1.8833 -2.1064
 6725TIP3    H241811   2.338   4.109   2.166  0.2027  0.2291 -0.0390
 6726TIP3   OH241812   5.448   4.318   2.415 -0.3011 -0.3311 -0.3468
 6726TIP3    H141813   5.524   4.260   2.428  0.4052  0.9459  1.4789
 6726TIP3    H241814   5.486   4.404   2.398 -1.3554 -0.0412 -1.3474
 6727TIP3   OH241815   4.873   6.636   1.537 -0.9780  0.2599 -0.4467
 6727TIP3    H141816   4.935   6.708   1.540 -0.6722 -0.0143 -0.0783
 6727TIP3    H241817   4.903   6.582   1.463  0.3099 -0.8200  0.8016
 6728TIP3   OH241818   5.739   1.379   3.323 -0.3562 -0.2593  0.4556
 6728TIP3    H141819   5.803   1.395   3.392  0.2887 -0.2355 -0.1345
 6728TIP3    H241820   5.664   1.433   3.347  0.2498  0.5269  0.6103
 6729TIP3   OH241821   4.254   6.181   7.964  0.0627  0.3597 -0.3327
 6729TIP3    H141822   4.264   6.115   8.032  1.7925  0.5242 -0.4065
 6729TIP3    H241823   4.234   6.262   8.011 -0.5930  0.1043 -0.1586
 6730TIP3   OH241824   6.205   1.437   0.335  0.1114 -0.7767 -0.1887
 6730TIP3    H141825   6.121   1.407   0.302  0.1410 -0.3552 -0.6438
 6730TIP3    H241826   6.239   1.362   0.384 -1.5646 -0.1909  2.0174
 6731TIP3   OH241827   2.965   4.219   1.330  0.5867 -0.1911 -0.2929
 6731TIP3    H141828   3.014   4.258   1.401  0.1819  0.5887 -0.4332
 6731TIP3    H241829   2.878   4.258   1.336  0.4789 -0.2943 -1.0671
 6732TIP3   OH241830   5.052   2.487   2.637 -0.5970 -0.0544 -0.4870
 6732TIP3    H141831   5.074   2.574   2.673  0.0903 -1.0158  1.5704
 6732TIP3    H241832   5.002   2.445   2.707 -0.2564 -1.5935 -1.1420
 6733TIP3   OH241833   1.380   0.136   3.401  0.2253  0.3130  0.1154
 6733TIP3    H141834   1.297   0.087   3.408  0.0832  0.5967  0.4218
 6733TIP3    H241835   1.354   0.220   3.362  0.0851  1.1045  1.8320
 6734TIP3   OH241836   6.847   4.561   0.448 -0.1061  0.9065  0.1193
 6734TIP3    H141837   6.861   4.581   0.355  0.7545 -0.3752 -0.0534
 6734TIP3    H241838   6.935   4.552   0.484 -0.4353  1.2641  1.0406
 6735TIP3   OH241839   3.873   5.284   0.327  0.1155  0.3707  0.0231
 6735TIP3    H141840   3.841   5.276   0.417 -2.3819  0.0369 -0.8176
 6735TIP3    H241841   3.915   5.370   0.324  0.6883  0.1813  1.6107
 6736TIP3   OH241842   1.839   4.304   0.580  0.2687  0.4299  0.1676
 6736TIP3    H141843   1.805   4.390   0.604  2.4296  1.5533 -0.5400
 6736TIP3    H241844   1.789   4.279   0.502 -1.4331  0.2923  1.2555
 6737TIP3   OH241845   3.474   4.743   8.101 -0.7904 -0.3366 -0.0502
 6737TIP3    H141846   3.421   4.808   8.147  0.8322  1.2116 -0.2190
 6737TIP3    H241847   3.540   4.795   8.055  0.8020 -2.1416  0.0561
 6738TIP3   OH241848   2.491   4.946   1.409  0.9872  0.2722  0.0531
 6738TIP3    H141849   2.563   4.962   1.470  0.7270 -1.0837  0.7557
 6738TIP3    H241850   2.531   4.903   1.334  0.5851 -3.9718  1.9597
 6739TIP3   OH241851   2.857   0.676   0.777  0.2516  0.6777 -0.3964
 6739TIP3    H141852   2.813   0.601   0.817 -1.6774  0.6616 -2.3760
 6739TIP3    H241853   2.948   0.667   0.806 -0.2009 -1.5844  0.6177
 6740TIP3   OH241854   5.758   3.039   2.095  0.3109  0.1196 -0.2375
 6740TIP3    H141855   5.751   3.000   2.007 -0.1388  0.3908 -0.3257
 6740TIP3    H241856   5.672   3.024   2.134  0.1425  0.9891 -0.2586
 6741TIP3   OH241857   6.205   5.190   8.168  0.3368 -0.5539 -0.2456
 6741TIP3    H141858   6.156   5.249   8.110  1.4671  0.3795 -0.2893
 6741TIP3    H241859   6.140   5.127   8.198 -0.9755  0.8391 -0.0325
 6742TIP3   OH241860   3.607   0.430   0.146  0.0484  0.0457  0.0033
 6742TIP3    H141861   3.598   0.410   0.239  1.2618 -0.5271  0.0213
 6742TIP3    H241862   3.668   0.504   0.144  0.7795 -0.5472 -0.3576
 6743TIP3   OH241863   2.697   0.624   1.830  0.6946  0.4995  0.0880
 6743TIP3    H141864   2.688   0.604   1.923 -0.0879 -1.2211 -0.3091
 6743TIP3    H241865   2.787   0.600   1.809  0.3300 -0.8661  0.0326
 6744TIP3   OH241866   4.827   1.868   8.210 -0.2417  0.0327  0.1171
 6744TIP3    H141867   4.785   1.788   8.178 -1.5374 -0.3945  2.7130
 6744TIP3    H241868   4.903   1.837   8.260  3.2043  0.7638 -4.0072
 6745TIP3   OH241869   5.615   4.482   0.379  0.3752  0.7228  0.5553
 6745TIP3    H141870   5.621   4.479   0.284  1.5622 -2.9019  0.5761
 6745TIP3    H241871   5.521   4.481   0.397  0.1348  1.4246 -0.5519
 6746TIP3   OH241872   0.104   4.321   2.324 -0.3358 -0.1039 -0.1545
 6746TIP3    H141873   0.075   4.398   2.276  1.8269  0.7131 -0.2611
 6746TIP3    H241874   0.152   4.268   2.260  1.8410  0.5832  0.8000
 6747TIP3   OH241875   3.109   1.964   3.073  1.1493 -0.2343  0.5332
 6747TIP3    H141876   3.157   1.946   2.992 -0.9259  0.5488 -0.9464
 6747TIP3    H241877   3.136   2.053   3.096  2.4024 -0.7673  1.2388
 6748TIP3   OH241878   5.846   0.403   8.139 -0.6198 -0.5934 -0.2159
 6748TIP3    H141879   5.829   0.397   8.233  1.8912  0.6349  0.4003
 6748TIP3    H241880   5.779   0.462   8.106 -1.2073 -0.6175  0.8957
 6749TIP3   OH241881   0.864   1.873   2.101  0.2709 -0.6208 -0.1836
 6749TIP3    H141882   0.806   1.881   2.025 -1.6363  0.2087  1.2758
 6749TIP3    H241883   0.922   1.801   2.079 -0.7478 -0.9301 -2.0890
 6750TIP3   OH241884   4.186   5.679   2.148  0.0917 -0.1672 -0.0569
 6750TIP3    H141885   4.129   5.756   2.146 -0.1347 -0.3376 -0.2185
 6750TIP3    H241886   4.274   5.714   2.136 -0.0209  0.0565 -0.2408
 6751TIP3   OH241887   4.277   5.984   2.119  0.2811  0.1306  0.1536
 6751TIP3    H141888   4.318   6.051   2.065 -0.3492  0.3920 -0.0054
 6751TIP3    H241889   4.347   5.920   2.134  0.6742  0.4394 -0.3215
 6752TIP3   OH241890   3.339   3.166   8.199 -0.4010  0.0479  0.6393
 6752TIP3    H141891   3.246   3.159   8.176 -0.2058  1.8801 -0.9425
 6752TIP3    H241892   3.342   3.232   8.268 -0.2113  0.9695 -0.2117
 6753TIP3   OH241893   0.450   5.183   2.555 -0.0585  0.0621  0.0431
 6753TIP3    H141894   0.456   5.189   2.460  0.1465 -0.0535  0.0473
 6753TIP3    H241895   0.363   5.148   2.572 -0.7409  1.6223 -0.0381
 6754TIP3   OH241896   2.693   1.929   8.438  0.0183  0.0458 -0.1881
 6754TIP3    H141897   2.709   1.965   8.351 -0.0957  0.7671  0.0832
 6754TIP3    H241898   2.773   1.949   8.487 -0.2840  0.4735  0.1376
 6755TIP3   OH241899   1.648   2.459   2.282 -0.2199  0.1575  0.0240
 6755TIP3    H141900   1.575   2.516   2.308 -0.9706 -0.5935 -0.4033
 6755TIP3    H241901   1.613   2.370   2.286  0.5683 -0.1987 -0.5254
 6756TIP3   OH241902   4.914   2.609   0.014  0.7789 -0.0915  0.2316
 6756TIP3    H141903   4.958   2.569   0.088  1.5167 -1.8770 -1.1022
 6756TIP3    H241904   4.983   2.658  -0.031  0.8796 -0.9208 -0.5354
 6757TIP3   OH241905   1.888   5.634   0.575 -0.2692  0.4919 -0.1189
 6757TIP3    H141906   1.811   5.676   0.539 -1.3666 -0.2434  1.2734
 6757TIP3    H241907   1.868   5.540   0.573  0.8051  0.2438 -0.2173
 6758TIP3   OH241908   5.095   5.805   7.822  0.1227  0.3802  0.4799
 6758TIP3    H141909   5.022   5.863   7.798 -2.1956 -2.4850  0.1174
 6758TIP3    H241910   5.158   5.817   7.751 -0.6534  1.7935 -0.0220
 6759TIP3   OH241911   4.201   6.251   1.832 -0.1508  0.7022 -0.2538
 6759TIP3    H141912   4.129   6.201   1.792 -0.5809  0.7953  0.3954
 6759TIP3    H241913   4.239   6.301   1.759  0.5830 -0.8927 -1.0128
 6760TIP3   OH241914   2.415   5.235   8.668 -0.5493  0.0136  0.2275
 6760TIP3    H141915   2.377   5.276   8.745  0.5052 -0.6820  1.1536
 6760TIP3    H241916   2.371   5.276   8.594 -2.5710 -0.2686  1.2204
 6761TIP3   OH241917   2.590   6.627   2.784 -0.0080 -0.2790  0.5066
 6761TIP3    H141918   2.598   6.646   2.878  0.4218 -0.6192  0.5392
 6761TIP3    H241919   2.588   6.713   2.742  2.7304 -0.0959  0.5796
 6762TIP3   OH241920   1.922   0.018   3.154  0.0014 -0.1013  0.0652
 6762TIP3    H141921   2.003   0.039   3.200 -0.0917  0.1550  0.1164
 6762TIP3    H241922   1.854   0.027   3.220  0.0831 -1.8712  0.4186
 6763TIP3   OH241923   6.381   1.642   8.578  0.8316 -0.2867 -0.4031
 6763TIP3    H141924   6.321   1.637   8.652 -1.9036 -1.6044 -2.4897
 6763TIP3    H241925   6.440   1.568   8.589 -0.9712 -1.8359 -0.5563
 6764TIP3   OH241926   3.842   0.147   1.698 -0.0063  0.3295 -0.3755
 6764TIP3    H141927   3.824   0.225   1.751  0.8483  1.6498 -1.9573
 6764TIP3    H241928   3.824   0.074   1.757 -0.3880  1.7112  1.3051
 6765TIP3   OH241929   3.062   4.796   8.195 -0.5202  0.1601  0.5151
 6765TIP3    H141930   3.125   4.863   8.224  0.6760  0.3769 -2.3043
 6765TIP3    H241931   3.072   4.726   8.260  1.1768  1.0391  1.2899
 6766TIP3   OH241932   6.467   5.241   8.407 -1.5765  0.0393 -0.3071
 6766TIP3    H141933   6.478   5.286   8.491 -1.0110  1.6312 -1.2079
 6766TIP3    H241934   6.486   5.149   8.427 -0.8308  0.4893  1.1692
 6767TIP3   OH241935   3.251   2.458   7.881  0.4005 -0.0994  0.8155
 6767TIP3    H141936   3.182   2.503   7.929 -0.5493 -1.0839  0.3880
 6767TIP3    H241937   3.328   2.515   7.891  0.0356  0.1060  2.8379
 6768TIP3   OH241938   5.744   2.362   3.256 -0.4126  0.9455  0.7710
 6768TIP3    H141939   5.728   2.432   3.320 -2.3487 -0.7301  2.2450
 6768TIP3    H241940   5.775   2.288   3.309 -0.1716  0.1173 -0.5042
 6769TIP3   OH241941   6.546   4.286   8.218 -0.1114  0.0402  0.0406
 6769TIP3    H141942   6.611   4.353   8.194  0.7726 -0.9961 -0.5771
 6769TIP3    H241943   6.491   4.329   8.284 -1.1013  2.1997 -2.0208
 6770TIP3   OH241944   0.163   0.209   8.463 -0.4993  0.5053  0.8097
 6770TIP3    H141945   0.078   0.169   8.484 -0.4786 -0.0897 -0.2012
 6770TIP3    H241946   0.222   0.176   8.531 -0.7280 -0.3320  0.6141
 6771TIP3   OH241947   2.964   0.118   7.933  0.0151 -0.2294  0.0663
 6771TIP3    H141948   3.000   0.073   7.857 -1.8365 -2.3292  0.3104
 6771TIP3    H241949   2.947   0.207   7.904  1.1958 -0.4414 -1.3486
 6772TIP3   OH241950   2.470   3.416   2.180 -0.6754  0.8084 -0.1389
 6772TIP3    H141951   2.401   3.351   2.191 -0.0789  0.5465  2.9456
 6772TIP3    H241952   2.510   3.395   2.096 -2.4583 -0.8648 -0.6357
 6773TIP3   OH241953   3.614   6.523   2.657  0.3665  0.8173  0.1860
 6773TIP3    H141954   3.628   6.484   2.744 -0.1512 -0.7307 -0.3989
 6773TIP3    H241955   3.545   6.587   2.671 -1.4732 -1.1388  0.5114
 6774TIP3   OH241956   0.751   4.028   0.899 -0.0850  0.3902 -0.8912
 6774TIP3    H141957   0.813   3.989   0.961 -1.3562 -0.1662  0.0859
 6774TIP3    H241958   0.754   3.971   0.822  1.3852  0.9875 -1.3070
 6775TIP3   OH241959   5.495   4.120   7.575  0.3622 -0.4150 -0.2135
 6775TIP3    H141960   5.461   4.207   7.551 -1.6038 -0.9357  0.4682
 6775TIP3    H241961   5.493   4.120   7.671  0.4775 -1.1660 -0.2079
 6776TIP3   OH241962   2.245   4.733   2.251  0.3502  0.0803 -0.2617
 6776TIP3    H141963   2.251   4.745   2.345 -1.4855  0.5002 -0.1470
 6776TIP3    H241964   2.152   4.716   2.235  0.6376 -0.0928 -1.9811
 6777TIP3   OH241965   5.042   4.986   0.717  0.1034  0.1876 -0.1155
 6777TIP3    H141966   4.948   4.970   0.713  0.1692 -0.0103 -1.1429
 6777TIP3    H241967   5.075   4.917   0.775 -0.3763  0.2552  0.2494
 6778TIP3   OH241968   0.235   5.324   3.283 -0.3842  0.1603 -0.7446
 6778TIP3    H141969   0.206   5.386   3.350 -2.5076  0.0734 -1.5183
 6778TIP3    H241970   0.282   5.378   3.220 -2.1496  1.0462 -1.3726
 6779TIP3   OH241971   3.866   6.080   8.502  0.0465  0.1210  0.8676
 6779TIP3    H141972   3.955   6.048   8.518 -0.3141  0.0476  2.9568
 6779TIP3    H241973   3.869   6.173   8.526  0.2544  0.9309 -1.9602
 6780TIP3   OH241974   1.934   2.488   1.140  0.2818  0.3698  0.1150
 6780TIP3    H141975   1.987   2.499   1.219  1.8046  1.2325 -0.9763
 6780TIP3    H241976   1.843   2.496   1.171  0.6836 -1.7392  2.1233
 6781TIP3   OH241977   4.235   4.137   0.401 -0.1889  0.0607  0.6531
 6781TIP3    H141978   4.303   4.082   0.439 -0.2883 -1.8319 -1.6819
 6781TIP3    H241979   4.155   4.114   0.449  0.0866 -0.6480  0.7768
 6782TIP3   OH241980   0.327   6.413   1.941  0.7064  0.2275 -0.3016
 6782TIP3    H141981   0.344   6.370   2.025  0.6177 -0.7087 -0.7518
 6782TIP3    H241982   0.334   6.507   1.960  0.3960  0.0384  0.8111
 6783TIP3   OH241983   4.642   5.945   7.634 -0.0580 -0.8784  0.1218
 6783TIP3    H141984   4.654   5.903   7.549  3.3565  0.9191 -0.4876
 6783TIP3    H241985   4.566   6.001   7.623 -0.8245 -2.1006 -1.1017
 6784TIP3   OH241986   6.396   6.868   2.898 -0.6371  0.6686  0.1954
 6784TIP3    H141987   6.319   6.903   2.943 -0.8486  0.6580 -0.1568
 6784TIP3    H241988   6.465   6.931   2.916 -0.0753 -0.4748  2.4981
 6785TIP3   OH241989   4.877   4.814   1.964  0.2482 -0.3427 -0.2788
 6785TIP3    H141990   4.965   4.848   1.982  0.7832 -1.4930 -0.6004
 6785TIP3    H241991   4.843   4.788   2.049  0.9114 -1.4538 -0.3302
 6786TIP3   OH241992   1.585   6.421   0.277  0.4344  0.0271 -0.2055
 6786TIP3    H141993   1.634   6.470   0.212 -1.2672  0.8569 -0.9354
 6786TIP3    H241994   1.533   6.359   0.226 -0.5374  0.3369  0.3687
 6787TIP3   OH241995   2.140   6.606   1.813  0.2336  0.4039 -0.2004
 6787TIP3    H141996   2.147   6.678   1.875 -2.3612  0.3541  0.2730
 6787TIP3    H241997   2.098   6.645   1.736 -0.1933 -0.3528 -0.3602
 6788TIP3   OH241998   0.449   1.807   2.915 -0.4492 -0.4540 -0.4443
 6788TIP3    H141999   0.364   1.849   2.907 -0.5551 -0.6347 -0.2906
 6788TIP3    H242000   0.444   1.757   2.997 -0.3251 -0.7580 -0.6182
 6789TIP3   OH242001   3.953   5.241   8.025 -0.1775 -0.1697  0.4827
 6789TIP3    H142002   4.027   5.294   8.056 -0.8136  1.4750 -0.6588
 6789TIP3    H242003   3.911   5.209   8.105  1.4108 -0.6599  1.1617
 6790TIP3   OH242004   1.193   3.983   0.012  1.0038  0.0849  0.3264
 6790TIP3    H142005   1.230   3.948   0.093 -0.4354  1.8933  1.8581
 6790TIP3    H242006   1.106   3.944   0.006  0.6969  0.7631  0.2344
 6791TIP3   OH242007   5.918   1.571   1.804  0.3706  0.0789 -0.1121
 6791TIP3    H142008   5.897   1.478   1.813  0.8648 -0.0138  0.0832
 6791TIP3    H242009   5.899   1.591   1.712  1.9230 -0.6407 -0.6176
 6792TIP3   OH242010   4.260   5.071   2.093  0.0932  0.7749  0.1396
 6792TIP3    H142011   4.326   5.096   2.158 -0.1577  2.6613 -0.2765
 6792TIP3    H242012   4.307   5.071   2.010 -0.4639  2.5518 -0.2203
 6793TIP3   OH242013   2.722   2.480   0.451 -0.2025 -0.1554 -0.3079
 6793TIP3    H142014   2.635   2.447   0.429 -0.0543 -0.4636 -0.4375
 6793TIP3    H242015   2.730   2.561   0.401 -0.7147  0.2873  0.3046
 6794TIP3   OH242016   0.550   3.740   8.191  0.1154 -0.6719  0.1775
 6794TIP3    H142017   0.544   3.776   8.102 -2.4065  1.9540  1.2480
 6794TIP3    H242018   0.472   3.686   8.201 -1.2529  1.4119  1.6072
 6795TIP3   OH242019   6.380   6.788   2.451  0.1592 -0.1560  0.3002
 6795TIP3    H142020   6.350   6.781   2.360  0.3238  0.6122  0.1831
 6795TIP3    H242021   6.308   6.753   2.503  0.0156 -0.4866 -0.1165
 6796TIP3   OH242022   1.978   0.241   1.839 -0.1388  0.0837 -0.4487
 6796TIP3    H142023   1.973   0.200   1.752  1.5098  0.3538 -0.7077
 6796TIP3    H242024   2.046   0.308   1.830  0.3282 -0.1318  1.1595
 6797TIP3   OH242025   5.333   0.964   2.124  0.4163 -0.0992  0.0464
 6797TIP3    H142026   5.367   0.874   2.116 -0.2845 -0.3338 -0.3710
 6797TIP3    H242027   5.341   1.001   2.037 -3.1081 -1.1706 -0.8954
 6798TIP3   OH242028   6.439   4.883   2.018  0.0670  0.3243  0.0210
 6798TIP3    H142029   6.456   4.792   1.995  0.7084  0.2625  0.7050
 6798TIP3    H242030   6.364   4.908   1.964  1.7141  0.2989 -2.4403
 6799TIP3   OH242031   2.296   2.938   1.814  0.2743  0.0641  0.5333
 6799TIP3    H142032   2.228   2.878   1.845 -0.1809  0.7157  0.8105
 6799TIP3    H242033   2.332   2.895   1.737  1.3213 -1.5165  1.8370
 6800TIP3   OH242034   6.035   4.937   8.250  0.1499  0.2034  0.2770
 6800TIP3    H142035   6.004   4.874   8.316  0.8560 -0.3327  0.1201
 6800TIP3    H242036   5.964   4.999   8.240 -1.6872 -1.9657 -1.3848
 6801TIP3   OH242037   4.691   5.390   8.017 -0.0948 -0.7511 -0.1268
 6801TIP3    H142038   4.596   5.402   8.021 -0.2390 -1.3369 -1.2724
 6801TIP3    H242039   4.703   5.305   7.976  0.9386 -1.0016  0.6460
 6802TIP3   OH242040   1.712   4.652   1.259  1.2100  0.0984  0.0538
 6802TIP3    H142041   1.721   4.664   1.353 -2.2455  2.2807  0.2687
 6802TIP3    H242042   1.757   4.728   1.221  1.4285 -0.0617 -0.0130
 6803TIP3   OH242043   4.413   5.211   8.484  0.2204 -0.1734  0.4626
 6803TIP3    H142044   4.466   5.284   8.516  0.5366 -0.3011  0.2355
 6803TIP3    H242045   4.444   5.135   8.534 -0.7868  0.0149  1.4145
 6804TIP3   OH242046   0.970   5.162   1.946 -0.0975  0.2167 -0.7405
 6804TIP3    H142047   0.952   5.088   1.888  0.4025  0.3210 -1.0400
 6804TIP3    H242048   1.059   5.189   1.923 -0.2868  0.9310 -0.6667
 6805TIP3   OH242049   4.439   6.253   7.757  0.6659  0.6253 -0.1761
 6805TIP3    H142050   4.378   6.206   7.814 -2.6049  1.9653 -2.2382
 6805TIP3    H242051   4.437   6.204   7.674  2.8628  0.4579 -0.1870
 6806TIP3   OH242052   1.804   1.148   1.499  0.6277 -0.1070 -0.0174
 6806TIP3    H142053   1.791   1.243   1.497 -0.5988 -0.2694 -1.0241
 6806TIP3    H242054   1.728   1.115   1.547  0.5152 -0.6557 -0.5678
 6807TIP3   OH242055   0.897   2.487   8.645 -0.5865  0.2971  0.9925
 6807TIP3    H142056   0.888   2.394   8.669 -0.8085 -0.3771 -1.4236
 6807TIP3    H242057   0.991   2.501   8.642 -0.5384 -0.0292  0.8342
 6808TIP3   OH242058   3.177   3.750   8.230  0.4950  0.0882 -0.1642
 6808TIP3    H142059   3.117   3.816   8.266  0.6513  0.7464 -1.0647
 6808TIP3    H242060   3.246   3.742   8.296  1.7909  2.6820 -1.0601
 6809TIP3   OH242061   3.672   4.172   1.268  0.1468 -0.3670 -0.4123
 6809TIP3    H142062   3.764   4.149   1.282 -0.2684 -1.2246  1.0913
 6809TIP3    H242063   3.674   4.265   1.249  1.3299 -0.3806 -0.4760
 6810TIP3   OH242064   3.259   3.233   2.076  0.0016 -0.6499 -0.7942
 6810TIP3    H142065   3.319   3.170   2.035  0.4599 -0.5907 -0.2199
 6810TIP3    H242066   3.301   3.318   2.063  0.7662 -0.7426  0.8443
 6811TIP3   OH242067   2.777   1.002   0.582 -0.4135  0.1603  0.8823
 6811TIP3    H142068   2.721   1.008   0.505 -0.1657 -0.1467  0.6766
 6811TIP3    H242069   2.823   0.919   0.572  0.8578  0.8862  0.5175
 6812TIP3   OH242070   3.703   3.781   1.793 -0.1343  0.4034 -0.9125
 6812TIP3    H142071   3.736   3.864   1.829 -1.2668  1.8667 -3.0104
 6812TIP3    H242072   3.627   3.807   1.740 -0.2630 -1.9399 -1.9764
 6813TIP3   OH242073   2.858   4.762   1.163 -0.0726 -0.3175 -0.1408
 6813TIP3    H142074   2.862   4.668   1.182 -0.1200 -0.4712 -0.8621
 6813TIP3    H242075   2.815   4.768   1.078  1.9661  0.1900 -1.2187
 6814TIP3   OH242076   0.568   1.218   0.171 -0.1024  1.1758  0.1694
 6814TIP3    H142077   0.569   1.293   0.230  0.4315  2.2170 -1.1022
 6814TIP3    H242078   0.495   1.164   0.202  0.7633  1.1611  2.3521
 6815TIP3   OH242079   5.758   1.534   7.312  0.2942  0.2881  0.8248
 6815TIP3    H142080   5.807   1.453   7.328 -0.4336  0.0058  1.6892
 6815TIP3    H242081   5.754   1.541   7.217  2.3185  0.5202  0.7128
 6816TIP3   OH242082   0.721   3.058   2.300  0.0598 -0.3911  0.3132
 6816TIP3    H142083   0.654   3.036   2.366  0.1214  1.6321  1.1300
 6816TIP3    H242084   0.671   3.094   2.227  0.0274 -2.2297 -0.6161
 6817TIP3   OH242085   1.882   0.746   2.529 -0.3481  0.1406 -0.3889
 6817TIP3    H142086   1.842   0.805   2.594  0.2978  0.4526 -0.2702
 6817TIP3    H242087   1.950   0.799   2.487 -1.6073  0.3764 -2.2496
 6818TIP3   OH242088   0.550   4.575   1.138 -0.1470  0.3517  0.1511
 6818TIP3    H142089   0.486   4.644   1.155 -1.4973 -0.6875 -0.5850
 6818TIP3    H242090   0.517   4.530   1.060  1.1175 -0.6634  0.1707
 6819TIP3   OH242091   0.208   3.819   0.301 -0.0821  0.2181 -0.3192
 6819TIP3    H142092   0.241   3.752   0.360 -1.1226 -0.8900 -0.9483
 6819TIP3    H242093   0.155   3.771   0.237 -2.5974  1.8108  0.4111
 6820TIP3   OH242094   5.693   5.985   1.906  0.4625  0.1570  0.6370
 6820TIP3    H142095   5.637   5.924   1.953 -0.2678  2.5473  3.1909
 6820TIP3    H242096   5.782   5.953   1.921  0.0212 -1.2083  0.4074
 6821TIP3   OH242097   4.300   6.534   8.651  0.0247 -0.3696 -0.7780
 6821TIP3    H142098   4.372   6.471   8.659 -0.4310 -1.4309 -3.7727
 6821TIP3    H242099   4.343   6.618   8.637  0.6517 -0.5886 -0.2096
 6822TIP3   OH242100   0.906   4.943   1.799 -0.7237 -0.1141 -0.3441
 6822TIP3    H142101   0.826   4.901   1.766 -2.2340  2.7583 -0.6025
 6822TIP3    H242102   0.931   5.005   1.731  0.4548  0.6176  0.7171
 6823TIP3   OH242103   0.418   4.597   0.444  0.6616  0.9596  0.4759
 6823TIP3    H142104   0.504   4.604   0.403 -0.2532  1.4779 -1.4680
 6823TIP3    H242105   0.437   4.572   0.534  2.7588 -1.0337 -0.4079
 6824TIP3   OH242106   4.279   3.569   0.931  0.1058  0.7052 -0.0260
 6824TIP3    H142107   4.321   3.587   1.015 -1.0874 -0.7319  0.9244
 6824TIP3    H242108   4.192   3.536   0.954 -0.4434  0.7770 -1.8465
 6825TIP3   OH242109   5.467   4.581   2.999 -0.4366  0.1356  0.1395
 6825TIP3    H142110   5.466   4.665   3.045  0.8090  0.4051 -0.2874
 6825TIP3    H242111   5.549   4.540   3.025 -0.6660 -0.6063 -0.2691
 6826TIP3   OH242112   0.021   2.647   0.473  0.0551  0.5859  0.0870
 6826TIP3    H142113   0.026   2.714   0.541 -1.0880  0.1505  0.6361
 6826TIP3    H242114  -0.071   2.620   0.474 -0.2156  1.2220 -2.2741
 6827TIP3   OH242115   0.040   5.388   8.135 -0.4530 -0.5205 -0.2417
 6827TIP3    H142116   0.130   5.368   8.109 -0.8791 -0.7661 -1.6487
 6827TIP3    H242117   0.042   5.481   8.158  0.3753 -0.7928  0.8015
 6828TIP3   OH242118   6.254   4.606   1.665  0.5696  0.3764  0.3447
 6828TIP3    H142119   6.282   4.515   1.660 -3.3279 -0.9593 -3.4182
 6828TIP3    H242120   6.325   4.656   1.627  1.2189 -1.6694 -1.3060
 6829TIP3   OH242121   6.730   1.125   1.914 -0.3816  0.3536 -0.6754
 6829TIP3    H142122   6.725   1.220   1.918  2.4032  0.5422  0.3317
 6829TIP3    H242123   6.717   1.096   2.004 -0.7651 -0.2048 -0.9024
 6830TIP3   OH242124   1.296   2.719   2.257  0.1596  0.6093  0.3515
 6830TIP3    H142125   1.350   2.702   2.334 -0.9926 -2.2212  0.6482
 6830TIP3    H242126   1.265   2.633   2.229 -2.0791  1.8521 -1.3738
 6831TIP3   OH242127   3.604   2.490   0.124 -0.1814 -0.3492  0.5461
 6831TIP3    H142128   3.679   2.467   0.178  1.1787  2.1500 -0.0888
 6831TIP3    H242129   3.594   2.585   0.137 -2.1666 -0.3367 -0.7047
 6832TIP3   OH242130   5.758   2.967   0.019 -0.1201 -0.0782  0.3926
 6832TIP3    H142131   5.739   3.041   0.076 -3.2188 -0.6637  0.2763
 6832TIP3    H242132   5.748   3.002  -0.070  0.7395 -0.1096  0.2755
 6833TIP3   OH242133   6.302   5.264   2.019 -0.1909 -0.1040  0.1882
 6833TIP3    H142134   6.254   5.250   2.100 -1.3755  1.7287 -0.1346
 6833TIP3    H242135   6.393   5.242   2.041 -1.0899 -4.2396  0.6584
 6834TIP3   OH242136   4.340   2.388   6.891  0.0990  0.8486  0.5026
 6834TIP3    H142137   4.397   2.445   6.942 -2.1174  2.4888  1.3298
 6834TIP3    H242138   4.315   2.441   6.815  0.6250 -0.2900 -0.4922
 6835TIP3   OH242139   2.108   5.422   2.899 -0.8020 -0.3754 -0.4011
 6835TIP3    H142140   2.033   5.362   2.905 -1.1950  0.1756  0.4859
 6835TIP3    H242141   2.124   5.432   2.805 -0.8008 -1.7675 -0.5700
 6836TIP3   OH242142   2.467   1.975   0.393  0.5192 -0.3575  0.4637
 6836TIP3    H142143   2.392   1.974   0.334  2.1550  2.8999 -2.0585
 6836TIP3    H242144   2.429   1.967   0.480 -2.4156 -1.6578 -0.7856
 6837TIP3   OH242145   4.520   4.331   2.071 -0.4329 -0.0659  0.2074
 6837TIP3    H142146   4.543   4.302   1.983 -0.6180 -0.6047  0.3317
 6837TIP3    H242147   4.531   4.426   2.069  1.1478 -0.2363  0.0897
 6838TIP3   OH242148   1.293   0.444   8.638  0.3335 -0.3101  0.5269
 6838TIP3    H142149   1.215   0.453   8.583  0.8427 -0.8560 -0.3005
 6838TIP3    H242150   1.292   0.353   8.666  1.2770 -0.6328 -0.4340
 6839TIP3   OH242151   5.404   0.562   3.602 -0.5567 -0.6094 -0.4937
 6839TIP3    H142152   5.318   0.576   3.642 -1.0349  0.2482 -1.7535
 6839TIP3    H242153   5.389   0.575   3.508  1.3243  1.5527 -0.5754
 6840TIP3   OH242154   0.547   4.496   0.663  0.5668  0.2138 -0.1967
 6840TIP3    H142155   0.632   4.519   0.699  1.0387 -1.6710 -0.0114
 6840TIP3    H242156   0.516   4.424   0.717 -0.5528  0.0019 -1.0719
 6841TIP3   OH242157   0.276   1.186   2.779  0.0192 -0.3231  0.2894
 6841TIP3    H142158   0.274   1.235   2.862  1.5338  0.1036  0.1038
 6841TIP3    H242159   0.352   1.221   2.733 -1.2132 -0.0523 -1.6183
 6842TIP3   OH242160   0.803   2.164   2.528  0.4469 -0.5111  0.0141
 6842TIP3    H142161   0.765   2.141   2.443 -0.8281 -0.8783  0.6465
 6842TIP3    H242162   0.732   2.148   2.590  1.1714  0.3111  1.0837
 6843TIP3   OH242163   2.635   4.629   1.286  0.3001  0.6663 -0.5067
 6843TIP3    H142164   2.546   4.610   1.314  0.6774  1.1073  1.0789
 6843TIP3    H242165   2.625   4.680   1.205 -0.8044 -1.2945 -1.6730
 6844TIP3   OH242166   0.413   6.515   2.733 -0.2440 -0.3461 -0.0231
 6844TIP3    H142167   0.334   6.540   2.780 -0.4026  0.3309 -0.6220
 6844TIP3    H242168   0.483   6.519   2.798 -0.5029  0.2866  0.2189
 6845TIP3   OH242169   4.690   5.579   2.148  0.0764 -0.0267 -0.2936
 6845TIP3    H142170   4.778   5.618   2.143  0.9862 -1.7720  0.7083
 6845TIP3    H242171   4.704   5.488   2.123 -1.6131 -0.1631 -0.8078
 6846TIP3   OH242172   3.917   1.040   0.587  0.2440  0.2723 -0.0358
 6846TIP3    H142173   4.000   0.993   0.580  0.1417 -0.1627  1.3758
 6846TIP3    H242174   3.862   1.002   0.518  0.6852 -0.5665  0.0634
 6847TIP3   OH242175   1.565   2.632   1.008  0.0432  0.3052 -0.1272
 6847TIP3    H142176   1.605   2.669   0.930  3.3560 -1.6576  0.4316
 6847TIP3    H242177   1.553   2.539   0.987 -2.4432  0.3952  0.5301
 6848TIP3   OH242178   5.623   1.837   1.509  0.0865  0.7016  0.6033
 6848TIP3    H142179   5.580   1.912   1.551 -0.8034  0.2588  0.5109
 6848TIP3    H242180   5.581   1.760   1.549  1.2851  0.2358  0.9992
 6849TIP3   OH242181   0.080   3.798   8.231  0.5457  0.6832  0.1037
 6849TIP3    H142182   0.090   3.876   8.176  1.5283 -0.5550 -1.5178
 6849TIP3    H242183   0.155   3.743   8.210 -0.7347 -1.2443  0.3344
 6850TIP3   OH242184   0.591   6.320   2.036  0.2154  0.2339  0.0355
 6850TIP3    H142185   0.650   6.247   2.056 -0.3121 -0.2346 -0.0890
 6850TIP3    H242186   0.623   6.356   1.954  1.7547  1.4909  1.1119
 6851TIP3   OH242187   2.005   2.513   2.517  0.7714  0.0563  0.6539
 6851TIP3    H142188   1.919   2.527   2.555  0.4199 -1.5552  0.4944
 6851TIP3    H242189   2.056   2.590   2.544 -1.0874  1.7623 -0.4571
 6852TIP3   OH242190   5.788   0.934   1.924 -0.2261 -0.4441 -0.6147
 6852TIP3    H142191   5.719   0.868   1.917 -0.8363  0.1767 -0.5892
 6852TIP3    H242192   5.779   0.968   2.014  0.5141 -0.7892 -0.4063
 6853TIP3   OH242193   0.608   3.187   0.137  0.0675 -0.0773  0.2015
 6853TIP3    H142194   0.545   3.135   0.186 -1.8301  1.9590  0.0781
 6853TIP3    H242195   0.674   3.212   0.201  0.3655 -1.5839  0.5162
 6854TIP3   OH242196   4.851   6.453   3.485  0.3104  0.2956 -0.0177
 6854TIP3    H142197   4.848   6.548   3.476  0.2852  0.5165  1.8364
 6854TIP3    H242198   4.759   6.427   3.493  0.1442 -0.2023 -2.7682
 6855TIP3   OH242199   4.676   6.870   6.935 -0.0939  0.1227  0.1898
 6855TIP3    H142200   4.672   6.861   7.031 -1.0107  1.3332  0.2870
 6855TIP3    H242201   4.673   6.780   6.903 -2.7194 -0.2540  1.2441
 6856TIP3   OH242202   4.267   0.177   3.137 -0.4130 -0.4661  0.3651
 6856TIP3    H142203   4.318   0.239   3.189 -0.3375 -0.8054  0.7063
 6856TIP3    H242204   4.328   0.106   3.117 -0.3389 -0.1608 -0.5143
 6857TIP3   OH242205   4.629   4.720   2.294  0.2939 -0.6506 -0.2132
 6857TIP3    H142206   4.575   4.716   2.373  1.8972 -2.0849  0.9031
 6857TIP3    H242207   4.669   4.806   2.297 -1.1964  0.0801 -0.5762
 6858TIP3   OH242208   3.170   5.116   1.410  0.0211 -0.5117  0.1927
 6858TIP3    H142209   3.242   5.179   1.414 -0.1640 -0.3327  0.9778
 6858TIP3    H242210   3.127   5.134   1.326  0.2783  0.0696  0.1786
 6859TIP3   OH242211   1.207   1.123   1.981  0.3543  0.1161 -0.2568
 6859TIP3    H142212   1.130   1.100   1.928  1.1098 -3.3146 -0.0443
 6859TIP3    H242213   1.171   1.141   2.068 -0.2649 -0.8949 -0.2932
 6860TIP3   OH242214   1.600   5.912   8.132  0.4009 -0.5131  0.4877
 6860TIP3    H142215   1.562   5.869   8.056 -0.8508 -1.4735  1.6075
 6860TIP3    H242216   1.680   5.863   8.150 -1.3173 -2.9423  2.1317
 6861TIP3   OH242217   3.688   1.271   8.512  0.0034 -0.3129 -0.0264
 6861TIP3    H142218   3.605   1.291   8.468 -0.7072  0.4904  1.5630
 6861TIP3    H242219   3.702   1.178   8.497  0.2684  0.0727 -2.6299
 6862TIP3   OH242220   0.788   2.011   0.513 -0.2698 -0.1273 -0.2309
 6862TIP3    H142221   0.872   2.057   0.503  1.4040 -2.8282  0.4062
 6862TIP3    H242222   0.773   2.009   0.607  0.7839 -2.5335 -0.0388
 6863TIP3   OH242223   0.256   5.843   7.949  0.0736  0.5618 -0.1507
 6863TIP3    H142224   0.272   5.911   7.883 -0.6672  1.1657  0.2752
 6863TIP3    H242225   0.331   5.850   8.008 -0.5077  1.7251  0.4727
 6864TIP3   OH242226   3.449   4.588   1.272 -0.2616  0.4193  0.4654
 6864TIP3    H142227   3.484   4.670   1.236 -1.8542  0.2477 -1.7129
 6864TIP3    H242228   3.456   4.598   1.367  0.3797  2.7131  0.2312
 6865TIP3   OH242229   0.068   1.196   1.505 -0.1804  0.1617 -0.0113
 6865TIP3    H142230   0.151   1.235   1.532  0.2714  0.9366 -2.2386
 6865TIP3    H242231   0.033   1.257   1.440 -2.9007  0.2103  1.3665
 6866TIP3   OH242232   2.026   4.495   1.201 -0.2639 -0.1683 -0.2740
 6866TIP3    H142233   1.953   4.444   1.237 -0.4567 -0.5323 -1.1407
 6866TIP3    H242234   1.997   4.519   1.113  0.2658  0.5378 -0.2646
 6867TIP3   OH242235   0.052   1.661   0.539  0.7390  0.3046 -0.2018
 6867TIP3    H142236   0.018   1.747   0.564 -0.7114 -0.2387 -0.1911
 6867TIP3    H242237   0.083   1.673   0.449 -0.7329  0.5389 -0.7176
 6868TIP3   OH242238   5.201   3.472   0.182 -0.6047 -0.3962  1.0361
 6868TIP3    H142239   5.159   3.405   0.127 -0.8315 -0.8841  1.7818
 6868TIP3    H242240   5.237   3.535   0.120 -0.1565 -1.3502  0.2996
 6869TIP3   OH242241   2.915   0.411   2.500  0.1822  1.0419 -0.2991
 6869TIP3    H142242   2.824   0.383   2.492  0.0220  0.7904  1.8425
 6869TIP3    H242243   2.966   0.334   2.475 -0.2509  0.2057  1.2062
 6870TIP3   OH242244   1.284   6.511   0.212  0.8467 -0.0454  0.1423
 6870TIP3    H142245   1.369   6.469   0.202  0.9094 -0.0101  0.5062
 6870TIP3    H242246   1.222   6.451   0.169  1.1489  0.2919 -0.7758
 6871TIP3   OH242247   0.874   4.913   0.710 -0.2646  0.0376  1.1616
 6871TIP3    H142248   0.940   4.846   0.727 -0.7015 -0.4686  0.8648
 6871TIP3    H242249   0.923   4.996   0.715  0.2139 -0.2704  1.8392
 6872TIP3   OH242250   4.663   4.286   0.031  0.7092  0.6736 -0.3166
 6872TIP3    H142251   4.719   4.256  -0.040  0.3433  1.2320 -0.8494
 6872TIP3    H242252   4.722   4.299   0.105  1.5200  2.5293 -1.2319
 6873TIP3   OH242253   4.730   1.353   0.504 -0.1235 -0.5915  0.0198
 6873TIP3    H142254   4.730   1.295   0.428  0.8927  0.5585 -0.8879
 6873TIP3    H242255   4.641   1.345   0.539 -1.3995  0.5491 -2.6334
 6874TIP3   OH242256   4.027   2.008   2.660 -0.0468  0.5065 -0.5009
 6874TIP3    H142257   3.990   1.980   2.576  0.1890  0.3170 -0.5419
 6874TIP3    H242258   4.091   1.941   2.681 -0.3589  0.3597  0.0036
 6875TIP3   OH242259   0.560   2.515   0.634  0.1623  0.5533  0.1545
 6875TIP3    H142260   0.541   2.466   0.714 -1.0689 -0.3960 -0.7078
 6875TIP3    H242261   0.650   2.547   0.648 -0.1711  0.7905  2.0937
 6876TIP3   OH242262   0.121   5.312   0.324  0.0197 -0.0020 -0.0544
 6876TIP3    H142263   0.092   5.248   0.259  1.1465 -0.6795  0.0825
 6876TIP3    H242264   0.216   5.313   0.316  0.2447 -0.4514  1.8769
 6877TIP3   OH242265   5.089   0.492   1.569  0.7829 -0.1866  0.3591
 6877TIP3    H142266   5.016   0.487   1.632  3.0078  0.8668  3.2780
 6877TIP3    H242267   5.096   0.585   1.548  0.3046 -0.4866 -1.2269
 6878TIP3   OH242268   4.030   4.571   1.011  0.5701 -1.1850  0.1863
 6878TIP3    H142269   4.063   4.520   0.937 -2.9276 -0.4406 -2.1308
 6878TIP3    H242270   4.013   4.507   1.080  1.2007 -2.3320 -0.7085
 6879TIP3   OH242271   4.362   4.870   2.717 -0.0596  0.6173  0.8342
 6879TIP3    H142272   4.290   4.928   2.739  0.3503  0.5514  2.4863
 6879TIP3    H242273   4.384   4.826   2.800 -0.9147 -2.5494 -0.4407
 6880TIP3   OH242274   1.064   5.873   8.050  0.0701 -0.0117  0.1907
 6880TIP3    H142275   1.094   5.787   8.018  0.6599 -0.4803  1.9194
 6880TIP3    H242276   1.142   5.913   8.088 -0.2497  1.2356 -0.3977
 6881TIP3   OH242277   4.491   0.006   1.647 -0.7230 -0.5635  0.1902
 6881TIP3    H142278   4.432  -0.060   1.683 -0.0259 -1.3902 -0.1500
 6881TIP3    H242279   4.579  -0.031   1.659 -0.4643 -1.8548 -4.0873
 6882TIP3   OH242280   2.892   5.698   1.023 -0.5264 -0.0856  0.0846
 6882TIP3    H142281   2.972   5.733   1.061 -0.4380  0.3443 -0.4729
 6882TIP3    H242282   2.921   5.659   0.940 -1.0564  1.1298 -0.6964
 6883TIP3   OH242283   0.129   5.318   2.606  0.1818 -0.1421  0.3118
 6883TIP3    H142284   0.173   5.403   2.614 -1.6809  0.8445  0.7415
 6883TIP3    H242285   0.092   5.318   2.518 -0.3104 -0.2517  0.5149
 6884TIP3   OH242286   0.728   3.318   0.326 -0.2778  0.3940 -0.1339
 6884TIP3    H142287   0.808   3.370   0.332 -0.2881  0.3945 -0.0002
 6884TIP3    H242288   0.714   3.285   0.415 -0.6576  0.7360 -0.0661
 6885TIP3   OH242289   3.801   3.489   0.859 -0.4540 -0.3184  0.6828
 6885TIP3    H142290   3.833   3.460   0.773 -1.0418  0.5158  0.1649
 6885TIP3    H242291   3.880   3.494   0.913  0.1044  0.3239 -0.1618
 6886TIP3   OH242292   1.860   6.669   0.403 -0.7349 -0.1639  0.1926
 6886TIP3    H142293   1.890   6.722   0.329 -0.4662 -0.5162  0.0470
 6886TIP3    H242294   1.765   6.684   0.406 -0.6936  0.1400  0.0094
 6887TIP3   OH242295   2.025   4.520   2.597 -0.6896  0.5599  0.3992
 6887TIP3    H142296   1.982   4.505   2.681  0.2994 -4.2331  0.3447
 6887TIP3    H242297   1.972   4.472   2.534  0.4543  1.1843 -1.1007
 6888TIP3   OH242298   4.736   5.331   0.942 -0.3671 -0.0323 -0.3969
 6888TIP3    H142299   4.764   5.257   0.889  2.4194  0.1177  0.7158
 6888TIP3    H242300   4.784   5.322   1.024  0.2820  3.0687 -0.2924
 6889TIP3   OH242301   6.097   3.447   7.787 -0.5392 -0.6846 -0.1149
 6889TIP3    H142302   6.061   3.534   7.800 -2.4580 -1.4051 -0.2784
 6889TIP3    H242303   6.172   3.460   7.730 -0.6539  0.8767  0.0509
 6890TIP3   OH242304   4.538   2.461   0.012 -0.0347 -0.3025  0.1245
 6890TIP3    H142305   4.486   2.424   0.083  0.9418  1.8362  2.1116
 6890TIP3    H242306   4.483   2.532  -0.023  1.1970  1.6621  1.9251
 6891TIP3   OH242307   3.260   3.290   1.262  0.4564 -0.2516 -0.2042
 6891TIP3    H142308   3.346   3.332   1.250  0.2491  1.0245  2.1352
 6891TIP3    H242309   3.271   3.202   1.228  2.1028  0.4921 -1.7404
 6892TIP3   OH242310   6.399   1.503   1.870  0.2815 -0.0478 -0.8419
 6892TIP3    H142311   6.318   1.537   1.833  0.5424  1.6662  0.0718
 6892TIP3    H242312   6.467   1.527   1.807  0.3779  0.5405 -0.5148
 6893TIP3   OH242313   0.668   5.426   8.497  0.2267 -0.2344  0.5772
 6893TIP3    H142314   0.599   5.361   8.485  0.9283 -1.2867  1.9732
 6893TIP3    H242315   0.698   5.445   8.408 -0.8046 -0.9336  0.0593
 6894TIP3   OH242316   2.290   4.354   0.080  0.2515 -0.0167  0.3006
 6894TIP3    H142317   2.255   4.437   0.046  0.6557  0.8986  2.0040
 6894TIP3    H242318   2.385   4.362   0.068  0.2986 -0.1900  0.5614
 6895TIP3   OH242319   1.232   5.790   1.456 -0.5749  0.4001  0.0374
 6895TIP3    H142320   1.251   5.738   1.377 -2.7392  1.4953 -1.2882
 6895TIP3    H242321   1.282   5.870   1.443  0.6968 -0.2369  0.8222
 6896TIP3   OH242322   6.291   4.118   7.767  0.3062 -0.2022  1.0030
 6896TIP3    H142323   6.316   4.104   7.676 -1.7965 -1.1955  0.5331
 6896TIP3    H242324   6.356   4.069   7.817  2.4687  1.6377  0.2224
 6897TIP3   OH242325   0.021   0.502   0.462 -0.1208 -0.2086  0.0254
 6897TIP3    H142326  -0.008   0.532   0.549 -1.6280 -0.0776 -0.4910
 6897TIP3    H242327   0.113   0.525   0.459 -0.1857  0.3635  1.3603
 6898TIP3   OH242328   0.627   2.933   1.261  0.1922  0.2977  0.3843
 6898TIP3    H142329   0.609   3.025   1.243 -0.3455 -0.1805 -1.8152
 6898TIP3    H242330   0.687   2.906   1.192  2.9659 -0.2566  2.8247
 6899TIP3   OH242331   6.410   2.010   1.239 -0.6862  0.1842  0.0760
 6899TIP3    H142332   6.484   2.056   1.200 -0.9020  0.4641 -0.0115
 6899TIP3    H242333   6.415   1.922   1.202  0.7293 -0.3968  1.5751
 6900TIP3   OH242334   2.124   6.279   0.620 -0.2854 -0.4961 -0.0713
 6900TIP3    H142335   2.175   6.253   0.543 -2.4582 -1.8525 -1.1608
 6900TIP3    H242336   2.040   6.234   0.609 -1.1587  0.3535  2.4362
 6901TIP3   OH242337   3.742   5.121   1.207 -0.1204  0.3241 -0.1911
 6901TIP3    H142338   3.802   5.050   1.231  0.4196  0.6551 -0.5302
 6901TIP3    H242339   3.694   5.088   1.132 -0.4301  0.0201  0.1413
 6902TIP3   OH242340   3.953   6.187   2.299 -0.0870  0.2600  0.2504
 6902TIP3    H142341   4.046   6.208   2.287 -0.3030  1.1954  0.1612
 6902TIP3    H242342   3.946   6.161   2.391 -0.1908  2.8143  1.0312
 6903TIP3   OH242343   4.701   0.382   1.963 -0.1121  0.2373  0.3784
 6903TIP3    H142344   4.639   0.327   1.916 -0.4843  1.0461 -0.0778
 6903TIP3    H242345   4.675   0.373   2.055  0.4180 -1.0857  0.4258
 6904TIP3   OH242346   5.050   4.667   3.000 -0.0171  0.6124  0.1940
 6904TIP3    H142347   5.133   4.701   2.965 -1.2683  1.7290 -1.8774
 6904TIP3    H242348   5.067   4.574   3.013  1.5870  0.8204 -0.1253
 6905TIP3   OH242349   1.353   2.213   8.681 -0.6020 -0.5212 -0.2340
 6905TIP3    H142350   1.409   2.290   8.680 -0.8206 -0.3578 -0.0033
 6905TIP3    H242351   1.406   2.144   8.640 -0.3375 -0.2984 -0.2677
 6906TIP3   OH242352   5.517   5.719   2.647 -0.3295 -0.0376 -0.2863
 6906TIP3    H142353   5.515   5.628   2.679  2.5435 -0.2310 -0.4053
 6906TIP3    H242354   5.585   5.761   2.699 -0.8588  1.7884 -0.9990
 6907TIP3   OH242355   6.815   4.052   2.878  0.2841 -0.9710  0.2055
 6907TIP3    H142356   6.838   4.016   2.963 -1.8840 -2.8497  0.1003
 6907TIP3    H242357   6.766   3.982   2.835 -0.5824  0.7054 -1.7142
 6908TIP3   OH242358   6.843   5.667   8.153 -0.0470  0.4800 -0.1579
 6908TIP3    H142359   6.752   5.675   8.180  0.4389  0.8064  1.4482
 6908TIP3    H242360   6.884   5.749   8.179  0.4983  0.8086 -1.8756
 6909TIP3   OH242361   1.730   0.990   1.105 -0.0974 -0.5145 -0.0181
 6909TIP3    H142362   1.777   0.910   1.130 -0.0479 -0.1530  1.0869
 6909TIP3    H242363   1.796   1.059   1.109 -0.2714 -0.3214 -0.4219
 6910TIP3   OH242364   2.509   1.212   1.400 -0.0532 -0.5522  0.4791
 6910TIP3    H142365   2.510   1.289   1.343 -1.5870 -0.0942  1.0267
 6910TIP3    H242366   2.484   1.245   1.486 -0.6742 -1.6500  0.7408
 6911TIP3   OH242367   5.123   6.551   1.723 -0.7861 -0.2198  0.1522
 6911TIP3    H142368   5.092   6.462   1.707 -0.3088 -0.6346  1.4414
 6911TIP3    H242369   5.048   6.606   1.700 -0.8271 -0.8697 -1.4188
 6912TIP3   OH242370   4.213   1.803   2.465  0.3921 -0.2403  0.1818
 6912TIP3    H142371   4.195   1.801   2.559 -0.3245 -0.4266  0.0453
 6912TIP3    H242372   4.297   1.848   2.458 -0.6991  2.0406  0.7411
 6913TIP3   OH242373   5.761   1.047   2.893  0.1474  0.4003 -0.0771
 6913TIP3    H142374   5.824   1.117   2.910 -0.3159  0.6805  0.5082
 6913TIP3    H242375   5.678   1.082   2.924  0.3117 -1.3854  2.7330
 6914TIP3   OH242376   5.228   4.156   8.669  0.2875 -0.1398  0.3792
 6914TIP3    H142377   5.305   4.172   8.615  0.2725  1.3960  0.7486
 6914TIP3    H242378   5.219   4.061   8.672  0.3640 -0.2896 -2.1729
 6915TIP3   OH242379   6.025   4.539   3.283 -0.1709 -0.2193 -0.3817
 6915TIP3    H142380   6.055   4.625   3.313  1.1274 -0.6596 -0.3269
 6915TIP3    H242381   6.036   4.483   3.360 -2.1263 -0.2210 -0.0547
 6916TIP3   OH242382   3.487   3.865   7.027  0.0622  0.1028  0.2682
 6916TIP3    H142383   3.540   3.825   7.096  0.1716  1.0725  0.7620
 6916TIP3    H242384   3.552   3.902   6.966  0.0003  2.1513  1.3758
 6917TIP3   OH242385   1.316   1.336   8.537 -0.4694 -0.7616 -0.1376
 6917TIP3    H142386   1.246   1.327   8.601  0.9284  0.4437  1.6696
 6917TIP3    H242387   1.284   1.401   8.475 -1.7590 -1.7933 -0.6014
 6918TIP3   OH242388   1.696   1.915   8.651 -0.1559  0.4214 -0.1260
 6918TIP3    H142389   1.757   1.976   8.610  0.0659 -1.3565 -2.6508
 6918TIP3    H242390   1.746   1.834   8.660 -1.5203 -0.4671 -0.2648
 6919TIP3   OH242391   0.002   2.920   2.127  0.1373 -0.4204 -0.6032
 6919TIP3    H142392  -0.083   2.958   2.149  0.1119 -0.3179 -0.8841
 6919TIP3    H242393   0.059   2.945   2.200 -0.1125 -0.6310 -0.3302
 6920TIP3   OH242394   5.899   1.634   2.847  0.4087  0.7803 -0.1128
 6920TIP3    H142395   5.913   1.661   2.756  2.6333 -1.5079 -0.5845
 6920TIP3    H242396   5.809   1.603   2.849  1.0576 -1.6945 -2.4061
 6921TIP3   OH242397   5.069   5.046   2.672  0.0153 -0.2977 -0.0458
 6921TIP3    H142398   5.061   4.951   2.666 -0.1399 -0.2875 -0.0020
 6921TIP3    H242399   5.031   5.079   2.591 -3.8228 -0.0642  1.6070
 6922TIP3   OH242400   3.242   1.103   7.393  0.5778 -0.5183  0.6509
 6922TIP3    H142401   3.241   1.015   7.355 -1.4011 -0.0515 -0.4812
 6922TIP3    H242402   3.180   1.099   7.465 -0.1256  0.1224  0.1032
 6923TIP3   OH242403   2.663   5.962   2.772 -0.4665  0.9563 -0.0956
 6923TIP3    H142404   2.714   5.952   2.852 -0.1334 -1.8387 -0.5825
 6923TIP3    H242405   2.714   5.917   2.705 -1.9764  0.9989 -1.3317
 6924TIP3   OH242406   1.649   6.020   0.187 -0.6162  0.0085 -0.7678
 6924TIP3    H142407   1.570   6.073   0.191  0.5492  1.8245 -0.4216
 6924TIP3    H242408   1.676   6.024   0.095  0.4269  1.5762 -0.4318
 6925TIP3   OH242409   2.846   4.247   2.576 -0.4604 -0.2894  0.5856
 6925TIP3    H142410   2.823   4.154   2.572  0.4312 -0.4856 -0.9558
 6925TIP3    H242411   2.939   4.247   2.599 -0.1691  0.1469 -0.5031
 6926TIP3   OH242412   2.428   2.526   7.981  0.2130  0.4057 -0.6234
 6926TIP3    H142413   2.369   2.509   7.908  0.0260  0.6705 -0.5384
 6926TIP3    H242414   2.371   2.524   8.058  0.6628 -1.4530 -0.3044
 6927TIP3   OH242415   0.651   0.462   1.479 -0.2316 -0.3862  0.2773
 6927TIP3    H142416   0.574   0.505   1.442  1.3277  1.7594 -0.6989
 6927TIP3    H242417   0.724   0.519   1.455  1.7274 -2.5043  0.8541
 6928TIP3   OH242418   6.712   1.873   1.261  0.5033 -0.0920  0.2924
 6928TIP3    H142419   6.714   1.840   1.171 -0.7694 -0.3641  0.3436
 6928TIP3    H242420   6.656   1.811   1.308  0.6577  0.3883  1.1293
 6929TIP3   OH242421   5.144   0.190   7.261  0.0912  0.1636 -0.1044
 6929TIP3    H142422   5.185   0.104   7.251 -0.5471 -0.8534  4.0013
 6929TIP3    H242423   5.052   0.175   7.239 -0.3813 -0.7806  2.2377
 6930TIP3   OH242424   3.863   0.204   8.605  0.0483  0.2622 -0.2599
 6930TIP3    H142425   3.787   0.260   8.620 -0.0920  0.2215 -0.7953
 6930TIP3    H242426   3.896   0.184   8.693  0.0992  1.1728 -0.0663
 6931TIP3   OH242427   3.389   3.055   1.644 -0.4661  0.3355 -0.1033
 6931TIP3    H142428   3.451   3.124   1.624  0.1360  0.1000  0.8822
 6931TIP3    H242429   3.336   3.047   1.565  1.2693 -0.0205 -1.2909
 6932TIP3   OH242430   3.483   0.250   1.957  0.3923  0.1900  0.6533
 6932TIP3    H142431   3.446   0.313   1.896 -0.8871 -0.4341  0.7507
 6932TIP3    H242432   3.564   0.221   1.916 -0.8828 -0.8961 -1.2353
 6933TIP3   OH242433   5.296   4.706   2.037  0.0717  0.7221  1.2468
 6933TIP3    H142434   5.236   4.666   2.100  0.4052 -0.6107  0.7528
 6933TIP3    H242435   5.383   4.688   2.072  0.2300  0.9040  0.9487
 6934TIP3   OH242436   6.520   3.514   8.082 -0.0221  0.5224 -0.1601
 6934TIP3    H142437   6.584   3.573   8.121  2.7687 -1.8618 -0.7973
 6934TIP3    H242438   6.522   3.535   7.988 -0.8957  1.0245 -0.0784
 6935TIP3   OH242439   1.689   2.634   1.495  0.0393 -0.5404 -0.2096
 6935TIP3    H142440   1.665   2.726   1.509  1.2423 -0.4913  1.9422
 6935TIP3    H242441   1.606   2.586   1.504 -0.2751  0.1568  0.7744
 6936TIP3   OH242442   4.157   1.292   7.965 -0.6166 -0.0294  0.2644
 6936TIP3    H142443   4.169   1.199   7.984 -1.7422 -0.2790 -0.1582
 6936TIP3    H242444   4.080   1.295   7.908  0.4796  0.9960 -1.2717
 6937TIP3   OH242445   4.057   3.287   2.693  0.1743  0.1497  0.1388
 6937TIP3    H142446   4.069   3.352   2.762 -1.1973 -0.0976  0.6524
 6937TIP3    H242447   4.089   3.205   2.732  1.2797  0.3734 -0.2673
 6938TIP3   OH242448   6.508   1.365   8.022  0.3800 -0.0001 -0.5299
 6938TIP3    H142449   6.548   1.375   8.108 -0.0104 -3.4299  0.1583
 6938TIP3    H242450   6.581   1.342   7.964  0.2898 -0.1335 -0.5909
 6939TIP3   OH242451   3.168   1.730   7.147  0.1710  0.2069 -0.1787
 6939TIP3    H142452   3.116   1.650   7.147 -0.5644  0.6336  1.9715
 6939TIP3    H242453   3.223   1.722   7.069 -1.5152 -1.2905 -1.3202
 6940TIP3   OH242454   0.263   0.417   7.855 -0.4060 -0.0736  0.1329
 6940TIP3    H142455   0.266   0.475   7.931 -1.5649 -1.4957  1.3480
 6940TIP3    H242456   0.209   0.463   7.791  1.8577  1.8362 -0.5274
 6941TIP3   OH242457   1.289   5.790   1.916 -1.2855 -0.4747 -0.5868
 6941TIP3    H142458   1.224   5.814   1.851 -0.3119  0.9482 -1.0908
 6941TIP3    H242459   1.366   5.765   1.865 -0.7115  0.0512 -0.0056
 6942TIP3   OH242460   0.454   4.980   1.290  0.2517 -0.5251  0.0132
 6942TIP3    H142461   0.500   4.982   1.374 -0.6552 -0.5231  0.5165
 6942TIP3    H242462   0.523   4.995   1.225  0.9180 -0.2328  0.7708
 6943TIP3   OH242463   5.761   4.115   7.355  0.4426  0.1423 -0.0129
 6943TIP3    H142464   5.840   4.164   7.331 -0.5320  3.3063  2.4438
 6943TIP3    H242465   5.700   4.131   7.283  0.8058  1.0241 -0.1462
 6944TIP3   OH242466   1.041   5.757   0.858  0.3316  0.0733  0.3666
 6944TIP3    H142467   1.074   5.786   0.944 -1.1767 -0.4050  1.1448
 6944TIP3    H242468   1.048   5.662   0.861  1.6496  0.1106 -0.6592
 6945TIP3   OH242469   1.931   3.314   1.999 -0.2357  0.4325 -0.2361
 6945TIP3    H142470   2.005   3.285   2.053 -0.6309 -0.5032 -0.1682
 6945TIP3    H242471   1.963   3.391   1.954  0.9493 -0.2074 -0.5409
 6946TIP3   OH242472   2.964   6.659   7.629 -0.4754  0.0558 -0.8987
 6946TIP3    H142473   2.958   6.568   7.660 -0.3099 -0.1827 -1.5345
 6946TIP3    H242474   2.874   6.683   7.610 -0.5073 -0.0196 -0.8471
 6947TIP3   OH242475   5.796   4.486   1.091 -0.1567 -0.1536 -0.0034
 6947TIP3    H142476   5.824   4.400   1.123  1.3574  0.0793 -0.5902
 6947TIP3    H242477   5.819   4.546   1.162  0.5987 -0.0062 -0.3544
 6948TIP3   OH242478   5.085   0.433   0.514  0.4395  0.7026 -0.2628
 6948TIP3    H142479   5.087   0.337   0.515 -0.1568  0.6787 -0.6132
 6948TIP3    H242480   5.019   0.456   0.580 -0.5115  0.8133 -1.2296
 6949TIP3   OH242481   3.333   3.911   0.738  0.1749 -0.0861  0.6909
 6949TIP3    H142482   3.279   3.939   0.811 -3.0921  0.4767 -1.7214
 6949TIP3    H242483   3.297   3.957   0.662  2.9326 -1.1340 -1.4260
 6950TIP3   OH242484   0.980   5.949   7.502  0.4536  0.1270 -0.2140
 6950TIP3    H142485   1.032   6.016   7.458 -0.4253  1.8508  1.2728
 6950TIP3    H242486   1.025   5.867   7.481  0.8459  0.9672 -3.1250
 6951TIP3   OH242487   4.740   1.442   0.204 -0.4036 -0.5276 -0.4852
 6951TIP3    H142488   4.808   1.381   0.233 -0.0487  0.2029  0.2312
 6951TIP3    H242489   4.788   1.511   0.159 -0.4356  1.0253  1.7286
 6952TIP3   OH242490   5.002   3.207   2.443  0.2318 -0.2374  0.3913
 6952TIP3    H142491   4.963   3.229   2.358  0.7138 -0.1620  0.1906
 6952TIP3    H242492   4.936   3.235   2.507  0.2382  0.5021  0.0854
 6953TIP3   OH242493   2.697   6.547   2.367  0.0339  0.4224  0.0094
 6953TIP3    H142494   2.615   6.589   2.392  0.3879  1.3657 -0.3831
 6953TIP3    H242495   2.673   6.456   2.349 -0.7435  0.4461  0.8657
 6954TIP3   OH242496   1.065   4.101   0.722 -0.2886 -0.0471 -0.3204
 6954TIP3    H142497   1.107   4.186   0.734  0.2651 -0.2628 -0.7128
 6954TIP3    H242498   0.978   4.111   0.762  0.7685 -0.1699  2.1556
 6955TIP3   OH242499   2.323   5.930   0.239 -0.8604  0.0033  0.2251
 6955TIP3    H142500   2.377   5.955   0.164  0.7822  1.7148  1.8400
 6955TIP3    H242501   2.235   5.957   0.215 -0.2580  1.1223 -0.8608
 6956TIP3   OH242502   4.639   3.111   8.573 -0.3385  0.2422  0.5315
 6956TIP3    H142503   4.612   3.155   8.493  0.0689 -0.4328  0.0144
 6956TIP3    H242504   4.717   3.062   8.549 -1.1407 -1.2775  0.9188
 6957TIP3   OH242505   5.687   5.526   1.271 -0.2420 -0.3763  0.0906
 6957TIP3    H142506   5.752   5.487   1.329  0.2230  1.7884  1.1230
 6957TIP3    H242507   5.616   5.553   1.328 -0.2534  0.8470 -0.4689
 6958TIP3   OH242508   3.050   0.837   8.361  0.1388  0.4935  0.4103
 6958TIP3    H142509   3.049   0.747   8.392 -1.6332  0.7780  1.3041
 6958TIP3    H242510   3.082   0.887   8.437  0.3712  0.7016  0.1771
 6959TIP3   OH242511   6.890   4.953   0.284  0.3430  0.2158 -0.4625
 6959TIP3    H142512   6.866   5.032   0.236  1.0114  0.4507 -0.4094
 6959TIP3    H242513   6.965   4.978   0.338 -0.7810  0.1316  1.2160
 6960TIP3   OH242514   2.724   2.239   2.301  0.8113  0.5880  0.1465
 6960TIP3    H142515   2.675   2.320   2.313  1.8367  1.4793 -1.3927
 6960TIP3    H242516   2.814   2.260   2.324  0.7986 -0.6452  1.5144
 6961TIP3   OH242517   2.244   1.167   0.802  0.1565  0.1043  0.7007
 6961TIP3    H142518   2.289   1.199   0.880  0.8117 -1.0678  0.8266
 6961TIP3    H242519   2.290   1.086   0.780  0.0424  0.4640 -0.9655
 6962TIP3   OH242520   3.913   0.405   0.444  0.0524  0.2078  0.1610
 6962TIP3    H142521   3.907   0.486   0.495 -1.0016  0.1288  0.1757
 6962TIP3    H242522   3.937   0.433   0.356  1.3027  0.3919  0.5314
 6963TIP3   OH242523   5.572   0.966   1.079 -0.8000  0.1270  0.2367
 6963TIP3    H142524   5.479   0.954   1.059 -0.6096 -0.1598 -0.5108
 6963TIP3    H242525   5.605   0.877   1.092 -0.5325  0.1961  0.0362
 6964TIP3   OH242526   0.893   4.933   7.999  0.3110 -0.0810 -0.1530
 6964TIP3    H142527   0.974   4.966   7.961  0.1499 -1.0697 -1.3978
 6964TIP3    H242528   0.828   4.942   7.929 -0.8560  1.3328  1.0347
 6965TIP3   OH242529   2.627   0.513   0.340 -0.2020  0.3105 -0.3191
 6965TIP3    H142530   2.563   0.466   0.393 -0.8316 -0.1228 -1.4372
 6965TIP3    H242531   2.668   0.446   0.285  3.6166 -0.0720  2.5602
 6966TIP3   OH242532   1.867   3.887   1.685  0.1167 -0.5747 -0.3321
 6966TIP3    H142533   1.902   3.800   1.670  0.4341 -0.5064 -0.0139
 6966TIP3    H242534   1.935   3.946   1.654  0.3407 -0.4392  0.3855
 6967TIP3   OH242535   5.956   6.123   2.852  0.2902  0.2153 -0.2384
 6967TIP3    H142536   5.921   6.116   2.941  0.7271  3.0195  0.2483
 6967TIP3    H242537   6.051   6.122   2.864  0.4038 -1.5477 -0.9585
 6968TIP3   OH242538   1.692   2.508   0.082 -0.0597  0.0659  0.1026
 6968TIP3    H142539   1.610   2.557   0.080 -1.5026 -2.1623  0.2188
 6968TIP3    H242540   1.734   2.528  -0.001 -1.1077  0.6569 -0.3103
 6969TIP3   OH242541   4.571   4.911   2.019  0.1186 -0.5760  0.3584
 6969TIP3    H142542   4.489   4.911   1.969  0.0642 -1.1905  0.4418
 6969TIP3    H242543   4.630   4.856   1.969  0.4034 -0.3397  0.4325
 6970TIP3   OH242544   6.080   3.449   0.165  0.8228 -0.0532 -0.0200
 6970TIP3    H142545   6.126   3.452   0.249 -2.8456  0.3244  2.2123
 6970TIP3    H242546   6.042   3.361   0.161 -0.3235  0.4397 -0.4700
 6971TIP3   OH242547   1.075   6.760   0.161  0.1639 -0.5939 -0.0206
 6971TIP3    H142548   1.161   6.719   0.170  0.2130 -0.3234  0.9602
 6971TIP3    H242549   1.036   6.753   0.249  0.1891  1.4265  0.2111
 6972TIP3   OH242550   1.509   3.964   2.294  0.1842 -0.4979 -0.0712
 6972TIP3    H142551   1.498   4.044   2.242  0.1411 -1.0469 -0.9248
 6972TIP3    H242552   1.441   3.905   2.262 -0.4960 -0.5138  1.3023
 6973TIP3   OH242553   5.663   4.053   0.717 -0.6389 -0.3002 -0.3032
 6973TIP3    H142554   5.747   4.011   0.736 -0.9365 -0.1003  1.6186
 6973TIP3    H242555   5.687   4.140   0.683 -0.0714 -1.0362 -1.8770
 6974TIP3   OH242556   1.162   0.054   8.153 -0.7455  0.0178  0.2243
 6974TIP3    H142557   1.104   0.059   8.230 -3.5282 -0.5529 -1.7108
 6974TIP3    H242558   1.182  -0.039   8.144 -4.3783 -0.7020 -2.3250
 6975TIP3   OH242559   5.834   5.538   0.745  0.2047  0.3278 -0.0606
 6975TIP3    H142560   5.898   5.605   0.721  1.0148 -0.2872  0.3569
 6975TIP3    H242561   5.801   5.566   0.831  0.5370  0.1992  0.1098
 6976TIP3   OH242562   3.744   3.815   7.424 -0.6297 -0.1497  0.0186
 6976TIP3    H142563   3.671   3.757   7.404  1.2874 -2.1706 -1.4936
 6976TIP3    H242564   3.722   3.897   7.379 -2.2465 -0.4518  0.1925
 6977TIP3   OH242565   5.329   1.553   1.152 -0.5038 -0.0285  0.4158
 6977TIP3    H142566   5.319   1.636   1.199 -1.6393 -0.6343  1.3050
 6977TIP3    H242567   5.249   1.545   1.100  0.1957  0.0472 -0.6860
 6978TIP3   OH242568   3.677   3.348   8.606 -0.6815 -0.0157  0.2186
 6978TIP3    H142569   3.729   3.380   8.533 -0.3083 -1.3833 -0.1544
 6978TIP3    H242570   3.589   3.336   8.571 -1.2291  2.0153  0.7723
 6979TIP3   OH242571   0.857   6.245   0.124  0.1969 -0.0443  0.1288
 6979TIP3    H142572   0.830   6.329   0.162 -1.4477  0.3349 -1.6695
 6979TIP3    H242573   0.875   6.189   0.199  0.4582  1.6413  1.3905
 6980TIP3   OH242574   5.652   5.393   7.571 -0.1133  0.5357  0.2117
 6980TIP3    H142575   5.699   5.321   7.528 -0.7018  1.4747 -2.1673
 6980TIP3    H242576   5.718   5.433   7.627  0.5881 -1.0207  0.5700
 6981TIP3   OH242577   1.145   2.564   8.179  0.3373 -0.0360 -0.1804
 6981TIP3    H142578   1.219   2.580   8.121  1.6078 -0.2388  1.3056
 6981TIP3    H242579   1.120   2.473   8.160  0.3305  0.0943 -0.8273
 6982TIP3   OH242580   6.389   4.798   1.462  0.6764  0.1542  0.4953
 6982TIP3    H142581   6.431   4.830   1.382 -0.2000 -1.0553 -0.4817
 6982TIP3    H242582   6.340   4.873   1.495  1.7297  0.9132  0.3976
 6983TIP3   OH242583   1.710   4.161   0.351 -0.2781 -0.7923  0.1398
 6983TIP3    H142584   1.796   4.187   0.318 -0.2000 -1.3524 -0.1117
 6983TIP3    H242585   1.672   4.109   0.280 -1.4499  0.6823 -0.3749
 6984TIP3   OH242586   5.348   5.583   1.014  0.2971  0.0343 -0.7938
 6984TIP3    H142587   5.312   5.649   1.073  0.1944 -1.2630  0.6497
 6984TIP3    H242588   5.436   5.613   0.994  0.4651  0.3213  0.3253
 6985TIP3   OH242589   5.641   0.414   1.773  0.1405  0.0897 -0.1722
 6985TIP3    H142590   5.574   0.473   1.739  0.3888  0.6258  0.2603
 6985TIP3    H242591   5.606   0.326   1.756 -0.0123  0.3453 -1.2377
 6986TIP3   OH242592   5.278   2.749   8.222 -0.3516  0.1969 -0.0903
 6986TIP3    H142593   5.186   2.757   8.247 -0.0588 -1.4909  1.8594
 6986TIP3    H242594   5.278   2.683   8.153 -0.6915  0.9344 -0.7979
 6987TIP3   OH242595   6.000   5.118   3.769  0.3871 -0.3359 -0.2445
 6987TIP3    H142596   6.039   5.199   3.801 -0.1019  0.6203 -1.9321
 6987TIP3    H242597   5.906   5.129   3.783  0.4262 -1.2258  0.7954
 6988TIP3   OH242598   3.826   3.659   2.183 -0.0840  0.1623 -0.2603
 6988TIP3    H142599   3.838   3.578   2.232 -1.1207 -0.3407 -0.8058
 6988TIP3    H242600   3.788   3.720   2.246  0.3020  0.0998  0.0389
 6989TIP3   OH242601   5.346   6.351   0.246  0.1359 -0.0643  0.0801
 6989TIP3    H142602   5.335   6.393   0.161 -0.9559  0.1229  0.2897
 6989TIP3    H242603   5.324   6.259   0.230 -1.2861  0.1982  0.3819
 6990TIP3   OH242604   6.340   6.141   0.475 -0.0980  0.4257 -0.8112
 6990TIP3    H142605   6.374   6.229   0.454  2.8945  0.1673  2.1088
 6990TIP3    H242606   6.397   6.082   0.425  1.5601  0.0932  1.3326
 6991TIP3   OH242607   3.775   4.632   8.593  0.3135  0.1745  0.7361
 6991TIP3    H142608   3.718   4.594   8.526  0.2252  0.5503  0.5973
 6991TIP3    H242609   3.863   4.600   8.571  0.0563 -1.0632  1.4187
 6992TIP3   OH242610   4.847   0.506   1.732 -0.0676 -0.4328 -0.5353
 6992TIP3    H142611   4.781   0.573   1.751 -0.6013 -1.2887  0.8216
 6992TIP3    H242612   4.821   0.432   1.787  0.9821 -1.4546 -1.3784
 6993TIP3   OH242613   0.922   1.408   1.351 -0.6579 -0.0779  0.0072
 6993TIP3    H142614   0.944   1.422   1.443 -1.6405  3.9720 -0.2086
 6993TIP3    H242615   0.997   1.444   1.303 -0.9784 -0.4618 -0.7903
 6994TIP3   OH242616   0.341   3.490   7.729  0.2038 -0.2997  0.4224
 6994TIP3    H142617   0.272   3.543   7.768  0.6054  1.5712 -1.2818
 6994TIP3    H242618   0.301   3.404   7.715 -1.4476  0.4541  0.3883
 6995TIP3   OH242619   0.248   1.962   1.199  0.6500 -0.0574  0.2924
 6995TIP3    H142620   0.314   1.920   1.144  1.0811 -0.3306  1.0064
 6995TIP3    H242621   0.295   1.987   1.278 -0.8498 -4.1932  2.8174
 6996TIP3   OH242622   0.693   0.787   0.883  0.6149 -0.2302  0.1694
 6996TIP3    H142623   0.678   0.721   0.816 -0.6062 -0.4302  0.6061
 6996TIP3    H242624   0.607   0.826   0.898  1.0158  0.3668  1.0414
 6997TIP3   OH242625   0.563   0.632   2.358  0.0621  0.1444 -0.6726
 6997TIP3    H142626   0.497   0.591   2.414  0.8411  1.6742  1.5309
 6997TIP3    H242627   0.635   0.653   2.418  0.6034  2.6533 -2.0490
 6998TIP3   OH242628   2.466   1.453   7.720 -0.4456 -0.0846 -0.0285
 6998TIP3    H142629   2.525   1.514   7.764  0.7091 -1.2583  0.0936
 6998TIP3    H242630   2.503   1.441   7.633 -2.6085  2.0641 -1.3842
 6999TIP3   OH242631   3.924   1.241   7.825  0.3939 -0.5272 -0.0434
 6999TIP3    H142632   3.924   1.146   7.814 -1.1300 -0.6491  0.6460
 6999TIP3    H242633   3.831   1.265   7.820  0.6242  0.7312  1.1047
 7000TIP3   OH242634   1.014   0.584   1.145  0.3980 -0.0790 -0.5826
 7000TIP3    H142635   1.086   0.631   1.187  0.1990  0.2000 -0.5496
 7000TIP3    H242636   1.055   0.507   1.107  0.6793 -0.0299 -0.3826
 7001TIP3   OH242637   1.849   1.086   0.332 -0.4732 -0.0177 -0.0137
 7001TIP3    H142638   1.801   1.011   0.298  0.5279  0.5205 -2.8305
 7001TIP3    H242639   1.940   1.055   0.340 -0.2268  0.6165 -0.3065
 7002TIP3   OH242640   3.061   5.947   7.836 -0.6426  0.2947  0.4198
 7002TIP3    H142641   3.083   5.952   7.929 -0.7469  0.3264  0.4417
 7002TIP3    H242642   3.094   5.861   7.809 -1.4333 -0.1058  0.6954
 7003TIP3   OH242643   3.091   5.959   2.907 -0.3495  0.0664 -0.2286
 7003TIP3    H142644   3.147   5.881   2.914  0.1250  0.4604  0.5802
 7003TIP3    H242645   3.007   5.931   2.944  0.1731  0.2453  1.1714
 7004TIP3   OH242646   1.481   5.365   8.665 -0.0462  0.2822  0.0182
 7004TIP3    H142647   1.484   5.281   8.710  2.0086 -0.0149 -0.5722
 7004TIP3    H242648   1.481   5.430   8.736 -0.2271 -0.1955  0.4605
 7005TIP3   OH242649   2.088   2.097   1.312  0.2125 -0.3286  0.1620
 7005TIP3    H142650   2.159   2.151   1.349 -0.8715  0.1500  1.6630
 7005TIP3    H242651   2.099   2.105   1.218  1.4554  0.6849  0.3513
 7006TIP3   OH242652   0.169   1.140   0.360  0.0756 -0.8964  0.4965
 7006TIP3    H142653   0.143   1.134   0.452  1.2210  1.5501  1.0711
 7006TIP3    H242654   0.257   1.178   0.363 -0.5017  0.7684 -1.6569
 7007TIP3   OH242655   2.481   5.465   7.315 -0.4236 -0.1656 -0.0023
 7007TIP3    H142656   2.486   5.542   7.257 -0.4375 -0.0146  0.1974
 7007TIP3    H242657   2.572   5.438   7.325 -0.5370 -1.2211 -1.4625
 7008TIP3   OH242658   2.667   1.750   0.553 -0.5504 -0.5479 -0.1163
 7008TIP3    H142659   2.578   1.721   0.569 -0.9687  1.5310  1.7417
 7008TIP3    H242660   2.660   1.812   0.480 -1.0000  1.0224  1.1933
 7009TIP3   OH242661   3.894   2.851   0.114  0.3920 -0.3409  0.4076
 7009TIP3    H142662   3.931   2.800   0.042  0.7878  0.6668 -0.1330
 7009TIP3    H242663   3.955   2.924   0.125 -1.1570  1.1140 -0.1772
 7010TIP3   OH242664   3.354   3.463   7.952 -0.0418 -0.4078 -0.1331
 7010TIP3    H142665   3.263   3.487   7.972 -1.1622 -4.0185 -0.3140
 7010TIP3    H242666   3.386   3.424   8.033  0.7116 -0.8967 -0.6652
 7011TIP3   OH242667   0.365   1.372   3.064 -0.2710 -0.5205 -0.2095
 7011TIP3    H142668   0.384   1.424   2.985  1.4956  0.3728  0.7521
 7011TIP3    H242669   0.285   1.411   3.099 -1.6886 -1.5827 -2.0401
 7012TIP3   OH242670   6.608   3.895   1.775 -0.0389  0.7321  0.3961
 7012TIP3    H142671   6.633   3.813   1.733 -0.1318  1.1350 -0.4632
 7012TIP3    H242672   6.686   3.923   1.824  1.6162  2.4117 -2.9022
 7013TIP3   OH242673   3.822   4.606   7.398 -0.9006 -0.5256 -0.7808
 7013TIP3    H142674   3.788   4.519   7.416 -2.2108  0.3177  1.1684
 7013TIP3    H242675   3.748   4.665   7.410 -0.0370  0.8929 -1.9689
 7014TIP3   OH242676   4.680   5.268   7.312  0.2505 -0.1336 -0.6911
 7014TIP3    H142677   4.720   5.182   7.327 -0.1266  0.0647  1.8224
 7014TIP3    H242678   4.754   5.329   7.308  0.5185 -0.5121 -2.4594
 7015TIP3   OH242679   4.233   3.646   0.531 -0.4956 -0.3714 -0.0952
 7015TIP3    H142680   4.256   3.631   0.440  0.2492  0.2141 -0.0152
 7015TIP3    H242681   4.284   3.582   0.580  0.8627  0.7915  0.0669
 7016TIP3   OH242682   2.129   1.466   7.068  0.4280  0.0684 -0.2295
 7016TIP3    H142683   2.224   1.479   7.070  0.6255 -1.3317  0.3492
 7016TIP3    H242684   2.103   1.468   7.160  0.2955 -2.1197 -0.1742
 7017TIP3   OH242685   0.565   0.708   8.080  0.4439  0.6106  0.0012
 7017TIP3    H142686   0.604   0.694   7.994  1.6112  0.3966  0.5439
 7017TIP3    H242687   0.561   0.803   8.090 -0.6909  0.6569 -0.7064
 7018TIP3   OH242688   5.290   5.240   2.603 -0.0928 -0.1444  0.0900
 7018TIP3    H142689   5.212   5.185   2.592 -0.6849  0.4342  1.1236
 7018TIP3    H242690   5.306   5.278   2.517 -1.7589  0.7256  0.1117
 7019TIP3   OH242691   0.904   1.513   2.307  0.0932 -0.7493  0.1828
 7019TIP3    H142692   0.929   1.562   2.228  0.8381  1.5589  1.7455
 7019TIP3    H242693   0.810   1.500   2.298  0.0797 -0.0755 -0.8582
 7020TIP3   OH242694   5.938   2.402   0.120 -0.3853 -0.2274  0.2746
 7020TIP3    H142695   5.918   2.471   0.056  0.5735 -0.5913 -0.4400
 7020TIP3    H242696   6.010   2.437   0.171 -0.0664 -0.5962  0.0802
 7021TIP3   OH242697   5.211   2.088   0.805 -0.0738  0.0392 -0.0329
 7021TIP3    H142698   5.124   2.125   0.815  0.5934  1.5462  0.4474
 7021TIP3    H242699   5.253   2.101   0.890  0.7767 -0.2231 -0.3995
 7022TIP3   OH242700   1.639   5.722   1.153  0.1418  0.2164 -0.6865
 7022TIP3    H142701   1.636   5.813   1.179  0.8124  0.3501 -1.0499
 7022TIP3    H242702   1.722   5.713   1.105  0.4680 -0.7544  0.0049
 7023TIP3   OH242703   6.592   3.895   2.524  0.1821 -0.4493  0.5307
 7023TIP3    H142704   6.532   3.824   2.503  0.4446 -0.9844  1.5460
 7023TIP3    H242705   6.568   3.965   2.463 -0.1974 -1.3309 -0.3716
 7024TIP3   OH242706   5.272   0.603   2.296 -0.1588 -0.0323  0.0802
 7024TIP3    H142707   5.297   0.601   2.204  0.8701  0.9813  0.3105
 7024TIP3    H242708   5.353   0.583   2.344 -1.0293 -2.1708  0.7553
 7025TIP3   OH242709   4.904   0.599   0.224 -0.7936  0.1125  0.1988
 7025TIP3    H142710   4.837   0.662   0.198  1.1969  2.3631  0.2364
 7025TIP3    H242711   4.936   0.630   0.309  1.7889  0.4307 -0.7914
 7026TIP3   OH242712   0.622   2.512   1.852 -0.2440 -0.1507  0.3082
 7026TIP3    H142713   0.647   2.425   1.822  0.7424  0.2392 -0.0572
 7026TIP3    H242714   0.685   2.531   1.922  0.7900  1.0166 -0.8903
 7027TIP3   OH242715   0.119   2.609   2.841  0.4354 -0.6375 -0.5359
 7027TIP3    H142716   0.133   2.566   2.757 -0.1226  0.6043 -1.3017
 7027TIP3    H242717   0.113   2.702   2.819  0.3278 -0.2855  0.8897
 7028TIP3   OH242718   5.456   5.612   7.829  0.0092  0.1387 -0.0730
 7028TIP3    H142719   5.408   5.554   7.769  0.8641  1.1532 -1.7936
 7028TIP3    H242720   5.410   5.602   7.913 -1.3383 -1.1923 -0.9122
 7029TIP3   OH242721   1.663   2.942   0.131  0.1012  0.4808  0.2699
 7029TIP3    H142722   1.601   2.918   0.200 -2.9096 -1.6957 -2.8671
 7029TIP3    H242723   1.626   3.021   0.092  0.3950  0.3164 -0.3547
 7030TIP3   OH242724   6.181   0.470   2.900  0.3013 -0.1957 -0.0941
 7030TIP3    H142725   6.174   0.436   2.989  0.9133 -0.3171 -0.0903
 7030TIP3    H242726   6.263   0.434   2.867 -1.3057 -2.5881 -1.7626
 7031TIP3   OH242727   5.458   2.988   1.542 -0.0330  0.2512 -0.4594
 7031TIP3    H142728   5.547   3.022   1.553  0.1349 -0.5991  0.9625
 7031TIP3    H242729   5.462   2.899   1.575 -1.7470  0.6534  0.9787
 7032TIP3   OH242730   5.552   2.201   1.218  0.8538 -0.0672 -0.1176
 7032TIP3    H142731   5.594   2.140   1.278  0.1988 -0.4962 -0.0928
 7032TIP3    H242732   5.579   2.173   1.131  1.1441  0.0569 -0.0677
 7033TIP3   OH242733   5.307   5.716   2.471  0.1629 -0.5172  0.2677
 7033TIP3    H142734   5.334   5.699   2.380 -0.4910 -0.4380  0.0504
 7033TIP3    H242735   5.387   5.704   2.522  0.9676  1.2053 -0.5138
 7034TIP3   OH242736   3.099   3.460   1.763 -1.0386 -0.0990  0.8726
 7034TIP3    H142737   3.174   3.437   1.706 -1.1963 -1.2650  1.1055
 7034TIP3    H242738   3.103   3.555   1.770 -0.9015  0.0797 -0.9559
 7035TIP3   OH242739   3.299   6.471   1.169  0.8495  0.4418  0.2277
 7035TIP3    H142740   3.389   6.462   1.199  1.2924  2.7064 -0.2420
 7035TIP3    H242741   3.298   6.554   1.122 -1.1408 -0.2567 -1.0903
 7036TIP3   OH242742   0.281   6.313   1.124 -0.1652  0.3808  0.6159
 7036TIP3    H142743   0.242   6.386   1.075  0.9694 -0.5322 -1.8234
 7036TIP3    H242744   0.209   6.278   1.176 -2.1717  0.0078 -2.1707
 7037TIP3   OH242745   3.119   4.838   0.276 -0.3776  0.3796  0.6559
 7037TIP3    H142746   3.145   4.864   0.187  0.1220  2.4152  1.3366
 7037TIP3    H242747   3.201   4.812   0.317  0.0655  2.9112  1.5622
 7038TIP3   OH242748   3.912   4.984   2.642 -0.4129 -0.0634  0.2863
 7038TIP3    H142749   3.879   4.895   2.629 -0.2585 -0.3892  1.9188
 7038TIP3    H242750   3.889   5.005   2.733 -1.8539  2.1881 -0.5039
 7039TIP3   OH242751   6.693   6.636   2.776 -0.6467  0.1161 -0.0614
 7039TIP3    H142752   6.650   6.714   2.741  0.4246  0.6500 -0.2443
 7039TIP3    H242753   6.783   6.664   2.793  0.1270 -1.4394 -1.3817
 7040TIP3   OH242754   1.373   0.105   2.525  0.0927  0.6320 -0.6513
 7040TIP3    H142755   1.343   0.195   2.536 -1.4720  0.0840 -0.2535
 7040TIP3    H242756   1.347   0.081   2.437  0.5232  0.5681 -0.7636
 7041TIP3   OH242757   3.555   3.720   1.441 -0.7390 -0.3478  0.0912
 7041TIP3    H142758   3.524   3.781   1.508 -2.0843 -0.8645 -0.0248
 7041TIP3    H242759   3.496   3.735   1.367  1.1193  0.6950 -1.2748
 7042TIP3   OH242760   2.896   1.627   3.465 -0.7471 -0.0824  0.1814
 7042TIP3    H142761   2.801   1.629   3.449 -0.5478  0.1169 -1.1069
 7042TIP3    H242762   2.935   1.643   3.378  0.4775 -1.6424  0.4106
 7043TIP3   OH242763   2.627   2.559   8.652  0.3489 -0.5277 -0.3421
 7043TIP3    H142764   2.676   2.556   8.734 -0.3765  0.8401  0.1663
 7043TIP3    H242765   2.695   2.566   8.584  0.9878 -2.2835  0.0449
 7044TIP3   OH242766   4.437   0.600   8.651  0.3229 -0.2716  0.0595
 7044TIP3    H142767   4.410   0.690   8.630 -1.1785 -0.8544 -0.6343
 7044TIP3    H242768   4.411   0.588   8.742 -0.7710 -0.4448 -0.2626
 7045TIP3   OH242769   4.120   5.545   8.073  0.5152 -0.5287 -0.2655
 7045TIP3    H142770   4.126   5.634   8.109  2.1685 -0.5102 -0.5208
 7045TIP3    H242771   4.155   5.553   7.984  2.1863 -1.7064  0.2456
 7046TIP3   OH242772   6.595   1.568   1.676  0.5847  0.7111  0.3229
 7046TIP3    H142773   6.612   1.661   1.662  0.5977  1.0108  2.0687
 7046TIP3    H242774   6.520   1.549   1.619 -1.7765  2.7268  2.4933
 7047TIP3   OH242775   1.773   3.315   2.901 -0.7315 -0.2954  0.0199
 7047TIP3    H142776   1.784   3.244   2.964 -3.1327 -0.1091  0.7440
 7047TIP3    H242777   1.854   3.315   2.851  0.9234 -1.0113  2.5185
 7048TIP3   OH242778   6.520   2.142   0.813 -0.0159 -0.1834 -0.4694
 7048TIP3    H142779   6.537   2.054   0.847 -0.4622  0.2085  0.8101
 7048TIP3    H242780   6.447   2.175   0.866 -0.0561  0.8493 -1.1351
 7049TIP3   OH242781   2.186   5.746   2.782 -0.7017  0.3859  0.0004
 7049TIP3    H142782   2.172   5.748   2.877 -2.6184  2.1206 -0.2669
 7049TIP3    H242783   2.281   5.750   2.772 -0.5306  2.2551  1.8319
 7050TIP3   OH242784   1.183   2.693   1.490  0.0440  0.2690  0.4767
 7050TIP3    H142785   1.226   2.778   1.492 -1.7042  1.2860 -1.1527
 7050TIP3    H242786   1.100   2.708   1.536 -0.2009 -0.5863  0.3216
 7051TIP3   OH242787   4.794   3.762   0.017  0.4938  0.6354  0.2608
 7051TIP3    H142788   4.712   3.774   0.063  0.4961 -1.3754  0.8709
 7051TIP3    H242789   4.829   3.680   0.050  0.2571 -1.2715 -3.6488
 7052TIP3   OH242790   3.304   5.638   7.978  0.3907 -0.1934 -0.5121
 7052TIP3    H142791   3.270   5.712   8.029  1.7883  0.3418 -0.3090
 7052TIP3    H242792   3.284   5.660   7.887  0.3110  0.1710 -0.4090
 7053TIP3   OH242793   5.401   1.597   8.629 -0.1621 -0.1061 -0.2063
 7053TIP3    H142794   5.492   1.573   8.650 -1.1652 -0.8787  4.2007
 7053TIP3    H242795   5.360   1.612   8.714 -3.7399  2.1646 -2.1010
 7054TIP3   OH242796   1.047   1.287   8.640 -0.1986 -0.0879 -0.1203
 7054TIP3    H142797   1.069   1.215   8.698 -0.2366  0.8549  1.0935
 7054TIP3    H242798   0.984   1.340   8.689 -1.6849 -0.2561 -1.7430
 7055TIP3   OH242799   0.597   1.072   2.954 -0.1201  0.1263  0.1938
 7055TIP3    H142800   0.537   1.126   3.006 -0.0413  0.1117  0.3007
 7055TIP3    H242801   0.622   1.001   3.013  0.7228  0.6366  0.4635
 7056TIP3   OH242802   3.391   2.323   0.129  0.1751 -0.4812 -0.0658
 7056TIP3    H142803   3.462   2.388   0.129  0.0770 -0.3696 -0.5557
 7056TIP3    H242804   3.341   2.343   0.050  0.3143 -1.3352 -0.3807
 7057TIP3   OH242805   5.465   5.368   1.184 -0.2154  0.5075 -0.5195
 7057TIP3    H142806   5.411   5.439   1.149  0.6277  0.3736 -2.1907
 7057TIP3    H242807   5.548   5.411   1.207 -0.6499  0.5380  1.1258
 7058TIP3   OH242808   2.000   0.161   1.561  0.4425 -0.0716 -0.0706
 7058TIP3    H142809   1.936   0.117   1.506 -2.0431  2.7862  0.2724
 7058TIP3    H242810   2.044   0.223   1.504 -0.6294  1.4057  0.6581
 7059TIP3   OH242811   5.387   1.153   2.681  0.2645 -0.1659  0.0681
 7059TIP3    H142812   5.375   1.136   2.774 -1.1286 -0.5338 -0.1608
 7059TIP3    H242813   5.339   1.234   2.664 -0.4560 -0.7109 -0.5450
 7060TIP3   OH242814   4.227   2.675   1.477  0.3110  0.4073  0.6094
 7060TIP3    H142815   4.150   2.622   1.495  1.4090 -1.9821 -1.1682
 7060TIP3    H242816   4.219   2.701   1.386  0.7892  1.6312  0.8927
 7061TIP3   OH242817   6.412   6.361   8.433  0.8150 -0.3576 -0.0798
 7061TIP3    H142818   6.386   6.373   8.525  0.7717 -0.6790 -0.0478
 7061TIP3    H242819   6.396   6.268   8.416 -1.2901  0.1166 -1.0664
 7062TIP3   OH242820   4.741   0.855   7.592 -0.1588 -0.4890 -0.1587
 7062TIP3    H142821   4.802   0.927   7.609 -0.7090  0.7603 -2.9348
 7062TIP3    H242822   4.796   0.785   7.555 -0.2236  0.4296 -2.1299
 7063TIP3   OH242823   6.196   2.498   7.327  0.0855 -0.4206 -0.5633
 7063TIP3    H142824   6.194   2.411   7.287  0.6701 -1.0317  0.6659
 7063TIP3    H242825   6.250   2.487   7.405 -0.4319  0.8812  0.0114
 7064TIP3   OH242826   1.169   2.961   0.320  0.3275 -0.0028  0.5697
 7064TIP3    H142827   1.205   2.982   0.406 -0.7067 -0.4034  1.1189
 7064TIP3    H242828   1.120   2.880   0.334 -0.6260  0.4247 -0.1844
 7065TIP3   OH242829   0.721   0.738   8.315 -0.0842  0.0164 -0.1079
 7065TIP3    H142830   0.663   0.736   8.239 -1.6539 -0.3484  1.0411
 7065TIP3    H242831   0.809   0.724   8.279 -0.9221 -1.4441 -1.7143
 7066TIP3   OH242832   6.071   6.750   3.041  0.5836 -0.2194  0.1627
 7066TIP3    H142833   6.105   6.684   2.981 -0.6897 -1.1052  0.3665
 7066TIP3    H242834   6.137   6.819   3.041  1.4808 -1.0403 -0.8217
 7067TIP3   OH242835   0.145   3.141   0.717  0.0505 -0.0097  0.0898
 7067TIP3    H142836   0.189   3.107   0.639  0.4666 -1.4093  0.9069
 7067TIP3    H242837   0.052   3.145   0.691  0.0498 -1.3550 -0.2091
 7068TIP3   OH242838   1.919   4.638   0.755 -0.4535  0.1146  0.5239
 7068TIP3    H142839   1.876   4.584   0.821  1.3853  0.4238  2.0488
 7068TIP3    H242840   1.854   4.706   0.734 -2.6300 -2.2785 -1.0802
 7069TIP3   OH242841   5.290   6.493   2.570 -0.0463  0.3940  0.3011
 7069TIP3    H142842   5.296   6.501   2.665 -1.7266  1.0804  0.3898
 7069TIP3    H242843   5.313   6.402   2.552  0.2052  0.2271  1.3766
 7070TIP3   OH242844   5.160   4.980   0.136 -0.4904 -0.6364 -0.3678
 7070TIP3    H142845   5.176   4.889   0.112 -1.3261 -0.9968  0.3797
 7070TIP3    H242846   5.103   4.975   0.213 -1.4862  0.5246 -0.9825
 7071TIP3   OH242847   4.197   3.264   7.768 -0.5371  0.5135 -0.3539
 7071TIP3    H142848   4.169   3.296   7.854  0.3392 -1.0288  0.5381
 7071TIP3    H242849   4.252   3.334   7.733 -1.9305  1.7129 -0.2723
 7072TIP3   OH242850   3.167   0.033   8.167  0.6499  0.5498  0.3560
 7072TIP3    H142851   3.238  -0.007   8.116  0.5495  0.0438  0.6004
 7072TIP3    H242852   3.089   0.021   8.113  0.6164  0.3862  0.4376
 7073TIP3   OH242853   6.128   3.102   1.086 -0.3482 -0.2196  0.4605
 7073TIP3    H142854   6.211   3.077   1.044  0.6123  0.7190  1.7100
 7073TIP3    H242855   6.112   3.191   1.057 -1.8081 -0.9250 -1.0453
 7074TIP3   OH242856   4.839   6.143   0.740  0.8816 -0.4716  0.3936
 7074TIP3    H142857   4.810   6.137   0.649 -2.0737 -0.7355  1.2447
 7074TIP3    H242858   4.838   6.053   0.772  2.8305 -0.5021  0.4958
 7075TIP3   OH242859   2.427   2.335   2.488  0.0842  0.3314 -1.0179
 7075TIP3    H142860   2.426   2.253   2.439  2.2056 -0.5444  0.2589
 7075TIP3    H242861   2.355   2.327   2.550  0.5525 -0.8263 -0.5859
 7076TIP3   OH242862   1.261   5.432   8.525 -0.1570  0.3340 -0.2433
 7076TIP3    H142863   1.331   5.394   8.578  0.7098 -0.2101 -1.7114
 7076TIP3    H242864   1.229   5.506   8.577 -0.0211 -0.7371  1.4461
 7077TIP3   OH242865   5.281   0.755   1.708 -0.4241 -0.1994  0.0737
 7077TIP3    H142866   5.208   0.720   1.758  0.5729 -2.8016 -0.1510
 7077TIP3    H242867   5.260   0.848   1.697 -2.6306 -0.4143  1.7947
 7078TIP3   OH242868   4.761   2.900   8.406  0.2818 -0.4829 -0.3081
 7078TIP3    H142869   4.791   2.880   8.317  4.3700  0.0548  0.7608
 7078TIP3    H242870   4.748   2.814   8.446 -0.0181 -0.7387 -0.9389
 7079TIP3   OH242871   4.207   6.194   0.944  0.0936 -0.5686  0.8409
 7079TIP3    H142872   4.116   6.186   0.918  0.6916 -0.0684 -1.6250
 7079TIP3    H242873   4.245   6.108   0.927  0.6983  0.0153 -0.9807
 7080TIP3   OH242874   4.066   5.492   1.962  0.0201 -0.3980 -0.1280
 7080TIP3    H142875   4.088   5.550   2.035  0.1649  1.1273 -1.3302
 7080TIP3    H242876   4.150   5.479   1.917  0.1170 -2.0944  0.4642
 7081TIP3   OH242877   2.458   2.779   2.010  0.1333  0.0274 -0.3120
 7081TIP3    H142878   2.530   2.809   1.955 -0.7242 -1.8783 -2.6260
 7081TIP3    H242879   2.386   2.839   1.992 -0.1630 -0.6266 -1.3849
 7082TIP3   OH242880   0.193   5.469   1.453 -0.1854  0.0742 -0.2540
 7082TIP3    H142881   0.148   5.455   1.369  0.0280  0.0895 -0.3717
 7082TIP3    H242882   0.220   5.381   1.480  0.7950  0.1964 -0.7916
 7083TIP3   OH242883   6.595   5.564   8.302  0.0277 -0.0364  0.2245
 7083TIP3    H142884   6.552   5.583   8.218  0.3273  0.6970  0.2301
 7083TIP3    H242885   6.626   5.474   8.293 -3.6675 -1.5997  1.1209
 7084TIP3   OH242886   1.922   2.519   7.771  0.2148 -0.3534  0.2590
 7084TIP3    H142887   1.899   2.451   7.708 -0.3314 -1.1555  1.3117
 7084TIP3    H242888   1.839   2.562   7.791  0.4956  0.3626 -0.0848
 7085TIP3   OH242889   5.705   1.382   3.013  0.7703  0.4869 -0.0924
 7085TIP3    H142890   5.778   1.345   2.964 -0.5132 -1.7454 -0.4426
 7085TIP3    H242891   5.721   1.355   3.104  0.3780 -0.0248 -0.1737
 7086TIP3   OH242892   2.448   4.616   8.153  0.1287 -0.8675  0.3064
 7086TIP3    H142893   2.473   4.706   8.174 -0.3533 -0.7192  0.2511
 7086TIP3    H242894   2.518   4.563   8.190  0.1909 -0.4977  0.7265
 7087TIP3   OH242895   2.401   2.200   2.865 -0.4817 -0.2898  0.5485
 7087TIP3    H142896   2.441   2.149   2.936  0.1255 -1.6248 -0.6897
 7087TIP3    H242897   2.348   2.265   2.910 -0.6674 -1.5130  2.2345
 7088TIP3   OH242898   6.545   0.752   8.229  0.1046  0.0586  0.3976
 7088TIP3    H142899   6.470   0.695   8.215  2.0030 -3.0392  1.7983
 7088TIP3    H242900   6.548   0.807   8.151 -3.7190  0.5628  0.4528
 7089TIP3   OH242901   6.284   6.207   2.766 -0.4896 -0.3325  0.3766
 7089TIP3    H142902   6.249   6.207   2.855 -1.8215 -1.5159 -0.1033
 7089TIP3    H242903   6.379   6.206   2.777 -0.5845  1.4116  1.7496
 7090TIP3   OH242904   3.322   5.542   0.182  0.0403  0.8248  0.1682
 7090TIP3    H142905   3.347   5.586   0.100 -0.4313  0.6873 -0.0551
 7090TIP3    H242906   3.316   5.450   0.159  0.5144  0.7103  0.5119
 7091TIP3   OH242907   1.713   2.227   0.880  0.6702 -0.2633 -0.6584
 7091TIP3    H142908   1.796   2.230   0.927  1.0759 -0.2082 -1.3517
 7091TIP3    H242909   1.716   2.303   0.821 -0.9939  1.2462  1.0899
 7092TIP3   OH242910   0.314   0.311   8.261  0.1738  0.1572 -0.3388
 7092TIP3    H142911   0.257   0.297   8.337  3.6405  1.2445  2.8154
 7092TIP3    H242912   0.272   0.382   8.212 -1.9059 -0.1373  0.8947
 7093TIP3   OH242913   2.281   1.221   1.638 -0.5177 -0.3407  0.2338
 7093TIP3    H142914   2.268   1.128   1.619  2.7714 -0.9011  0.1683
 7093TIP3    H242915   2.252   1.266   1.559 -0.8263 -1.4252 -0.2881
 7094TIP3   OH242916   6.076   4.446   2.501  0.7045  0.3744 -0.6797
 7094TIP3    H142917   6.011   4.474   2.437  0.2268  0.8874  0.0209
 7094TIP3    H242918   6.126   4.525   2.521  0.7486  0.2536 -0.3053
 7095TIP3   OH242919   3.799   3.798   0.530 -0.0119  0.2009 -0.1986
 7095TIP3    H142920   3.767   3.879   0.490  1.5034  1.9253  1.8241
 7095TIP3    H242921   3.726   3.768   0.584 -0.3627  0.5865 -0.4478
 7096TIP3   OH242922   3.570   6.585   0.599  0.1093 -0.7794 -0.8295
 7096TIP3    H142923   3.529   6.671   0.603 -0.5157 -1.1172  1.1869
 7096TIP3    H242924   3.538   6.546   0.518 -0.0856  0.6401 -1.4489
 7097TIP3   OH242925   6.200   2.734   2.762  0.0702 -0.0003 -0.3014
 7097TIP3    H142926   6.114   2.697   2.780  0.0382  0.0713 -0.3075
 7097TIP3    H242927   6.220   2.788   2.839  0.0680  0.0584 -0.3419
 7098TIP3   OH242928   3.994   6.468   3.073 -0.2440  0.7767  0.0258
 7098TIP3    H142929   4.058   6.537   3.059  1.1691 -0.8128 -1.9024
 7098TIP3    H242930   4.008   6.440   3.164  1.5179  0.7254 -0.2420
 7099TIP3   OH242931   3.681   6.209   8.005 -0.1157 -0.7378 -0.3906
 7099TIP3    H142932   3.696   6.140   7.941  1.4535 -2.4392  1.6813
 7099TIP3    H242933   3.746   6.193   8.074 -1.2237  1.4342  1.2855
 7100TIP3   OH242934   4.203   6.266   2.610  0.0974 -0.5539 -0.9150
 7100TIP3    H142935   4.140   6.336   2.591  0.4053 -0.2794 -0.9364
 7100TIP3    H242936   4.248   6.296   2.688 -1.1349 -1.6548  0.2729
 7101TIP3   OH242937   5.211   1.520   1.889  0.5118  0.1107 -0.3556
 7101TIP3    H142938   5.211   1.461   1.814 -1.3581  0.0394 -0.3477
 7101TIP3    H242939   5.251   1.469   1.960  0.4513 -0.5432 -0.7851
 7102TIP3   OH242940   0.722   2.379   1.500  0.3213  0.3576 -0.0325
 7102TIP3    H142941   0.789   2.366   1.433  0.1048 -0.5911 -0.0857
 7102TIP3    H242942   0.770   2.410   1.576  1.1250 -1.8839  0.4649
 7103TIP3   OH242943   1.162   4.951   8.270  0.2699  0.0943 -0.0792
 7103TIP3    H142944   1.179   5.013   8.198  1.5957  1.2053  1.1267
 7103TIP3    H242945   1.159   5.006   8.348  0.7927 -1.2875  0.9435
 7104TIP3   OH242946   5.588   0.320   2.042  0.4745  0.3756 -0.3742
 7104TIP3    H142947   5.533   0.278   2.107  0.8942  0.8720  0.3148
 7104TIP3    H242948   5.535   0.392   2.008  0.3876  0.3335 -0.3272
 7105TIP3   OH242949   6.331   0.555   1.303  0.3688  0.1303 -0.0327
 7105TIP3    H142950   6.375   0.554   1.389  0.5958 -1.3406 -0.1390
 7105TIP3    H242951   6.389   0.607   1.248 -0.2847  1.9621  0.9330
 7106TIP3   OH242952   4.666   6.397   1.492 -0.2734  0.5692 -0.1397
 7106TIP3    H142953   4.593   6.386   1.431 -2.3431  1.8452  1.9640
 7106TIP3    H242954   4.664   6.490   1.515 -0.0177  0.0322  2.3214
 7107TIP3   OH242955   5.987   1.557   2.430  0.5222  0.0259 -0.2941
 7107TIP3    H142956   6.051   1.488   2.447 -0.0417 -1.2269 -2.7439
 7107TIP3    H242957   5.905   1.510   2.413 -0.6626  1.4992  0.9934
 7108TIP3   OH242958   5.810   6.698   0.385 -0.3631 -0.0654 -0.5013
 7108TIP3    H142959   5.821   6.603   0.375  0.8564 -0.0390  0.4035
 7108TIP3    H242960   5.716   6.712   0.374 -0.5220 -1.3304 -0.9721
 7109TIP3   OH242961   5.666   1.598   0.426 -0.1530  0.6241  0.1899
 7109TIP3    H142962   5.718   1.521   0.401 -0.9304  0.3964 -0.8027
 7109TIP3    H242963   5.702   1.625   0.510  0.5268 -0.4741  0.2717
 7110TIP3   OH242964   5.231   5.513   0.563 -0.2289  0.1677 -0.4070
 7110TIP3    H142965   5.227   5.605   0.537 -0.6972  0.1440 -0.4240
 7110TIP3    H242966   5.156   5.501   0.621  0.3313  0.0127  0.3052
 7111TIP3   OH242967   3.038   4.280   1.828 -0.7406 -0.0169 -0.4289
 7111TIP3    H142968   3.101   4.308   1.894 -0.7664  0.5488 -0.6386
 7111TIP3    H242969   2.959   4.256   1.877 -0.2465 -1.1174 -0.1248
 7112TIP3   OH242970   2.529   2.102   7.892  0.0101 -0.4796 -0.5314
 7112TIP3    H142971   2.584   2.023   7.886 -1.0294 -1.4351  1.5606
 7112TIP3    H242972   2.449   2.072   7.935 -0.8334  1.5502 -0.5879
 7113TIP3   OH242973   4.767   3.850   1.785  0.2816  0.0564  0.4627
 7113TIP3    H142974   4.804   3.919   1.730 -1.3520  0.0985 -0.6819
 7113TIP3    H242975   4.790   3.875   1.875 -1.2535  2.8032  0.1944
 7114TIP3   OH242976   1.125   2.909   2.566 -0.4076 -0.2397  0.2966
 7114TIP3    H142977   1.135   2.961   2.646  2.1512 -0.7595  0.4087
 7114TIP3    H242978   1.159   2.966   2.496  1.0586 -1.1596  0.2133
 7115TIP3   OH242979   1.486   2.860   0.360  0.0483 -0.1925 -0.2355
 7115TIP3    H142980   1.391   2.868   0.353 -0.1049 -0.0017  1.4830
 7115TIP3    H242981   1.515   2.948   0.385  0.6282 -0.3394 -0.3849
 7116TIP3   OH242982   3.758   2.652   1.379  0.2282  0.3622  0.1973
 7116TIP3    H142983   3.727   2.665   1.289 -0.7414  1.1202  0.6170
 7116TIP3    H242984   3.678   2.654   1.432  0.7064 -0.8629  1.0084
 7117TIP3   OH242985   5.381   2.285   0.709 -0.2608 -0.7613 -0.2326
 7117TIP3    H142986   5.394   2.345   0.782  0.1494 -1.1472  0.0135
 7117TIP3    H242987   5.324   2.217   0.743  1.6008 -2.0855  0.3993
 7118TIP3   OH242988   6.671   2.220   3.189 -0.2324  0.0921  0.8491
 7118TIP3    H142989   6.657   2.204   3.282 -2.7493  0.0674  0.5274
 7118TIP3    H242990   6.591   2.188   3.147  0.5926  0.6693 -1.2613
 7119TIP3   OH242991   3.566   5.699   2.084  0.2346 -0.1320 -0.2558
 7119TIP3    H142992   3.551   5.610   2.053 -0.3395 -0.7812  1.7424
 7119TIP3    H242993   3.568   5.692   2.179  1.8208  1.7489 -0.0694
 7120TIP3   OH242994   1.971   0.202   2.109  0.1702 -0.3442 -0.0933
 7120TIP3    H142995   1.944   0.213   2.017  1.9969  0.8733 -0.5414
 7120TIP3    H242996   1.906   0.251   2.159 -0.9027 -1.0977 -0.7117
 7121TIP3   OH242997   0.169   2.516   0.803 -0.4745  0.5113  0.3534
 7121TIP3    H142998   0.126   2.476   0.728 -0.9599  2.3015 -0.3638
 7121TIP3    H242999   0.098   2.543   0.860 -0.1288 -0.2358  1.1622
 7122TIP3   OH243000   5.678   1.097   0.341 -0.6613 -0.2753 -0.4108
 7122TIP3    H143001   5.675   1.007   0.373 -4.1416 -1.1009 -2.5170
 7122TIP3    H243002   5.728   1.092   0.259 -0.3782 -0.1415 -0.2502
 7123TIP3   OH243003   1.203   0.529   2.639 -0.1576  0.4494  0.7725
 7123TIP3    H143004   1.133   0.577   2.685 -0.5937 -0.2795  0.8845
 7123TIP3    H243005   1.206   0.444   2.683  0.9998  0.5726  0.9464
 7124TIP3   OH243006   3.452   2.838   2.184 -0.1632  0.0356 -0.0254
 7124TIP3    H143007   3.464   2.846   2.090  3.1990  1.7644  0.4129
 7124TIP3    H243008   3.512   2.769   2.210  0.8711  1.2958  1.0854
 7125TIP3   OH243009   6.395   5.153   3.458  0.1047 -0.2372 -0.2024
 7125TIP3    H143010   6.428   5.225   3.405  1.0268  0.3901  1.1742
 7125TIP3    H243011   6.410   5.180   3.548  1.2336 -2.4788  0.3524
 7126TIP3   OH243012   4.884   1.838   2.096 -0.1882 -0.0740 -0.2817
 7126TIP3    H143013   4.859   1.788   2.018 -1.5568  1.5969 -0.9878
 7126TIP3    H243014   4.804   1.885   2.120  0.7831  1.0223  0.9170
 7127TIP3   OH243015   3.988   2.263   2.011 -0.0038 -0.1041 -0.4069
 7127TIP3    H143016   3.989   2.334   2.074 -1.2562 -0.6940  0.3185
 7127TIP3    H243017   3.896   2.249   1.991  0.0691 -2.3608  0.4879
 7128TIP3   OH243018   0.686   4.123   1.772 -0.1476 -0.1655  0.2316
 7128TIP3    H143019   0.746   4.076   1.713 -0.1064  0.8993 -0.5962
 7128TIP3    H243020   0.599   4.103   1.737 -0.2785 -1.4208  1.2204
 7129TIP3   OH243021   6.469   1.185   8.461 -0.3049  0.0203  0.5723
 7129TIP3    H143022   6.527   1.121   8.501 -0.0747 -0.0401  0.1497
 7129TIP3    H243023   6.466   1.161   8.368 -0.1756  0.6453  0.3970
 7130TIP3   OH243024   2.436   2.426   1.364 -0.3001  0.1795  0.7354
 7130TIP3    H143025   2.530   2.431   1.384  0.1697  0.1584 -1.2754
 7130TIP3    H243026   2.394   2.456   1.444  1.4391  0.5941  1.5601
 7131TIP3   OH243027   5.070   4.747   1.587  0.0280 -0.1236 -0.0429
 7131TIP3    H143028   5.066   4.676   1.523 -0.7669  0.3416 -0.5235
 7131TIP3    H243029   5.074   4.702   1.672 -0.7797 -0.7502 -0.3214
 7132TIP3   OH243030   6.771   5.206   2.108  0.0413  0.2874  0.3717
 7132TIP3    H143031   6.804   5.268   2.043  1.3391 -1.4686 -0.7370
 7132TIP3    H243032   6.684   5.182   2.077  0.4677 -0.1827 -0.5064
 7133TIP3   OH243033   1.922   2.396   2.071 -0.0056  0.2396  0.0055
 7133TIP3    H143034   2.018   2.402   2.065  0.0875  0.4705  1.3904
 7133TIP3    H243035   1.906   2.347   2.152 -1.0651  0.4551 -0.0618
 7134TIP3   OH243036   4.641   2.232   2.121  0.4030 -0.2438  0.4460
 7134TIP3    H143037   4.592   2.186   2.189  0.6047 -0.0002  0.7576
 7134TIP3    H243038   4.731   2.234   2.153  0.4917 -0.0978  0.1902
 7135TIP3   OH243039   0.328   1.469   8.027  0.4601  0.1493 -0.0917
 7135TIP3    H143040   0.307   1.460   8.120 -2.3190  0.4601 -0.5920
 7135TIP3    H243041   0.278   1.546   7.999 -0.8935 -1.4568 -2.3688
 7136TIP3   OH243042   5.137   2.286   2.929 -0.2285  0.0731  0.2771
 7136TIP3    H143043   5.220   2.246   2.903  0.7441  1.8108  0.4752
 7136TIP3    H243044   5.120   2.251   3.017  1.0129  0.6715  0.7815
 7137TIP3   OH243045   0.176   0.740   1.030  0.1397 -0.1863 -0.0127
 7137TIP3    H143046   0.222   0.813   1.071  2.3437 -1.4955  0.0133
 7137TIP3    H243047   0.208   0.740   0.940 -2.4659  0.9055 -1.0225
 7138TIP3   OH243048   6.031   3.554   8.566 -0.3398  0.2884  0.1998
 7138TIP3    H143049   6.020   3.522   8.655  1.3404  0.9378  0.6762
 7138TIP3    H243050   5.969   3.626   8.558  0.6299  1.3111  1.4313
 7139TIP3   OH243051   5.844   3.409   8.273 -0.7981 -0.0132 -0.3450
 7139TIP3    H143052   5.919   3.399   8.214 -0.8324  0.6183 -0.4982
 7139TIP3    H243053   5.866   3.353   8.348 -0.4053 -0.2245 -0.6133
 7140TIP3   OH243054   3.746   4.307   7.489 -0.2075  0.1030  0.3153
 7140TIP3    H143055   3.730   4.330   7.581 -0.1244 -1.2800  0.7011
 7140TIP3    H243056   3.838   4.278   7.488 -0.4920 -0.8072  0.0013
 7141TIP3   OH243057   2.190   5.095   2.521 -0.4702  0.1326  0.5305
 7141TIP3    H143058   2.254   5.069   2.588  0.1366 -1.3875 -0.5729
 7141TIP3    H243059   2.114   5.041   2.540 -0.1793 -0.5391 -0.1787
 7142TIP3   OH243060   5.710   6.408   0.634 -0.0582 -0.1419 -0.4025
 7142TIP3    H143061   5.707   6.382   0.542  0.3963 -2.4745  0.1736
 7142TIP3    H243062   5.623   6.443   0.652  0.0129  0.8010 -1.8331
 7143TIP3   OH243063   5.948   4.863   0.660  0.1892  0.2689  0.4913
 7143TIP3    H143064   6.037   4.871   0.695  0.5609  0.3415 -0.4446
 7143TIP3    H243065   5.903   4.805   0.721  0.9826 -0.0415  0.7842
 7144TIP3   OH243066   1.624   4.787   8.516  0.3439  0.1458 -0.5698
 7144TIP3    H143067   1.612   4.876   8.482  0.5060  0.6153  0.5485
 7144TIP3    H243068   1.540   4.744   8.502  0.9171 -0.3148 -3.2333
 7145TIP3   OH243069   5.191   0.961   7.498 -0.6329 -0.0403  0.5956
 7145TIP3    H143070   5.148   1.043   7.476 -0.0529  0.2575  0.5571
 7145TIP3    H243071   5.134   0.893   7.461 -0.7179  0.3738 -0.0376
 7146TIP3   OH243072   1.199   3.770   0.815 -0.2042  0.9861 -0.0495
 7146TIP3    H143073   1.158   3.707   0.875  0.6671 -0.8452 -1.2886
 7146TIP3    H243074   1.181   3.856   0.855  1.2182 -0.1345  3.4029
 7147TIP3   OH243075   2.908   6.519   0.158  0.4932 -0.1382  0.5040
 7147TIP3    H143076   2.948   6.434   0.178  0.9770 -0.5774 -2.0260
 7147TIP3    H243077   2.897   6.519   0.063  1.2758  2.9838  0.3053
 7148TIP3   OH243078   4.533   4.491   2.777  0.1036  0.6153 -0.4506
 7148TIP3    H143079   4.494   4.499   2.863  0.4361 -0.7166 -0.1529
 7148TIP3    H243080   4.481   4.424   2.732  0.9074  0.1324 -0.6919
 7149TIP3   OH243081   2.094   6.136   0.169  0.2133 -0.0013  0.1599
 7149TIP3    H143082   2.033   6.128   0.243  0.0872  0.4587  0.1149
 7149TIP3    H243083   2.058   6.209   0.117  0.5616 -0.0139 -0.1002
 7150TIP3   OH243084   6.565   4.384   8.611  0.1667 -0.4841  0.0855
 7150TIP3    H143085   6.636   4.336   8.570  2.0923  0.6786  1.8655
 7150TIP3    H243086   6.577   4.371   8.705 -2.2629 -0.5801  0.4683
 7151TIP3   OH243087   5.574   4.031   8.269  0.2116 -0.2231 -0.2384
 7151TIP3    H143088   5.594   4.018   8.176  0.9575 -1.3401  0.0471
 7151TIP3    H243089   5.503   3.969   8.287 -1.8045  1.8474 -0.6240
 7152TIP3   OH243090   2.642   5.429   0.312 -0.4018 -0.3999 -0.0172
 7152TIP3    H143091   2.576   5.496   0.329 -0.3524 -0.6656  1.3365
 7152TIP3    H243092   2.699   5.432   0.389  1.9101  0.6487 -1.6876
 7153TIP3   OH243093   0.817   2.113   0.835 -0.2819  0.2979  0.6644
 7153TIP3    H143094   0.847   2.028   0.804 -1.8736 -0.9161  2.2284
 7153TIP3    H243095   0.886   2.143   0.895  0.4988  0.3576 -0.2495
 7154TIP3   OH243096   5.651   4.162   2.454  0.5350  0.7349  0.3125
 7154TIP3    H143097   5.728   4.107   2.464 -0.6961 -1.2092 -0.4233
 7154TIP3    H243098   5.590   4.130   2.520 -0.7484  0.1831 -1.0772
 7155TIP3   OH243099   0.298   5.783   0.561  0.7383  0.3836 -0.3948
 7155TIP3    H143100   0.319   5.707   0.616  2.7874  0.9197 -0.3214
 7155TIP3    H243101   0.305   5.858   0.621  2.5654  0.9348 -1.2257
 7156TIP3   OH243102   0.134   5.331   0.617 -0.0308 -0.1482  0.0214
 7156TIP3    H143103   0.083   5.407   0.590  1.3834  0.4548 -1.0676
 7156TIP3    H243104   0.118   5.266   0.548  0.5148 -0.0192 -0.2321
 7157TIP3   OH243105   6.216   5.586   0.803 -0.1022  0.2025 -0.0636
 7157TIP3    H143106   6.298   5.632   0.818  0.1383 -0.1887 -0.1641
 7157TIP3    H243107   6.152   5.655   0.785  0.0089  0.5682  0.8751
 7158TIP3   OH243108   5.758   3.993   2.882  0.1297 -0.0097  0.4438
 7158TIP3    H143109   5.852   4.009   2.882  0.2585 -0.6749 -0.7878
 7158TIP3    H243110   5.747   3.910   2.835 -0.9442 -0.7794  1.9605
 7159TIP3   OH243111   0.507   6.062   0.359 -0.3331  0.4349 -0.4212
 7159TIP3    H143112   0.574   6.042   0.424 -1.6730 -1.8974  0.3209
 7159TIP3    H243113   0.496   5.981   0.309 -1.7204  1.1449 -1.3396
 7160TIP3   OH243114   3.589   4.188   1.894 -0.3930  0.3428 -0.0534
 7160TIP3    H143115   3.495   4.186   1.873 -0.4440  2.2744 -0.1503
 7160TIP3    H243116   3.592   4.207   1.987 -0.0804 -0.1383  0.0398
 7161TIP3   OH243117   6.373   5.357   8.657  0.4446 -0.0250  0.0986
 7161TIP3    H143118   6.413   5.442   8.639 -0.4633  0.2778 -0.5404
 7161TIP3    H243119   6.286   5.378   8.691  0.9951 -0.6671  1.9766
 7162TIP3   OH243120   4.491   3.854   0.660 -0.1003  0.2163 -0.1536
 7162TIP3    H143121   4.401   3.852   0.694  0.0528 -0.7460  0.2435
 7162TIP3    H243122   4.505   3.766   0.626  0.2741  0.7262 -1.3682
 7163TIP3   OH243123   3.345   6.656   0.921 -0.0115  0.3120 -0.0107
 7163TIP3    H143124   3.270   6.600   0.901 -0.0315  0.4118 -0.2209
 7163TIP3    H243125   3.421   6.603   0.899  0.0488 -0.4633  1.8930
 7164TIP3   OH243126   4.011   2.357   0.162 -0.3936 -0.3911 -0.2951
 7164TIP3    H143127   4.004   2.447   0.195 -0.0374 -0.4488 -0.0562
 7164TIP3    H243128   3.922   2.323   0.165 -0.4362 -0.2433  0.1713
 7165LIG      O43129   0.704   3.292   3.418 -0.1220  0.7838 -0.0939
 7165LIG      N43130   0.308   3.217   3.246  0.4050  0.1193  0.0549
 7165LIG     C143131   0.726   3.504   3.295 -1.3347  0.0615 -0.1070
 7165LIG     C243132   0.633   3.403   3.367 -0.1916  0.4537  0.1267
 7165LIG     C343133   0.839   3.559   3.392  0.0623  0.1922 -0.2586
 7165LIG     C443134   0.794   3.434   3.167  0.2955 -1.3846 -0.4257
 7165LIG     C543135   0.517   3.347   3.274  0.2558 -0.2224  0.1884
 7165LIG     C643136   0.943   3.655   3.321 -0.0695  0.2184 -0.2929
 7165LIG     C743137   0.892   3.537   3.098 -0.4506  0.1753 -0.0392
 7165LIG     C843138   1.003   3.589   3.187  0.8435 -0.4011 -0.2988
 7165LIG     C943139   0.400   3.276   3.346  0.0781  0.4071  0.0544
 7165LIG    C1043140   0.551   3.481   3.477  0.1848  0.3686  0.3539
 7165LIG    C1143141   0.240   3.086   3.274 -0.2569 -0.2265 -0.4355
 7165LIG    C1243142   0.214   3.308   3.183  0.2632 -1.3818 -0.8998
 7165LIG    C1343143   0.112   3.111   3.373 -0.1843  0.2019  0.3179
 7165LIG    C1443144   0.090   3.331   3.280  0.2734 -0.4509 -0.3093
 7165LIG    C1543145   0.011   3.209   3.310  0.0896  0.4052  0.1400
 7165LIG    C1643146   0.478   3.595   3.439 -0.6149 -0.1147  0.5210
 7165LIG    C1743147   0.543   3.446   3.619 -0.3293  0.0384  0.4986
 7165LIG    C1843148   0.422   3.683   3.531  0.6262  0.1288 -0.3125
 7165LIG    C1943149   0.492   3.542   3.705 -0.1688 -0.0428 -0.4835
 7165LIG    C2043150   0.435   3.660   3.664  0.6742  0.1582  0.2228
 7165LIG     H143151   0.680   3.599   3.261  1.1936  1.1618 -0.6799
 7165LIG     H243152   0.893   3.474   3.437 -0.8197  0.9645  2.4174
 7165LIG     H343153   0.780   3.612   3.470  1.9864  0.0739  1.3380
 7165LIG     H443154   0.726   3.412   3.082  1.3298  0.2676 -1.7561
 7165LIG     H543155   0.858   3.352   3.205  2.6435  2.1219  4.2245
 7165LIG     H643156   0.561   3.285   3.192  0.3922  0.3685 -0.1941
 7165LIG     H743157   0.475   3.441   3.233 -0.4721 -0.3779  0.5661
 7165LIG     H843158   1.025   3.678   3.391  0.9962 -2.2680 -0.6183
 7165LIG     H943159   0.891   3.752   3.305  0.2614  0.8988  2.4067
 7165LIG    H1043160   0.825   3.620   3.068  0.4351  0.2387 -1.9797
 7165LIG    H1143161   0.938   3.510   3.000  0.2439 -0.3309  0.4170
 7165LIG    H1243162   1.068   3.506   3.218 -0.1854 -1.5111 -1.0304
 7165LIG    H1343163   1.062   3.673   3.144 -2.2726  0.8110 -2.6356
 7165LIG    H1443164   0.443   3.189   3.401  1.5272  0.2951 -1.2163
 7165LIG    H1543165   0.346   3.348   3.412 -1.2916 -0.4859 -0.0398
 7165LIG    H1643166   0.296   3.021   3.346  1.3577  0.9288 -0.5959
 7165LIG    H1743167   0.203   3.033   3.184 -2.0829  0.5066 -0.1613
 7165LIG    H1843168   0.177   3.264   3.088 -3.0495 -1.2182  0.1819
 7165LIG    H1943169   0.266   3.406   3.174 -0.9279 -0.6518 -0.1106
 7165LIG    H2043170   0.647   3.234   3.470  0.4907 -0.0881 -0.3650
 7165LIG    H2143171   0.144   3.150   3.472 -2.0128  2.0922  0.2522
 7165LIG    H2243172   0.067   3.011   3.387  0.8263 -0.2758  0.1705
 7165LIG    H2343173   0.028   3.411   3.233 -0.0213  1.2440  2.7325
 7165LIG    H2443174   0.118   3.369   3.381 -4.1189 -1.7320  1.6256
 7165LIG    H2543175  -0.076   3.219   3.378 -0.7999  0.3736 -0.9692
 7165LIG    H2643176  -0.039   3.166   3.221 -1.1244 -0.2930  1.1363
 7165LIG    H2743177   0.473   3.622   3.335 -0.9230  1.7594  0.9865
 7165LIG    H2843178   0.579   3.350   3.652 -0.9069 -0.5891 -0.6208
 7165LIG    H2943179   0.370   3.769   3.492 -0.6296 -1.0983 -1.4875
 7165LIG    H3043180   0.489   3.516   3.809  2.6074  1.2353  0.0048
 7165LIG    H3143181   0.387   3.724   3.737 -4.0356 -0.7696 -1.7176
   6.88976   6.88976   8.70006
