Title
43181
    1CHL1    C3    1   4.187   5.795   7.244 -0.0006 -0.7154  0.1521
    1CHL1    H3    2   4.080   5.822   7.237  0.5441  1.4435 -0.6078
    1CHL1    O3    3   4.220   5.798   7.380  0.0163  0.1486 -0.0388
    1CHL1   H3'    4   4.283   5.870   7.381  0.3306 -0.1026 -1.0349
    1CHL1    C4    5   4.208   5.657   7.184 -0.5963  0.1352 -0.8623
    1CHL1   H4A    6   4.313   5.627   7.200 -0.6093  0.1621 -0.7291
    1CHL1   H4B    7   4.145   5.580   7.234 -0.0462  0.5505  0.4832
    1CHL1    C5    8   4.176   5.655   7.033 -0.1192  0.2570 -0.5540
    1CHL1    C6    9   4.087   5.571   6.984  0.0220  0.0289 -0.1111
    1CHL1    H6   10   4.037   5.501   7.052 -2.4620  0.1870 -1.6469
    1CHL1    C7   11   4.059   5.546   6.844  0.7056  0.2932  0.2583
    1CHL1   H7A   12   4.070   5.437   6.825 -1.3614 -0.0066  0.5643
    1CHL1   H7B   13   3.952   5.568   6.826  0.2102 -2.4547 -0.6355
    1CHL1    C8   14   4.170   5.608   6.756 -0.2060 -0.7410 -0.5353
    1CHL1    H8   15   4.264   5.553   6.774  1.2935  1.9072  0.2801
    1CHL1   C14   16   4.134   5.601   6.607 -0.1361  0.4278 -0.6259
    1CHL1   H14   17   4.043   5.664   6.596  0.7698  1.8099 -0.4710
    1CHL1   C15   18   4.100   5.460   6.550  0.6370  0.4818 -0.6896
    1CHL1  H15A   19   4.172   5.383   6.587 -1.5740 -0.7885  1.2041
    1CHL1  H15B   20   4.001   5.423   6.584  0.9829  0.9444  0.9439
    1CHL1   C16   21   4.103   5.491   6.406 -0.3953  0.2973  0.5619
    1CHL1  H16A   22   4.163   5.415   6.351 -0.8673 -0.0842  0.5588
    1CHL1  H16B   23   4.002   5.472   6.363 -0.4240 -2.5166  1.6252
    1CHL1   C17   24   4.166   5.629   6.382 -0.0392  0.0189 -0.0706
    1CHL1   H17   25   4.077   5.693   6.366  0.2016  0.2739 -0.4168
    1CHL1   C13   26   4.233   5.671   6.510 -0.0364 -0.3380 -0.0646
    1CHL1   C18   27   4.367   5.601   6.525 -0.6032  0.4361 -0.6452
    1CHL1  H18A   28   4.359   5.493   6.502 -2.1017 -0.0010  1.6627
    1CHL1  H18B   29   4.441   5.646   6.455  1.2888 -3.4472 -1.4252
    1CHL1  H18C   30   4.411   5.616   6.625 -0.6690  2.2836 -0.8480
    1CHL1   C12   31   4.241   5.818   6.561  0.7419  0.9268  0.6518
    1CHL1  H12A   32   4.313   5.883   6.506 -0.3719  0.4025 -1.5382
    1CHL1  H12B   33   4.144   5.865   6.535 -0.8886 -2.5582 -0.0745
    1CHL1   C11   34   4.283   5.843   6.702  0.9138  0.0520 -0.1940
    1CHL1  H11A   35   4.389   5.810   6.706  0.5435 -1.1114  2.4321
    1CHL1  H11B   36   4.276   5.949   6.734 -1.4446 -0.8060  2.5855
    1CHL1    C9   37   4.209   5.752   6.808  0.7258  0.5033  0.6296
    1CHL1    H9   38   4.109   5.801   6.813  1.5635  2.4702 -0.8280
    1CHL1   C10   39   4.257   5.755   6.950  0.3261  0.2937  0.1448
    1CHL1   C19   40   4.409   5.716   6.954 -0.1647 -0.3118 -0.1915
    1CHL1  H19A   41   4.455   5.707   7.055  1.3174 -2.2512 -0.9717
    1CHL1  H19B   42   4.424   5.612   6.916 -1.0595 -0.8276  0.8120
    1CHL1  H19C   43   4.461   5.798   6.900 -1.9036  2.0137  1.4815
    1CHL1    C1   44   4.224   5.902   7.008 -0.2994  0.6453  0.5330
    1CHL1   H1A   45   4.270   5.980   6.944 -0.3956 -1.1383 -1.7988
    1CHL1   H1B   46   4.114   5.915   6.998 -0.2742  0.9853  0.6681
    1CHL1    C2   47   4.252   5.911   7.159 -0.0836  0.2385  0.3297
    1CHL1   H2A   48   4.205   6.003   7.200 -0.2189 -0.1954  1.1723
    1CHL1   H2B   49   4.360   5.909   7.185 -0.6258 -1.7456  2.8270
    1CHL1   C20   50   4.234   5.651   6.246  0.7298 -0.1453 -0.4056
    1CHL1   H20   51   4.310   5.571   6.238 -0.3281 -1.0104 -2.6672
    1CHL1   C21   52   4.285   5.790   6.234 -0.5765  0.3963  0.3478
    1CHL1  H21A   53   4.312   5.812   6.129 -0.6889  1.7995  0.5955
    1CHL1  H21B   54   4.379   5.812   6.287  0.5783  3.0835 -2.5219
    1CHL1  H21C   55   4.197   5.855   6.255 -1.1348 -0.1941 -0.1323
    1CHL1   C22   56   4.147   5.609   6.123 -0.1239 -0.2632  0.2135
    1CHL1  H22A   57   4.125   5.500   6.129  0.1129 -0.3652 -0.6698
    1CHL1  H22B   58   4.049   5.659   6.141 -2.4545 -3.5309 -2.1116
    1CHL1   C23   59   4.192   5.644   5.977  0.4296 -0.1173  0.1343
    1CHL1  H23A   60   4.127   5.593   5.903  0.0993  1.3955 -0.6544
    1CHL1  H23B   61   4.179   5.754   5.962 -2.0093  0.3828  4.4783
    1CHL1   C24   62   4.342   5.611   5.952  0.5867  0.2508 -0.1709
    1CHL1  H24A   63   4.414   5.653   6.025  1.4568  0.0629 -0.9033
    1CHL1  H24B   64   4.348   5.501   5.970  0.8033  0.5631  1.9502
    1CHL1   C25   65   4.388   5.645   5.810 -1.0069  0.1327 -0.2019
    1CHL1   H25   66   4.300   5.637   5.742 -1.0005 -1.0211 -0.1003
    1CHL1   C26   67   4.436   5.793   5.798 -0.2995  0.3839 -0.2249
    1CHL1  H26A   68   4.450   5.834   5.900  2.3346  0.8684 -0.7184
    1CHL1  H26B   69   4.532   5.806   5.744 -0.0722  1.4239  0.3950
    1CHL1  H26C   70   4.359   5.859   5.751  0.4912  0.8620 -0.8725
    1CHL1   C27   71   4.493   5.541   5.752  0.1477 -0.0797 -0.5900
    1CHL1  H27A   72   4.454   5.438   5.769 -0.4506  0.0184 -1.2923
    1CHL1  H27B   73   4.507   5.554   5.643  0.7643 -0.3227 -0.5452
    1CHL1  H27C   74   4.584   5.556   5.814  0.3832 -0.2813 -0.8842
    2CHL1    C3   75   3.825   0.023   7.276 -0.4137 -0.0844 -0.0808
    2CHL1    H3   76   3.723   0.061   7.258 -0.9790 -1.3254  0.3965
    2CHL1    O3   77   3.837   0.010   7.420  0.2409  0.5171  0.3921
    2CHL1   H3'   78   3.924  -0.030   7.428  0.6184  1.0946 -0.5661
    2CHL1    C4   79   3.847  -0.107   7.199  0.1716 -0.2391 -0.2640
    2CHL1   H4A   80   3.946  -0.150   7.225 -0.3903 -1.3395  0.1615
    2CHL1   H4B   81   3.771  -0.181   7.234  1.2327 -0.6462  1.2810
    2CHL1    C5   82   3.843  -0.085   7.047 -0.5133 -0.2103  0.3924
    2CHL1    C6   83   3.777  -0.167   6.967 -0.2023  0.0202  0.6659
    2CHL1    H6   84   3.727  -0.257   7.007  2.4559 -1.2654  1.2774
    2CHL1    C7   85   3.779  -0.153   6.815  0.5585  0.1001  0.4450
    2CHL1   H7A   86   3.791  -0.254   6.769  0.6427  0.4621 -0.3371
    2CHL1   H7B   87   3.680  -0.110   6.790  0.5666  0.2748  0.7014
    2CHL1    C8   88   3.892  -0.065   6.754  0.8388 -0.0391  0.1261
    2CHL1    H8   89   3.987  -0.123   6.752  0.5046 -0.5776 -0.9430
    2CHL1   C14   90   3.867  -0.046   6.606 -0.1064 -0.3176  0.2674
    2CHL1   H14   91   3.766  -0.001   6.596  0.4398  1.1458  1.0397
    2CHL1   C15   92   3.860  -0.166   6.513  0.4245 -0.0032 -0.5018
    2CHL1  H15A   93   3.931  -0.246   6.543 -0.1920 -0.9292 -1.4482
    2CHL1  H15B   94   3.759  -0.197   6.548 -1.0148  1.8702 -2.6910
    2CHL1   C16   95   3.859  -0.094   6.372 -0.0525  0.3510  0.0145
    2CHL1  H16A   96   3.924  -0.162   6.313  0.8657 -0.4372  1.8471
    2CHL1  H16B   97   3.752  -0.089   6.345 -0.4253 -1.3858  1.0033
    2CHL1   C17   98   3.909   0.056   6.399  0.0441 -0.3425 -0.3376
    2CHL1   H17   99   3.814   0.113   6.406 -0.2037 -0.7748 -0.1893
    2CHL1   C13  100   3.962   0.061   6.544  0.0512  0.1415  0.4346
    2CHL1   C18  101   4.112   0.004   6.549 -0.4020 -0.5363  0.6788
    2CHL1  H18A  102   4.186   0.068   6.498 -0.6050  0.3420  1.4637
    2CHL1  H18B  103   4.131  -0.004   6.658  0.0715 -0.7513  0.5801
    2CHL1  H18C  104   4.115  -0.100   6.509 -0.5940 -0.6126  0.8583
    2CHL1   C12  105   3.955   0.192   6.619  0.3953  0.2359  0.3843
    2CHL1  H12A  106   4.020   0.277   6.590 -0.2916 -0.2136 -2.8583
    2CHL1  H12B  107   3.850   0.226   6.611  0.5376  0.8948  1.1201
    2CHL1   C11  108   3.975   0.173   6.773 -0.6081  0.7721  0.3385
    2CHL1  H11A  109   4.084   0.156   6.783 -0.3556  1.8953 -0.3242
    2CHL1  H11B  110   3.948   0.272   6.817 -2.3919 -0.5083  2.3170
    2CHL1    C9  111   3.900   0.059   6.840 -0.3936  0.1204 -0.2650
    2CHL1    H9  112   3.797   0.101   6.838 -0.4166  0.2000  1.4918
    2CHL1   C10  113   3.930   0.032   6.993 -0.6698  0.3132 -0.4024
    2CHL1   C19  114   4.076  -0.017   7.003  0.2199 -0.3216  1.1940
    2CHL1  H19A  115   4.092  -0.108   6.942  0.1429  0.2909  0.2498
    2CHL1  H19B  116   4.147   0.051   6.951  0.0953 -1.4887 -0.5764
    2CHL1  H19C  117   4.108  -0.040   7.107 -0.4580 -0.4721  1.3741
    2CHL1    C1  118   3.901   0.159   7.074 -0.0325  0.2087 -0.7110
    2CHL1   H1A  119   3.971   0.240   7.047  0.6259  0.2232  0.9303
    2CHL1   H1B  120   3.794   0.186   7.062  0.1222  1.9275  1.3323
    2CHL1    C2  121   3.908   0.147   7.225 -0.1895  0.0959  0.6599
    2CHL1   H2A  122   3.867   0.237   7.277 -3.9955 -1.4824  0.7156
    2CHL1   H2B  123   4.010   0.118   7.257 -0.3525 -0.4329  0.7096
    2CHL1   C20  124   3.998   0.110   6.290  0.3198 -0.2445 -0.5590
    2CHL1   H20  125   4.099   0.063   6.285  0.5702  0.2359 -0.0794
    2CHL1   C21  126   4.022   0.261   6.317 -0.4155  0.1651  0.1155
    2CHL1  H21A  127   3.932   0.314   6.354 -0.2152 -1.1318  2.6811
    2CHL1  H21B  128   4.074   0.318   6.236  0.5909  2.3578  2.1739
    2CHL1  H21C  129   4.085   0.269   6.408 -1.5261  0.4512  0.8724
    2CHL1   C22  130   3.926   0.093   6.148  0.0009  0.1831 -0.2665
    2CHL1  H22A  131   3.896  -0.013   6.137  2.4211 -0.6949  0.8985
    2CHL1  H22B  132   3.849   0.173   6.147 -1.0948 -0.8620 -1.3164
    2CHL1   C23  133   4.025   0.130   6.034 -0.0563 -0.3856 -0.1562
    2CHL1  H23A  134   4.066   0.230   6.056 -1.7567  0.9007 -2.3804
    2CHL1  H23B  135   4.101   0.048   6.034  1.2731  0.8222  0.3313
    2CHL1   C24  136   3.951   0.129   5.894  0.7812 -0.8360  0.7432
    2CHL1  H24A  137   3.907   0.029   5.871  3.3570 -1.4650 -2.1020
    2CHL1  H24B  138   3.871   0.207   5.894  1.2850 -0.2550 -1.3205
    2CHL1   C25  139   4.041   0.153   5.767 -0.2259  0.1124  0.3301
    2CHL1   H25  140   4.119   0.075   5.782  0.7989  1.1968  0.7891
    2CHL1   C26  141   3.965   0.141   5.634  0.2038  0.4706 -0.2462
    2CHL1  H26A  142   3.872   0.201   5.644 -0.1704 -0.3800  1.9327
    2CHL1  H26B  143   4.022   0.169   5.543 -0.0282  1.8148  0.0014
    2CHL1  H26C  144   3.922   0.040   5.621 -1.9786  1.5107 -1.7533
    2CHL1   C27  145   4.112   0.279   5.791 -0.5590  0.2247 -0.5735
    2CHL1  H27A  146   4.181   0.285   5.878 -0.8273 -0.5727 -0.2982
    2CHL1  H27B  147   4.178   0.295   5.703 -1.5314  0.6079 -1.2441
    2CHL1  H27C  148   4.038   0.362   5.791  1.5299  2.2003  0.3505
    3CHL1    C3  149   3.513   5.987   7.320  0.4351 -0.0115 -0.4278
    3CHL1    H3  150   3.453   5.896   7.300 -3.4314  1.9700  1.2136
    3CHL1    O3  151   3.504   6.013   7.457 -0.4534 -0.0195 -0.4602
    3CHL1   H3'  152   3.592   5.992   7.489  0.0614  1.2913 -0.9471
    3CHL1    C4  153   3.658   5.967   7.276  0.6002  0.3246 -0.2602
    3CHL1   H4A  154   3.721   6.051   7.312  0.5382 -0.6154  2.2538
    3CHL1   H4B  155   3.698   5.874   7.323  2.5951  0.7281 -1.0648
    3CHL1    C5  156   3.668   5.951   7.125 -0.4990 -0.2938  0.5344
    3CHL1    C6  157   3.728   5.841   7.070  0.4632 -0.1283 -0.1919
    3CHL1    H6  158   3.762   5.769   7.146 -1.0263  0.1947  0.8176
    3CHL1    C7  159   3.745   5.811   6.926  0.2196 -0.3330  0.1315
    3CHL1   H7A  160   3.850   5.777   6.910  0.4897  1.4481 -2.5960
    3CHL1   H7B  161   3.674   5.734   6.889  0.2269  0.0321 -0.6472
    3CHL1    C8  162   3.726   5.945   6.844  0.5827  0.7699  0.0014
    3CHL1    H8  163   3.809   6.017   6.857 -0.1499  1.4858  0.8050
    3CHL1   C14  164   3.713   5.909   6.694 -0.0215 -0.0540  0.1495
    3CHL1   H14  165   3.625   5.842   6.693 -0.5342  0.6092 -0.0479
    3CHL1   C15  166   3.830   5.834   6.628 -0.1825 -0.3529  0.1631
    3CHL1  H15A  167   3.931   5.873   6.654  1.0923 -2.9811 -0.4751
    3CHL1  H15B  168   3.829   5.725   6.651 -1.2896 -0.5859 -0.8705
    3CHL1   C16  169   3.804   5.848   6.476  0.8492  0.2022 -0.0636
    3CHL1  H16A  170   3.888   5.890   6.418  1.1035 -0.2965 -0.0612
    3CHL1  H16B  171   3.777   5.754   6.424  1.8540  1.5916 -3.3658
    3CHL1   C17  172   3.678   5.941   6.465 -0.0913  0.3685  0.0072
    3CHL1   H17  173   3.589   5.877   6.449 -0.4017  0.7341  0.2520
    3CHL1   C13  174   3.679   6.026   6.595 -0.5066  0.6605 -0.0860
    3CHL1   C18  175   3.801   6.125   6.595 -0.0973 -0.3092  1.1007
    3CHL1  H18A  176   3.834   6.151   6.698  1.0582 -0.4701  0.7936
    3CHL1  H18B  177   3.885   6.073   6.545 -1.6442 -2.0025  0.1477
    3CHL1  H18C  178   3.777   6.211   6.529 -1.3055 -2.3039 -1.2010
    3CHL1   C12  179   3.551   6.086   6.649 -0.0449 -0.3270  0.3876
    3CHL1  H12A  180   3.525   6.172   6.584 -1.1154 -0.9637 -0.0751
    3CHL1  H12B  181   3.479   6.002   6.639  1.1861 -1.4096  0.3604
    3CHL1   C11  182   3.557   6.135   6.790  0.6800 -0.3657 -1.0685
    3CHL1  H11A  183   3.638   6.211   6.798 -0.1665  0.5574 -1.1410
    3CHL1  H11B  184   3.463   6.182   6.825  0.3245 -1.8013 -0.0220
    3CHL1    C9  185   3.597   6.020   6.892 -0.8642  0.2262  0.4244
    3CHL1    H9  186   3.512   5.949   6.886 -0.2360 -0.5517  0.6417
    3CHL1   C10  187   3.605   6.053   7.036  0.4254 -0.2677 -0.1523
    3CHL1   C19  188   3.685   6.182   7.055 -0.2954 -0.8126  0.1578
    3CHL1  H19A  189   3.782   6.174   7.002 -1.6023  0.1299 -2.6114
    3CHL1  H19B  190   3.643   6.274   7.008  0.7996 -0.4081 -0.0662
    3CHL1  H19C  191   3.704   6.215   7.159  4.1170 -0.8141 -0.4747
    3CHL1    C1  192   3.460   6.085   7.091 -0.4868  0.0444  0.5309
    3CHL1   H1A  193   3.428   6.177   7.037  0.8519 -0.5811 -1.4500
    3CHL1   H1B  194   3.384   6.004   7.082 -2.2334  1.7279 -0.7264
    3CHL1    C2  195   3.452   6.103   7.243 -0.3805  0.0680  0.2316
    3CHL1   H2A  196   3.345   6.127   7.264 -1.1939 -1.4827 -1.7493
    3CHL1   H2B  197   3.524   6.185   7.263  1.3503 -1.3892  0.2502
    3CHL1   C20  198   3.673   6.015   6.328  0.3915 -0.3109 -0.0860
    3CHL1   H20  199   3.757   6.088   6.335  2.1213 -1.9264 -2.4456
    3CHL1   C21  200   3.538   6.096   6.315 -0.3315 -0.4311 -0.2755
    3CHL1  H21A  201   3.510   6.166   6.397 -2.0427 -0.9830 -0.3518
    3CHL1  H21B  202   3.453   6.025   6.314 -1.9816  1.4371  0.8429
    3CHL1  H21C  203   3.529   6.156   6.222  1.2542  0.0740 -0.1355
    3CHL1   C22  204   3.693   5.929   6.207  0.5928  0.4634 -0.3542
    3CHL1  H22A  205   3.783   5.864   6.216  2.0820  2.6132  1.7006
    3CHL1  H22B  206   3.614   5.852   6.196 -0.6639  1.7286 -0.4788
    3CHL1   C23  207   3.709   5.998   6.072  0.1729  0.0209  0.6982
    3CHL1  H23A  208   3.624   6.065   6.048  1.9782  2.3318  0.4312
    3CHL1  H23B  209   3.798   6.064   6.076 -0.7196  1.4702 -1.4393
    3CHL1   C24  210   3.734   5.884   5.965  0.4798  0.4905  0.4146
    3CHL1  H24A  211   3.796   5.803   6.010 -0.9253 -0.7269  0.2105
    3CHL1  H24B  212   3.640   5.839   5.927  0.0055 -0.4347  2.4997
    3CHL1   C25  213   3.811   5.930   5.841 -0.3332  0.2773  0.2646
    3CHL1   H25  214   3.753   6.003   5.782  2.0210  0.7362 -1.6523
    3CHL1   C26  215   3.952   5.990   5.869 -0.1047 -0.0409 -0.4293
    3CHL1  H26A  216   4.024   6.001   5.786 -0.5864 -0.2721 -0.8830
    3CHL1  H26B  217   3.946   6.093   5.911 -2.5467  0.0076 -0.7370
    3CHL1  H26C  218   3.999   5.929   5.949  0.3194 -0.9361 -1.3459
    3CHL1   C27  219   3.822   5.809   5.745 -0.6557 -0.0046  0.2823
    3CHL1  H27A  220   3.897   5.820   5.664 -0.7645  0.1717  0.2047
    3CHL1  H27B  221   3.841   5.726   5.816  0.9712  0.7878  0.8399
    3CHL1  H27C  222   3.720   5.794   5.705 -0.5151  1.1089 -0.5415
    4CHL1    C3  223   3.543   0.673   7.282  0.5765 -0.0563  1.1966
    4CHL1    H3  224   3.564   0.564   7.283 -1.0501 -0.4311 -0.5404
    4CHL1    O3  225   3.493   0.715   7.409  0.0287  0.1190  0.4554
    4CHL1   H3'  226   3.430   0.648   7.435 -0.6662  0.9640  0.9800
    4CHL1    C4  227   3.665   0.761   7.244 -0.1471  0.2153  0.0034
    4CHL1   H4A  228   3.643   0.869   7.253 -2.4457  0.0403 -2.4256
    4CHL1   H4B  229   3.743   0.734   7.319 -1.1175  0.2534  1.0635
    4CHL1    C5  230   3.710   0.723   7.106  0.3876  0.2665 -0.5446
    4CHL1    C6  231   3.831   0.673   7.075  0.0138  0.2542 -0.0789
    4CHL1    H6  232   3.902   0.664   7.158 -0.3003  1.9476  0.4019
    4CHL1    C7  233   3.877   0.637   6.934  0.4218  0.5086 -0.1843
    4CHL1   H7A  234   3.984   0.659   6.917  1.0609 -1.7668  0.5522
    4CHL1   H7B  235   3.866   0.527   6.921  0.5603  0.6707 -1.9391
    4CHL1    C8  236   3.794   0.708   6.830  0.6521 -0.4591 -0.5422
    4CHL1    H8  237   3.816   0.816   6.843 -1.6532 -0.1410  1.4323
    4CHL1   C14  238   3.825   0.641   6.701 -0.5258  0.3597  0.5430
    4CHL1   H14  239   3.782   0.543   6.728 -2.2859  1.5171  2.1907
    4CHL1   C15  240   3.974   0.622   6.658  0.2383  0.5456  0.6870
    4CHL1  H15A  241   4.032   0.710   6.694  1.7249 -0.1472  0.0521
    4CHL1  H15B  242   4.026   0.534   6.702  1.5297  0.2226 -1.3526
    4CHL1   C16  243   3.974   0.611   6.504 -0.4561 -0.2955 -0.4173
    4CHL1  H16A  244   4.038   0.693   6.465  2.2553 -1.1277  1.8796
    4CHL1  H16B  245   4.023   0.519   6.464  1.6554  1.3005 -1.6918
    4CHL1   C17  246   3.825   0.620   6.467  0.1075 -0.7988  0.5144
    4CHL1   H17  247   3.774   0.521   6.474  0.1530 -0.9286 -0.6652
    4CHL1   C13  248   3.754   0.702   6.577  0.6139  0.7245 -0.3340
    4CHL1   C18  249   3.783   0.851   6.560  0.1334  0.3452 -0.3938
    4CHL1  H18A  250   3.718   0.889   6.478  0.8241  2.0718 -0.1871
    4CHL1  H18B  251   3.754   0.901   6.654  1.0050 -1.6291  0.9858
    4CHL1  H18C  252   3.889   0.879   6.542 -0.5631  2.8604 -0.9858
    4CHL1   C12  253   3.602   0.679   6.608 -0.4103  0.6419  0.2796
    4CHL1  H12A  254   3.538   0.702   6.521 -1.2260  2.2238  1.2555
    4CHL1  H12B  255   3.590   0.569   6.618 -1.3897  0.8005  0.8730
    4CHL1   C11  256   3.557   0.743   6.738 -0.1133 -0.1970 -0.2761
    4CHL1  H11A  257   3.565   0.851   6.712 -0.3194 -0.5353 -1.8548
    4CHL1  H11B  258   3.448   0.723   6.746  0.0183 -2.2518 -2.5434
    4CHL1    C9  259   3.639   0.695   6.865 -0.4923 -0.0274  1.3258
    4CHL1    H9  260   3.629   0.585   6.881  0.6133 -0.2074  0.8519
    4CHL1   C10  261   3.600   0.744   7.000  0.2932  0.7992 -0.4745
    4CHL1   C19  262   3.574   0.896   6.979 -0.7624  0.2676  0.4252
    4CHL1  H19A  263   3.664   0.936   6.927 -0.0658 -2.5169 -0.6862
    4CHL1  H19B  264   3.489   0.909   6.909  1.2288 -0.8600 -2.3804
    4CHL1  H19C  265   3.567   0.952   7.074 -0.7369  0.1533  0.4941
    4CHL1    C1  266   3.463   0.670   7.040  0.2332 -0.2467 -0.1916
    4CHL1   H1A  267   3.375   0.688   6.974  1.7647  1.7723 -1.8286
    4CHL1   H1B  268   3.473   0.560   7.032  3.1297 -0.1529  1.1365
    4CHL1    C2  269   3.427   0.707   7.187 -0.7549 -0.3469 -0.1791
    4CHL1   H2A  270   3.326   0.664   7.205 -0.2447 -1.1270  0.9151
    4CHL1   H2B  271   3.413   0.817   7.194 -0.5429 -0.2661 -0.9102
    4CHL1   C20  272   3.805   0.663   6.320  0.1055 -0.2461 -0.3937
    4CHL1   H20  273   3.848   0.765   6.317 -1.7767  0.6363  0.9920
    4CHL1   C21  274   3.659   0.678   6.273  0.1788 -0.0423  0.2141
    4CHL1  H21A  275   3.657   0.726   6.173  1.2601  0.2770  0.3351
    4CHL1  H21B  276   3.596   0.747   6.334  1.4152  2.4680 -1.1613
    4CHL1  H21C  277   3.613   0.577   6.269 -0.8843  0.4596 -1.0514
    4CHL1   C22  278   3.884   0.579   6.220  0.1157  1.0682 -0.5942
    4CHL1  H22A  279   3.993   0.598   6.236 -0.0850  2.0089 -0.3026
    4CHL1  H22B  280   3.858   0.473   6.241 -3.1156  1.7572 -0.7025
    4CHL1   C23  281   3.878   0.615   6.067  0.2629 -0.3901 -0.3587
    4CHL1  H23A  282   3.786   0.567   6.029 -0.3942 -0.5725  1.3542
    4CHL1  H23B  283   3.863   0.725   6.065  0.1018 -0.3070  2.1166
    4CHL1   C24  284   4.005   0.573   5.983 -0.1354 -0.0387  0.5456
    4CHL1  H24A  285   4.089   0.590   6.055 -0.7046 -0.9797  1.4677
    4CHL1  H24B  286   3.998   0.463   5.963 -2.1213  0.0607  0.5047
    4CHL1   C25  287   4.035   0.644   5.845  0.1030 -0.1315 -0.2240
    4CHL1   H25  288   4.133   0.605   5.810  0.8019  1.1417  0.2375
    4CHL1   C26  289   3.936   0.606   5.732 -0.5260  0.4284 -0.8764
    4CHL1  H26A  290   3.914   0.499   5.716 -0.2522 -0.2705  2.6169
    4CHL1  H26B  291   3.835   0.646   5.754 -1.4435 -2.4189  0.5038
    4CHL1  H26C  292   3.975   0.655   5.640 -0.8601  2.3167 -0.0556
    4CHL1   C27  293   4.042   0.789   5.861  0.0839 -1.2039  0.0641
    4CHL1  H27A  294   4.068   0.841   5.767  2.1491 -0.1810  1.1264
    4CHL1  H27B  295   3.940   0.828   5.884  0.1798  1.6810 -3.5124
    4CHL1  H27C  296   4.121   0.810   5.937 -0.4367 -0.7751  0.4920
    5CHL1    C3  297   6.285   2.121   7.057 -0.3945  0.6990 -0.0438
    5CHL1    H3  298   6.372   2.190   7.049  0.4390 -0.4259 -0.9512
    5CHL1    O3  299   6.228   2.109   7.189  0.1320  0.1850  0.3486
    5CHL1   H3'  300   6.174   2.030   7.187 -1.0220  0.9249 -2.5901
    5CHL1    C4  301   6.174   2.176   6.968 -0.0591  0.0061  0.1909
    5CHL1   H4A  302   6.086   2.109   6.965 -0.3452  0.3928 -0.3159
    5CHL1   H4B  303   6.138   2.275   7.003  0.0014  0.1842 -0.2334
    5CHL1    C5  304   6.227   2.180   6.822  0.2281 -0.5676 -0.3057
    5CHL1    C6  305   6.224   2.296   6.754 -0.1381 -0.4405  0.5500
    5CHL1    H6  306   6.194   2.386   6.810 -0.6906 -0.8736  0.9752
    5CHL1    C7  307   6.263   2.304   6.611 -0.1109 -0.6525 -0.0125
    5CHL1   H7A  308   6.206   2.379   6.550  0.4546  0.8510  1.2361
    5CHL1   H7B  309   6.367   2.340   6.595 -0.0639 -1.0227 -0.5597
    5CHL1    C8  310   6.269   2.165   6.537  0.2410 -0.3003  0.1709
    5CHL1    H8  311   6.164   2.130   6.526  0.0078  0.7223 -1.0468
    5CHL1   C14  312   6.348   2.188   6.415  0.4378 -0.1673  0.7675
    5CHL1   H14  313   6.452   2.212   6.445  0.4346 -1.1209  1.5900
    5CHL1   C15  314   6.315   2.313   6.323  0.0516  0.2015  1.0526
    5CHL1  H15A  315   6.204   2.313   6.318  0.0879 -0.5580 -0.8143
    5CHL1  H15B  316   6.358   2.410   6.354 -0.8711  0.6436  0.9975
    5CHL1   C16  317   6.355   2.262   6.183  0.3096  0.7495  1.2172
    5CHL1  H16A  318   6.262   2.243   6.125  1.2381 -1.4813  0.3304
    5CHL1  H16B  319   6.414   2.334   6.124  1.0669 -0.9796 -0.2480
    5CHL1   C17  320   6.434   2.128   6.204 -0.3569  0.4382  0.5276
    5CHL1   H17  321   6.535   2.161   6.236  1.0178 -1.3992 -1.6367
    5CHL1   C13  322   6.363   2.065   6.327 -0.0398 -0.1923  0.0745
    5CHL1   C18  323   6.222   2.028   6.280 -0.0521 -0.0679 -0.7293
    5CHL1  H18A  324   6.163   2.112   6.236  0.5114  1.1602  0.7444
    5CHL1  H18B  325   6.238   1.955   6.198  3.6368 -2.4661  1.8563
    5CHL1  H18C  326   6.164   1.970   6.355  0.7474 -0.8540 -0.7147
    5CHL1   C12  327   6.432   1.949   6.402  0.7479  0.0546  0.3366
    5CHL1  H12A  328   6.429   1.852   6.349 -0.2910  0.4507 -0.3637
    5CHL1  H12B  329   6.542   1.967   6.408  1.0275 -0.5875 -1.9161
    5CHL1   C11  330   6.362   1.923   6.538 -0.2019 -0.4262 -0.4085
    5CHL1  H11A  331   6.265   1.877   6.508 -2.2313  3.8489 -1.2728
    5CHL1  H11B  332   6.424   1.854   6.598 -0.0777 -0.0499 -0.0969
    5CHL1    C9  333   6.340   2.061   6.620  0.4261  0.4420 -0.3230
    5CHL1    H9  334   6.443   2.098   6.642 -0.5201  2.8612  0.3550
    5CHL1   C10  335   6.277   2.043   6.766 -0.4576  0.3578 -0.3028
    5CHL1   C19  336   6.152   1.949   6.767  0.4386 -0.2377  0.1614
    5CHL1  H19A  337   6.173   1.842   6.746  1.5270 -0.5492  2.5631
    5CHL1  H19B  338   6.099   1.950   6.865 -1.2278  2.0256 -0.6558
    5CHL1  H19C  339   6.080   1.993   6.695  1.1585 -1.9128 -1.6776
    5CHL1    C1  340   6.379   1.980   6.863 -0.1927  0.3344 -0.8800
    5CHL1   H1A  341   6.391   1.872   6.838  1.7182 -0.1988  1.9669
    5CHL1   H1B  342   6.477   2.032   6.861 -0.5098  0.9361 -0.9443
    5CHL1    C2  343   6.330   1.980   7.011 -0.3526 -0.1549 -0.9669
    5CHL1   H2A  344   6.411   1.935   7.071 -1.7637  0.1843  1.2942
    5CHL1   H2B  345   6.244   1.910   7.021  0.2097 -0.7887 -0.4210
    5CHL1   C20  346   6.449   2.052   6.073 -0.3783  1.1212 -0.0081
    5CHL1   H20  347   6.346   2.040   6.033 -0.1731 -2.2236  0.2192
    5CHL1   C21  348   6.514   1.913   6.089  0.4966  0.0032  0.1762
    5CHL1  H21A  349   6.543   1.871   5.990 -0.2255 -0.5020  0.1655
    5CHL1  H21B  350   6.439   1.842   6.131 -0.3737  0.2641 -0.8900
    5CHL1  H21C  351   6.601   1.933   6.154  0.3102 -0.9476  0.7469
    5CHL1   C22  352   6.529   2.126   5.969  0.0728 -0.0839  0.0368
    5CHL1  H22A  353   6.511   2.236   5.975 -0.2650 -0.0950 -0.6198
    5CHL1  H22B  354   6.635   2.111   5.998 -0.2608  1.1184  2.0336
    5CHL1   C23  355   6.491   2.069   5.827 -0.6821 -0.1613 -0.4042
    5CHL1  H23A  356   6.493   1.958   5.830 -0.3433 -0.1429  2.0080
    5CHL1  H23B  357   6.387   2.104   5.812  0.5838  4.0669 -0.5991
    5CHL1   C24  358   6.587   2.114   5.714  0.7187  0.4610  0.8111
    5CHL1  H24A  359   6.597   2.223   5.733 -0.0390  0.1203  3.5860
    5CHL1  H24B  360   6.680   2.055   5.729  0.1848 -0.1190  1.9557
    5CHL1   C25  361   6.531   2.099   5.562 -0.5175  0.1894 -0.3980
    5CHL1   H25  362   6.519   1.992   5.534  3.0247 -0.3094 -0.4873
    5CHL1   C26  363   6.394   2.175   5.535 -0.3967  0.2717  0.3198
    5CHL1  H26A  364   6.408   2.284   5.546 -2.7062  0.5824  0.5290
    5CHL1  H26B  365   6.368   2.159   5.428  1.0924 -3.2109  0.3293
    5CHL1  H26C  366   6.316   2.135   5.603  1.9117 -1.4336  2.1225
    5CHL1   C27  367   6.642   2.155   5.476 -0.4081 -0.3137 -0.8057
    5CHL1  H27A  368   6.612   2.135   5.371 -1.9577  0.0297 -0.4459
    5CHL1  H27B  369   6.659   2.263   5.495 -0.8987 -0.4231  0.3662
    5CHL1  H27C  370   6.741   2.114   5.507  0.0671  1.6627  0.5285
    6CHL1    C3  371   2.679   5.631   6.819 -0.0578 -0.1620 -0.1584
    6CHL1    H3  372   2.669   5.520   6.814 -3.0136  0.0416 -0.1199
    6CHL1    O3  373   2.671   5.679   6.955 -0.2867  0.2726  0.2143
    6CHL1   H3'  374   2.578   5.682   6.978 -0.3018  0.2987  0.1489
    6CHL1    C4  375   2.805   5.683   6.761 -0.0906  0.1611  0.5523
    6CHL1   H4A  376   2.806   5.793   6.776  1.4482  0.1508  0.6992
    6CHL1   H4B  377   2.893   5.635   6.811  1.6681 -0.1620 -2.5766
    6CHL1    C5  378   2.818   5.668   6.605 -0.4740  0.3759 -0.1929
    6CHL1    C6  379   2.931   5.611   6.549 -0.5536 -0.6380  0.3828
    6CHL1    H6  380   3.018   5.582   6.610 -0.3979  1.8011  1.4197
    6CHL1    C7  381   2.946   5.584   6.399  0.0279 -0.8179 -0.1544
    6CHL1   H7A  382   3.047   5.620   6.368 -0.5033 -0.6878 -1.8237
    6CHL1   H7B  383   2.948   5.474   6.379  2.3447 -1.0957  1.2562
    6CHL1    C8  384   2.829   5.646   6.310  0.3377  0.0851  0.1462
    6CHL1    H8  385   2.851   5.755   6.301 -0.1293  0.0649 -1.5783
    6CHL1   C14  386   2.828   5.596   6.163  0.5944 -0.4099 -0.4640
    6CHL1   H14  387   2.819   5.486   6.176 -1.9904 -0.2262 -0.1741
    6CHL1   C15  388   2.964   5.606   6.080  0.4241 -0.7753  0.4340
    6CHL1  H15A  389   2.998   5.709   6.102 -1.1064  0.8921 -3.8696
    6CHL1  H15B  390   3.032   5.522   6.107 -1.6676 -3.3927 -1.8285
    6CHL1   C16  391   2.915   5.600   5.936 -0.1140 -0.0044 -0.0840
    6CHL1  H16A  392   2.937   5.697   5.887 -2.2174 -0.3113 -1.7360
    6CHL1  H16B  393   2.972   5.525   5.877 -1.8975 -0.2354 -1.5871
    6CHL1   C17  394   2.762   5.570   5.944 -0.4977  0.0309  0.3786
    6CHL1   H17  395   2.743   5.465   5.974 -1.1872  0.4397  1.4525
    6CHL1   C13  396   2.715   5.646   6.068 -0.4580  0.6133 -0.4976
    6CHL1   C18  397   2.730   5.794   6.057  0.4101  0.5003 -0.4835
    6CHL1  H18A  398   2.800   5.829   5.978  1.7786  1.8866  1.2516
    6CHL1  H18B  399   2.628   5.833   6.036  0.3424  0.4969 -0.1688
    6CHL1  H18C  400   2.765   5.842   6.151 -0.9228  2.3083 -0.8568
    6CHL1   C12  401   2.589   5.609   6.142 -0.0041  0.0092 -0.2880
    6CHL1  H12A  402   2.501   5.639   6.081  0.2741 -1.0569 -1.2374
    6CHL1  H12B  403   2.572   5.500   6.153  1.4284 -0.0762  1.5440
    6CHL1   C11  404   2.580   5.674   6.281 -0.4532 -0.5834 -0.2605
    6CHL1  H11A  405   2.591   5.784   6.270  3.1761 -0.6479  1.4817
    6CHL1  H11B  406   2.480   5.648   6.322 -0.2245  2.2248  2.4679
    6CHL1    C9  407   2.696   5.626   6.379 -0.0840 -0.4389  0.4557
    6CHL1    H9  408   2.686   5.516   6.395  0.3698 -0.2815  1.8954
    6CHL1   C10  409   2.690   5.688   6.521 -0.7135  0.3522 -0.2550
    6CHL1   C19  410   2.678   5.847   6.507  0.1679 -0.4916  0.1610
    6CHL1  H19A  411   2.680   5.893   6.608 -0.7919 -0.1655  0.0376
    6CHL1  H19B  412   2.766   5.882   6.450 -1.6157  1.0599 -1.7851
    6CHL1  H19C  413   2.582   5.879   6.462 -0.0058 -0.0590  0.8212
    6CHL1    C1  414   2.564   5.634   6.592 -0.0477 -0.2392 -0.2675
    6CHL1   H1A  415   2.471   5.683   6.555 -0.4221 -1.6822 -1.3103
    6CHL1   H1B  416   2.562   5.524   6.584 -1.1527 -0.4578  2.0712
    6CHL1    C2  417   2.561   5.681   6.744 -0.4481 -0.0060 -0.6308
    6CHL1   H2A  418   2.475   5.644   6.804  0.1447 -0.9388 -0.3371
    6CHL1   H2B  419   2.569   5.792   6.745  0.0027 -0.0386  0.4276
    6CHL1   C20  420   2.694   5.608   5.809 -0.4594  0.6995  0.7718
    6CHL1   H20  421   2.689   5.719   5.810  0.8138  0.8007 -0.9342
    6CHL1   C21  422   2.565   5.533   5.795  0.3275  0.5374 -0.3074
    6CHL1  H21A  423   2.566   5.424   5.774  0.1484  0.4588  0.0861
    6CHL1  H21B  424   2.512   5.572   5.705  0.4973 -0.4870 -0.8668
    6CHL1  H21C  425   2.504   5.549   5.886 -1.6454  1.0956 -1.6391
    6CHL1   C22  426   2.769   5.590   5.674 -0.1313  0.1608 -0.1320
    6CHL1  H22A  427   2.690   5.619   5.602  0.0571  2.4254  0.4946
    6CHL1  H22B  428   2.859   5.652   5.652 -0.5625  0.5183 -0.9220
    6CHL1   C23  429   2.826   5.451   5.642  0.2294 -0.3676 -0.2117
    6CHL1  H23A  430   2.894   5.425   5.726 -0.0813 -0.7243 -0.0636
    6CHL1  H23B  431   2.739   5.381   5.642 -2.6263  2.8989 -1.2173
    6CHL1   C24  432   2.892   5.450   5.507  0.1239  0.1622 -0.0576
    6CHL1  H24A  433   2.824   5.484   5.426  0.5798 -0.4410 -0.7104
    6CHL1  H24B  434   2.977   5.521   5.499  0.7444 -0.2800  2.0423
    6CHL1   C25  435   2.955   5.312   5.461 -0.0614 -0.1663 -0.4728
    6CHL1   H25  436   2.880   5.231   5.468 -0.7874  0.3636 -1.8008
    6CHL1   C26  437   3.000   5.313   5.316  0.3274 -0.0426  0.1697
    6CHL1  H26A  438   2.926   5.352   5.244  0.2627 -1.2889 -0.4609
    6CHL1  H26B  439   3.092   5.376   5.309  0.1027  0.1068 -5.3004
    6CHL1  H26C  440   3.031   5.214   5.278  0.9049  0.0052  0.4943
    6CHL1   C27  441   3.074   5.272   5.547 -0.4157  0.3505  0.5120
    6CHL1  H27A  442   3.159   5.339   5.524 -0.4842 -0.3512 -2.0645
    6CHL1  H27B  443   3.058   5.280   5.657  0.6319  1.6590  0.6002
    6CHL1  H27C  444   3.108   5.167   5.538 -0.0442  0.5117 -0.0032
    7CHL1    C3  445   4.660   5.891   7.250 -0.2136 -0.4263  0.7462
    7CHL1    H3  446   4.564   5.836   7.232  0.8145 -2.1951  0.3945
    7CHL1    O3  447   4.688   5.882   7.387  0.5349 -0.0355 -0.2115
    7CHL1   H3'  448   4.743   5.958   7.408  1.9644 -1.4814  1.6703
    7CHL1    C4  449   4.758   5.810   7.166  0.5471 -0.1259 -0.4944
    7CHL1   H4A  450   4.854   5.851   7.204 -0.3614  0.9508  0.6987
    7CHL1   H4B  451   4.751   5.702   7.191 -2.0418  0.0899 -0.0762
    7CHL1    C5  452   4.741   5.839   7.016 -0.2228 -1.1218 -0.0258
    7CHL1    C6  453   4.722   5.739   6.929 -0.4754 -0.4972 -0.4090
    7CHL1    H6  454   4.736   5.640   6.975  0.1151  0.7388  2.2626
    7CHL1    C7  455   4.719   5.739   6.779 -0.2876  0.1328 -0.0051
    7CHL1   H7A  456   4.810   5.682   6.750  0.6116  0.0321  2.7771
    7CHL1   H7B  457   4.637   5.679   6.733  0.0852 -1.7892  1.7115
    7CHL1    C8  458   4.726   5.887   6.720 -0.4872  0.2175  0.6396
    7CHL1    H8  459   4.834   5.914   6.724 -0.4097 -0.1923  1.5361
    7CHL1   C14  460   4.677   5.907   6.576 -0.0632 -0.0472 -0.1831
    7CHL1   H14  461   4.573   5.869   6.586  0.9293 -2.4473  2.7736
    7CHL1   C15  462   4.742   5.827   6.469 -0.8514 -0.4279  0.3939
    7CHL1  H15A  463   4.853   5.841   6.466 -1.1428  3.4734  1.6819
    7CHL1  H15B  464   4.719   5.718   6.473 -2.7854 -0.0146  2.3615
    7CHL1   C16  465   4.686   5.885   6.339 -0.4987 -0.9189  0.4838
    7CHL1  H16A  466   4.760   5.894   6.256 -1.0170  1.2406  0.2005
    7CHL1  H16B  467   4.600   5.822   6.309 -0.7586  0.0725 -0.9773
    7CHL1   C17  468   4.624   6.029   6.373  0.0980 -0.0710  0.6778
    7CHL1   H17  469   4.516   6.012   6.391  0.5307 -1.6553  2.0609
    7CHL1   C13  470   4.672   6.048   6.516 -0.2959 -0.1235  0.6737
    7CHL1   C18  471   4.816   6.097   6.512 -0.1051  0.1433  0.0372
    7CHL1  H18A  472   4.878   6.040   6.439 -0.3763 -0.9896  0.6619
    7CHL1  H18B  473   4.810   6.203   6.479  0.6599  0.2201  0.1261
    7CHL1  H18C  474   4.868   6.099   6.610  1.2920  0.0702 -0.6828
    7CHL1   C12  475   4.583   6.133   6.611 -0.2034  1.0821 -0.1298
    7CHL1  H12A  476   4.569   6.238   6.576  1.1319  2.4601  3.0688
    7CHL1  H12B  477   4.481   6.089   6.604 -0.4797  1.8971 -1.8027
    7CHL1   C11  478   4.649   6.133   6.754  1.1339  0.3641 -0.1654
    7CHL1  H11A  479   4.751   6.176   6.743  2.3317 -1.7064  1.9857
    7CHL1  H11B  480   4.599   6.208   6.819  1.5364  0.5849 -0.1060
    7CHL1    C9  481   4.664   5.988   6.813  0.5552  0.2836 -0.2558
    7CHL1    H9  482   4.557   5.962   6.825  0.0727  2.0083 -0.5367
    7CHL1   C10  483   4.723   5.986   6.964  0.4782  0.0881  0.2267
    7CHL1   C19  484   4.857   6.058   6.963 -0.8965  0.0427  0.1394
    7CHL1  H19A  485   4.899   6.056   7.066 -0.6153 -2.0606  0.0174
    7CHL1  H19B  486   4.926   5.994   6.904 -1.2763 -2.0433  1.8265
    7CHL1  H19C  487   4.846   6.165   6.934 -2.0475 -0.1802 -0.2694
    7CHL1    C1  488   4.627   6.059   7.059 -0.3554 -0.6825 -0.0863
    7CHL1   H1A  489   4.628   6.168   7.039  2.4226  0.0973  3.2729
    7CHL1   H1B  490   4.527   6.010   7.052 -0.2055 -1.0920  0.5216
    7CHL1    C2  491   4.654   6.042   7.211  0.4559 -0.5073 -0.7440
    7CHL1   H2A  492   4.570   6.093   7.263  1.9660  0.5175  0.8237
    7CHL1   H2B  493   4.757   6.080   7.229  0.3371 -1.5366  2.9262
    7CHL1   C20  494   4.647   6.135   6.267  0.3294  0.6710 -0.0566
    7CHL1   H20  495   4.754   6.162   6.280  1.3376 -3.2855  1.0622
    7CHL1   C21  496   4.556   6.257   6.304  0.0094 -0.0391 -0.2970
    7CHL1  H21A  497   4.458   6.220   6.341  0.0467 -1.7815 -1.7977
    7CHL1  H21B  498   4.540   6.320   6.214 -0.5627 -0.2771 -0.3621
    7CHL1  H21C  499   4.600   6.321   6.383  1.7873 -0.9126 -0.5081
    7CHL1   C22  500   4.624   6.081   6.121  1.2611  0.2417 -0.3716
    7CHL1  H22A  501   4.636   5.971   6.113 -0.7998 -0.1572  1.2086
    7CHL1  H22B  502   4.514   6.094   6.120  0.7105 -2.5990  2.9155
    7CHL1   C23  503   4.709   6.142   6.011 -0.0876  0.0781 -0.4950
    7CHL1  H23A  504   4.706   6.253   6.010 -2.5334  0.2241  3.1928
    7CHL1  H23B  505   4.817   6.119   6.023  0.7639  3.8702  0.2405
    7CHL1   C24  506   4.657   6.078   5.878  0.3840 -0.3854 -0.7248
    7CHL1  H24A  507   4.665   5.967   5.882 -0.4387 -0.4352  3.0287
    7CHL1  H24B  508   4.550   6.109   5.875  0.2145 -0.9392 -0.5388
    7CHL1   C25  509   4.725   6.136   5.752  0.8980 -0.4264 -0.2911
    7CHL1   H25  510   4.691   6.075   5.664  0.7204  0.7310 -1.0424
    7CHL1   C26  511   4.666   6.281   5.733 -0.7661  0.3699 -0.2996
    7CHL1  H26A  512   4.682   6.351   5.818 -1.2996 -0.1811  0.2694
    7CHL1  H26B  513   4.700   6.342   5.647  2.1995  0.3399  0.7451
    7CHL1  H26C  514   4.556   6.266   5.726 -0.7208  0.5985 -1.9567
    7CHL1   C27  515   4.878   6.138   5.758 -0.7930  0.3482 -0.4715
    7CHL1  H27A  516   4.910   6.041   5.801 -2.4909 -0.4689 -0.9590
    7CHL1  H27B  517   4.924   6.149   5.658 -0.8145 -0.6328 -0.5988
    7CHL1  H27C  518   4.903   6.220   5.830 -1.6462 -1.5757  2.1816
    8CHL1    C3  519   2.057   5.347   7.021  0.0956 -0.5406  0.4070
    8CHL1    H3  520   1.961   5.291   7.022 -0.7037  0.7759  1.7485
    8CHL1    O3  521   2.071   5.403   7.153 -0.3379 -0.0180  0.0153
    8CHL1   H3'  522   2.069   5.334   7.220  1.5495  1.5340  1.8225
    8CHL1    C4  523   2.184   5.264   6.991 -0.0479  0.9701 -0.5573
    8CHL1   H4A  524   2.273   5.316   7.032  1.3931 -0.0803 -2.2097
    8CHL1   H4B  525   2.163   5.172   7.049 -1.8309  2.0722  0.6478
    8CHL1    C5  526   2.209   5.222   6.848 -0.1679  0.0495 -0.1562
    8CHL1    C6  527   2.237   5.095   6.809  0.8453  0.1897  0.6051
    8CHL1    H6  528   2.236   5.014   6.883  2.4241 -0.1179  0.3083
    8CHL1    C7  529   2.270   5.059   6.669 -0.7464 -0.2516  0.1196
    8CHL1   H7A  530   2.369   5.010   6.658 -0.4314  0.6766 -1.7344
    8CHL1   H7B  531   2.185   4.996   6.635 -2.4313 -0.9882  4.9635
    8CHL1    C8  532   2.280   5.181   6.566 -0.5767 -0.0908  0.4477
    8CHL1    H8  533   2.379   5.231   6.578 -1.4560  1.5314  1.3532
    8CHL1   C14  534   2.260   5.118   6.429 -0.0804 -0.6294  0.3763
    8CHL1   H14  535   2.155   5.081   6.432 -1.8772  3.8584  1.1357
    8CHL1   C15  536   2.360   5.007   6.390  0.1764 -0.1043 -0.0543
    8CHL1  H15A  537   2.461   5.030   6.429 -0.8675  0.7718  2.3281
    8CHL1  H15B  538   2.331   4.908   6.431  2.0167 -0.9256 -0.6266
    8CHL1   C16  539   2.341   5.013   6.235  0.2726 -0.1179  0.1893
    8CHL1  H16A  540   2.443   5.027   6.193  0.1223  3.0170  0.6307
    8CHL1  H16B  541   2.307   4.912   6.203  2.3134 -0.7108 -0.2717
    8CHL1   C17  542   2.255   5.130   6.188  0.3607 -0.1093 -0.0755
    8CHL1   H17  543   2.152   5.088   6.181  0.1375  0.4852 -0.4650
    8CHL1   C13  544   2.263   5.222   6.315 -0.2738 -0.0067  0.1215
    8CHL1   C18  545   2.396   5.304   6.311  0.8429 -0.1869  0.1372
    8CHL1  H18A  546   2.440   5.313   6.412  1.5004 -1.5411 -0.0050
    8CHL1  H18B  547   2.470   5.249   6.249  0.5902 -0.8408  0.4151
    8CHL1  H18C  548   2.366   5.404   6.272 -1.8893 -1.5927 -1.7069
    8CHL1   C12  549   2.148   5.319   6.343 -0.1038  0.4597  0.4677
    8CHL1  H12A  550   2.131   5.394   6.263  2.5201 -1.2418 -1.8817
    8CHL1  H12B  551   2.054   5.260   6.340 -0.3940  0.9495 -1.2493
    8CHL1   C11  552   2.163   5.391   6.483  0.1524  0.4554 -0.7749
    8CHL1  H11A  553   2.253   5.455   6.494  0.2590  0.0808  0.8851
    8CHL1  H11B  554   2.072   5.451   6.502  0.9512  1.3476  0.3323
    8CHL1    C9  555   2.174   5.282   6.599 -0.2901  0.4482 -0.0758
    8CHL1    H9  556   2.084   5.219   6.610  1.2438 -1.8270  0.1678
    8CHL1   C10  557   2.190   5.340   6.738 -0.4429  0.5638 -0.2444
    8CHL1   C19  558   2.307   5.438   6.752  0.5053 -0.2833 -0.1837
    8CHL1  H19A  559   2.278   5.525   6.689 -0.4818 -1.2426 -1.0836
    8CHL1  H19B  560   2.315   5.461   6.861 -1.5039 -0.3269 -0.0005
    8CHL1  H19C  561   2.404   5.392   6.724  1.4305  0.9433  0.8702
    8CHL1    C1  562   2.065   5.417   6.771  0.8650 -0.2321  0.2690
    8CHL1   H1A  563   2.043   5.507   6.710 -0.7827 -0.4841  0.4553
    8CHL1   H1B  564   1.978   5.351   6.754  1.6736 -1.4237  0.6352
    8CHL1    C2  565   2.051   5.460   6.919  0.4443 -0.3444 -0.2255
    8CHL1   H2A  566   1.947   5.498   6.931  0.0447 -1.2430 -0.7236
    8CHL1   H2B  567   2.119   5.545   6.938  1.7594 -0.9667 -1.9344
    8CHL1   C20  568   2.294   5.186   6.046 -0.2388 -0.4486 -0.1207
    8CHL1   H20  569   2.399   5.222   6.053 -0.4150  0.4142 -1.6232
    8CHL1   C21  570   2.206   5.311   6.008 -0.5053 -0.1325  0.3996
    8CHL1  H21A  571   2.241   5.391   6.077  0.8193 -0.0531 -0.3270
    8CHL1  H21B  572   2.100   5.282   6.018 -0.3700 -0.7205  0.1449
    8CHL1  H21C  573   2.225   5.336   5.902 -1.4091 -1.7905 -0.1796
    8CHL1   C22  574   2.312   5.081   5.936 -0.4493  0.0904 -0.0021
    8CHL1  H22A  575   2.366   4.994   5.978 -0.1530  0.1072 -0.3446
    8CHL1  H22B  576   2.215   5.043   5.896 -0.7243  1.4736 -0.7374
    8CHL1   C23  577   2.377   5.136   5.801  0.3156  0.3244  0.8309
    8CHL1  H23A  578   2.305   5.205   5.753 -0.1963 -3.2137 -4.3016
    8CHL1  H23B  579   2.463   5.200   5.829 -0.7464  3.4575 -2.3314
    8CHL1   C24  580   2.411   5.036   5.686  0.2434  0.7168  0.2890
    8CHL1  H24A  581   2.499   4.981   5.725  1.5105  2.7983  0.5415
    8CHL1  H24B  582   2.322   4.974   5.664  0.6759  0.3968 -0.6097
    8CHL1   C25  583   2.443   5.104   5.554  0.1841 -0.0505 -0.2962
    8CHL1   H25  584   2.356   5.169   5.533 -0.2587  0.1027  1.7438
    8CHL1   C26  585   2.577   5.180   5.563 -0.0766 -0.1556 -1.4083
    8CHL1  H26A  586   2.572   5.264   5.636  1.0944 -0.8287 -0.5340
    8CHL1  H26B  587   2.651   5.105   5.598  0.8343 -0.6740 -4.1810
    8CHL1  H26C  588   2.600   5.224   5.463  0.5495  0.0761 -1.1628
    8CHL1   C27  589   2.442   5.008   5.433  0.3068  0.6855  0.3778
    8CHL1  H27A  590   2.513   4.924   5.419  1.1443  1.5856 -1.0475
    8CHL1  H27B  591   2.339   4.968   5.423  0.6554  0.1578 -1.3443
    8CHL1  H27C  592   2.453   5.071   5.342  1.3541 -0.7972 -0.5675
    9CHL1    C3  593   5.192   5.657   7.196 -0.8889  0.6017  0.3471
    9CHL1    H3  594   5.294   5.697   7.178 -1.2869  1.5280  0.1120
    9CHL1    O3  595   5.157   5.677   7.338  0.6952 -0.7748 -0.3508
    9CHL1   H3'  596   5.242   5.663   7.380  1.0029 -1.3262 -1.1192
    9CHL1    C4  597   5.091   5.710   7.097 -0.3076  0.0172 -0.2958
    9CHL1   H4A  598   4.991   5.679   7.135  0.0538 -0.3198  0.3950
    9CHL1   H4B  599   5.095   5.819   7.121  1.3088 -0.5145  2.2460
    9CHL1    C5  600   5.109   5.672   6.952 -0.0599 -0.7637  0.1655
    9CHL1    C6  601   5.109   5.768   6.858 -0.8026  0.1776  0.4298
    9CHL1    H6  602   5.105   5.873   6.889  2.2005  0.4407  0.2621
    9CHL1    C7  603   5.133   5.756   6.709 -0.3667 -0.2965  0.7081
    9CHL1   H7A  604   5.043   5.801   6.663  0.7286 -0.4305 -1.7028
    9CHL1   H7B  605   5.219   5.816   6.673  0.2844 -0.4083  2.0150
    9CHL1    C8  606   5.137   5.607   6.668  0.2863 -0.3386 -0.2073
    9CHL1    H8  607   5.031   5.576   6.659  0.0190  0.3669  0.4412
    9CHL1   C14  608   5.203   5.595   6.525  0.2866 -0.1196  0.1983
    9CHL1   H14  609   5.307   5.634   6.535  0.6195 -1.2381  1.4030
    9CHL1   C15  610   5.142   5.673   6.405 -0.0365  0.0453 -0.2164
    9CHL1  H15A  611   5.031   5.685   6.403  0.1755  2.8375 -0.1793
    9CHL1  H15B  612   5.171   5.780   6.403  2.0646 -0.4973 -0.8849
    9CHL1   C16  613   5.200   5.610   6.281  0.0433  0.6824  0.0364
    9CHL1  H16A  614   5.119   5.580   6.211 -1.1576 -0.9919  2.0179
    9CHL1  H16B  615   5.281   5.671   6.235  2.6632 -2.2969  0.3076
    9CHL1   C17  616   5.278   5.480   6.329 -0.0011 -0.2474 -0.2587
    9CHL1   H17  617   5.387   5.503   6.333  0.1156 -0.6206 -1.1893
    9CHL1   C13  618   5.217   5.453   6.473 -0.5087 -0.6846 -0.2316
    9CHL1   C18  619   5.071   5.388   6.470  0.0572  0.8346  0.2953
    9CHL1  H18A  620   5.011   5.418   6.558  1.8698  2.5754  1.0234
    9CHL1  H18B  621   5.013   5.430   6.385 -1.7521  1.0039  1.5718
    9CHL1  H18C  622   5.088   5.280   6.452  0.0987  0.9867 -0.6515
    9CHL1   C12  623   5.297   5.375   6.578  0.6127 -0.2914 -0.1055
    9CHL1  H12A  624   5.310   5.267   6.555  0.8864  0.1827 -2.3987
    9CHL1  H12B  625   5.394   5.424   6.597 -0.1531  0.9246  0.7634
    9CHL1   C11  626   5.230   5.375   6.714  0.5207 -0.0534  0.2527
    9CHL1  H11A  627   5.137   5.314   6.721  1.3077 -1.5671 -1.7093
    9CHL1  H11B  628   5.303   5.316   6.773  0.7696 -0.9634 -0.9247
    9CHL1    C9  629   5.209   5.518   6.771 -0.4170 -1.0912 -0.8675
    9CHL1    H9  630   5.314   5.553   6.772 -0.0018 -2.2987 -0.8841
    9CHL1   C10  631   5.146   5.531   6.918 -0.5958  0.2346  1.1618
    9CHL1   C19  632   5.018   5.445   6.909  0.3323 -0.4935  0.6074
    9CHL1  H19A  633   5.044   5.337   6.920  0.2929 -0.6519 -0.7022
    9CHL1  H19B  634   4.945   5.464   6.991  0.8059 -0.3045  0.9892
    9CHL1  H19C  635   4.955   5.449   6.817  0.8052  0.3572  0.3101
    9CHL1    C1  636   5.252   5.476   7.020  0.6697  0.2259  0.1815
    9CHL1   H1A  637   5.259   5.366   7.008 -1.1875  0.0119  0.7265
    9CHL1   H1B  638   5.350   5.524   7.001  0.8792  0.6511  2.0800
    9CHL1    C2  639   5.218   5.506   7.165  0.3528  0.2627 -0.0404
    9CHL1   H2A  640   5.303   5.471   7.228 -0.8024 -2.2549  0.2566
    9CHL1   H2B  641   5.136   5.437   7.195  0.7979 -0.9582 -1.5231
    9CHL1   C20  642   5.253   5.367   6.234 -0.6932  0.6920  0.0617
    9CHL1   H20  643   5.146   5.337   6.234 -0.1335 -1.4784  1.1786
    9CHL1   C21  644   5.328   5.239   6.273 -0.0158 -0.0147 -0.0201
    9CHL1  H21A  645   5.436   5.264   6.266 -0.4242  3.2157  2.6184
    9CHL1  H21B  646   5.310   5.165   6.192 -1.5149  0.7335 -0.4037
    9CHL1  H21C  647   5.319   5.193   6.374  1.3021 -0.6330 -0.1658
    9CHL1   C22  648   5.285   5.402   6.082  0.0142  0.1369 -0.0369
    9CHL1  H22A  649   5.247   5.504   6.058 -1.2820 -1.0641 -3.6651
    9CHL1  H22B  650   5.396   5.396   6.072 -0.2526 -2.4479 -2.4244
    9CHL1   C23  651   5.225   5.305   5.972  0.3677 -0.2819  1.0329
    9CHL1  H23A  652   5.255   5.201   5.994  1.3800 -0.5736 -1.4364
    9CHL1  H23B  653   5.116   5.318   5.985  0.3901 -0.4592  1.3865
    9CHL1   C24  654   5.269   5.328   5.818  0.2989  0.7868 -0.8573
    9CHL1  H24A  655   5.245   5.434   5.792 -0.8314  0.8776  0.4387
    9CHL1  H24B  656   5.375   5.299   5.801  0.5272 -0.1854  1.8770
    9CHL1   C25  657   5.202   5.235   5.718 -0.1303  0.4367  0.0223
    9CHL1   H25  658   5.094   5.259   5.714 -0.0208  0.8880 -0.2373
    9CHL1   C26  659   5.255   5.265   5.574 -0.3147  0.2204  0.1259
    9CHL1  H26A  660   5.225   5.368   5.548  1.9690  1.0620  0.6662
    9CHL1  H26B  661   5.366   5.261   5.576 -0.3341 -0.1687  1.3988
    9CHL1  H26C  662   5.212   5.210   5.487 -0.1545  1.2837 -0.6308
    9CHL1   C27  663   5.207   5.086   5.737  0.0696 -0.5365 -0.2070
    9CHL1  H27A  664   5.143   5.050   5.820 -0.1889 -1.2046 -0.6756
    9CHL1  H27B  665   5.165   5.033   5.648 -1.8442 -0.3492  0.5318
    9CHL1  H27C  666   5.313   5.057   5.752  0.5491  1.2120 -0.0000
   10CHL1    C3  667   5.796   4.553   7.384  0.4027  0.3304  0.2214
   10CHL1    H3  668   5.887   4.492   7.369 -1.8895 -3.1993 -0.7889
   10CHL1    O3  669   5.777   4.577   7.524 -0.1728  0.1683  0.3892
   10CHL1   H3'  670   5.682   4.587   7.538 -0.1609 -0.7407  1.1701
   10CHL1    C4  671   5.795   4.688   7.312  0.2572 -0.0956  0.4415
   10CHL1   H4A  672   5.691   4.723   7.328  0.8808  2.2081 -0.1902
   10CHL1   H4B  673   5.866   4.755   7.365 -0.1559  1.6930 -1.1615
   10CHL1    C5  674   5.819   4.680   7.164 -0.5933 -0.0181  0.2761
   10CHL1    C6  675   5.912   4.757   7.107  0.4876  0.1330  0.4669
   10CHL1    H6  676   5.954   4.836   7.172 -2.7606  0.5441  2.2785
   10CHL1    C7  677   5.936   4.759   6.962  0.2532 -0.0180  0.1556
   10CHL1   H7A  678   5.927   4.865   6.929  1.0217 -0.3673 -1.2353
   10CHL1   H7B  679   6.035   4.715   6.939  0.3696  0.2306  0.1813
   10CHL1    C8  680   5.841   4.676   6.876 -0.0354 -0.6253 -0.3455
   10CHL1    H8  681   5.757   4.745   6.851  0.9329  0.4598 -0.6887
   10CHL1   C14  682   5.918   4.637   6.739 -0.0175 -0.1382  0.3974
   10CHL1   H14  683   5.990   4.558   6.772 -0.1449 -1.2720 -1.8521
   10CHL1   C15  684   5.988   4.754   6.655 -0.1071 -0.2272  0.5250
   10CHL1  H15A  685   5.924   4.844   6.658 -2.5283 -1.7336 -1.3742
   10CHL1  H15B  686   6.086   4.772   6.704 -0.4210 -0.0585  1.1076
   10CHL1   C16  687   6.004   4.693   6.517  0.8244  0.6577  1.1257
   10CHL1  H16A  688   5.982   4.773   6.443  0.2833  1.6153  2.2820
   10CHL1  H16B  689   6.105   4.657   6.488 -0.3244 -2.0071  0.0917
   10CHL1   C17  690   5.915   4.566   6.513  0.5323  0.0413  0.4551
   10CHL1   H17  691   5.976   4.477   6.539 -1.5047 -1.5344  0.1558
   10CHL1   C13  692   5.822   4.579   6.636  0.1135 -0.0467  0.3027
   10CHL1   C18  693   5.704   4.680   6.604 -0.3388 -0.1457 -0.1999
   10CHL1  H18A  694   5.631   4.632   6.535 -0.2257 -1.0254  0.2744
   10CHL1  H18B  695   5.639   4.699   6.693 -0.9448 -2.7177 -0.0121
   10CHL1  H18C  696   5.753   4.771   6.563  1.9060 -1.2347 -0.0532
   10CHL1   C12  697   5.775   4.447   6.708 -1.3458 -0.5383 -0.4324
   10CHL1  H12A  698   5.693   4.409   6.644 -0.2497  0.1731 -2.3365
   10CHL1  H12B  699   5.857   4.372   6.716  0.7498  1.5597 -0.9580
   10CHL1   C11  700   5.716   4.462   6.858 -0.2474  0.6667  1.1018
   10CHL1  H11A  701   5.611   4.495   6.844  0.2256  1.2728 -1.5132
   10CHL1  H11B  702   5.713   4.364   6.910 -2.8898  0.5975  0.9639
   10CHL1    C9  703   5.792   4.550   6.946  0.1585  0.1178 -0.4833
   10CHL1    H9  704   5.887   4.498   6.971 -0.2013  0.3023  1.4564
   10CHL1   C10  705   5.734   4.576   7.087  0.1273 -0.2738 -0.3670
   10CHL1   C19  706   5.592   4.629   7.066 -0.2013  0.5461 -0.4265
   10CHL1  H19A  707   5.588   4.708   6.989 -0.7056  0.9950  0.0485
   10CHL1  H19B  708   5.528   4.545   7.030 -0.9042  0.6053  0.6276
   10CHL1  H19C  709   5.544   4.660   7.161 -0.9202  0.9692 -0.9201
   10CHL1    C1  710   5.726   4.442   7.167 -0.0304 -0.1657  0.2362
   10CHL1   H1A  711   5.645   4.380   7.124  1.9709 -2.6692 -0.2287
   10CHL1   H1B  712   5.827   4.395   7.169  1.1732  2.2536 -0.7136
   10CHL1    C2  713   5.687   4.459   7.318 -0.2700  0.1866  0.0158
   10CHL1   H2A  714   5.671   4.362   7.371 -1.0131  1.6386  2.6064
   10CHL1   H2B  715   5.592   4.517   7.315  0.1720  0.9023 -0.2752
   10CHL1   C20  716   5.858   4.532   6.371  0.1431  0.2640  0.1421
   10CHL1   H20  717   5.800   4.620   6.336  0.2061 -0.1365 -0.9918
   10CHL1   C21  718   5.761   4.417   6.372  0.8073  0.0436  0.0024
   10CHL1  H21A  719   5.740   4.385   6.268  1.0511 -0.2642  0.0471
   10CHL1  H21B  720   5.667   4.439   6.426  0.3169 -0.7693 -0.5069
   10CHL1  H21C  721   5.816   4.333   6.418 -1.2956 -1.0721  0.6111
   10CHL1   C22  722   5.969   4.514   6.267  0.1493  0.1954 -0.2693
   10CHL1  H22A  723   6.054   4.583   6.287  0.1140  0.2946 -0.4551
   10CHL1  H22B  724   6.006   4.409   6.273  0.0163 -0.0056 -2.2208
   10CHL1   C23  725   5.929   4.522   6.119  0.1246  0.0812  0.2362
   10CHL1  H23A  726   5.850   4.447   6.094  0.8464 -0.5450 -0.2221
   10CHL1  H23B  727   5.895   4.626   6.104  1.0910  0.3373 -0.1958
   10CHL1   C24  728   6.045   4.499   6.015  0.1641  0.2274 -0.4196
   10CHL1  H24A  729   6.131   4.567   6.035  0.2259 -0.2340  1.0535
   10CHL1  H24B  730   6.076   4.393   6.027 -0.4111  0.3456  3.9264
   10CHL1   C25  731   6.008   4.527   5.872 -0.3236  0.1423  0.3782
   10CHL1   H25  732   5.903   4.494   5.853 -0.1896 -1.3848  2.0110
   10CHL1   C26  733   6.022   4.672   5.830  0.8607  0.5924  0.2365
   10CHL1  H26A  734   6.119   4.720   5.854 -0.5117  2.1469  3.1559
   10CHL1  H26B  735   5.995   4.683   5.722 -1.4503 -1.8293  0.4474
   10CHL1  H26C  736   5.949   4.738   5.881  0.6339  2.2076 -2.0063
   10CHL1   C27  737   6.101   4.440   5.778 -0.3209  0.7848  0.3207
   10CHL1  H27A  738   6.061   4.431   5.674  1.2443  0.3652 -0.2722
   10CHL1  H27B  739   6.209   4.466   5.771  0.2833 -1.5663 -0.2892
   10CHL1  H27C  740   6.105   4.335   5.814 -1.8224  0.0664 -1.4245
   11CHL1    C3  741   2.817   4.293   7.258 -0.0453 -0.4655 -0.2642
   11CHL1    H3  742   2.886   4.208   7.278  0.7052  0.5511  1.6865
   11CHL1    O3  743   2.790   4.343   7.385 -0.2356 -0.4342 -0.0597
   11CHL1   H3'  744   2.769   4.436   7.375 -3.3167 -1.0319 -0.2104
   11CHL1    C4  745   2.876   4.396   7.165  0.2339  0.0449 -0.1426
   11CHL1   H4A  746   2.812   4.485   7.151  0.0277 -0.1185 -0.2519
   11CHL1   H4B  747   2.972   4.429   7.211 -0.3672  0.4516  0.8265
   11CHL1    C5  748   2.906   4.337   7.029 -0.7252  0.4650 -0.0968
   11CHL1    C6  749   3.030   4.337   6.987 -0.7916  0.2878  0.2735
   11CHL1    H6  750   3.113   4.379   7.045 -0.3766  0.6409 -0.5633
   11CHL1    C7  751   3.069   4.283   6.852 -0.7793  0.5285 -0.0161
   11CHL1   H7A  752   3.154   4.337   6.806  0.5820 -1.4450  0.0479
   11CHL1   H7B  753   3.116   4.182   6.857 -0.0302  0.7850 -1.3464
   11CHL1    C8  754   2.952   4.276   6.754  0.7971  0.4724 -0.1017
   11CHL1    H8  755   2.922   4.378   6.721 -2.5850 -0.2838  0.2393
   11CHL1   C14  756   2.988   4.199   6.624  0.3319  0.8100 -0.5229
   11CHL1   H14  757   3.036   4.102   6.649 -1.1569  0.5735  1.6973
   11CHL1   C15  758   3.082   4.269   6.531 -0.5530  0.1032  0.3276
   11CHL1  H15A  759   3.059   4.375   6.508 -3.4532 -0.1157  1.8814
   11CHL1  H15B  760   3.184   4.264   6.574 -0.6386 -0.9967  0.4224
   11CHL1   C16  761   3.067   4.188   6.398 -0.9238 -0.2498 -0.4411
   11CHL1  H16A  762   3.043   4.255   6.313  0.6410  0.8251 -0.0761
   11CHL1  H16B  763   3.163   4.135   6.375  0.2095  1.2720  0.5617
   11CHL1   C17  764   2.946   4.093   6.417 -0.1278 -0.1977  0.1371
   11CHL1   H17  765   2.982   3.993   6.450  0.1395  0.1331  0.8632
   11CHL1   C13  766   2.865   4.153   6.538  0.1399 -0.4142 -0.0841
   11CHL1   C18  767   2.788   4.275   6.487  0.8025 -0.3812 -0.1681
   11CHL1  H18A  768   2.707   4.242   6.418  1.5419  0.3821 -1.4462
   11CHL1  H18B  769   2.751   4.337   6.571 -0.5660 -2.1287  0.5643
   11CHL1  H18C  770   2.862   4.338   6.432  1.2554 -0.5668  0.2191
   11CHL1   C12  771   2.771   4.066   6.619  0.4726 -0.7560  0.1601
   11CHL1  H12A  772   2.682   4.045   6.556 -0.9526  0.9744  1.4950
   11CHL1  H12B  773   2.816   3.966   6.638 -0.0691 -0.9347  0.5510
   11CHL1   C11  774   2.733   4.147   6.744 -0.1114 -0.2430 -0.7864
   11CHL1  H11A  775   2.675   4.238   6.716  1.3994  0.9243 -0.3082
   11CHL1  H11B  776   2.665   4.083   6.804 -1.0786  1.2746 -0.2176
   11CHL1    C9  777   2.846   4.198   6.835 -0.2182  0.0345  0.6369
   11CHL1    H9  778   2.894   4.103   6.866 -0.0911 -0.4251 -0.8584
   11CHL1   C10  779   2.791   4.266   6.956  0.1277 -0.4754 -0.3987
   11CHL1   C19  780   2.700   4.397   6.917 -0.6577 -1.0991  0.9236
   11CHL1  H19A  781   2.604   4.368   6.869  0.0261 -0.1262 -1.1443
   11CHL1  H19B  782   2.684   4.452   7.012  0.5413 -1.5221  1.3949
   11CHL1  H19C  783   2.769   4.444   6.844  0.7231 -2.9004  1.0027
   11CHL1    C1  784   2.718   4.173   7.055 -0.1519  0.0022 -1.0268
   11CHL1   H1A  785   2.621   4.142   7.012 -1.7287  2.9296  0.1380
   11CHL1   H1B  786   2.786   4.090   7.081 -0.5244 -0.3072 -1.0361
   11CHL1    C2  787   2.687   4.243   7.192  0.6292  0.9258 -0.1158
   11CHL1   H2A  788   2.642   4.161   7.251  0.9249 -0.3061 -1.5274
   11CHL1   H2B  789   2.611   4.321   7.168 -0.4748  0.5269  1.8491
   11CHL1   C20  790   2.878   4.068   6.280 -0.3204 -0.5687  0.6097
   11CHL1   H20  791   2.843   4.165   6.239  0.9069 -1.0816 -1.8325
   11CHL1   C21  792   2.757   3.976   6.298  0.3498  0.0929  0.5558
   11CHL1  H21A  793   2.787   3.880   6.345  2.4808  0.9295  1.0484
   11CHL1  H21B  794   2.709   3.952   6.201 -1.8976 -1.1687  1.8958
   11CHL1  H21C  795   2.676   4.027   6.355  1.2602 -0.1718  2.1587
   11CHL1   C22  796   2.977   4.009   6.177 -0.6186 -0.1749 -0.5592
   11CHL1  H22A  797   3.065   4.077   6.173  0.0236 -0.9723 -0.1822
   11CHL1  H22B  798   3.008   3.909   6.214 -1.8821  0.3741  2.2422
   11CHL1   C23  799   2.935   3.996   6.032  0.1577 -0.1372  0.3799
   11CHL1  H23A  800   2.840   3.947   6.003 -0.1004  1.4779 -1.6921
   11CHL1  H23B  801   2.915   4.096   5.987 -0.0943 -0.2008  0.3528
   11CHL1   C24  802   3.046   3.926   5.946  0.3036 -0.1413 -0.3819
   11CHL1  H24A  803   3.146   3.971   5.966  1.4692 -2.0453 -1.5448
   11CHL1  H24B  804   3.060   3.820   5.976  1.4709  0.5575  1.7359
   11CHL1   C25  805   3.000   3.906   5.796 -0.8786 -0.1567  0.2750
   11CHL1   H25  806   2.904   3.850   5.792 -1.7603  1.3312 -2.8556
   11CHL1   C26  807   2.969   4.040   5.735  0.2865 -0.4299  0.8829
   11CHL1  H26A  808   2.881   4.081   5.789  0.1566 -0.8774  1.0163
   11CHL1  H26B  809   3.044   4.119   5.757  0.7711 -0.9098  0.9845
   11CHL1  H26C  810   2.945   4.031   5.627 -0.0991  0.3353  0.8984
   11CHL1   C27  811   3.101   3.828   5.726  0.1187 -0.5644  0.2260
   11CHL1  H27A  812   3.096   3.722   5.760  0.4740 -0.1812  1.5384
   11CHL1  H27B  813   3.101   3.826   5.615  1.0383 -2.5035  0.2151
   11CHL1  H27C  814   3.193   3.879   5.761 -1.1861  1.1395  1.3652
   12CHL1    C3  815   5.639   3.681   6.960  0.4265  0.6306  0.5355
   12CHL1    H3  816   5.641   3.792   6.950 -0.5882  0.6487  0.3716
   12CHL1    O3  817   5.603   3.644   7.090 -0.1052  0.1907 -0.1245
   12CHL1   H3'  818   5.573   3.553   7.091 -0.4283  0.2993  0.5712
   12CHL1    C4  819   5.548   3.621   6.855  0.0941  0.7552 -0.6331
   12CHL1   H4A  820   5.548   3.511   6.871  2.5691  0.8196  0.1835
   12CHL1   H4B  821   5.445   3.661   6.865  0.1652  0.5882  1.0083
   12CHL1    C5  822   5.601   3.629   6.717  0.3575  0.2346 -0.1422
   12CHL1    C6  823   5.525   3.686   6.623  0.6562 -0.7062  0.6765
   12CHL1    H6  824   5.419   3.708   6.638  0.4733 -1.1196  0.0463
   12CHL1    C7  825   5.580   3.728   6.492 -0.1057 -0.8312  0.5331
   12CHL1   H7A  826   5.504   3.717   6.412  1.0368  0.1118 -0.7377
   12CHL1   H7B  827   5.616   3.833   6.491  0.5605 -1.0085 -1.9068
   12CHL1    C8  828   5.702   3.654   6.452  0.1236 -0.3224  0.8552
   12CHL1    H8  829   5.670   3.548   6.440 -1.7217  0.1697  1.1287
   12CHL1   C14  830   5.762   3.705   6.321  0.3737 -0.7570 -0.0339
   12CHL1   H14  831   5.804   3.806   6.335 -0.9854  0.0814 -1.6079
   12CHL1   C15  832   5.670   3.706   6.195 -0.4652  0.4043 -0.4602
   12CHL1  H15A  833   5.613   3.610   6.194  1.0936 -0.5661 -0.3760
   12CHL1  H15B  834   5.602   3.793   6.199  0.6106  1.2740 -0.6180
   12CHL1   C16  835   5.772   3.712   6.080  0.6218  0.1350 -0.1029
   12CHL1  H16A  836   5.774   3.621   6.017  1.3995  0.9598 -1.3137
   12CHL1  H16B  837   5.769   3.801   6.013  1.6001 -0.7317 -1.3349
   12CHL1   C17  838   5.919   3.699   6.144 -0.1115 -0.2847 -0.1338
   12CHL1   H17  839   5.934   3.806   6.171 -4.7424  0.6829 -0.6157
   12CHL1   C13  840   5.892   3.625   6.272  0.1084 -0.0727  0.3337
   12CHL1   C18  841   5.875   3.472   6.242  0.5302 -0.6317  0.4479
   12CHL1  H18A  842   5.830   3.420   6.329  0.6552 -0.9133  0.3450
   12CHL1  H18B  843   5.803   3.454   6.159  0.2194  0.4477  0.4647
   12CHL1  H18C  844   5.970   3.421   6.215  0.6190 -1.6708  2.5317
   12CHL1   C12  845   5.996   3.641   6.378  0.2930  0.3453  0.5162
   12CHL1  H12A  846   6.074   3.565   6.354  0.8313  1.2167 -0.5930
   12CHL1  H12B  847   6.042   3.742   6.390  0.0701  0.7569 -1.7248
   12CHL1   C11  848   5.941   3.603   6.518 -0.1468  0.1832 -0.3492
   12CHL1  H11A  849   5.934   3.492   6.529  2.9760  0.0551  1.4016
   12CHL1  H11B  850   6.018   3.622   6.595 -0.4603 -0.2667  0.0882
   12CHL1    C9  851   5.810   3.664   6.564 -0.1067 -0.1594 -0.3339
   12CHL1    H9  852   5.826   3.773   6.573  0.4812 -0.2807  0.1694
   12CHL1   C10  853   5.759   3.611   6.700  0.0827  0.6898 -0.1354
   12CHL1   C19  854   5.780   3.462   6.707  0.1886 -0.4924  0.4508
   12CHL1  H19A  855   5.736   3.405   6.622 -1.7412 -0.8263  1.6404
   12CHL1  H19B  856   5.890   3.442   6.713  0.1354 -1.0874 -0.2613
   12CHL1  H19C  857   5.741   3.412   6.797  0.9298 -4.2946 -1.1321
   12CHL1    C1  858   5.833   3.673   6.815  0.2982  0.2110  0.7797
   12CHL1   H1A  859   5.941   3.650   6.807 -0.3047 -2.3625 -1.1750
   12CHL1   H1B  860   5.828   3.784   6.811  0.0543  0.1767 -0.6157
   12CHL1    C2  861   5.787   3.634   6.951 -0.1523 -0.4820  0.5454
   12CHL1   H2A  862   5.845   3.682   7.033  2.8022  1.3620 -2.3167
   12CHL1   H2B  863   5.792   3.524   6.966 -0.2317 -0.3812  1.3300
   12CHL1   C20  864   6.025   3.641   6.048 -0.7932 -0.2683 -0.7884
   12CHL1   H20  865   6.014   3.531   6.040 -0.2429 -0.4165  0.3121
   12CHL1   C21  866   6.161   3.673   6.110  0.9152  0.1890  0.1793
   12CHL1  H21A  867   6.171   3.779   6.142 -1.8034  0.4199  0.5366
   12CHL1  H21B  868   6.234   3.650   6.030 -1.4371 -2.1223 -1.4415
   12CHL1  H21C  869   6.190   3.618   6.202  0.4082  0.0664  0.2698
   12CHL1   C22  870   6.000   3.692   5.901 -0.6247 -0.2312 -0.1673
   12CHL1  H22A  871   5.909   3.648   5.855 -0.3047 -1.5700  0.4107
   12CHL1  H22B  872   5.993   3.802   5.894  0.7100  0.2626  3.7504
   12CHL1   C23  873   6.108   3.652   5.794 -0.0077 -0.2631  0.8778
   12CHL1  H23A  874   6.202   3.697   5.833  0.8769 -0.9906 -0.3311
   12CHL1  H23B  875   6.125   3.543   5.799  0.6178 -0.1353  1.8816
   12CHL1   C24  876   6.082   3.709   5.651 -0.9502  0.0437  0.0369
   12CHL1  H24A  877   5.986   3.662   5.620 -0.3713 -1.0035 -0.2150
   12CHL1  H24B  878   6.070   3.819   5.660 -1.1588  0.0399 -0.1912
   12CHL1   C25  879   6.196   3.662   5.553 -0.3087 -0.8454 -0.1462
   12CHL1   H25  880   6.202   3.551   5.553  1.2339 -0.8479 -2.5998
   12CHL1   C26  881   6.170   3.701   5.407  0.7725 -0.4421 -0.3877
   12CHL1  H26A  882   6.063   3.683   5.383  0.7453  0.1958 -0.7567
   12CHL1  H26B  883   6.172   3.811   5.394 -2.7186 -0.5017 -2.9777
   12CHL1  H26C  884   6.240   3.658   5.332  0.2250 -0.3201 -0.9820
   12CHL1   C27  885   6.328   3.729   5.587 -0.2589  0.0035 -0.6480
   12CHL1  H27A  886   6.365   3.702   5.688  0.3095  0.8438 -0.6263
   12CHL1  H27B  887   6.415   3.712   5.520 -0.1919 -0.0310 -0.5532
   12CHL1  H27C  888   6.316   3.839   5.591  0.6534  0.1125 -0.5921
   13CHL1    C3  889   3.494   3.361   7.053  0.3255 -0.0282 -1.1784
   13CHL1    H3  890   3.582   3.294   7.042 -0.4499 -1.3209 -0.0041
   13CHL1    O3  891   3.477   3.407   7.188 -0.2677  0.1701 -0.4317
   13CHL1   H3'  892   3.563   3.447   7.204 -1.0937  1.9047 -0.1085
   13CHL1    C4  893   3.514   3.477   6.958  0.1067  0.1825 -0.6022
   13CHL1   H4A  894   3.428   3.546   6.978 -0.3824 -0.9073  1.2089
   13CHL1   H4B  895   3.603   3.534   6.991 -1.8195  2.8221  0.4508
   13CHL1    C5  896   3.516   3.449   6.814 -0.8919  0.4303  0.4761
   13CHL1    C6  897   3.630   3.480   6.744  0.0665 -0.4318 -0.1570
   13CHL1    H6  898   3.719   3.529   6.787  0.0964 -0.3028 -0.3671
   13CHL1    C7  899   3.637   3.454   6.594 -0.6820 -0.1783 -0.0640
   13CHL1   H7A  900   3.679   3.548   6.552  1.6110 -0.5584  1.2189
   13CHL1   H7B  901   3.711   3.374   6.575 -1.3471 -0.6943 -0.5147
   13CHL1    C8  902   3.501   3.414   6.531 -0.1560 -0.1200  0.0390
   13CHL1    H8  903   3.440   3.506   6.523 -0.6949 -0.3645  1.1345
   13CHL1   C14  904   3.523   3.343   6.396  0.2391  0.6075 -0.8042
   13CHL1   H14  905   3.576   3.246   6.414 -1.0451 -0.3775 -2.1130
   13CHL1   C15  906   3.624   3.415   6.295  0.0680  0.5920 -0.4620
   13CHL1  H15A  907   3.598   3.523   6.284  1.9829  1.0554 -0.7245
   13CHL1  H15B  908   3.727   3.408   6.335 -0.1391  1.2477  0.2214
   13CHL1   C16  909   3.584   3.353   6.165  0.2646  0.4722 -0.4670
   13CHL1  H16A  910   3.546   3.431   6.095 -0.8107  0.3307 -0.0659
   13CHL1  H16B  911   3.671   3.301   6.120 -0.3425 -0.4474 -0.6127
   13CHL1   C17  912   3.467   3.243   6.191 -0.1806  0.6307  0.9769
   13CHL1   H17  913   3.523   3.149   6.211 -1.6318 -0.5059 -0.0694
   13CHL1   C13  914   3.400   3.293   6.317 -0.7159  0.2892  0.4370
   13CHL1   C18  915   3.293   3.405   6.286  0.1290  0.5524  0.5088
   13CHL1  H18A  916   3.262   3.460   6.377  1.3281  0.3948  1.0271
   13CHL1  H18B  917   3.333   3.465   6.201 -1.1609 -0.4527 -0.8534
   13CHL1  H18C  918   3.207   3.354   6.238  0.3008  1.5640 -0.9231
   13CHL1   C12  919   3.336   3.187   6.412  0.1013 -0.1482  0.5922
   13CHL1  H12A  920   3.245   3.139   6.370 -0.2936  1.0708  0.0181
   13CHL1  H12B  921   3.408   3.103   6.412  1.4701  0.9453 -1.3347
   13CHL1   C11  922   3.315   3.227   6.556  0.3243  0.1868 -0.5637
   13CHL1  H11A  923   3.228   3.295   6.542  1.3741  1.3813 -1.6170
   13CHL1  H11B  924   3.291   3.140   6.620  1.6144  0.1356 -0.1279
   13CHL1    C9  925   3.430   3.311   6.625 -0.4303  0.6827 -0.5554
   13CHL1    H9  926   3.507   3.233   6.646 -1.3202  0.2440  1.2639
   13CHL1   C10  927   3.401   3.363   6.760  0.0315 -0.5227 -0.8252
   13CHL1   C19  928   3.272   3.449   6.756 -0.0040 -0.1539  0.0446
   13CHL1  H19A  929   3.274   3.537   6.687 -0.6320  0.2330  0.5134
   13CHL1  H19B  930   3.192   3.384   6.716 -0.8130  0.0474  1.3021
   13CHL1  H19C  931   3.240   3.484   6.856  1.4808  2.4985 -0.2985
   13CHL1    C1  932   3.381   3.235   6.859  0.1309 -0.4960  0.2957
   13CHL1   H1A  933   3.283   3.204   6.818 -0.0831 -0.1962  0.5631
   13CHL1   H1B  934   3.460   3.159   6.845  1.4818  1.0951 -1.3230
   13CHL1    C2  935   3.371   3.271   7.008 -0.1616  0.1666  0.5177
   13CHL1   H2A  936   3.355   3.179   7.067  1.5663 -0.7997 -0.4359
   13CHL1   H2B  937   3.283   3.336   7.027 -0.3043  0.5369 -1.2456
   13CHL1   C20  938   3.390   3.213   6.060 -0.1653 -0.9938  0.4306
   13CHL1   H20  939   3.348   3.312   6.030  2.7627  0.1345 -0.2929
   13CHL1   C21  940   3.270   3.116   6.084 -0.5296 -1.0326 -1.1873
   13CHL1  H21A  941   3.310   3.017   6.114  2.8699  0.8124  0.9399
   13CHL1  H21B  942   3.201   3.116   5.997 -0.4824 -0.0063 -1.2383
   13CHL1  H21C  943   3.208   3.153   6.169  0.9617 -2.5840  0.6683
   13CHL1   C22  944   3.481   3.164   5.944 -0.2724 -0.1390 -0.1206
   13CHL1  H22A  945   3.570   3.230   5.936  1.1714 -2.2046 -2.9667
   13CHL1  H22B  946   3.512   3.058   5.956  2.8936  0.7353  0.2896
   13CHL1   C23  947   3.415   3.185   5.812 -0.5323 -0.4620  0.3316
   13CHL1  H23A  948   3.465   3.123   5.735 -2.9446 -1.9910 -0.0800
   13CHL1  H23B  949   3.305   3.172   5.811 -0.5775 -0.1897 -1.7394
   13CHL1   C24  950   3.452   3.331   5.769 -0.5513 -0.5991 -0.2318
   13CHL1  H24A  951   3.438   3.409   5.847  0.3540  0.5919 -1.2143
   13CHL1  H24B  952   3.560   3.330   5.742 -0.3587 -2.3631  0.5095
   13CHL1   C25  953   3.382   3.385   5.645  0.1229  0.1790  0.0466
   13CHL1   H25  954   3.276   3.360   5.665  0.0261  0.9488  0.5127
   13CHL1   C26  955   3.401   3.540   5.627 -0.3365  0.1235 -0.0419
   13CHL1  H26A  956   3.354   3.595   5.711 -0.4985  0.0709 -0.0967
   13CHL1  H26B  957   3.511   3.558   5.630 -0.1914 -0.0725 -2.4826
   13CHL1  H26C  958   3.368   3.568   5.525 -0.2765 -0.1532 -0.1404
   13CHL1   C27  959   3.421   3.307   5.510  0.3354  1.1918  0.5438
   13CHL1  H27A  960   3.361   3.332   5.420  0.6824 -0.7495 -0.2668
   13CHL1  H27B  961   3.529   3.311   5.482  0.5622 -2.2861  0.5353
   13CHL1  H27C  962   3.398   3.199   5.520  2.1827  0.6154 -0.8712
   14CHL1    C3  963   4.141   2.170   7.025  0.0019  0.2539 -0.2766
   14CHL1    H3  964   4.148   2.281   7.028  2.5032  0.1822 -1.0780
   14CHL1    O3  965   4.108   2.122   7.152  0.1006  0.5051  0.2646
   14CHL1   H3'  966   4.034   2.181   7.173 -0.7981  0.2489 -1.9373
   14CHL1    C4  967   4.036   2.115   6.920 -0.1701  0.5444 -0.3649
   14CHL1   H4A  968   4.041   2.004   6.925  1.5096  0.5398 -1.3690
   14CHL1   H4B  969   3.931   2.138   6.948 -0.4080 -1.3095  0.4178
   14CHL1    C5  970   4.072   2.154   6.783 -0.1497  0.1222  0.6408
   14CHL1    C6  971   3.982   2.216   6.708 -0.1166  0.0534  0.0549
   14CHL1    H6  972   3.885   2.230   6.758 -0.2681  0.8903 -0.4402
   14CHL1    C7  973   3.996   2.264   6.568 -0.3709 -0.1754  0.4724
   14CHL1   H7A  974   3.909   2.245   6.501  0.0868  2.5667 -1.0742
   14CHL1   H7B  975   4.015   2.374   6.567  1.3752 -0.4417  1.3585
   14CHL1    C8  976   4.121   2.191   6.502 -0.7316  0.1135  0.0971
   14CHL1    H8  977   4.099   2.082   6.498  0.3050 -0.1379  0.9082
   14CHL1   C14  978   4.159   2.253   6.367  0.0467  0.7222  0.7488
   14CHL1   H14  979   4.185   2.359   6.387  0.1602  0.5430  1.5719
   14CHL1   C15  980   4.049   2.269   6.261 -0.1320  0.7007  0.0551
   14CHL1  H15A  981   3.992   2.173   6.257  1.0991 -0.1346  1.4901
   14CHL1  H15B  982   3.973   2.346   6.288  0.8329  1.0930  1.7686
   14CHL1   C16  983   4.124   2.298   6.129  0.0163  0.6241  0.1375
   14CHL1  H16A  984   4.091   2.212   6.066  3.0756 -0.7652  0.2407
   14CHL1  H16B  985   4.095   2.394   6.082  2.4904  1.0110 -0.7704
   14CHL1   C17  986   4.280   2.271   6.156  0.6245 -0.8552 -0.2421
   14CHL1   H17  987   4.319   2.372   6.179 -3.1701  1.2068 -1.9556
   14CHL1   C13  988   4.283   2.195   6.292 -0.1326  0.4278 -0.0873
   14CHL1   C18  989   4.260   2.046   6.258  0.6576  0.0923 -0.1962
   14CHL1  H18A  990   4.349   2.000   6.211  0.6931  0.3682 -0.3989
   14CHL1  H18B  991   4.232   1.983   6.345 -1.3606  0.2722 -0.6454
   14CHL1  H18C  992   4.169   2.030   6.196 -0.4770 -1.4489  1.7379
   14CHL1   C12  993   4.398   2.219   6.395 -0.0190  0.0621  0.9407
   14CHL1  H12A  994   4.497   2.191   6.353 -0.3805  0.7456 -0.4300
   14CHL1  H12B  995   4.414   2.328   6.412  0.7988  0.3129 -1.0718
   14CHL1   C11  996   4.371   2.145   6.532 -0.2828  0.3241  0.1356
   14CHL1  H11A  997   4.369   2.036   6.510  2.1309 -0.2311  2.1713
   14CHL1  H11B  998   4.470   2.158   6.580 -0.1979  1.2231 -0.2741
   14CHL1    C9  999   4.241   2.191   6.597  0.0065 -0.5328 -0.2687
   14CHL1    H9 1000   4.254   2.301   6.610  1.6916 -0.9058  1.5962
   14CHL1   C10 1001   4.213   2.124   6.737 -0.3271  0.0238  0.7062
   14CHL1   C19 1002   4.237   1.972   6.726 -0.2582  0.3134 -0.7511
   14CHL1  H19A 1003   4.188   1.924   6.639 -0.9006  0.1030 -0.2824
   14CHL1  H19B 1004   4.345   1.952   6.711 -0.2403 -1.2773  1.0714
   14CHL1  H19C 1005   4.199   1.923   6.819 -1.7869  0.6136 -1.1834
   14CHL1    C1 1006   4.310   2.185   6.844 -0.1011 -0.2072  0.0912
   14CHL1   H1A 1007   4.413   2.155   6.816 -0.3566 -0.9036 -0.1298
   14CHL1   H1B 1008   4.305   2.296   6.841  0.1500 -0.1971 -2.2007
   14CHL1    C2 1009   4.282   2.128   6.982  0.0685 -0.4823 -0.4311
   14CHL1   H2A 1010   4.344   2.186   7.054 -2.8697  3.6502 -0.8633
   14CHL1   H2B 1011   4.304   2.019   6.988 -0.1181 -0.7377 -3.0290
   14CHL1   C20 1012   4.355   2.207   6.036 -0.0429  0.0227 -0.1908
   14CHL1   H20 1013   4.326   2.103   6.008  0.1593 -0.6586  1.9277
   14CHL1   C21 1014   4.508   2.203   6.059 -0.1448 -0.5911  0.4045
   14CHL1  H21A 1015   4.543   2.173   6.160 -0.0839 -1.2236  0.2038
   14CHL1  H21B 1016   4.548   2.306   6.061 -2.0132  0.1685  1.4416
   14CHL1  H21C 1017   4.568   2.139   5.991  1.1666 -0.0790  1.0438
   14CHL1   C22 1018   4.327   2.299   5.913  0.9010  0.7660  0.2493
   14CHL1  H22A 1019   4.221   2.295   5.881  1.1373  1.2667 -0.6266
   14CHL1  H22B 1020   4.349   2.401   5.951 -2.6593  1.4480  0.8062
   14CHL1   C23 1021   4.410   2.271   5.784  0.1219  0.6870  0.2449
   14CHL1  H23A 1022   4.387   2.363   5.724 -0.8435  0.2799 -0.0436
   14CHL1  H23B 1023   4.518   2.273   5.806  0.4155  0.3064 -1.0613
   14CHL1   C24 1024   4.359   2.145   5.704 -0.2431 -0.3862  0.6067
   14CHL1  H24A 1025   4.392   2.057   5.763  3.5723  1.4604  1.5921
   14CHL1  H24B 1026   4.249   2.138   5.712 -0.2702 -0.0661  0.5313
   14CHL1   C25 1027   4.399   2.141   5.558  0.5428 -0.0817 -0.6757
   14CHL1   H25 1028   4.367   2.043   5.519  1.8621  0.2724 -2.8208
   14CHL1   C26 1029   4.323   2.245   5.476 -0.6485  0.0852  0.2281
   14CHL1  H26A 1030   4.345   2.349   5.509  0.9918 -0.7359  1.8812
   14CHL1  H26B 1031   4.335   2.244   5.366 -1.8102 -0.5888  0.0972
   14CHL1  H26C 1032   4.213   2.234   5.490 -1.2550 -1.1353 -4.0683
   14CHL1   C27 1033   4.552   2.142   5.547  0.1351  0.2925  0.0064
   14CHL1  H27A 1034   4.584   2.118   5.443 -1.5428 -1.7603 -0.0976
   14CHL1  H27B 1035   4.594   2.239   5.581 -2.9605  1.5368  0.5603
   14CHL1  H27C 1036   4.591   2.067   5.620 -0.1691  1.0907  1.0015
   15CHL1    C3 1037   3.066   0.165   6.817  0.0206 -0.2599 -0.3003
   15CHL1    H3 1038   3.128   0.254   6.796 -0.6067 -0.1507 -1.8194
   15CHL1    O3 1039   3.044   0.149   6.954 -0.2332  0.0665 -0.2073
   15CHL1   H3' 1040   3.025   0.057   6.971  0.4648 -0.0013  0.2375
   15CHL1    C4 1041   2.927   0.192   6.758  0.2031  0.2748 -0.0030
   15CHL1   H4A 1042   2.876   0.098   6.789 -2.2486  1.8333  1.0021
   15CHL1   H4B 1043   2.874   0.271   6.816 -1.2841 -0.9425  0.3887
   15CHL1    C5 1044   2.938   0.211   6.607  0.8638 -0.3554  0.1203
   15CHL1    C6 1045   2.886   0.314   6.549 -0.3424  0.2974  0.3343
   15CHL1    H6 1046   2.827   0.391   6.602 -0.6224  1.4087 -1.5289
   15CHL1    C7 1047   2.876   0.343   6.401 -0.0942 -0.0276  0.1349
   15CHL1   H7A 1048   2.771   0.361   6.369 -1.3924 -0.8376  3.5865
   15CHL1   H7B 1049   2.943   0.428   6.376 -0.6376  0.3442 -0.0631
   15CHL1    C8 1050   2.927   0.225   6.318  0.2147  0.4522 -0.6777
   15CHL1    H8 1051   2.842   0.154   6.307 -0.1262  1.1112 -2.5564
   15CHL1   C14 1052   2.974   0.268   6.182 -0.7245 -0.2765 -0.4242
   15CHL1   H14 1053   3.061   0.333   6.205 -1.2135  0.4175 -0.4747
   15CHL1   C15 1054   2.866   0.350   6.106 -0.6387  0.1782  1.3974
   15CHL1  H15A 1055   2.774   0.289   6.112 -0.0387 -0.8827  0.3636
   15CHL1  H15B 1056   2.842   0.446   6.156 -0.7108 -0.3730  2.4677
   15CHL1   C16 1057   2.929   0.358   5.960  0.3053  0.0155 -0.9926
   15CHL1  H16A 1058   2.865   0.320   5.878  1.8255  0.1719 -2.2943
   15CHL1  H16B 1059   2.956   0.464   5.936  2.2790 -0.4535 -1.0552
   15CHL1   C17 1060   3.051   0.253   5.958  0.2566  0.1591  0.0607
   15CHL1   H17 1061   3.138   0.317   5.983 -1.1475  1.6396  1.3435
   15CHL1   C13 1062   3.024   0.164   6.083  0.8612  1.1455  0.2176
   15CHL1   C18 1063   2.918   0.057   6.045  0.8038  0.2084 -0.6855
   15CHL1  H18A 1064   2.964  -0.034   6.001  2.9448  0.4531  0.8540
   15CHL1  H18B 1065   2.875   0.027   6.143  2.7317 -1.0615 -0.1657
   15CHL1  H18C 1066   2.842   0.102   5.978 -0.0208 -1.5392 -0.9880
   15CHL1   C12 1067   3.142   0.095   6.160  0.4746  0.2522  0.0453
   15CHL1  H12A 1068   3.199   0.017   6.106 -0.5066 -0.4256 -0.0263
   15CHL1  H12B 1069   3.234   0.155   6.180  1.0349 -1.2435  2.3954
   15CHL1   C11 1070   3.097   0.037   6.298 -0.2057  0.5098  0.3010
   15CHL1  H11A 1071   3.029  -0.049   6.284 -2.0936  1.7730  1.2614
   15CHL1  H11B 1072   3.187   0.003   6.353 -0.0303  0.9560  0.2996
   15CHL1    C9 1073   3.043   0.148   6.392 -0.3703 -0.0917  0.0949
   15CHL1    H9 1074   3.123   0.225   6.400 -2.3030  2.2653 -1.8526
   15CHL1   C10 1075   3.012   0.100   6.534  0.0861 -0.2333  0.3244
   15CHL1   C19 1076   2.914  -0.019   6.517 -0.0464 -1.0437  0.2849
   15CHL1  H19A 1077   2.821   0.003   6.462 -0.0242 -2.8106 -0.5343
   15CHL1  H19B 1078   2.981  -0.101   6.483  2.4149  0.4289  1.3055
   15CHL1  H19C 1079   2.881  -0.039   6.621 -1.4995  1.8212  0.4663
   15CHL1    C1 1080   3.141   0.052   6.608 -0.6344 -0.1779 -0.5360
   15CHL1   H1A 1081   3.161  -0.050   6.567  1.8640  0.4809 -1.0986
   15CHL1   H1B 1082   3.229   0.115   6.584  1.6961 -2.1185  2.2164
   15CHL1    C2 1083   3.128   0.037   6.761 -0.3979 -0.3777  0.6408
   15CHL1   H2A 1084   3.231   0.024   6.800 -0.8369 -1.0380  1.5879
   15CHL1   H2B 1085   3.059  -0.049   6.772 -0.7458  0.0845  2.1926
   15CHL1   C20 1086   3.073   0.187   5.814 -0.2556 -0.1993  0.1092
   15CHL1   H20 1087   2.977   0.139   5.787 -0.6254 -0.4291  1.7385
   15CHL1   C21 1088   3.195   0.087   5.826  0.0893  0.2012 -0.3214
   15CHL1  H21A 1089   3.291   0.134   5.856  0.4157 -0.9391  0.4859
   15CHL1  H21B 1090   3.196   0.019   5.738  0.2041 -0.0813 -0.1028
   15CHL1  H21C 1091   3.173   0.014   5.907 -0.3291 -0.3498 -0.9129
   15CHL1   C22 1092   3.102   0.298   5.703 -0.2419  0.0925 -0.5869
   15CHL1  H22A 1093   3.012   0.362   5.691 -2.6565 -3.2269 -1.6701
   15CHL1  H22B 1094   3.191   0.358   5.733 -0.1433 -0.2110 -0.2672
   15CHL1   C23 1095   3.131   0.239   5.567 -0.2936 -0.3549  0.3213
   15CHL1  H23A 1096   3.202   0.153   5.565  0.4174  0.1229 -3.7308
   15CHL1  H23B 1097   3.039   0.201   5.518 -1.1567  1.8466  0.1343
   15CHL1   C24 1098   3.206   0.338   5.471  0.1195 -0.1736  0.1202
   15CHL1  H24A 1099   3.165   0.440   5.482  0.0229 -0.1858 -0.1207
   15CHL1  H24B 1100   3.307   0.357   5.514  0.2316 -0.1034 -0.1697
   15CHL1   C25 1101   3.233   0.278   5.329  0.2704  0.0595 -0.6213
   15CHL1   H25 1102   3.261   0.175   5.359  0.9764  0.2872 -0.4794
   15CHL1   C26 1103   3.099   0.271   5.255 -0.4488  0.0761 -0.7597
   15CHL1  H26A 1104   3.114   0.234   5.152  1.1411 -1.2970 -0.0940
   15CHL1  H26B 1105   3.024   0.203   5.302  1.3851 -0.5937  1.4245
   15CHL1  H26C 1106   3.067   0.376   5.245  1.3886  0.6518 -1.0233
   15CHL1   C27 1107   3.349   0.345   5.256 -0.1632  0.4265  0.1514
   15CHL1  H27A 1108   3.334   0.455   5.260  0.7174  0.5386  0.4825
   15CHL1  H27B 1109   3.444   0.323   5.309 -0.1447 -1.9484 -0.7595
   15CHL1  H27C 1110   3.354   0.307   5.151 -2.2167 -1.1205  0.5454
   16CHL1    C3 1111   0.546   6.367   6.821 -0.5833 -0.0524  0.5573
   16CHL1    H3 1112   0.513   6.261   6.827 -1.9557  0.3674  0.9756
   16CHL1    O3 1113   0.607   6.392   6.952  0.2893 -0.1371 -0.0950
   16CHL1   H3' 1114   0.584   6.483   6.976  2.7043  0.3621  0.6352
   16CHL1    C4 1115   0.643   6.384   6.711 -0.0064  0.4492  0.7969
   16CHL1   H4A 1116   0.716   6.469   6.712  2.0704 -1.0744 -2.5628
   16CHL1   H4B 1117   0.710   6.295   6.717 -0.2802  0.1239 -0.5632
   16CHL1    C5 1118   0.576   6.379   6.575  0.0008  1.0223  0.5557
   16CHL1    C6 1119   0.614   6.297   6.477 -0.1706 -0.2534 -0.0553
   16CHL1    H6 1120   0.699   6.230   6.497 -0.1427  0.2009  1.4813
   16CHL1    C7 1121   0.564   6.298   6.335  0.2427 -0.3430 -0.4491
   16CHL1   H7A 1122   0.655   6.304   6.270 -0.7929 -1.4932 -2.0992
   16CHL1   H7B 1123   0.505   6.207   6.312  0.6844 -0.2730 -1.9832
   16CHL1    C8 1124   0.491   6.430   6.305  0.7679 -0.3445 -0.4388
   16CHL1    H8 1125   0.556   6.518   6.289  0.1990  0.2565  0.5145
   16CHL1   C14 1126   0.414   6.407   6.177  0.3011 -0.0959 -0.1835
   16CHL1   H14 1127   0.337   6.334   6.210  1.7609 -2.1337 -1.1004
   16CHL1   C15 1128   0.480   6.345   6.053 -0.0965 -0.2986 -0.1318
   16CHL1  H15A 1129   0.572   6.402   6.027 -1.4829  2.1869  0.1057
   16CHL1  H15B 1130   0.498   6.236   6.068 -0.7962 -0.4045 -0.0517
   16CHL1   C16 1131   0.387   6.375   5.933  0.2490 -0.5081 -0.6855
   16CHL1  H16A 1132   0.451   6.431   5.861 -0.9743  0.4966 -1.0355
   16CHL1  H16B 1133   0.355   6.277   5.892  1.1202 -0.7375 -0.8395
   16CHL1   C17 1134   0.281   6.473   5.991  0.4836 -0.1549 -0.1529
   16CHL1   H17 1135   0.202   6.400   6.019 -0.2293  0.0472 -1.5418
   16CHL1   C13 1136   0.332   6.529   6.124  0.0504  0.0140  0.4424
   16CHL1   C18 1137   0.425   6.647   6.093 -1.4103 -0.1461 -0.0263
   16CHL1  H18A 1138   0.368   6.724   6.037 -0.4937 -0.1127 -0.9545
   16CHL1  H18B 1139   0.467   6.707   6.177 -2.1351  1.6913 -0.9286
   16CHL1  H18C 1140   0.498   6.617   6.015 -0.3302  0.7153  0.6225
   16CHL1   C12 1141   0.228   6.569   6.230 -0.4861  0.2183  0.1832
   16CHL1  H12A 1142   0.163   6.652   6.194  1.2993  1.2111 -0.9180
   16CHL1  H12B 1143   0.163   6.482   6.253 -0.0327 -0.4884 -1.1535
   16CHL1   C11 1144   0.301   6.592   6.369 -0.0534 -0.1711  0.0294
   16CHL1  H11A 1145   0.362   6.683   6.352  0.3534 -0.7631 -1.9122
   16CHL1  H11B 1146   0.231   6.614   6.453  1.5355 -0.6979  1.5637
   16CHL1    C9 1147   0.385   6.467   6.414 -0.3090 -0.1306  0.4249
   16CHL1    H9 1148   0.315   6.384   6.436 -0.1753  0.6952  5.0063
   16CHL1   C10 1149   0.463   6.481   6.549 -0.6030 -0.6290 -0.0950
   16CHL1   C19 1150   0.522   6.626   6.546 -0.2334  0.1735 -1.0310
   16CHL1  H19A 1151   0.596   6.635   6.463  0.2751 -0.7760 -0.7033
   16CHL1  H19B 1152   0.452   6.711   6.553  0.9218  1.0436  0.6466
   16CHL1  H19C 1153   0.577   6.633   6.642 -1.0472 -1.4836 -0.4018
   16CHL1    C1 1154   0.361   6.458   6.667 -0.0588  0.1036  0.4077
   16CHL1   H1A 1155   0.269   6.520   6.664 -1.2644 -1.6812 -1.0359
   16CHL1   H1B 1156   0.329   6.352   6.655  1.0765 -0.3029  0.8373
   16CHL1    C2 1157   0.425   6.467   6.808 -0.4687  0.8711  0.4694
   16CHL1   H2A 1158   0.346   6.451   6.885 -0.1044 -1.5730  0.4138
   16CHL1   H2B 1159   0.463   6.571   6.817  1.1701  0.3910 -0.5623
   16CHL1   C20 1160   0.213   6.564   5.887 -0.4312  0.8790 -0.0722
   16CHL1   H20 1161   0.290   6.625   5.834 -0.4735  1.6279  0.7079
   16CHL1   C21 1162   0.108   6.646   5.949 -0.3574 -0.5030 -0.2334
   16CHL1  H21A 1163   0.070   6.718   5.874  1.0657  3.5745  2.5339
   16CHL1  H21B 1164   0.158   6.719   6.018 -2.2092  0.6693 -0.0703
   16CHL1  H21C 1165   0.029   6.587   6.000  0.3302 -1.3072 -0.0722
   16CHL1   C22 1166   0.146   6.482   5.777 -0.0692  0.1989 -0.0132
   16CHL1  H22A 1167   0.199   6.387   5.754 -1.7602 -1.2480  1.7781
   16CHL1  H22B 1168   0.045   6.456   5.814 -0.4205  0.8470 -0.4993
   16CHL1   C23 1169   0.120   6.557   5.647 -0.4441  0.4158 -0.0759
   16CHL1  H23A 1170   0.043   6.497   5.593  0.8600 -0.6856 -0.7511
   16CHL1  H23B 1171   0.075   6.657   5.668  1.0082  0.9998  0.3962
   16CHL1   C24 1172   0.244   6.581   5.564  0.7362  0.1926 -0.3668
   16CHL1  H24A 1173   0.325   6.630   5.623  1.1312 -1.1636  0.2515
   16CHL1  H24B 1174   0.298   6.484   5.553 -1.2478 -1.1151  0.8826
   16CHL1   C25 1175   0.220   6.656   5.433 -0.6898  0.3335  0.8265
   16CHL1   H25 1176   0.157   6.744   5.459 -1.7682  0.9825 -3.2386
   16CHL1   C26 1177   0.348   6.699   5.362  0.1383 -0.7380  0.0405
   16CHL1  H26A 1178   0.326   6.781   5.290 -2.3325 -0.3721  1.1232
   16CHL1  H26B 1179   0.426   6.724   5.438  1.5937 -1.1520 -1.2520
   16CHL1  H26C 1180   0.383   6.606   5.312  1.3457 -0.3327  0.0897
   16CHL1   C27 1181   0.143   6.569   5.327  0.4440 -0.1676 -0.3668
   16CHL1  H27A 1182   0.037   6.554   5.355  0.2424  0.0784 -0.9732
   16CHL1  H27B 1183   0.144   6.630   5.234  0.1978  3.2449  1.7055
   16CHL1  H27C 1184   0.207   6.480   5.307 -0.3137 -0.3125 -2.3207
   17CHL1    C3 1185   0.543   2.662   6.824  0.4043  0.6398  0.1552
   17CHL1    H3 1186   0.606   2.750   6.803 -1.5078  1.9906 -0.1436
   17CHL1    O3 1187   0.490   2.686   6.958 -0.3484  0.2921  0.3402
   17CHL1   H3' 1188   0.428   2.614   6.969  0.0304 -0.2658 -1.0067
   17CHL1    C4 1189   0.439   2.678   6.711  0.4674 -0.1342  0.2510
   17CHL1   H4A 1190   0.348   2.617   6.730 -1.0862  1.6864 -0.9599
   17CHL1   H4B 1191   0.409   2.784   6.719  1.8006  0.2009  0.9282
   17CHL1    C5 1192   0.488   2.641   6.575  0.3306 -0.4599 -0.1723
   17CHL1    C6 1193   0.477   2.732   6.476 -0.3458 -0.3336 -0.0515
   17CHL1    H6 1194   0.429   2.830   6.486  0.9746  0.3284 -0.0318
   17CHL1    C7 1195   0.533   2.711   6.338 -0.4005  0.0600 -0.5896
   17CHL1   H7A 1196   0.456   2.739   6.262  1.4665  0.9593 -2.2351
   17CHL1   H7B 1197   0.605   2.793   6.321 -1.0914  1.0090  0.8878
   17CHL1    C8 1198   0.574   2.566   6.305  0.1383  0.2275 -0.3443
   17CHL1    H8 1199   0.478   2.511   6.296  1.1279 -1.6657  0.1563
   17CHL1   C14 1200   0.666   2.563   6.187  0.3473 -0.4675 -0.3402
   17CHL1   H14 1201   0.762   2.609   6.218  0.1940  0.0271 -0.5765
   17CHL1   C15 1202   0.630   2.647   6.062  0.1295 -0.1018  0.7956
   17CHL1  H15A 1203   0.520   2.634   6.052  0.1372  0.5199 -0.2342
   17CHL1  H15B 1204   0.659   2.751   6.088  0.4414 -0.0591  0.2921
   17CHL1   C16 1205   0.694   2.572   5.941  0.3562  0.1502 -0.0015
   17CHL1  H16A 1206   0.625   2.536   5.862  1.4941 -0.9689 -0.5025
   17CHL1  H16B 1207   0.760   2.650   5.898  0.0089  0.5740  0.2133
   17CHL1   C17 1208   0.766   2.445   6.008 -0.2295 -0.2461  0.4615
   17CHL1   H17 1209   0.867   2.478   6.040  0.9138 -0.7869 -2.2774
   17CHL1   C13 1210   0.693   2.422   6.142 -0.0252  0.8789  0.2827
   17CHL1   C18 1211   0.553   2.354   6.110  0.2098  0.4426 -0.3304
   17CHL1  H18A 1212   0.569   2.258   6.056 -2.1878 -0.8205  0.9670
   17CHL1  H18B 1213   0.485   2.324   6.193 -0.5094 -0.5532 -1.2497
   17CHL1  H18C 1214   0.491   2.419   6.045 -2.4733 -1.6556 -0.0516
   17CHL1   C12 1215   0.767   2.356   6.260 -0.4120 -0.1646  0.1777
   17CHL1  H12A 1216   0.779   2.246   6.247 -1.3684 -0.4470  1.4529
   17CHL1  H12B 1217   0.867   2.401   6.274  0.7614 -3.0681  2.0971
   17CHL1   C11 1218   0.687   2.364   6.388  0.2269 -0.0003  0.2843
   17CHL1  H11A 1219   0.604   2.291   6.375  1.2949 -0.9416 -1.7092
   17CHL1  H11B 1220   0.757   2.321   6.463 -0.0024  0.2839  0.6687
   17CHL1    C9 1221   0.647   2.507   6.426 -0.5309 -0.6636 -0.1144
   17CHL1    H9 1222   0.740   2.569   6.428 -2.1400  1.8819  0.3734
   17CHL1   C10 1223   0.573   2.511   6.564 -0.1107  0.2394 -0.2289
   17CHL1   C19 1224   0.469   2.398   6.575 -0.1617  0.4169  0.3495
   17CHL1  H19A 1225   0.394   2.424   6.652  0.6552  2.2365  0.5718
   17CHL1  H19B 1226   0.422   2.390   6.474 -2.8597  1.5239  1.4299
   17CHL1  H19C 1227   0.511   2.301   6.611  1.0151  0.6646 -0.3001
   17CHL1    C1 1228   0.675   2.497   6.680 -0.1866 -0.6208 -0.8412
   17CHL1   H1A 1229   0.717   2.395   6.664 -2.7239 -1.6048 -1.7995
   17CHL1   H1B 1230   0.758   2.569   6.659 -1.4977  1.7654  1.6204
   17CHL1    C2 1231   0.621   2.524   6.819 -0.0142 -0.4714  0.6771
   17CHL1   H2A 1232   0.697   2.530   6.900  1.1080 -0.5564 -0.3271
   17CHL1   H2B 1233   0.544   2.445   6.831  1.3048 -2.2804 -1.7774
   17CHL1   C20 1234   0.794   2.320   5.913 -0.7351  0.5119  0.2686
   17CHL1   H20 1235   0.699   2.264   5.895  0.1963 -1.3235  0.8535
   17CHL1   C21 1236   0.885   2.218   5.978  0.4468 -0.5437  0.3069
   17CHL1  H21A 1237   0.980   2.255   6.023  0.5796 -1.1966  0.5670
   17CHL1  H21B 1238   0.913   2.145   5.900  1.4193 -1.4888  1.4905
   17CHL1  H21C 1239   0.829   2.160   6.054  1.9032 -0.9217  1.1401
   17CHL1   C22 1240   0.841   2.372   5.773 -0.1512 -0.0244  0.7345
   17CHL1  H22A 1241   0.870   2.277   5.723  2.0038  0.6379  0.6289
   17CHL1  H22B 1242   0.762   2.426   5.717 -1.0941 -0.7359  1.3473
   17CHL1   C23 1243   0.973   2.441   5.771 -0.1417 -0.3313 -1.1953
   17CHL1  H23A 1244   0.951   2.537   5.822 -1.8093  0.3222 -3.0255
   17CHL1  H23B 1245   1.055   2.394   5.828 -0.3151  0.3682 -0.3400
   17CHL1   C24 1246   1.009   2.490   5.632  0.7857 -0.7035 -0.0501
   17CHL1  H24A 1247   0.920   2.537   5.586  0.5651 -2.0886 -1.1216
   17CHL1  H24B 1248   1.082   2.573   5.642  0.3905 -0.3062 -0.4460
   17CHL1   C25 1249   1.070   2.395   5.522 -0.8630  0.6071 -0.3779
   17CHL1   H25 1250   0.997   2.311   5.514 -0.3144  0.1175 -0.3003
   17CHL1   C26 1251   1.090   2.446   5.384 -0.0191  0.3228  0.2301
   17CHL1  H26A 1252   0.989   2.446   5.338  0.4043 -0.7249 -0.7553
   17CHL1  H26B 1253   1.144   2.540   5.363  2.7864 -1.0449  0.8151
   17CHL1  H26C 1254   1.137   2.369   5.319 -0.7969 -0.1437  0.2072
   17CHL1   C27 1255   1.209   2.335   5.572  0.1780  0.0355  0.1936
   17CHL1  H27A 1256   1.293   2.407   5.557  0.2510 -0.1095 -0.0899
   17CHL1  H27B 1257   1.200   2.314   5.681 -1.2725  0.0809  0.1059
   17CHL1  H27C 1258   1.223   2.242   5.514  1.0963 -0.4524  1.1502
   18CHL1    C3 1259   5.242   2.914   6.982 -0.9570  0.4179 -0.5030
   18CHL1    H3 1260   5.243   2.825   6.916 -2.1173  0.5099 -0.6624
   18CHL1    O3 1261   5.191   2.873   7.104  0.3795 -0.5343  0.0840
   18CHL1   H3' 1262   5.181   2.950   7.162  2.9441 -0.8827  1.1135
   18CHL1    C4 1263   5.385   2.964   6.991 -0.3835 -0.2450  0.1361
   18CHL1   H4A 1264   5.398   3.049   7.063  2.7809 -0.2004 -0.3190
   18CHL1   H4B 1265   5.449   2.881   7.028 -0.3283 -0.4512 -0.4239
   18CHL1    C5 1266   5.435   2.996   6.855  0.0278  0.0314 -0.0205
   18CHL1    C6 1267   5.547   2.943   6.802 -0.5081  0.1369  0.5014
   18CHL1    H6 1268   5.614   2.878   6.860 -1.1672 -0.0104  1.1038
   18CHL1    C7 1269   5.600   2.969   6.668  0.1120  0.6001  0.1785
   18CHL1   H7A 1270   5.709   2.989   6.673  0.0403  1.8993 -2.1587
   18CHL1   H7B 1271   5.594   2.873   6.611  0.9039  1.2145 -0.9762
   18CHL1    C8 1272   5.531   3.080   6.592 -0.0280  0.5063 -0.9344
   18CHL1    H8 1273   5.574   3.178   6.622  0.8423 -0.2226  0.2992
   18CHL1   C14 1274   5.560   3.068   6.450  0.8865 -0.0325 -0.2922
   18CHL1   H14 1275   5.510   2.971   6.427  0.6166 -0.1637  0.7885
   18CHL1   C15 1276   5.707   3.063   6.408  0.0573  0.2522 -0.5287
   18CHL1  H15A 1277   5.749   3.150   6.462 -0.7223 -0.3716  1.1711
   18CHL1  H15B 1278   5.755   2.970   6.446 -0.4874  0.5100  0.8751
   18CHL1   C16 1279   5.697   3.086   6.259 -0.4790 -0.4932  0.1818
   18CHL1  H16A 1280   5.777   3.163   6.248  0.9420 -1.7928  1.0823
   18CHL1  H16B 1281   5.723   2.999   6.195  3.9134 -0.8600  2.1229
   18CHL1   C17 1282   5.551   3.129   6.225  0.3369 -0.2318 -0.0037
   18CHL1   H17 1283   5.496   3.036   6.203 -0.4021  0.0524  0.6291
   18CHL1   C13 1284   5.489   3.178   6.357 -0.7118  0.1893 -0.2665
   18CHL1   C18 1285   5.541   3.319   6.396  0.2437  0.8071 -0.4222
   18CHL1  H18A 1286   5.513   3.340   6.502  2.3808 -0.9421  0.5555
   18CHL1  H18B 1287   5.651   3.326   6.395  0.5063 -0.5501  3.3586
   18CHL1  H18C 1288   5.498   3.397   6.330 -0.9200 -0.0984 -0.7873
   18CHL1   C12 1289   5.335   3.171   6.374 -0.1090 -1.0150 -0.8424
   18CHL1  H12A 1290   5.278   3.246   6.315  0.3721  0.9752  1.1103
   18CHL1  H12B 1291   5.301   3.068   6.350 -1.5378 -1.2793  1.8850
   18CHL1   C11 1292   5.300   3.187   6.523 -0.5364  0.1918 -0.2370
   18CHL1  H11A 1293   5.334   3.289   6.550 -0.3032 -0.4920  2.3796
   18CHL1  H11B 1294   5.191   3.182   6.544 -1.4817 -0.5998 -4.5149
   18CHL1    C9 1295   5.375   3.085   6.613  0.1659 -0.1847 -0.6062
   18CHL1    H9 1296   5.334   2.989   6.574 -0.5809  1.0087 -2.9692
   18CHL1   C10 1297   5.341   3.085   6.770  0.3855  0.4822  0.2831
   18CHL1   C19 1298   5.347   3.231   6.806  0.5011 -0.7537 -0.5376
   18CHL1  H19A 1299   5.273   3.293   6.751 -2.9220 -3.1293  1.0638
   18CHL1  H19B 1300   5.324   3.253   6.912 -1.8496  0.5105 -1.2465
   18CHL1  H19C 1301   5.449   3.273   6.787  0.6955 -1.9184 -2.2203
   18CHL1    C1 1302   5.193   3.046   6.785  0.1437 -0.7474 -0.5214
   18CHL1   H1A 1303   5.124   3.119   6.737 -2.0281 -2.2993  0.0928
   18CHL1   H1B 1304   5.168   2.950   6.734 -1.3169  0.0458 -1.3599
   18CHL1    C2 1305   5.154   3.030   6.931 -0.4145  0.3500 -0.9431
   18CHL1   H2A 1306   5.048   2.996   6.931  0.0185 -1.1031  0.1771
   18CHL1   H2B 1307   5.162   3.126   6.986 -1.2518  0.1187 -0.4138
   18CHL1   C20 1308   5.545   3.210   6.097 -0.6352 -0.8275 -0.4138
   18CHL1   H20 1309   5.588   3.309   6.126 -3.9006  0.4017  0.7068
   18CHL1   C21 1310   5.401   3.242   6.060  0.3414  0.3188 -0.1675
   18CHL1  H21A 1311   5.353   3.306   6.136 -0.4619 -0.4689  0.0143
   18CHL1  H21B 1312   5.330   3.156   6.056 -1.7474  1.8301  1.8863
   18CHL1  H21C 1313   5.403   3.300   5.966 -0.7921  0.1029 -0.3420
   18CHL1   C22 1314   5.631   3.151   5.979  0.2841  0.1575  0.9089
   18CHL1  H22A 1315   5.735   3.135   6.016  0.4486 -0.8330  0.0746
   18CHL1  H22B 1316   5.586   3.054   5.948  2.0200  0.3135 -2.5871
   18CHL1   C23 1317   5.641   3.233   5.846 -0.5156  0.5077 -0.1540
   18CHL1  H23A 1318   5.537   3.247   5.807 -1.7515 -1.6749  2.0997
   18CHL1  H23B 1319   5.683   3.335   5.856 -1.1718  0.6546  1.3854
   18CHL1   C24 1320   5.741   3.166   5.753  1.0096  0.1873 -0.8422
   18CHL1  H24A 1321   5.835   3.164   5.811  0.1695 -1.5196  0.5757
   18CHL1  H24B 1322   5.716   3.058   5.743 -1.7541  0.5802  0.7850
   18CHL1   C25 1323   5.753   3.235   5.620  0.3966 -0.3875  0.7092
   18CHL1   H25 1324   5.758   3.341   5.654 -0.7545  0.1460 -0.6836
   18CHL1   C26 1325   5.887   3.209   5.544 -0.9351  0.7232 -0.3820
   18CHL1  H26A 1326   5.892   3.267   5.449 -1.2410  0.4607 -0.5649
   18CHL1  H26B 1327   5.978   3.232   5.602  0.4670  0.9425 -2.5474
   18CHL1  H26C 1328   5.896   3.099   5.529 -0.1052  0.6604  0.5234
   18CHL1   C27 1329   5.634   3.202   5.528 -0.2664  0.5829 -0.1855
   18CHL1  H27A 1330   5.645   3.266   5.438  0.0333  1.9110  0.7545
   18CHL1  H27B 1331   5.651   3.100   5.489  3.0981  1.2076 -0.6563
   18CHL1  H27C 1332   5.534   3.217   5.574 -0.7594  0.1435 -1.1111
   19CHL1    C3 1333   3.508   2.755   7.091  0.2382  0.1505  0.6262
   19CHL1    H3 1334   3.608   2.709   7.079  1.0966  1.8629  0.9438
   19CHL1    O3 1335   3.478   2.757   7.228 -0.9351 -0.5573 -0.2479
   19CHL1   H3' 1336   3.485   2.667   7.261  1.2279 -0.9244 -1.5582
   19CHL1    C4 1337   3.505   2.886   7.013 -0.3184 -0.3042  0.5702
   19CHL1   H4A 1338   3.409   2.942   7.020 -1.3850 -1.5400 -2.3984
   19CHL1   H4B 1339   3.576   2.961   7.053 -1.5182  2.5933 -2.2976
   19CHL1    C5 1340   3.528   2.867   6.867  0.2214  0.1455 -1.0281
   19CHL1    C6 1341   3.637   2.907   6.812 -0.4563  0.4500  0.4017
   19CHL1    H6 1342   3.713   2.965   6.865  1.0635 -0.1246 -1.0211
   19CHL1    C7 1343   3.662   2.887   6.666 -0.6742  0.1937 -0.1674
   19CHL1   H7A 1344   3.707   2.979   6.622  2.4929 -1.2704 -0.3088
   19CHL1   H7B 1345   3.744   2.813   6.652 -0.8846 -0.1842  0.5298
   19CHL1    C8 1346   3.547   2.839   6.575  1.0551  0.6511 -0.5642
   19CHL1    H8 1347   3.474   2.918   6.547  1.4497  0.6123 -1.7749
   19CHL1   C14 1348   3.594   2.788   6.444 -0.5271 -0.4659 -0.9361
   19CHL1   H14 1349   3.660   2.700   6.461 -0.3835 -0.1002  0.5413
   19CHL1   C15 1350   3.683   2.883   6.361  0.6015  1.0230  0.2073
   19CHL1  H15A 1351   3.645   2.988   6.363  0.5877  1.0181  0.2141
   19CHL1  H15B 1352   3.789   2.872   6.392 -0.0372 -0.5486  2.0133
   19CHL1   C16 1353   3.666   2.827   6.214  0.1652 -0.5900  0.3376
   19CHL1  H16A 1354   3.611   2.888   6.140 -0.6949 -0.5420  1.0005
   19CHL1  H16B 1355   3.762   2.799   6.165 -0.9658 -5.4545  0.3672
   19CHL1   C17 1356   3.579   2.703   6.224  0.6818  0.0548  0.0345
   19CHL1   H17 1357   3.648   2.623   6.260  1.9596  1.7882  1.6203
   19CHL1   C13 1358   3.492   2.735   6.343 -0.3962 -0.1695  0.0488
   19CHL1   C18 1359   3.380   2.837   6.298  0.2038  0.7414 -0.4107
   19CHL1  H18A 1360   3.309   2.794   6.224 -1.0199  0.6079  0.7938
   19CHL1  H18B 1361   3.333   2.891   6.383 -0.2496  1.0107 -0.8292
   19CHL1  H18C 1362   3.431   2.919   6.243  1.5489 -0.6881 -1.3569
   19CHL1   C12 1363   3.417   2.623   6.427  0.0678  0.1923 -0.5597
   19CHL1  H12A 1364   3.336   2.586   6.361 -0.6230  3.1371 -1.5460
   19CHL1  H12B 1365   3.490   2.545   6.458 -0.3042  0.7249  1.8701
   19CHL1   C11 1366   3.352   2.668   6.558  1.3454  0.0583 -0.3435
   19CHL1  H11A 1367   3.269   2.739   6.539 -1.8201 -2.9476  1.0626
   19CHL1  H11B 1368   3.309   2.587   6.621  4.0228 -1.7593 -0.7115
   19CHL1    C9 1369   3.465   2.730   6.648 -0.5685  0.2942 -0.7376
   19CHL1    H9 1370   3.532   2.644   6.669 -2.4234 -0.9348  0.3374
   19CHL1   C10 1371   3.421   2.777   6.793 -0.0801 -0.1342  0.7737
   19CHL1   C19 1372   3.287   2.850   6.796  0.1115 -0.0168  0.4835
   19CHL1  H19A 1373   3.295   2.945   6.740 -1.9420 -0.9893 -1.6425
   19CHL1  H19B 1374   3.202   2.791   6.756 -1.0583 -0.9953  4.0110
   19CHL1  H19C 1375   3.253   2.876   6.898  0.6708  2.7057  0.0419
   19CHL1    C1 1376   3.416   2.645   6.879  0.1634  0.1884  0.0286
   19CHL1   H1A 1377   3.339   2.578   6.833  1.4803  0.4932 -2.8784
   19CHL1   H1B 1378   3.511   2.587   6.878  1.2391  1.7275  2.8532
   19CHL1    C2 1379   3.403   2.666   7.027  0.4437  0.8170 -0.2234
   19CHL1   H2A 1380   3.396   2.565   7.073  0.7676  0.6028 -0.6441
   19CHL1   H2B 1381   3.301   2.709   7.039 -0.3581 -1.1241  0.3293
   19CHL1   C20 1382   3.520   2.662   6.091  0.9581 -0.4374 -0.2636
   19CHL1   H20 1383   3.458   2.739   6.040 -2.4037 -0.8797  2.7316
   19CHL1   C21 1384   3.419   2.546   6.104 -0.4530  0.2561 -0.1152
   19CHL1  H21A 1385   3.381   2.518   6.003  1.1393  2.2235 -1.3213
   19CHL1  H21B 1386   3.326   2.585   6.150 -0.2495  1.1622 -0.4603
   19CHL1  H21C 1387   3.467   2.461   6.157 -2.8954 -3.5469 -3.3575
   19CHL1   C22 1388   3.620   2.633   5.980  0.8872  0.2137 -0.0415
   19CHL1  H22A 1389   3.695   2.714   5.975  0.2411  0.7558 -3.0835
   19CHL1  H22B 1390   3.665   2.532   5.996 -2.7449 -1.6195 -0.1749
   19CHL1   C23 1391   3.573   2.624   5.835 -0.1050  0.0424 -0.2814
   19CHL1  H23A 1392   3.512   2.533   5.816  1.1461 -0.4517 -2.2818
   19CHL1  H23B 1393   3.508   2.709   5.808 -0.6144 -0.0476  0.6401
   19CHL1   C24 1394   3.696   2.606   5.742 -0.0737  0.3276 -0.7150
   19CHL1  H24A 1395   3.756   2.698   5.727  2.0085 -0.7655  0.4186
   19CHL1  H24B 1396   3.760   2.526   5.787 -2.1429 -2.1303 -1.8540
   19CHL1   C25 1397   3.659   2.537   5.603  0.1462 -0.6038 -1.1481
   19CHL1   H25 1398   3.587   2.453   5.613 -2.0771  1.1470 -1.4783
   19CHL1   C26 1399   3.577   2.640   5.524  0.5332 -0.0401  0.5148
   19CHL1  H26A 1400   3.534   2.587   5.436  1.8815 -0.4965  0.1075
   19CHL1  H26B 1401   3.493   2.688   5.580 -1.4041 -0.2596 -2.0097
   19CHL1  H26C 1402   3.642   2.716   5.475 -1.0983 -0.3086 -2.2842
   19CHL1   C27 1403   3.785   2.495   5.523  0.6529 -0.6993 -0.0481
   19CHL1  H27A 1404   3.839   2.435   5.600 -0.7110 -1.5431  0.2887
   19CHL1  H27B 1405   3.767   2.426   5.439  0.2685 -0.9050  0.1984
   19CHL1  H27C 1406   3.851   2.583   5.507 -0.6291  0.3643  0.2583
   20CHL1    C3 1407   1.942   4.883   6.974  0.1499 -0.0875  0.5593
   20CHL1    H3 1408   2.026   4.955   6.970 -0.2631  0.3609 -0.2011
   20CHL1    O3 1409   1.892   4.878   7.104  0.2799  0.6013 -0.0887
   20CHL1   H3' 1410   1.824   4.810   7.100  0.4780  0.4212 -0.4824
   20CHL1    C4 1411   1.828   4.925   6.883  0.1827  0.3320  0.2131
   20CHL1   H4A 1412   1.735   4.868   6.906 -0.1018 -0.1313 -1.8650
   20CHL1   H4B 1413   1.817   5.034   6.906  0.6351 -0.1259  2.9370
   20CHL1    C5 1414   1.860   4.915   6.731  0.8348  0.1688 -0.2709
   20CHL1    C6 1415   1.839   5.012   6.641  0.3961  0.4976 -0.0471
   20CHL1    H6 1416   1.800   5.109   6.676  0.8232  1.8037 -2.9036
   20CHL1    C7 1417   1.857   5.002   6.492 -0.3989 -0.4723  0.2657
   20CHL1   H7A 1418   1.768   5.049   6.445  0.2922  0.7496  0.1372
   20CHL1   H7B 1419   1.942   5.065   6.457 -0.5858 -0.7223 -0.6563
   20CHL1    C8 1420   1.886   4.862   6.440  0.0716 -0.1650 -0.3690
   20CHL1    H8 1421   1.789   4.808   6.445 -0.0003 -0.1461 -1.3402
   20CHL1   C14 1422   1.951   4.864   6.299  0.1986 -0.8412 -0.4437
   20CHL1   H14 1423   2.046   4.919   6.317 -1.6055  1.4422  3.2761
   20CHL1   C15 1424   1.875   4.932   6.183 -0.1624 -0.1568 -0.2806
   20CHL1  H15A 1425   1.771   4.893   6.176 -0.7902  1.4375 -0.1715
   20CHL1  H15B 1426   1.893   5.040   6.198 -1.3616  0.3431 -2.0710
   20CHL1   C16 1427   1.952   4.883   6.062  0.3357 -0.1462 -0.2018
   20CHL1  H16A 1428   1.870   4.847   5.995  0.8911 -1.5737 -0.1478
   20CHL1  H16B 1429   2.009   4.967   6.017  0.2306 -0.3819 -0.7892
   20CHL1   C17 1430   2.044   4.761   6.096  0.5593 -0.2589  0.3256
   20CHL1   H17 1431   2.151   4.791   6.103  1.1310 -1.7336 -1.4090
   20CHL1   C13 1432   1.999   4.728   6.243 -0.0233 -0.0384  0.0990
   20CHL1   C18 1433   1.885   4.631   6.230 -0.8952  0.1627 -0.2453
   20CHL1  H18A 1434   1.831   4.645   6.326  0.4508  2.5906  0.2342
   20CHL1  H18B 1435   1.816   4.652   6.145  0.1015  0.8757 -0.9149
   20CHL1  H18C 1436   1.920   4.527   6.213  1.1250  0.8705 -0.7395
   20CHL1   C12 1437   2.108   4.684   6.341 -0.2422 -0.3863  0.2246
   20CHL1  H12A 1438   2.158   4.590   6.309  1.5146 -0.1786  2.1322
   20CHL1  H12B 1439   2.185   4.762   6.329 -0.6496  0.0785  0.5891
   20CHL1   C11 1440   2.052   4.665   6.486  0.1088  0.1737  0.0125
   20CHL1  H11A 1441   1.980   4.580   6.477  1.0667 -0.5882 -0.6008
   20CHL1  H11B 1442   2.134   4.634   6.554 -0.3966  0.2138  0.6520
   20CHL1    C9 1443   1.981   4.792   6.536  0.3430  0.2213 -0.0289
   20CHL1    H9 1444   2.065   4.865   6.550  0.8641  0.6376 -3.9905
   20CHL1   C10 1445   1.918   4.782   6.682 -0.3537  0.6162  0.4907
   20CHL1   C19 1446   1.799   4.688   6.696 -0.2045 -0.0925  0.2369
   20CHL1  H19A 1447   1.707   4.717   6.641 -0.9524 -2.2776  0.2208
   20CHL1  H19B 1448   1.825   4.591   6.649 -1.6820  0.1969 -1.2955
   20CHL1  H19C 1449   1.773   4.670   6.803 -1.2722  1.4293  0.2534
   20CHL1    C1 1450   2.036   4.739   6.776 -0.5707 -0.1970  0.3195
   20CHL1   H1A 1451   2.065   4.637   6.744  1.9052  0.0449  1.5823
   20CHL1   H1B 1452   2.125   4.806   6.774 -1.1052  0.7341  3.0689
   20CHL1    C2 1453   2.003   4.744   6.929 -0.2319  0.1612  0.6743
   20CHL1   H2A 1454   2.099   4.736   6.986 -0.4058  0.4707  1.0093
   20CHL1   H2B 1455   1.933   4.661   6.953  0.5255 -0.6321  0.2367
   20CHL1   C20 1456   2.047   4.666   5.969  0.6551  0.5710 -1.1342
   20CHL1   H20 1457   1.947   4.622   5.946  1.5844 -0.8905 -2.6181
   20CHL1   C21 1458   2.137   4.548   6.006 -0.5510 -0.8966 -0.3790
   20CHL1  H21A 1459   2.237   4.583   6.037 -0.6915 -1.1544  0.4094
   20CHL1  H21B 1460   2.143   4.482   5.917 -0.8798  1.9238 -2.6101
   20CHL1  H21C 1461   2.099   4.486   6.091 -1.3343  0.6464  0.4299
   20CHL1   C22 1462   2.093   4.737   5.844  0.0994  0.1240  0.0571
   20CHL1  H22A 1463   2.041   4.834   5.831  0.4079  0.1126 -1.5574
   20CHL1  H22B 1464   2.196   4.775   5.863 -0.1462 -0.9038  4.3390
   20CHL1   C23 1465   2.082   4.666   5.714 -0.0975  0.4969 -0.5619
   20CHL1  H23A 1466   2.138   4.570   5.720  2.3072  1.8525  0.4804
   20CHL1  H23B 1467   1.981   4.621   5.718 -0.8294  1.9485  4.0051
   20CHL1   C24 1468   2.120   4.747   5.588  0.4147  0.3844 -1.0265
   20CHL1  H24A 1469   2.103   4.853   5.615  2.1283  0.1528  1.2246
   20CHL1  H24B 1470   2.229   4.752   5.569  0.9941 -0.5435  1.6493
   20CHL1   C25 1471   2.029   4.709   5.478 -0.6581  0.1081  0.6157
   20CHL1   H25 1472   1.923   4.713   5.513 -0.0171  1.2682  2.6051
   20CHL1   C26 1473   2.032   4.807   5.354  0.2767  0.4457 -0.9925
   20CHL1  H26A 1474   2.034   4.911   5.395  0.2721  0.9860 -2.3062
   20CHL1  H26B 1475   2.129   4.789   5.304  1.5984 -2.1166  2.1180
   20CHL1  H26C 1476   1.943   4.790   5.290 -0.2410 -2.0649  0.2837
   20CHL1   C27 1477   2.061   4.566   5.433  0.4729 -0.1530 -0.7267
   20CHL1  H27A 1478   2.082   4.504   5.524 -1.3417  1.8323  1.1624
   20CHL1  H27B 1479   1.973   4.536   5.372 -2.2274  1.7825  1.9073
   20CHL1  H27C 1480   2.145   4.559   5.361 -0.8902 -1.5108 -2.2612
   21CHL1    C3 1481   1.107   4.782   7.177  0.4122  0.1110 -0.4000
   21CHL1    H3 1482   1.209   4.818   7.150  0.4112 -0.3388 -1.0151
   21CHL1    O3 1483   1.129   4.748   7.313  0.4122 -0.0509 -0.4740
   21CHL1   H3' 1484   1.041   4.744   7.351 -0.0072  0.1029 -1.3958
   21CHL1    C4 1485   0.999   4.896   7.157 -0.0430 -0.8585  0.1313
   21CHL1   H4A 1486   0.897   4.872   7.192 -1.1870  1.5523 -1.2731
   21CHL1   H4B 1487   1.025   4.986   7.218 -0.0993  0.1238 -1.2507
   21CHL1    C5 1488   0.970   4.932   7.016 -0.4932 -0.6526  0.1924
   21CHL1    C6 1489   0.967   5.059   6.970 -0.2028 -0.1640  0.6368
   21CHL1    H6 1490   0.991   5.144   7.036 -0.8585  0.5533 -0.0179
   21CHL1    C7 1491   0.946   5.099   6.826  0.0888 -0.5154  0.1828
   21CHL1   H7A 1492   0.862   5.171   6.815  1.0377  0.3049 -2.2746
   21CHL1   H7B 1493   1.032   5.153   6.783  0.4746  0.2847  1.8840
   21CHL1    C8 1494   0.914   4.976   6.734 -0.3341 -0.2918  0.4896
   21CHL1    H8 1495   0.805   4.958   6.742 -0.7110  1.9087  1.1194
   21CHL1   C14 1496   0.947   5.010   6.585 -0.1114  0.7546 -0.1071
   21CHL1   H14 1497   1.058   5.021   6.588  0.2405 -2.2219  1.2367
   21CHL1   C15 1498   0.886   5.132   6.524 -0.4095  0.2546  0.5290
   21CHL1  H15A 1499   0.785   5.150   6.569 -1.2351 -1.4475 -0.5742
   21CHL1  H15B 1500   0.951   5.220   6.543  0.7493 -0.9812  2.6503
   21CHL1   C16 1501   0.893   5.108   6.372  0.9005 -0.4179  0.3521
   21CHL1  H16A 1502   0.790   5.115   6.330 -0.3188  0.5725  3.2039
   21CHL1  H16B 1503   0.961   5.177   6.318 -0.5933  0.0086 -1.0796
   21CHL1   C17 1504   0.958   4.967   6.354 -0.2650 -0.3932 -0.7093
   21CHL1   H17 1505   1.068   4.985   6.356 -0.5011  1.0886 -0.0046
   21CHL1   C13 1506   0.920   4.897   6.482  0.1085 -0.3307 -0.7083
   21CHL1   C18 1507   0.772   4.859   6.474  0.2836  0.2108  0.0482
   21CHL1  H18A 1508   0.752   4.766   6.416 -2.2026 -0.0886  1.2660
   21CHL1  H18B 1509   0.727   4.842   6.574 -0.1555 -2.6811 -0.5423
   21CHL1  H18C 1510   0.702   4.933   6.430  0.1782  0.6865  1.0110
   21CHL1   C12 1511   1.010   4.780   6.527 -0.2769  1.5093  0.3313
   21CHL1  H12A 1512   0.987   4.707   6.447  1.7533  0.8694  0.2887
   21CHL1  H12B 1513   1.108   4.831   6.519  0.6044 -0.1427  0.4175
   21CHL1   C11 1514   0.979   4.735   6.671 -0.6911 -0.7991  0.0812
   21CHL1  H11A 1515   0.873   4.701   6.675 -0.4882 -1.4017  0.4414
   21CHL1  H11B 1516   1.043   4.646   6.687  2.2333  0.9541 -1.1335
   21CHL1    C9 1517   0.996   4.854   6.776 -0.8680  0.1027 -0.4390
   21CHL1    H9 1518   1.103   4.886   6.774 -0.1648 -2.0606  0.2226
   21CHL1   C10 1519   0.967   4.810   6.922  0.9365  1.1492 -0.4624
   21CHL1   C19 1520   0.822   4.748   6.943  0.4631  1.1710  0.3219
   21CHL1  H19A 1521   0.801   4.664   6.873 -1.9121  0.2529  1.9832
   21CHL1  H19B 1522   0.792   4.701   7.039 -1.2603  1.6050  0.0347
   21CHL1  H19C 1523   0.744   4.825   6.925  0.3378  2.0427  3.8799
   21CHL1    C1 1524   1.070   4.694   6.949  0.2888  0.5955 -0.1848
   21CHL1   H1A 1525   1.026   4.603   6.902  2.2508  0.9935 -2.9885
   21CHL1   H1B 1526   1.164   4.717   6.895 -0.2626 -0.8941 -1.8695
   21CHL1    C2 1527   1.080   4.656   7.098 -0.0015 -0.3885 -0.1357
   21CHL1   H2A 1528   1.165   4.586   7.113  0.8697  0.4567 -1.0004
   21CHL1   H2B 1529   0.981   4.620   7.134 -0.7359 -0.4735 -2.1206
   21CHL1   C20 1530   0.934   4.887   6.223  0.1115  0.0488 -0.7251
   21CHL1   H20 1531   0.845   4.822   6.238  0.8451 -0.4940  1.6776
   21CHL1   C21 1532   1.060   4.794   6.197 -0.6623 -0.4072  1.0822
   21CHL1  H21A 1533   1.100   4.741   6.286  0.6039 -1.9560 -0.3472
   21CHL1  H21B 1534   1.140   4.861   6.159  1.5628 -3.7442 -0.6564
   21CHL1  H21C 1535   1.050   4.722   6.113 -0.3069  1.3869 -0.5799
   21CHL1   C22 1536   0.907   4.979   6.109 -0.1685 -0.8854 -0.3317
   21CHL1  H22A 1537   0.818   5.040   6.135  1.0016  1.0943 -0.7485
   21CHL1  H22B 1538   0.994   5.045   6.088  0.2221 -2.0843 -2.7715
   21CHL1   C23 1539   0.880   4.903   5.973 -0.4834 -0.1960 -0.6473
   21CHL1  H23A 1540   0.830   4.808   6.003 -0.2789  1.1137  5.1411
   21CHL1  H23B 1541   0.812   4.975   5.922 -0.3717 -0.2583 -0.8818
   21CHL1   C24 1542   0.994   4.873   5.878  0.2307 -0.3840 -0.2008
   21CHL1  H24A 1543   1.064   4.959   5.888 -0.0452 -0.3703  2.0610
   21CHL1  H24B 1544   1.055   4.786   5.908  1.3394  0.6002  0.5101
   21CHL1   C25 1545   0.940   4.857   5.733 -0.4857  0.3764 -1.4565
   21CHL1   H25 1546   0.883   4.946   5.697 -2.4594  0.0116  0.4981
   21CHL1   C26 1547   1.060   4.832   5.644  0.0220 -0.0595  0.5412
   21CHL1  H26A 1548   1.021   4.797   5.545  1.8359 -1.2156  0.1953
   21CHL1  H26B 1549   1.112   4.927   5.617 -0.2902  0.2935  1.1702
   21CHL1  H26C 1550   1.123   4.752   5.688 -1.4133 -1.0065  0.9590
   21CHL1   C27 1551   0.842   4.737   5.719 -0.2190 -0.1107 -0.3848
   21CHL1  H27A 1552   0.892   4.643   5.750 -0.0113 -0.4113 -1.5550
   21CHL1  H27B 1553   0.754   4.761   5.783  0.0031  3.3371 -1.1766
   21CHL1  H27C 1554   0.813   4.736   5.611 -0.4341 -0.2379 -0.3261
   22CHL1    C3 1555   2.246   1.850   7.235 -0.0864 -0.0378 -0.6440
   22CHL1    H3 1556   2.141   1.852   7.200 -0.4868  0.8957  0.5358
   22CHL1    O3 1557   2.266   1.881   7.374  0.4779 -0.3027 -0.2514
   22CHL1   H3' 1558   2.359   1.872   7.396  0.4544 -1.6222 -0.6026
   22CHL1    C4 1559   2.319   1.717   7.204 -0.3870 -0.2611  0.0924
   22CHL1   H4A 1560   2.422   1.729   7.243 -0.0327  0.1893 -0.9279
   22CHL1   H4B 1561   2.275   1.638   7.268  1.9766 -0.1591  1.9266
   22CHL1    C5 1562   2.315   1.684   7.056 -0.1582 -0.1679 -0.2573
   22CHL1    C6 1563   2.259   1.572   7.003 -1.0607 -0.1480 -0.1368
   22CHL1    H6 1564   2.204   1.509   7.075 -1.2116  1.0227  0.8036
   22CHL1    C7 1565   2.240   1.536   6.858 -0.2421  0.2413  0.8516
   22CHL1   H7A 1566   2.260   1.432   6.825  0.5689  0.1886  1.5015
   22CHL1   H7B 1567   2.136   1.555   6.822  0.0816 -2.5295 -1.9958
   22CHL1    C8 1568   2.334   1.633   6.770 -0.8513 -0.2641  0.0646
   22CHL1    H8 1569   2.438   1.594   6.780  0.6856  3.6738  1.2750
   22CHL1   C14 1570   2.308   1.627   6.617  0.7369  0.6756 -0.1919
   22CHL1   H14 1571   2.209   1.675   6.601 -0.5705 -2.2074 -1.4067
   22CHL1   C15 1572   2.302   1.492   6.550 -0.7333 -0.2628  0.3794
   22CHL1  H15A 1573   2.391   1.434   6.584 -0.8497  0.3677  1.8556
   22CHL1  H15B 1574   2.217   1.423   6.570  1.5482 -4.2667 -2.3655
   22CHL1   C16 1575   2.318   1.524   6.398  0.1104 -0.2315  0.2027
   22CHL1  H16A 1576   2.404   1.469   6.353 -1.6539 -1.8694 -1.3300
   22CHL1  H16B 1577   2.228   1.495   6.340 -0.8706 -0.5529  1.8393
   22CHL1   C17 1578   2.343   1.677   6.397 -0.0182 -0.2031  0.6490
   22CHL1   H17 1579   2.244   1.726   6.392  0.5462  0.8555 -0.5544
   22CHL1   C13 1580   2.407   1.704   6.537 -0.0451 -0.5383 -0.2588
   22CHL1   C18 1581   2.548   1.645   6.536  0.5835  0.5986  0.0531
   22CHL1  H18A 1582   2.614   1.712   6.476  0.6274 -0.4048 -1.0414
   22CHL1  H18B 1583   2.591   1.659   6.638  2.1512 -0.3152 -0.4559
   22CHL1  H18C 1584   2.557   1.538   6.509  0.8787  0.3300  1.1415
   22CHL1   C12 1585   2.413   1.853   6.577  0.3791  0.1144  0.0641
   22CHL1  H12A 1586   2.497   1.905   6.525  0.7237  0.1276  0.6346
   22CHL1  H12B 1587   2.320   1.896   6.534  1.0995 -0.3604 -2.1536
   22CHL1   C11 1588   2.434   1.869   6.733  0.1462  0.3868 -0.0506
   22CHL1  H11A 1589   2.539   1.835   6.742 -0.1150 -0.9634 -1.5928
   22CHL1  H11B 1590   2.424   1.977   6.758  2.2840  0.6280 -0.0629
   22CHL1    C9 1591   2.338   1.781   6.819  0.7176  0.0458 -0.1352
   22CHL1    H9 1592   2.231   1.811   6.806 -0.2796 -2.5371  1.3115
   22CHL1   C10 1593   2.378   1.798   6.976 -0.2767 -0.2131  0.3167
   22CHL1   C19 1594   2.533   1.798   6.988  0.6399  0.1344 -0.6249
   22CHL1  H19A 1595   2.566   1.819   7.091 -0.1466 -0.6503 -0.1996
   22CHL1  H19B 1596   2.574   1.702   6.950  3.1601  0.2646  1.5293
   22CHL1  H19C 1597   2.578   1.877   6.924  1.1710 -0.2388 -0.7207
   22CHL1    C1 1598   2.309   1.932   7.006  0.3605  0.3069 -0.1600
   22CHL1   H1A 1599   2.345   2.024   6.956 -0.6850  2.0828  2.1320
   22CHL1   H1B 1600   2.200   1.925   6.983  0.5064  0.8897 -1.0817
   22CHL1    C2 1601   2.313   1.969   7.157  0.5099 -0.8804 -0.2042
   22CHL1   H2A 1602   2.258   2.060   7.191 -2.3193 -2.7773  0.6276
   22CHL1   H2B 1603   2.419   1.964   7.191  0.8153  0.1680 -0.9379
   22CHL1   C20 1604   2.422   1.721   6.270  0.5481 -0.0880  0.0466
   22CHL1   H20 1605   2.521   1.671   6.266  1.5620  1.7929  0.0058
   22CHL1   C21 1606   2.441   1.876   6.255  0.6930 -0.0057  0.3180
   22CHL1  H21A 1607   2.344   1.931   6.254  2.1822  2.7763  0.5181
   22CHL1  H21B 1608   2.503   1.907   6.168 -0.0547 -0.5776 -0.4366
   22CHL1  H21C 1609   2.496   1.924   6.338  1.8186 -2.7780  1.2817
   22CHL1   C22 1610   2.354   1.675   6.131 -0.0480 -0.2494  0.1202
   22CHL1  H22A 1611   2.321   1.572   6.154  1.0500 -0.8848 -1.0035
   22CHL1  H22B 1612   2.258   1.728   6.117  0.0984  0.1477  0.5948
   22CHL1   C23 1613   2.438   1.686   6.000 -0.2065 -0.2718  0.4879
   22CHL1  H23A 1614   2.373   1.676   5.910  0.3299 -1.0599  0.1705
   22CHL1  H23B 1615   2.482   1.786   6.020  0.3644 -0.9978  3.2879
   22CHL1   C24 1616   2.548   1.582   5.985  0.4021 -0.2099 -0.3622
   22CHL1  H24A 1617   2.622   1.614   6.060  0.3289 -1.3806  0.2390
   22CHL1  H24B 1618   2.504   1.485   6.018 -2.1487  0.2282 -2.1572
   22CHL1   C25 1619   2.607   1.575   5.848  0.1991 -1.0211 -0.2789
   22CHL1   H25 1620   2.523   1.541   5.784 -0.5209  0.4427 -0.1567
   22CHL1   C26 1621   2.654   1.714   5.790  0.4877  0.3900 -1.0922
   22CHL1  H26A 1622   2.563   1.772   5.762  0.6901  1.8445  1.0535
   22CHL1  H26B 1623   2.717   1.767   5.864  0.3707  1.4801 -1.7373
   22CHL1  H26C 1624   2.712   1.708   5.695 -1.2172 -1.4852 -2.1025
   22CHL1   C27 1625   2.725   1.492   5.835  0.3939  0.2569  0.9070
   22CHL1  H27A 1626   2.765   1.496   5.732 -0.9613  0.9982  0.3798
   22CHL1  H27B 1627   2.801   1.531   5.906 -0.6525  1.8188  1.2143
   22CHL1  H27C 1628   2.699   1.388   5.866 -1.6314  0.3797 -0.1807
   23CHL1    C3 1629   1.100   5.560   7.104  0.0255 -0.3790 -0.3569
   23CHL1    H3 1630   1.017   5.490   7.081  0.2302 -1.1530  1.1547
   23CHL1    O3 1631   1.124   5.587   7.242  0.0626 -0.1608 -0.6432
   23CHL1   H3' 1632   1.178   5.666   7.235 -1.4640  0.9256 -0.5981
   23CHL1    C4 1633   1.227   5.520   7.026  0.7023 -0.1364 -0.3492
   23CHL1   H4A 1634   1.304   5.591   7.062 -0.9117  1.4814  0.1144
   23CHL1   H4B 1635   1.263   5.429   7.078 -2.3673  0.7802  4.0243
   23CHL1    C5 1636   1.215   5.512   6.875 -0.0965  0.1108  0.4135
   23CHL1    C6 1637   1.241   5.405   6.799 -0.8139  0.4781  0.0690
   23CHL1    H6 1638   1.277   5.312   6.846  0.2409 -0.4141 -2.3187
   23CHL1    C7 1639   1.232   5.406   6.650 -0.1379 -0.1834  0.0224
   23CHL1   H7A 1640   1.327   5.359   6.614 -1.1569 -1.7559 -0.7104
   23CHL1   H7B 1641   1.139   5.355   6.617 -0.6629 -0.3142  1.6518
   23CHL1    C8 1642   1.229   5.548   6.588  0.3451 -0.2758 -0.2566
   23CHL1    H8 1643   1.330   5.594   6.599  0.1276  1.1501 -3.2358
   23CHL1   C14 1644   1.201   5.538   6.435  0.1549 -0.0928  0.2637
   23CHL1   H14 1645   1.103   5.488   6.440 -0.1156  0.4533  0.6434
   23CHL1   C15 1646   1.296   5.462   6.342  0.2119  0.1454  0.8982
   23CHL1  H15A 1647   1.401   5.489   6.365  0.7414  1.0451 -2.1042
   23CHL1  H15B 1648   1.278   5.355   6.360  1.2408  0.2164  2.5138
   23CHL1   C16 1649   1.268   5.507   6.199 -0.0235  0.1028 -0.0665
   23CHL1  H16A 1650   1.368   5.542   6.165  1.3392 -0.3082  3.1579
   23CHL1  H16B 1651   1.233   5.417   6.144  0.2515  0.1948 -0.3978
   23CHL1   C17 1652   1.168   5.620   6.220  0.1474  0.0632  0.0838
   23CHL1   H17 1653   1.066   5.577   6.213  0.3189 -0.4386  0.5920
   23CHL1   C13 1654   1.186   5.666   6.364  0.5670 -0.3030 -0.3336
   23CHL1   C18 1655   1.317   5.757   6.364 -0.0865 -0.3345 -0.1854
   23CHL1  H18A 1656   1.394   5.719   6.293 -2.0522 -4.5412 -0.3645
   23CHL1  H18B 1657   1.286   5.853   6.317 -0.3119  0.4646  1.5086
   23CHL1  H18C 1658   1.355   5.769   6.468 -0.2386  2.7324 -0.3763
   23CHL1   C12 1659   1.075   5.751   6.434 -0.4776 -0.6121  0.4438
   23CHL1  H12A 1660   1.064   5.846   6.379  1.9418 -0.7741 -0.4462
   23CHL1  H12B 1661   0.978   5.698   6.424 -0.1077 -1.0699 -0.9330
   23CHL1   C11 1662   1.107   5.770   6.580 -0.1990  0.1599 -0.4990
   23CHL1  H11A 1663   1.200   5.830   6.589  0.0544 -0.1342 -1.0684
   23CHL1  H11B 1664   1.031   5.833   6.629  0.8833  0.7632  0.4482
   23CHL1    C9 1665   1.132   5.640   6.659 -0.0147  0.2967  0.0556
   23CHL1    H9 1666   1.037   5.583   6.648  0.2565 -0.5128  1.5780
   23CHL1   C10 1667   1.171   5.644   6.814 -0.4751 -0.4463 -0.7865
   23CHL1   C19 1668   1.277   5.751   6.826 -0.3156  0.3058  0.0599
   23CHL1  H19A 1669   1.256   5.855   6.791 -0.7422  0.0924 -0.3219
   23CHL1  H19B 1670   1.290   5.768   6.935 -0.2499 -0.5316  0.1861
   23CHL1  H19C 1671   1.376   5.711   6.797 -0.6242 -0.1397 -0.3837
   23CHL1    C1 1672   1.027   5.675   6.879 -0.5442  0.6083 -0.0807
   23CHL1   H1A 1673   0.991   5.773   6.841 -0.0048  1.4141  1.3645
   23CHL1   H1B 1674   0.955   5.601   6.840  1.2749  0.2634 -3.0550
   23CHL1    C2 1675   1.043   5.688   7.031  0.2306  0.0321 -0.0428
   23CHL1   H2A 1676   0.946   5.721   7.075  0.8446 -1.1340  2.4199
   23CHL1   H2B 1677   1.109   5.771   7.062  1.8289 -1.4792  0.7688
   23CHL1   C20 1678   1.182   5.716   6.103  0.3094  0.1453  1.1527
   23CHL1   H20 1679   1.280   5.769   6.099 -0.6680  2.2872  3.1311
   23CHL1   C21 1680   1.084   5.835   6.120 -1.0547 -0.3586  0.4823
   23CHL1  H21A 1681   0.985   5.791   6.143 -1.8687  0.7847 -0.6538
   23CHL1  H21B 1682   1.081   5.905   6.033  0.0887  0.5780  1.1621
   23CHL1  H21C 1683   1.119   5.904   6.200 -1.0392 -1.1625  1.1832
   23CHL1   C22 1684   1.147   5.641   5.974  0.1426 -0.3390 -0.2114
   23CHL1  H22A 1685   1.229   5.567   5.960  0.4759 -0.8746  3.5700
   23CHL1  H22B 1686   1.051   5.586   5.975  0.1389 -0.3505 -0.7761
   23CHL1   C23 1687   1.138   5.729   5.847 -0.9872 -0.6824  0.2377
   23CHL1  H23A 1688   1.116   5.661   5.763  0.6485  0.3758 -1.1215
   23CHL1  H23B 1689   1.061   5.809   5.845  0.6817  0.9851 -0.6594
   23CHL1   C24 1690   1.272   5.797   5.825 -0.1821  0.6726 -0.5004
   23CHL1  H24A 1691   1.295   5.875   5.901 -1.4589  1.8555 -1.2669
   23CHL1  H24B 1692   1.353   5.722   5.820 -0.1458  0.7106 -0.4823
   23CHL1   C25 1693   1.294   5.858   5.682  0.3019 -0.5333 -0.1362
   23CHL1   H25 1694   1.394   5.905   5.690  0.8957 -1.7712 -0.0648
   23CHL1   C26 1695   1.302   5.745   5.580  0.2440 -0.9456  0.0342
   23CHL1  H26A 1696   1.359   5.659   5.621  1.0220  0.4294  1.9876
   23CHL1  H26B 1697   1.194   5.730   5.558  0.1619 -0.4943  0.1216
   23CHL1  H26C 1698   1.350   5.786   5.488  1.6095  0.8605  1.4831
   23CHL1   C27 1699   1.182   5.955   5.652 -0.2376 -0.2535  0.6268
   23CHL1  H27A 1700   1.168   6.023   5.739  0.9360 -1.2204  1.6149
   23CHL1  H27B 1701   1.209   6.015   5.562 -2.8472 -0.3411 -0.2992
   23CHL1  H27C 1702   1.090   5.902   5.620 -0.0502 -0.3868  0.3035
   24CHL1    C3 1703   4.137   2.674   7.012  0.4595  0.7369  0.3778
   24CHL1    H3 1704   4.158   2.565   7.019  1.1104  0.9308  2.1135
   24CHL1    O3 1705   4.118   2.714   7.141  0.1421  0.6848 -0.3301
   24CHL1   H3' 1706   4.099   2.808   7.133  0.2702  0.6972 -0.4981
   24CHL1    C4 1707   4.255   2.738   6.954  0.4801 -0.4840  0.3196
   24CHL1   H4A 1708   4.250   2.848   6.967  0.8648 -0.7818  3.8093
   24CHL1   H4B 1709   4.339   2.698   7.015  1.4294  0.9392 -0.0190
   24CHL1    C5 1710   4.283   2.717   6.803 -0.1121  1.1393 -1.4154
   24CHL1    C6 1711   4.397   2.670   6.753  0.4327  0.5073 -0.5793
   24CHL1    H6 1712   4.483   2.664   6.821  0.1980  0.7555 -0.2511
   24CHL1    C7 1713   4.422   2.647   6.611 -0.4305  0.2624 -0.0552
   24CHL1   H7A 1714   4.524   2.679   6.582  0.7680  1.8081  4.9345
   24CHL1   H7B 1715   4.419   2.537   6.601 -0.4187  0.2955 -0.4636
   24CHL1    C8 1716   4.311   2.712   6.522  0.1844 -0.1615  0.6589
   24CHL1    H8 1717   4.329   2.822   6.526 -2.2933  0.4574 -1.6981
   24CHL1   C14 1718   4.314   2.666   6.374 -0.1473 -0.6464  0.2397
   24CHL1   H14 1719   4.312   2.555   6.368  0.4129 -0.5752 -3.2060
   24CHL1   C15 1720   4.446   2.688   6.290 -0.2477 -0.4991 -0.2242
   24CHL1  H15A 1721   4.486   2.789   6.316 -1.3060 -0.6596  2.3245
   24CHL1  H15B 1722   4.522   2.613   6.320 -1.2168 -0.7639  1.7335
   24CHL1   C16 1723   4.403   2.678   6.143  0.4257 -0.2590  0.2100
   24CHL1  H16A 1724   4.427   2.782   6.111 -0.5631 -0.2322 -0.4912
   24CHL1  H16B 1725   4.464   2.603   6.090  0.6369 -0.5479  0.8455
   24CHL1   C17 1726   4.247   2.666   6.137 -0.0657 -0.0443  0.4495
   24CHL1   H17 1727   4.218   2.559   6.132 -0.3214  0.0528 -0.2804
   24CHL1   C13 1728   4.199   2.713   6.284 -0.0855  0.2277  0.5695
   24CHL1   C18 1729   4.201   2.867   6.289 -0.5703  0.0481 -0.0393
   24CHL1  H18A 1730   4.129   2.903   6.212 -0.7347  4.0378  1.7334
   24CHL1  H18B 1731   4.175   2.913   6.387 -0.2418  3.1256 -1.2808
   24CHL1  H18C 1732   4.293   2.914   6.248 -1.0891  0.9569 -0.1998
   24CHL1   C12 1733   4.064   2.651   6.339 -0.6296 -0.3926  0.2072
   24CHL1  H12A 1734   3.981   2.682   6.272 -1.6585 -1.4513  0.9429
   24CHL1  H12B 1735   4.083   2.542   6.330 -0.6471 -0.3200 -0.7597
   24CHL1   C11 1736   4.044   2.695   6.485 -0.3117  0.3285  0.2697
   24CHL1  H11A 1737   3.997   2.796   6.487 -0.1669  0.4009  0.0633
   24CHL1  H11B 1738   3.959   2.627   6.509  1.6230 -1.0856  4.0066
   24CHL1    C9 1739   4.167   2.677   6.579  0.2718 -0.5613  0.1263
   24CHL1    H9 1740   4.182   2.567   6.580 -1.8694 -0.8957  0.1076
   24CHL1   C10 1741   4.156   2.737   6.718 -0.4101  0.2326 -0.0478
   24CHL1   C19 1742   4.133   2.883   6.706 -0.2734 -0.5396  0.0986
   24CHL1  H19A 1743   4.120   2.944   6.798 -0.2846  2.5523 -1.8344
   24CHL1  H19B 1744   4.210   2.934   6.645 -2.1556 -0.8950 -2.7713
   24CHL1  H19C 1745   4.044   2.905   6.643  0.3767  0.0870 -0.6132
   24CHL1    C1 1746   4.034   2.667   6.785 -0.1780 -0.1528  0.2353
   24CHL1   H1A 1747   3.944   2.696   6.726 -0.1908  1.1811  0.8861
   24CHL1   H1B 1748   4.024   2.556   6.790 -1.2239 -0.1246 -0.7149
   24CHL1    C2 1749   4.014   2.698   6.931 -0.1786  0.3939 -0.4985
   24CHL1   H2A 1750   3.936   2.629   6.971  0.7538 -0.6554 -0.4528
   24CHL1   H2B 1751   3.989   2.805   6.944  2.5139  1.0588 -0.2382
   24CHL1   C20 1752   4.187   2.733   6.012  0.5198 -0.1719 -0.1774
   24CHL1   H20 1753   4.237   2.832   6.009  0.2727 -0.0348  0.1143
   24CHL1   C21 1754   4.031   2.745   6.022  0.2301  0.0543 -0.1894
   24CHL1  H21A 1755   3.989   2.645   6.046 -2.6403  1.0357 -0.7698
   24CHL1  H21B 1756   3.993   2.763   5.920  0.1390 -2.8751 -0.7600
   24CHL1  H21C 1757   3.994   2.835   6.077 -0.2051  0.2831 -0.8523
   24CHL1   C22 1758   4.223   2.660   5.884 -0.0843  0.5633  0.0178
   24CHL1  H22A 1759   4.329   2.627   5.885  0.0970  1.0939 -0.6360
   24CHL1  H22B 1760   4.160   2.569   5.872 -0.2492  0.5528  0.9138
   24CHL1   C23 1761   4.216   2.749   5.758 -0.3141  0.6550 -0.0198
   24CHL1  H23A 1762   4.106   2.763   5.751 -0.3245  1.4451  1.4827
   24CHL1  H23B 1763   4.270   2.843   5.781  0.2487  0.6118 -1.1000
   24CHL1   C24 1764   4.275   2.688   5.630  1.2809 -0.4629 -0.4835
   24CHL1  H24A 1765   4.380   2.657   5.652  0.5431 -1.9126  1.2918
   24CHL1  H24B 1766   4.206   2.602   5.618 -0.0345  0.2280  1.6419
   24CHL1   C25 1767   4.276   2.790   5.513 -0.1731  0.8844 -0.5370
   24CHL1   H25 1768   4.367   2.848   5.537 -0.1932  0.2267  1.2698
   24CHL1   C26 1769   4.307   2.719   5.375 -0.6598 -0.3099 -0.4210
   24CHL1  H26A 1770   4.392   2.648   5.385 -0.0540  0.3171 -1.0356
   24CHL1  H26B 1771   4.217   2.655   5.361 -2.6864  2.4906 -1.1100
   24CHL1  H26C 1772   4.321   2.789   5.290 -0.6617 -0.8560 -0.8794
   24CHL1   C27 1773   4.150   2.876   5.510 -0.6147 -0.8689 -0.0195
   24CHL1  H27A 1774   4.062   2.808   5.511 -1.2543 -0.0599  0.1073
   24CHL1  H27B 1775   4.141   2.952   5.591  0.6603 -0.8035  0.0741
   24CHL1  H27C 1776   4.144   2.935   5.416 -1.5874  3.2264  2.3623
   25CHL1    C3 1777   6.129   3.807   7.397 -0.1977  0.3760  0.3969
   25CHL1    H3 1778   6.026   3.834   7.366 -0.9639  0.2014  2.6204
   25CHL1    O3 1779   6.117   3.790   7.534 -0.0867 -0.1742 -0.3889
   25CHL1   H3' 1780   6.061   3.716   7.559 -0.9674  0.6046  0.0219
   25CHL1    C4 1781   6.187   3.676   7.332 -0.3990  0.1730  0.7091
   25CHL1   H4A 1782   6.272   3.645   7.396  0.2402 -0.1223 -0.2669
   25CHL1   H4B 1783   6.107   3.601   7.348 -0.9527 -0.3725 -3.4267
   25CHL1    C5 1784   6.222   3.698   7.188 -0.0961 -0.6879  0.4961
   25CHL1    C6 1785   6.170   3.623   7.094 -0.5807 -0.1106 -0.1958
   25CHL1    H6 1786   6.098   3.547   7.130  0.1941 -1.7173 -1.8689
   25CHL1    C7 1787   6.209   3.621   6.947 -0.8051  0.2687  0.2123
   25CHL1   H7A 1788   6.228   3.516   6.915  2.1270  0.3218  1.4900
   25CHL1   H7B 1789   6.125   3.637   6.876  0.2263  0.2299 -1.0556
   25CHL1    C8 1790   6.331   3.715   6.915  0.3811  0.5840  0.9329
   25CHL1    H8 1791   6.425   3.658   6.926  0.9684  0.7286 -2.2106
   25CHL1   C14 1792   6.327   3.749   6.764  0.1478 -0.1900 -0.0969
   25CHL1   H14 1793   6.233   3.807   6.759  0.2548  0.1100  0.9719
   25CHL1   C15 1794   6.320   3.639   6.660  0.2094 -0.3305 -0.2349
   25CHL1  H15A 1795   6.393   3.559   6.683 -2.0750 -2.4857 -0.0432
   25CHL1  H15B 1796   6.222   3.587   6.656  0.3650 -0.6347 -0.1583
   25CHL1   C16 1797   6.356   3.703   6.533  0.6411  0.9846  0.0024
   25CHL1  H16A 1798   6.444   3.654   6.486  0.9746  0.9646  0.6260
   25CHL1  H16B 1799   6.290   3.716   6.445  1.7377  2.6831 -0.6146
   25CHL1   C17 1800   6.406   3.852   6.563  0.0521  0.0614  0.6425
   25CHL1   H17 1801   6.314   3.912   6.551  0.4743  0.9793  1.7707
   25CHL1   C13 1802   6.438   3.846   6.711 -0.0047  0.6482 -0.0764
   25CHL1   C18 1803   6.582   3.781   6.728  0.2822  0.1851 -0.3934
   25CHL1  H18A 1804   6.598   3.761   6.836  0.4965  0.9314 -0.2829
   25CHL1  H18B 1805   6.593   3.694   6.659  0.2904 -0.6004  0.5774
   25CHL1  H18C 1806   6.660   3.852   6.696 -0.3545 -0.0191 -2.5724
   25CHL1   C12 1807   6.422   3.980   6.801 -0.4385 -0.6139  0.3068
   25CHL1  H12A 1808   6.517   4.035   6.785  1.1082 -3.2111 -0.0981
   25CHL1  H12B 1809   6.329   4.039   6.792 -0.3910 -0.3471  1.4648
   25CHL1   C11 1810   6.436   3.940   6.956  0.4906  0.4074  0.0063
   25CHL1  H11A 1811   6.541   3.905   6.969  0.2696 -0.2386  0.1257
   25CHL1  H11B 1812   6.417   4.031   7.016 -0.7840  0.2896 -0.1942
   25CHL1    C9 1813   6.327   3.845   7.004 -0.0454 -0.5356  0.4661
   25CHL1    H9 1814   6.228   3.893   6.988 -0.0593 -0.8251 -0.3602
   25CHL1   C10 1815   6.320   3.818   7.161 -0.1896  0.2355 -0.4780
   25CHL1   C19 1816   6.455   3.783   7.221 -0.0181  0.3754 -0.6476
   25CHL1  H19A 1817   6.515   3.876   7.217  2.0131 -0.9035 -3.7236
   25CHL1  H19B 1818   6.449   3.748   7.326  1.8134 -2.0160 -1.2545
   25CHL1  H19C 1819   6.497   3.701   7.159 -1.1190  1.3094 -2.7506
   25CHL1    C1 1820   6.267   3.944   7.233  0.2715 -0.3414 -0.4405
   25CHL1   H1A 1821   6.344   4.020   7.209  0.3340 -1.0568 -2.7114
   25CHL1   H1B 1822   6.177   3.984   7.182  0.0595 -1.3225 -0.8641
   25CHL1    C2 1823   6.231   3.922   7.380 -0.2149 -0.6331  0.1646
   25CHL1   H2A 1824   6.206   4.016   7.434 -1.4188  0.1011 -1.5873
   25CHL1   H2B 1825   6.315   3.881   7.440 -1.8293 -0.6980  2.5272
   25CHL1   C20 1826   6.498   3.911   6.453 -0.2826  0.0767  0.0757
   25CHL1   H20 1827   6.597   3.865   6.474 -2.3534 -3.6388  3.0064
   25CHL1   C21 1828   6.500   4.061   6.481 -0.1528 -0.4871 -0.0019
   25CHL1  H21A 1829   6.535   4.073   6.586  0.4455 -0.5392 -0.1867
   25CHL1  H21B 1830   6.398   4.102   6.471 -1.2360 -2.3224  2.4121
   25CHL1  H21C 1831   6.557   4.117   6.403  2.2090 -0.9258  1.3088
   25CHL1   C22 1832   6.452   3.866   6.312 -1.1730  0.0502  0.5638
   25CHL1  H22A 1833   6.502   3.768   6.293 -1.4441 -0.1750  0.9834
   25CHL1  H22B 1834   6.342   3.857   6.300 -1.1286  0.7966 -0.5203
   25CHL1   C23 1835   6.508   3.949   6.194 -1.0455 -0.4404  0.5915
   25CHL1  H23A 1836   6.462   4.050   6.193  1.5104  0.8013  0.8355
   25CHL1  H23B 1837   6.618   3.964   6.202 -1.1149 -0.5514  1.8445
   25CHL1   C24 1838   6.473   3.882   6.063  0.9644 -0.2222 -0.4171
   25CHL1  H24A 1839   6.469   3.772   6.077  1.8059 -0.4012 -1.4493
   25CHL1  H24B 1840   6.367   3.911   6.044  0.7769  0.7236  1.7799
   25CHL1   C25 1841   6.557   3.915   5.930  0.1828  0.0049 -0.2105
   25CHL1   H25 1842   6.511   3.855   5.850  0.9524  0.8507 -1.3199
   25CHL1   C26 1843   6.535   4.061   5.900 -0.2878 -0.2255 -0.1368
   25CHL1  H26A 1844   6.586   4.121   5.978 -1.8595 -0.4651  1.1391
   25CHL1  H26B 1845   6.598   4.082   5.812  1.5749 -2.2665  0.6148
   25CHL1  H26C 1846   6.424   4.067   5.888 -0.2883 -1.5479 -1.1224
   25CHL1   C27 1847   6.705   3.874   5.937  0.2042 -0.3654 -0.0481
   25CHL1  H27A 1848   6.759   3.916   6.025 -2.4789  1.0738  1.0275
   25CHL1  H27B 1849   6.721   3.766   5.955  2.0151 -0.3523 -1.2937
   25CHL1  H27C 1850   6.763   3.906   5.847  0.2251  2.1548  0.7864
   26CHL1    C3 1851   6.403   2.661   7.239  0.8531  0.4029 -0.0340
   26CHL1    H3 1852   6.473   2.575   7.249  0.1427 -0.2434 -0.5129
   26CHL1    O3 1853   6.352   2.690   7.365 -0.4580 -0.6643 -0.1479
   26CHL1   H3' 1854   6.311   2.613   7.405  1.2488 -0.9479  1.2239
   26CHL1    C4 1855   6.486   2.774   7.189 -0.1255 -0.3978 -0.7742
   26CHL1   H4A 1856   6.421   2.863   7.188 -0.1275 -0.3752  0.1985
   26CHL1   H4B 1857   6.569   2.788   7.262 -1.6254  1.2193  0.6982
   26CHL1    C5 1858   6.538   2.762   7.051 -0.0390  0.2128  0.2372
   26CHL1    C6 1859   6.672   2.779   7.028  0.1333 -0.2257 -0.6726
   26CHL1    H6 1860   6.735   2.785   7.118  0.5934  0.0676 -1.0143
   26CHL1    C7 1861   6.733   2.778   6.891  0.1963 -0.7730 -0.1260
   26CHL1   H7A 1862   6.772   2.881   6.876  0.2306 -0.6653  0.6943
   26CHL1   H7B 1863   6.819   2.707   6.887 -1.9339 -3.4407 -2.0636
   26CHL1    C8 1864   6.626   2.766   6.778  0.2092  0.1724  0.2726
   26CHL1    H8 1865   6.585   2.865   6.748 -1.4857 -1.1024 -1.9039
   26CHL1   C14 1866   6.683   2.723   6.644  0.4474 -0.3223  1.0283
   26CHL1   H14 1867   6.712   2.616   6.648  0.2136 -0.4973 -0.9980
   26CHL1   C15 1868   6.814   2.788   6.596  0.0474 -0.1028  0.0455
   26CHL1  H15A 1869   6.799   2.897   6.587  0.3327  0.2218  2.7245
   26CHL1  H15B 1870   6.907   2.775   6.655 -0.0417 -0.6136  0.0821
   26CHL1   C16 1871   6.833   2.730   6.451 -0.0042  0.0406  0.0809
   26CHL1  H16A 1872   6.860   2.818   6.388 -2.1933 -0.6999 -2.0229
   26CHL1  H16B 1873   6.914   2.654   6.446  1.2140  1.3706 -1.7963
   26CHL1   C17 1874   6.690   2.667   6.409 -0.0745 -0.1204 -0.8628
   26CHL1   H17 1875   6.705   2.558   6.422  2.8350  0.0365 -2.0466
   26CHL1   C13 1876   6.588   2.708   6.522 -0.3034  0.1501 -0.0243
   26CHL1   C18 1877   6.524   2.844   6.478 -0.6879 -0.5854  0.9221
   26CHL1  H18A 1878   6.602   2.918   6.449  0.0607 -1.2428  1.2290
   26CHL1  H18B 1879   6.470   2.837   6.381  1.5384  3.6062 -0.9035
   26CHL1  H18C 1880   6.466   2.900   6.554 -1.2194 -0.2500  0.2757
   26CHL1   C12 1881   6.487   2.601   6.560  0.5535  0.0437 -0.0565
   26CHL1  H12A 1882   6.409   2.593   6.482  0.4370  1.1268 -0.0599
   26CHL1  H12B 1883   6.533   2.500   6.574 -0.9211 -0.5207  1.0227
   26CHL1   C11 1884   6.416   2.648   6.687  0.3521  0.2739  0.0992
   26CHL1  H11A 1885   6.355   2.738   6.661  2.0375  1.9848  1.7497
   26CHL1  H11B 1886   6.352   2.561   6.713  0.3194  0.0729 -0.6255
   26CHL1    C9 1887   6.509   2.677   6.811 -0.0024  0.2839 -0.0260
   26CHL1    H9 1888   6.557   2.579   6.831 -0.1428  0.0056 -1.0201
   26CHL1   C10 1889   6.432   2.724   6.941  0.2345 -0.6368 -0.8002
   26CHL1   C19 1890   6.350   2.854   6.903  0.0278  0.7893 -0.3894
   26CHL1  H19A 1891   6.259   2.823   6.846  0.8098  1.4506 -2.0736
   26CHL1  H19B 1892   6.297   2.900   6.989 -1.4214 -0.2813 -0.6588
   26CHL1  H19C 1893   6.412   2.928   6.848  1.8582 -0.7408 -0.4499
   26CHL1    C1 1894   6.333   2.605   6.994  0.4869 -0.7411 -0.2939
   26CHL1   H1A 1895   6.246   2.599   6.925 -0.8843 -3.2729  1.4842
   26CHL1   H1B 1896   6.376   2.503   6.999  0.5761 -0.7079 -0.3870
   26CHL1    C2 1897   6.294   2.620   7.140 -0.6665  0.4781  0.1331
   26CHL1   H2A 1898   6.239   2.530   7.175 -0.5657  0.9739  1.6294
   26CHL1   H2B 1899   6.229   2.710   7.145  0.6317  1.4418  0.2081
   26CHL1   C20 1900   6.647   2.686   6.262 -0.1376  0.1886 -0.0157
   26CHL1   H20 1901   6.633   2.795   6.247  1.2764  0.7196  2.0781
   26CHL1   C21 1902   6.523   2.602   6.231 -0.2334  0.3229  0.3381
   26CHL1  H21A 1903   6.530   2.498   6.269  0.9693  0.4987  0.6416
   26CHL1  H21B 1904   6.499   2.585   6.124  0.6620 -1.2614  0.3582
   26CHL1  H21C 1905   6.435   2.661   6.264 -1.2292 -0.0309 -1.5455
   26CHL1   C22 1906   6.762   2.651   6.167 -0.3856 -0.1751 -0.3809
   26CHL1  H22A 1907   6.723   2.665   6.063  1.9788  1.9450 -1.0794
   26CHL1  H22B 1908   6.853   2.712   6.186 -0.5735  0.0821 -0.3073
   26CHL1   C23 1909   6.826   2.509   6.188  0.3662 -0.2450  0.2065
   26CHL1  H23A 1910   6.865   2.500   6.292  1.8099  0.1488 -0.2773
   26CHL1  H23B 1911   6.746   2.434   6.170  1.8707 -1.5667 -1.3933
   26CHL1   C24 1912   6.939   2.476   6.086  0.0820  0.0244 -0.1610
   26CHL1  H24A 1913   7.017   2.553   6.103 -0.9995  0.6582  2.3721
   26CHL1  H24B 1914   6.977   2.374   6.104 -2.0607 -0.5492  1.4319
   26CHL1   C25 1915   6.890   2.480   5.939  0.2446 -0.5334  0.7114
   26CHL1   H25 1916   6.845   2.581   5.927 -1.0785 -0.8010  2.9227
   26CHL1   C26 1917   7.007   2.469   5.840 -0.6580  0.8014  0.4606
   26CHL1  H26A 1918   6.972   2.485   5.735  0.8123 -0.7990 -0.3315
   26CHL1  H26B 1919   7.098   2.530   5.856  1.9474 -2.6709 -0.1170
   26CHL1  H26C 1920   7.051   2.368   5.834  1.4616  1.7164 -0.2304
   26CHL1   C27 1921   6.781   2.381   5.902  0.4037 -0.0165  0.0858
   26CHL1  H27A 1922   6.761   2.394   5.794 -0.6678 -0.2022  0.2436
   26CHL1  H27B 1923   6.812   2.276   5.918  0.0442  0.3027  3.9404
   26CHL1  H27C 1924   6.680   2.402   5.944  1.2403  0.7629  1.8577
   27CHL1    C3 1925   6.482   1.487   7.316  0.8067  0.1035  0.5086
   27CHL1    H3 1926   6.542   1.394   7.325 -0.8297 -1.4714 -2.8418
   27CHL1    O3 1927   6.481   1.552   7.440 -0.5220 -0.1709 -0.0404
   27CHL1   H3' 1928   6.428   1.632   7.433  0.9427  0.9073  0.6644
   27CHL1    C4 1929   6.533   1.577   7.207  0.0680 -0.7403  0.6997
   27CHL1   H4A 1930   6.493   1.680   7.218 -0.0107 -0.6234 -0.5751
   27CHL1   H4B 1931   6.640   1.595   7.232 -0.3480  1.1598  1.3073
   27CHL1    C5 1932   6.506   1.526   7.067  0.1844  0.5689  1.0155
   27CHL1    C6 1933   6.600   1.524   6.971  0.2043 -0.1737  0.7423
   27CHL1    H6 1934   6.702   1.560   6.992 -0.5885  1.8562  1.4510
   27CHL1    C7 1935   6.572   1.491   6.824 -0.5482 -0.2149  0.2545
   27CHL1   H7A 1936   6.626   1.549   6.746  0.2769 -1.3528 -0.0385
   27CHL1   H7B 1937   6.601   1.385   6.807 -0.6168  0.0223 -1.4919
   27CHL1    C8 1938   6.422   1.484   6.793  0.6800 -0.3003 -0.3876
   27CHL1    H8 1939   6.386   1.589   6.784  0.7733 -0.2118  0.1930
   27CHL1   C14 1940   6.397   1.414   6.668 -0.7855 -0.9309  0.3239
   27CHL1   H14 1941   6.434   1.310   6.679 -0.2270 -0.6815  0.8883
   27CHL1   C15 1942   6.478   1.475   6.549  0.2674 -0.4191 -0.5140
   27CHL1  H15A 1943   6.469   1.586   6.546 -1.0468 -0.4781  0.6481
   27CHL1  H15B 1944   6.581   1.433   6.558  0.1497 -0.7635 -0.7477
   27CHL1   C16 1945   6.398   1.430   6.424 -0.1546  0.2646  0.1775
   27CHL1  H16A 1946   6.381   1.519   6.360 -2.8717 -0.5506 -0.3608
   27CHL1  H16B 1947   6.453   1.350   6.370 -0.6622  1.0782 -1.5989
   27CHL1   C17 1948   6.266   1.364   6.474 -0.0149  0.0703  0.9412
   27CHL1   H17 1949   6.297   1.258   6.486  1.8263  0.3248 -1.0299
   27CHL1   C13 1950   6.253   1.421   6.618  0.6039 -0.1990 -0.4528
   27CHL1   C18 1951   6.190   1.561   6.596  0.6254 -0.1478  0.0388
   27CHL1  H18A 1952   6.252   1.625   6.529 -1.3668  1.9118  0.0342
   27CHL1  H18B 1953   6.090   1.555   6.547  0.4158 -0.1609  0.4619
   27CHL1  H18C 1954   6.174   1.619   6.689 -0.0481 -0.5955  0.2078
   27CHL1   C12 1955   6.176   1.340   6.726 -0.2426  0.2485  0.6734
   27CHL1  H12A 1956   6.068   1.358   6.706 -0.4046 -1.7510 -0.5322
   27CHL1  H12B 1957   6.201   1.233   6.737 -0.1512  0.4628  2.9372
   27CHL1   C11 1958   6.192   1.391   6.871  0.4065 -0.3671 -0.0085
   27CHL1  H11A 1959   6.129   1.482   6.879  1.1930  0.2660 -0.7899
   27CHL1  H11B 1960   6.142   1.329   6.948 -1.4625  2.2495  1.0131
   27CHL1    C9 1961   6.340   1.421   6.903 -0.3832 -0.7278  0.1637
   27CHL1    H9 1962   6.379   1.317   6.912 -0.6409 -0.9770 -1.2701
   27CHL1   C10 1963   6.359   1.482   7.041  0.7510 -0.4392 -0.0259
   27CHL1   C19 1964   6.270   1.610   7.062 -0.1668 -0.1047  0.1396
   27CHL1  H19A 1965   6.290   1.674   7.150 -0.0746 -0.1502  0.1525
   27CHL1  H19B 1966   6.267   1.662   6.963 -0.9586 -1.0669 -0.3549
   27CHL1  H19C 1967   6.166   1.574   7.071 -0.3457 -0.0668 -1.4684
   27CHL1    C1 1968   6.323   1.387   7.151 -0.2286 -0.2732 -0.3261
   27CHL1   H1A 1969   6.221   1.348   7.130  0.3078 -0.8925 -1.9004
   27CHL1   H1B 1970   6.377   1.291   7.148  0.6651  0.1905  0.3951
   27CHL1    C2 1971   6.337   1.444   7.293 -0.1512  0.3551  0.0735
   27CHL1   H2A 1972   6.316   1.359   7.360 -0.4348  1.0411  0.8746
   27CHL1   H2B 1973   6.256   1.519   7.306 -0.9366 -0.7182  1.5484
   27CHL1   C20 1974   6.157   1.375   6.366 -0.5145  0.1682  0.0909
   27CHL1   H20 1975   6.136   1.484   6.361  2.6194  0.9301  0.9958
   27CHL1   C21 1976   6.030   1.303   6.410 -0.2122 -0.5810  0.2521
   27CHL1  H21A 1977   5.959   1.307   6.324  2.1928 -1.7891 -1.9558
   27CHL1  H21B 1978   6.003   1.364   6.498  1.0116  3.0303 -1.6782
   27CHL1  H21C 1979   6.051   1.198   6.440 -0.7628 -0.8704 -0.3318
   27CHL1   C22 1980   6.209   1.331   6.229  0.5674 -0.0781 -0.0961
   27CHL1  H22A 1981   6.282   1.404   6.188  0.2785  0.5996  0.5749
   27CHL1  H22B 1982   6.264   1.235   6.235  1.1956  0.2574 -0.4689
   27CHL1   C23 1983   6.100   1.294   6.122  0.7405 -0.4523  0.3245
   27CHL1  H23A 1984   6.048   1.202   6.154 -1.6118  0.7620  0.1961
   27CHL1  H23B 1985   6.028   1.379   6.128  1.4032  0.0302  2.4437
   27CHL1   C24 1986   6.152   1.269   5.982 -0.3986 -0.2355  0.0655
   27CHL1  H24A 1987   6.077   1.278   5.901 -1.9938 -1.0807  1.4022
   27CHL1  H24B 1988   6.207   1.365   5.971  1.7467 -1.1975  1.6057
   27CHL1   C25 1989   6.250   1.150   5.958 -0.4973 -0.7049  0.0527
   27CHL1   H25 1990   6.343   1.172   6.013  0.3262  0.2818 -1.6415
   27CHL1   C26 1991   6.174   1.025   5.996 -0.8087  0.6593  0.1647
   27CHL1  H26A 1992   6.077   1.027   5.941 -0.2141  0.9575 -0.9130
   27CHL1  H26B 1993   6.236   0.942   5.956  1.0697  2.6139 -1.1952
   27CHL1  H26C 1994   6.151   1.012   6.104 -0.2328  1.7528  0.4320
   27CHL1   C27 1995   6.285   1.139   5.810 -0.1934  0.0939  0.6708
   27CHL1  H27A 1996   6.196   1.130   5.744 -1.0842 -0.9879  1.9557
   27CHL1  H27B 1997   6.346   1.226   5.778  0.7486 -0.2525  1.4914
   27CHL1  H27C 1998   6.352   1.053   5.788 -0.9009 -0.3584  0.2505
   28CHL1    C3 1999   1.949   4.167   7.183 -0.8576 -0.0982  0.1034
   28CHL1    H3 2000   1.974   4.059   7.187  0.8685  0.2961  0.9443
   28CHL1    O3 2001   1.898   4.194   7.313  0.0041 -0.2139 -0.6538
   28CHL1   H3' 2002   1.881   4.288   7.316 -2.2947 -0.5742 -0.9005
   28CHL1    C4 2003   2.080   4.254   7.155  0.2201 -0.0188 -0.3426
   28CHL1   H4A 2004   2.054   4.359   7.179 -0.2477 -0.0772 -0.5883
   28CHL1   H4B 2005   2.159   4.248   7.232 -1.4319 -1.2127  1.3413
   28CHL1    C5 2006   2.140   4.227   7.013  0.3143 -0.6778 -0.3265
   28CHL1    C6 2007   2.263   4.170   6.995  0.4012  0.4031 -0.2306
   28CHL1    H6 2008   2.332   4.152   7.079  2.2797  0.2264 -1.7207
   28CHL1    C7 2009   2.309   4.135   6.859 -0.0231 -0.5675  0.0094
   28CHL1   H7A 2010   2.410   4.181   6.852 -0.8230  0.9879 -3.0671
   28CHL1   H7B 2011   2.311   4.025   6.842 -1.4605 -0.9021  1.7523
   28CHL1    C8 2012   2.230   4.199   6.751 -0.2884  0.1468  0.0052
   28CHL1    H8 2013   2.260   4.305   6.746 -0.6532  0.3262  1.1258
   28CHL1   C14 2014   2.273   4.138   6.612 -0.0244 -0.7999 -0.5926
   28CHL1   H14 2015   2.253   4.028   6.608 -1.4768 -0.5789 -0.0067
   28CHL1   C15 2016   2.420   4.142   6.570  0.3592 -0.3261 -0.7130
   28CHL1  H15A 2017   2.464   4.242   6.588 -1.1979  0.1911  0.4418
   28CHL1  H15B 2018   2.483   4.068   6.625 -1.1340 -1.5069 -0.5399
   28CHL1   C16 2019   2.413   4.117   6.417  0.7668 -0.5125  0.4796
   28CHL1  H16A 2020   2.492   4.181   6.372  0.3341  1.5733  2.5118
   28CHL1  H16B 2021   2.436   4.009   6.403  0.4575 -0.7660  1.8628
   28CHL1   C17 2022   2.265   4.138   6.367 -0.1686 -0.8541 -0.1215
   28CHL1   H17 2023   2.215   4.040   6.355 -1.8787 -0.1673  1.0132
   28CHL1   C13 2024   2.201   4.204   6.494  0.2762 -0.0628 -0.0631
   28CHL1   C18 2025   2.224   4.350   6.493 -0.7609 -0.1011 -0.1775
   28CHL1  H18A 2026   2.333   4.372   6.501 -0.4057 -1.9778  0.5947
   28CHL1  H18B 2027   2.182   4.400   6.403 -0.0030 -0.9694 -1.0341
   28CHL1  H18C 2028   2.180   4.397   6.583  1.4440  2.8823 -0.4676
   28CHL1   C12 2029   2.049   4.170   6.517 -0.4882  0.0615 -0.0503
   28CHL1  H12A 2030   1.986   4.197   6.430 -0.1391 -2.0940 -1.0393
   28CHL1  H12B 2031   2.048   4.059   6.522  3.4516 -0.0955  0.3512
   28CHL1   C11 2032   1.993   4.216   6.655  0.3342 -0.0052 -0.0050
   28CHL1  H11A 2033   1.980   4.325   6.636 -0.0510 -0.3198 -1.6840
   28CHL1  H11B 2034   1.890   4.175   6.657 -0.0523  0.8317 -1.2690
   28CHL1    C9 2035   2.089   4.188   6.780 -0.1174 -0.0045  0.2379
   28CHL1    H9 2036   2.080   4.079   6.801 -0.8561  0.2704  1.4303
   28CHL1   C10 2037   2.033   4.246   6.911  1.0331 -0.6634  0.3474
   28CHL1   C19 2038   2.003   4.393   6.890 -0.0504 -0.1766 -0.6083
   28CHL1  H19A 2039   2.082   4.424   6.818 -0.3831 -0.3077 -1.0323
   28CHL1  H19B 2040   1.903   4.407   6.843  0.1199 -2.0409 -1.6084
   28CHL1  H19C 2041   2.014   4.444   6.988  0.0480 -2.8213  0.8328
   28CHL1    C1 2042   1.891   4.177   6.940 -0.2808 -0.4695  0.3185
   28CHL1   H1A 2043   1.812   4.210   6.870  0.1383  2.2421  1.0084
   28CHL1   H1B 2044   1.913   4.070   6.919  0.8171 -0.8805  3.0843
   28CHL1    C2 2045   1.842   4.203   7.078 -0.0489  0.1466 -0.1142
   28CHL1   H2A 2046   1.749   4.145   7.091 -0.5589  0.4415 -2.0761
   28CHL1   H2B 2047   1.822   4.311   7.090 -1.1605 -0.1207  0.5003
   28CHL1   C20 2048   2.258   4.210   6.227  0.2189  0.2155 -0.4145
   28CHL1   H20 2049   2.298   4.310   6.253 -1.9610  0.7233  1.3413
   28CHL1   C21 2050   2.106   4.208   6.189 -0.1928 -0.7303 -0.1214
   28CHL1  H21A 2051   2.063   4.106   6.195 -0.3868 -0.6380  0.0808
   28CHL1  H21B 2052   2.095   4.244   6.085  0.3515  0.1179  0.0983
   28CHL1  H21C 2053   2.038   4.272   6.250 -1.8371 -1.6868 -0.8949
   28CHL1   C22 2054   2.337   4.137   6.117  1.1506  0.2930  0.0023
   28CHL1  H22A 2055   2.438   4.109   6.153  0.4938 -0.7880  1.0611
   28CHL1  H22B 2056   2.272   4.049   6.103 -0.2591  1.3545 -0.3965
   28CHL1   C23 2057   2.339   4.210   5.985  0.2662 -0.3729  0.2696
   28CHL1  H23A 2058   2.241   4.194   5.934  1.3669 -1.6888 -1.5519
   28CHL1  H23B 2059   2.361   4.317   6.007 -0.5762 -0.4866  1.7547
   28CHL1   C24 2060   2.459   4.181   5.905 -0.6573 -0.4835  0.9078
   28CHL1  H24A 2061   2.461   4.243   5.813 -1.5297 -0.8793  0.6082
   28CHL1  H24B 2062   2.550   4.212   5.960 -1.1615 -1.6219  2.4619
   28CHL1   C25 2063   2.476   4.036   5.862  0.6123  0.3040  0.3421
   28CHL1   H25 2064   2.527   3.988   5.948 -2.7876 -2.3194  1.1082
   28CHL1   C26 2065   2.346   3.961   5.825  0.8779  0.8668  0.2313
   28CHL1  H26A 2066   2.369   3.853   5.815 -0.5808  0.3839  1.6455
   28CHL1  H26B 2067   2.266   3.969   5.902  1.1279 -0.6124  0.6706
   28CHL1  H26C 2068   2.296   3.999   5.733 -0.1747  0.8930  0.7948
   28CHL1   C27 2069   2.564   4.022   5.741 -0.7775  0.3627 -0.3464
   28CHL1  H27A 2070   2.565   3.913   5.721  0.6549  0.3400 -0.2894
   28CHL1  H27B 2071   2.517   4.088   5.665  2.1479  2.5365 -0.4532
   28CHL1  H27C 2072   2.671   4.051   5.752 -0.2932 -0.8991 -1.4878
   29CHL1    C3 2073   4.740   3.426   4.096  0.1604  0.1914  0.0123
   29CHL1    H3 2074   4.811   3.340   4.093 -0.5606 -0.5450  2.1318
   29CHL1    O3 2075   4.712   3.458   3.960  0.0697  0.3175  0.1992
   29CHL1   H3' 2076   4.641   3.521   3.969 -0.7713 -0.8738  2.7828
   29CHL1    C4 2077   4.618   3.375   4.178 -0.1626  1.4355 -0.4450
   29CHL1   H4A 2078   4.540   3.445   4.142  0.3762  2.8417  1.0057
   29CHL1   H4B 2079   4.603   3.276   4.129 -0.3377  1.6477 -0.8239
   29CHL1    C5 2080   4.621   3.375   4.327  0.2412  0.2431 -0.0657
   29CHL1    C6 2081   4.567   3.266   4.394 -0.4629  0.2162  0.2828
   29CHL1    H6 2082   4.524   3.176   4.347  2.0665 -1.6326  1.2677
   29CHL1    C7 2083   4.567   3.254   4.537 -0.7678 -0.4471 -0.4862
   29CHL1   H7A 2084   4.471   3.208   4.570 -0.0834 -1.2776  0.4081
   29CHL1   H7B 2085   4.652   3.185   4.556 -3.0932 -3.5058 -0.4679
   29CHL1    C8 2086   4.597   3.385   4.619  0.5125 -0.1000 -0.7516
   29CHL1    H8 2087   4.511   3.454   4.615 -0.5980 -1.4681 -1.2643
   29CHL1   C14 2088   4.623   3.360   4.770 -0.0357  0.1588  0.5433
   29CHL1   H14 2089   4.706   3.287   4.761 -0.1404  0.3235 -2.8702
   29CHL1   C15 2090   4.523   3.277   4.850 -0.0493 -0.0196  0.4558
   29CHL1  H15A 2091   4.415   3.292   4.828  0.2203 -0.0168 -0.9359
   29CHL1  H15B 2092   4.543   3.170   4.829 -1.7507 -0.5263  1.2370
   29CHL1   C16 2093   4.548   3.322   4.994 -0.1174  0.4886  0.4356
   29CHL1  H16A 2094   4.457   3.371   5.034  0.0120  1.0756  0.0359
   29CHL1  H16B 2095   4.572   3.226   5.044  0.2887  0.6348  0.5253
   29CHL1   C17 2096   4.666   3.423   4.997 -0.0494 -0.2629 -0.1742
   29CHL1   H17 2097   4.760   3.364   4.995  0.1927 -0.0398  2.3591
   29CHL1   C13 2098   4.662   3.477   4.853 -0.1960  0.2152  0.4584
   29CHL1   C18 2099   4.553   3.584   4.851 -0.0132 -0.1178 -0.5368
   29CHL1  H18A 2100   4.583   3.674   4.909 -1.1276 -0.2142  0.2217
   29CHL1  H18B 2101   4.526   3.610   4.747 -0.0775  0.4594 -0.3799
   29CHL1  H18C 2102   4.456   3.553   4.894 -0.0454  0.7473  0.0614
   29CHL1   C12 2103   4.793   3.534   4.789  0.1263 -0.4289 -0.0906
   29CHL1  H12A 2104   4.827   3.623   4.846  0.0489 -0.9820  0.8314
   29CHL1  H12B 2105   4.875   3.459   4.788  1.1139  0.5997  0.6196
   29CHL1   C11 2106   4.773   3.572   4.641 -0.6116 -0.5027 -0.0105
   29CHL1  H11A 2107   4.717   3.668   4.642  0.9066  0.4264  0.9397
   29CHL1  H11B 2108   4.875   3.591   4.600  0.0720 -2.7329  0.5313
   29CHL1    C9 2109   4.715   3.457   4.554  0.3559  0.1044 -0.0243
   29CHL1    H9 2110   4.796   3.381   4.543 -0.6877 -1.1700  0.7798
   29CHL1   C10 2111   4.692   3.484   4.396 -0.4904 -0.4223  0.0102
   29CHL1   C19 2112   4.597   3.609   4.390 -0.8321  0.2600 -0.4836
   29CHL1  H19A 2113   4.565   3.615   4.284 -1.7093 -0.3517 -0.2643
   29CHL1  H19B 2114   4.505   3.583   4.447 -0.4496  0.6395  0.3337
   29CHL1  H19C 2115   4.644   3.704   4.423 -1.6777  0.4166  0.3205
   29CHL1    C1 2116   4.825   3.515   4.316 -0.5071  0.2041 -0.5594
   29CHL1   H1A 2117   4.870   3.591   4.383 -2.6063  0.0290  1.1596
   29CHL1   H1B 2118   4.884   3.421   4.329 -1.2503  0.0123  1.7993
   29CHL1    C2 2119   4.806   3.550   4.163  0.1222  0.2014 -0.0939
   29CHL1   H2A 2120   4.911   3.563   4.129  0.3478 -1.6537 -0.2118
   29CHL1   H2B 2121   4.746   3.643   4.150  0.9461  1.4979  3.8019
   29CHL1   C20 2122   4.680   3.506   5.123 -0.3614 -0.1106 -0.3116
   29CHL1   H20 2123   4.600   3.582   5.139  0.6230  0.6917  1.0139
   29CHL1   C21 2124   4.811   3.600   5.121  0.0435 -0.6832  0.5175
   29CHL1  H21A 2125   4.819   3.668   5.209 -1.9580 -0.7352  0.8049
   29CHL1  H21B 2126   4.811   3.666   5.031 -1.9873 -0.1972  0.8240
   29CHL1  H21C 2127   4.904   3.540   5.116  0.3452 -0.1946  0.1713
   29CHL1   C22 2128   4.670   3.422   5.249 -0.1341  0.0162  0.3289
   29CHL1  H22A 2129   4.563   3.395   5.257 -0.6639  1.9505  0.3042
   29CHL1  H22B 2130   4.729   3.328   5.239  1.1532  0.6603  1.4461
   29CHL1   C23 2131   4.711   3.496   5.376  0.4304  0.3646  0.9597
   29CHL1  H23A 2132   4.821   3.484   5.372  0.2906 -0.7004 -0.8261
   29CHL1  H23B 2133   4.682   3.604   5.373  1.6804  0.7147 -2.0649
   29CHL1   C24 2134   4.675   3.433   5.514  0.9642  0.0237 -0.7321
   29CHL1  H24A 2135   4.572   3.463   5.544  0.8197 -0.4062 -0.7856
   29CHL1  H24B 2136   4.685   3.323   5.523  0.5467  0.1391  2.6162
   29CHL1   C25 2137   4.741   3.504   5.628 -0.7107 -0.2830  0.2998
   29CHL1   H25 2138   4.851   3.490   5.623  0.0640  4.0280  1.5262
   29CHL1   C26 2139   4.714   3.653   5.655 -0.4854  0.1829  0.3772
   29CHL1  H26A 2140   4.788   3.691   5.728 -0.1628 -0.1476  0.2221
   29CHL1  H26B 2141   4.732   3.714   5.563  2.7269  1.1423  1.5128
   29CHL1  H26C 2142   4.609   3.667   5.690 -0.8785  1.1423 -1.0795
   29CHL1   C27 2143   4.708   3.437   5.772  0.5833  0.3437  0.3758
   29CHL1  H27A 2144   4.737   3.330   5.772  2.5977  0.8350 -0.2203
   29CHL1  H27B 2145   4.767   3.479   5.857  0.0011  0.8718  0.5258
   29CHL1  H27C 2146   4.601   3.452   5.795  0.0604 -0.7810 -1.1588
   30CHL1    C3 2147   4.791   1.363   3.896 -0.4191 -0.2769 -0.6968
   30CHL1    H3 2148   4.868   1.442   3.905  1.0376 -1.8706  1.9561
   30CHL1    O3 2149   4.768   1.335   3.757 -0.3524  0.4554 -0.3572
   30CHL1   H3' 2150   4.703   1.264   3.753 -1.6395  1.6064 -4.2322
   30CHL1    C4 2151   4.826   1.236   3.973  1.2289 -0.4381 -0.7449
   30CHL1   H4A 2152   4.753   1.156   3.951 -1.3118  1.8757 -1.2802
   30CHL1   H4B 2153   4.922   1.198   3.932  0.8291 -0.6299 -1.5181
   30CHL1    C5 2154   4.837   1.253   4.129  0.1469  0.5607  0.0253
   30CHL1    C6 2155   4.949   1.223   4.198 -0.0420  0.2195 -0.9630
   30CHL1    H6 2156   5.033   1.177   4.144 -0.3074 -1.4903  0.0211
   30CHL1    C7 2157   4.967   1.252   4.346 -0.1430 -0.1056 -0.8250
   30CHL1   H7A 2158   5.014   1.160   4.387 -1.3704 -0.4036 -0.0176
   30CHL1   H7B 2159   5.024   1.342   4.377  0.6504 -1.0498  0.6000
   30CHL1    C8 2160   4.825   1.270   4.411  0.2276 -0.7969 -0.5485
   30CHL1    H8 2161   4.773   1.173   4.424  1.1590 -1.2496 -0.1022
   30CHL1   C14 2162   4.843   1.322   4.555 -0.6456 -0.1812  0.1160
   30CHL1   H14 2163   4.886   1.424   4.545 -1.4648  0.2089  0.5540
   30CHL1   C15 2164   4.945   1.249   4.643  0.6114 -0.0101 -0.0304
   30CHL1  H15A 2165   4.927   1.139   4.648  0.5469 -0.0426 -0.7759
   30CHL1  H15B 2166   5.048   1.258   4.603  0.1683  0.7071 -1.0844
   30CHL1   C16 2167   4.913   1.299   4.779 -0.8792  0.2052 -0.1034
   30CHL1  H16A 2168   4.909   1.214   4.850  1.4046  0.2556  0.1702
   30CHL1  H16B 2169   4.989   1.371   4.816  2.0331 -3.1380  0.9561
   30CHL1   C17 2170   4.780   1.370   4.773 -0.2317  0.0036 -0.4403
   30CHL1   H17 2171   4.802   1.477   4.755  1.7974 -0.4232 -0.8098
   30CHL1   C13 2172   4.716   1.322   4.643  0.1611 -0.0441 -0.3646
   30CHL1   C18 2173   4.660   1.175   4.659 -0.0723 -0.1104  0.1219
   30CHL1  H18A 2174   4.574   1.173   4.730 -0.7197  2.6219 -0.4847
   30CHL1  H18B 2175   4.624   1.139   4.560 -2.1859 -0.1145  0.8370
   30CHL1  H18C 2176   4.744   1.116   4.702 -0.1195 -0.8381 -0.7544
   30CHL1   C12 2177   4.616   1.420   4.575 -0.0882 -1.1027 -0.0477
   30CHL1  H12A 2178   4.515   1.421   4.621  0.9788  2.0767  2.5979
   30CHL1  H12B 2179   4.653   1.524   4.587 -0.1451 -0.9905 -0.7581
   30CHL1   C11 2180   4.592   1.374   4.428  0.3753  0.5135  0.0180
   30CHL1  H11A 2181   4.538   1.277   4.432  2.4030 -0.6876 -0.2945
   30CHL1  H11B 2182   4.531   1.455   4.382  1.1010  1.6939  1.0763
   30CHL1    C9 2183   4.725   1.356   4.343 -0.0233  0.0180 -0.1818
   30CHL1    H9 2184   4.764   1.460   4.335  0.3436 -0.0654  0.4613
   30CHL1   C10 2185   4.709   1.307   4.189  0.4045 -0.0392 -0.1716
   30CHL1   C19 2186   4.602   1.191   4.178 -0.0006 -0.4436 -0.2792
   30CHL1  H19A 2187   4.594   1.153   4.074 -1.4514  0.7442 -0.6370
   30CHL1  H19B 2188   4.619   1.106   4.248  0.4608  0.7119  1.0597
   30CHL1  H19C 2189   4.506   1.243   4.196  0.2909 -0.0461  0.1586
   30CHL1    C1 2190   4.666   1.435   4.106 -0.0338 -0.0341 -0.4348
   30CHL1   H1A 2191   4.575   1.483   4.147 -0.2343 -1.9198  1.4893
   30CHL1   H1B 2192   4.744   1.513   4.115  1.6984 -1.7681  0.1979
   30CHL1    C2 2193   4.661   1.422   3.953  0.1363 -0.3211  0.3559
   30CHL1   H2A 2194   4.648   1.527   3.918 -0.1973  0.0833  1.6373
   30CHL1   H2B 2195   4.571   1.366   3.917 -0.1142  1.3907 -1.8828
   30CHL1   C20 2196   4.693   1.357   4.899 -1.0984  0.6039 -0.6704
   30CHL1   H20 2197   4.682   1.247   4.912 -0.8575  0.6696  0.1430
   30CHL1   C21 2198   4.559   1.427   4.888 -0.3331 -0.3277 -0.5341
   30CHL1  H21A 2199   4.567   1.535   4.865  1.1500 -0.2015  0.4528
   30CHL1  H21B 2200   4.495   1.409   4.977  0.5688 -1.1723 -0.0414
   30CHL1  H21C 2201   4.492   1.382   4.811 -1.6419 -2.0696  1.4986
   30CHL1   C22 2202   4.770   1.420   5.021  0.1533  0.9453 -0.0871
   30CHL1  H22A 2203   4.877   1.395   5.011 -0.1374 -0.1555 -0.5460
   30CHL1  H22B 2204   4.760   1.531   5.024 -0.9124  0.8493  2.7576
   30CHL1   C23 2205   4.714   1.367   5.160  0.3381  0.5317 -0.3554
   30CHL1  H23A 2206   4.776   1.416   5.239  1.2084 -1.9898  0.6151
   30CHL1  H23B 2207   4.609   1.404   5.165  0.0196 -0.3802 -0.0928
   30CHL1   C24 2208   4.711   1.215   5.181 -0.5055  0.3889 -0.0566
   30CHL1  H24A 2209   4.620   1.183   5.127 -0.5634 -3.1739  1.8595
   30CHL1  H24B 2210   4.804   1.178   5.134 -0.7612 -1.8389  1.0404
   30CHL1   C25 2211   4.703   1.164   5.324  0.7907 -0.2881 -0.3440
   30CHL1   H25 2212   4.606   1.199   5.365  0.6485 -0.3115 -0.6582
   30CHL1   C26 2213   4.695   1.009   5.306  1.1435  0.6909  0.4092
   30CHL1  H26A 2214   4.646   0.972   5.398  0.3296  0.0534 -0.2746
   30CHL1  H26B 2215   4.625   0.991   5.222 -1.6955  0.4325  2.6667
   30CHL1  H26C 2216   4.795   0.969   5.279  0.4985  0.3550 -1.6280
   30CHL1   C27 2217   4.818   1.195   5.414  0.3698 -0.1136 -0.2609
   30CHL1  H27A 2218   4.807   1.126   5.501  0.2724 -1.7311 -1.5153
   30CHL1  H27B 2219   4.911   1.169   5.359 -0.4567 -0.0351 -1.7156
   30CHL1  H27C 2220   4.812   1.300   5.451  0.3993 -0.6553  1.3622
   31CHL1    C3 2221   5.664   0.576   3.710 -0.3599 -0.5091 -0.2408
   31CHL1    H3 2222   5.578   0.646   3.720 -1.1657 -1.7153  1.8854
   31CHL1    O3 2223   5.688   0.544   3.573  0.0295 -1.1039  0.3597
   31CHL1   H3' 2224   5.771   0.497   3.564 -0.1796 -1.0897 -2.4611
   31CHL1    C4 2225   5.799   0.629   3.768  0.2224 -0.0674  0.2466
   31CHL1   H4A 2226   5.880   0.561   3.735 -0.1457  0.0846 -1.0211
   31CHL1   H4B 2227   5.806   0.732   3.728  1.0063 -0.9280 -1.9530
   31CHL1    C5 2228   5.802   0.624   3.921 -0.3814  0.8118 -0.6540
   31CHL1    C6 2229   5.843   0.733   3.980 -0.1421  0.1781 -0.5970
   31CHL1    H6 2230   5.884   0.812   3.914  1.3619 -0.4424 -0.4589
   31CHL1    C7 2231   5.830   0.766   4.126  0.2547 -0.1079  0.0301
   31CHL1   H7A 2232   5.919   0.824   4.159  0.0196 -0.7146  1.8874
   31CHL1   H7B 2233   5.740   0.832   4.132  0.4009  0.1557 -0.6458
   31CHL1    C8 2234   5.810   0.639   4.215  0.3823 -0.1484  1.6095
   31CHL1    H8 2235   5.904   0.581   4.219 -0.0652 -0.8991  1.4554
   31CHL1   C14 2236   5.753   0.675   4.346  0.2058  0.2445  0.1015
   31CHL1   H14 2237   5.657   0.723   4.319 -0.2403  0.4160  1.8350
   31CHL1   C15 2238   5.831   0.775   4.429 -0.0147 -0.0036  0.8557
   31CHL1  H15A 2239   5.939   0.747   4.426  0.0920  0.4863 -0.8397
   31CHL1  H15B 2240   5.815   0.876   4.385 -0.9502 -1.7946 -3.3889
   31CHL1   C16 2241   5.783   0.752   4.571  0.2277 -0.0949 -0.2876
   31CHL1  H16A 2242   5.865   0.747   4.646 -1.4604  3.6577  2.1802
   31CHL1  H16B 2243   5.742   0.852   4.599  2.0123  0.5465  0.1616
   31CHL1   C17 2244   5.677   0.644   4.574 -0.8279  0.1891  0.3081
   31CHL1   H17 2245   5.581   0.699   4.560 -1.9891 -2.1015 -1.1964
   31CHL1   C13 2246   5.718   0.560   4.449  0.6122 -0.3322  0.3457
   31CHL1   C18 2247   5.845   0.477   4.483 -0.3360  0.2558  0.1524
   31CHL1  H18A 2248   5.908   0.526   4.561  0.3512  1.0455 -0.8790
   31CHL1  H18B 2249   5.819   0.373   4.512  2.4833 -0.0120  2.0498
   31CHL1  H18C 2250   5.916   0.470   4.399  1.6923  3.1180  1.4659
   31CHL1   C12 2251   5.614   0.469   4.372 -0.1182  0.2825 -0.0196
   31CHL1  H12A 2252   5.599   0.369   4.419  0.7697 -1.0154 -2.3251
   31CHL1  H12B 2253   5.515   0.519   4.368 -1.2929 -2.0073 -1.6189
   31CHL1   C11 2254   5.672   0.430   4.237 -0.3660 -0.3617  0.8203
   31CHL1  H11A 2255   5.765   0.373   4.259  1.4667  1.9428 -0.6210
   31CHL1  H11B 2256   5.598   0.360   4.191  1.7475 -1.6682 -0.7333
   31CHL1    C9 2257   5.705   0.547   4.147  0.3031 -0.0209 -0.6806
   31CHL1    H9 2258   5.609   0.600   4.133 -0.1149 -0.0072  1.8653
   31CHL1   C10 2259   5.745   0.505   4.002 -0.1288  0.0820  0.1632
   31CHL1   C19 2260   5.858   0.400   4.023  0.2621  0.1569  0.1580
   31CHL1  H19A 2261   5.900   0.381   3.922 -0.1578  1.0575 -0.1959
   31CHL1  H19B 2262   5.940   0.440   4.087 -0.2654  0.8568  0.4083
   31CHL1  H19C 2263   5.826   0.302   4.063  0.0721 -0.4319 -1.3714
   31CHL1    C1 2264   5.621   0.449   3.931 -1.0736 -0.2542 -0.0219
   31CHL1   H1A 2265   5.588   0.353   3.977 -0.8310  0.5507  1.9065
   31CHL1   H1B 2266   5.531   0.514   3.937  0.1160  1.3404  1.8924
   31CHL1    C2 2267   5.631   0.437   3.777 -0.9248 -0.0082  0.0709
   31CHL1   H2A 2268   5.535   0.395   3.742 -2.0943  1.6390  1.1422
   31CHL1   H2B 2269   5.720   0.376   3.751  0.5273  0.5661  3.1898
   31CHL1   C20 2270   5.678   0.579   4.717 -0.0026 -0.2656  0.8709
   31CHL1   H20 2271   5.775   0.527   4.732  0.5872  0.5361 -0.0639
   31CHL1   C21 2272   5.570   0.468   4.706 -0.2633 -0.1797 -0.0543
   31CHL1  H21A 2273   5.617   0.386   4.648  1.4943  0.0165  1.0205
   31CHL1  H21B 2274   5.472   0.505   4.669  0.5788  1.5201 -0.6859
   31CHL1  H21C 2275   5.556   0.410   4.800  0.2486 -1.2256 -0.6051
   31CHL1   C22 2276   5.654   0.677   4.835  0.0840  0.1075 -0.7189
   31CHL1  H22A 2277   5.734   0.754   4.830  0.2627  0.2016  1.8775
   31CHL1  H22B 2278   5.555   0.725   4.818  0.8619  1.3990 -1.8146
   31CHL1   C23 2279   5.675   0.611   4.972 -0.5969  0.6987 -0.1065
   31CHL1  H23A 2280   5.589   0.541   4.977  0.5230 -0.6206  2.4228
   31CHL1  H23B 2281   5.772   0.556   4.967 -1.4490 -0.9497  0.8645
   31CHL1   C24 2282   5.668   0.711   5.083 -0.0347 -0.5559 -0.3631
   31CHL1  H24A 2283   5.747   0.788   5.078  1.0193 -1.6352 -0.8787
   31CHL1  H24B 2284   5.565   0.751   5.067  0.3204  0.9962  1.0404
   31CHL1   C25 2285   5.684   0.650   5.227  0.3260 -0.2775  0.5994
   31CHL1   H25 2286   5.605   0.572   5.235  0.0431 -0.2108 -1.0969
   31CHL1   C26 2287   5.825   0.600   5.251  0.1972 -0.1336  0.9079
   31CHL1  H26A 2288   5.832   0.531   5.337  2.4793 -1.6648 -0.4051
   31CHL1  H26B 2289   5.856   0.551   5.156 -0.8533  0.5026  0.2047
   31CHL1  H26C 2290   5.886   0.690   5.272 -0.9254  1.1776 -1.1194
   31CHL1   C27 2291   5.651   0.755   5.337  0.1399 -0.3511 -0.2277
   31CHL1  H27A 2292   5.725   0.838   5.342 -2.0699  1.7787 -0.8215
   31CHL1  H27B 2293   5.550   0.798   5.319 -0.0159  0.5558  2.3747
   31CHL1  H27C 2294   5.654   0.710   5.439 -0.7985  1.2933  0.5755
   32CHL1    C3 2295   5.072   4.600   4.040  0.0995  0.1015  0.0206
   32CHL1    H3 2296   5.134   4.692   4.040 -1.2463  1.1642  3.5697
   32CHL1    O3 2297   5.031   4.592   3.904 -0.0041 -0.1638 -0.6629
   32CHL1   H3' 2298   4.951   4.540   3.895  1.8627 -3.4984  0.2559
   32CHL1    C4 2299   5.158   4.483   4.069  0.0094 -1.0201 -0.4261
   32CHL1   H4A 2300   5.114   4.384   4.048  0.9534 -1.7290  0.8356
   32CHL1   H4B 2301   5.246   4.492   4.001 -0.7429 -0.3488 -1.3422
   32CHL1    C5 2302   5.196   4.510   4.215  0.5962  0.1393  0.4895
   32CHL1    C6 2303   5.325   4.522   4.249  0.2006  0.2783  0.2623
   32CHL1    H6 2304   5.404   4.510   4.173  0.2501 -1.4726  0.5446
   32CHL1    C7 2305   5.375   4.535   4.392  0.1244 -0.1842 -0.3026
   32CHL1   H7A 2306   5.467   4.476   4.412 -0.1100 -0.0495  1.2648
   32CHL1   H7B 2307   5.391   4.644   4.405 -0.4470 -0.2737  1.4081
   32CHL1    C8 2308   5.268   4.496   4.498  0.2228 -0.3928 -0.1881
   32CHL1    H8 2309   5.256   4.386   4.503  0.1965 -0.4806 -1.8932
   32CHL1   C14 2310   5.311   4.549   4.637 -0.4142 -0.0665 -0.5312
   32CHL1   H14 2311   5.327   4.659   4.624  2.0358 -0.3119 -0.1783
   32CHL1   C15 2312   5.443   4.500   4.695 -0.5718  0.1492  0.9755
   32CHL1  H15A 2313   5.444   4.389   4.688  0.4202  0.0957  1.6587
   32CHL1  H15B 2314   5.531   4.545   4.645 -1.1640 -0.4548 -0.6490
   32CHL1   C16 2315   5.442   4.544   4.840 -0.0725 -0.1790  0.3597
   32CHL1  H16A 2316   5.477   4.463   4.908  1.0114 -1.6774 -1.8571
   32CHL1  H16B 2317   5.510   4.631   4.851  1.4320 -1.1498 -0.8194
   32CHL1   C17 2318   5.296   4.582   4.872  0.0753 -0.0843  0.6036
   32CHL1   H17 2319   5.290   4.693   4.877 -0.2275  0.0948 -2.1528
   32CHL1   C13 2320   5.212   4.528   4.751 -0.0165 -0.2288  0.1297
   32CHL1   C18 2321   5.187   4.384   4.775 -0.0296  0.2847  0.6253
   32CHL1  H18A 2322   5.279   4.331   4.806  0.4259  1.2004  0.8598
   32CHL1  H18B 2323   5.118   4.370   4.861 -2.7217 -2.9852 -1.7541
   32CHL1  H18C 2324   5.151   4.326   4.687 -0.4588 -1.2227  1.7408
   32CHL1   C12 2325   5.088   4.593   4.706  0.6956 -0.4426 -0.3574
   32CHL1  H12A 2326   5.010   4.580   4.784 -0.0881 -2.2997 -1.3901
   32CHL1  H12B 2327   5.107   4.699   4.678  0.8461 -0.1873  0.6627
   32CHL1   C11 2328   5.039   4.538   4.581  0.5510  0.1301 -0.3044
   32CHL1  H11A 2329   5.002   4.433   4.592  1.1738 -0.0485  0.1825
   32CHL1  H11B 2330   4.948   4.596   4.557  0.4400 -0.1959 -0.6867
   32CHL1    C9 2331   5.132   4.555   4.459 -0.1531 -0.5377  0.5747
   32CHL1    H9 2332   5.157   4.663   4.457  1.8929 -0.9156  1.9177
   32CHL1   C10 2333   5.082   4.516   4.317 -0.1299 -0.1479 -1.0116
   32CHL1   C19 2334   5.017   4.376   4.336 -0.4591  0.5152 -0.3847
   32CHL1  H19A 2335   4.919   4.387   4.388  0.1515  3.0771  0.3696
   32CHL1  H19B 2336   4.996   4.337   4.234  1.6246 -0.5107 -0.4712
   32CHL1  H19C 2337   5.074   4.307   4.402 -0.4864  0.2151 -0.6697
   32CHL1    C1 2338   4.971   4.613   4.272  0.4279  0.3109 -0.4698
   32CHL1   H1A 2339   4.872   4.607   4.322  0.7775 -2.8195  0.0978
   32CHL1   H1B 2340   5.011   4.715   4.289  0.4950  0.3654 -0.9240
   32CHL1    C2 2341   4.942   4.609   4.122 -0.3463 -0.3831 -0.0228
   32CHL1   H2A 2342   4.873   4.690   4.089  0.1305  1.0109  2.2007
   32CHL1   H2B 2343   4.886   4.515   4.101  0.0427 -0.7798  0.6949
   32CHL1   C20 2344   5.252   4.544   5.012 -0.0901 -0.2000  0.0748
   32CHL1   H20 2345   5.267   4.435   5.029  1.1253 -0.1132 -0.3608
   32CHL1   C21 2346   5.110   4.578   5.036  0.0812  0.0057  0.4623
   32CHL1  H21A 2347   5.082   4.566   5.143 -0.9249  1.1516  0.3504
   32CHL1  H21B 2348   5.031   4.527   4.978 -0.6921  1.5810  0.0633
   32CHL1  H21C 2349   5.106   4.688   5.018  0.6273  0.3777  2.3805
   32CHL1   C22 2350   5.341   4.630   5.117  0.3070 -0.2872 -0.5914
   32CHL1  H22A 2351   5.445   4.632   5.079  0.2304  0.9960 -0.7883
   32CHL1  H22B 2352   5.299   4.733   5.112 -1.1471 -0.7982  0.4934
   32CHL1   C23 2353   5.331   4.581   5.258  1.1147  0.0813 -0.6649
   32CHL1  H23A 2354   5.225   4.573   5.291  1.6473  0.6797  1.3486
   32CHL1  H23B 2355   5.381   4.482   5.247 -2.2960 -1.8603 -0.2461
   32CHL1   C24 2356   5.395   4.662   5.367 -0.0477 -0.1929 -0.2364
   32CHL1  H24A 2357   5.498   4.670   5.327  0.2137 -5.2697 -1.2084
   32CHL1  H24B 2358   5.349   4.764   5.365 -0.2769 -0.2842  0.1893
   32CHL1   C25 2359   5.394   4.589   5.497 -0.3951 -0.4624 -0.9519
   32CHL1   H25 2360   5.465   4.503   5.500 -0.5623 -0.5824  0.0878
   32CHL1   C26 2361   5.449   4.682   5.614  0.1666  0.7354  0.5846
   32CHL1  H26A 2362   5.397   4.777   5.639 -0.3536  1.0952 -1.6769
   32CHL1  H26B 2363   5.450   4.632   5.713  0.1894 -0.3343  0.0561
   32CHL1  H26C 2364   5.557   4.698   5.594  1.2039 -1.1597  3.9079
   32CHL1   C27 2365   5.262   4.529   5.553  0.6286 -0.3717 -0.2008
   32CHL1  H27A 2366   5.280   4.473   5.646  1.0730 -0.8784 -0.5919
   32CHL1  H27B 2367   5.184   4.606   5.576  1.7566  0.3117  1.5156
   32CHL1  H27C 2368   5.214   4.454   5.486 -0.1852  0.2894 -0.3821
   33CHL1    C3 2369   0.924   6.062   3.823  0.0994 -0.4122  0.2232
   33CHL1    H3 2370   0.972   5.964   3.801 -2.6120 -1.3022 -2.4364
   33CHL1    O3 2371   0.858   6.101   3.706  0.6739  0.2184  0.5738
   33CHL1   H3' 2372   0.833   6.188   3.738  1.5310  0.1407  1.5067
   33CHL1    C4 2373   0.824   6.056   3.939  0.1223  0.1567 -0.0322
   33CHL1   H4A 2374   0.762   6.148   3.946  0.6273  0.4492  0.6626
   33CHL1   H4B 2375   0.762   5.967   3.913 -0.2052  0.9071 -2.0484
   33CHL1    C5 2376   0.890   6.046   4.079 -0.2923 -0.2028  0.4329
   33CHL1    C6 2377   0.842   5.947   4.162 -0.6664  0.8481 -0.0331
   33CHL1    H6 2378   0.753   5.893   4.128 -0.4830  0.5590 -0.0550
   33CHL1    C7 2379   0.898   5.935   4.302  0.2354 -0.8114  0.1194
   33CHL1   H7A 2380   0.809   5.921   4.367  0.2079 -1.4072 -0.0433
   33CHL1   H7B 2381   0.957   5.843   4.319 -0.0595 -1.2343 -1.0564
   33CHL1    C8 2382   0.991   6.049   4.349 -0.0146  0.5740 -0.3046
   33CHL1    H8 2383   0.937   6.140   4.379 -1.3473  0.0047 -0.8963
   33CHL1   C14 2384   1.081   5.992   4.466  0.1230 -0.6649 -0.0654
   33CHL1   H14 2385   1.140   5.909   4.420  1.2198 -0.1209  0.3330
   33CHL1   C15 2386   1.017   5.929   4.591 -0.4201 -0.0385  0.5385
   33CHL1  H15A 2387   0.953   6.005   4.639  2.1253  1.6395  1.5276
   33CHL1  H15B 2388   0.966   5.832   4.574  1.3846 -0.8712 -0.3902
   33CHL1   C16 2389   1.139   5.917   4.686  0.3241  1.0010  0.4793
   33CHL1  H16A 2390   1.114   5.949   4.789  0.8803  0.8327  0.6667
   33CHL1  H16B 2391   1.173   5.811   4.694 -1.4386  0.4443  1.0147
   33CHL1   C17 2392   1.257   5.993   4.622  0.3928 -0.0053  1.1657
   33CHL1   H17 2393   1.308   5.923   4.551 -1.8099 -1.7857  1.2380
   33CHL1   C13 2394   1.190   6.088   4.519  0.1366  0.1874 -0.4041
   33CHL1   C18 2395   1.125   6.212   4.602  0.2621 -0.3158  0.3550
   33CHL1  H18A 2396   1.047   6.252   4.534  1.7301  1.5453 -0.3552
   33CHL1  H18B 2397   1.078   6.180   4.697  0.4073  1.1586  0.9473
   33CHL1  H18C 2398   1.192   6.300   4.619 -2.2574  2.0121 -0.9845
   33CHL1   C12 2399   1.282   6.135   4.395  0.2455  0.9272 -0.5641
   33CHL1  H12A 2400   1.356   6.213   4.423  0.0102 -0.0194  3.1532
   33CHL1  H12B 2401   1.334   6.045   4.357 -3.0489 -0.3025 -2.6927
   33CHL1   C11 2402   1.198   6.189   4.271  0.2520  0.6453 -0.8376
   33CHL1  H11A 2403   1.160   6.286   4.311  1.7228  0.6631  0.6449
   33CHL1  H11B 2404   1.263   6.216   4.184  0.3616  0.9801 -0.6541
   33CHL1    C9 2405   1.083   6.096   4.232  0.2686 -0.4609  0.1982
   33CHL1    H9 2406   1.128   5.997   4.211 -0.8220 -0.8479 -0.3963
   33CHL1   C10 2407   1.011   6.139   4.111  0.2822  0.7324 -0.0899
   33CHL1   C19 2408   0.954   6.280   4.139 -0.0416 -0.3845  0.1590
   33CHL1  H19A 2409   1.031   6.356   4.165 -0.4309  0.7907 -1.9150
   33CHL1  H19B 2410   0.897   6.322   4.053 -0.8822  0.1156  0.9494
   33CHL1  H19C 2411   0.867   6.274   4.207 -0.0610  0.2256  0.1920
   33CHL1    C1 2412   1.110   6.147   3.981 -0.9700 -0.0042 -1.1164
   33CHL1   H1A 2413   1.197   6.216   3.985  1.3106 -2.7705 -0.3753
   33CHL1   H1B 2414   1.158   6.048   3.970  1.1081  0.5220  1.8837
   33CHL1    C2 2415   1.036   6.169   3.848  0.4293  0.2408  0.0480
   33CHL1   H2A 2416   1.121   6.170   3.776 -0.3137  2.8314 -0.9097
   33CHL1   H2B 2417   1.002   6.275   3.848 -1.5847 -0.3722  0.8468
   33CHL1   C20 2418   1.357   6.043   4.721  0.0692 -1.2197  0.1490
   33CHL1   H20 2419   1.300   6.113   4.786  0.5708  0.2452 -0.9240
   33CHL1   C21 2420   1.477   6.121   4.650  0.0450 -0.0505 -0.3808
   33CHL1  H21A 2421   1.504   6.048   4.570  0.0266 -0.2323 -0.2222
   33CHL1  H21B 2422   1.558   6.137   4.723 -1.6864  1.9320  1.2347
   33CHL1  H21C 2423   1.443   6.220   4.613  2.0497  0.9394  0.3045
   33CHL1   C22 2424   1.405   5.934   4.810  0.0719 -0.0351  0.0921
   33CHL1  H22A 2425   1.327   5.870   4.856  1.1723 -1.9575 -0.5950
   33CHL1  H22B 2426   1.473   5.865   4.755  0.4392 -0.3416  0.9213
   33CHL1   C23 2427   1.480   5.989   4.931  0.3832 -0.0247 -0.1174
   33CHL1  H23A 2428   1.584   6.016   4.902  0.7672  0.5038  1.6266
   33CHL1  H23B 2429   1.430   6.076   4.979 -0.9222 -0.2528 -1.0129
   33CHL1   C24 2430   1.490   5.884   5.050 -0.3807 -0.1643 -0.1735
   33CHL1  H24A 2431   1.390   5.869   5.095 -0.1257  1.2063  0.9314
   33CHL1  H24B 2432   1.527   5.786   5.013  0.1049 -0.4282  0.9646
   33CHL1   C25 2433   1.599   5.927   5.154 -0.3262 -0.0594 -0.4384
   33CHL1   H25 2434   1.687   5.919   5.087 -2.0196 -3.3678 -2.5541
   33CHL1   C26 2435   1.604   6.071   5.211 -0.6609  0.6074  0.3776
   33CHL1  H26A 2436   1.620   6.144   5.128 -0.0983  2.6452  2.1821
   33CHL1  H26B 2437   1.510   6.093   5.266 -0.1987 -1.5568  2.1574
   33CHL1  H26C 2438   1.689   6.081   5.280  1.3272 -1.5810 -1.5724
   33CHL1   C27 2439   1.621   5.832   5.274  0.5667 -0.5291 -0.2565
   33CHL1  H27A 2440   1.523   5.811   5.322 -0.2650  0.9545 -1.2401
   33CHL1  H27B 2441   1.669   5.738   5.239 -1.3661 -1.2910 -0.9769
   33CHL1  H27C 2442   1.701   5.875   5.338  0.4123 -0.1205 -0.3402
   34CHL1    C3 2443   0.462   0.271   3.835 -0.0154 -0.7186  1.3073
   34CHL1    H3 2444   0.506   0.369   3.862 -0.2419 -0.1692 -0.2257
   34CHL1    O3 2445   0.500   0.246   3.699  0.7077  0.3719  0.0471
   34CHL1   H3' 2446   0.475   0.153   3.690 -1.5243  0.6673  1.9847
   34CHL1    C4 2447   0.526   0.166   3.924 -0.7288 -0.3244  0.0469
   34CHL1   H4A 2448   0.479   0.075   3.883 -1.2506  0.1277 -0.3734
   34CHL1   H4B 2449   0.636   0.151   3.919 -1.0531 -2.8050 -0.7066
   34CHL1    C5 2450   0.478   0.183   4.070 -0.5043 -0.2280  0.1934
   34CHL1    C6 2451   0.561   0.178   4.177 -0.1539 -0.1967 -0.3427
   34CHL1    H6 2452   0.665   0.180   4.144  0.5241  1.4594  1.6682
   34CHL1    C7 2453   0.535   0.183   4.323  0.3678  0.2361 -0.6860
   34CHL1   H7A 2454   0.588   0.100   4.374 -0.5697  0.2143  0.3005
   34CHL1   H7B 2455   0.556   0.281   4.370  1.6230  0.0517 -0.8283
   34CHL1    C8 2456   0.381   0.160   4.346  0.4731 -0.0471 -0.6297
   34CHL1    H8 2457   0.374   0.050   4.329 -2.0817  0.2267 -1.8934
   34CHL1   C14 2458   0.347   0.202   4.487  0.5244 -0.0037 -0.5928
   34CHL1   H14 2459   0.373   0.310   4.484  1.1374 -0.0112  2.2178
   34CHL1   C15 2460   0.428   0.150   4.610 -0.0584 -0.6077 -0.0162
   34CHL1  H15A 2461   0.430   0.040   4.600 -3.5784 -0.7577 -0.1854
   34CHL1  H15B 2462   0.525   0.200   4.630 -0.8996  0.6754  1.0745
   34CHL1   C16 2463   0.331   0.190   4.727 -0.1511  0.1863  0.2994
   34CHL1  H16A 2464   0.305   0.093   4.775  0.7530 -1.5373 -2.4636
   34CHL1  H16B 2465   0.374   0.266   4.796  0.8764  1.7811 -1.9849
   34CHL1   C17 2466   0.203   0.243   4.666  0.2613  0.2057 -0.4244
   34CHL1   H17 2467   0.227   0.350   4.648  0.8015  0.2956  0.7196
   34CHL1   C13 2468   0.192   0.192   4.522 -1.2515 -0.9068  0.1428
   34CHL1   C18 2469   0.160   0.035   4.524 -0.2908  0.1381 -0.0704
   34CHL1  H18A 2470   0.219  -0.009   4.606 -1.9762 -0.8171  0.6951
   34CHL1  H18B 2471   0.053   0.007   4.537 -1.2168  2.1957 -2.2966
   34CHL1  H18C 2472   0.188  -0.013   4.428 -1.8620 -1.5049  0.2351
   34CHL1   C12 2473   0.116   0.278   4.422  0.5580 -0.2877 -1.0407
   34CHL1  H12A 2474   0.013   0.273   4.462  0.2628 -0.7958 -1.8382
   34CHL1  H12B 2475   0.138   0.386   4.425 -1.0118  0.0686 -1.5402
   34CHL1   C11 2476   0.139   0.227   4.282  0.0005 -0.3798  0.2501
   34CHL1  H11A 2477   0.108   0.120   4.281 -0.4334 -0.2712 -1.6296
   34CHL1  H11B 2478   0.076   0.284   4.210 -0.4382 -1.1330  0.0234
   34CHL1    C9 2479   0.290   0.232   4.240 -0.0137  0.4024 -0.1905
   34CHL1    H9 2480   0.311   0.340   4.258  0.5579  0.0750  1.2102
   34CHL1   C10 2481   0.325   0.197   4.095 -0.5893  0.2719  0.3380
   34CHL1   C19 2482   0.254   0.053   4.063 -0.0349 -0.4327 -0.8344
   34CHL1  H19A 2483   0.261  -0.012   4.152 -3.3286 -0.4445 -0.4545
   34CHL1  H19B 2484   0.147   0.074   4.043  0.1486  0.5795 -0.8292
   34CHL1  H19C 2485   0.301   0.004   3.975  1.2383  0.8773 -0.9336
   34CHL1    C1 2486   0.263   0.294   3.999 -0.4961  0.2586  0.4935
   34CHL1   H1A 2487   0.152   0.297   4.009 -0.6073 -1.9949  0.2964
   34CHL1   H1B 2488   0.302   0.393   4.033 -0.2421 -0.9042  3.9585
   34CHL1    C2 2489   0.312   0.273   3.849  0.1559 -0.2464  0.6609
   34CHL1   H2A 2490   0.271   0.356   3.788  0.1920  0.7687  1.9837
   34CHL1   H2B 2491   0.263   0.184   3.803  1.7542 -1.7619  1.7191
   34CHL1   C20 2492   0.069   0.227   4.747  0.2808 -0.2426  0.4868
   34CHL1   H20 2493  -0.004   0.175   4.682 -0.8683  0.7685  0.9267
   34CHL1   C21 2494   0.028   0.372   4.777  0.8455  0.2848 -0.1809
   34CHL1  H21A 2495   0.075   0.401   4.873 -0.6299 -0.1636  0.7061
   34CHL1  H21B 2496  -0.081   0.373   4.795  0.7834 -2.1904 -0.0110
   34CHL1  H21C 2497   0.057   0.453   4.707  0.1314  0.1239 -0.6686
   34CHL1   C22 2498   0.077   0.133   4.875  0.4394 -0.2226  0.7276
   34CHL1  H22A 2499   0.116   0.036   4.836 -0.3665 -0.3366  0.1761
   34CHL1  H22B 2500   0.155   0.185   4.934 -0.2057  1.2944  0.2825
   34CHL1   C23 2501  -0.054   0.127   4.959 -0.2614  0.6568 -0.3087
   34CHL1  H23A 2502  -0.090   0.228   4.987  1.6606  1.6973 -1.3327
   34CHL1  H23B 2503  -0.135   0.082   4.897 -0.0846  0.6569 -0.5443
   34CHL1   C24 2504  -0.042   0.045   5.092 -0.6030  0.4239  0.5807
   34CHL1  H24A 2505  -0.008  -0.059   5.074  0.4794  0.9935 -0.9212
   34CHL1  H24B 2506   0.055   0.083   5.133 -0.3335 -1.3633  1.6817
   34CHL1   C25 2507  -0.167   0.077   5.182 -0.4875 -0.0931  0.7539
   34CHL1   H25 2508  -0.143   0.182   5.206  0.5424 -0.6050  2.0817
   34CHL1   C26 2509  -0.304   0.054   5.114  0.4124 -0.4683  0.0190
   34CHL1  H26A 2510  -0.289  -0.053   5.085  0.3387 -0.4500 -0.0849
   34CHL1  H26B 2511  -0.389   0.063   5.184 -1.2001  1.0772 -2.0122
   34CHL1  H26C 2512  -0.308   0.129   5.032  2.7373 -0.0016  0.2649
   34CHL1   C27 2513  -0.168  -0.005   5.306  0.2373  0.1993  0.1221
   34CHL1  H27A 2514  -0.249   0.025   5.376  0.4993  2.2925 -0.3998
   34CHL1  H27B 2515  -0.177  -0.114   5.288  1.0429 -0.4632  3.2133
   34CHL1  H27C 2516  -0.079   0.014   5.370  0.8129  1.1795 -0.9221
   35CHL1    C3 2517   2.469   6.329   3.752  0.0419 -0.1392  0.5320
   35CHL1    H3 2518   2.370   6.284   3.774  0.1848 -0.2648  0.9192
   35CHL1    O3 2519   2.489   6.361   3.611 -0.1759  0.5894  0.2864
   35CHL1   H3' 2520   2.582   6.342   3.598 -0.7479 -1.5383 -1.1924
   35CHL1    C4 2521   2.491   6.464   3.825 -0.6107 -0.3799  0.0447
   35CHL1   H4A 2522   2.585   6.513   3.794 -0.6246 -0.1890  0.3007
   35CHL1   H4B 2523   2.413   6.532   3.785  0.0417  0.3763  0.0281
   35CHL1    C5 2524   2.492   6.450   3.976  0.0129  0.0101 -0.1725
   35CHL1    C6 2525   2.401   6.515   4.052 -0.2828 -0.3503 -0.5795
   35CHL1    H6 2526   2.326   6.577   4.001 -0.5812  0.2251  0.5422
   35CHL1    C7 2527   2.409   6.502   4.201  0.0560  0.8063 -0.0932
   35CHL1   H7A 2528   2.392   6.607   4.234  1.9497  1.6699 -1.6573
   35CHL1   H7B 2529   2.329   6.434   4.236 -0.2463  0.4020 -1.5258
   35CHL1    C8 2530   2.546   6.462   4.258 -0.5340  0.5900 -0.7461
   35CHL1    H8 2531   2.612   6.549   4.237 -0.3157  0.5858 -0.1100
   35CHL1   C14 2532   2.523   6.423   4.403  0.2083  0.0174  1.0500
   35CHL1   H14 2533   2.452   6.338   4.391  0.1234  0.4482 -2.6007
   35CHL1   C15 2534   2.454   6.531   4.490  0.2887  0.1833  0.4008
   35CHL1  H15A 2535   2.509   6.625   4.469 -0.1586  0.3065 -0.2341
   35CHL1  H15B 2536   2.347   6.542   4.464  0.7770  4.8202 -0.4355
   35CHL1   C16 2537   2.479   6.482   4.631 -0.2949  0.3442 -0.4016
   35CHL1  H16A 2538   2.532   6.552   4.698 -1.6818  3.3197 -2.2384
   35CHL1  H16B 2539   2.384   6.452   4.680 -1.3122  2.0834 -1.2406
   35CHL1   C17 2540   2.570   6.360   4.620 -0.3774  0.2929 -0.7461
   35CHL1   H17 2541   2.495   6.280   4.599 -0.4491  0.3256 -0.6106
   35CHL1   C13 2542   2.646   6.374   4.480  0.4400  0.2293  0.5220
   35CHL1   C18 2543   2.768   6.477   4.484 -0.3483 -0.4933  0.0198
   35CHL1  H18A 2544   2.847   6.440   4.553  2.0417  0.4733 -2.0379
   35CHL1  H18B 2545   2.811   6.487   4.382 -1.9797  0.1439 -0.6383
   35CHL1  H18C 2546   2.734   6.581   4.506 -1.4838  0.0341 -3.6344
   35CHL1   C12 2547   2.694   6.235   4.407 -0.4493  0.1123 -1.0354
   35CHL1  H12A 2548   2.782   6.195   4.461 -2.6150 -0.4030  2.4173
   35CHL1  H12B 2549   2.606   6.168   4.421  0.1180 -0.3276  0.5879
   35CHL1   C11 2550   2.710   6.254   4.255 -0.1969  0.3172 -0.0066
   35CHL1  H11A 2551   2.809   6.303   4.244  0.3891 -0.5116  1.2857
   35CHL1  H11B 2552   2.714   6.152   4.210  1.4027  0.5423 -0.4480
   35CHL1    C9 2553   2.597   6.335   4.182 -0.4916  0.6397  0.1124
   35CHL1    H9 2554   2.521   6.255   4.195  0.8010 -0.7262 -0.4813
   35CHL1   C10 2555   2.603   6.357   4.028 -0.2478  0.1133  0.4892
   35CHL1   C19 2556   2.741   6.417   3.983  0.5725  0.5535  0.2779
   35CHL1  H19A 2557   2.753   6.517   4.030  0.4722  0.5215  0.3738
   35CHL1  H19B 2558   2.825   6.352   4.014 -0.2378 -0.0831  1.1993
   35CHL1  H19C 2559   2.749   6.417   3.872 -0.5666 -2.2390  0.1149
   35CHL1    C1 2560   2.577   6.223   3.950 -0.4424  0.0397  0.1277
   35CHL1   H1A 2561   2.652   6.149   3.986 -0.2722 -0.1291 -0.5552
   35CHL1   H1B 2562   2.477   6.188   3.985 -0.3581  0.1206  0.4517
   35CHL1    C2 2563   2.573   6.227   3.794 -0.1404  0.5350  0.3308
   35CHL1   H2A 2564   2.556   6.127   3.750  0.1848  0.4902  0.3023
   35CHL1   H2B 2565   2.669   6.271   3.760  0.5779  1.5490  3.3076
   35CHL1   C20 2566   2.653   6.324   4.746  0.4186 -0.4080  0.5403
   35CHL1   H20 2567   2.721   6.409   4.768 -0.1863  0.5697 -1.1442
   35CHL1   C21 2568   2.733   6.197   4.717 -0.4957 -0.1638  0.2288
   35CHL1  H21A 2569   2.763   6.137   4.805  0.2439  0.4104  0.3821
   35CHL1  H21B 2570   2.829   6.230   4.669 -0.5801  1.2989  1.0110
   35CHL1  H21C 2571   2.673   6.122   4.662  2.1160 -2.9285  0.8984
   35CHL1   C22 2572   2.559   6.300   4.866 -0.1331 -0.4897 -0.0746
   35CHL1  H22A 2573   2.457   6.271   4.832 -0.8208  0.2414  1.2680
   35CHL1  H22B 2574   2.575   6.201   4.915 -2.5947 -0.4112  1.0701
   35CHL1   C23 2575   2.559   6.417   4.971 -0.2680  0.0314  0.5180
   35CHL1  H23A 2576   2.666   6.438   4.989 -0.1084 -1.5464  1.6357
   35CHL1  H23B 2577   2.522   6.510   4.922 -2.1419 -1.1547 -0.4437
   35CHL1   C24 2578   2.478   6.392   5.097 -0.0526  0.0781 -0.1058
   35CHL1  H24A 2579   2.496   6.478   5.166 -1.3137  0.5308 -0.3098
   35CHL1  H24B 2580   2.371   6.384   5.066 -0.3291  1.0183  0.5495
   35CHL1   C25 2581   2.492   6.263   5.184 -0.5718  0.1923  0.5994
   35CHL1   H25 2582   2.495   6.171   5.121 -1.1583  1.1990 -0.9550
   35CHL1   C26 2583   2.637   6.253   5.242 -0.2062  0.3290 -0.0984
   35CHL1  H26A 2584   2.644   6.155   5.293 -0.2454  0.3186 -0.1125
   35CHL1  H26B 2585   2.714   6.260   5.161  0.9513  0.8870  1.0177
   35CHL1  H26C 2586   2.665   6.336   5.309 -0.9194 -0.6441  1.4504
   35CHL1   C27 2587   2.384   6.252   5.289  0.3520  0.2442 -0.8846
   35CHL1  H27A 2588   2.378   6.353   5.336 -1.4573  0.0521 -0.6142
   35CHL1  H27B 2589   2.285   6.256   5.239 -0.4727 -1.1871  0.5220
   35CHL1  H27C 2590   2.394   6.167   5.360  0.2558  0.7062 -0.3089
   36CHL1    C3 2591   6.137   4.881   3.547  0.7528  0.1076  0.7350
   36CHL1    H3 2592   6.156   4.990   3.541 -0.1357  0.2298 -0.2929
   36CHL1    O3 2593   6.125   4.831   3.408  0.1413  0.5410  0.0230
   36CHL1   H3' 2594   6.061   4.759   3.409 -1.6492  2.0448  1.3990
   36CHL1    C4 2595   6.256   4.816   3.618  0.1898 -0.5676  0.6188
   36CHL1   H4A 2596   6.239   4.707   3.623  1.0846 -0.6741  1.6352
   36CHL1   H4B 2597   6.338   4.843   3.548 -1.0298  0.6220 -0.4261
   36CHL1    C5 2598   6.279   4.866   3.757  0.0554 -0.3223 -0.0023
   36CHL1    C6 2599   6.391   4.932   3.785 -0.1518 -0.2626 -0.9032
   36CHL1    H6 2600   6.477   4.953   3.719 -0.2283 -1.5453 -1.4339
   36CHL1    C7 2601   6.416   4.991   3.916 -0.1946  0.2024  0.2569
   36CHL1   H7A 2602   6.516   4.978   3.964 -0.8289 -0.2640  1.5113
   36CHL1   H7B 2603   6.400   5.099   3.900 -1.3985  0.0440  0.2777
   36CHL1    C8 2604   6.313   4.943   4.026 -0.8426  0.6820  0.3406
   36CHL1    H8 2605   6.343   4.844   4.068 -0.4068 -0.1951 -1.8966
   36CHL1   C14 2606   6.322   5.039   4.139  0.6467 -0.3826  0.0928
   36CHL1   H14 2607   6.269   5.132   4.108 -0.4076 -0.7462  0.7357
   36CHL1   C15 2608   6.458   5.082   4.190 -0.3306 -0.1067 -0.3432
   36CHL1  H15A 2609   6.528   4.997   4.183  0.9560  0.9949 -1.4433
   36CHL1  H15B 2610   6.499   5.168   4.133  3.7952 -0.1170  2.1684
   36CHL1   C16 2611   6.429   5.123   4.336 -0.2330  0.5257 -0.5581
   36CHL1  H16A 2612   6.485   5.049   4.397  3.5067  0.9541 -3.1236
   36CHL1  H16B 2613   6.473   5.225   4.348  0.2525  0.1994  0.5376
   36CHL1   C17 2614   6.272   5.102   4.360  0.0247  0.2651 -0.6679
   36CHL1   H17 2615   6.228   5.196   4.322  1.0299  1.4373  0.9175
   36CHL1   C13 2616   6.238   4.993   4.260  0.1269  0.0534 -0.0459
   36CHL1   C18 2617   6.276   4.850   4.311  0.6730 -0.3267 -0.0065
   36CHL1  H18A 2618   6.229   4.822   4.408 -1.2075  1.3914 -0.3296
   36CHL1  H18B 2619   6.241   4.776   4.236  1.3764 -0.3277 -0.3334
   36CHL1  H18C 2620   6.386   4.842   4.302  0.5792 -0.9693 -0.6619
   36CHL1   C12 2621   6.092   4.995   4.221  0.9636 -0.8947 -0.2416
   36CHL1  H12A 2622   6.021   4.960   4.299  1.4761  1.0405  1.1348
   36CHL1  H12B 2623   6.071   5.103   4.205  2.4675 -0.3164  1.4189
   36CHL1   C11 2624   6.060   4.922   4.084  0.0039 -0.0422 -0.1595
   36CHL1  H11A 2625   6.069   4.815   4.112  0.3848 -0.0372 -0.2637
   36CHL1  H11B 2626   5.961   4.942   4.039  0.4347  0.3374 -0.9555
   36CHL1    C9 2627   6.167   4.944   3.975  0.4795 -0.2802 -0.0009
   36CHL1    H9 2628   6.157   5.050   3.944  0.0513  0.4863  2.5332
   36CHL1   C10 2629   6.150   4.857   3.845 -0.3429  0.2011  0.6155
   36CHL1   C19 2630   6.132   4.713   3.889  0.5441  0.0491 -0.3091
   36CHL1  H19A 2631   6.040   4.706   3.951  0.4847 -0.6081 -0.4715
   36CHL1  H19B 2632   6.145   4.643   3.803  4.2118  1.4047 -1.0798
   36CHL1  H19C 2633   6.214   4.681   3.957 -0.1677 -3.1864 -0.8098
   36CHL1    C1 2634   6.032   4.915   3.764 -0.0100 -0.8009 -0.4066
   36CHL1   H1A 2635   5.933   4.911   3.814  1.3253  1.4541  2.8207
   36CHL1   H1B 2636   6.064   5.020   3.746 -0.2308 -0.3905  1.4269
   36CHL1    C2 2637   6.007   4.848   3.623  0.5788 -0.0931 -0.1073
   36CHL1   H2A 2638   5.924   4.897   3.568 -0.5437 -1.0853  0.6472
   36CHL1   H2B 2639   5.982   4.740   3.629  1.9533 -0.3707  1.1523
   36CHL1   C20 2640   6.248   5.097   4.510  0.1069  0.0005  0.7984
   36CHL1   H20 2641   6.291   5.005   4.555 -1.7553 -1.3920 -0.1225
   36CHL1   C21 2642   6.101   5.093   4.553 -0.2629 -0.5316 -0.1981
   36CHL1  H21A 2643   6.033   5.009   4.528 -0.5590 -0.1431 -0.6985
   36CHL1  H21B 2644   6.055   5.192   4.532  0.4590 -0.2897 -0.6935
   36CHL1  H21C 2645   6.106   5.097   4.664 -0.0309  1.5857 -0.2378
   36CHL1   C22 2646   6.325   5.207   4.592 -0.3253 -0.0250 -0.3561
   36CHL1  H22A 2647   6.301   5.192   4.700 -2.9412  0.6406 -0.7736
   36CHL1  H22B 2648   6.435   5.194   4.583 -0.0407  0.9684  1.2223
   36CHL1   C23 2649   6.300   5.349   4.551 -0.4539  0.4548 -0.1175
   36CHL1  H23A 2650   6.375   5.391   4.481  1.1472 -0.3610  1.0382
   36CHL1  H23B 2651   6.200   5.354   4.504 -1.1454 -0.5130  1.1829
   36CHL1   C24 2652   6.302   5.452   4.674 -0.2255  0.1327  0.1305
   36CHL1  H24A 2653   6.257   5.547   4.638  0.7866  0.7470  0.4415
   36CHL1  H24B 2654   6.226   5.412   4.745  1.1343 -0.8975  1.0892
   36CHL1   C25 2655   6.435   5.484   4.743 -0.8085  0.0984 -0.2139
   36CHL1   H25 2656   6.487   5.387   4.726 -1.4334 -0.1021 -1.0629
   36CHL1   C26 2657   6.523   5.589   4.670  0.6244 -0.1234 -0.0907
   36CHL1  H26A 2658   6.495   5.694   4.692  2.7677  0.0723  2.0184
   36CHL1  H26B 2659   6.628   5.569   4.699  0.2030  0.2080  1.7968
   36CHL1  H26C 2660   6.512   5.567   4.561  1.2348  1.1834 -0.4367
   36CHL1   C27 2661   6.419   5.517   4.892 -0.3397 -0.4671  0.1853
   36CHL1  H27A 2662   6.378   5.618   4.910  1.8177  0.4943 -0.0846
   36CHL1  H27B 2663   6.361   5.443   4.952 -1.3091  1.8181  2.2592
   36CHL1  H27C 2664   6.522   5.518   4.932 -0.1984  2.1171 -0.0919
   37CHL1    C3 2665   0.649   0.886   3.956  0.3870 -0.0523 -0.0291
   37CHL1    H3 2666   0.660   0.983   4.009 -2.3156  0.1649  0.2719
   37CHL1    O3 2667   0.678   0.904   3.820  0.1941 -0.4054  0.0078
   37CHL1   H3' 2668   0.641   0.831   3.770 -1.0972  0.4737 -0.3634
   37CHL1    C4 2669   0.751   0.794   4.027 -0.2311 -1.1445  0.1804
   37CHL1   H4A 2670   0.763   0.696   3.977  0.8738 -0.7053 -0.4697
   37CHL1   H4B 2671   0.846   0.850   4.011 -0.1174  0.1327  4.2044
   37CHL1    C5 2672   0.714   0.784   4.174 -0.3362  0.9047  0.0198
   37CHL1    C6 2673   0.808   0.812   4.267  0.8919  1.1850 -0.0078
   37CHL1    H6 2674   0.913   0.823   4.237  0.0353  1.6923 -3.0797
   37CHL1    C7 2675   0.783   0.803   4.411  0.1395 -0.7072 -0.3003
   37CHL1   H7A 2676   0.873   0.753   4.452  2.6609  0.9210 -3.3805
   37CHL1   H7B 2677   0.766   0.906   4.450 -0.1542 -1.5659  1.9700
   37CHL1    C8 2678   0.650   0.729   4.443 -0.2837 -0.5136  0.1525
   37CHL1    H8 2679   0.671   0.620   4.447  1.5202 -0.2170 -0.3983
   37CHL1   C14 2680   0.618   0.763   4.590 -0.3131  0.0015  0.1897
   37CHL1   H14 2681   0.610   0.873   4.598 -0.8907 -0.1662  2.9754
   37CHL1   C15 2682   0.727   0.739   4.694 -0.2682  0.1717  0.5573
   37CHL1  H15A 2683   0.765   0.635   4.685  2.2125  1.0781 -0.2855
   37CHL1  H15B 2684   0.810   0.813   4.692 -0.1609  0.0584  0.8445
   37CHL1   C16 2685   0.654   0.754   4.825  0.0844  0.0889 -0.1688
   37CHL1  H16A 2686   0.656   0.664   4.891 -3.6778 -0.2451 -0.3191
   37CHL1  H16B 2687   0.692   0.844   4.879  0.6608  0.6939 -1.5175
   37CHL1   C17 2688   0.505   0.782   4.781 -0.1440  0.4111 -0.2174
   37CHL1   H17 2689   0.508   0.890   4.753  1.2892  0.4292 -0.1041
   37CHL1   C13 2690   0.484   0.716   4.645 -0.6925 -0.0399  0.2584
   37CHL1   C18 2691   0.496   0.565   4.646  0.0119  0.5089 -0.1554
   37CHL1  H18A 2692   0.582   0.528   4.705  0.3230  2.4458  0.6932
   37CHL1  H18B 2693   0.399   0.535   4.690  0.5347 -0.3949  0.3898
   37CHL1  H18C 2694   0.499   0.527   4.541 -0.9030  1.1189 -0.4248
   37CHL1   C12 2695   0.377   0.767   4.547 -0.6592 -0.6843  0.1902
   37CHL1  H12A 2696   0.279   0.736   4.590  0.0643 -0.2936  2.2048
   37CHL1  H12B 2697   0.383   0.878   4.541 -3.0027 -0.4850  0.4617
   37CHL1   C11 2698   0.403   0.712   4.411 -0.0994 -0.4570  0.6233
   37CHL1  H11A 2699   0.397   0.601   4.405  2.2680 -0.5705 -0.7412
   37CHL1  H11B 2700   0.323   0.742   4.340  0.8720  0.0824 -0.2648
   37CHL1    C9 2701   0.536   0.768   4.355  0.3241  0.7686 -0.4902
   37CHL1    H9 2702   0.534   0.879   4.366  0.5426  0.8103 -0.8526
   37CHL1   C10 2703   0.568   0.735   4.201  0.2078 -0.4328 -0.9934
   37CHL1   C19 2704   0.544   0.585   4.173 -0.2662 -0.1085 -0.3726
   37CHL1  H19A 2705   0.560   0.537   4.272 -2.6145  3.1960  1.8536
   37CHL1  H19B 2706   0.440   0.561   4.140 -0.9862  1.9681  0.2123
   37CHL1  H19C 2707   0.611   0.543   4.095  0.7257 -0.7009  0.7640
   37CHL1    C1 2708   0.464   0.819   4.119  0.2094 -0.0757  0.0723
   37CHL1   H1A 2709   0.361   0.779   4.107 -0.4846  2.1420 -2.1458
   37CHL1   H1B 2710   0.455   0.926   4.147 -2.1205 -0.2495  0.2464
   37CHL1    C2 2711   0.508   0.827   3.970 -0.1491 -0.8504 -0.4491
   37CHL1   H2A 2712   0.432   0.892   3.922 -1.9379 -1.6608  1.1647
   37CHL1   H2B 2713   0.509   0.728   3.918  1.7754 -0.8310 -0.5372
   37CHL1   C20 2714   0.405   0.758   4.888 -0.1794 -0.1714  0.6132
   37CHL1   H20 2715   0.302   0.754   4.846 -0.8363  2.2288  1.8585
   37CHL1   C21 2716   0.405   0.881   4.981 -0.0531  0.3787  0.3519
   37CHL1  H21A 2717   0.323   0.881   5.057  0.5708  1.8528  1.0600
   37CHL1  H21B 2718   0.365   0.959   4.913 -1.3962 -0.8465 -0.3393
   37CHL1  H21C 2719   0.496   0.916   5.035 -1.0524  0.1797  2.2821
   37CHL1   C22 2720   0.436   0.627   4.960 -0.0978 -0.3886 -0.4676
   37CHL1  H22A 2721   0.473   0.540   4.901 -0.0331 -2.0942  1.8938
   37CHL1  H22B 2722   0.512   0.655   5.036  1.8425 -1.1407 -2.0391
   37CHL1   C23 2723   0.314   0.573   5.042 -0.6075 -0.0480  0.2095
   37CHL1  H23A 2724   0.264   0.655   5.098  0.0727 -0.0701  0.8731
   37CHL1  H23B 2725   0.249   0.514   4.974  0.1700 -0.9803  0.2515
   37CHL1   C24 2726   0.368   0.496   5.159  0.7577 -0.2769  0.3045
   37CHL1  H24A 2727   0.414   0.403   5.121 -0.5082 -0.1550 -1.6595
   37CHL1  H24B 2728   0.446   0.554   5.213 -0.0830 -1.1679  2.6160
   37CHL1   C25 2729   0.265   0.442   5.256 -0.3840 -0.3185  0.4330
   37CHL1   H25 2730   0.210   0.531   5.294  2.9615  1.3565  1.8433
   37CHL1   C26 2731   0.166   0.346   5.182  0.4672  0.7088 -0.5980
   37CHL1  H26A 2732   0.106   0.394   5.101  0.0505 -0.8562 -1.2469
   37CHL1  H26B 2733   0.225   0.258   5.148 -0.1170 -0.3904  1.0878
   37CHL1  H26C 2734   0.084   0.310   5.247  2.6142 -2.8497  0.4073
   37CHL1   C27 2735   0.325   0.364   5.372 -0.3870 -0.4835 -0.3057
   37CHL1  H27A 2736   0.249   0.355   5.452 -0.9848 -1.3408 -0.9597
   37CHL1  H27B 2737   0.367   0.263   5.350 -1.0933 -0.6003 -1.1853
   37CHL1  H27C 2738   0.407   0.432   5.405 -0.1379 -1.0006  0.1797
   38CHL1    C3 2739   4.490   5.577   3.535  0.1220  0.0780 -0.1091
   38CHL1    H3 2740   4.596   5.582   3.568  0.2450  0.6065 -0.5664
   38CHL1    O3 2741   4.496   5.610   3.399  0.7997 -0.0063 -0.0707
   38CHL1   H3' 2742   4.580   5.654   3.384 -0.8171  2.8724 -1.5119
   38CHL1    C4 2743   4.434   5.436   3.559 -0.0173  0.3937  0.4858
   38CHL1   H4A 2744   4.331   5.430   3.519 -0.1893  0.4075  0.9233
   38CHL1   H4B 2745   4.501   5.367   3.502 -0.0052  0.5060  0.3650
   38CHL1    C5 2746   4.429   5.395   3.705 -0.4433  0.3769 -0.1341
   38CHL1    C6 2747   4.504   5.296   3.759  0.3175 -0.4176 -0.4763
   38CHL1    H6 2748   4.572   5.235   3.697  1.2458  0.6440 -0.5331
   38CHL1    C7 2749   4.509   5.258   3.906 -0.3445 -0.0371 -0.3683
   38CHL1   H7A 2750   4.515   5.147   3.917  0.8560 -0.1261 -1.6269
   38CHL1   H7B 2751   4.593   5.316   3.951 -1.0441  1.6547 -1.1907
   38CHL1    C8 2752   4.387   5.319   3.976 -0.3184 -0.2701 -0.8224
   38CHL1    H8 2753   4.292   5.268   3.949 -0.5819 -0.5006  0.4739
   38CHL1   C14 2754   4.414   5.308   4.125 -0.4897 -0.8790 -0.1097
   38CHL1   H14 2755   4.513   5.353   4.143 -0.8620 -1.4209  4.4411
   38CHL1   C15 2756   4.432   5.167   4.182  0.1462  0.5801 -0.7504
   38CHL1  H15A 2757   4.357   5.107   4.125  0.1904  0.4771 -0.7003
   38CHL1  H15B 2758   4.538   5.138   4.162 -0.1574  0.3063 -2.0793
   38CHL1   C16 2759   4.399   5.185   4.329 -0.4534  0.3233  0.0401
   38CHL1  H16A 2760   4.313   5.122   4.361  1.5827 -3.0104 -0.5634
   38CHL1  H16B 2761   4.483   5.160   4.398 -0.4438  0.3065  0.0223
   38CHL1   C17 2762   4.370   5.334   4.348 -0.3292 -0.2628  0.1020
   38CHL1   H17 2763   4.470   5.381   4.358 -0.7759  0.7712 -0.2020
   38CHL1   C13 2764   4.310   5.379   4.215  0.0182  0.0957 -0.2511
   38CHL1   C18 2765   4.170   5.314   4.198 -0.5959 -0.2237  0.1469
   38CHL1  H18A 2766   4.164   5.205   4.220  1.2409 -0.1561  1.2212
   38CHL1  H18B 2767   4.108   5.370   4.271  0.0021 -0.2603  0.6968
   38CHL1  H18C 2768   4.140   5.324   4.092 -0.8183 -1.4036  0.0799
   38CHL1   C12 2769   4.300   5.533   4.183  0.1610 -0.1571  0.5309
   38CHL1  H12A 2770   4.206   5.563   4.233 -0.3315 -0.1617 -0.3714
   38CHL1  H12B 2771   4.386   5.588   4.226 -0.9710  2.2998 -0.1919
   38CHL1   C11 2772   4.282   5.551   4.034  0.5192  0.3830 -0.5716
   38CHL1  H11A 2773   4.174   5.539   4.012  0.2626 -0.6492  1.0718
   38CHL1  H11B 2774   4.293   5.661   4.025 -1.0490  0.5215 -0.9588
   38CHL1    C9 2775   4.369   5.465   3.937 -0.0227  0.7864 -0.2129
   38CHL1    H9 2776   4.474   5.495   3.958 -0.0346  0.3665  0.4622
   38CHL1   C10 2777   4.344   5.489   3.788 -0.6796 -1.2531  0.6975
   38CHL1   C19 2778   4.195   5.469   3.749  0.1556  0.7436  0.3780
   38CHL1  H19A 2779   4.153   5.372   3.785  0.1998 -0.2498 -2.0756
   38CHL1  H19B 2780   4.138   5.558   3.783 -1.3917  0.3345 -1.0458
   38CHL1  H19C 2781   4.174   5.461   3.641 -0.1448 -0.2936  0.4942
   38CHL1    C1 2782   4.381   5.639   3.765  0.0245 -0.2405 -0.5850
   38CHL1   H1A 2783   4.299   5.704   3.802 -0.6241 -1.2955 -0.1207
   38CHL1   H1B 2784   4.474   5.676   3.813  0.5226  2.3055 -3.2100
   38CHL1    C2 2785   4.392   5.675   3.614 -0.4465 -0.1091  0.0315
   38CHL1   H2A 2786   4.436   5.776   3.598 -0.7194  0.1395  0.8018
   38CHL1   H2B 2787   4.288   5.669   3.576 -1.5173  0.5930  2.6192
   38CHL1   C20 2788   4.304   5.367   4.485  0.3129  0.3200  0.3224
   38CHL1   H20 2789   4.201   5.325   4.484  0.0565  0.9369  0.2921
   38CHL1   C21 2790   4.299   5.525   4.504  0.1186  0.1276 -0.1359
   38CHL1  H21A 2791   4.401   5.569   4.509 -0.0217  0.5367 -0.7861
   38CHL1  H21B 2792   4.248   5.543   4.601 -0.9226  0.8506 -0.8075
   38CHL1  H21C 2793   4.236   5.572   4.426 -1.3285  1.7839  1.9054
   38CHL1   C22 2794   4.377   5.302   4.606  0.1163 -0.5131 -0.3307
   38CHL1  H22A 2795   4.395   5.194   4.589  0.9176 -0.7389  1.6509
   38CHL1  H22B 2796   4.476   5.351   4.620  0.0062 -0.7156  1.4931
   38CHL1   C23 2797   4.298   5.320   4.737 -0.0533 -0.4116 -0.0399
   38CHL1  H23A 2798   4.259   5.420   4.764 -1.9239 -1.1755  0.2995
   38CHL1  H23B 2799   4.202   5.263   4.731 -0.9503  1.0029  0.4876
   38CHL1   C24 2800   4.380   5.275   4.854 -0.2374  0.2071 -0.4183
   38CHL1  H24A 2801   4.408   5.167   4.845 -1.2382  0.0178 -1.4687
   38CHL1  H24B 2802   4.472   5.338   4.857 -1.7600  2.4740  0.5472
   38CHL1   C25 2803   4.324   5.281   4.998  0.6012 -1.0222  0.4278
   38CHL1   H25 2804   4.234   5.216   4.989  0.0235 -0.1591 -0.1187
   38CHL1   C26 2805   4.426   5.221   5.092  0.0703  0.0622 -0.2750
   38CHL1  H26A 2806   4.516   5.286   5.095 -0.6834  1.1519 -0.7560
   38CHL1  H26B 2807   4.389   5.221   5.197  3.5198  0.0291  1.0532
   38CHL1  H26C 2808   4.463   5.122   5.059  0.3350 -0.3396  1.1910
   38CHL1   C27 2809   4.276   5.418   5.046 -0.4481  0.0131 -0.5112
   38CHL1  H27A 2810   4.352   5.499   5.053 -0.4276 -0.0024 -0.5624
   38CHL1  H27B 2811   4.194   5.464   4.987 -1.1628  1.3360  1.3827
   38CHL1  H27C 2812   4.249   5.409   5.154  1.9461  1.5289  0.2897
   39CHL1    C3 2813   3.370   2.134   7.106 -0.3311  0.5093 -0.5197
   39CHL1    H3 2814   3.460   2.068   7.099 -1.8544 -1.7098 -0.0033
   39CHL1    O3 2815   3.344   2.166   7.240  0.4446 -0.1714 -0.1157
   39CHL1   H3' 2816   3.291   2.246   7.246  0.3483 -0.1855 -0.7472
   39CHL1    C4 2817   3.413   2.257   7.025  0.2167  0.3543  0.7542
   39CHL1   H4A 2818   3.337   2.338   7.027 -0.8492 -0.6324  1.0061
   39CHL1   H4B 2819   3.495   2.307   7.080  0.5748  0.6339 -0.0146
   39CHL1    C5 2820   3.441   2.232   6.875  0.2354  0.4245  0.6805
   39CHL1    C6 2821   3.554   2.271   6.823 -0.1602 -0.6392  0.5064
   39CHL1    H6 2822   3.622   2.330   6.886  0.8487  0.3844 -1.4535
   39CHL1    C7 2823   3.582   2.270   6.673 -0.1493 -0.2073  0.9219
   39CHL1   H7A 2824   3.634   2.360   6.633 -0.7096 -0.6343 -0.8880
   39CHL1   H7B 2825   3.650   2.185   6.652  0.4361 -0.4433  3.4295
   39CHL1    C8 2826   3.457   2.229   6.585  0.6907 -0.0076 -0.3678
   39CHL1    H8 2827   3.383   2.312   6.582  0.4906 -0.1960 -0.6650
   39CHL1   C14 2828   3.496   2.177   6.446  0.3167 -0.3027 -1.0023
   39CHL1   H14 2829   3.555   2.086   6.470  0.0666 -0.1993  0.0555
   39CHL1   C15 2830   3.597   2.266   6.362  0.9334  0.7054  0.0876
   39CHL1  H15A 2831   3.550   2.364   6.342  0.2904  0.3956  0.0471
   39CHL1  H15B 2832   3.698   2.267   6.408  0.1265  0.7523  1.9205
   39CHL1   C16 2833   3.593   2.198   6.220  0.2315  0.4295  0.2740
   39CHL1  H16A 2834   3.572   2.277   6.146 -1.5327  1.7555  2.0665
   39CHL1  H16B 2835   3.691   2.147   6.211  0.5560  0.5303  2.5667
   39CHL1   C17 2836   3.462   2.109   6.223  0.2634 -0.1352  0.2734
   39CHL1   H17 2837   3.491   2.004   6.247  1.0287 -0.0309 -0.1365
   39CHL1   C13 2838   3.382   2.138   6.352 -0.8784  0.0786  0.3540
   39CHL1   C18 2839   3.286   2.255   6.329  0.4515  0.8033  0.3148
   39CHL1  H18A 2840   3.332   2.336   6.269  0.5996  1.0084  0.7034
   39CHL1  H18B 2841   3.195   2.216   6.279  1.7708  0.0691 -1.6263
   39CHL1  H18C 2842   3.254   2.303   6.424 -1.5516 -0.8401  0.5514
   39CHL1   C12 2843   3.310   2.027   6.421  0.0046 -0.0804 -0.0778
   39CHL1  H12A 2844   3.218   2.028   6.358  0.1007  0.7655 -0.2179
   39CHL1  H12B 2845   3.362   1.929   6.410 -0.3763 -0.2506 -0.4355
   39CHL1   C11 2846   3.266   2.061   6.565 -0.4021  0.6737  0.6699
   39CHL1  H11A 2847   3.175   2.125   6.564 -0.8289  0.0759  0.6838
   39CHL1  H11B 2848   3.241   1.963   6.611  2.6233  0.1235  1.3167
   39CHL1    C9 2849   3.375   2.116   6.654  0.1600 -0.0011 -0.6924
   39CHL1    H9 2850   3.447   2.033   6.672 -0.6099 -0.4369  0.4986
   39CHL1   C10 2851   3.331   2.154   6.797 -0.8388  0.4207 -0.8604
   39CHL1   C19 2852   3.214   2.254   6.795  0.1402 -0.3642 -0.5264
   39CHL1  H19A 2853   3.125   2.209   6.747  0.7234 -1.0816 -0.9730
   39CHL1  H19B 2854   3.186   2.289   6.897  2.0992  0.6996 -0.3093
   39CHL1  H19C 2855   3.235   2.348   6.741 -0.6090  0.6988  0.9627
   39CHL1    C1 2856   3.292   2.031   6.884  0.5373 -0.2016  0.0008
   39CHL1   H1A 2857   3.201   1.976   6.852  0.0873  1.1200 -1.1153
   39CHL1   H1B 2858   3.377   1.961   6.872  0.7728  0.1793 -0.6179
   39CHL1    C2 2859   3.255   2.059   7.034 -0.4811 -0.4781  0.2757
   39CHL1   H2A 2860   3.239   1.952   7.062 -1.7587 -0.6670 -1.0379
   39CHL1   H2B 2861   3.160   2.115   7.044 -0.6702 -0.6814 -0.3153
   39CHL1   C20 2862   3.384   2.089   6.095  0.4758 -0.2178 -0.4084
   39CHL1   H20 2863   3.285   2.047   6.123 -0.5713  1.1826 -1.7721
   39CHL1   C21 2864   3.463   1.996   6.015  0.1699 -0.2863  0.1705
   39CHL1  H21A 2865   3.523   1.922   6.073 -1.6524 -0.0163  2.5354
   39CHL1  H21B 2866   3.543   2.052   5.963  0.6782 -3.2714 -2.5976
   39CHL1  H21C 2867   3.409   1.944   5.933  1.9835 -0.1073 -1.1944
   39CHL1   C22 2868   3.351   2.211   6.005 -0.1064 -0.6125  0.7501
   39CHL1  H22A 2869   3.296   2.288   6.065  1.3184  1.8898 -0.9444
   39CHL1  H22B 2870   3.447   2.259   5.976 -0.8529  0.8321  0.5562
   39CHL1   C23 2871   3.256   2.183   5.882  0.2751 -0.3224  0.3051
   39CHL1  H23A 2872   3.314   2.117   5.814  1.3047 -1.4470  2.2180
   39CHL1  H23B 2873   3.163   2.126   5.900  0.3728 -0.9135 -0.9191
   39CHL1   C24 2874   3.213   2.309   5.802 -0.0859 -0.2928 -0.0895
   39CHL1  H24A 2875   3.158   2.384   5.863 -0.2259  2.4021 -3.2505
   39CHL1  H24B 2876   3.305   2.368   5.782 -0.5951  0.1636 -1.1764
   39CHL1   C25 2877   3.120   2.273   5.681 -0.4733 -1.0713 -0.2784
   39CHL1   H25 2878   3.061   2.184   5.712  0.0690 -1.0227  0.9134
   39CHL1   C26 2879   3.014   2.381   5.642  0.2484 -0.1973 -0.7097
   39CHL1  H26A 2880   2.951   2.411   5.729 -2.3849 -1.2123 -2.1520
   39CHL1  H26B 2881   3.066   2.472   5.605  1.6728  0.7061  3.0259
   39CHL1  H26C 2882   2.941   2.341   5.569  2.2543 -0.9765 -2.3977
   39CHL1   C27 2883   3.203   2.215   5.563  0.4808 -0.1420 -0.8117
   39CHL1  H27A 2884   3.155   2.205   5.463  0.5097 -0.2069 -0.8199
   39CHL1  H27B 2885   3.277   2.298   5.554 -0.6479  1.5021  3.1004
   39CHL1  H27C 2886   3.269   2.130   5.589  1.0051  0.6210  0.4713
   40CHL1    C3 2887   0.658   5.478   3.997 -0.1702 -0.2428 -0.1350
   40CHL1    H3 2888   0.704   5.577   3.976 -0.6130 -0.3159 -1.5312
   40CHL1    O3 2889   0.643   5.416   3.877  0.2615  0.6400 -0.2062
   40CHL1   H3' 2890   0.731   5.413   3.838  0.2159  0.7575 -0.3201
   40CHL1    C4 2891   0.742   5.382   4.075 -0.2725  0.1448  0.0588
   40CHL1   H4A 2892   0.680   5.291   4.062  0.0237  0.1406 -1.5458
   40CHL1   H4B 2893   0.841   5.360   4.030  0.5341  1.0407  1.3248
   40CHL1    C5 2894   0.750   5.432   4.219  0.8079 -0.4384  1.1161
   40CHL1    C6 2895   0.873   5.448   4.276  0.0453  0.2563 -0.1401
   40CHL1    H6 2896   0.965   5.427   4.219  0.7479 -1.3972  1.4935
   40CHL1    C7 2897   0.894   5.485   4.420 -0.5959  0.3024  0.0355
   40CHL1   H7A 2898   0.978   5.423   4.459 -0.8699 -0.0076  0.1331
   40CHL1   H7B 2899   0.945   5.584   4.418 -0.3375  0.1631 -0.4328
   40CHL1    C8 2900   0.771   5.473   4.508  0.1116  0.9672 -0.1858
   40CHL1    H8 2901   0.750   5.365   4.521 -1.2541  1.1032 -1.1150
   40CHL1   C14 2902   0.792   5.534   4.642 -0.1960 -0.5422 -0.2645
   40CHL1   H14 2903   0.815   5.640   4.615 -1.4172 -0.3410 -0.5757
   40CHL1   C15 2904   0.899   5.481   4.738  0.3097  0.0001  0.3092
   40CHL1  H15A 2905   0.895   5.370   4.735 -1.1073  0.0193  0.8685
   40CHL1  H15B 2906   1.005   5.506   4.716  0.4292 -0.5912  0.1895
   40CHL1   C16 2907   0.862   5.533   4.874 -1.1380 -0.3280 -0.4732
   40CHL1  H16A 2908   0.880   5.450   4.946  0.9601  0.4463 -0.0464
   40CHL1  H16B 2909   0.927   5.615   4.911 -0.5982 -0.7841 -0.3868
   40CHL1   C17 2910   0.722   5.599   4.858  0.3186 -0.5851 -0.5824
   40CHL1   H17 2911   0.738   5.707   4.838  2.2191 -0.9777 -1.3897
   40CHL1   C13 2912   0.665   5.542   4.725 -0.0397  0.4700  0.5475
   40CHL1   C18 2913   0.628   5.403   4.758  0.0015  0.3193 -0.0277
   40CHL1  H18A 2914   0.696   5.354   4.831 -1.3306 -1.7819 -0.0958
   40CHL1  H18B 2915   0.525   5.411   4.798 -0.6484  0.0249 -1.5620
   40CHL1  H18C 2916   0.619   5.333   4.671  0.6936  0.1411  0.0329
   40CHL1   C12 2917   0.553   5.618   4.649  0.4490  0.0736 -0.3464
   40CHL1  H12A 2918   0.454   5.615   4.699  1.2638 -0.7506  1.2963
   40CHL1  H12B 2919   0.590   5.719   4.623 -0.6657  0.4094 -0.7001
   40CHL1   C11 2920   0.524   5.537   4.521  0.2886 -1.0347 -0.6446
   40CHL1  H11A 2921   0.493   5.436   4.556  0.1742  0.0457  2.7331
   40CHL1  H11B 2922   0.437   5.586   4.474  0.9852  1.3910  0.4286
   40CHL1    C9 2923   0.655   5.533   4.428  0.2937 -0.2090 -0.5081
   40CHL1    H9 2924   0.682   5.638   4.400 -0.0164 -0.4369 -1.7172
   40CHL1   C10 2925   0.620   5.467   4.286 -0.1355 -0.0443 -0.5108
   40CHL1   C19 2926   0.537   5.344   4.320 -0.6825 -0.4183 -0.2875
   40CHL1  H19A 2927   0.429   5.371   4.332  0.1575  2.9496  0.6992
   40CHL1  H19B 2928   0.533   5.262   4.245 -3.5864 -1.1456  0.5082
   40CHL1  H19C 2929   0.565   5.297   4.417  0.3488 -0.6801 -0.7081
   40CHL1    C1 2930   0.539   5.563   4.198 -0.0335  0.7377  0.2962
   40CHL1   H1A 2931   0.439   5.585   4.241 -0.2797 -0.5978  0.4482
   40CHL1   H1B 2932   0.594   5.660   4.196 -0.9468  1.2843 -1.8911
   40CHL1    C2 2933   0.519   5.512   4.058  0.1352 -0.5392 -0.1909
   40CHL1   H2A 2934   0.465   5.586   3.996 -0.7120 -0.8906  0.1015
   40CHL1   H2B 2935   0.460   5.417   4.055 -0.8488  0.0379  0.4240
   40CHL1   C20 2936   0.627   5.594   4.986 -0.0839  0.5254  0.2238
   40CHL1   H20 2937   0.611   5.486   5.009 -2.7947  1.3008  2.5197
   40CHL1   C21 2938   0.492   5.658   4.950  0.5000  0.0008 -0.2441
   40CHL1  H21A 2939   0.428   5.673   5.040 -0.0039 -0.8571 -0.4433
   40CHL1  H21B 2940   0.425   5.598   4.885  0.6253 -1.1057  0.6185
   40CHL1  H21C 2941   0.501   5.756   4.898 -2.1077  0.9841  0.9558
   40CHL1   C22 2942   0.680   5.659   5.117 -0.4261  0.3481  0.0738
   40CHL1  H22A 2943   0.785   5.628   5.136 -0.2478  0.8907  0.0001
   40CHL1  H22B 2944   0.687   5.770   5.106  2.0070  0.5423  2.4238
   40CHL1   C23 2945   0.594   5.636   5.243 -0.6062 -0.4760 -0.0564
   40CHL1  H23A 2946   0.508   5.706   5.251  0.5989  1.0117  0.4781
   40CHL1  H23B 2947   0.561   5.530   5.243 -2.3610  0.0392  0.6791
   40CHL1   C24 2948   0.676   5.663   5.376  0.1606  0.9738  0.1313
   40CHL1  H24A 2949   0.779   5.625   5.358 -0.0853 -0.0424  0.7959
   40CHL1  H24B 2950   0.684   5.773   5.387  0.2120  0.7506  3.1898
   40CHL1   C25 2951   0.615   5.599   5.498  0.0086  0.4557 -1.0453
   40CHL1   H25 2952   0.606   5.488   5.496 -1.3834  0.5087  0.2618
   40CHL1   C26 2953   0.696   5.642   5.624 -0.0723 -0.8496  0.8419
   40CHL1  H26A 2954   0.715   5.751   5.615 -0.7425 -0.8938 -2.8521
   40CHL1  H26B 2955   0.635   5.614   5.712 -0.9864 -2.0941 -0.1365
   40CHL1  H26C 2956   0.785   5.576   5.622  0.4739 -0.1659 -1.5730
   40CHL1   C27 2957   0.477   5.656   5.511 -1.2048 -0.3260 -0.0737
   40CHL1  H27A 2958   0.436   5.640   5.613 -0.8915 -1.8984 -0.1573
   40CHL1  H27B 2959   0.469   5.763   5.485 -0.5545 -0.0699  0.7438
   40CHL1  H27C 2960   0.411   5.611   5.434 -1.3026  0.1689 -0.2797
   41CHL1    C3 2961   4.784   0.292   3.633 -0.1504  0.4381  0.6000
   41CHL1    H3 2962   4.851   0.204   3.645 -0.6536 -0.4084 -2.1210
   41CHL1    O3 2963   4.777   0.327   3.497  0.0189 -0.0110  0.5677
   41CHL1   H3' 2964   4.725   0.407   3.485  0.0494 -0.0399  0.2262
   41CHL1    C4 2965   4.649   0.244   3.682  0.2977  0.4218 -0.0777
   41CHL1   H4A 2966   4.575   0.324   3.664  0.1404  0.4100  0.5097
   41CHL1   H4B 2967   4.618   0.151   3.630  2.3037 -0.4421  0.1632
   41CHL1    C5 2968   4.622   0.223   3.831 -1.5037  0.9356 -0.2038
   41CHL1    C6 2969   4.573   0.103   3.877  0.2703 -0.3792  0.6116
   41CHL1    H6 2970   4.548   0.024   3.805  3.9588 -2.0426  0.9017
   41CHL1    C7 2971   4.549   0.077   4.023  0.3253  1.2058  0.4065
   41CHL1   H7A 2972   4.444   0.053   4.052  0.2130  2.4225  1.0841
   41CHL1   H7B 2973   4.607  -0.015   4.047  0.0539  0.4127 -1.7729
   41CHL1    C8 2974   4.587   0.196   4.119 -0.0564 -0.4232 -0.2534
   41CHL1    H8 2975   4.498   0.261   4.131 -0.2035 -0.7669  0.5193
   41CHL1   C14 2976   4.623   0.129   4.251 -0.3465 -0.6823 -0.3247
   41CHL1   H14 2977   4.720   0.074   4.246  1.4784  2.3083 -0.0123
   41CHL1   C15 2978   4.524   0.024   4.313  0.4978  0.4659  0.6272
   41CHL1  H15A 2979   4.418   0.053   4.304  0.1831 -1.0951 -1.7168
   41CHL1  H15B 2980   4.535  -0.078   4.269 -0.8403  0.3768  0.4703
   41CHL1   C16 2981   4.564   0.015   4.460 -0.2362  0.1786 -0.5804
   41CHL1  H16A 2982   4.475   0.011   4.526  0.3860 -2.1677  0.2182
   41CHL1  H16B 2983   4.624  -0.078   4.469 -0.2872  0.0178 -1.8144
   41CHL1   C17 2984   4.663   0.134   4.487  0.3425 -0.0175 -0.7620
   41CHL1   H17 2985   4.765   0.095   4.463  0.3123  1.3691 -3.5972
   41CHL1   C13 2986   4.640   0.235   4.368  0.1142  0.1644 -0.3219
   41CHL1   C18 2987   4.510   0.314   4.393 -0.0147 -0.5290 -0.7501
   41CHL1  H18A 2988   4.497   0.390   4.313  1.8559 -0.4039 -0.9574
   41CHL1  H18B 2989   4.425   0.242   4.397 -1.8310  1.5193  1.7100
   41CHL1  H18C 2990   4.514   0.375   4.486 -1.3197 -0.6032 -0.6275
   41CHL1   C12 2991   4.759   0.324   4.327  0.1712  0.6769 -0.6901
   41CHL1  H12A 2992   4.767   0.414   4.391 -0.5649  0.3031 -0.0531
   41CHL1  H12B 2993   4.851   0.262   4.335 -0.0102  0.6364  1.8131
   41CHL1   C11 2994   4.746   0.379   4.183 -0.1674  0.0277  0.3492
   41CHL1  H11A 2995   4.669   0.459   4.183 -0.7437 -0.5136  1.4013
   41CHL1  H11B 2996   4.843   0.419   4.144 -0.5247  1.2210  0.6384
   41CHL1    C9 2997   4.701   0.277   4.075 -0.1975 -0.5076 -0.5929
   41CHL1    H9 2998   4.780   0.199   4.064  0.3552  0.3096 -3.0362
   41CHL1   C10 2999   4.691   0.330   3.923 -0.4470  0.0256 -0.2792
   41CHL1   C19 3000   4.600   0.457   3.937 -0.2116  0.1060  0.3983
   41CHL1  H19A 3001   4.590   0.489   3.831 -0.0887 -0.5919  0.1660
   41CHL1  H19B 3002   4.498   0.425   3.967  0.4511 -0.8719  1.7141
   41CHL1  H19C 3003   4.640   0.538   4.002 -0.0624  0.5083 -0.1817
   41CHL1    C1 3004   4.827   0.375   3.870 -0.5440  0.5519 -0.3259
   41CHL1   H1A 3005   4.849   0.461   3.936 -2.9825  1.1154 -0.1806
   41CHL1   H1B 3006   4.903   0.294   3.883 -1.5179 -0.1090  1.5775
   41CHL1    C2 3007   4.833   0.405   3.720 -0.0384  0.1767 -0.3893
   41CHL1   H2A 3008   4.936   0.420   3.682 -0.9380 -0.0262 -3.0850
   41CHL1   H2B 3009   4.777   0.498   3.701 -1.3163 -0.5106 -0.1023
   41CHL1   C20 3010   4.649   0.185   4.625  0.0948  0.5438 -0.5041
   41CHL1   H20 3011   4.555   0.240   4.650  0.1754  1.4305 -2.0124
   41CHL1   C21 3012   4.757   0.293   4.660  0.0262  0.8282  0.1747
   41CHL1  H21A 3013   4.765   0.324   4.766  0.3259  4.8177 -0.8599
   41CHL1  H21B 3014   4.735   0.388   4.607 -0.4961  1.3899  1.3789
   41CHL1  H21C 3015   4.854   0.249   4.628 -0.4393  0.3465 -0.6401
   41CHL1   C22 3016   4.665   0.071   4.726 -0.1097 -0.0670 -0.5083
   41CHL1  H22A 3017   4.634  -0.029   4.691 -0.4672  0.3451 -1.4160
   41CHL1  H22B 3018   4.774   0.071   4.746 -0.0559  1.9983 -0.5605
   41CHL1   C23 3019   4.601   0.112   4.863  0.0553  0.8077 -0.2868
   41CHL1  H23A 3020   4.641   0.204   4.909 -2.3883  1.3260  0.9495
   41CHL1  H23B 3021   4.492   0.128   4.849 -0.4353 -0.5902  1.4733
   41CHL1   C24 3022   4.634   0.001   4.973  0.4366  0.4585  0.6778
   41CHL1  H24A 3023   4.599  -0.099   4.941  1.4209  0.4096 -0.3580
   41CHL1  H24B 3024   4.744  -0.014   4.969  0.1893 -1.5094  0.1317
   41CHL1   C25 3025   4.585   0.034   5.111  0.3253  0.2122  0.1926
   41CHL1   H25 3026   4.474   0.027   5.108  0.3604 -0.7236  0.7132
   41CHL1   C26 3027   4.646  -0.071   5.203 -0.2798 -0.0845 -0.7715
   41CHL1  H26A 3028   4.756  -0.053   5.203 -0.4232  0.8184 -0.9931
   41CHL1  H26B 3029   4.605  -0.077   5.306  0.2643 -0.8918 -0.5849
   41CHL1  H26C 3030   4.625  -0.162   5.142 -1.7670  1.2172 -2.3021
   41CHL1   C27 3031   4.614   0.176   5.159 -0.0163  0.0972 -0.5697
   41CHL1  H27A 3032   4.723   0.195   5.159  0.1195 -0.4814  0.9615
   41CHL1  H27B 3033   4.557   0.246   5.094  0.4065 -0.1778 -1.2389
   41CHL1  H27C 3034   4.586   0.180   5.267 -0.7407  2.6546 -0.7820
   42CHL1    C3 3035   4.783   6.548   3.411 -0.3207 -0.0589  0.0268
   42CHL1    H3 3036   4.709   6.612   3.463  0.8939 -0.1496  1.9761
   42CHL1    O3 3037   4.758   6.555   3.267  0.0994  0.0707  0.0849
   42CHL1   H3' 3038   4.789   6.645   3.251  0.7213  0.2606  2.1303
   42CHL1    C4 3039   4.917   6.606   3.461 -0.0672  0.5576 -0.1859
   42CHL1   H4A 3040   5.006   6.565   3.409 -0.4875 -2.1281  1.0239
   42CHL1   H4B 3041   4.895   6.712   3.437 -2.4771  1.0877  3.5082
   42CHL1    C5 3042   4.938   6.606   3.612  0.1282  0.3179 -0.2132
   42CHL1    C6 3043   4.971   6.718   3.682 -0.5383 -0.8145  0.5282
   42CHL1    H6 3044   4.995   6.805   3.619 -2.2612 -1.3467 -0.9431
   42CHL1    C7 3045   4.992   6.729   3.830 -0.1192  0.8530 -0.0177
   42CHL1   H7A 3046   5.085   6.781   3.863 -0.2191  0.5461  0.7736
   42CHL1   H7B 3047   4.905   6.785   3.871 -1.3575  0.1867 -1.6379
   42CHL1    C8 3048   4.990   6.586   3.898 -0.6118 -0.3348  0.1055
   42CHL1    H8 3049   5.093   6.547   3.888 -0.4679  0.4048 -1.8713
   42CHL1   C14 3050   4.947   6.611   4.040  0.7538 -0.2019 -0.6249
   42CHL1   H14 3051   4.840   6.641   4.035  0.2662 -1.7763 -0.2085
   42CHL1   C15 3052   5.021   6.718   4.122 -0.3013  0.0086 -0.3900
   42CHL1  H15A 3053   5.128   6.726   4.095 -0.0998 -0.5034  0.2647
   42CHL1  H15B 3054   4.972   6.818   4.124  1.1711  0.7685 -0.9322
   42CHL1   C16 3055   5.008   6.673   4.269 -0.3780 -0.1224  0.1303
   42CHL1  H16A 3056   5.108   6.645   4.310 -0.3610  0.1503  0.2736
   42CHL1  H16B 3057   4.963   6.755   4.329  1.8056  2.9421 -2.1540
   42CHL1   C17 3058   4.916   6.544   4.262 -0.0118  0.4703 -0.0349
   42CHL1   H17 3059   4.812   6.581   4.257  0.0147  0.5833  0.2346
   42CHL1   C13 3060   4.948   6.482   4.119  0.0898  0.5461 -0.5059
   42CHL1   C18 3061   5.090   6.422   4.133  0.2344 -0.2894  0.0570
   42CHL1  H18A 3062   5.084   6.336   4.203  0.6171  0.2302  0.7473
   42CHL1  H18B 3063   5.133   6.380   4.039 -0.5828  0.9918 -0.9103
   42CHL1  H18C 3064   5.161   6.499   4.169  0.7969  0.2822 -2.1131
   42CHL1   C12 3065   4.848   6.380   4.057 -0.0107 -0.0818 -0.0750
   42CHL1  H12A 3066   4.843   6.283   4.110 -2.2305 -0.1056 -0.2282
   42CHL1  H12B 3067   4.749   6.427   4.075  0.7920  0.9289  2.0559
   42CHL1   C11 3068   4.867   6.360   3.910 -0.3197  0.1638  0.4326
   42CHL1  H11A 3069   4.956   6.294   3.899 -0.6843 -0.1418 -0.8817
   42CHL1  H11B 3070   4.788   6.290   3.876 -1.3313  0.7124  1.5820
   42CHL1    C9 3071   4.882   6.488   3.827 -0.5258  0.3846 -0.3007
   42CHL1    H9 3072   4.782   6.536   3.837 -1.5356 -1.1441 -2.3206
   42CHL1   C10 3073   4.904   6.475   3.676  0.8195 -0.6462 -0.2905
   42CHL1   C19 3074   5.011   6.371   3.650  0.0804  0.6775 -0.4280
   42CHL1  H19A 3075   5.095   6.398   3.718 -1.7253  2.2700  1.3100
   42CHL1  H19B 3076   4.973   6.267   3.657 -0.0102  0.7259 -0.2035
   42CHL1  H19C 3077   5.047   6.379   3.545  1.3514 -0.5500 -0.1250
   42CHL1    C1 3078   4.767   6.419   3.612 -0.1856 -0.1256  0.4419
   42CHL1   H1A 3079   4.745   6.320   3.658 -3.1070  0.7185  1.0345
   42CHL1   H1B 3080   4.681   6.479   3.647  0.6850  2.0575 -0.9390
   42CHL1    C2 3081   4.764   6.410   3.465 -0.2769  0.0367 -0.4538
   42CHL1   H2A 3082   4.666   6.380   3.424 -1.1786  1.2406  0.7360
   42CHL1   H2B 3083   4.833   6.339   3.415  0.3901  0.4794 -0.1790
   42CHL1   C20 3084   4.931   6.457   4.385  0.0861 -0.6244 -0.4598
   42CHL1   H20 3085   5.037   6.424   4.385  0.2275 -0.3531 -2.6680
   42CHL1   C21 3086   4.838   6.341   4.379  0.1597  0.7230 -0.3491
   42CHL1  H21A 3087   4.895   6.257   4.335  1.0567  0.6128  0.9753
   42CHL1  H21B 3088   4.751   6.355   4.311  0.2897 -0.2927 -0.7418
   42CHL1  H21C 3089   4.791   6.305   4.473 -2.4571  0.4758 -1.6304
   42CHL1   C22 3090   4.907   6.538   4.514 -0.3569 -0.1218  0.2492
   42CHL1  H22A 3091   4.964   6.634   4.515  2.4414 -1.6262 -1.1055
   42CHL1  H22B 3092   4.799   6.565   4.521 -0.1716  1.4523 -1.8421
   42CHL1   C23 3093   4.963   6.459   4.632  0.0030  0.7236 -0.1576
   42CHL1  H23A 3094   4.884   6.386   4.658  0.8510  0.1758  0.9659
   42CHL1  H23B 3095   5.043   6.393   4.593 -2.1015 -1.5696 -0.8336
   42CHL1   C24 3096   4.988   6.544   4.750  0.5645 -1.1517 -0.3106
   42CHL1  H24A 3097   5.064   6.622   4.726 -0.7543  0.6305  0.9730
   42CHL1  H24B 3098   4.893   6.591   4.784  0.7607 -0.6735 -0.4167
   42CHL1   C25 3099   5.036   6.470   4.879  0.0626 -0.0704 -0.4746
   42CHL1   H25 3100   5.043   6.543   4.962 -2.5983 -2.0433  1.6610
   42CHL1   C26 3101   4.930   6.364   4.915 -0.4491 -0.0685  0.3039
   42CHL1  H26A 3102   4.832   6.415   4.924 -1.6097 -1.1362 -3.8501
   42CHL1  H26B 3103   4.935   6.280   4.841 -0.8187  1.0014 -0.9749
   42CHL1  H26C 3104   4.966   6.324   5.012  1.8696  0.9537 -0.0656
   42CHL1   C27 3105   5.177   6.412   4.881 -0.1761  0.2006  0.1432
   42CHL1  H27A 3106   5.205   6.375   4.981  1.5566  1.3491  0.1247
   42CHL1  H27B 3107   5.176   6.326   4.811  0.9673 -0.5319  1.0075
   42CHL1  H27C 3108   5.249   6.489   4.846  0.5849 -0.1021  0.9995
   43CHL1    C3 3109   3.834   1.269   4.045  0.2196  0.0441  0.1915
   43CHL1    H3 3110   3.859   1.367   4.091  2.3050 -0.2470 -0.2098
   43CHL1    O3 3111   3.785   1.283   3.913 -0.1687  0.3220 -0.1196
   43CHL1   H3' 3112   3.801   1.197   3.874 -0.4764  0.3705 -0.3552
   43CHL1    C4 3113   3.971   1.197   4.040 -0.1072 -0.3385 -0.0160
   43CHL1   H4A 3114   3.963   1.095   3.995  0.4076 -0.9754  1.2854
   43CHL1   H4B 3115   4.035   1.260   3.976 -0.9777  2.2895  1.5374
   43CHL1    C5 3116   4.027   1.178   4.179 -0.3335 -0.1208  0.3308
   43CHL1    C6 3117   4.151   1.197   4.211 -0.4640 -0.4086  0.3456
   43CHL1    H6 3118   4.219   1.241   4.137 -0.2424 -1.2113  0.0621
   43CHL1    C7 3119   4.210   1.164   4.343  0.1826 -0.2171 -0.0579
   43CHL1   H7A 3120   4.310   1.116   4.335  0.4910  0.3606  0.2994
   43CHL1   H7B 3121   4.245   1.258   4.391  0.0347 -0.0152 -0.3412
   43CHL1    C8 3122   4.120   1.089   4.445 -0.7771  0.0171  0.9941
   43CHL1    H8 3123   4.127   0.984   4.410  1.0797  0.9524 -1.8065
   43CHL1   C14 3124   4.176   1.110   4.590  0.6244 -0.2663 -0.6223
   43CHL1   H14 3125   4.165   1.220   4.605 -1.4343 -0.6921  1.7455
   43CHL1   C15 3126   4.317   1.081   4.633 -0.3139  0.0428 -0.4430
   43CHL1  H15A 3127   4.356   0.984   4.596  1.9736  0.1562  1.4240
   43CHL1  H15B 3128   4.386   1.155   4.587  0.0583  0.6286  1.0147
   43CHL1   C16 3129   4.313   1.089   4.790 -0.0397 -0.4286 -0.2540
   43CHL1  H16A 3130   4.366   1.005   4.840 -0.3146 -0.1686  0.5004
   43CHL1  H16B 3131   4.360   1.182   4.830  0.9833 -1.4887  1.1031
   43CHL1   C17 3132   4.167   1.088   4.831  0.3615  0.4305  0.1590
   43CHL1   H17 3133   4.125   1.191   4.844 -2.1892 -0.4166 -0.7622
   43CHL1   C13 3134   4.091   1.043   4.704  0.1409 -0.0400 -0.0263
   43CHL1   C18 3135   4.106   0.888   4.696  1.0824  0.2888 -0.2312
   43CHL1  H18A 3136   4.055   0.835   4.779 -0.6881  0.9986 -0.8034
   43CHL1  H18B 3137   4.055   0.842   4.608  0.1012  1.1626 -0.1417
   43CHL1  H18C 3138   4.212   0.856   4.703  1.3573  0.6900 -2.0231
   43CHL1   C12 3139   3.949   1.088   4.685  0.1336  0.4674 -0.8133
   43CHL1  H12A 3140   3.883   1.024   4.747 -0.1467  1.2982 -0.2281
   43CHL1  H12B 3141   3.928   1.193   4.716  0.7142  0.3307  0.0760
   43CHL1   C11 3142   3.897   1.075   4.539  0.0615 -0.1314  0.0639
   43CHL1  H11A 3143   3.888   0.968   4.513 -1.3862  0.2530 -1.2003
   43CHL1  H11B 3144   3.794   1.117   4.536  0.1834  0.1530 -0.1917
   43CHL1    C9 3145   3.980   1.141   4.432  0.6678 -0.2489  0.6591
   43CHL1    H9 3146   3.977   1.251   4.446  0.7288  0.0113 -1.0752
   43CHL1   C10 3147   3.928   1.120   4.288  0.2374 -0.2851  0.2756
   43CHL1   C19 3148   3.917   0.966   4.251  0.3225 -0.0635  0.9848
   43CHL1  H19A 3149   3.857   0.912   4.328  1.4258 -0.7261  1.4058
   43CHL1  H19B 3150   3.858   0.953   4.158  1.6443  1.7267 -0.1616
   43CHL1  H19C 3151   4.013   0.912   4.242  0.2044 -0.3719  1.4954
   43CHL1    C1 3152   3.790   1.185   4.271  1.0818  0.0750 -0.3798
   43CHL1   H1A 3153   3.732   1.103   4.319  0.4291 -0.1822 -1.5492
   43CHL1   H1B 3154   3.784   1.284   4.321  4.1065 -0.2698  0.8724
   43CHL1    C2 3155   3.727   1.196   4.130 -0.7058 -0.1475 -0.0139
   43CHL1   H2A 3156   3.648   1.275   4.131  1.7726  2.4797  0.1095
   43CHL1   H2B 3157   3.703   1.097   4.086  0.1155 -0.3326 -0.0533
   43CHL1   C20 3158   4.143   1.005   4.966  0.0019 -0.4061  0.1941
   43CHL1   H20 3159   4.181   0.903   4.944  0.0786 -0.1246 -1.0781
   43CHL1   C21 3160   3.988   1.017   4.996 -0.0983  0.0181  0.2944
   43CHL1  H21A 3161   3.969   0.981   5.099  1.4625 -0.2221  0.5275
   43CHL1  H21B 3162   3.932   0.949   4.928  0.5862  0.1430 -0.3975
   43CHL1  H21C 3163   3.952   1.122   4.996  2.4129  0.9563  1.5158
   43CHL1   C22 3164   4.220   1.065   5.089 -0.5271 -0.6385  0.5711
   43CHL1  H22A 3165   4.322   1.077   5.048 -0.9633  0.2352 -0.3069
   43CHL1  H22B 3166   4.181   1.165   5.120 -0.1481 -0.2572 -0.1592
   43CHL1   C23 3167   4.227   0.967   5.214  0.4681  0.1832  0.8596
   43CHL1  H23A 3168   4.125   0.928   5.234 -0.2130  1.7128  0.5643
   43CHL1  H23B 3169   4.287   0.876   5.198 -0.8068 -0.5444  0.0191
   43CHL1   C24 3170   4.267   1.041   5.345 -0.0543 -0.1561  0.7199
   43CHL1  H24A 3171   4.348   1.106   5.306 -1.0563  3.2623  3.7809
   43CHL1  H24B 3172   4.194   1.122   5.368 -1.1776 -1.0894  0.5505
   43CHL1   C25 3173   4.314   0.956   5.462  0.6677 -0.4946  0.8368
   43CHL1   H25 3174   4.409   0.902   5.443  0.4477 -0.8972  0.8679
   43CHL1   C26 3175   4.331   1.046   5.586  0.4115 -0.2757 -0.2776
   43CHL1  H26A 3176   4.234   1.093   5.614  0.3371 -1.4602  1.6637
   43CHL1  H26B 3177   4.364   0.986   5.674 -0.9055 -0.5827  0.0266
   43CHL1  H26C 3178   4.404   1.128   5.567 -0.9158  0.9088 -0.4691
   43CHL1   C27 3179   4.207   0.852   5.492  0.0653 -0.0838  0.2525
   43CHL1  H27A 3180   4.188   0.777   5.411  1.5063 -2.4166  1.9377
   43CHL1  H27B 3181   4.221   0.779   5.575  0.8237 -0.6107 -0.3165
   43CHL1  H27C 3182   4.113   0.904   5.520  0.9334  1.6113  0.1104
   44CHL1    C3 3183   1.556   1.818   3.835 -0.8327 -0.3775 -0.1126
   44CHL1    H3 3184   1.617   1.725   3.840 -0.2516  0.0262  0.4707
   44CHL1    O3 3185   1.535   1.850   3.697 -0.0917 -0.5270  0.2175
   44CHL1   H3' 3186   1.502   1.940   3.696 -0.1783 -0.5535 -1.0144
   44CHL1    C4 3187   1.420   1.795   3.908 -0.2457 -0.1385  0.1887
   44CHL1   H4A 3188   1.358   1.884   3.880  1.0203  0.5006 -0.6461
   44CHL1   H4B 3189   1.371   1.706   3.863  0.7554  0.0495 -1.3407
   44CHL1    C5 3190   1.439   1.775   4.061 -0.1115 -0.2976  1.0082
   44CHL1    C6 3191   1.393   1.667   4.123  0.4248 -0.2650 -0.2849
   44CHL1    H6 3192   1.325   1.597   4.072 -0.1312 -0.6052  0.8841
   44CHL1    C7 3193   1.406   1.634   4.266  0.0346  0.4002 -0.3639
   44CHL1   H7A 3194   1.311   1.594   4.307  0.7080 -2.0429 -1.0214
   44CHL1   H7B 3195   1.479   1.551   4.273 -0.7115 -0.5851 -3.1952
   44CHL1    C8 3196   1.448   1.762   4.349 -0.0611  0.4186 -0.1571
   44CHL1    H8 3197   1.359   1.828   4.354 -0.6765 -0.4250  0.1817
   44CHL1   C14 3198   1.504   1.729   4.489  0.6498 -0.6564 -0.3932
   44CHL1   H14 3199   1.595   1.666   4.478  1.0936 -0.5744  2.0692
   44CHL1   C15 3200   1.422   1.639   4.589 -0.3091 -0.0177 -0.6346
   44CHL1  H15A 3201   1.313   1.663   4.592 -0.4843 -0.8118 -0.3849
   44CHL1  H15B 3202   1.419   1.532   4.562  1.9754 -0.6102  1.1362
   44CHL1   C16 3203   1.496   1.662   4.720 -0.1206  0.7208  0.0781
   44CHL1  H16A 3204   1.430   1.682   4.806 -0.0579  0.9496  0.0730
   44CHL1  H16B 3205   1.549   1.568   4.744 -1.3777 -0.1410 -0.3869
   44CHL1   C17 3206   1.593   1.780   4.705 -0.9461 -0.5609 -0.5486
   44CHL1   H17 3207   1.694   1.746   4.673 -0.2290  1.2292 -0.3010
   44CHL1   C13 3208   1.549   1.846   4.575  0.0222 -0.1691 -0.0883
   44CHL1   C18 3209   1.423   1.931   4.605 -0.0608 -0.0176 -0.4070
   44CHL1  H18A 3210   1.463   2.017   4.663  2.7279 -1.0471 -0.6774
   44CHL1  H18B 3211   1.355   1.949   4.519 -1.0873 -2.2765 -0.1362
   44CHL1  H18C 3212   1.351   1.881   4.673  0.5846 -0.5289 -0.0935
   44CHL1   C12 3213   1.657   1.924   4.497 -0.4196  0.5534  0.4826
   44CHL1  H12A 3214   1.685   2.018   4.549 -2.4450  1.0380  0.7762
   44CHL1  H12B 3215   1.746   1.858   4.494  1.1218  2.5150  0.6593
   44CHL1   C11 3216   1.618   1.965   4.353  0.3924  0.3408 -0.0214
   44CHL1  H11A 3217   1.540   2.037   4.384  1.1819  1.6140 -0.8552
   44CHL1  H11B 3218   1.697   2.019   4.296 -0.2622  1.5827  0.2243
   44CHL1    C9 3219   1.561   1.839   4.276  0.5658 -0.6929 -0.6014
   44CHL1    H9 3220   1.639   1.763   4.254 -0.2503 -2.0062  0.9170
   44CHL1   C10 3221   1.522   1.885   4.130 -1.0692 -0.3201  0.1213
   44CHL1   C19 3222   1.447   2.020   4.141  0.1097 -0.4114 -0.0020
   44CHL1  H19A 3223   1.515   2.102   4.173  0.1652  0.0724 -1.3029
   44CHL1  H19B 3224   1.401   2.064   4.050  0.4303  2.0220  0.9227
   44CHL1  H19C 3225   1.352   2.002   4.196  1.2299 -1.2290  1.7686
   44CHL1    C1 3226   1.648   1.911   4.049  0.5484  0.9323 -0.1839
   44CHL1   H1A 3227   1.697   2.002   4.091 -0.5113  0.8777  1.2600
   44CHL1   H1B 3228   1.709   1.821   4.069 -2.0834 -0.9691 -0.2694
   44CHL1    C2 3229   1.636   1.933   3.897  0.2543  0.4639 -0.6097
   44CHL1   H2A 3230   1.736   1.944   3.851  1.2874 -2.1912  0.7445
   44CHL1   H2B 3231   1.589   2.031   3.876  1.3461  1.8215  2.7042
   44CHL1   C20 3232   1.612   1.846   4.844 -0.1679 -0.2182  0.7388
   44CHL1   H20 3233   1.518   1.892   4.881  0.3607  1.2478  0.3145
   44CHL1   C21 3234   1.715   1.959   4.817 -0.3340 -0.3444 -0.3247
   44CHL1  H21A 3235   1.738   2.000   4.917 -0.8820 -2.2120  0.5983
   44CHL1  H21B 3236   1.666   2.040   4.757 -1.0677  0.4645  1.3045
   44CHL1  H21C 3237   1.804   1.930   4.758  0.3255  1.8038 -0.4967
   44CHL1   C22 3238   1.664   1.741   4.951 -0.0469 -0.2010  0.6036
   44CHL1  H22A 3239   1.588   1.661   4.969 -0.8454  0.2105 -0.7960
   44CHL1  H22B 3240   1.748   1.687   4.902  0.8291 -0.0599  1.9121
   44CHL1   C23 3241   1.707   1.801   5.091  0.3454 -0.9573  0.5152
   44CHL1  H23A 3242   1.731   1.717   5.159  0.1852 -0.9505  0.5814
   44CHL1  H23B 3243   1.798   1.864   5.079 -0.6421  0.2734 -0.9198
   44CHL1   C24 3244   1.601   1.899   5.156 -0.4567  0.2193  0.4640
   44CHL1  H24A 3245   1.579   1.987   5.092 -2.3957 -0.8811 -0.4625
   44CHL1  H24B 3246   1.507   1.843   5.171  0.1270 -0.5664  1.2740
   44CHL1   C25 3247   1.645   1.959   5.290 -0.3167 -0.0780 -0.3685
   44CHL1   H25 3248   1.665   1.875   5.360 -1.1435 -0.1295 -0.1859
   44CHL1   C26 3249   1.769   2.050   5.278  0.0272  0.0037  0.1413
   44CHL1  H26A 3250   1.853   1.984   5.248 -0.5239 -0.6634  0.0337
   44CHL1  H26B 3251   1.761   2.124   5.195  2.5537 -1.6097 -1.6969
   44CHL1  H26C 3252   1.800   2.109   5.367 -0.9091 -0.1620  0.5970
   44CHL1   C27 3253   1.532   2.046   5.341 -0.5638 -0.3935 -0.4107
   44CHL1  H27A 3254   1.522   2.129   5.268  1.1526  0.5404  0.3497
   44CHL1  H27B 3255   1.436   1.990   5.338  0.1423 -1.7313  0.5999
   44CHL1  H27C 3256   1.552   2.090   5.441  0.8700 -1.5735 -0.1344
   45CHL1    C3 3257   1.785   1.365   3.637 -0.0307  0.1003  0.0729
   45CHL1    H3 3258   1.787   1.256   3.620 -1.9866 -0.2708  1.8426
   45CHL1    O3 3259   1.819   1.439   3.524 -0.4361 -0.5017 -0.1024
   45CHL1   H3' 3260   1.915   1.450   3.519 -0.6381  3.0665  0.8315
   45CHL1    C4 3261   1.663   1.424   3.705 -0.2635  0.3033 -0.2666
   45CHL1   H4A 3262   1.670   1.535   3.704  0.3727  0.2577 -1.5859
   45CHL1   H4B 3263   1.571   1.401   3.647 -0.4219 -0.1572  0.1573
   45CHL1    C5 3264   1.641   1.373   3.853  0.2515 -0.5718 -0.0179
   45CHL1    C6 3265   1.519   1.338   3.900 -0.0067 -0.2877  0.5961
   45CHL1    H6 3266   1.437   1.348   3.828  0.1058 -1.7162  0.2473
   45CHL1    C7 3267   1.498   1.290   4.039 -0.1360 -0.3087  0.2123
   45CHL1   H7A 3268   1.418   1.355   4.080  0.1547 -0.9239  1.8599
   45CHL1   H7B 3269   1.486   1.180   4.040  0.4315 -0.4020  2.2636
   45CHL1    C8 3270   1.621   1.317   4.133  0.3123 -0.3877  0.0682
   45CHL1    H8 3271   1.621   1.426   4.154 -1.1265  0.0852 -2.0399
   45CHL1   C14 3272   1.604   1.227   4.255 -0.3567 -0.1028 -0.2141
   45CHL1   H14 3273   1.629   1.125   4.219  0.5590  0.4761 -1.2873
   45CHL1   C15 3274   1.472   1.229   4.329 -0.2259 -0.5838  0.4787
   45CHL1  H15A 3275   1.417   1.326   4.327  0.3577 -0.2390  0.8012
   45CHL1  H15B 3276   1.414   1.147   4.283 -0.8691  0.1570 -0.0637
   45CHL1   C16 3277   1.508   1.184   4.479 -0.4035 -0.2513 -0.0078
   45CHL1  H16A 3278   1.472   1.274   4.533 -0.1865 -0.6005  0.7305
   45CHL1  H16B 3279   1.471   1.084   4.510  0.8455 -0.9896 -0.8164
   45CHL1   C17 3280   1.665   1.187   4.489  0.4228  0.7855 -0.6201
   45CHL1   H17 3281   1.705   1.084   4.482  0.4105  0.8045 -0.9811
   45CHL1   C13 3282   1.711   1.263   4.365 -0.2680  0.0559 -0.5980
   45CHL1   C18 3283   1.701   1.407   4.404  0.4857  0.0063  0.2901
   45CHL1  H18A 3284   1.787   1.434   4.469  1.2892  0.6124 -0.9815
   45CHL1  H18B 3285   1.720   1.478   4.320 -3.3117 -0.3394 -1.0755
   45CHL1  H18C 3286   1.601   1.441   4.439 -1.0572 -2.2924 -1.6228
   45CHL1   C12 3287   1.850   1.228   4.311  0.3175 -1.2100 -0.1193
   45CHL1  H12A 3288   1.935   1.258   4.376 -0.7522  0.4695  0.5602
   45CHL1  H12B 3289   1.862   1.120   4.287 -0.6930 -0.8775 -2.4186
   45CHL1   C11 3290   1.873   1.305   4.177 -0.7049  0.2369 -0.6117
   45CHL1  H11A 3291   1.882   1.413   4.201 -1.3369 -0.2756  2.3906
   45CHL1  H11B 3292   1.969   1.261   4.141  0.1045  0.8517  0.6857
   45CHL1    C9 3293   1.756   1.292   4.074 -1.2563 -0.1005 -0.6285
   45CHL1    H9 3294   1.758   1.182   4.054  0.1631 -0.1662 -0.2516
   45CHL1   C10 3295   1.771   1.367   3.943 -0.1770  0.6763  0.3077
   45CHL1   C19 3296   1.793   1.509   3.974  0.3160  0.8266  0.0658
   45CHL1  H19A 3297   1.711   1.555   4.033 -0.8877  1.5456 -2.0807
   45CHL1  H19B 3298   1.889   1.515   4.030  0.6414 -0.8982 -0.2654
   45CHL1  H19C 3299   1.817   1.570   3.884  2.2588  0.8845  0.5843
   45CHL1    C1 3300   1.886   1.301   3.860 -0.8870 -0.0875  0.6634
   45CHL1   H1A 3301   1.981   1.307   3.918  0.1270  1.3312 -1.0238
   45CHL1   H1B 3302   1.872   1.194   3.835  3.3647 -0.5854 -0.4261
   45CHL1    C2 3303   1.907   1.378   3.726  0.3858  0.5230 -0.4800
   45CHL1   H2A 3304   2.004   1.347   3.682  0.5368 -1.9908  1.4010
   45CHL1   H2B 3305   1.917   1.487   3.746  2.9478  0.2780 -0.1300
   45CHL1   C20 3306   1.709   1.228   4.631  0.1673 -0.0251  0.2163
   45CHL1   H20 3307   1.681   1.334   4.650  2.9378  0.7136  0.6023
   45CHL1   C21 3308   1.857   1.209   4.642 -0.3826  0.0498  0.7249
   45CHL1  H21A 3309   1.921   1.261   4.567  2.0386 -2.9212  0.5256
   45CHL1  H21B 3310   1.895   1.106   4.624 -0.1268 -0.0243  1.6455
   45CHL1  H21C 3311   1.900   1.241   4.739  0.9962  0.1294  0.1235
   45CHL1   C22 3312   1.631   1.147   4.741 -0.1221  0.0529 -0.6065
   45CHL1  H22A 3313   1.522   1.164   4.726  0.0944  2.7445  0.4425
   45CHL1  H22B 3314   1.654   1.038   4.743  1.0357  0.3008 -0.1150
   45CHL1   C23 3315   1.668   1.202   4.880  0.3066  0.5161  0.5938
   45CHL1  H23A 3316   1.778   1.187   4.883  0.2754  0.0527 -0.1485
   45CHL1  H23B 3317   1.641   1.309   4.879  0.0778  0.4644 -0.4888
   45CHL1   C24 3318   1.608   1.128   5.002 -0.5996  0.2330  0.0662
   45CHL1  H24A 3319   1.497   1.124   5.000 -0.7131 -0.2669  3.1266
   45CHL1  H24B 3320   1.653   1.027   4.999  1.1897  1.0103 -0.8072
   45CHL1   C25 3321   1.655   1.175   5.137  0.2457  0.8744 -0.5977
   45CHL1   H25 3322   1.765   1.161   5.142 -0.0058 -2.4930 -1.6791
   45CHL1   C26 3323   1.620   1.322   5.151 -0.4361  0.5846  0.1366
   45CHL1  H26A 3324   1.522   1.361   5.115  1.0304  2.6407 -1.9388
   45CHL1  H26B 3325   1.632   1.359   5.255 -2.2145 -2.3279  1.5203
   45CHL1  H26C 3326   1.692   1.372   5.083  2.5282 -1.9113  1.2203
   45CHL1   C27 3327   1.588   1.089   5.256 -0.0472 -0.7396 -0.0547
   45CHL1  H27A 3328   1.643   0.993   5.256  1.4193  0.0635 -1.3957
   45CHL1  H27B 3329   1.594   1.147   5.351  0.1708 -1.8815  0.6389
   45CHL1  H27C 3330   1.479   1.092   5.237 -0.0963  1.6481  0.2261
   46CHL1    C3 3331   5.069   2.153   4.088 -0.3926  0.4396  0.4245
   46CHL1    H3 3332   5.139   2.081   4.135 -0.4337  0.7244  0.9233
   46CHL1    O3 3333   5.048   2.098   3.956  0.0335  0.2692 -0.3009
   46CHL1   H3' 3334   4.978   2.146   3.910  0.5800  0.5527 -0.8512
   46CHL1    C4 3335   4.938   2.151   4.158  0.1011  0.1712  0.0542
   46CHL1   H4A 3336   4.873   2.222   4.102  2.2333  3.4984  1.4612
   46CHL1   H4B 3337   4.890   2.051   4.156  0.7235 -0.1185 -1.3652
   46CHL1    C5 3338   4.953   2.206   4.298 -0.2736  0.1666  0.2144
   46CHL1    C6 3339   4.940   2.122   4.396 -0.3061  0.2481 -1.6879
   46CHL1    H6 3340   4.916   2.018   4.370  2.3643 -0.6515 -0.9201
   46CHL1    C7 3341   4.953   2.155   4.544 -0.1144  0.4904 -0.1291
   46CHL1   H7A 3342   4.875   2.113   4.610  2.7146  1.3410  4.1490
   46CHL1   H7B 3343   5.052   2.136   4.590  1.3159  3.8804 -1.4930
   46CHL1    C8 3344   4.953   2.308   4.564  0.6179 -1.1761  0.2065
   46CHL1    H8 3345   4.848   2.344   4.552  0.3440 -2.1992 -0.6492
   46CHL1   C14 3346   5.001   2.334   4.703  0.1207 -0.1610 -0.2877
   46CHL1   H14 3347   5.108   2.307   4.699  0.5361  1.4474 -0.9112
   46CHL1   C15 3348   4.946   2.261   4.826 -0.8532 -0.3400  0.1444
   46CHL1  H15A 3349   4.836   2.277   4.826 -1.1035 -1.3207  3.0660
   46CHL1  H15B 3350   4.976   2.154   4.829 -0.1852 -0.1776 -0.3313
   46CHL1   C16 3351   5.006   2.337   4.946 -0.4301  0.1242  0.5156
   46CHL1  H16A 3352   4.930   2.373   5.019  1.6406  0.0760  2.8253
   46CHL1  H16B 3353   5.089   2.283   4.997  1.3778  1.8959 -0.3625
   46CHL1   C17 3354   5.072   2.465   4.885 -0.0570 -0.9400  0.7697
   46CHL1   H17 3355   5.180   2.445   4.870  0.1116  1.0014 -1.0153
   46CHL1   C13 3356   5.015   2.479   4.748  0.7053 -0.0203  0.8372
   46CHL1   C18 3357   4.877   2.539   4.758  0.1073 -0.1094  0.1088
   46CHL1  H18A 3358   4.823   2.524   4.662  1.1309 -0.0708 -0.4918
   46CHL1  H18B 3359   4.820   2.487   4.838 -0.0395 -1.6033 -0.9329
   46CHL1  H18C 3360   4.872   2.648   4.779 -1.6353 -0.1724  0.1425
   46CHL1   C12 3361   5.098   2.556   4.644  0.2402  0.3304  0.0463
   46CHL1  H12A 3362   5.110   2.666   4.654  2.5370  0.0765  0.6104
   46CHL1  H12B 3363   5.197   2.507   4.652 -0.3558 -0.9056  0.1172
   46CHL1   C11 3364   5.042   2.539   4.497 -0.2785  0.0774  0.2422
   46CHL1  H11A 3365   4.941   2.586   4.502 -1.1089 -1.5479 -0.4989
   46CHL1  H11B 3366   5.103   2.596   4.423  0.5372 -1.4402 -0.2960
   46CHL1    C9 3367   5.031   2.386   4.456 -0.3063  0.2611 -0.1858
   46CHL1    H9 3368   5.134   2.356   4.485 -1.2373 -2.5829  0.4934
   46CHL1   C10 3369   5.002   2.356   4.308 -0.4346  0.8510  0.3149
   46CHL1   C19 3370   4.889   2.455   4.259  0.1845  0.0980 -0.0628
   46CHL1  H19A 3371   4.803   2.445   4.328  1.6678 -2.2208  1.6171
   46CHL1  H19B 3372   4.917   2.563   4.257 -1.2768  0.4984  0.0963
   46CHL1  H19C 3373   4.859   2.436   4.154 -0.7973  1.6221 -0.0989
   46CHL1    C1 3374   5.126   2.368   4.216 -0.6688 -0.2312 -0.3519
   46CHL1   H1A 3375   5.161   2.474   4.212 -0.9662 -0.1727 -2.5262
   46CHL1   H1B 3376   5.201   2.316   4.279 -0.9781  0.2513  0.4439
   46CHL1    C2 3377   5.123   2.297   4.080  0.0456  0.0663  0.9513
   46CHL1   H2A 3378   5.227   2.293   4.042  0.0987  0.2950  1.0692
   46CHL1   H2B 3379   5.073   2.355   3.999  2.8420 -0.1027 -1.0466
   46CHL1   C20 3380   5.063   2.580   4.979  0.0179 -0.1237  0.1666
   46CHL1   H20 3381   4.957   2.604   4.999  0.4725  2.0520  0.1469
   46CHL1   C21 3382   5.113   2.713   4.916 -0.2616  0.3982  0.6047
   46CHL1  H21A 3383   5.212   2.688   4.872 -1.3364 -0.5022 -1.4454
   46CHL1  H21B 3384   5.131   2.797   4.987  0.9229 -0.7707  1.7336
   46CHL1  H21C 3385   5.040   2.750   4.841 -0.0676 -1.3042 -0.4778
   46CHL1   C22 3386   5.127   2.555   5.117  0.4170  0.4979 -0.1097
   46CHL1  H22A 3387   5.088   2.462   5.164 -0.0246  1.5010  1.5655
   46CHL1  H22B 3388   5.235   2.538   5.100  0.7900  1.8825  0.7560
   46CHL1   C23 3389   5.141   2.663   5.234 -0.3911 -0.9966  0.0450
   46CHL1  H23A 3390   5.229   2.723   5.203  1.1978 -2.0693  2.2366
   46CHL1  H23B 3391   5.063   2.741   5.243  0.7218  0.4165 -1.8500
   46CHL1   C24 3392   5.174   2.612   5.370 -0.0450  0.1464 -1.2220
   46CHL1  H24A 3393   5.108   2.529   5.404  2.4463 -1.4254  0.0826
   46CHL1  H24B 3394   5.271   2.560   5.362 -1.3845 -3.0245  0.9207
   46CHL1   C25 3395   5.177   2.723   5.484  0.1102 -0.5781 -0.1628
   46CHL1   H25 3396   5.077   2.772   5.486  1.2574  1.8528  0.2870
   46CHL1   C26 3397   5.212   2.662   5.617  0.0286  0.1863  0.2668
   46CHL1  H26A 3398   5.149   2.574   5.640 -0.3113  0.7494  1.6059
   46CHL1  H26B 3399   5.319   2.633   5.630  1.1359  2.7419 -2.1771
   46CHL1  H26C 3400   5.201   2.734   5.702  0.0453  0.2899  0.1813
   46CHL1   C27 3401   5.260   2.850   5.456  0.2337 -0.3632  0.3571
   46CHL1  H27A 3402   5.239   2.893   5.355  1.9961  2.1661  0.9733
   46CHL1  H27B 3403   5.235   2.923   5.535 -0.4265 -0.9387  0.6874
   46CHL1  H27C 3404   5.371   2.839   5.449  0.1754 -0.0366 -1.8384
   47CHL1    C3 3405   3.768   3.601   3.761  0.1374  0.1117  0.3212
   47CHL1    H3 3406   3.841   3.522   3.735 -0.3452 -0.0746 -0.4785
   47CHL1    O3 3407   3.763   3.699   3.664  0.4987  0.2580  0.4457
   47CHL1   H3' 3408   3.840   3.757   3.671  1.4198 -0.5073 -2.0896
   47CHL1    C4 3409   3.625   3.546   3.783  0.3161  0.3132 -0.8316
   47CHL1   H4A 3410   3.546   3.624   3.781  0.0289  0.1738  1.7886
   47CHL1   H4B 3411   3.596   3.485   3.694 -0.5000 -0.5433 -0.0122
   47CHL1    C5 3412   3.606   3.452   3.902 -0.4340  0.0673  0.2127
   47CHL1    C6 3413   3.543   3.332   3.894 -1.3933 -0.1774 -0.7804
   47CHL1    H6 3414   3.490   3.310   3.801 -1.0628  2.5946 -1.7089
   47CHL1    C7 3415   3.517   3.243   4.009 -0.8393  0.2083  0.0259
   47CHL1   H7A 3416   3.411   3.212   4.005 -1.1352  1.2358 -0.2496
   47CHL1   H7B 3417   3.586   3.155   4.006  0.2836  1.0214  1.0466
   47CHL1    C8 3418   3.548   3.320   4.146 -0.5182  0.0619 -0.1768
   47CHL1    H8 3419   3.455   3.374   4.175 -1.9294 -3.1111  1.7072
   47CHL1   C14 3420   3.574   3.211   4.255  0.1741 -0.3717 -0.0711
   47CHL1   H14 3421   3.660   3.151   4.219  1.2417  0.0302  1.6926
   47CHL1   C15 3422   3.465   3.104   4.278  0.0388  0.0118 -0.1404
   47CHL1  H15A 3423   3.367   3.156   4.284 -0.7955 -1.6228  1.2922
   47CHL1  H15B 3424   3.465   3.026   4.199 -1.5318  0.3173 -0.4666
   47CHL1   C16 3425   3.486   3.054   4.418 -0.2352  0.0448 -0.1369
   47CHL1  H16A 3426   3.406   3.075   4.493  2.6353  2.3276  2.6019
   47CHL1  H16B 3427   3.493   2.944   4.416  0.8143 -0.1117  3.7773
   47CHL1   C17 3428   3.613   3.132   4.475  0.3506 -0.0662 -0.0989
   47CHL1   H17 3429   3.704   3.077   4.441  1.0062 -0.4674  2.1314
   47CHL1   C13 3430   3.616   3.260   4.391  0.0113 -0.5639  0.1746
   47CHL1   C18 3431   3.516   3.359   4.444  0.3068  0.1016  0.1428
   47CHL1  H18A 3432   3.539   3.408   4.541 -0.8527  0.5112  0.2289
   47CHL1  H18B 3433   3.504   3.440   4.369 -0.2986 -0.1760 -0.0617
   47CHL1  H18C 3434   3.420   3.305   4.462  0.1865  0.9048  2.3288
   47CHL1   C12 3435   3.748   3.335   4.375  0.0346  0.4843 -0.5086
   47CHL1  H12A 3436   3.791   3.373   4.470  0.2418  1.9517 -1.1568
   47CHL1  H12B 3437   3.826   3.267   4.335  0.2856  0.9109 -0.7557
   47CHL1   C11 3438   3.733   3.452   4.276  0.1858 -0.4071 -0.0206
   47CHL1  H11A 3439   3.666   3.529   4.320  2.0872  0.5403  1.3372
   47CHL1  H11B 3440   3.832   3.499   4.265  0.5106 -0.9131  0.7092
   47CHL1    C9 3441   3.681   3.405   4.140 -0.0322 -0.4746 -0.0454
   47CHL1    H9 3442   3.758   3.339   4.094  0.1603 -0.3476  0.0963
   47CHL1   C10 3443   3.666   3.516   4.034 -0.2210 -0.1351  0.0979
   47CHL1   C19 3444   3.564   3.624   4.085 -0.0718 -0.1401 -0.0847
   47CHL1  H19A 3445   3.539   3.711   4.021 -0.9260  1.2117  1.9994
   47CHL1  H19B 3446   3.468   3.575   4.114 -1.8655  2.0959 -1.8527
   47CHL1  H19C 3447   3.600   3.676   4.176 -2.4120  1.5935 -0.0466
   47CHL1    C1 3448   3.806   3.583   4.013  0.4799  0.2598 -0.1719
   47CHL1   H1A 3449   3.827   3.649   4.100 -1.0762  1.5436 -0.7285
   47CHL1   H1B 3450   3.877   3.497   4.004 -1.0919 -1.0767 -0.1685
   47CHL1    C2 3451   3.810   3.675   3.886 -0.3307  0.0385  0.0090
   47CHL1   H2A 3452   3.917   3.704   3.874  0.5953 -3.0603 -0.1351
   47CHL1   H2B 3453   3.741   3.760   3.908  1.6480  2.3418 -1.9879
   47CHL1   C20 3454   3.623   3.134   4.627  0.4993 -0.1147 -0.1537
   47CHL1   H20 3455   3.678   3.229   4.645  1.4707 -0.6346 -0.2651
   47CHL1   C21 3456   3.707   3.010   4.672  0.6785 -0.0295  0.5770
   47CHL1  H21A 3457   3.804   3.008   4.618  0.2190  0.5525 -0.2892
   47CHL1  H21B 3458   3.648   2.919   4.648  0.1983  0.6196 -0.8082
   47CHL1  H21C 3459   3.733   3.020   4.779 -0.1452  1.4715  0.6648
   47CHL1   C22 3460   3.489   3.136   4.707 -0.1319  0.8978  0.1723
   47CHL1  H22A 3461   3.438   3.223   4.660  3.6433  1.6256 -3.1067
   47CHL1  H22B 3462   3.430   3.045   4.685  0.6830 -0.1605  2.1195
   47CHL1   C23 3463   3.500   3.160   4.852  0.4189  0.0573  0.0983
   47CHL1  H23A 3464   3.522   3.064   4.903 -3.8425 -0.3377  1.6573
   47CHL1  H23B 3465   3.575   3.242   4.863  1.3942 -0.8777  0.5582
   47CHL1   C24 3466   3.371   3.207   4.905 -0.0749 -0.2345  0.7021
   47CHL1  H24A 3467   3.361   3.304   4.851  1.8658  0.1333  0.9055
   47CHL1  H24B 3468   3.288   3.143   4.870 -0.9364  1.1210  0.1909
   47CHL1   C25 3469   3.370   3.240   5.050  0.6609 -0.4969 -0.7179
   47CHL1   H25 3470   3.451   3.305   5.088 -2.8956  2.6607  2.3202
   47CHL1   C26 3471   3.243   3.332   5.087  0.4094 -0.0639  0.8999
   47CHL1  H26A 3472   3.155   3.283   5.040  0.8642  0.2173 -0.2767
   47CHL1  H26B 3473   3.223   3.344   5.196  1.4657 -0.0742  1.1106
   47CHL1  H26C 3474   3.256   3.430   5.037 -1.7235  0.5645  1.4713
   47CHL1   C27 3475   3.379   3.112   5.134 -0.3504  0.0615  0.4058
   47CHL1  H27A 3476   3.298   3.047   5.094 -2.1487  1.5156  1.5111
   47CHL1  H27B 3477   3.462   3.043   5.110 -1.4404 -1.7689  1.6823
   47CHL1  H27C 3478   3.366   3.117   5.244  0.0131  3.7430  0.4358
   48CHL1    C3 3479   0.063   5.981   3.651 -0.9909 -0.2982 -1.1605
   48CHL1    H3 3480   0.173   5.981   3.665 -1.0254 -0.7932 -0.8793
   48CHL1    O3 3481   0.027   5.989   3.518  0.2335 -0.5447 -0.3271
   48CHL1   H3' 3482  -0.059   6.030   3.530  0.4458  0.0861 -0.8974
   48CHL1    C4 3483   0.015   5.847   3.704  0.5978  0.3254  0.4334
   48CHL1   H4A 3484  -0.091   5.820   3.683  1.1338  0.8786 -3.7999
   48CHL1   H4B 3485   0.065   5.770   3.641 -1.1604  0.6637 -1.4776
   48CHL1    C5 3486   0.046   5.822   3.849 -0.4774  0.1839  0.3364
   48CHL1    C6 3487   0.123   5.716   3.886 -0.4596  0.4353  0.3272
   48CHL1    H6 3488   0.160   5.644   3.811 -0.7289  0.6624 -0.0285
   48CHL1    C7 3489   0.159   5.698   4.028 -0.7418  0.6830 -0.1525
   48CHL1   H7A 3490   0.161   5.592   4.059 -3.3714  0.2220 -1.3101
   48CHL1   H7B 3491   0.259   5.741   4.050  1.7606 -3.3168 -2.4654
   48CHL1    C8 3492   0.059   5.771   4.131  0.0281  0.2706  0.1185
   48CHL1    H8 3493  -0.040   5.723   4.114 -0.3333  0.4264  1.6173
   48CHL1   C14 3494   0.111   5.769   4.275 -0.0222  0.0061  0.4144
   48CHL1   H14 3495   0.212   5.816   4.267  1.4144 -3.1460 -2.1407
   48CHL1   C15 3496   0.140   5.630   4.340  0.8974 -0.8378  0.3600
   48CHL1  H15A 3497   0.052   5.570   4.309 -2.1958  3.3730  0.2221
   48CHL1  H15B 3498   0.239   5.592   4.305  1.4787  0.5434  0.4438
   48CHL1   C16 3499   0.139   5.658   4.491  0.1979  0.4518  0.0437
   48CHL1  H16A 3500   0.068   5.585   4.536  2.1737 -2.2899 -0.9925
   48CHL1  H16B 3501   0.237   5.632   4.538 -0.2243  1.6722  1.7163
   48CHL1   C17 3502   0.101   5.810   4.508  0.2261  0.3782 -0.5818
   48CHL1   H17 3503   0.190   5.877   4.508 -0.0447  0.8263  1.8845
   48CHL1   C13 3504   0.040   5.854   4.372 -0.1332  0.6267  0.0451
   48CHL1   C18 3505  -0.111   5.806   4.372  0.2597 -0.9268 -0.4115
   48CHL1  H18A 3506  -0.172   5.863   4.444 -0.3748 -0.4780 -1.2865
   48CHL1  H18B 3507  -0.159   5.826   4.274  2.2768 -1.7360 -1.6222
   48CHL1  H18C 3508  -0.124   5.699   4.400  0.2146 -1.6284 -2.8562
   48CHL1   C12 3509   0.058   6.002   4.326 -0.3610  0.5026  0.4889
   48CHL1  H12A 3510   0.017   6.070   4.404  0.4185  1.6794 -0.0799
   48CHL1  H12B 3511   0.163   6.038   4.322 -0.6669  1.3472 -0.6518
   48CHL1   C11 3512  -0.011   6.017   4.188 -0.5322  0.2459  0.4548
   48CHL1  H11A 3513  -0.121   6.007   4.195 -0.6129  1.3856  1.1672
   48CHL1  H11B 3514   0.012   6.120   4.154 -0.0010 -0.6494 -2.1519
   48CHL1    C9 3515   0.047   5.915   4.084  0.0837  1.0936 -0.6034
   48CHL1    H9 3516   0.154   5.944   4.083  0.1891  0.7842  0.4532
   48CHL1   C10 3517  -0.004   5.933   3.939  0.6640  0.1405 -0.0087
   48CHL1   C19 3518  -0.154   5.925   3.938  0.2475  0.0391  0.2191
   48CHL1  H19A 3519  -0.193   5.825   3.966 -0.1542 -0.4315 -1.9096
   48CHL1  H19B 3520  -0.204   5.987   4.016 -0.7632 -0.7169  0.1876
   48CHL1  H19C 3521  -0.200   5.952   3.841 -0.5487  3.2056  1.3641
   48CHL1    C1 3522   0.036   6.076   3.895 -0.0510  0.2235  0.1992
   48CHL1   H1A 3523  -0.024   6.153   3.948 -1.0394  0.4319 -1.1753
   48CHL1   H1B 3524   0.144   6.101   3.903 -0.3112  1.0953  1.0787
   48CHL1    C2 3525   0.002   6.095   3.739  0.3980  0.7798 -0.3491
   48CHL1   H2A 3526   0.050   6.189   3.706  1.1530  0.9650  1.2148
   48CHL1   H2B 3527  -0.107   6.111   3.722  0.1789 -1.4475 -1.5484
   48CHL1   C20 3528   0.021   5.841   4.638  0.4153  0.6949  0.5371
   48CHL1   H20 3529  -0.075   5.787   4.625  0.4959  0.1435  2.0699
   48CHL1   C21 3530  -0.024   5.987   4.647  0.5552  0.0476 -0.6382
   48CHL1  H21A 3531   0.061   6.050   4.612  1.7455 -0.0478  1.8547
   48CHL1  H21B 3532  -0.065   6.014   4.747 -0.1616 -1.0003 -0.6419
   48CHL1  H21C 3533  -0.099   6.002   4.567  1.1220 -0.3332 -1.2512
   48CHL1   C22 3534   0.096   5.791   4.757  0.3826 -0.3064  0.2857
   48CHL1  H22A 3535   0.105   5.681   4.746 -1.0404 -0.6481  2.0548
   48CHL1  H22B 3536   0.193   5.846   4.761  0.0064  0.5666 -1.6639
   48CHL1   C23 3537   0.037   5.813   4.895 -0.1345  0.4771 -0.1747
   48CHL1  H23A 3538   0.024   5.920   4.922  0.1975  0.2483  0.9543
   48CHL1  H23B 3539  -0.064   5.768   4.904  0.9235 -1.8600  1.0013
   48CHL1   C24 3540   0.127   5.752   5.001 -0.1918 -0.0027  1.0595
   48CHL1  H24A 3541   0.157   5.647   4.981 -0.5781  0.2559 -1.0787
   48CHL1  H24B 3542   0.224   5.807   5.002 -0.0258 -0.1941 -0.8122
   48CHL1   C25 3543   0.075   5.754   5.142  0.4596 -0.0585  0.2884
   48CHL1   H25 3544   0.014   5.662   5.154 -0.6409  0.5822 -0.3170
   48CHL1   C26 3545   0.177   5.749   5.258 -0.0697  0.5342  0.8631
   48CHL1  H26A 3546   0.246   5.835   5.243  0.6781 -0.5294 -2.5386
   48CHL1  H26B 3547   0.128   5.759   5.357 -0.8262  0.7914  0.4720
   48CHL1  H26C 3548   0.242   5.658   5.260 -1.0633 -0.3971 -2.5569
   48CHL1   C27 3549  -0.016   5.877   5.174 -0.8255 -0.8831 -0.4792
   48CHL1  H27A 3550  -0.040   5.893   5.282 -1.4090  0.6368 -0.8100
   48CHL1  H27B 3551   0.036   5.974   5.156 -1.6095 -0.3708 -0.0824
   48CHL1  H27C 3552  -0.110   5.884   5.116 -2.3375  2.5828  1.9899
   49CHL1    C3 3553   1.189   3.110   3.799  0.6710 -1.4400 -0.1242
   49CHL1    H3 3554   1.244   3.207   3.801 -1.4851 -0.1407  0.9735
   49CHL1    O3 3555   1.133   3.090   3.668  0.1996 -0.4272  0.2810
   49CHL1   H3' 3556   1.087   3.005   3.674 -2.1598  0.6208 -1.2573
   49CHL1    C4 3557   1.286   3.001   3.846  0.0263  0.3322  0.0163
   49CHL1   H4A 3558   1.215   2.917   3.860  0.4782 -0.1952 -0.8584
   49CHL1   H4B 3559   1.362   2.983   3.768  2.0200  0.9063  1.7296
   49CHL1    C5 3560   1.349   3.034   3.975 -0.2891 -0.2487 -0.3823
   49CHL1    C6 3561   1.482   3.039   3.980 -0.5401 -0.1933  0.3505
   49CHL1    H6 3562   1.544   3.020   3.891 -1.2582 -1.6207  0.1315
   49CHL1    C7 3563   1.545   3.085   4.108  0.0656 -0.1049 -0.2615
   49CHL1   H7A 3564   1.641   3.031   4.122 -0.6342 -1.0831  0.9173
   49CHL1   H7B 3565   1.569   3.193   4.101  1.7284 -0.3935  0.6455
   49CHL1    C8 3566   1.455   3.086   4.241  0.0101  0.5152 -0.3686
   49CHL1    H8 3567   1.433   2.979   4.263  0.4708  0.3121 -0.8739
   49CHL1   C14 3568   1.520   3.158   4.355 -0.8659 -0.0443  0.1384
   49CHL1   H14 3569   1.508   3.267   4.339 -2.0376 -0.1018  0.5067
   49CHL1   C15 3570   1.672   3.136   4.381 -0.1401 -0.4435 -0.8046
   49CHL1  H15A 3571   1.701   3.030   4.369  0.0357 -0.7194  1.5082
   49CHL1  H15B 3572   1.745   3.200   4.326  0.0878 -2.7793 -3.4314
   49CHL1   C16 3573   1.682   3.169   4.526  0.9158  0.0147  0.1151
   49CHL1  H16A 3574   1.727   3.084   4.581  1.6845 -1.5520 -2.7538
   49CHL1  H16B 3575   1.743   3.260   4.543  1.9667 -0.6410 -0.0471
   49CHL1   C17 3576   1.538   3.202   4.589 -0.1396 -0.2027  0.9168
   49CHL1   H17 3577   1.529   3.310   4.566  0.9189 -0.0301  1.2383
   49CHL1   C13 3578   1.443   3.132   4.491 -0.8894  0.5107  0.9006
   49CHL1   C18 3579   1.440   2.976   4.514 -0.4681 -0.0419  0.2294
   49CHL1  H18A 3580   1.403   2.961   4.617  2.1499 -0.9715  1.1031
   49CHL1  H18B 3581   1.375   2.923   4.441 -0.0365  0.3667 -0.4669
   49CHL1  H18C 3582   1.543   2.934   4.509  0.9538  3.1861  0.1511
   49CHL1   C12 3583   1.304   3.194   4.471  0.8026  0.2790  0.4143
   49CHL1  H12A 3584   1.233   3.170   4.553  0.4210 -0.3978 -0.1058
   49CHL1  H12B 3585   1.313   3.304   4.463  2.3505  0.2221  1.0781
   49CHL1   C11 3586   1.226   3.134   4.345 -0.1115  0.2597 -0.3312
   49CHL1  H11A 3587   1.188   3.032   4.366  0.0768  0.2573  0.0040
   49CHL1  H11B 3588   1.138   3.197   4.320 -0.2935 -0.4210 -1.4811
   49CHL1    C9 3589   1.310   3.142   4.214 -0.3810  0.3721 -0.2164
   49CHL1    H9 3590   1.322   3.247   4.180  0.3857  0.1923 -0.5061
   49CHL1   C10 3591   1.251   3.068   4.092  0.1559 -0.1439  0.0301
   49CHL1   C19 3592   1.183   2.937   4.137  0.2459  0.3418 -0.5639
   49CHL1  H19A 3593   1.090   2.969   4.189  1.8522  3.6876  0.5040
   49CHL1  H19B 3594   1.131   2.884   4.055 -0.4979 -0.9513  0.6946
   49CHL1  H19C 3595   1.238   2.872   4.208 -2.3662 -1.0032  0.3445
   49CHL1    C1 3596   1.143   3.165   4.035 -0.6229 -0.3324 -0.1843
   49CHL1   H1A 3597   1.061   3.176   4.109 -0.9623  0.1388 -0.6220
   49CHL1   H1B 3598   1.183   3.267   4.020 -0.5328 -0.0447  1.7765
   49CHL1    C2 3599   1.072   3.127   3.901 -0.6661 -0.3086  0.1081
   49CHL1   H2A 3600   1.003   3.206   3.865  0.6606  0.1974 -1.4462
   49CHL1   H2B 3601   1.027   3.026   3.910 -2.1425  0.2015 -1.1870
   49CHL1   C20 3602   1.528   3.178   4.739 -0.0381  0.2992 -0.3422
   49CHL1   H20 3603   1.570   3.076   4.757 -0.8253 -0.0940 -0.6863
   49CHL1   C21 3604   1.375   3.186   4.784  1.1641 -0.6593  0.4833
   49CHL1  H21A 3605   1.335   3.282   4.746  0.2217 -1.5686 -0.9396
   49CHL1  H21B 3606   1.375   3.182   4.895 -0.3665 -2.6851  0.4730
   49CHL1  H21C 3607   1.310   3.107   4.740 -1.5610  1.8966 -0.3925
   49CHL1   C22 3608   1.609   3.276   4.827 -0.1652 -0.8443  0.0337
   49CHL1  H22A 3609   1.706   3.296   4.775  0.7087 -2.2591  1.0483
   49CHL1  H22B 3610   1.555   3.372   4.814  0.4478 -0.4587  0.2588
   49CHL1   C23 3611   1.629   3.221   4.963 -0.8925  1.4258  0.0105
   49CHL1  H23A 3612   1.548   3.164   5.014 -0.2994  1.1672  0.6888
   49CHL1  H23B 3613   1.708   3.144   4.947  1.3484  3.7832 -0.8228
   49CHL1   C24 3614   1.679   3.332   5.058  0.8410 -0.8215  0.7663
   49CHL1  H24A 3615   1.780   3.367   5.028  0.6842 -0.5277  0.5666
   49CHL1  H24B 3616   1.616   3.424   5.054  3.3611  0.9918 -1.2403
   49CHL1   C25 3617   1.686   3.302   5.212  0.4644 -0.0251  0.1959
   49CHL1   H25 3618   1.728   3.199   5.221  1.2365  0.2996  0.3596
   49CHL1   C26 3619   1.764   3.421   5.279  0.0535 -0.2375  0.7677
   49CHL1  H26A 3620   1.758   3.435   5.389  2.1447  0.5111  0.8160
   49CHL1  H26B 3621   1.868   3.419   5.240  0.0376 -1.4950  0.7433
   49CHL1  H26C 3622   1.721   3.514   5.237 -0.7845 -0.5630  0.8779
   49CHL1   C27 3623   1.544   3.307   5.269 -0.3801 -0.1660  0.3671
   49CHL1  H27A 3624   1.492   3.402   5.246  0.8493  0.4328 -0.0321
   49CHL1  H27B 3625   1.493   3.218   5.226  0.1356 -0.9325  1.3115
   49CHL1  H27C 3626   1.554   3.300   5.380  0.2855  0.3583  0.3446
   50CHL1    C3 3627   5.240   0.966   3.680 -0.0804 -0.0248  0.6859
   50CHL1    H3 3628   5.150   1.032   3.682 -0.2473 -0.2575  1.3330
   50CHL1    O3 3629   5.257   0.927   3.548 -0.5897  0.1571  0.3418
   50CHL1   H3' 3630   5.343   0.884   3.544 -0.1510  1.0510 -1.0908
   50CHL1    C4 3631   5.367   1.042   3.722  0.7022 -0.2296  0.3843
   50CHL1   H4A 3632   5.459   0.988   3.690 -0.2263 -0.9557 -1.1735
   50CHL1   H4B 3633   5.361   1.135   3.661 -0.0016 -0.7379 -0.3486
   50CHL1    C5 3634   5.374   1.071   3.868  0.0773 -0.0761 -0.6257
   50CHL1    C6 3635   5.388   1.197   3.918  0.4115  0.5016  0.2283
   50CHL1    H6 3636   5.398   1.273   3.839  0.3045 -1.5201 -1.8463
   50CHL1    C7 3637   5.385   1.238   4.061 -0.1320  0.6643 -0.4689
   50CHL1   H7A 3638   5.471   1.306   4.080  0.4814  0.8227 -3.3805
   50CHL1   H7B 3639   5.291   1.296   4.075 -0.1597  0.1125  2.3434
   50CHL1    C8 3640   5.401   1.114   4.160 -0.1545  0.0861 -0.2362
   50CHL1    H8 3641   5.510   1.097   4.161 -0.3158 -1.2138 -1.4868
   50CHL1   C14 3642   5.353   1.147   4.301 -0.7071 -0.3573 -0.9695
   50CHL1   H14 3643   5.243   1.163   4.296 -0.6573  1.4136  1.9416
   50CHL1   C15 3644   5.410   1.277   4.361 -0.5269  0.4169  0.3810
   50CHL1  H15A 3645   5.518   1.292   4.339 -1.1140  1.1808 -2.4602
   50CHL1  H15B 3646   5.358   1.366   4.319  0.4270  1.5872  1.6292
   50CHL1   C16 3647   5.387   1.264   4.516 -0.2930 -0.1021  0.1405
   50CHL1  H16A 3648   5.484   1.270   4.570 -1.3380  3.1815  1.8881
   50CHL1  H16B 3649   5.333   1.345   4.570  1.6577  0.5520  1.2105
   50CHL1   C17 3650   5.335   1.114   4.533  0.2788  0.4308  0.4897
   50CHL1   H17 3651   5.225   1.123   4.525  0.1245 -1.7430 -0.5071
   50CHL1   C13 3652   5.371   1.041   4.403 -0.0259 -0.1098  0.1293
   50CHL1   C18 3653   5.520   0.998   4.416 -0.5760  0.0128 -0.3622
   50CHL1  H18A 3654   5.572   1.085   4.463 -0.1316 -0.2690 -0.3257
   50CHL1  H18B 3655   5.535   0.906   4.476  1.0898 -1.0527 -2.2995
   50CHL1  H18C 3656   5.557   0.978   4.313  0.0262  2.9537 -0.8200
   50CHL1   C12 3657   5.275   0.920   4.357  0.2376 -0.1472 -0.0739
   50CHL1  H12A 3658   5.296   0.840   4.430 -1.6124 -1.8414 -1.2984
   50CHL1  H12B 3659   5.170   0.954   4.371  0.4174  1.1376 -1.5494
   50CHL1   C11 3660   5.319   0.879   4.218 -0.8705 -0.2966  0.2074
   50CHL1  H11A 3661   5.418   0.830   4.232 -1.6231 -1.6376  1.1388
   50CHL1  H11B 3662   5.251   0.797   4.186 -0.5593 -1.2404  1.8486
   50CHL1    C9 3663   5.324   0.990   4.110 -0.5459 -0.4875 -0.3115
   50CHL1    H9 3664   5.227   1.043   4.112 -0.1976  0.1365  1.4939
   50CHL1   C10 3665   5.356   0.949   3.965 -0.6265  0.0926  0.3419
   50CHL1   C19 3666   5.465   0.845   3.960  0.2736 -0.0063  0.2511
   50CHL1  H19A 3667   5.502   0.820   3.858 -0.4387 -1.6291  0.3683
   50CHL1  H19B 3668   5.549   0.897   4.011 -0.3574  2.8794 -1.4232
   50CHL1  H19C 3669   5.426   0.753   4.009  1.0287 -0.1420  0.6093
   50CHL1    C1 3670   5.227   0.879   3.919  0.4115 -0.1453 -0.1191
   50CHL1   H1A 3671   5.210   0.783   3.971  1.1345 -0.1140  0.1940
   50CHL1   H1B 3672   5.146   0.951   3.941  0.1819 -0.1365 -0.9622
   50CHL1    C2 3673   5.218   0.843   3.772 -0.1839  0.1853  0.3903
   50CHL1   H2A 3674   5.127   0.785   3.746  0.6827 -1.0767  0.0925
   50CHL1   H2B 3675   5.303   0.775   3.754 -0.4064 -1.6619  5.0522
   50CHL1   C20 3676   5.363   1.050   4.675  0.0030 -0.6161  0.0401
   50CHL1   H20 3677   5.473   1.068   4.679 -0.3666  2.6771 -1.1866
   50CHL1   C21 3678   5.325   0.902   4.691  0.0559 -0.2291  0.6947
   50CHL1  H21A 3679   5.216   0.901   4.668  0.2557  1.4968 -0.5071
   50CHL1  H21B 3680   5.345   0.879   4.798  0.3249 -0.6493  0.5539
   50CHL1  H21C 3681   5.390   0.839   4.627 -0.1724  2.3536 -2.3235
   50CHL1   C22 3682   5.296   1.126   4.796  0.5119 -0.0770  0.1515
   50CHL1  H22A 3683   5.320   1.234   4.782 -2.9070  1.4699  4.1637
   50CHL1  H22B 3684   5.186   1.115   4.788  0.5460 -2.3308  1.9197
   50CHL1   C23 3685   5.343   1.092   4.945 -0.6772 -0.1547 -0.1070
   50CHL1  H23A 3686   5.322   0.985   4.962  2.4884 -0.8923 -0.2907
   50CHL1  H23B 3687   5.454   1.100   4.942 -0.5898 -0.1518  1.9821
   50CHL1   C24 3688   5.276   1.171   5.055  0.3142  0.0570 -0.1098
   50CHL1  H24A 3689   5.275   1.278   5.024  0.4631  0.3661  0.9302
   50CHL1  H24B 3690   5.173   1.130   5.057  0.7427 -1.0288  1.5498
   50CHL1   C25 3691   5.329   1.158   5.200 -0.2532 -0.1748 -0.1486
   50CHL1   H25 3692   5.272   1.235   5.255 -0.3069  1.1487 -1.9568
   50CHL1   C26 3693   5.299   1.020   5.262 -0.0503 -0.8074  0.4013
   50CHL1  H26A 3694   5.325   1.023   5.370 -1.8371 -2.5228  0.9361
   50CHL1  H26B 3695   5.189   1.009   5.252 -0.2551  1.8032 -0.9173
   50CHL1  H26C 3696   5.353   0.953   5.191  0.9670  1.6683 -1.3094
   50CHL1   C27 3697   5.476   1.192   5.223  0.1871  0.1635  0.5087
   50CHL1  H27A 3698   5.479   1.290   5.169 -5.2264 -0.9738 -2.6387
   50CHL1  H27B 3699   5.508   1.204   5.328  1.8569  2.6678 -0.1764
   50CHL1  H27C 3700   5.544   1.115   5.180  0.0387 -1.5715  3.1830
   51CHL1    C3 3701   1.318   2.635   3.850 -0.1397 -0.3430 -0.4284
   51CHL1    H3 3702   1.256   2.715   3.896 -0.7056 -1.7379  1.3284
   51CHL1    O3 3703   1.311   2.636   3.705  0.1615 -0.1903 -0.3226
   51CHL1   H3' 3704   1.329   2.546   3.676 -0.9776 -1.2014  1.8426
   51CHL1    C4 3705   1.469   2.645   3.884  0.0551 -0.1485  0.3748
   51CHL1   H4A 3706   1.532   2.572   3.828  0.4267  0.7851 -0.4410
   51CHL1   H4B 3707   1.499   2.748   3.856  0.7099 -0.8266 -1.6223
   51CHL1    C5 3708   1.497   2.620   4.033  0.3148  0.0428 -0.4548
   51CHL1    C6 3709   1.576   2.707   4.103 -0.3362  0.5474 -0.1058
   51CHL1    H6 3710   1.623   2.789   4.046 -0.5019  0.4743 -0.3510
   51CHL1    C7 3711   1.620   2.689   4.243  0.0499  0.2514 -0.3202
   51CHL1   H7A 3712   1.728   2.699   4.263 -0.0075  3.6430 -1.0033
   51CHL1   H7B 3713   1.581   2.775   4.303  0.1724  1.5961 -2.0725
   51CHL1    C8 3714   1.573   2.553   4.293 -0.8011  0.6421 -0.4002
   51CHL1    H8 3715   1.655   2.482   4.268 -0.2896  1.7257 -1.9680
   51CHL1   C14 3716   1.547   2.580   4.442  0.4824  0.3860 -0.4423
   51CHL1   H14 3717   1.466   2.656   4.436  0.5993  0.4415 -1.5130
   51CHL1   C15 3718   1.663   2.647   4.521  0.3390  0.0174 -0.1950
   51CHL1  H15A 3719   1.756   2.590   4.501  0.8452  0.9987 -0.7197
   51CHL1  H15B 3720   1.685   2.753   4.494  2.6744 -0.5232 -0.6110
   51CHL1   C16 3721   1.620   2.635   4.671 -0.0076 -0.3396 -0.0021
   51CHL1  H16A 3722   1.695   2.584   4.734 -0.7093  1.7414  2.7108
   51CHL1  H16B 3723   1.601   2.733   4.720 -0.6269 -0.1232 -0.6487
   51CHL1   C17 3724   1.486   2.540   4.674 -0.1915  0.4207  0.6034
   51CHL1   H17 3725   1.391   2.597   4.672 -0.9297 -0.7852 -0.7017
   51CHL1   C13 3726   1.496   2.464   4.535 -0.0905  0.1845 -0.3329
   51CHL1   C18 3727   1.612   2.358   4.549  0.1453 -0.0857  0.2039
   51CHL1  H18A 3728   1.664   2.342   4.452 -0.5644 -1.2006 -0.0172
   51CHL1  H18B 3729   1.692   2.386   4.621  0.0628  2.5176 -0.6124
   51CHL1  H18C 3730   1.578   2.256   4.576  1.1698 -0.6415 -0.5182
   51CHL1   C12 3731   1.370   2.405   4.471  0.0657 -0.0041 -0.4356
   51CHL1  H12A 3732   1.359   2.305   4.517 -1.2437  0.6386  0.7218
   51CHL1  H12B 3733   1.281   2.467   4.491  0.6813  0.4235  1.1119
   51CHL1   C11 3734   1.384   2.385   4.316 -0.3618 -0.2386 -0.9188
   51CHL1  H11A 3735   1.463   2.308   4.304  2.2016  1.9082  0.8883
   51CHL1  H11B 3736   1.282   2.356   4.282 -1.2044  0.3066  1.0070
   51CHL1    C9 3737   1.439   2.507   4.239 -0.1541 -0.0495  0.0793
   51CHL1    H9 3738   1.369   2.591   4.257 -1.7377 -1.3961  0.4818
   51CHL1   C10 3739   1.435   2.491   4.087 -0.0716  0.1429  0.3752
   51CHL1   C19 3740   1.516   2.362   4.042  0.9677  0.4869 -0.5210
   51CHL1  H19A 3741   1.609   2.341   4.099 -1.0661 -0.3550  2.7738
   51CHL1  H19B 3742   1.451   2.274   4.064  1.2011  0.7761  1.5240
   51CHL1  H19C 3743   1.512   2.363   3.931 -2.7295 -1.4550 -0.5711
   51CHL1    C1 3744   1.282   2.469   4.039 -1.0037 -0.5238 -0.0463
   51CHL1   H1A 3745   1.250   2.366   4.065  1.7748 -0.7467  3.1740
   51CHL1   H1B 3746   1.214   2.540   4.092 -0.7134 -0.1480 -0.1728
   51CHL1    C2 3747   1.266   2.502   3.891  0.2194  0.3834  0.6962
   51CHL1   H2A 3748   1.158   2.490   3.865  0.0844 -3.0936  2.2799
   51CHL1   H2B 3749   1.322   2.422   3.838 -0.5519 -0.4306  1.0686
   51CHL1   C20 3750   1.469   2.460   4.802 -0.1772  0.3094  0.0902
   51CHL1   H20 3751   1.554   2.388   4.806  0.6399  1.2826  0.7836
   51CHL1   C21 3752   1.335   2.381   4.807  0.1621  0.5033  0.3388
   51CHL1  H21A 3753   1.242   2.437   4.785 -0.7496 -0.6776  1.0372
   51CHL1  H21B 3754   1.330   2.336   4.908  2.7019  0.2872  0.4229
   51CHL1  H21C 3755   1.349   2.296   4.736 -0.8789  0.6928 -0.1095
   51CHL1   C22 3756   1.485   2.547   4.927  0.2369  0.0403 -0.0913
   51CHL1  H22A 3757   1.509   2.475   5.009  1.0084  0.4643  0.0657
   51CHL1  H22B 3758   1.584   2.597   4.919  1.0364 -1.5981 -0.8691
   51CHL1   C23 3759   1.372   2.640   4.969 -0.6425 -0.0695  0.4202
   51CHL1  H23A 3760   1.317   2.665   4.875  0.7827 -0.0897 -0.4486
   51CHL1  H23B 3761   1.299   2.578   5.025  0.8906 -1.2534  1.1769
   51CHL1   C24 3762   1.423   2.777   5.029 -0.4467  0.6729 -0.5626
   51CHL1  H24A 3763   1.481   2.818   4.944 -1.1868  0.1184 -1.3510
   51CHL1  H24B 3764   1.335   2.844   5.039 -0.9904  0.0225 -0.9116
   51CHL1   C25 3765   1.491   2.762   5.163  0.6188 -0.1242  1.0469
   51CHL1   H25 3766   1.594   2.736   5.131 -0.2998  0.4698 -2.9076
   51CHL1   C26 3767   1.513   2.904   5.224 -0.5579  0.2715 -0.3372
   51CHL1  H26A 3768   1.560   2.883   5.322 -0.2337 -2.2880 -0.9596
   51CHL1  H26B 3769   1.581   2.969   5.165 -0.5138  2.0280  1.5702
   51CHL1  H26C 3770   1.414   2.950   5.244 -1.3070 -1.3314 -0.2309
   51CHL1   C27 3771   1.426   2.656   5.250  0.0590  0.7078  0.0353
   51CHL1  H27A 3772   1.436   2.551   5.216 -0.8859  0.9938 -1.2161
   51CHL1  H27B 3773   1.484   2.641   5.344 -0.3512 -0.8065  0.0671
   51CHL1  H27C 3774   1.316   2.669   5.261  0.0626  0.9222 -0.1765
   52CHL1    C3 3775   6.605   4.479   3.885 -0.4142  0.4707 -0.1507
   52CHL1    H3 3776   6.692   4.530   3.932  0.6177  2.1671 -3.5247
   52CHL1    O3 3777   6.613   4.468   3.744  0.4785 -0.2037 -0.1850
   52CHL1   H3' 3778   6.530   4.425   3.722  0.6853 -0.8109  0.1919
   52CHL1    C4 3779   6.603   4.334   3.939  0.6499  0.3399  0.3893
   52CHL1   H4A 3780   6.520   4.272   3.900  1.0576 -0.3246  0.5679
   52CHL1   H4B 3781   6.687   4.269   3.908  0.5009 -1.0961  2.7240
   52CHL1    C5 3782   6.592   4.337   4.088 -0.3875  0.2569 -0.1110
   52CHL1    C6 3783   6.675   4.274   4.169  0.0415  0.3827  0.1443
   52CHL1    H6 3784   6.751   4.210   4.121  0.5170  2.2523 -1.7967
   52CHL1    C7 3785   6.664   4.255   4.315 -0.2419  0.4126  0.7804
   52CHL1   H7A 3786   6.673   4.152   4.356 -2.5319 -0.2797 -0.2955
   52CHL1   H7B 3787   6.744   4.316   4.361  2.8905 -3.0198  0.3850
   52CHL1    C8 3788   6.529   4.303   4.368  0.5554 -0.8508  0.1251
   52CHL1    H8 3789   6.458   4.218   4.354 -0.8317 -0.1966  2.5066
   52CHL1   C14 3790   6.528   4.330   4.517 -0.5143  0.3629 -1.0370
   52CHL1   H14 3791   6.591   4.421   4.533 -2.0084  1.3197 -0.3986
   52CHL1   C15 3792   6.594   4.229   4.613  0.0461  0.0855 -0.3549
   52CHL1  H15A 3793   6.560   4.127   4.585  1.1214  0.1396 -2.0050
   52CHL1  H15B 3794   6.704   4.229   4.626 -0.2294 -0.9643  2.4534
   52CHL1   C16 3795   6.535   4.265   4.755 -0.0427 -0.4200  0.4719
   52CHL1  H16A 3796   6.492   4.166   4.781 -1.8065 -0.4090 -1.9793
   52CHL1  H16B 3797   6.620   4.301   4.817 -0.8078  3.1041 -0.3013
   52CHL1   C17 3798   6.425   4.374   4.723 -0.6811  0.1539  0.1099
   52CHL1   H17 3799   6.476   4.472   4.734 -2.9122  1.3169  0.4592
   52CHL1   C13 3800   6.393   4.370   4.573  1.2237 -0.0386  0.4710
   52CHL1   C18 3801   6.299   4.252   4.551 -0.1549  0.7647  0.1285
   52CHL1  H18A 3802   6.201   4.285   4.590 -0.7102  1.9716 -2.1108
   52CHL1  H18B 3803   6.280   4.218   4.447  0.4645 -2.0090  0.8427
   52CHL1  H18C 3804   6.317   4.156   4.605 -1.5826  1.0781  1.2138
   52CHL1   C12 3805   6.341   4.500   4.508  0.7578 -0.1795 -0.7915
   52CHL1  H12A 3806   6.239   4.511   4.551  0.4352 -0.2015 -1.5348
   52CHL1  H12B 3807   6.409   4.586   4.526 -0.0530  0.3790 -0.3408
   52CHL1   C11 3808   6.337   4.478   4.355  0.1328 -0.3949 -0.2751
   52CHL1  H11A 3809   6.251   4.414   4.327  1.0885 -1.1504 -1.6247
   52CHL1  H11B 3810   6.305   4.574   4.311  1.1559 -0.3682 -1.0055
   52CHL1    C9 3811   6.472   4.433   4.296  0.0446  0.8901 -0.1281
   52CHL1    H9 3812   6.542   4.516   4.320  2.7648 -0.8563 -1.4681
   52CHL1   C10 3813   6.475   4.417   4.145 -0.5882  1.1303  0.0689
   52CHL1   C19 3814   6.342   4.340   4.110 -0.3952  0.1948  0.2513
   52CHL1  H19A 3815   6.253   4.407   4.108 -0.6757 -0.1890 -1.1609
   52CHL1  H19B 3816   6.342   4.297   4.008 -0.4748  2.1661 -0.6230
   52CHL1  H19C 3817   6.325   4.256   4.181 -1.2654  0.5178  0.4395
   52CHL1    C1 3818   6.464   4.554   4.078 -0.6483 -0.4347  1.3060
   52CHL1   H1A 3819   6.366   4.605   4.095 -0.2497  1.1194 -0.7264
   52CHL1   H1B 3820   6.546   4.615   4.121 -1.1241  0.2670  1.2298
   52CHL1    C2 3821   6.472   4.544   3.923  0.0809 -0.1802  0.4534
   52CHL1   H2A 3822   6.458   4.646   3.881  0.6498 -0.4894 -0.5338
   52CHL1   H2B 3823   6.391   4.477   3.888  0.6094  0.1659 -1.5897
   52CHL1   C20 3824   6.319   4.380   4.829 -0.0353 -0.3173 -0.4193
   52CHL1   H20 3825   6.235   4.316   4.793 -0.6237 -0.8875  1.8037
   52CHL1   C21 3826   6.267   4.520   4.840  0.1568 -0.1963 -1.0860
   52CHL1  H21A 3827   6.347   4.576   4.892 -0.9848 -0.0773  0.6646
   52CHL1  H21B 3828   6.181   4.520   4.912 -0.2376 -0.5904 -1.5497
   52CHL1  H21C 3829   6.219   4.564   4.751 -0.1760  0.6710 -0.4965
   52CHL1   C22 3830   6.363   4.330   4.968  0.1193  0.5872 -0.3154
   52CHL1  H22A 3831   6.385   4.221   4.961 -2.7679 -0.1015 -0.2042
   52CHL1  H22B 3832   6.443   4.394   5.010 -0.9671  1.3398  0.6575
   52CHL1   C23 3833   6.247   4.330   5.076 -0.3647  0.0924 -0.3582
   52CHL1  H23A 3834   6.217   4.436   5.094 -2.2572 -0.1318 -1.8426
   52CHL1  H23B 3835   6.149   4.282   5.051 -0.0424  0.1175 -1.7491
   52CHL1   C24 3836   6.291   4.246   5.206 -0.8174  0.1643  0.6660
   52CHL1  H24A 3837   6.290   4.139   5.175 -0.3644 -0.1389  1.6642
   52CHL1  H24B 3838   6.395   4.260   5.242 -0.2952 -2.7319  0.5574
   52CHL1   C25 3839   6.199   4.260   5.322  0.2778  0.2407 -0.5736
   52CHL1   H25 3840   6.102   4.223   5.282  0.0923 -0.5553  0.5567
   52CHL1   C26 3841   6.239   4.151   5.435  0.4543 -0.7415 -0.8234
   52CHL1  H26A 3842   6.335   4.186   5.479  0.5043  1.0813 -2.2437
   52CHL1  H26B 3843   6.156   4.164   5.508 -1.0438 -0.2843 -2.5243
   52CHL1  H26C 3844   6.237   4.045   5.402 -1.0023 -0.6791 -0.9936
   52CHL1   C27 3845   6.204   4.400   5.384 -0.0953 -0.6702 -0.0624
   52CHL1  H27A 3846   6.140   4.466   5.322 -0.2941  0.2107  1.0560
   52CHL1  H27B 3847   6.170   4.396   5.489 -2.2153 -0.9623 -0.7295
   52CHL1  H27C 3848   6.306   4.444   5.383  1.5215 -4.0284 -2.0607
   53CHL1    C3 3849   2.683   1.579   3.841 -0.3173  0.3480  0.2497
   53CHL1    H3 3850   2.597   1.511   3.858 -0.4321  0.8213  1.6791
   53CHL1    O3 3851   2.728   1.557   3.712  0.5864 -0.1878  0.3357
   53CHL1   H3' 3852   2.675   1.609   3.651  0.6750 -2.5882 -1.9407
   53CHL1    C4 3853   2.646   1.728   3.855  0.1723  0.9340  0.1076
   53CHL1   H4A 3854   2.736   1.787   3.824  1.8360 -1.3690  0.2757
   53CHL1   H4B 3855   2.567   1.754   3.781 -0.8088  0.9275  1.1264
   53CHL1    C5 3856   2.607   1.770   3.997  0.3352  0.4703  0.4870
   53CHL1    C6 3857   2.486   1.821   4.027  0.2239 -0.4953  0.2565
   53CHL1    H6 3858   2.405   1.832   3.954 -1.3794 -1.5723  1.7988
   53CHL1    C7 3859   2.456   1.857   4.172  0.6565  0.4039  0.5508
   53CHL1   H7A 3860   2.388   1.946   4.170 -0.5152 -0.3844  2.5533
   53CHL1   H7B 3861   2.386   1.775   4.200  2.3386 -1.6584 -0.9637
   53CHL1    C8 3862   2.574   1.876   4.264 -0.2296  0.1263 -0.3559
   53CHL1    H8 3863   2.627   1.970   4.237  0.3898 -0.1563 -0.1533
   53CHL1   C14 3864   2.523   1.883   4.407  0.2366 -0.1681  0.1911
   53CHL1   H14 3865   2.474   1.784   4.419  0.3711 -0.8205 -3.4711
   53CHL1   C15 3866   2.414   1.979   4.445 -0.0024 -0.0678 -0.4332
   53CHL1  H15A 3867   2.442   2.073   4.392  0.1466 -0.0641 -0.3496
   53CHL1  H15B 3868   2.312   1.944   4.417  1.1074 -2.8630 -1.3317
   53CHL1   C16 3869   2.434   1.994   4.595 -0.8787  0.1650 -0.2357
   53CHL1  H16A 3870   2.449   2.103   4.607 -1.8122  0.2019  0.6845
   53CHL1  H16B 3871   2.339   1.967   4.646 -0.0436 -2.4144  0.1192
   53CHL1   C17 3872   2.550   1.892   4.644 -0.7153 -0.5359 -0.5396
   53CHL1   H17 3873   2.499   1.794   4.645  1.0296 -1.5014  2.0549
   53CHL1   C13 3874   2.630   1.886   4.517 -0.9509 -0.5626 -0.1426
   53CHL1   C18 3875   2.725   2.009   4.503  0.1195  0.6714  0.3438
   53CHL1  H18A 3876   2.807   2.012   4.579  0.6372 -1.7320 -0.0297
   53CHL1  H18B 3877   2.770   2.015   4.402 -1.0771 -1.8557 -0.4171
   53CHL1  H18C 3878   2.664   2.101   4.514  0.6216  1.1961 -1.0538
   53CHL1   C12 3879   2.712   1.755   4.502  0.4823 -0.8917 -0.0525
   53CHL1  H12A 3880   2.801   1.731   4.564  0.8398 -1.2502 -0.6929
   53CHL1  H12B 3881   2.642   1.673   4.527 -2.3713  2.1791  3.1787
   53CHL1   C11 3882   2.778   1.738   4.365  0.1506  1.2869 -0.0488
   53CHL1  H11A 3883   2.855   1.817   4.350  0.6893  0.7145 -0.3522
   53CHL1  H11B 3884   2.832   1.641   4.364 -0.7743  0.7673 -0.8314
   53CHL1    C9 3885   2.667   1.757   4.249 -0.3937  0.5943  0.1835
   53CHL1    H9 3886   2.603   1.669   4.269 -0.3090  0.3384 -0.6323
   53CHL1   C10 3887   2.719   1.738   4.103  0.3356 -0.0488 -1.0211
   53CHL1   C19 3888   2.838   1.834   4.083 -0.4962 -0.0832 -0.3039
   53CHL1  H19A 3889   2.883   1.842   3.982 -0.3599 -0.7246 -0.2977
   53CHL1  H19B 3890   2.812   1.939   4.110  2.3969  0.4403  0.8198
   53CHL1  H19C 3891   2.921   1.809   4.152  0.3114  2.3808 -0.2596
   53CHL1    C1 3892   2.757   1.582   4.084  0.3299  0.5341  0.6899
   53CHL1   H1A 3893   2.840   1.552   4.152  2.0283 -0.1759 -1.5584
   53CHL1   H1B 3894   2.660   1.534   4.107  0.0366  0.3953 -0.7020
   53CHL1    C2 3895   2.793   1.542   3.942 -0.9676 -0.2068 -0.3330
   53CHL1   H2A 3896   2.812   1.433   3.953 -0.0856  0.1882  3.2822
   53CHL1   H2B 3897   2.891   1.582   3.909 -0.8356 -0.8838 -0.8002
   53CHL1   C20 3898   2.614   1.921   4.785  0.7744 -0.4206  0.1035
   53CHL1   H20 3899   2.673   2.015   4.785  0.7141 -0.3689  1.3132
   53CHL1   C21 3900   2.704   1.809   4.830  0.3771  0.2478 -0.3030
   53CHL1  H21A 3901   2.657   1.709   4.837  0.8932 -0.1635 -2.3041
   53CHL1  H21B 3902   2.744   1.834   4.931 -0.4015 -2.4534  0.7546
   53CHL1  H21C 3903   2.786   1.797   4.756  0.6703 -0.9014  0.1951
   53CHL1   C22 3904   2.501   1.942   4.889  0.0440  0.6407 -0.5900
   53CHL1  H22A 3905   2.555   1.970   4.981  1.4266  0.5003 -1.3409
   53CHL1  H22B 3906   2.435   2.023   4.851 -0.4741  0.2997 -0.4296
   53CHL1   C23 3907   2.406   1.831   4.929  0.3692 -0.5322 -0.0730
   53CHL1  H23A 3908   2.328   1.821   4.851 -0.7891  0.7500  0.8701
   53CHL1  H23B 3909   2.458   1.734   4.949  0.4802 -0.3014  0.8232
   53CHL1   C24 3910   2.336   1.873   5.059 -0.4232 -0.0712 -0.5128
   53CHL1  H24A 3911   2.303   1.775   5.102 -0.0629 -0.0744 -0.2394
   53CHL1  H24B 3912   2.415   1.919   5.122  0.0899  0.1346 -1.3072
   53CHL1   C25 3913   2.211   1.965   5.043 -0.7740 -0.2223 -0.0220
   53CHL1   H25 3914   2.244   2.047   4.976  0.6304 -1.3354 -0.7298
   53CHL1   C26 3915   2.093   1.903   4.964  0.8361  0.0940 -0.6221
   53CHL1  H26A 3916   2.028   1.987   4.932 -1.5758 -1.6493 -0.5357
   53CHL1  H26B 3917   2.122   1.861   4.866  0.6856 -2.5782  0.3934
   53CHL1  H26C 3918   2.038   1.834   5.033 -0.2868  0.2388 -1.3557
   53CHL1   C27 3919   2.171   2.023   5.178  0.3023  0.0032 -0.0378
   53CHL1  H27A 3920   2.261   2.066   5.227  0.2566 -1.0920  1.0782
   53CHL1  H27B 3921   2.087   2.095   5.166  0.3251 -0.1252 -1.0599
   53CHL1  H27C 3922   2.137   1.936   5.237  0.8841 -0.3384 -0.1936
   54CHL1    C3 3923   2.039   2.934   3.851 -0.2332 -0.4811  0.1691
   54CHL1    H3 3924   1.981   3.026   3.871 -0.1155 -0.4950  0.6063
   54CHL1    O3 3925   2.056   2.913   3.711 -0.3061 -0.4942 -0.2159
   54CHL1   H3' 3926   2.034   2.993   3.663 -1.0047 -1.5763 -1.8229
   54CHL1    C4 3927   2.173   2.956   3.917  0.0856 -0.0490  0.1255
   54CHL1   H4A 3928   2.234   2.864   3.901  0.4705  0.1024  0.6810
   54CHL1   H4B 3929   2.229   3.039   3.868 -1.6340  0.8796 -0.3459
   54CHL1    C5 3930   2.175   2.975   4.066  0.1900  0.0897  0.4764
   54CHL1    C6 3931   2.225   3.086   4.126  0.3385  0.0726 -0.0269
   54CHL1    H6 3932   2.268   3.163   4.060 -0.6829  1.3812  0.7814
   54CHL1    C7 3933   2.228   3.108   4.272 -0.3448 -0.1435 -0.9020
   54CHL1   H7A 3934   2.334   3.132   4.298 -0.8202  1.1691 -0.0799
   54CHL1   H7B 3935   2.172   3.200   4.301  0.2806 -0.2388  0.7096
   54CHL1    C8 3936   2.178   2.989   4.362  0.5361 -0.3345  0.0120
   54CHL1    H8 3937   2.268   2.924   4.367  0.5435 -0.3048  0.2517
   54CHL1   C14 3938   2.140   3.028   4.501 -0.0867  0.9221  0.4781
   54CHL1   H14 3939   2.055   3.097   4.484  1.2402  2.3300 -0.6503
   54CHL1   C15 3940   2.241   3.109   4.580 -0.1901  0.7379 -0.1258
   54CHL1  H15A 3941   2.336   3.051   4.570 -0.6149 -0.3266  1.5225
   54CHL1  H15B 3942   2.262   3.211   4.543  2.3774 -0.4079 -2.1622
   54CHL1   C16 3943   2.199   3.092   4.723  0.1404  0.3142 -0.5605
   54CHL1  H16A 3944   2.281   3.041   4.778  0.7509  1.8136 -0.0200
   54CHL1  H16B 3945   2.176   3.194   4.762  0.7033 -0.1861  1.1736
   54CHL1   C17 3946   2.070   3.000   4.719  0.8536  0.3870 -0.0007
   54CHL1   H17 3947   1.979   3.064   4.709 -0.2709 -1.0204  0.7994
   54CHL1   C13 3948   2.086   2.916   4.593 -0.2114  0.8696  0.2851
   54CHL1   C18 3949   2.190   2.809   4.611 -0.0261 -0.3026  0.0144
   54CHL1  H18A 3950   2.271   2.848   4.675  0.6197 -1.0965 -0.2992
   54CHL1  H18B 3951   2.153   2.718   4.664  1.2844 -0.4670  0.6781
   54CHL1  H18C 3952   2.230   2.773   4.514 -0.7511  0.6512 -0.6612
   54CHL1   C12 3953   1.960   2.854   4.524  0.3437 -0.7824  0.1628
   54CHL1  H12A 3954   1.920   2.767   4.580  0.8737 -2.4600 -1.9076
   54CHL1  H12B 3955   1.887   2.937   4.534 -0.0465 -1.0231 -0.6328
   54CHL1   C11 3956   1.988   2.821   4.376  0.2549  0.3824  0.3563
   54CHL1  H11A 3957   2.031   2.719   4.379 -0.4801  0.0727  0.5806
   54CHL1  H11B 3958   1.889   2.802   4.331 -0.6685  3.1719  0.9873
   54CHL1    C9 3959   2.069   2.922   4.286  1.1399  0.8402  0.1229
   54CHL1    H9 3960   1.997   3.006   4.273 -1.3014 -0.9802  1.2392
   54CHL1   C10 3961   2.105   2.869   4.146 -0.2681 -0.2336  0.0961
   54CHL1   C19 3962   2.195   2.740   4.161  0.6455 -0.3871  0.0484
   54CHL1  H19A 3963   2.242   2.719   4.063 -1.8738 -2.6083 -0.8205
   54CHL1  H19B 3964   2.271   2.745   4.241  1.4513  1.5737 -0.7662
   54CHL1  H19C 3965   2.133   2.648   4.172  0.9835 -0.5210  0.8915
   54CHL1    C1 3966   1.968   2.836   4.074  0.0808  0.3573 -0.2910
   54CHL1   H1A 3967   1.927   2.744   4.122  2.7768 -1.6241 -1.5354
   54CHL1   H1B 3968   1.898   2.921   4.084  0.9057  1.0461 -0.2630
   54CHL1    C2 3969   1.984   2.811   3.927  0.2790  0.2165  0.1336
   54CHL1   H2A 3970   1.885   2.794   3.880  0.7799 -2.6912 -0.0502
   54CHL1   H2B 3971   2.044   2.718   3.912  1.6015  1.1263 -0.4272
   54CHL1   C20 3972   2.047   2.930   4.860  0.2442  0.0920 -0.1344
   54CHL1   H20 3973   2.136   2.867   4.883 -0.8133 -1.7680 -0.9473
   54CHL1   C21 3974   1.930   2.831   4.852 -0.3591  0.3172 -0.1972
   54CHL1  H21A 3975   1.909   2.781   4.949  2.4492  0.0584  0.3488
   54CHL1  H21B 3976   1.946   2.750   4.777  0.0865  0.2901 -0.0766
   54CHL1  H21C 3977   1.839   2.886   4.819 -0.6524  0.0466  0.1561
   54CHL1   C22 3978   2.020   3.026   4.972 -0.9099 -0.4437  0.3844
   54CHL1  H22A 3979   2.087   3.111   4.947 -0.6638 -1.5830 -3.2837
   54CHL1  H22B 3980   1.919   3.068   4.953 -0.7408 -0.8942 -1.6506
   54CHL1   C23 3981   2.056   2.976   5.106 -0.1829  0.2402 -0.1151
   54CHL1  H23A 3982   1.989   2.890   5.122 -0.6967  0.3954 -1.3332
   54CHL1  H23B 3983   2.153   2.921   5.101 -0.8597 -0.9234 -0.8171
   54CHL1   C24 3984   2.050   3.083   5.222  0.0887  0.3388 -0.5540
   54CHL1  H24A 3985   2.096   3.177   5.186 -1.8418  0.6466 -2.4194
   54CHL1  H24B 3986   1.946   3.103   5.254  0.4689  0.0377  0.9408
   54CHL1   C25 3987   2.124   3.036   5.351 -0.0594 -0.2218  0.1059
   54CHL1   H25 3988   2.220   2.987   5.324 -0.5232 -0.6255 -0.8084
   54CHL1   C26 3989   2.154   3.167   5.441 -0.5542  0.1560  0.3766
   54CHL1  H26A 3990   2.217   3.238   5.384 -0.3095 -0.8412 -0.6151
   54CHL1  H26B 3991   2.059   3.207   5.483  0.1964  0.1751  2.1828
   54CHL1  H26C 3992   2.208   3.133   5.532 -3.7348  0.5246  2.5969
   54CHL1   C27 3993   2.040   2.940   5.426  0.2039  0.6306 -0.1860
   54CHL1  H27A 3994   2.040   2.845   5.369  1.5342  0.9192 -0.7130
   54CHL1  H27B 3995   2.075   2.907   5.526 -1.5141 -2.1708 -0.4109
   54CHL1  H27C 3996   1.936   2.979   5.436 -0.4863 -1.5072  1.5026
   55CHL1    C3 3997   0.072   3.869   4.129  0.7188 -0.5758  0.2872
   55CHL1    H3 3998   0.065   3.979   4.146 -0.8641 -0.6579  0.2967
   55CHL1    O3 3999   0.097   3.841   3.994  0.3639  0.0192 -0.1408
   55CHL1   H3' 4000   0.054   3.757   3.975  0.0528 -0.8429  3.5208
   55CHL1    C4 4001   0.178   3.808   4.219  0.4711 -0.7134  0.2871
   55CHL1   H4A 4002   0.174   3.700   4.191 -0.1290 -0.1834 -1.8637
   55CHL1   H4B 4003   0.280   3.845   4.195 -0.7042  0.8057 -2.9908
   55CHL1    C5 4004   0.155   3.810   4.367  0.3317  0.2570  0.0349
   55CHL1    C6 4005   0.258   3.843   4.449 -0.1200  0.1201 -0.4375
   55CHL1    H6 4006   0.363   3.852   4.418 -0.5515 -2.8627 -3.2917
   55CHL1    C7 4007   0.244   3.856   4.601 -0.1815 -0.1917  0.4499
   55CHL1   H7A 4008   0.321   3.790   4.648 -0.7843 -1.0606  0.2405
   55CHL1   H7B 4009   0.257   3.960   4.638  0.3541  0.3988 -1.3047
   55CHL1    C8 4010   0.122   3.792   4.654  0.8752 -0.0494 -0.1435
   55CHL1    H8 4011   0.132   3.682   4.660 -1.6588 -0.3888 -0.8815
   55CHL1   C14 4012   0.097   3.849   4.794 -0.2881 -0.2501 -0.1619
   55CHL1   H14 4013   0.082   3.957   4.773 -0.7410 -0.0058  1.2770
   55CHL1   C15 4014   0.214   3.849   4.896  0.5063 -0.5110  0.0881
   55CHL1  H15A 4015   0.250   3.744   4.901  0.2713 -0.5890  0.1681
   55CHL1  H15B 4016   0.292   3.923   4.868 -0.3272  0.6708  0.7930
   55CHL1   C16 4017   0.141   3.882   5.027 -0.7470 -0.2756  0.5870
   55CHL1  H16A 4018   0.166   3.809   5.107  3.8393  2.9875  2.5389
   55CHL1  H16B 4019   0.169   3.982   5.066  2.3066 -0.9127  0.2830
   55CHL1   C17 4020  -0.016   3.870   4.998 -0.2649 -0.2268  0.7604
   55CHL1   H17 4021  -0.053   3.975   4.989 -2.2775 -1.0055 -0.8560
   55CHL1   C13 4022  -0.027   3.793   4.866  0.2553  0.4587  0.3442
   55CHL1   C18 4023  -0.013   3.638   4.878 -0.2338 -0.0385 -0.6759
   55CHL1  H18A 4024   0.083   3.624   4.933 -1.5841 -1.7863  1.4459
   55CHL1  H18B 4025  -0.086   3.592   4.949  1.4591  0.0921  1.2500
   55CHL1  H18C 4026  -0.006   3.586   4.780 -1.2682 -0.7995 -0.3661
   55CHL1   C12 4027  -0.152   3.826   4.783 -0.4494 -0.4345 -0.1868
   55CHL1  H12A 4028  -0.248   3.780   4.814 -0.9800  0.0909 -1.0189
   55CHL1  H12B 4029  -0.176   3.934   4.781  1.2148 -0.0176  0.8299
   55CHL1   C11 4030  -0.133   3.768   4.634  1.1760  0.2983 -0.2804
   55CHL1  H11A 4031  -0.144   3.659   4.651 -0.2425  0.7329  1.8534
   55CHL1  H11B 4032  -0.226   3.799   4.582 -0.0472 -1.7753  0.5391
   55CHL1    C9 4033  -0.007   3.821   4.568  0.1459  0.7505  0.5067
   55CHL1    H9 4034  -0.035   3.929   4.573 -0.5046  0.5409  1.6163
   55CHL1   C10 4035   0.013   3.774   4.414 -0.4852 -0.4562  0.3762
   55CHL1   C19 4036  -0.009   3.621   4.401 -0.8566  0.3367  0.7282
   55CHL1  H19A 4037   0.008   3.581   4.299 -0.5015  0.9358  0.5428
   55CHL1  H19B 4038   0.065   3.562   4.460 -0.6646 -0.9666 -0.7562
   55CHL1  H19C 4039  -0.114   3.591   4.420 -1.2865  1.9012  0.9861
   55CHL1    C1 4040  -0.082   3.845   4.317  0.1458 -0.3081 -0.8403
   55CHL1   H1A 4041  -0.184   3.818   4.349 -0.2147  0.9796 -0.8423
   55CHL1   H1B 4042  -0.067   3.954   4.338 -0.7782 -0.4848  0.9456
   55CHL1    C2 4043  -0.066   3.816   4.171  0.0418  0.0821 -0.3153
   55CHL1   H2A 4044  -0.137   3.864   4.100  0.4402 -1.3156 -1.7145
   55CHL1   H2B 4045  -0.067   3.707   4.155  1.2451  0.2005 -1.2810
   55CHL1   C20 4046  -0.076   3.813   5.124 -0.3380  0.2709 -0.2498
   55CHL1   H20 4047  -0.057   3.704   5.138  1.1531  0.4726 -0.4971
   55CHL1   C21 4048  -0.226   3.827   5.114 -0.0523  0.6516  0.2239
   55CHL1  H21A 4049  -0.278   3.790   5.205  0.9034 -1.2903  0.0243
   55CHL1  H21B 4050  -0.269   3.776   5.026 -2.0294  0.5470  1.2048
   55CHL1  H21C 4051  -0.247   3.935   5.096  2.1630  1.2726  0.9550
   55CHL1   C22 4052  -0.040   3.889   5.254 -0.2232  0.2630  0.0450
   55CHL1  H22A 4053  -0.119   3.872   5.330  1.6140 -2.6196  1.5023
   55CHL1  H22B 4054   0.052   3.838   5.290 -0.5783  0.0175  0.6259
   55CHL1   C23 4055  -0.015   4.035   5.263 -0.6879 -0.1374  0.0009
   55CHL1  H23A 4056   0.075   4.085   5.219 -2.1066  0.6314 -2.2421
   55CHL1  H23B 4057  -0.107   4.083   5.222 -0.6783 -0.8477 -0.8848
   55CHL1   C24 4058   0.006   4.066   5.414 -0.1119 -0.4262  0.4735
   55CHL1  H24A 4059  -0.089   4.038   5.464 -1.9143  0.7321 -2.1005
   55CHL1  H24B 4060   0.096   4.008   5.446  1.2440  1.0911 -0.4326
   55CHL1   C25 4061   0.034   4.212   5.453  0.0802  0.4376  0.3618
   55CHL1   H25 4062   0.113   4.257   5.388  0.1977 -1.2209 -0.6880
   55CHL1   C26 4063  -0.086   4.298   5.435 -0.1658  0.2304  0.2166
   55CHL1  H26A 4064  -0.127   4.304   5.332 -0.0413 -0.0442  0.1505
   55CHL1  H26B 4065  -0.171   4.271   5.502 -0.6197  0.6295 -0.1839
   55CHL1  H26C 4066  -0.060   4.406   5.447 -0.1493  0.1946  0.5042
   55CHL1   C27 4067   0.091   4.218   5.601  0.5956  0.7738 -0.0671
   55CHL1  H27A 4068   0.193   4.175   5.608  0.1338 -0.0469  2.5545
   55CHL1  H27B 4069   0.099   4.321   5.641 -1.8902  0.1169  2.4267
   55CHL1  H27C 4070   0.034   4.147   5.664 -0.4811  2.1102  0.4969
   56CHL1    C3 4071   5.871   2.925   3.883 -0.1247 -0.0238  0.2183
   56CHL1    H3 4072   5.802   3.000   3.927 -0.0223 -0.1058  0.5189
   56CHL1    O3 4073   5.849   2.927   3.737 -0.1885  0.3976 -0.1585
   56CHL1   H3' 4074   5.929   2.904   3.689  0.2709  3.3260 -0.9765
   56CHL1    C4 4075   6.017   2.958   3.921  0.2478 -0.0792 -0.2663
   56CHL1   H4A 4076   6.091   2.896   3.865 -0.8321 -0.4572 -1.3140
   56CHL1   H4B 4077   6.028   3.060   3.877 -1.6422 -0.1884 -1.0693
   56CHL1    C5 4078   6.030   2.945   4.073  0.0834  0.0555  0.5354
   56CHL1    C6 4079   6.045   3.049   4.154 -0.0350  0.0074 -0.1190
   56CHL1    H6 4080   6.067   3.149   4.112  1.3607  0.5347  1.7641
   56CHL1    C7 4081   6.053   3.045   4.306  0.1105 -0.5579 -0.4028
   56CHL1   H7A 4082   6.136   3.109   4.345  0.2429 -2.5210  2.9065
   56CHL1   H7B 4083   5.953   3.065   4.349 -0.0964 -0.8768 -0.7313
   56CHL1    C8 4084   6.083   2.897   4.355  0.4221  0.1658 -0.1627
   56CHL1    H8 4085   6.187   2.870   4.330  0.0104 -1.1467 -0.5368
   56CHL1   C14 4086   6.070   2.882   4.505 -0.1574 -0.0941 -0.2077
   56CHL1   H14 4087   5.962   2.902   4.518 -0.8924 -4.1685  1.7260
   56CHL1   C15 4088   6.142   2.978   4.595  0.8330 -0.8736  0.1648
   56CHL1  H15A 4089   6.250   2.978   4.569  0.6748  1.1758 -0.6916
   56CHL1  H15B 4090   6.099   3.080   4.584  3.8131  0.6316  1.2246
   56CHL1   C16 4091   6.135   2.912   4.732 -0.0232 -0.6800  0.0328
   56CHL1  H16A 4092   6.236   2.918   4.779  0.0515 -3.4241  0.3480
   56CHL1  H16B 4093   6.059   2.965   4.793 -3.2062 -0.7807 -3.5128
   56CHL1   C17 4094   6.081   2.775   4.708 -0.3453  0.6722  0.2952
   56CHL1   H17 4095   5.971   2.786   4.724 -0.2844  0.0716  1.2512
   56CHL1   C13 4096   6.094   2.741   4.563 -0.5457  0.0008  0.4895
   56CHL1   C18 4097   6.238   2.692   4.532  0.0212 -0.2073 -0.4201
   56CHL1  H18A 4098   6.251   2.598   4.590 -1.0524 -0.9961 -1.4263
   56CHL1  H18B 4099   6.245   2.674   4.423 -0.6706 -2.3990 -0.1403
   56CHL1  H18C 4100   6.313   2.766   4.568 -1.1069  0.7348  0.0657
   56CHL1   C12 4101   5.982   2.652   4.502 -0.0116  0.2140 -0.0780
   56CHL1  H12A 4102   6.004   2.551   4.543 -3.1755 -2.7111 -4.5901
   56CHL1  H12B 4103   5.896   2.707   4.547  2.8676  3.4095  1.9940
   56CHL1   C11 4104   5.994   2.656   4.345  0.3545 -0.3436  0.5719
   56CHL1  H11A 4105   6.093   2.615   4.314  0.4011 -0.0215  0.2907
   56CHL1  H11B 4106   5.914   2.592   4.302  1.7781 -1.7769 -0.0536
   56CHL1    C9 4107   5.990   2.800   4.287  0.4598 -0.5737 -0.3333
   56CHL1    H9 4108   5.887   2.827   4.320  0.9863 -1.9079  2.7182
   56CHL1   C10 4109   5.996   2.808   4.130  0.7581  0.1600  0.5717
   56CHL1   C19 4110   6.094   2.700   4.074 -0.0459  1.1857  0.5887
   56CHL1  H19A 4111   6.106   2.709   3.964 -0.9153  0.8417  0.4526
   56CHL1  H19B 4112   6.186   2.706   4.135  0.1693 -1.4190  0.6494
   56CHL1  H19C 4113   6.053   2.600   4.101 -0.5553  1.0141 -0.7132
   56CHL1    C1 4114   5.849   2.773   4.085  0.5022 -0.2574  0.3768
   56CHL1   H1A 4115   5.824   2.670   4.117  1.1727 -0.5235  0.0521
   56CHL1   H1B 4116   5.783   2.848   4.134  0.2692  0.8804 -1.5649
   56CHL1    C2 4117   5.817   2.788   3.934  0.1208 -0.2785  0.1342
   56CHL1   H2A 4118   5.709   2.775   3.912 -0.1810 -2.4371  2.4625
   56CHL1   H2B 4119   5.872   2.708   3.879  0.2041 -1.1532  1.4544
   56CHL1   C20 4120   6.124   2.671   4.816 -0.0212  0.1786 -0.1195
   56CHL1   H20 4121   6.229   2.643   4.791 -0.5347 -1.0669 -0.9783
   56CHL1   C21 4122   6.040   2.541   4.814  0.9591 -0.0294 -0.4373
   56CHL1  H21A 4123   5.931   2.559   4.820  0.7042 -1.1565 -1.4057
   56CHL1  H21B 4124   6.065   2.480   4.904  1.4913 -0.0054 -0.5669
   56CHL1  H21C 4125   6.070   2.474   4.731 -2.4626 -2.6801  0.2360
   56CHL1   C22 4126   6.121   2.719   4.961  0.6921  0.1785 -0.0130
   56CHL1  H22A 4127   6.150   2.632   5.024  0.0731  0.0116  0.0518
   56CHL1  H22B 4128   6.184   2.807   4.986 -2.2351  2.7016 -0.8423
   56CHL1   C23 4129   5.979   2.773   5.002 -0.2298 -1.3588 -0.7714
   56CHL1  H23A 4130   5.961   2.870   4.949  0.8289  0.1359  1.4539
   56CHL1  H23B 4131   5.893   2.710   4.971  1.2320 -2.5307 -2.6266
   56CHL1   C24 4132   5.964   2.801   5.153  0.0426  0.3710  0.0951
   56CHL1  H24A 4133   5.872   2.863   5.146  0.0774  0.3542 -0.6518
   56CHL1  H24B 4134   5.957   2.709   5.215  0.7439  0.3005  0.0867
   56CHL1   C25 4135   6.073   2.892   5.222 -0.0079  0.2936 -0.4514
   56CHL1   H25 4136   6.174   2.848   5.211 -0.0685  0.4713 -1.9375
   56CHL1   C26 4137   6.066   3.033   5.168 -0.3306 -0.4756 -0.2343
   56CHL1  H26A 4138   6.116   3.098   5.243 -1.3760 -0.5096  0.5157
   56CHL1  H26B 4139   6.123   3.047   5.074  1.5629 -0.5278  0.8626
   56CHL1  H26C 4140   5.964   3.076   5.152 -0.5697 -1.3804 -1.2547
   56CHL1   C27 4141   6.040   2.877   5.377 -0.8964 -0.0150  0.0896
   56CHL1  H27A 4142   6.133   2.911   5.428  0.1535  1.2616 -2.4976
   56CHL1  H27B 4143   5.957   2.949   5.393 -0.8036  0.6016 -1.9892
   56CHL1  H27C 4144   6.017   2.769   5.389  3.0480 -0.9526  0.5107
   57SAPC     N 4145   5.594   4.632   8.286 -0.4551 -0.3790  0.2713
   57SAPC   C12 4146   5.556   4.736   8.187 -0.2865 -0.0918 -0.1885
   57SAPC  H12A 4147   5.461   4.780   8.215 -0.7706 -1.0041 -0.3701
   57SAPC  H12B 4148   5.540   4.695   8.089  1.3660  0.1999 -0.6083
   57SAPC   C13 4149   5.738   4.557   8.258  0.9239 -0.0640  0.4245
   57SAPC  H13A 4150   5.745   4.468   8.320  3.4045 -0.9061 -0.9155
   57SAPC  H13B 4151   5.745   4.533   8.152 -0.6597 -0.1819  0.3144
   57SAPC  H13C 4152   5.815   4.628   8.281 -0.8208  1.9356  0.3591
   57SAPC   C14 4153   5.604   4.702   8.422  0.5903 -0.1863 -0.0470
   57SAPC  H14A 4154   5.603   4.621   8.493  0.2581  1.5557  2.0082
   57SAPC  H14B 4155   5.700   4.753   8.425 -0.6398  2.2755 -0.2889
   57SAPC  H14C 4156   5.531   4.778   8.443  2.3061  1.4397  0.3256
   57SAPC   C15 4157   5.488   4.523   8.286  0.4177 -0.1574 -0.3540
   57SAPC  H15A 4158   5.459   4.486   8.188  0.0207 -0.9951  0.0661
   57SAPC  H15B 4159   5.538   4.433   8.321  0.6051 -0.4277 -1.2777
   57SAPC  H15C 4160   5.403   4.561   8.340 -0.1677 -1.3082 -0.4494
   57SAPC   C11 4161   5.652   4.841   8.146  0.3071 -0.1915 -0.3668
   57SAPC  H11A 4162   5.748   4.794   8.117 -0.4201 -1.1502 -1.2893
   57SAPC  H11B 4163   5.664   4.906   8.236 -2.4023  0.3631 -0.3212
   57SAPC     P 4164   5.500   5.031   8.050 -0.1600  0.1496 -0.5831
   57SAPC   O13 4165   5.425   5.030   8.180  0.5182 -0.3875 -0.6142
   57SAPC   O14 4166   5.568   5.156   8.011  0.1095 -0.0678 -0.4247
   57SAPC   O12 4167   5.599   4.905   8.030  0.4055 -0.2031 -0.1884
   57SAPC   O11 4168   5.387   4.998   7.936  0.0539 -0.1300  0.0147
   57SAPC    C1 4169   5.420   4.911   7.831 -0.1657 -0.3445 -0.2142
   57SAPC    HA 4170   5.525   4.925   7.796 -0.7933 -0.9493 -2.5243
   57SAPC    HB 4171   5.403   4.805   7.862  0.4952  0.2637  2.4999
   57SAPC    C2 4172   5.341   4.941   7.698 -0.3202 -0.0569 -0.4813
   57SAPC    HS 4173   5.355   4.858   7.626 -0.0172 -0.6502  0.2456
   57SAPC   O21 4174   5.396   5.065   7.649  0.5985 -0.3857  0.0210
   57SAPC   C21 4175   5.417   5.069   7.523  0.4077 -0.2860 -0.5730
   57SAPC   O22 4176   5.405   4.974   7.445 -0.6030  0.9608 -0.0059
   57SAPC   C22 4177   5.475   5.205   7.482 -0.3803  0.7645  0.1383
   57SAPC   H2R 4178   5.448   5.280   7.559  1.4656  2.5669 -0.8620
   57SAPC   H2S 4179   5.586   5.214   7.480 -0.3690  1.8492  2.5122
   57SAPC    C3 4180   5.189   4.946   7.715 -0.4249  0.0524  0.1279
   57SAPC    HX 4181   5.177   5.029   7.788 -1.0476 -0.1338  0.2372
   57SAPC    HY 4182   5.142   4.850   7.741 -1.5356  1.0821  2.1495
   57SAPC   O31 4183   5.132   4.987   7.583 -0.4230  0.0064  0.3358
   57SAPC   C31 4184   5.008   5.020   7.584  0.8047 -0.5189 -0.7574
   57SAPC   O32 4185   4.929   5.032   7.678  0.3981 -0.9628 -0.0752
   57SAPC   C32 4186   4.964   5.034   7.437  0.9388  0.7619 -0.8217
   57SAPC   H2X 4187   5.014   4.952   7.381  0.9830  0.0513  0.2336
   57SAPC   H2Y 4188   4.994   5.130   7.391 -1.5544  1.4591 -1.1538
   57SAPC   C23 4189   5.420   5.247   7.342 -0.0776  0.6180  0.7779
   57SAPC   H3R 4190   5.374   5.346   7.362  2.5501  1.8535  1.1086
   57SAPC   H3S 4191   5.338   5.183   7.305 -0.3506  1.9217 -0.9450
   57SAPC   C24 4192   5.530   5.248   7.229 -0.4258 -0.5829  0.2800
   57SAPC   H4R 4193   5.611   5.320   7.256 -0.2670 -0.3148 -0.8853
   57SAPC   H4S 4194   5.482   5.303   7.146  0.3526 -1.2126 -0.6150
   57SAPC   C25 4195   5.575   5.107   7.200  0.2383  0.0428  0.2776
   57SAPC   H5R 4196   5.615   5.050   7.285 -0.1970  0.2590  0.6333
   57SAPC   C26 4197   5.567   5.041   7.082 -0.2565  0.0588 -0.8099
   57SAPC   H6R 4198   5.610   4.940   7.084 -0.8519 -0.1935 -0.2852
   57SAPC   C27 4199   5.501   5.089   6.959  0.5113 -0.2846 -0.0770
   57SAPC   H7R 4200   5.525   5.198   6.954 -0.6810  0.0511  0.9811
   57SAPC   H7S 4201   5.390   5.091   6.965  0.3822 -1.0950 -1.8099
   57SAPC   C28 4202   5.525   5.006   6.836 -0.0439  0.1444 -0.0746
   57SAPC   H8R 4203   5.464   4.915   6.831 -0.6610  0.5666 -0.3237
   57SAPC   C29 4204   5.614   5.024   6.739  0.4567  0.0542 -0.3055
   57SAPC   H9R 4205   5.606   4.954   6.655 -0.1135  1.5092 -1.5102
   57SAPC  C210 4206   5.703   5.145   6.733  0.0416 -0.4243  0.6483
   57SAPC  H10R 4207   5.813   5.127   6.734  0.0333 -0.4443  1.3946
   57SAPC  H10S 4208   5.692   5.207   6.825 -1.9805 -1.1949  0.9714
   57SAPC  C211 4209   5.667   5.235   6.612 -0.2452  0.5289  0.4940
   57SAPC  H11R 4210   5.638   5.339   6.636  0.3935  0.8867 -0.2147
   57SAPC  C212 4211   5.662   5.208   6.476  0.1941 -0.8662  0.3990
   57SAPC  H12R 4212   5.629   5.287   6.407  2.5475 -0.5377 -0.4356
   57SAPC  C213 4213   5.689   5.083   6.398 -0.3599 -0.2124  0.0122
   57SAPC  H13R 4214   5.628   5.071   6.306  1.7491 -0.1460 -1.4811
   57SAPC  H13S 4215   5.670   4.988   6.452 -0.5078 -0.0074  0.3251
   57SAPC  C214 4216   5.833   5.070   6.355 -0.3812  0.3600 -0.2332
   57SAPC  H14R 4217   5.914   5.120   6.411  2.4070 -4.6065  0.6993
   57SAPC  C215 4218   5.880   5.020   6.237  0.2497  0.0333  0.7788
   57SAPC  H15R 4219   5.990   5.019   6.228  0.5959 -0.2035  3.9348
   57SAPC  C216 4220   5.802   4.956   6.122  0.4368  0.4191 -0.4347
   57SAPC  H16R 4221   5.707   4.903   6.144  0.5506 -0.2291 -1.4667
   57SAPC  H16S 4222   5.862   4.869   6.089 -1.5276 -0.9103 -0.6634
   57SAPC  C217 4223   5.787   5.047   5.996  0.2190  0.2585 -0.0678
   57SAPC  H17R 4224   5.888   5.083   5.967  0.2131  0.6955  0.4222
   57SAPC  H17S 4225   5.730   5.138   6.023 -0.6604 -0.4154  0.4076
   57SAPC  C218 4226   5.732   4.981   5.873  0.1700  0.3883  0.2664
   57SAPC  H18R 4227   5.763   4.875   5.862  1.0693  0.8444 -2.6074
   57SAPC  H18S 4228   5.776   5.033   5.785  1.5002 -0.2453  0.5334
   57SAPC  C219 4229   5.579   5.002   5.852 -0.6552  0.1487  0.6476
   57SAPC  H19R 4230   5.561   4.979   5.744  1.2642  1.6936 -0.0582
   57SAPC  H19S 4231   5.552   5.109   5.859  1.3002  0.7188  0.1329
   57SAPC  C220 4232   5.488   4.916   5.941 -0.3880 -0.0865 -0.2144
   57SAPC  H20R 4233   5.492   4.811   5.902 -0.7247 -0.6918  1.3081
   57SAPC  H20S 4234   5.380   4.942   5.939  0.2679  3.0954  0.6986
   57SAPC  H20T 4235   5.520   4.920   6.047 -2.1914  0.5431  0.3428
   57SAPC   C33 4236   4.809   5.020   7.431 -0.3420 -0.1751  0.0944
   57SAPC   H3X 4237   4.772   5.116   7.472  0.5305  0.6570 -0.9974
   57SAPC   H3Y 4238   4.784   4.927   7.487  1.8318 -1.5561 -1.0756
   57SAPC   C34 4239   4.754   4.998   7.291  0.2018  0.3270 -1.0650
   57SAPC   H4X 4240   4.795   4.909   7.238  1.8426  0.1620  0.4058
   57SAPC   H4Y 4241   4.779   5.082   7.224  1.8646  0.0249 -0.8696
   57SAPC   C35 4242   4.600   4.957   7.291 -0.3395  0.1083 -0.3480
   57SAPC   H5X 4243   4.550   5.043   7.340  0.9231  0.2480  0.7597
   57SAPC   H5Y 4244   4.588   4.877   7.368 -0.1522  2.8527  2.7783
   57SAPC   C36 4245   4.552   4.923   7.146 -0.5267 -0.3047 -0.6320
   57SAPC   H6X 4246   4.619   4.841   7.114  0.6906  0.8178 -1.0674
   57SAPC   H6Y 4247   4.555   5.017   7.086 -1.8023  1.2530  1.5497
   57SAPC   C37 4248   4.405   4.865   7.137  0.0709  0.3289 -0.1991
   57SAPC   H7X 4249   4.341   4.954   7.157 -0.0552 -0.2429  2.2436
   57SAPC   H7Y 4250   4.381   4.784   7.209  0.4437  0.1961 -0.2262
   57SAPC   C38 4251   4.368   4.795   7.010 -0.6075 -0.7315 -0.1975
   57SAPC   H8X 4252   4.437   4.710   6.989 -0.5274 -0.6450 -0.2842
   57SAPC   H8Y 4253   4.375   4.873   6.931  1.8191 -1.6841 -1.0235
   57SAPC   C39 4254   4.231   4.738   7.002 -0.5751  0.1322  0.3602
   57SAPC   H9X 4255   4.164   4.827   7.010 -0.4233  0.1845  1.1129
   57SAPC   H9Y 4256   4.209   4.674   7.090  1.3667 -0.6236  0.3225
   57SAPC  C310 4257   4.203   4.664   6.879 -0.7541  0.0431 -0.3938
   57SAPC  H10X 4258   4.272   4.577   6.874  1.5702  1.7824 -0.0068
   57SAPC  H10Y 4259   4.233   4.725   6.791 -0.4212  0.5394  0.0574
   57SAPC  C311 4260   4.062   4.610   6.873  0.6059 -0.1793  0.1530
   57SAPC  H11X 4261   4.003   4.705   6.875  2.0290  0.8520 -2.5694
   57SAPC  H11Y 4262   4.044   4.551   6.965 -0.7069  1.3142  0.9191
   57SAPC  C312 4263   4.029   4.547   6.742  0.0276 -0.2308  0.1767
   57SAPC  H12X 4264   3.930   4.496   6.752  0.3563 -0.6446  1.6176
   57SAPC  H12Y 4265   4.094   4.458   6.728  0.9367  0.4062  0.3330
   57SAPC  C313 4266   4.032   4.636   6.624 -0.0390  0.2621  0.2024
   57SAPC  H13X 4267   4.137   4.663   6.598 -0.6154  2.5697  0.0400
   57SAPC  H13Y 4268   3.979   4.733   6.635  0.1101  0.2315  1.3101
   57SAPC  C314 4269   3.972   4.566   6.501  0.1686 -0.3177 -0.2540
   57SAPC  H14X 4270   3.863   4.548   6.517 -0.0876  1.0209 -0.4199
   57SAPC  H14Y 4271   4.014   4.464   6.519 -2.4483 -1.0577  2.5054
   57SAPC  C315 4272   4.019   4.621   6.361 -0.3270 -0.1006 -0.2283
   57SAPC  H15X 4273   4.118   4.578   6.335  1.1944  1.3465  2.6594
   57SAPC  H15Y 4274   4.031   4.732   6.368  0.1671 -0.0929 -1.0289
   57SAPC  C316 4275   3.919   4.589   6.246 -0.2462 -0.0880  0.5503
   57SAPC  H16X 4276   3.843   4.670   6.251 -0.8423 -0.5644 -0.5222
   57SAPC  H16Y 4277   3.866   4.493   6.260  0.9171 -0.5815  1.8918
   57SAPC  C317 4278   3.985   4.587   6.107  0.3117 -0.2390 -0.1405
   57SAPC  H17X 4279   4.069   4.515   6.115 -1.0090 -2.0421 -1.6714
   57SAPC  H17Y 4280   4.021   4.693   6.100 -2.4579  1.0581  2.7894
   57SAPC  C318 4281   3.901   4.540   5.994  0.0885  0.4165  0.1570
   57SAPC  H18X 4282   3.796   4.574   6.002 -0.0473 -0.0351  0.3484
   57SAPC  H18Y 4283   3.894   4.429   5.992 -1.5633  0.4939 -1.6576
   57SAPC  H18Z 4284   3.949   4.568   5.898  0.2066  0.9583  0.3720
   58SAPC     N 4285   1.780   4.910   7.514 -0.4915 -0.2145  0.1810
   58SAPC   C12 4286   1.858   4.780   7.500  0.2009  0.5290  0.3310
   58SAPC  H12A 4287   1.819   4.719   7.419  0.1063 -0.0116  0.7763
   58SAPC  H12B 4288   1.846   4.727   7.594 -0.4834  2.4724  1.3850
   58SAPC   C13 4289   1.822   4.977   7.643 -0.1864  0.4575  0.5738
   58SAPC  H13A 4290   1.817   4.914   7.730 -0.0279 -0.3317  0.0213
   58SAPC  H13B 4291   1.928   4.994   7.630 -0.4013  1.3360 -0.2059
   58SAPC  H13C 4292   1.781   5.075   7.664 -0.3238  1.1439 -2.4406
   58SAPC   C14 4293   1.813   5.003   7.399 -0.0663 -0.0634 -0.2708
   58SAPC  H14A 4294   1.789   4.962   7.302  1.1322  0.0798 -0.6373
   58SAPC  H14B 4295   1.778   5.102   7.423  0.5993 -0.4771  3.0162
   58SAPC  H14C 4296   1.919   5.016   7.384 -0.4814  1.2226 -2.5284
   58SAPC   C15 4297   1.634   4.885   7.525  0.0708  0.0248 -0.2691
   58SAPC  H15A 4298   1.593   4.823   7.447  0.6618  1.1244 -1.4949
   58SAPC  H15B 4299   1.602   4.844   7.620 -1.2548 -0.5725 -0.9454
   58SAPC  H15C 4300   1.578   4.977   7.526 -0.0567 -0.0566  0.2937
   58SAPC   C11 4301   2.010   4.793   7.475  0.6763  0.5717  0.6551
   58SAPC  H11A 4302   2.042   4.855   7.389 -1.5350  0.7809 -0.0767
   58SAPC  H11B 4303   2.037   4.689   7.447 -2.6298  0.2896 -2.1778
   58SAPC     P 4304   2.138   4.714   7.685  0.2491  0.0831 -0.1292
   58SAPC   O13 4305   2.163   4.769   7.820 -0.3098 -0.5764  0.2674
   58SAPC   O14 4306   2.043   4.599   7.674 -0.2224  0.0010 -0.3524
   58SAPC   O12 4307   2.081   4.828   7.591 -0.0493 -0.3666 -0.6902
   58SAPC   O11 4308   2.274   4.662   7.622 -0.0704  0.5825  0.1662
   58SAPC    C1 4309   2.384   4.753   7.605  0.6941 -0.6054  0.2187
   58SAPC    HA 4310   2.377   4.841   7.672  1.1820  0.4724 -1.1188
   58SAPC    HB 4311   2.483   4.706   7.622  1.3230 -0.1203 -1.8898
   58SAPC    C2 4312   2.408   4.803   7.457  0.2801  0.1188 -0.4954
   58SAPC    HS 4313   2.310   4.851   7.437  0.1643  0.0892 -0.0158
   58SAPC   O21 4314   2.433   4.700   7.367  0.2109  0.6844 -0.7028
   58SAPC   C21 4315   2.368   4.689   7.253 -0.1394 -0.7150  0.1801
   58SAPC   O22 4316   2.281   4.761   7.205 -0.3018  1.3876  0.0054
   58SAPC   C22 4317   2.408   4.558   7.196  0.0446 -0.2110  0.2759
   58SAPC   H2R 4318   2.519   4.558   7.195  0.1002 -2.7074  0.2213
   58SAPC   H2S 4319   2.384   4.484   7.275 -0.8326  1.0695  1.2614
   58SAPC    C3 4320   2.514   4.914   7.448  0.3838 -0.2385  1.0856
   58SAPC    HX 4321   2.619   4.879   7.440  0.1637 -0.5073 -1.6614
   58SAPC    HY 4322   2.515   4.974   7.542  1.2964  2.3394 -0.4496
   58SAPC   O31 4323   2.479   5.007   7.333  0.1262  0.9743 -0.4083
   58SAPC   C31 4324   2.548   4.962   7.224 -0.1553 -0.1240  0.1281
   58SAPC   O32 4325   2.634   4.875   7.224 -0.0046  0.2009 -0.8720
   58SAPC   C32 4326   2.514   5.054   7.102 -0.1516  0.0452 -0.1823
   58SAPC   H2X 4327   2.543   5.157   7.132 -1.3718  0.9938 -2.0359
   58SAPC   H2Y 4328   2.405   5.051   7.078 -0.3278 -1.6759  0.6526
   58SAPC   C23 4329   2.352   4.536   7.056 -0.0076  0.4424 -0.9451
   58SAPC   H3R 4330   2.242   4.552   7.062  0.1557  1.0734  2.2359
   58SAPC   H3S 4331   2.368   4.432   7.019 -1.3910  0.3715 -1.4109
   58SAPC   C24 4332   2.400   4.638   6.949  0.3600 -0.0427  0.5982
   58SAPC   H4R 4333   2.507   4.658   6.968 -0.4589  1.8564  3.9914
   58SAPC   H4S 4334   2.331   4.725   6.955 -1.5325 -1.5223  1.4654
   58SAPC   C25 4335   2.375   4.581   6.806 -0.0809  0.1030 -0.8856
   58SAPC   H5R 4336   2.293   4.508   6.816 -1.4777  1.8653  1.4288
   58SAPC   C26 4337   2.436   4.606   6.687  0.4246 -0.3844 -0.3305
   58SAPC   H6R 4338   2.399   4.570   6.589  0.1127 -0.1935 -0.2862
   58SAPC   C27 4339   2.541   4.711   6.669  0.0581 -0.0610 -0.3680
   58SAPC   H7R 4340   2.547   4.774   6.761 -1.1952 -0.4698  0.0107
   58SAPC   H7S 4341   2.499   4.779   6.592  1.8230 -1.4331 -2.6943
   58SAPC   C28 4342   2.663   4.664   6.600 -0.8488  0.5523  0.0416
   58SAPC   H8R 4343   2.747   4.632   6.664 -1.9018 -2.4800  0.0751
   58SAPC   C29 4344   2.681   4.659   6.463  0.5828 -0.8163  0.4264
   58SAPC   H9R 4345   2.776   4.636   6.414 -0.0867  0.1838 -1.4328
   58SAPC  C210 4346   2.581   4.712   6.361  0.0917 -0.0821  0.1423
   58SAPC  H10R 4347   2.635   4.765   6.280 -0.4596 -0.9051 -0.7818
   58SAPC  H10S 4348   2.525   4.798   6.402  3.5371  1.1893  2.7233
   58SAPC  C211 4349   2.501   4.595   6.308 -0.0395 -0.0040 -1.0804
   58SAPC  H11R 4350   2.425   4.562   6.381  0.4967  0.6303 -0.2245
   58SAPC  C212 4351   2.512   4.537   6.186  0.5640 -0.4395 -0.3597
   58SAPC  H12R 4352   2.435   4.462   6.162  0.7513 -1.0393  0.8750
   58SAPC  C213 4353   2.609   4.574   6.074  0.1158  0.1305 -0.1484
   58SAPC  H13R 4354   2.633   4.489   6.007  1.9481  2.1148 -2.1887
   58SAPC  H13S 4355   2.708   4.601   6.116  1.3936 -1.3453 -2.0558
   58SAPC  C214 4356   2.573   4.697   5.987  0.1528 -0.0043  0.6662
   58SAPC  H14R 4357   2.590   4.794   6.036  1.5886 -0.1309  0.4499
   58SAPC  C215 4358   2.516   4.692   5.870  0.6047 -0.3888 -0.2212
   58SAPC  H15R 4359   2.488   4.790   5.826 -1.6699  0.1417  2.1447
   58SAPC  C216 4360   2.482   4.567   5.786 -0.5539  0.0900 -1.0476
   58SAPC  H16R 4361   2.374   4.562   5.761 -0.7909 -1.0141  0.0937
   58SAPC  H16S 4362   2.497   4.472   5.842 -2.1556 -0.8068 -2.0503
   58SAPC  C217 4363   2.562   4.554   5.654 -0.0881 -0.2663 -0.1864
   58SAPC  H17R 4364   2.671   4.566   5.673  0.1184 -0.3375 -1.2418
   58SAPC  H17S 4365   2.535   4.638   5.586  0.6441  0.4918  0.4310
   58SAPC  C218 4366   2.532   4.426   5.585 -0.2747  0.2036 -0.4169
   58SAPC  H18R 4367   2.551   4.340   5.653  1.3331 -1.5934 -2.9447
   58SAPC  H18S 4368   2.611   4.418   5.507 -2.6492 -0.0417 -2.9248
   58SAPC  C219 4369   2.397   4.407   5.532  0.5401 -0.8110 -0.0439
   58SAPC  H19R 4370   2.362   4.496   5.474 -0.8989 -1.5861 -0.4262
   58SAPC  H19S 4371   2.335   4.400   5.624  0.9982  2.0506  0.5712
   58SAPC  C220 4372   2.386   4.292   5.444  0.0460  0.7121  0.4910
   58SAPC  H20R 4373   2.426   4.292   5.341 -0.5678 -0.1978  0.2364
   58SAPC  H20S 4374   2.281   4.259   5.428  0.9453 -1.7279 -1.0551
   58SAPC  H20T 4375   2.428   4.208   5.505  1.1867  0.2158 -0.9384
   58SAPC   C33 4376   2.594   5.014   6.971 -0.3015  0.1501  0.3995
   58SAPC   H3X 4377   2.536   4.934   6.921 -3.8899  1.1094  2.6690
   58SAPC   H3Y 4378   2.701   4.992   6.992  0.1277  1.8612  0.2208
   58SAPC   C34 4379   2.607   5.124   6.859  0.2655  0.5995 -0.2256
   58SAPC   H4X 4380   2.680   5.201   6.891  1.9360 -0.4873 -1.2996
   58SAPC   H4Y 4381   2.503   5.163   6.850 -0.4305 -0.9366  0.7067
   58SAPC   C35 4382   2.677   5.069   6.728  0.0756  0.0666 -0.7745
   58SAPC   H5X 4383   2.614   4.982   6.700 -1.4821  0.6078  0.8654
   58SAPC   H5Y 4384   2.775   5.023   6.755 -1.5068 -1.7467  2.5024
   58SAPC   C36 4385   2.698   5.170   6.607  0.4050  0.2104  0.1189
   58SAPC   H6X 4386   2.739   5.268   6.638  2.3805 -0.0762 -1.3359
   58SAPC   H6Y 4387   2.596   5.171   6.564 -0.0778  0.7452  1.2614
   58SAPC   C37 4388   2.789   5.118   6.493  0.1037 -0.4154  0.2101
   58SAPC   H7X 4389   2.781   5.012   6.461 -0.1977 -0.4808  0.4856
   58SAPC   H7Y 4390   2.892   5.114   6.533  0.7592 -0.2815 -1.3973
   58SAPC   C38 4391   2.776   5.198   6.362  0.2071 -0.6717  0.5456
   58SAPC   H8X 4392   2.855   5.272   6.338 -0.7223  0.7110  1.5839
   58SAPC   H8Y 4393   2.676   5.245   6.352 -0.7047 -2.7126 -0.4531
   58SAPC   C39 4394   2.805   5.101   6.240  0.4512  0.6605 -0.5214
   58SAPC   H9X 4395   2.735   5.015   6.250  2.1184 -0.4622  4.3038
   58SAPC   H9Y 4396   2.903   5.050   6.251 -0.6211 -1.1466  1.4615
   58SAPC  C310 4397   2.785   5.170   6.108  0.6508  0.8933 -1.1745
   58SAPC  H10X 4398   2.868   5.243   6.095 -1.1927  3.3199 -0.2297
   58SAPC  H10Y 4399   2.689   5.225   6.120  0.3754  0.2408 -0.3480
   58SAPC  C311 4400   2.768   5.070   5.989  0.3170 -0.5561 -0.5565
   58SAPC  H11X 4401   2.735   5.130   5.901  0.4637  1.8000  0.9049
   58SAPC  H11Y 4402   2.688   5.001   6.021 -1.0778  1.0767 -0.3989
   58SAPC  C312 4403   2.894   4.988   5.944 -0.3166 -0.0308 -0.3207
   58SAPC  H12X 4404   2.909   4.911   6.023 -1.2175 -1.4302 -1.4529
   58SAPC  H12Y 4405   2.981   5.057   5.941  0.1999 -0.6257  0.5098
   58SAPC  C313 4406   2.869   4.911   5.808 -0.5786  0.3192  0.2714
   58SAPC  H13X 4407   2.838   4.984   5.730 -0.3170  0.3584  0.2036
   58SAPC  H13Y 4408   2.793   4.831   5.820 -0.0719 -0.4394 -1.3318
   58SAPC  C314 4409   2.993   4.832   5.758  0.7426  0.0176 -0.3863
   58SAPC  H14X 4410   3.018   4.775   5.851 -1.6333  0.3898  0.5441
   58SAPC  H14Y 4411   3.076   4.900   5.731  1.0223 -0.6749 -1.3344
   58SAPC  C315 4412   2.968   4.725   5.654  0.6457 -0.9267  0.0756
   58SAPC  H15X 4413   2.876   4.673   5.690 -0.2707 -0.1465 -1.0475
   58SAPC  H15Y 4414   3.043   4.645   5.636  0.2968 -0.8145 -2.1687
   58SAPC  C316 4415   2.944   4.804   5.519 -0.0495 -0.7161 -0.0064
   58SAPC  H16X 4416   3.044   4.825   5.475  0.4517 -0.9890  0.9717
   58SAPC  H16Y 4417   2.911   4.906   5.549  1.4004 -0.6366  1.4739
   58SAPC  C317 4418   2.848   4.733   5.423 -0.0352 -0.4565  0.5666
   58SAPC  H17X 4419   2.817   4.799   5.339 -1.8681 -1.6220  0.2761
   58SAPC  H17Y 4420   2.754   4.716   5.479  0.3719 -0.5194  1.2380
   58SAPC  C318 4421   2.897   4.605   5.358 -0.0112 -0.3520  0.3075
   58SAPC  H18X 4422   2.927   4.528   5.432 -1.3477 -1.2376 -0.0383
   58SAPC  H18Y 4423   2.985   4.634   5.296 -0.9210  3.4522  0.5447
   58SAPC  H18Z 4424   2.821   4.561   5.290  0.8664 -0.6889 -0.4844
   59SAPC     N 4425   4.152   1.991   8.033  0.6023 -0.0247  0.4386
   59SAPC   C12 4426   4.150   1.962   7.885  0.6494  0.8949  0.4327
   59SAPC  H12A 4427   4.182   2.044   7.822 -0.6275  0.4223 -0.8650
   59SAPC  H12B 4428   4.046   1.961   7.859  0.7651  1.5786 -0.0749
   59SAPC   C13 4429   4.105   1.873   8.116 -0.7595  0.3459 -0.0551
   59SAPC  H13A 4430   4.009   1.835   8.084 -2.0962  1.9855  1.7819
   59SAPC  H13B 4431   4.176   1.791   8.112 -0.2686  0.8001 -0.8825
   59SAPC  H13C 4432   4.093   1.902   8.219 -4.0841 -2.0706  0.4029
   59SAPC   C14 4433   4.294   2.009   8.081  0.5775 -0.7602  0.3622
   59SAPC  H14A 4434   4.344   1.915   8.059 -3.2546 -2.7722 -0.7264
   59SAPC  H14B 4435   4.346   2.086   8.026 -1.5279 -1.1710 -2.4246
   59SAPC  H14C 4436   4.303   2.038   8.184  0.3724 -1.1584  0.4934
   59SAPC   C15 4437   4.073   2.113   8.067 -0.3542 -0.5621 -0.1345
   59SAPC  H15A 4438   3.968   2.111   8.039 -0.3818  1.6414 -0.4169
   59SAPC  H15B 4439   4.066   2.131   8.173 -0.5144  2.0545 -0.5065
   59SAPC  H15C 4440   4.108   2.206   8.024 -1.6280  0.8698  1.7259
   59SAPC   C11 4441   4.215   1.822   7.833  0.1646 -0.2005  0.3026
   59SAPC  H11A 4442   4.203   1.812   7.723  2.9435 -0.5589 -0.0495
   59SAPC  H11B 4443   4.142   1.745   7.864  1.4186 -1.8672 -0.7068
   59SAPC     P 4444   4.456   1.865   7.780  0.0496  0.2793  0.1499
   59SAPC   O13 4445   4.451   2.009   7.783 -0.6728  0.0565 -0.1798
   59SAPC   O14 4446   4.590   1.810   7.807  0.4912 -0.2866  0.0870
   59SAPC   O12 4447   4.347   1.798   7.878  0.3043 -0.4540 -0.2738
   59SAPC   O11 4448   4.418   1.799   7.635 -0.4325 -0.4089 -0.7949
   59SAPC    C1 4449   4.402   1.879   7.515 -0.0393 -0.5968  0.1074
   59SAPC    HA 4450   4.300   1.923   7.505 -0.5569 -1.6462  0.5824
   59SAPC    HB 4451   4.480   1.958   7.513  0.3088 -0.9424 -0.2661
   59SAPC    C2 4452   4.428   1.802   7.384  0.2598 -0.2309 -0.0833
   59SAPC    HS 4453   4.380   1.702   7.393 -1.8732  0.5598 -1.7346
   59SAPC   O21 4454   4.566   1.791   7.367  0.6682 -0.0270 -0.0454
   59SAPC   C21 4455   4.606   1.692   7.293  1.3041 -0.3190 -0.1503
   59SAPC   O22 4456   4.530   1.608   7.243 -0.3970  0.0365  0.5748
   59SAPC   C22 4457   4.758   1.685   7.284  0.3257 -0.5814 -0.6028
   59SAPC   H2R 4458   4.797   1.784   7.316 -1.0494  0.4021 -1.8235
   59SAPC   H2S 4459   4.779   1.600   7.354 -2.9409 -1.9919 -1.1101
   59SAPC    C3 4460   4.357   1.880   7.262 -0.6582  0.4221 -0.5344
   59SAPC    HX 4461   4.413   1.973   7.240 -0.1132  0.2353  0.0401
   59SAPC    HY 4462   4.257   1.909   7.300  0.7346  3.0771  1.3757
   59SAPC   O31 4463   4.343   1.810   7.134 -0.3001  0.6878 -0.4725
   59SAPC   C31 4464   4.255   1.713   7.142  0.2120  0.4751 -0.5857
   59SAPC   O32 4465   4.182   1.692   7.239  0.4407 -0.3566  0.0884
   59SAPC   C32 4466   4.264   1.634   7.009 -0.2554 -0.2326  0.0644
   59SAPC   H2X 4467   4.366   1.589   7.010 -0.2236 -0.1629 -0.0756
   59SAPC   H2Y 4468   4.260   1.708   6.926 -0.9045  0.3960  0.6399
   59SAPC   C23 4469   4.815   1.646   7.142  0.2222  0.0858 -0.4156
   59SAPC   H3R 4470   4.748   1.581   7.083 -1.0749  1.5917 -0.6793
   59SAPC   H3S 4471   4.917   1.603   7.153  0.3831 -0.1643 -2.4371
   59SAPC   C24 4472   4.835   1.767   7.050  0.2473  0.1142  0.5356
   59SAPC   H4R 4473   4.875   1.735   6.952  1.3013 -1.4206  1.4232
   59SAPC   H4S 4474   4.904   1.846   7.087 -0.4231  0.4243  1.1595
   59SAPC   C25 4475   4.714   1.848   7.023  0.7936  0.8741 -0.0819
   59SAPC   H5R 4476   4.683   1.917   7.103  0.3368 -0.1740  0.6748
   59SAPC   C26 4477   4.623   1.841   6.915  0.1956  0.2619  0.0269
   59SAPC   H6R 4478   4.535   1.906   6.917 -0.1324 -0.1693 -0.2793
   59SAPC   C27 4479   4.648   1.750   6.797  0.1931  0.0009 -0.1948
   59SAPC   H7R 4480   4.553   1.728   6.743  1.1304 -1.9199 -1.1396
   59SAPC   H7S 4481   4.683   1.652   6.835 -1.6718  0.0858  1.9408
   59SAPC   C28 4482   4.741   1.824   6.710 -0.5796  0.8914  0.1431
   59SAPC   H8R 4483   4.827   1.872   6.757 -1.8286  1.3650  2.0240
   59SAPC   C29 4484   4.748   1.803   6.576 -0.3984  0.0174  0.4576
   59SAPC   H9R 4485   4.821   1.859   6.516 -0.6619 -1.9778 -1.9023
   59SAPC  C210 4486   4.652   1.726   6.483 -0.3311 -0.3119  0.0907
   59SAPC  H10R 4487   4.562   1.676   6.526 -0.3419 -3.2387 -2.9575
   59SAPC  H10S 4488   4.703   1.648   6.422 -1.0717 -0.0990 -0.8263
   59SAPC  C211 4489   4.586   1.821   6.391 -0.5620  0.4120  0.3201
   59SAPC  H11R 4490   4.500   1.874   6.432 -0.2864  1.6617 -0.6864
   59SAPC  C212 4491   4.632   1.866   6.270  0.3888  0.1733  0.6631
   59SAPC  H12R 4492   4.572   1.944   6.222  0.7723 -0.5001 -0.9682
   59SAPC  C213 4493   4.749   1.807   6.197  0.1053  0.3311  0.2258
   59SAPC  H13R 4494   4.702   1.766   6.106 -0.2199  0.6198  0.2576
   59SAPC  H13S 4495   4.781   1.714   6.248 -2.2023  0.5741  2.3533
   59SAPC  C214 4496   4.865   1.902   6.177 -0.9840  0.1318  0.2337
   59SAPC  H14R 4497   4.904   1.932   6.276 -3.9797  0.7894  1.2977
   59SAPC  C215 4498   4.905   1.955   6.066 -0.2375 -0.6318 -0.1386
   59SAPC  H15R 4499   4.989   2.025   6.075 -1.0959  0.3152  0.8097
   59SAPC  C216 4500   4.850   1.942   5.929  0.7505 -0.6934 -0.2688
   59SAPC  H16R 4501   4.851   2.040   5.876 -2.7065 -1.4229 -1.9064
   59SAPC  H16S 4502   4.742   1.922   5.940  1.4149 -4.5862  0.5772
   59SAPC  C217 4503   4.915   1.831   5.855  0.1963 -0.4929  0.0260
   59SAPC  H17R 4504   4.857   1.805   5.764  1.9047 -1.3445 -0.8677
   59SAPC  H17S 4505   4.931   1.739   5.915 -0.4745 -0.6486 -0.0279
   59SAPC  C218 4506   5.053   1.869   5.793 -0.5532  0.3167  0.2957
   59SAPC  H18R 4507   5.127   1.894   5.871 -1.8403 -0.1252  1.7051
   59SAPC  H18S 4508   5.027   1.954   5.727 -1.8589 -0.7998 -0.6969
   59SAPC  C219 4509   5.106   1.746   5.715 -0.2801 -0.9182 -0.5305
   59SAPC  H19R 4510   5.023   1.727   5.644 -2.0766 -2.2021  1.7905
   59SAPC  H19S 4511   5.113   1.664   5.790  0.7022 -0.5091 -0.1469
   59SAPC  C220 4512   5.241   1.764   5.640 -0.2668  0.1940 -0.0367
   59SAPC  H20R 4513   5.327   1.798   5.702  0.8097 -0.0185 -1.3736
   59SAPC  H20S 4514   5.227   1.841   5.561 -1.1573  1.3145  1.1853
   59SAPC  H20T 4515   5.279   1.674   5.587 -1.9311 -1.4971  1.5029
   59SAPC   C33 4516   4.157   1.519   6.988  0.3901 -0.6823 -0.1154
   59SAPC   H3X 4517   4.054   1.558   7.000  1.5022  2.0930  1.4901
   59SAPC   H3Y 4518   4.179   1.451   7.073 -0.9511  3.8143  4.3657
   59SAPC   C34 4519   4.177   1.453   6.849 -0.4634  0.0158  0.2610
   59SAPC   H4X 4520   4.108   1.367   6.846 -0.3801 -0.0401 -0.0645
   59SAPC   H4Y 4521   4.280   1.411   6.845 -1.0117 -1.2706 -2.4352
   59SAPC   C35 4522   4.162   1.535   6.724  0.0204  0.3144 -0.2721
   59SAPC   H5X 4523   4.245   1.607   6.738  1.1623 -0.8427 -0.8764
   59SAPC   H5Y 4524   4.064   1.584   6.745  0.5685 -0.0246  3.9203
   59SAPC   C36 4525   4.163   1.453   6.592  0.8257  0.1796 -0.4001
   59SAPC   H6X 4526   4.059   1.441   6.555 -0.0085  1.9879  1.1670
   59SAPC   H6Y 4527   4.210   1.354   6.608 -0.9476 -0.3291  2.3821
   59SAPC   C37 4528   4.244   1.531   6.483  0.6265  0.2983  0.5096
   59SAPC   H7X 4529   4.339   1.569   6.527  1.2995  1.7953 -2.0320
   59SAPC   H7Y 4530   4.184   1.622   6.462  0.2812 -0.0764 -0.1679
   59SAPC   C38 4531   4.284   1.460   6.351  0.2225 -0.1980  0.2595
   59SAPC   H8X 4532   4.201   1.411   6.294 -0.2324 -1.5795  2.0216
   59SAPC   H8Y 4533   4.363   1.384   6.370  2.0627  1.6955  0.5622
   59SAPC   C39 4534   4.353   1.559   6.258  0.2971 -0.5089  0.0745
   59SAPC   H9X 4535   4.443   1.607   6.303  1.8675 -1.6043 -1.7462
   59SAPC   H9Y 4536   4.270   1.630   6.234 -2.8292 -4.0669 -0.4941
   59SAPC  C310 4537   4.389   1.487   6.128  0.2065 -0.0343  0.0887
   59SAPC  H10X 4538   4.293   1.476   6.073 -0.5976  0.3321  1.3703
   59SAPC  H10Y 4539   4.431   1.386   6.147 -0.9364 -0.2986  1.3694
   59SAPC  C311 4540   4.495   1.560   6.041 -0.1063 -0.2743 -0.9424
   59SAPC  H11X 4541   4.597   1.564   6.085  0.0027  0.8659 -1.2604
   59SAPC  H11Y 4542   4.453   1.663   6.040 -2.7280 -1.1563  2.3127
   59SAPC  C312 4543   4.495   1.498   5.900  0.1919 -0.9568  0.0080
   59SAPC  H12X 4544   4.401   1.535   5.853 -0.9151 -3.8392 -0.2487
   59SAPC  H12Y 4545   4.494   1.387   5.896  2.2392 -1.1489  2.2804
   59SAPC  C313 4546   4.613   1.532   5.807 -0.0346 -0.5016 -0.3385
   59SAPC  H13X 4547   4.702   1.474   5.841 -0.0249 -1.8469 -2.4915
   59SAPC  H13Y 4548   4.633   1.642   5.808  0.4775 -0.5461 -2.1412
   59SAPC  C314 4549   4.588   1.493   5.665 -0.5306 -0.7590 -0.1987
   59SAPC  H14X 4550   4.520   1.405   5.663 -1.4936 -0.0558  0.5851
   59SAPC  H14Y 4551   4.678   1.459   5.609 -0.9377  0.8235 -1.9334
   59SAPC  C315 4552   4.520   1.604   5.580  1.0078  0.3090 -0.0920
   59SAPC  H15X 4553   4.452   1.664   5.644  0.3359 -0.4228 -0.1014
   59SAPC  H15Y 4554   4.452   1.543   5.517  0.0945 -0.5684  1.6546
   59SAPC  C316 4555   4.612   1.695   5.507  0.0234  0.0760  0.8655
   59SAPC  H16X 4556   4.710   1.671   5.554 -0.3992 -2.0780  0.7450
   59SAPC  H16Y 4557   4.583   1.803   5.511 -2.3073 -0.4888  0.5431
   59SAPC  C317 4558   4.643   1.660   5.358 -0.4122 -0.1132  0.3554
   59SAPC  H17X 4559   4.558   1.686   5.291 -1.2917  0.0966  1.5258
   59SAPC  H17Y 4560   4.643   1.549   5.359 -1.4330 -0.1339  2.4358
   59SAPC  C318 4561   4.783   1.710   5.313  0.5810 -0.9977 -0.2800
   59SAPC  H18X 4562   4.799   1.655   5.218 -1.7122 -0.3953 -1.0835
   59SAPC  H18Y 4563   4.860   1.673   5.384  1.4350 -0.3021 -0.8252
   59SAPC  H18Z 4564   4.783   1.820   5.299  2.6169 -1.1107 -1.5455
   60SAPC     N 4565   4.502   0.560   8.163 -0.2857  0.6726 -1.0645
   60SAPC   C12 4566   4.594   0.675   8.108  0.7622  0.4906  0.2742
   60SAPC  H12A 4567   4.687   0.682   8.162  0.1580  1.4147  1.2296
   60SAPC  H12B 4568   4.537   0.765   8.124 -3.6339 -2.0870  0.6362
   60SAPC   C13 4569   4.358   0.572   8.113 -0.3771 -0.0977  0.0496
   60SAPC  H13A 4570   4.361   0.569   8.005 -2.8472  1.2732 -0.1439
   60SAPC  H13B 4571   4.300   0.492   8.158 -2.7032  1.8918  0.8013
   60SAPC  H13C 4572   4.321   0.667   8.148  2.7495 -0.0152  3.7497
   60SAPC   C14 4573   4.559   0.426   8.139 -0.1522 -0.4227 -0.4519
   60SAPC  H14A 4574   4.485   0.349   8.157 -2.1935  1.1971 -1.4637
   60SAPC  H14B 4575   4.589   0.411   8.036 -0.8059 -3.9267 -0.2604
   60SAPC  H14C 4576   4.640   0.410   8.209  0.1034 -0.3543 -0.7254
   60SAPC   C15 4577   4.488   0.553   8.316 -1.0063 -0.3004  0.3599
   60SAPC  H15A 4578   4.407   0.489   8.347 -2.5159  1.6498  0.6207
   60SAPC  H15B 4579   4.576   0.510   8.361 -1.4701 -1.9733 -0.2590
   60SAPC  H15C 4580   4.471   0.650   8.361  2.5001  0.9887 -0.7517
   60SAPC   C11 4581   4.618   0.669   7.954 -0.7763 -0.0839 -0.0646
   60SAPC  H11A 4582   4.665   0.571   7.930 -2.0338 -1.2147  1.8279
   60SAPC  H11B 4583   4.688   0.750   7.927 -1.1384  0.5676  0.8950
   60SAPC     P 4584   4.435   0.821   7.844  0.3736 -0.0185  0.7960
   60SAPC   O13 4585   4.352   0.866   7.962 -0.0671 -0.0975 -0.0532
   60SAPC   O14 4586   4.533   0.920   7.797 -0.2672  0.4666  0.5363
   60SAPC   O12 4587   4.498   0.674   7.871 -0.9879 -0.7771  0.4312
   60SAPC   O11 4588   4.319   0.781   7.730  0.1353 -0.4714 -0.1466
   60SAPC    C1 4589   4.356   0.690   7.631  0.0848 -0.4903 -0.7868
   60SAPC    HA 4590   4.393   0.593   7.671  0.7291  0.7695  1.8724
   60SAPC    HB 4591   4.270   0.649   7.573  0.8551 -1.5224 -1.2368
   60SAPC    C2 4592   4.452   0.751   7.531 -0.5163 -0.1533  0.2760
   60SAPC    HS 4593   4.534   0.806   7.580  0.9648  1.8807 -3.9513
   60SAPC   O21 4594   4.387   0.847   7.438 -0.2606  0.7771 -0.6177
   60SAPC   C21 4595   4.453   0.959   7.408 -0.6755 -0.1629  0.6755
   60SAPC   O22 4596   4.574   0.977   7.427  0.8954  0.0747 -0.6875
   60SAPC   C22 4597   4.376   1.057   7.323 -0.3658  0.5497  0.4270
   60SAPC   H2R 4598   4.372   1.015   7.220 -0.8165  2.1976 -0.2648
   60SAPC   H2S 4599   4.275   1.049   7.369 -1.0500  0.9643 -0.9614
   60SAPC    C3 4600   4.516   0.638   7.444  1.0863 -0.3677 -0.1205
   60SAPC    HX 4601   4.441   0.591   7.377  1.9024  1.8545 -2.7613
   60SAPC    HY 4602   4.559   0.570   7.521  0.7905 -0.6575 -0.2083
   60SAPC   O31 4603   4.622   0.686   7.357  0.1643 -0.1993 -0.3840
   60SAPC   C31 4604   4.729   0.605   7.339  0.1517 -0.3510  0.0620
   60SAPC   O32 4605   4.743   0.495   7.396 -0.0200 -0.5979  0.2547
   60SAPC   C32 4606   4.842   0.679   7.270 -0.3135  0.1048 -0.2895
   60SAPC   H2X 4607   4.925   0.605   7.262 -0.5080 -0.0633 -0.7825
   60SAPC   H2Y 4608   4.879   0.763   7.333 -1.2146 -1.8759  3.1455
   60SAPC   C23 4609   4.451   1.194   7.337 -0.4551 -0.1390 -0.0049
   60SAPC   H3R 4610   4.550   1.196   7.286 -1.3206  2.9625 -1.8401
   60SAPC   H3S 4611   4.471   1.221   7.443 -0.9599 -0.4110  0.1655
   60SAPC   C24 4612   4.374   1.320   7.279 -0.6414 -0.4340  0.2694
   60SAPC   H4R 4613   4.372   1.310   7.169  0.5822  0.1242  0.1818
   60SAPC   H4S 4614   4.432   1.408   7.312  0.5195 -0.4023 -1.7512
   60SAPC   C25 4615   4.230   1.331   7.338 -0.0095 -0.2065  0.1508
   60SAPC   H5R 4616   4.229   1.397   7.425 -0.9489  1.0557 -0.7792
   60SAPC   C26 4617   4.112   1.272   7.295 -0.3531 -0.2058  0.1948
   60SAPC   H6R 4618   4.026   1.280   7.363  0.4260  1.5945  1.0019
   60SAPC   C27 4619   4.090   1.179   7.177  0.3147 -0.2764 -0.3576
   60SAPC   H7R 4620   4.182   1.121   7.152  0.5618  1.1287 -3.2094
   60SAPC   H7S 4621   4.065   1.243   7.089 -0.4630  0.9208  0.6901
   60SAPC   C28 4622   3.970   1.092   7.209  0.3876 -0.3218 -0.0973
   60SAPC   H8R 4623   3.984   1.015   7.287 -0.9385 -0.8164 -0.3142
   60SAPC   C29 4624   3.848   1.100   7.151  0.3670 -0.7456 -0.2817
   60SAPC   H9R 4625   3.761   1.040   7.178  0.5164 -0.7014  0.3207
   60SAPC  C210 4626   3.815   1.213   7.055  0.1327 -0.1629  0.2844
   60SAPC  H10R 4627   3.858   1.312   7.082  0.9452 -0.8092  1.4154
   60SAPC  H10S 4628   3.705   1.228   7.055  0.1395 -0.1047  0.1012
   60SAPC  C211 4629   3.865   1.157   6.920  0.7336  0.1026  0.0528
   60SAPC  H11R 4630   3.934   1.072   6.913 -1.6005 -1.8902 -0.2669
   60SAPC  C212 4631   3.815   1.211   6.807  0.2565  0.1034 -0.0849
   60SAPC  H12R 4632   3.837   1.170   6.707 -3.0011 -1.1928 -0.3771
   60SAPC  C213 4633   3.720   1.335   6.786  0.3463 -0.0941 -0.8639
   60SAPC  H13R 4634   3.718   1.403   6.873 -1.3622 -1.7329  0.4685
   60SAPC  H13S 4635   3.620   1.289   6.773  0.1019 -0.1871  1.1062
   60SAPC  C214 4636   3.784   1.410   6.669 -0.3781  0.7535 -0.0308
   60SAPC  H14R 4637   3.850   1.491   6.702  2.8848 -1.7762  0.2367
   60SAPC  C215 4638   3.775   1.388   6.534  0.0815  0.6991  0.9538
   60SAPC  H15R 4639   3.820   1.460   6.465  1.0999 -1.4235 -0.7029
   60SAPC  C216 4640   3.684   1.295   6.450 -0.1701 -0.6981  0.3362
   60SAPC  H16R 4641   3.642   1.345   6.361  1.9887  0.7768  0.0679
   60SAPC  H16S 4642   3.602   1.261   6.518 -1.3452  1.5015  0.1191
   60SAPC  C217 4643   3.776   1.185   6.398 -0.2644  0.0043  0.4016
   60SAPC  H17R 4644   3.717   1.113   6.338 -0.0428  2.5028 -3.0565
   60SAPC  H17S 4645   3.808   1.125   6.487 -1.0348  0.7640  1.2118
   60SAPC  C218 4646   3.895   1.239   6.313  0.4020 -0.3360  0.1638
   60SAPC  H18R 4647   3.972   1.289   6.376  2.8940 -4.0669  0.4096
   60SAPC  H18S 4648   3.845   1.305   6.239  0.2506  0.0358  0.5898
   60SAPC  C219 4649   3.967   1.118   6.242  0.6961  0.0878  0.5042
   60SAPC  H19R 4650   3.993   1.035   6.311 -3.2128 -1.2468  0.6498
   60SAPC  H19S 4651   4.067   1.160   6.218  1.7477 -2.8164 -0.5817
   60SAPC  C220 4652   3.910   1.062   6.112  0.3376  0.2590  0.1656
   60SAPC  H20R 4653   3.894   1.146   6.041  1.8810  0.9372  0.5937
   60SAPC  H20S 4654   3.807   1.022   6.122  0.6214 -1.3698 -2.4545
   60SAPC  H20T 4655   3.977   0.995   6.054  1.4863  1.8339 -0.3838
   60SAPC   C33 4656   4.792   0.742   7.136 -0.2700  0.0931  0.2422
   60SAPC   H3X 4657   4.873   0.801   7.088  1.0757  0.6652  2.9812
   60SAPC   H3Y 4658   4.705   0.807   7.157 -1.0143 -0.5912 -0.6349
   60SAPC   C34 4659   4.767   0.637   7.024  0.6299 -0.2108 -0.4510
   60SAPC   H4X 4660   4.717   0.684   6.936  0.7134 -1.3207 -1.1043
   60SAPC   H4Y 4661   4.698   0.560   7.065 -0.4083  0.9733  0.1065
   60SAPC   C35 4662   4.884   0.552   6.979 -0.1679  0.5443 -0.6329
   60SAPC   H5X 4663   4.924   0.493   7.065 -1.5761  0.9892  0.3735
   60SAPC   H5Y 4664   4.961   0.608   6.922  0.4678 -0.7386 -1.0830
   60SAPC   C36 4665   4.832   0.440   6.882 -0.3267 -0.0232 -0.6657
   60SAPC   H6X 4666   4.730   0.410   6.913  0.1855  0.0353  1.2499
   60SAPC   H6Y 4667   4.907   0.359   6.892  0.4281  0.8029  0.7948
   60SAPC   C37 4668   4.846   0.496   6.741 -0.0634  0.8181 -0.5458
   60SAPC   H7X 4669   4.942   0.547   6.723 -0.7252  1.7668 -1.5113
   60SAPC   H7Y 4670   4.764   0.570   6.727 -1.0165  0.2472  1.5156
   60SAPC   C38 4671   4.849   0.379   6.640  0.5715 -0.2086 -0.4902
   60SAPC   H8X 4672   4.755   0.320   6.634 -0.2685  1.1910 -3.0031
   60SAPC   H8Y 4673   4.924   0.301   6.665  1.5026  0.9997  0.6368
   60SAPC   C39 4674   4.882   0.438   6.499 -0.0582  0.8985  0.1706
   60SAPC   H9X 4675   4.974   0.499   6.491  0.7189 -0.3268 -0.4754
   60SAPC   H9Y 4676   4.793   0.501   6.478 -1.0851 -0.7749 -0.7518
   60SAPC  C310 4677   4.901   0.328   6.398 -0.3287 -0.4145  0.3503
   60SAPC  H10X 4678   4.802   0.284   6.375 -1.1843  0.6895  1.7455
   60SAPC  H10Y 4679   4.971   0.253   6.442 -0.9612 -0.3134  1.5744
   60SAPC  C311 4680   4.952   0.388   6.256 -0.0667 -0.1769 -0.8456
   60SAPC  H11X 4681   5.049   0.436   6.282 -1.1782  1.3225  0.7572
   60SAPC  H11Y 4682   4.890   0.474   6.224  0.5429  0.6830  0.2306
   60SAPC  C312 4683   4.952   0.297   6.138  0.1789  0.3618  0.9806
   60SAPC  H12X 4684   4.858   0.239   6.149  1.4200 -2.4528 -1.9740
   60SAPC  H12Y 4685   5.038   0.234   6.168  2.6147  3.3861  0.8647
   60SAPC  C313 4686   4.981   0.362   6.005 -0.1407 -0.3344  0.4580
   60SAPC  H13X 4687   5.090   0.383   6.011 -0.4587  1.5181  0.4395
   60SAPC  H13Y 4688   4.929   0.459   5.988  1.5608  0.1370 -2.8310
   60SAPC  C314 4689   4.958   0.279   5.881  0.5795 -0.2239  0.2111
   60SAPC  H14X 4690   4.861   0.226   5.887 -0.3434  1.2420 -0.9039
   60SAPC  H14Y 4691   5.037   0.204   5.862 -1.3378 -1.7151 -2.5443
   60SAPC  C315 4692   4.954   0.357   5.753 -1.1324 -0.3977 -0.6425
   60SAPC  H15X 4693   5.050   0.412   5.756 -1.2231 -0.1391 -1.7968
   60SAPC  H15Y 4694   4.868   0.428   5.754 -1.5797 -0.9327  0.0159
   60SAPC  C316 4695   4.944   0.265   5.630 -0.6713 -0.6827  0.1911
   60SAPC  H16X 4696   4.854   0.203   5.651 -0.2999 -0.3824  3.0720
   60SAPC  H16Y 4697   5.031   0.197   5.613 -0.4177 -1.0803  2.7289
   60SAPC  C317 4698   4.910   0.347   5.498 -0.2371 -0.0992 -0.3092
   60SAPC  H17X 4699   4.999   0.411   5.483  0.2348 -0.6253  0.1963
   60SAPC  H17Y 4700   4.824   0.416   5.512  0.3026  1.8609 -4.9307
   60SAPC  C318 4701   4.868   0.259   5.384  0.0504 -0.2438  0.4848
   60SAPC  H18X 4702   4.790   0.192   5.426 -0.2584  0.5915  1.2873
   60SAPC  H18Y 4703   4.958   0.206   5.346 -0.0815  0.3177 -0.6619
   60SAPC  H18Z 4704   4.818   0.321   5.306  1.6500 -0.4940 -0.7941
   61SAPC     N 4705   0.703   2.388   8.185  0.5265 -0.2215  0.7106
   61SAPC   C12 4706   0.651   2.439   8.054 -0.0711  0.1482  0.2566
   61SAPC  H12A 4707   0.647   2.547   8.059  0.1845  0.1103  1.7366
   61SAPC  H12B 4708   0.545   2.419   8.043  0.1801 -1.0999  0.0514
   61SAPC   C13 4709   0.850   2.413   8.205  0.2598 -0.6559 -1.0393
   61SAPC  H13A 4710   0.913   2.371   8.128 -1.3323 -0.6848 -2.3921
   61SAPC  H13B 4711   0.874   2.518   8.203  0.8858 -0.7352  0.9741
   61SAPC  H13C 4712   0.878   2.384   8.305  2.5099  0.7588 -1.1926
   61SAPC   C14 4713   0.632   2.452   8.297 -0.2640 -0.6749 -0.8043
   61SAPC  H14A 4714   0.656   2.557   8.297 -1.7905 -0.3049 -0.4946
   61SAPC  H14B 4715   0.525   2.450   8.286 -0.2777 -1.1794 -0.6203
   61SAPC  H14C 4716   0.669   2.412   8.390 -1.1578 -0.0751 -0.1817
   61SAPC   C15 4717   0.683   2.236   8.190 -0.3534 -0.2935  0.3325
   61SAPC  H15A 4718   0.746   2.190   8.115  0.9624  3.2209 -0.9223
   61SAPC  H15B 4719   0.725   2.200   8.283 -0.1169 -2.4655 -0.5676
   61SAPC  H15C 4720   0.581   2.201   8.185 -1.0553  1.7502 -0.9411
   61SAPC   C11 4721   0.713   2.385   7.928  0.1573  1.1492  0.3030
   61SAPC  H11A 4722   0.820   2.409   7.942  0.4075  0.5113 -0.4070
   61SAPC  H11B 4723   0.676   2.444   7.841 -0.8072 -1.5557 -1.2568
   61SAPC     P 4724   0.786   2.161   7.823 -0.1818 -0.4123 -0.3094
   61SAPC   O13 4725   0.917   2.187   7.889  0.1414  0.3699 -0.6172
   61SAPC   O14 4726   0.750   2.014   7.816  0.6249 -0.1697 -0.6091
   61SAPC   O12 4727   0.680   2.250   7.898 -0.2416  0.3348  0.0942
   61SAPC   O11 4728   0.794   2.220   7.676 -0.7737  0.0882  0.5880
   61SAPC    C1 4729   0.672   2.214   7.602 -0.0780 -0.1281 -0.4857
   61SAPC    HA 4730   0.637   2.110   7.589 -0.0337 -0.4273  1.4028
   61SAPC    HB 4731   0.593   2.269   7.660  0.2016  1.4261 -1.5125
   61SAPC    C2 4732   0.679   2.272   7.451 -0.0935 -0.0789 -0.0950
   61SAPC    HS 4733   0.587   2.242   7.398 -0.9368 -0.6636  1.6277
   61SAPC   O21 4734   0.799   2.216   7.389 -0.0688 -0.2064 -0.3357
   61SAPC   C21 4735   0.779   2.097   7.350 -0.4867  0.4362 -0.7646
   61SAPC   O22 4736   0.669   2.040   7.354 -0.3783  0.4354  0.3254
   61SAPC   C22 4737   0.909   2.044   7.295 -0.6413  0.2840  0.1876
   61SAPC   H2R 4738   0.972   2.127   7.255 -1.4006 -0.2741 -2.3148
   61SAPC   H2S 4739   0.969   1.987   7.370 -1.6737 -0.3723  0.5335
   61SAPC    C3 4740   0.703   2.432   7.454 -0.1252  0.9064  0.5295
   61SAPC    HX 4741   0.792   2.449   7.518  1.1160  0.2904 -0.9832
   61SAPC    HY 4742   0.619   2.480   7.510 -0.3860 -0.2999  1.2163
   61SAPC   O31 4743   0.705   2.484   7.316 -0.5964  0.6383 -0.5575
   61SAPC   C31 4744   0.813   2.548   7.291 -1.3372  0.1721  0.3363
   61SAPC   O32 4745   0.896   2.584   7.371 -0.4504 -0.3017 -0.0517
   61SAPC   C32 4746   0.806   2.580   7.145  0.3875  0.4128 -0.4561
   61SAPC   H2X 4747   0.712   2.631   7.117 -1.2099 -1.8228  0.5329
   61SAPC   H2Y 4748   0.800   2.482   7.093 -0.0773  0.7157 -0.9796
   61SAPC   C23 4749   0.889   1.959   7.177  0.1539  0.8759  0.4535
   61SAPC   H3R 4750   0.849   1.858   7.198  2.2756 -0.4447 -1.4262
   61SAPC   H3S 4751   0.987   1.932   7.134 -0.7296 -0.7741 -0.6446
   61SAPC   C24 4752   0.807   2.017   7.057  0.0872  0.3922  0.4091
   61SAPC   H4R 4753   0.700   2.028   7.082 -0.1755  0.7641 -0.8372
   61SAPC   H4S 4754   0.806   1.945   6.972 -0.0956  0.3071  0.4831
   61SAPC   C25 4755   0.853   2.152   7.004 -0.2175  0.2512 -1.3794
   61SAPC   H5R 4756   0.826   2.233   7.074  0.3018 -0.5209 -0.2629
   61SAPC   C26 4757   0.917   2.181   6.890  0.3022  0.2814 -0.5016
   61SAPC   H6R 4758   0.951   2.286   6.889 -1.1806  0.8459 -3.5253
   61SAPC   C27 4759   0.973   2.095   6.780 -0.1063  0.4902  0.1342
   61SAPC   H7R 4760   0.894   2.088   6.702  1.1692  1.6814 -1.3494
   61SAPC   H7S 4761   0.977   1.987   6.805  3.2814 -0.0477 -1.9710
   61SAPC   C28 4762   1.090   2.142   6.701  0.0398 -0.1252 -1.2247
   61SAPC   H8R 4763   1.156   2.219   6.745  1.1652 -1.7268  0.0052
   61SAPC   C29 4764   1.139   2.084   6.590  0.0244  0.3326  0.3569
   61SAPC   H9R 4765   1.218   2.140   6.538 -1.2402  2.6277  0.7560
   61SAPC  C210 4766   1.079   1.959   6.524 -0.6169 -0.4223  1.0036
   61SAPC  H10R 4767   1.018   1.900   6.595 -1.9418  1.7963  1.8160
   61SAPC  H10S 4768   1.161   1.888   6.499 -0.9913 -0.3202 -0.6724
   61SAPC  C211 4769   1.004   2.010   6.392 -0.0747 -0.2707  0.6438
   61SAPC  H11R 4770   0.922   2.081   6.413  0.6199 -0.2439  3.5408
   61SAPC  C212 4771   1.037   1.996   6.262  0.0171  0.9850 -0.3630
   61SAPC  H12R 4772   0.965   2.040   6.191 -1.7996  1.5761  1.7098
   61SAPC  C213 4773   1.148   1.922   6.197 -0.2354 -0.0478 -0.0400
   61SAPC  H13R 4774   1.099   1.839   6.142 -0.9635  0.3012  0.0629
   61SAPC  H13S 4775   1.223   1.877   6.266 -1.1442 -0.2861  0.8151
   61SAPC  C214 4776   1.216   2.007   6.096  0.0301 -1.2196  0.3636
   61SAPC  H14R 4777   1.253   2.104   6.133 -1.4498  0.6899 -2.7230
   61SAPC  C215 4778   1.252   1.984   5.969 -0.7460  0.2238  0.7914
   61SAPC  H15R 4779   1.308   2.064   5.919  1.1539 -1.0367  0.8124
   61SAPC  C216 4780   1.262   1.858   5.894  0.6628  0.2145 -0.1082
   61SAPC  H16R 4781   1.165   1.833   5.847  1.5936 -0.7217 -1.5863
   61SAPC  H16S 4782   1.282   1.770   5.959  1.3267 -0.2836 -0.9688
   61SAPC  C217 4783   1.358   1.867   5.783 -0.1262  0.3866  0.7962
   61SAPC  H17R 4784   1.370   1.760   5.755 -0.4765  0.1702  1.4609
   61SAPC  H17S 4785   1.457   1.907   5.812  0.5982 -1.7331  1.4037
   61SAPC  C218 4786   1.296   1.947   5.669  0.4271 -0.5742  0.0548
   61SAPC  H18R 4787   1.372   2.004   5.610 -0.8905  0.8611 -0.3438
   61SAPC  H18S 4788   1.233   2.027   5.714  1.8356 -0.2207  1.4986
   61SAPC  C219 4789   1.207   1.878   5.562  0.4425  0.4310  0.8813
   61SAPC  H19R 4790   1.121   1.844   5.623 -0.6711 -0.9520 -1.3355
   61SAPC  H19S 4791   1.241   1.785   5.510  0.4048  0.0090  1.5995
   61SAPC  C220 4792   1.157   1.970   5.444  0.5953  0.3263 -0.4465
   61SAPC  H20R 4793   1.242   2.027   5.402  1.4734  0.8368  1.8937
   61SAPC  H20S 4794   1.077   2.037   5.481  1.6315  0.9494  0.7532
   61SAPC  H20T 4795   1.111   1.904   5.367 -0.7014 -2.9880  2.8423
   61SAPC   C33 4796   0.935   2.651   7.110 -0.1711 -0.2285 -0.4486
   61SAPC   H3X 4797   1.026   2.592   7.134 -0.8094 -1.6191 -1.3324
   61SAPC   H3Y 4798   0.938   2.747   7.165 -0.0192  0.4992 -1.6996
   61SAPC   C34 4799   0.946   2.677   6.958  0.4564  0.7818  1.1081
   61SAPC   H4X 4800   0.877   2.761   6.938  0.2959  0.5660  0.7510
   61SAPC   H4Y 4801   0.917   2.585   6.902  0.8566  2.2593 -1.6633
   61SAPC   C35 4802   1.092   2.716   6.909  0.0546 -0.5408 -0.4611
   61SAPC   H5X 4803   1.172   2.666   6.967  0.4941  1.3051  0.6177
   61SAPC   H5Y 4804   1.105   2.818   6.952 -0.1764 -1.3980  1.7772
   61SAPC   C36 4805   1.110   2.715   6.758 -0.3000  0.0603 -0.1369
   61SAPC   H6X 4806   1.191   2.785   6.729  1.4331 -1.8552 -0.1593
   61SAPC   H6Y 4807   1.023   2.745   6.696 -0.7004  1.9252  1.2469
   61SAPC   C37 4808   1.137   2.577   6.705 -0.3815 -0.2003 -0.1554
   61SAPC   H7X 4809   1.065   2.506   6.750  2.1330 -2.9478 -0.1058
   61SAPC   H7Y 4810   1.235   2.546   6.748  0.1311 -3.5072 -3.1941
   61SAPC   C38 4811   1.136   2.577   6.549 -0.1999  0.3479 -0.6390
   61SAPC   H8X 4812   1.205   2.659   6.521 -1.6682  1.2309 -1.8322
   61SAPC   H8Y 4813   1.034   2.609   6.520  0.4258  0.6918 -2.5942
   61SAPC   C39 4814   1.162   2.446   6.482 -0.6915  0.6597 -0.5643
   61SAPC   H9X 4815   1.080   2.378   6.512 -1.3064  1.2282 -0.9084
   61SAPC   H9Y 4816   1.253   2.407   6.531 -1.9023  0.6815  1.8193
   61SAPC  C310 4817   1.154   2.459   6.330 -0.3360 -0.4445 -0.8026
   61SAPC  H10X 4818   1.062   2.515   6.301 -2.1099 -2.4133  0.7216
   61SAPC  H10Y 4819   1.142   2.360   6.283 -0.3216 -0.2373 -1.2433
   61SAPC  C311 4820   1.284   2.526   6.275 -0.1567 -0.1670 -0.3883
   61SAPC  H11X 4821   1.373   2.475   6.317 -1.6780 -1.1349  1.8655
   61SAPC  H11Y 4822   1.294   2.628   6.318  0.6673 -0.5786  0.4111
   61SAPC  C312 4823   1.291   2.520   6.124 -0.1381 -0.3167  0.4167
   61SAPC  H12X 4824   1.186   2.551   6.105  0.1292  1.4093  1.4711
   61SAPC  H12Y 4825   1.312   2.416   6.091 -1.4108 -1.2698  2.4607
   61SAPC  C313 4826   1.381   2.626   6.051  0.2616  0.5721  0.7200
   61SAPC  H13X 4827   1.363   2.606   5.944  0.0010  1.9638  0.4864
   61SAPC  H13Y 4828   1.492   2.615   6.052  0.1135 -1.2883 -0.3173
   61SAPC  C314 4829   1.333   2.770   6.077 -0.3280  0.5481  0.3800
   61SAPC  H14X 4830   1.347   2.803   6.182  0.5465  1.9253 -0.1268
   61SAPC  H14Y 4831   1.225   2.776   6.055 -0.5379 -0.0122  1.2367
   61SAPC  C315 4832   1.389   2.871   5.973  0.3536  0.2635  0.1884
   61SAPC  H15X 4833   1.499   2.881   5.985  0.4805 -1.1973  0.3174
   61SAPC  H15Y 4834   1.338   2.967   5.997 -1.1052 -0.9474  2.2164
   61SAPC  C316 4835   1.341   2.848   5.826 -0.2235  0.1575 -0.0232
   61SAPC  H16X 4836   1.231   2.839   5.821 -0.0746 -1.5087 -0.8772
   61SAPC  H16Y 4837   1.367   2.746   5.790 -1.6977  0.3211 -1.6985
   61SAPC  C317 4838   1.406   2.944   5.724  0.3854  0.0436 -0.1085
   61SAPC  H17X 4839   1.517   2.940   5.724  0.6843  4.3484 -0.4031
   61SAPC  H17Y 4840   1.383   3.044   5.765  0.0782 -0.5013  1.1050
   61SAPC  C318 4841   1.349   2.936   5.582 -0.3608  0.1683  0.6013
   61SAPC  H18X 4842   1.240   2.956   5.581 -0.4029  0.1735 -2.0310
   61SAPC  H18Y 4843   1.355   2.834   5.539 -2.6580  0.2050  0.0959
   61SAPC  H18Z 4844   1.398   3.005   5.509 -1.5338 -0.4204 -0.8011
   62SAPC     N 4845   0.514   0.471   7.851  0.4207  0.2705  0.0466
   62SAPC   C12 4846   0.569   0.384   7.743  0.3825 -0.1515  0.3884
   62SAPC  H12A 4847   0.509   0.391   7.653 -0.1512 -0.5525  0.7085
   62SAPC  H12B 4848   0.555   0.280   7.769  0.5236  0.1674  1.7992
   62SAPC   C13 4849   0.580   0.443   7.980  0.2873 -0.3228 -0.2266
   62SAPC  H13A 4850   0.526   0.501   8.053 -1.3594 -1.1538 -0.7523
   62SAPC  H13B 4851   0.554   0.344   8.013  0.7748 -0.4156 -0.1204
   62SAPC  H13C 4852   0.684   0.473   7.978 -0.5462  3.0509 -0.5829
   62SAPC   C14 4853   0.526   0.618   7.820 -0.3341 -0.0352 -0.7874
   62SAPC  H14A 4854   0.482   0.671   7.904 -1.5460  0.9019 -1.9557
   62SAPC  H14B 4855   0.623   0.653   7.788  0.3251  0.0619  1.2215
   62SAPC  H14C 4856   0.456   0.634   7.739 -0.8194 -1.2290 -0.6186
   62SAPC   C15 4857   0.369   0.443   7.857  0.2029  0.1278 -0.7982
   62SAPC  H15A 4858   0.314   0.464   7.766 -2.8015  3.0515  1.4696
   62SAPC  H15B 4859   0.357   0.340   7.888  0.8105  0.3252  0.1346
   62SAPC  H15C 4860   0.321   0.514   7.922  1.1828  2.7905 -2.8218
   62SAPC   C11 4861   0.723   0.412   7.710 -0.0434 -0.5144  0.0965
   62SAPC  H11A 4862   0.781   0.399   7.804  2.3691 -1.1738 -1.3832
   62SAPC  H11B 4863   0.735   0.513   7.666  0.6771  0.4818  2.4081
   62SAPC     P 4864   0.747   0.334   7.457  0.2472 -0.0842 -0.4930
   62SAPC   O13 4865   0.857   0.415   7.404 -0.3245  0.1570 -0.0114
   62SAPC   O14 4866   0.732   0.194   7.417  0.1575 -0.0100  1.5488
   62SAPC   O12 4867   0.765   0.319   7.611 -0.0780 -0.8744 -0.0548
   62SAPC   O11 4868   0.612   0.416   7.440  0.6988  0.0700  0.4570
   62SAPC    C1 4869   0.493   0.350   7.386  0.0661 -0.9110  0.7729
   62SAPC    HA 4870   0.494   0.239   7.393  3.0546 -0.9559  0.5706
   62SAPC    HB 4871   0.406   0.395   7.439 -0.0068 -0.9317  0.6721
   62SAPC    C2 4872   0.473   0.401   7.234 -0.0957  0.4632  0.2029
   62SAPC    HS 4873   0.377   0.361   7.198  0.4185  1.6530 -2.7830
   62SAPC   O21 4874   0.584   0.357   7.151  0.5974  0.2185 -0.3871
   62SAPC   C21 4875   0.582   0.232   7.101  0.3010  0.1013 -0.4510
   62SAPC   O22 4876   0.483   0.160   7.097 -0.2224 -0.4134 -0.4805
   62SAPC   C22 4877   0.726   0.200   7.059 -0.5590 -0.2894 -0.0894
   62SAPC   H2R 4878   0.793   0.288   7.065  0.2442 -0.8688 -0.4518
   62SAPC   H2S 4879   0.764   0.118   7.124 -0.9742 -0.4942 -0.0953
   62SAPC    C3 4880   0.469   0.550   7.218  0.2012  0.0145 -0.2269
   62SAPC    HX 4881   0.557   0.600   7.265 -0.4404  1.5956 -0.6251
   62SAPC    HY 4882   0.379   0.586   7.274  1.1760  0.0648  1.3800
   62SAPC   O31 4883   0.447   0.591   7.084 -0.1476  0.1838  0.1418
   62SAPC   C31 4884   0.551   0.623   7.014 -0.4426  0.1540  0.4497
   62SAPC   O32 4885   0.668   0.624   7.051  0.2281 -0.2662  0.4886
   62SAPC   C32 4886   0.502   0.658   6.876 -0.0621  1.2479  0.5618
   62SAPC   H2X 4887   0.476   0.561   6.829  1.6283  1.5680 -1.1214
   62SAPC   H2Y 4888   0.589   0.698   6.819 -1.2841  0.5026 -1.9407
   62SAPC   C23 4889   0.727   0.163   6.905  0.0832  0.6878  1.1381
   62SAPC   H3R 4890   0.676   0.065   6.890 -1.6579  1.7877 -0.7293
   62SAPC   H3S 4891   0.836   0.152   6.892 -0.1202 -0.3818  0.1924
   62SAPC   C24 4892   0.671   0.267   6.799  0.2457  0.5606 -0.6445
   62SAPC   H4R 4893   0.566   0.288   6.826  0.1893 -2.4372  2.0544
   62SAPC   H4S 4894   0.680   0.223   6.698  1.0407  0.5979 -0.5977
   62SAPC   C25 4895   0.747   0.403   6.800  0.3706  1.2300  0.5662
   62SAPC   H5R 4896   0.807   0.426   6.890  0.4477 -0.0225  0.8468
   62SAPC   C26 4897   0.750   0.479   6.691  0.2307 -0.0284  0.0621
   62SAPC   H6R 4898   0.784   0.583   6.707  0.1379 -0.2767  2.2853
   62SAPC   C27 4899   0.686   0.466   6.557 -0.3942  1.0957  0.6531
   62SAPC   H7R 4900   0.651   0.362   6.540 -3.3294  2.3471 -1.8757
   62SAPC   H7S 4901   0.768   0.470   6.483 -0.9580 -0.7213 -0.1335
   62SAPC   C28 4902   0.569   0.564   6.524 -0.4095  0.1355  0.1750
   62SAPC   H8R 4903   0.467   0.531   6.544 -1.0462  0.0510 -2.7423
   62SAPC   C29 4904   0.580   0.676   6.457 -0.2052 -0.0317 -0.6606
   62SAPC   H9R 4905   0.489   0.730   6.427  0.4213 -0.0101 -2.6675
   62SAPC  C210 4906   0.709   0.746   6.413  0.1125  0.0563  0.0602
   62SAPC  H10R 4907   0.796   0.688   6.450 -0.5377 -1.2269 -0.3662
   62SAPC  H10S 4908   0.706   0.846   6.462  1.5237  0.4471 -0.5953
   62SAPC  C211 4909   0.730   0.775   6.264  0.1653 -0.0540  0.7239
   62SAPC  H11R 4910   0.642   0.745   6.207  0.2586 -0.9639  1.0463
   62SAPC  C212 4911   0.833   0.833   6.204 -0.7558  0.0236  0.3690
   62SAPC  H12R 4912   0.831   0.844   6.094  2.3876  2.2197  0.4180
   62SAPC  C213 4913   0.960   0.874   6.264 -0.4338 -0.5894 -0.5209
   62SAPC  H13R 4914   0.967   0.835   6.367 -2.7891  2.8342  1.1163
   62SAPC  H13S 4915   0.966   0.985   6.266 -0.1272 -0.6125  0.1007
   62SAPC  C214 4916   1.075   0.826   6.177 -0.1842  0.5909 -1.2585
   62SAPC  H14R 4917   1.057   0.846   6.071 -2.6556  2.6184 -0.5527
   62SAPC  C215 4918   1.189   0.769   6.226  0.0145  0.5342 -0.4218
   62SAPC  H15R 4919   1.269   0.741   6.155  0.8898 -0.8823  1.0555
   62SAPC  C216 4920   1.230   0.741   6.364 -0.4755  0.4443 -0.6169
   62SAPC  H16R 4921   1.311   0.666   6.364 -0.9851 -0.1754  1.2293
   62SAPC  H16S 4922   1.147   0.690   6.417 -0.4222  0.0620 -0.9023
   62SAPC  C217 4923   1.269   0.862   6.452  0.6168 -0.2671  1.0145
   62SAPC  H17R 4924   1.196   0.941   6.422  0.5383 -0.8833 -0.4708
   62SAPC  H17S 4925   1.370   0.891   6.415  0.3752 -1.2703 -0.5307
   62SAPC  C218 4926   1.259   0.827   6.598 -0.6274  0.2592 -0.3485
   62SAPC  H18R 4927   1.293   0.913   6.658  2.3900 -2.6729  2.5789
   62SAPC  H18S 4928   1.330   0.742   6.613  0.2198  0.8317 -1.0843
   62SAPC  C219 4929   1.122   0.787   6.654 -0.3046  0.0763 -0.2706
   62SAPC  H19R 4930   1.076   0.700   6.602  1.1018  0.1259 -1.6737
   62SAPC  H19S 4931   1.059   0.871   6.617  1.6242  0.6032 -2.5807
   62SAPC  C220 4932   1.121   0.776   6.809 -0.1524 -0.0005 -0.4110
   62SAPC  H20R 4933   1.179   0.693   6.854  0.1027  0.8091  0.7947
   62SAPC  H20S 4934   1.017   0.751   6.836  0.2026 -1.2540 -0.1626
   62SAPC  H20T 4935   1.159   0.871   6.853  1.7984 -0.1218 -1.7081
   62SAPC   C33 4936   0.393   0.765   6.872  0.0087 -0.8119 -0.0846
   62SAPC   H3X 4937   0.434   0.859   6.913 -2.9610 -0.0479  1.4151
   62SAPC   H3Y 4938   0.307   0.732   6.934 -0.6566  2.2913  0.8163
   62SAPC   C34 4939   0.333   0.783   6.734  0.5451  0.2544 -0.4101
   62SAPC   H4X 4940   0.405   0.769   6.651  0.0400  4.0813 -1.6749
   62SAPC   H4Y 4941   0.297   0.888   6.741 -0.8703 -0.3163  2.8228
   62SAPC   C35 4942   0.207   0.697   6.714  0.3323 -0.0044 -0.9865
   62SAPC   H5X 4943   0.121   0.728   6.777  0.0153  0.9319 -1.8535
   62SAPC   H5Y 4944   0.224   0.591   6.741 -0.4388 -0.6087 -2.7464
   62SAPC   C36 4945   0.154   0.723   6.578 -0.0654  0.0739 -0.1618
   62SAPC   H6X 4946   0.243   0.709   6.514  0.4430 -0.8193  0.7267
   62SAPC   H6Y 4947   0.108   0.822   6.557  5.0232  2.8838  0.3838
   62SAPC   C37 4948   0.051   0.619   6.536  0.1133 -0.1034  0.4881
   62SAPC   H7X 4949  -0.033   0.639   6.606 -0.0725 -1.8588  0.8053
   62SAPC   H7Y 4950   0.097   0.520   6.557  0.0082 -0.1581  0.4617
   62SAPC   C38 4951   0.009   0.635   6.387  0.0695  0.6911 -0.4981
   62SAPC   H8X 4952   0.104   0.615   6.333  1.9144  1.9562  2.0649
   62SAPC   H8Y 4953  -0.042   0.732   6.370 -1.6063 -0.2811 -1.2990
   62SAPC   C39 4954  -0.095   0.527   6.345 -0.1842  0.4923  0.0719
   62SAPC   H9X 4955  -0.184   0.530   6.412 -0.7709 -1.5078 -0.5697
   62SAPC   H9Y 4956  -0.049   0.428   6.363 -0.4245  0.5294  0.9710
   62SAPC  C310 4957  -0.132   0.539   6.198  0.6261  0.0395  0.2991
   62SAPC  H10X 4958  -0.147   0.644   6.163 -0.2248  0.2175  1.1484
   62SAPC  H10Y 4959  -0.230   0.491   6.178  1.2617 -0.8597 -0.7800
   62SAPC  C311 4960  -0.027   0.475   6.105  0.4019 -0.3835 -0.2085
   62SAPC  H11X 4961   0.012   0.379   6.147 -1.4427 -1.0628  0.0468
   62SAPC  H11Y 4962   0.056   0.548   6.106 -0.4781  0.6428  0.6023
   62SAPC  C312 4963  -0.078   0.438   5.969  1.0650 -0.0147  0.3754
   62SAPC  H12X 4964  -0.168   0.498   5.943  1.4578  0.9070  1.1383
   62SAPC  H12Y 4965  -0.117   0.334   5.980  4.3055 -1.3817 -0.0441
   62SAPC  C313 4966   0.015   0.437   5.844  0.1862 -0.3862  0.5563
   62SAPC  H13X 4967   0.085   0.522   5.860 -2.1181  2.0215 -1.3180
   62SAPC  H13Y 4968  -0.031   0.469   5.749 -0.1726  0.6170  1.0583
   62SAPC  C314 4969   0.099   0.302   5.832  0.3678  1.0897 -0.2137
   62SAPC  H14X 4970   0.031   0.215   5.838 -1.1250  2.3000  2.5154
   62SAPC  H14Y 4971   0.155   0.289   5.927 -2.0018  0.2389  1.1521
   62SAPC  C315 4972   0.184   0.298   5.711  0.6060 -0.9028  1.1190
   62SAPC  H15X 4973   0.216   0.404   5.699  2.4017 -1.5942 -0.7930
   62SAPC  H15Y 4974   0.118   0.266   5.628  0.5467  0.2667  0.6933
   62SAPC  C316 4975   0.306   0.206   5.712 -0.6971 -0.0236  0.6033
   62SAPC  H16X 4976   0.338   0.188   5.607 -0.3724  1.3720  0.4349
   62SAPC  H16Y 4977   0.268   0.114   5.760 -1.0566  0.6583  1.6738
   62SAPC  C317 4978   0.424   0.270   5.798  0.4983 -0.1554  0.5587
   62SAPC  H17X 4979   0.389   0.255   5.903 -1.4728  0.0900 -0.0241
   62SAPC  H17Y 4980   0.433   0.379   5.781  1.5332 -0.4009 -0.6037
   62SAPC  C318 4981   0.556   0.211   5.770 -0.1245 -0.4285 -0.9149
   62SAPC  H18X 4982   0.634   0.256   5.835 -2.0973  1.2295  0.4236
   62SAPC  H18Y 4983   0.577   0.221   5.661 -1.2358 -0.0362 -1.1034
   62SAPC  H18Z 4984   0.562   0.105   5.802  1.1963 -0.4375 -1.1481
   63SAPC     N 4985   6.566   1.625   7.836  0.3477 -0.0013  0.7688
   63SAPC   C12 4986   6.432   1.597   7.915 -0.0361 -0.1934 -0.1661
   63SAPC  H12A 4987   6.444   1.512   7.981 -1.9172 -0.4948 -0.1580
   63SAPC  H12B 4988   6.346   1.578   7.853 -0.2770  0.0867  0.0807
   63SAPC   C13 4989   6.605   1.498   7.772  0.1819 -0.3760  1.0831
   63SAPC  H13A 4990   6.700   1.498   7.722  0.3124 -2.3187  1.2506
   63SAPC  H13B 4991   6.593   1.424   7.850  2.0889  0.3955  2.1600
   63SAPC  H13C 4992   6.527   1.471   7.702 -0.3602 -0.9717  1.9015
   63SAPC   C14 4993   6.550   1.737   7.726  0.4938 -0.2544 -0.4045
   63SAPC  H14A 4994   6.530   1.829   7.778 -0.7366 -0.7419  0.0185
   63SAPC  H14B 4995   6.638   1.740   7.662  0.5052  0.8226 -0.3611
   63SAPC  H14C 4996   6.459   1.712   7.673 -0.6465  0.8712  0.9416
   63SAPC   C15 4997   6.678   1.674   7.920  0.4741  0.9269 -0.0201
   63SAPC  H15A 4998   6.674   1.778   7.950  0.5746  0.5362  1.4563
   63SAPC  H15B 4999   6.672   1.617   8.012 -1.1740 -0.0171 -0.6690
   63SAPC  H15C 5000   6.771   1.646   7.873  0.1711 -1.2141  0.5396
   63SAPC   C11 5001   6.379   1.715   8.008 -0.5124  0.2688  0.4116
   63SAPC  H11A 5002   6.456   1.747   8.082 -0.0239  0.9854 -0.3866
   63SAPC  H11B 5003   6.294   1.680   8.071  0.1393 -2.2699  0.0045
   63SAPC     P 5004   6.195   1.830   7.863 -0.4760  0.6795  0.2506
   63SAPC   O13 5005   6.156   1.689   7.838 -0.2083  0.2929  0.4269
   63SAPC   O14 5006   6.094   1.908   7.939 -0.0158 -0.2425  0.0115
   63SAPC   O12 5007   6.338   1.834   7.940  0.3139 -0.1839  0.4202
   63SAPC   O11 5008   6.226   1.906   7.723  0.0293  0.0777 -0.0447
   63SAPC    C1 5009   6.297   2.028   7.716 -0.6545  0.1926  0.0265
   63SAPC    HA 5010   6.362   2.048   7.804 -0.5540 -1.5788  0.3977
   63SAPC    HB 5011   6.356   2.027   7.622  1.2464 -0.1591  1.1829
   63SAPC    C2 5012   6.205   2.150   7.698 -0.7458 -0.0871  0.3557
   63SAPC    HS 5013   6.134   2.157   7.783 -0.9985  1.1852  0.0594
   63SAPC   O21 5014   6.128   2.146   7.578 -0.4991  0.3333  0.1858
   63SAPC   C21 5015   6.045   2.250   7.554  0.5802  0.2892  0.5395
   63SAPC   O22 5016   6.000   2.325   7.637 -0.2973  0.4029 -0.0787
   63SAPC   C22 5017   6.006   2.240   7.402  0.0962  0.3050  0.2876
   63SAPC   H2R 5018   5.997   2.347   7.373 -0.9055  1.0636  3.1333
   63SAPC   H2S 5019   6.090   2.195   7.345  0.7707  1.2229  0.5302
   63SAPC    C3 5020   6.302   2.272   7.687 -0.5243 -0.1086 -0.7463
   63SAPC    HX 5021   6.360   2.275   7.782 -0.1468  4.0399 -0.9592
   63SAPC    HY 5022   6.249   2.369   7.681  0.0440  0.2825  0.2743
   63SAPC   O31 5023   6.397   2.264   7.580 -0.4243  0.0424 -0.2198
   63SAPC   C31 5024   6.398   2.343   7.478 -0.2095 -0.2924 -0.1941
   63SAPC   O32 5025   6.331   2.443   7.470  0.0680  0.0731  0.0558
   63SAPC   C32 5026   6.483   2.296   7.360  0.2780 -0.0014  0.6228
   63SAPC   H2X 5027   6.575   2.358   7.355  0.4055 -0.2387 -0.0977
   63SAPC   H2Y 5028   6.429   2.301   7.263  2.0735  0.5986 -0.3838
   63SAPC   C23 5029   5.865   2.176   7.368 -0.1214  0.0356 -0.0156
   63SAPC   H3R 5030   5.794   2.208   7.447 -1.7113 -1.2380 -0.8714
   63SAPC   H3S 5031   5.873   2.066   7.386  0.2712  0.4554  2.9519
   63SAPC   C24 5032   5.798   2.219   7.230 -0.3946 -0.0537 -0.0321
   63SAPC   H4R 5033   5.811   2.329   7.221 -1.6187 -0.0293 -2.6273
   63SAPC   H4S 5034   5.689   2.202   7.245 -0.1400 -3.0578 -0.8691
   63SAPC   C25 5035   5.856   2.146   7.109  0.7667 -0.5159  0.0475
   63SAPC   H5R 5036   5.953   2.101   7.134  1.5634  0.9944 -0.2064
   63SAPC   C26 5037   5.792   2.137   6.987  1.0779 -0.0565 -0.2363
   63SAPC   H6R 5038   5.837   2.066   6.916 -0.8523 -1.2593 -0.3454
   63SAPC   C27 5039   5.654   2.194   6.949  0.9443  0.5693 -0.3938
   63SAPC   H7R 5040   5.667   2.300   6.916 -1.1981  0.2327 -2.6792
   63SAPC   H7S 5041   5.595   2.187   7.042  1.0580 -0.5752 -0.3942
   63SAPC   C28 5042   5.586   2.126   6.828  0.7763 -0.1001  0.1620
   63SAPC   H8R 5043   5.514   2.052   6.864  1.9306 -0.5735  1.5657
   63SAPC   C29 5044   5.599   2.144   6.700 -0.3205 -0.6345 -0.4789
   63SAPC   H9R 5045   5.540   2.087   6.627 -0.2461 -1.8337  0.3627
   63SAPC  C210 5046   5.699   2.237   6.641 -0.4818  0.0853 -0.1251
   63SAPC  H10R 5047   5.745   2.305   6.716 -1.0817  0.7777 -0.3673
   63SAPC  H10S 5048   5.662   2.311   6.567  1.3024  3.4934  2.1193
   63SAPC  C211 5049   5.798   2.146   6.583 -0.0518 -0.0051  0.2973
   63SAPC  H11R 5050   5.820   2.052   6.636 -1.1688 -0.4797 -0.0396
   63SAPC  C212 5051   5.840   2.145   6.451  0.1839 -0.1525  0.5464
   63SAPC  H12R 5052   5.916   2.081   6.404  0.3610 -0.1197  0.7905
   63SAPC  C213 5053   5.793   2.242   6.346 -0.0196  0.3051 -0.4355
   63SAPC  H13R 5054   5.878   2.281   6.285 -1.5130  2.1742 -1.4031
   63SAPC  H13S 5055   5.740   2.332   6.382  2.3051  1.4110  0.4697
   63SAPC  C214 5056   5.685   2.164   6.266 -0.2585 -0.2157 -0.4928
   63SAPC  H14R 5057   5.602   2.132   6.330  1.9680  0.4651  3.0056
   63SAPC  C215 5058   5.675   2.159   6.133 -0.1685 -0.0761 -0.4596
   63SAPC  H15R 5059   5.590   2.106   6.087 -2.9586  2.9626  0.8442
   63SAPC  C216 5060   5.770   2.210   6.024 -0.5361 -0.0436  0.0274
   63SAPC  H16R 5061   5.867   2.254   6.057  0.8850 -2.8527 -0.1305
   63SAPC  H16S 5062   5.726   2.302   5.981  1.6234  0.8992 -0.2464
   63SAPC  C217 5063   5.801   2.118   5.907 -0.0356  0.5192 -0.0871
   63SAPC  H17R 5064   5.716   2.060   5.867  1.0984 -0.9524 -0.4522
   63SAPC  H17S 5065   5.868   2.037   5.944 -0.3317 -0.2621 -1.2092
   63SAPC  C218 5066   5.885   2.188   5.800 -0.1015 -0.0008 -0.5461
   63SAPC  H18R 5067   5.958   2.249   5.857 -1.4092  1.3977 -0.3089
   63SAPC  H18S 5068   5.823   2.268   5.753  0.2432 -1.4469 -3.7556
   63SAPC  C219 5069   5.976   2.103   5.712 -0.0722  0.1181 -0.0974
   63SAPC  H19R 5070   6.009   2.166   5.626 -1.2247  1.1292  0.1656
   63SAPC  H19S 5071   5.935   2.013   5.663  1.3798 -0.6176 -0.0056
   63SAPC  C220 5072   6.108   2.049   5.792  0.3973  0.2830 -0.1397
   63SAPC  H20R 5073   6.180   2.134   5.796  0.3876  0.2903 -0.1229
   63SAPC  H20S 5074   6.135   1.962   5.729  1.0085 -0.1149  0.6505
   63SAPC  H20T 5075   6.076   2.032   5.897 -0.1538 -0.9896 -0.5039
   63SAPC   C33 5076   6.528   2.152   7.388  0.1090 -0.4861  0.1090
   63SAPC   H3X 5077   6.441   2.083   7.395 -0.9732  1.0067  2.6162
   63SAPC   H3Y 5078   6.598   2.143   7.474  0.8394  0.5797 -0.3578
   63SAPC   C34 5079   6.601   2.101   7.267  0.1565 -0.2497  0.6876
   63SAPC   H4X 5080   6.680   2.176   7.245 -0.6492  0.5399  0.4316
   63SAPC   H4Y 5081   6.528   2.106   7.183  1.0248 -0.6432 -0.1121
   63SAPC   C35 5082   6.662   1.960   7.285  0.4332 -0.3329  0.1043
   63SAPC   H5X 5083   6.591   1.880   7.314  0.0728 -0.3097 -0.7080
   63SAPC   H5Y 5084   6.735   1.964   7.370 -0.3102 -2.0974  0.8603
   63SAPC   C36 5085   6.753   1.916   7.169 -0.1580  0.1408  1.0619
   63SAPC   H6X 5086   6.805   1.822   7.197 -0.5079 -0.1457  0.7563
   63SAPC   H6Y 5087   6.837   1.989   7.173 -1.2627  1.3808  2.8333
   63SAPC   C37 5088   6.685   1.886   7.041  0.0750  0.0790 -0.5337
   63SAPC   H7X 5089   6.653   1.988   7.011  2.0266  0.8214 -0.2653
   63SAPC   H7Y 5090   6.590   1.829   7.045 -0.4489  0.5001 -4.0014
   63SAPC   C38 5091   6.773   1.838   6.925  0.6286  1.5058 -0.3162
   63SAPC   H8X 5092   6.811   1.740   6.959  1.9433  2.1834  0.2762
   63SAPC   H8Y 5093   6.861   1.906   6.927  3.8162 -2.2712 -0.2779
   63SAPC   C39 5094   6.706   1.834   6.785  0.4774  0.1360 -0.5667
   63SAPC   H9X 5095   6.677   1.939   6.763  2.0416  0.3420 -1.8303
   63SAPC   H9Y 5096   6.620   1.765   6.798  1.0911 -1.1384 -2.7937
   63SAPC  C310 5097   6.802   1.784   6.679 -0.2861 -0.0771 -0.1620
   63SAPC  H10X 5098   6.837   1.682   6.707  2.0995  0.7714  0.1774
   63SAPC  H10Y 5099   6.890   1.851   6.680 -0.5952  0.3503  2.0452
   63SAPC  C311 5100   6.735   1.773   6.541  0.3157 -0.3154  0.4836
   63SAPC  H11X 5101   6.707   1.877   6.516 -0.7829 -0.5740  0.5751
   63SAPC  H11Y 5102   6.642   1.711   6.532 -0.0688 -0.0059  1.9975
   63SAPC  C312 5103   6.824   1.716   6.427 -0.7683 -0.3009 -0.9790
   63SAPC  H12X 5104   6.867   1.619   6.460  1.2369  0.3490 -1.5459
   63SAPC  H12Y 5105   6.912   1.780   6.405  1.9086 -3.7869 -1.2962
   63SAPC  C313 5106   6.750   1.685   6.306  0.0509 -0.5698  0.2234
   63SAPC  H13X 5107   6.706   1.775   6.259 -0.2321 -0.6440  0.3450
   63SAPC  H13Y 5108   6.673   1.608   6.324 -1.2457  0.6286 -0.0360
   63SAPC  C314 5109   6.835   1.633   6.190 -0.6231 -0.5564 -0.3538
   63SAPC  H14X 5110   6.874   1.532   6.216 -2.1532 -1.7610 -2.4627
   63SAPC  H14Y 5111   6.916   1.707   6.173 -2.1788  1.1131 -0.7473
   63SAPC  C315 5112   6.751   1.614   6.069 -0.1835 -0.7380  0.4473
   63SAPC  H15X 5113   6.811   1.562   5.992  0.9383  0.3258  0.5669
   63SAPC  H15Y 5114   6.727   1.719   6.041 -0.0833 -0.1946  2.2763
   63SAPC  C316 5115   6.609   1.554   6.075  0.3486  0.2150  1.0035
   63SAPC  H16X 5116   6.545   1.630   6.125 -1.3038 -0.9367  0.7186
   63SAPC  H16Y 5117   6.609   1.462   6.138 -1.2792 -0.6200 -0.1329
   63SAPC  C317 5118   6.543   1.513   5.939 -0.4578  0.4621 -0.5831
   63SAPC  H17X 5119   6.548   1.593   5.863 -0.4177  1.2812  0.2736
   63SAPC  H17Y 5120   6.435   1.492   5.954 -0.2265 -0.1919  0.3085
   63SAPC  C318 5121   6.620   1.390   5.882  0.3595  0.2700  0.2614
   63SAPC  H18X 5122   6.584   1.343   5.788 -2.5680  3.1911 -0.2470
   63SAPC  H18Y 5123   6.626   1.303   5.950  0.2100 -0.5244 -0.7153
   63SAPC  H18Z 5124   6.727   1.420   5.876  0.1363  1.1753  0.6383
   64SAPC     N 5125   2.203   3.692   8.339 -0.3246 -0.0394  0.0200
   64SAPC   C12 5126   2.299   3.805   8.330  0.0483 -0.1157 -0.1503
   64SAPC  H12A 5127   2.392   3.793   8.383  0.1547 -0.3783 -0.3979
   64SAPC  H12B 5128   2.238   3.881   8.376 -2.4556 -1.5610 -0.8827
   64SAPC   C13 5129   2.065   3.719   8.294 -0.6384 -0.4586  0.4416
   64SAPC  H13A 5130   2.074   3.777   8.204  1.1303  0.6238  1.2630
   64SAPC  H13B 5131   2.012   3.630   8.262  0.0855 -0.6091 -0.3718
   64SAPC  H13C 5132   2.005   3.762   8.373 -3.1898 -1.3331 -0.9007
   64SAPC   C14 5133   2.251   3.572   8.261 -0.1214 -0.5669  0.2258
   64SAPC  H14A 5134   2.245   3.601   8.157  0.3748  3.9141  1.2362
   64SAPC  H14B 5135   2.352   3.543   8.285 -0.1191  0.4181  1.5474
   64SAPC  H14C 5136   2.191   3.484   8.278  1.0225 -1.4940 -0.4173
   64SAPC   C15 5137   2.212   3.652   8.488  0.6037 -0.4389 -0.3825
   64SAPC  H15A 5138   2.157   3.559   8.495 -0.3957  0.0583 -1.1910
   64SAPC  H15B 5139   2.316   3.644   8.515  1.0362  0.5444 -1.6360
   64SAPC  H15C 5140   2.172   3.729   8.552  2.5515  0.3304 -0.0252
   64SAPC   C11 5141   2.335   3.849   8.195  0.1724 -0.7750  0.4723
   64SAPC  H11A 5142   2.386   3.947   8.205 -1.1103 -0.2602  2.5825
   64SAPC  H11B 5143   2.239   3.865   8.142  1.1491  2.0601 -0.5946
   64SAPC     P 5144   2.561   3.717   8.157  0.0910  0.2748 -0.0389
   64SAPC   O13 5145   2.615   3.804   8.265 -0.3097 -0.2768  0.0924
   64SAPC   O14 5146   2.567   3.581   8.200  0.1515  0.4593  0.0309
   64SAPC   O12 5147   2.412   3.758   8.119 -0.3705 -0.4328 -0.3495
   64SAPC   O11 5148   2.649   3.738   8.031 -0.0040 -0.4166  0.4011
   64SAPC    C1 5149   2.617   3.855   7.947 -0.2023  0.3741  0.4404
   64SAPC    HA 5150   2.553   3.930   7.999 -0.0827 -0.3797  1.7169
   64SAPC    HB 5151   2.713   3.901   7.914 -0.0646  0.1925  0.5876
   64SAPC    C2 5152   2.535   3.829   7.817 -0.2689  0.0303 -0.4686
   64SAPC    HS 5153   2.441   3.775   7.841  1.2571 -2.4059  0.3207
   64SAPC   O21 5154   2.617   3.767   7.719  0.4709  0.1569 -0.1275
   64SAPC   C21 5155   2.608   3.637   7.728 -0.4906  0.0573 -0.1998
   64SAPC   O22 5156   2.533   3.581   7.806 -0.4197 -0.0056  0.3688
   64SAPC   C22 5157   2.697   3.564   7.619  0.6276  0.8348  0.0257
   64SAPC   H2R 5158   2.647   3.570   7.520  0.8394 -0.2200 -0.1675
   64SAPC   H2S 5159   2.794   3.616   7.605  2.2640 -2.2912 -1.5020
   64SAPC    C3 5160   2.508   3.977   7.769 -0.6051  0.7150 -0.5745
   64SAPC    HX 5161   2.606   4.030   7.765  0.3034 -0.5417  2.0844
   64SAPC    HY 5162   2.434   4.016   7.842  0.7066  0.1716  1.1294
   64SAPC   O31 5163   2.444   3.975   7.641 -0.6720 -0.5173  0.2086
   64SAPC   C31 5164   2.526   3.975   7.532  0.6127 -0.3601  0.6878
   64SAPC   O32 5165   2.648   3.989   7.538 -0.2680 -0.3754 -0.8080
   64SAPC   C32 5166   2.436   3.936   7.411 -0.2179  0.1864  0.1430
   64SAPC   H2X 5167   2.371   4.023   7.388 -0.0499  1.1453  2.8967
   64SAPC   H2Y 5168   2.370   3.851   7.439  0.0013  0.6230  2.0900
   64SAPC   C23 5169   2.709   3.416   7.656  0.2707  0.1384 -0.3833
   64SAPC   H3R 5170   2.614   3.359   7.664  0.5131 -0.2206  0.0204
   64SAPC   H3S 5171   2.760   3.403   7.754 -0.5763 -1.2695 -0.0976
   64SAPC   C24 5172   2.798   3.343   7.549  0.3213 -0.6172  0.0356
   64SAPC   H4R 5173   2.740   3.347   7.454 -1.5150 -1.0103  1.0877
   64SAPC   H4S 5174   2.813   3.240   7.589  1.6498 -0.2251  0.6054
   64SAPC   C25 5175   2.938   3.395   7.536 -0.5946  0.3406 -0.7237
   64SAPC   H5R 5176   2.977   3.450   7.623 -0.2739 -1.0198  0.0243
   64SAPC   C26 5177   3.002   3.424   7.421 -0.4132 -0.3717  0.4486
   64SAPC   H6R 5178   3.103   3.464   7.437 -1.2607  2.4205 -0.5693
   64SAPC   C27 5179   2.965   3.381   7.280 -0.6590 -0.1992 -0.3938
   64SAPC   H7R 5180   3.043   3.421   7.212  0.9808  0.8828  1.9785
   64SAPC   H7S 5181   2.868   3.423   7.245  0.0591 -0.1040 -2.4129
   64SAPC   C28 5182   2.959   3.227   7.258 -0.6009  0.1933 -0.4632
   64SAPC   H8R 5183   3.004   3.160   7.332  2.8595  0.0437 -2.4547
   64SAPC   C29 5184   2.896   3.172   7.151  0.3241 -0.1519 -0.6673
   64SAPC   H9R 5185   2.896   3.062   7.139  0.2798 -0.3369  0.8052
   64SAPC  C210 5186   2.849   3.256   7.040  0.0420  0.2376  0.6237
   64SAPC  H10R 5187   2.937   3.304   6.992 -0.5998  1.3367  0.5088
   64SAPC  H10S 5188   2.773   3.335   7.059 -1.2261 -0.1519 -2.3715
   64SAPC  C211 5189   2.775   3.172   6.936  0.4674  0.3326  0.5145
   64SAPC  H11R 5190   2.672   3.144   6.965  0.6532  0.1911  1.0360
   64SAPC  C212 5191   2.811   3.138   6.812  0.0432 -0.0283  0.4279
   64SAPC  H12R 5192   2.743   3.076   6.752  0.5704  1.0990 -1.4359
   64SAPC  C213 5193   2.948   3.157   6.739 -0.1035 -0.3363 -0.1213
   64SAPC  H13R 5194   3.028   3.192   6.808  1.4209  0.1570 -2.0509
   64SAPC  H13S 5195   2.941   3.235   6.661 -0.3982 -1.8771 -1.7039
   64SAPC  C214 5196   3.003   3.029   6.691  0.0359  1.1106 -0.0813
   64SAPC  H14R 5197   3.063   2.968   6.761  0.2937  1.0957 -0.3127
   64SAPC  C215 5198   2.991   2.998   6.564 -0.5813 -0.2296 -0.4150
   64SAPC  H15R 5199   3.035   2.904   6.527  0.0260 -0.5567  1.0662
   64SAPC  C216 5200   2.927   3.090   6.462  0.1524  0.6727 -0.2111
   64SAPC  H16R 5201   3.005   3.160   6.425  0.5024  0.5209  0.2351
   64SAPC  H16S 5202   2.845   3.143   6.516 -0.7676 -0.9503  0.0510
   64SAPC  C217 5203   2.856   3.002   6.355 -0.1226  0.4170 -0.0501
   64SAPC  H17R 5204   2.775   2.959   6.417 -0.1692  1.1559  0.4206
   64SAPC  H17S 5205   2.927   2.922   6.324  0.0886  0.4573  0.3212
   64SAPC  C218 5206   2.807   3.071   6.230 -0.3885  0.3280 -0.4357
   64SAPC  H18R 5207   2.889   3.130   6.185 -0.0625  0.8250  0.7710
   64SAPC  H18S 5208   2.733   3.150   6.254 -1.2172 -0.1936 -1.2339
   64SAPC  C219 5209   2.751   2.988   6.114  0.9254 -0.2622  0.6932
   64SAPC  H19R 5210   2.672   2.916   6.146  1.1092 -1.1905 -0.8524
   64SAPC  H19S 5211   2.827   2.927   6.061  0.2528 -0.6256  0.1271
   64SAPC  C220 5212   2.689   3.087   6.016 -0.3089  0.5931  0.8016
   64SAPC  H20R 5213   2.765   3.133   5.949 -0.3738 -2.5316 -1.6420
   64SAPC  H20S 5214   2.646   3.162   6.086  2.3843 -0.5916  4.0363
   64SAPC  H20T 5215   2.606   3.044   5.957 -0.2934 -0.5345  1.5633
   64SAPC   C33 5216   2.522   3.894   7.284  0.9183  0.2632 -0.5811
   64SAPC   H3X 5217   2.611   3.961   7.274  1.0927 -0.0801 -1.4214
   64SAPC   H3Y 5218   2.458   3.893   7.193 -0.4976  1.3734  0.3517
   64SAPC   C34 5219   2.571   3.748   7.294  0.2444 -0.0822 -0.4382
   64SAPC   H4X 5220   2.477   3.695   7.318  1.7167 -3.3269 -1.2958
   64SAPC   H4Y 5221   2.640   3.731   7.379  0.9338  0.9879 -0.7614
   64SAPC   C35 5222   2.656   3.720   7.169  0.4514 -0.0978 -0.3254
   64SAPC   H5X 5223   2.615   3.783   7.088 -1.3719  1.1209  1.4447
   64SAPC   H5Y 5224   2.646   3.612   7.143 -1.9984 -0.0014 -0.0435
   64SAPC   C36 5225   2.805   3.765   7.189  0.0490 -0.5012  0.2882
   64SAPC   H6X 5226   2.859   3.679   7.235  2.1226  1.7227  2.3087
   64SAPC   H6Y 5227   2.832   3.842   7.264  0.1579 -0.0612 -0.1928
   64SAPC   C37 5228   2.890   3.797   7.067  0.1804  0.2837 -0.0402
   64SAPC   H7X 5229   2.996   3.785   7.097  0.6989 -2.0710 -2.4498
   64SAPC   H7Y 5230   2.871   3.900   7.030 -1.7735 -0.5262 -1.4892
   64SAPC   C38 5231   2.865   3.699   6.944 -0.4021  0.2065  0.2608
   64SAPC   H8X 5232   2.757   3.674   6.934 -0.3566 -1.5107  2.9226
   64SAPC   H8Y 5233   2.917   3.604   6.969 -2.6939 -1.2799 -0.2348
   64SAPC   C39 5234   2.930   3.737   6.813 -0.3225  0.3717 -0.4027
   64SAPC   H9X 5235   3.034   3.770   6.836 -0.2790 -0.4614  0.6290
   64SAPC   H9Y 5236   2.872   3.821   6.770 -0.1185  1.2183  0.9151
   64SAPC  C310 5237   2.948   3.627   6.714 -0.4547  0.5853 -0.2216
   64SAPC  H10X 5238   2.859   3.560   6.708 -2.0398  2.2852  2.2994
   64SAPC  H10Y 5239   3.025   3.558   6.754  0.1475  1.6697  0.5460
   64SAPC  C311 5240   2.984   3.679   6.574 -0.1880 -0.9062 -1.0483
   64SAPC  H11X 5241   3.070   3.749   6.578 -1.1740  0.2944 -0.4793
   64SAPC  H11Y 5242   2.898   3.741   6.541  0.3369  1.5287  1.7940
   64SAPC  C312 5243   2.989   3.571   6.469 -0.4244 -0.4027 -0.8072
   64SAPC  H12X 5244   3.037   3.484   6.518 -1.6719  0.4508  2.1846
   64SAPC  H12Y 5245   3.062   3.612   6.396 -0.3868 -1.6009 -1.4603
   64SAPC  C313 5246   2.859   3.525   6.407 -0.3873  0.0255  0.6390
   64SAPC  H13X 5247   2.787   3.602   6.372  0.2475  0.3418  0.0051
   64SAPC  H13Y 5248   2.802   3.470   6.486  0.9581  2.0140  3.1499
   64SAPC  C314 5249   2.875   3.424   6.297  0.2880  0.4544 -0.0833
   64SAPC  H14X 5250   2.774   3.377   6.286 -0.0120  1.0235  0.1925
   64SAPC  H14Y 5251   2.946   3.340   6.313 -0.3819 -0.2734 -0.8400
   64SAPC  C315 5252   2.931   3.482   6.169 -0.3124  0.7243 -0.5976
   64SAPC  H15X 5253   3.031   3.529   6.184 -0.1751  0.4327 -0.6067
   64SAPC  H15Y 5254   2.869   3.566   6.130 -1.2039  0.3740  0.0266
   64SAPC  C316 5255   2.957   3.383   6.058 -0.3790 -0.2416  0.6547
   64SAPC  H16X 5256   2.859   3.339   6.030 -1.7389  2.8741  0.2006
   64SAPC  H16Y 5257   3.015   3.292   6.086 -1.4399 -0.1533  3.4224
   64SAPC  C317 5258   3.026   3.449   5.938  0.1856 -0.2951 -0.0220
   64SAPC  H17X 5259   3.136   3.443   5.956  0.3116 -0.6984 -0.8513
   64SAPC  H17Y 5260   2.985   3.552   5.935  0.7886 -0.0236  0.7249
   64SAPC  C318 5261   2.994   3.382   5.807  0.1983  0.4786  0.2448
   64SAPC  H18X 5262   2.885   3.380   5.789  0.2792 -0.5472 -0.1941
   64SAPC  H18Y 5263   3.020   3.275   5.794  0.7790  0.4591  1.4066
   64SAPC  H18Z 5264   3.049   3.431   5.724 -0.5141 -0.5455 -0.8647
   65SAPC     N 5265   3.124   3.553   3.121 -0.2376 -0.6820 -0.6364
   65SAPC   C12 5266   3.236   3.641   3.181  0.0611 -0.2485  0.3424
   65SAPC  H12A 5267   3.243   3.730   3.120  1.7027  0.1605  1.0549
   65SAPC  H12B 5268   3.335   3.596   3.175  0.2632  0.1173  0.8451
   65SAPC   C13 5269   3.160   3.525   2.979 -0.7224  0.7613  0.5075
   65SAPC  H13A 5270   3.254   3.473   2.971 -0.4193  1.0481  1.9284
   65SAPC  H13B 5271   3.079   3.473   2.929  1.5670 -3.5918  0.8636
   65SAPC  H13C 5272   3.170   3.625   2.941 -1.0988  0.4756 -0.3615
   65SAPC   C14 5273   3.112   3.427   3.202 -0.5640  0.4713  0.2453
   65SAPC  H14A 5274   3.179   3.353   3.161 -1.4272 -0.0148 -0.3193
   65SAPC  H14B 5275   3.141   3.454   3.303 -0.9758 -2.6268  1.3057
   65SAPC  H14C 5276   3.014   3.383   3.214  0.0746 -0.6629  1.6494
   65SAPC   C15 5277   3.001   3.629   3.129  0.1382  0.0432 -0.5223
   65SAPC  H15A 5278   2.910   3.574   3.105  0.5432 -0.6518 -0.4832
   65SAPC  H15B 5279   2.974   3.663   3.227  0.3389  0.1542 -0.5056
   65SAPC  H15C 5280   3.009   3.719   3.070  0.8323  0.1425 -0.2840
   65SAPC   C11 5281   3.213   3.698   3.320 -0.5577  0.0434 -0.0800
   65SAPC  H11A 5282   3.116   3.751   3.328  0.2478  1.7873 -1.2502
   65SAPC  H11B 5283   3.289   3.775   3.344 -0.7944  0.0141  0.8035
   65SAPC     P 5284   3.326   3.568   3.519 -0.1016  0.5185  0.1070
   65SAPC   O13 5285   3.301   3.455   3.606 -0.6609 -0.1586  0.0712
   65SAPC   O14 5286   3.460   3.565   3.453 -0.0480 -0.2051  0.1656
   65SAPC   O12 5287   3.214   3.587   3.409  0.1875  0.1004  0.3131
   65SAPC   O11 5288   3.310   3.702   3.604 -0.4478 -0.4383 -0.5306
   65SAPC    C1 5289   3.234   3.688   3.721  0.6713 -0.3161 -0.7867
   65SAPC    HA 5290   3.140   3.632   3.703 -0.2350  0.3583  1.5310
   65SAPC    HB 5291   3.292   3.662   3.813 -0.3723 -0.8044 -0.2457
   65SAPC    C2 5292   3.189   3.835   3.772  0.3631  0.6131  0.2345
   65SAPC    HS 5293   3.147   3.889   3.685 -4.8719 -1.3973  1.1300
   65SAPC   O21 5294   3.302   3.904   3.820 -0.1099 -0.1034 -0.0382
   65SAPC   C21 5295   3.297   4.015   3.877  0.2837 -0.0201 -0.0507
   65SAPC   O22 5296   3.223   4.112   3.854  0.1938  0.0885  0.1892
   65SAPC   C22 5297   3.412   4.030   3.970 -0.0520 -0.7610 -0.9554
   65SAPC   H2R 5298   3.496   3.963   3.944  1.1414 -0.9842  2.7805
   65SAPC   H2S 5299   3.460   4.130   3.957 -2.5806  0.6336 -0.2524
   65SAPC    C3 5300   3.077   3.828   3.883  0.3092 -0.5299 -0.5003
   65SAPC    HX 5301   2.980   3.780   3.856  2.2804 -4.0348 -1.9086
   65SAPC    HY 5302   3.049   3.935   3.899 -0.0284 -0.5155 -1.1594
   65SAPC   O31 5303   3.119   3.772   4.011 -0.0934  0.3978 -0.2515
   65SAPC   C31 5304   3.106   3.647   4.028  0.8045  0.5700 -0.4177
   65SAPC   O32 5305   3.052   3.573   3.940  0.1364  0.0628  0.5772
   65SAPC   C32 5306   3.149   3.610   4.160  0.3649 -0.2522 -0.2497
   65SAPC   H2X 5307   3.096   3.677   4.232  1.4463 -0.4779  0.7913
   65SAPC   H2Y 5308   3.256   3.630   4.180  0.8627 -3.0900  0.3867
   65SAPC   C23 5309   3.373   4.000   4.118 -0.0296 -0.5959  0.2685
   65SAPC   H3R 5310   3.319   3.903   4.125 -1.7881 -0.0824 -3.5064
   65SAPC   H3S 5311   3.298   4.074   4.154  0.2100 -0.1471 -0.1398
   65SAPC   C24 5312   3.491   3.997   4.214 -0.2539  0.2021 -0.1195
   65SAPC   H4R 5313   3.538   4.094   4.189 -2.4726  1.7260  1.2451
   65SAPC   H4S 5314   3.559   3.916   4.178  1.7257  1.4980  0.5367
   65SAPC   C25 5315   3.467   3.979   4.361 -0.2490  0.1588 -0.3161
   65SAPC   H5R 5316   3.427   3.880   4.387 -1.0003  0.7376  0.8101
   65SAPC   C26 5317   3.463   4.066   4.460  0.5301  0.1467  0.1467
   65SAPC   H6R 5318   3.427   4.033   4.559  1.0910  1.7978  0.9431
   65SAPC   C27 5319   3.478   4.215   4.456 -0.1258 -0.0155  0.3175
   65SAPC   H7R 5320   3.454   4.245   4.351  0.6043  2.7995  0.8658
   65SAPC   H7S 5321   3.585   4.244   4.465  0.0629 -0.2737 -0.8273
   65SAPC   C28 5322   3.393   4.292   4.555  0.0697  0.5232  0.1973
   65SAPC   H8R 5323   3.317   4.356   4.507  0.5715  0.5619 -0.5734
   65SAPC   C29 5324   3.405   4.290   4.690  0.4002  0.7183 -0.5013
   65SAPC   H9R 5325   3.339   4.354   4.750  0.5131  0.3461  0.0251
   65SAPC  C210 5326   3.510   4.204   4.758  0.1945  0.2587 -0.2588
   65SAPC  H10R 5327   3.599   4.170   4.701  0.5682 -0.9882  0.9864
   65SAPC  H10S 5328   3.453   4.110   4.772  1.0460 -0.2037  0.2470
   65SAPC  C211 5329   3.541   4.248   4.903 -0.0811  0.1065  0.4217
   65SAPC  H11R 5330   3.493   4.341   4.937  2.0529  0.8004  1.7684
   65SAPC  C212 5331   3.632   4.189   4.987 -0.1143  0.1394 -0.0494
   65SAPC  H12R 5332   3.653   4.230   5.087  2.2735  0.6329 -0.6960
   65SAPC  C213 5333   3.699   4.062   4.950 -0.5191 -0.2507 -0.7139
   65SAPC  H13R 5334   3.775   4.092   4.875 -1.8490  1.2837 -1.5328
   65SAPC  H13S 5335   3.628   3.993   4.900 -0.3384  0.6419 -2.2788
   65SAPC  C214 5336   3.747   3.980   5.069  0.3822 -0.1924  0.1417
   65SAPC  H14R 5337   3.663   3.963   5.137 -0.4176 -1.1834 -1.0524
   65SAPC  C215 5338   3.872   3.939   5.095 -0.2088  0.1519  0.2726
   65SAPC  H15R 5339   3.892   3.872   5.180  1.9657  0.2918 -0.0597
   65SAPC  C216 5340   3.990   3.964   5.008 -0.0933  0.2515 -1.1203
   65SAPC  H16R 5341   4.059   4.044   5.044 -0.1203 -1.2488  2.8070
   65SAPC  H16S 5342   3.963   4.004   4.908 -1.8696  0.7773 -0.4697
   65SAPC  C217 5343   4.079   3.837   5.009 -0.2924  0.3401 -0.3414
   65SAPC  H17R 5344   4.156   3.869   4.936 -0.8795 -0.9669 -1.5886
   65SAPC  H17S 5345   4.030   3.743   4.976 -1.3697 -0.4417  3.0573
   65SAPC  C218 5346   4.159   3.813   5.138 -0.2876 -0.4774 -0.4065
   65SAPC  H18R 5347   4.094   3.750   5.203 -0.5807  0.3499  0.1235
   65SAPC  H18S 5348   4.179   3.914   5.182  0.1432  0.7282 -3.1692
   65SAPC  C219 5349   4.280   3.741   5.104 -0.0036 -0.0994  1.1871
   65SAPC  H19R 5350   4.343   3.806   5.039 -2.2096 -0.1810 -1.2327
   65SAPC  H19S 5351   4.249   3.653   5.042 -0.5317  0.1735  1.0585
   65SAPC  C220 5352   4.358   3.696   5.229 -0.5285  0.5014  0.1980
   65SAPC  H20R 5353   4.295   3.643   5.304  0.3691  0.6531  1.0834
   65SAPC  H20S 5354   4.409   3.774   5.290 -1.3193  0.2633  1.1960
   65SAPC  H20T 5355   4.436   3.623   5.200  0.4844  1.0612  1.3850
   65SAPC   C33 5356   3.120   3.459   4.196  0.5187  0.0929 -0.2945
   65SAPC   H3X 5357   3.150   3.383   4.121  1.2425 -1.8431  1.8088
   65SAPC   H3Y 5358   3.009   3.451   4.200  0.5173  0.1924  2.7365
   65SAPC   C34 5359   3.184   3.407   4.321  0.0660  0.2810 -0.7444
   65SAPC   H4X 5360   3.293   3.425   4.327  0.4258 -2.2016  2.9555
   65SAPC   H4Y 5361   3.162   3.299   4.313  5.2302 -1.0182 -0.7792
   65SAPC   C35 5362   3.112   3.456   4.444 -0.0540  0.2047  0.1797
   65SAPC   H5X 5363   3.011   3.409   4.445  0.3872 -0.8217 -1.0232
   65SAPC   H5Y 5364   3.102   3.566   4.446 -0.9440  0.1400 -0.1729
   65SAPC   C36 5365   3.176   3.409   4.575 -0.5418 -0.1918 -0.7813
   65SAPC   H6X 5366   3.271   3.466   4.586 -0.5169 -0.5834  1.5735
   65SAPC   H6Y 5367   3.204   3.302   4.571 -2.6789 -0.9510  1.6967
   65SAPC   C37 5368   3.112   3.444   4.711  0.4456 -0.7712  0.4710
   65SAPC   H7X 5369   3.131   3.552   4.724  3.0260 -1.1765  0.5673
   65SAPC   H7Y 5370   3.159   3.394   4.799 -1.2261 -0.5424  1.5340
   65SAPC   C38 5371   2.959   3.430   4.726 -0.4848  0.1928 -0.2746
   65SAPC   H8X 5372   2.942   3.328   4.684 -2.0335  0.9579 -1.5939
   65SAPC   H8Y 5373   2.919   3.501   4.650  2.2080  2.2606  0.0765
   65SAPC   C39 5374   2.900   3.457   4.863 -0.0508 -0.5518 -0.3729
   65SAPC   H9X 5375   2.942   3.386   4.938  0.5325  0.9193  0.7475
   65SAPC   H9Y 5376   2.790   3.450   4.861 -0.3649  2.7676 -1.7386
   65SAPC  C310 5377   2.938   3.593   4.926  0.2074 -0.4501 -0.3685
   65SAPC  H10X 5378   2.914   3.673   4.852  2.8602 -1.1953 -2.1809
   65SAPC  H10Y 5379   3.044   3.597   4.956  0.2537 -0.5387 -0.5187
   65SAPC  C311 5380   2.847   3.621   5.048 -0.4139 -0.2752 -0.5369
   65SAPC  H11X 5381   2.826   3.528   5.106  2.8817  0.3351  1.9099
   65SAPC  H11Y 5382   2.745   3.643   5.010  0.2918  0.2610 -2.2124
   65SAPC  C312 5383   2.880   3.734   5.146  0.0038  0.3478  0.9451
   65SAPC  H12X 5384   2.894   3.826   5.085 -2.7592  0.8951  1.0091
   65SAPC  H12Y 5385   2.980   3.702   5.184 -0.6392 -1.9893  0.7947
   65SAPC  C313 5386   2.784   3.762   5.258  0.3946  0.3769 -0.1341
   65SAPC  H13X 5387   2.691   3.810   5.221  1.2719  1.5675 -0.8673
   65SAPC  H13Y 5388   2.830   3.836   5.326  0.0943 -1.2271  1.9111
   65SAPC  C314 5389   2.753   3.631   5.339  0.5215  0.1522 -0.1053
   65SAPC  H14X 5390   2.850   3.578   5.349  0.2977  0.0752  2.2434
   65SAPC  H14Y 5391   2.687   3.564   5.279  0.5187 -0.0886  0.1619
   65SAPC  C315 5392   2.695   3.664   5.482 -0.5651 -0.9068 -0.2315
   65SAPC  H15X 5393   2.604   3.727   5.475  0.2363  0.5454  1.5029
   65SAPC  H15Y 5394   2.759   3.751   5.508 -3.2076  1.3274 -0.7602
   65SAPC  C316 5395   2.686   3.556   5.593 -0.2812 -0.0442  0.7381
   65SAPC  H16X 5396   2.668   3.620   5.681  0.7348  2.4843 -0.7819
   65SAPC  H16Y 5397   2.785   3.505   5.603 -0.7410 -0.9944  0.6139
   65SAPC  C317 5398   2.580   3.456   5.574  0.0570 -0.0804 -0.9384
   65SAPC  H17X 5399   2.573   3.419   5.470  0.9430  0.7495 -1.2931
   65SAPC  H17Y 5400   2.480   3.504   5.589  0.9804  1.6362  0.0286
   65SAPC  C318 5401   2.598   3.340   5.679 -0.2748  1.0103  0.1158
   65SAPC  H18X 5402   2.686   3.279   5.651 -0.1808  0.8371  0.7733
   65SAPC  H18Y 5403   2.512   3.270   5.683 -1.4760  2.3845 -0.5035
   65SAPC  H18Z 5404   2.602   3.382   5.782  0.3274 -0.3313  0.6648
   66SAPC     N 5405   5.930   6.207   3.132 -0.1977  0.0628 -0.6112
   66SAPC   C12 5406   5.829   6.237   3.243 -1.0997  0.1683 -0.5205
   66SAPC  H12A 5407   5.881   6.221   3.336  0.6312  0.2108 -1.4534
   66SAPC  H12B 5408   5.748   6.169   3.220 -1.8715  1.4481 -1.7552
   66SAPC   C13 5409   5.982   6.064   3.128 -0.0677 -0.4841 -0.0965
   66SAPC  H13A 5410   6.059   6.046   3.055 -0.3913  0.3396 -0.6449
   66SAPC  H13B 5411   6.034   6.036   3.219 -1.6850  0.0683  1.0568
   66SAPC  H13C 5412   5.899   6.000   3.099 -2.2161  1.9363  0.3526
   66SAPC   C14 5413   5.872   6.229   2.993  0.0265 -0.0350  0.8811
   66SAPC  H14A 5414   5.774   6.185   2.994 -0.0723  0.1735  0.7149
   66SAPC  H14B 5415   5.852   6.335   2.983 -2.4549 -0.4436  0.9696
   66SAPC  H14C 5416   5.938   6.187   2.918 -0.9547 -2.6117  1.3697
   66SAPC   C15 5417   6.048   6.304   3.145  0.5690  0.3248 -0.2877
   66SAPC  H15A 5418   6.083   6.317   3.247 -2.2428  0.5813  0.7267
   66SAPC  H15B 5419   6.133   6.276   3.085  0.1700 -0.0756 -0.6694
   66SAPC  H15C 5420   6.008   6.401   3.120  0.1777  1.0334  2.6864
   66SAPC   C11 5421   5.766   6.382   3.236  0.0220  1.0457 -0.3249
   66SAPC  H11A 5422   5.840   6.461   3.261 -0.6209  1.9791 -1.2920
   66SAPC  H11B 5423   5.691   6.373   3.317  0.4294 -0.7044 -0.1002
   66SAPC     P 5424   5.570   6.457   3.072 -0.3891  0.1914 -0.3994
   66SAPC   O13 5425   5.565   6.585   2.991 -0.4484  0.0818  0.0279
   66SAPC   O14 5426   5.502   6.330   3.028  0.0560 -0.4403 -0.7122
   66SAPC   O12 5427   5.718   6.419   3.109  0.2898  0.1245  0.0591
   66SAPC   O11 5428   5.502   6.489   3.217  0.5127  0.4661  0.5053
   66SAPC    C1 5429   5.528   6.621   3.275  0.1846  0.2520  0.2334
   66SAPC    HA 5430   5.597   6.694   3.228  0.6039 -0.8636 -0.9236
   66SAPC    HB 5431   5.430   6.673   3.280  0.3443  0.6327 -0.4287
   66SAPC    C2 5432   5.563   6.602   3.424 -0.3284  0.4264  0.0945
   66SAPC    HS 5433   5.663   6.554   3.430  0.0674  1.2461  0.1965
   66SAPC   O21 5434   5.463   6.522   3.490  0.2201 -0.5612  0.1360
   66SAPC   C21 5435   5.516   6.447   3.588  0.2418 -0.2783  0.1723
   66SAPC   O22 5436   5.634   6.448   3.623 -0.0078  0.3524 -0.3421
   66SAPC   C22 5437   5.389   6.402   3.674 -1.0236  0.2504  0.2312
   66SAPC   H2R 5438   5.321   6.485   3.703 -1.0823  0.6558 -1.0019
   66SAPC   H2S 5439   5.336   6.339   3.600 -2.5448  1.0046  0.6329
   66SAPC    C3 5440   5.569   6.740   3.490  0.5639  0.8117  0.2001
   66SAPC    HX 5441   5.473   6.788   3.463  1.8232  3.2157 -0.3306
   66SAPC    HY 5442   5.631   6.812   3.432 -2.3261  1.1605 -2.7315
   66SAPC   O31 5443   5.600   6.731   3.628  0.1326  0.0413 -0.7219
   66SAPC   C31 5444   5.494   6.751   3.710 -0.4988 -0.4547  0.2524
   66SAPC   O32 5445   5.387   6.797   3.674 -0.2353 -0.1545 -0.1698
   66SAPC   C32 5446   5.532   6.707   3.851  0.4566 -0.3548  0.2378
   66SAPC   H2X 5447   5.635   6.729   3.885  0.4260  0.9169 -0.4306
   66SAPC   H2Y 5448   5.528   6.596   3.848 -1.4609 -0.3416  0.8313
   66SAPC   C23 5449   5.424   6.321   3.802 -0.1206  0.2561 -0.6771
   66SAPC   H3R 5450   5.473   6.385   3.879  0.7820 -0.4884 -0.6191
   66SAPC   H3S 5451   5.510   6.254   3.783  0.2274  0.6690 -0.5903
   66SAPC   C24 5452   5.291   6.267   3.873  0.3419  0.8235  0.5724
   66SAPC   H4R 5453   5.213   6.347   3.866 -2.5863 -1.9700 -2.2609
   66SAPC   H4S 5454   5.304   6.262   3.983 -1.1778 -0.9494  0.7224
   66SAPC   C25 5455   5.228   6.142   3.814  0.4980 -0.1353 -0.7597
   66SAPC   H5R 5456   5.216   6.142   3.705 -0.8751 -2.2200 -0.6611
   66SAPC   C26 5457   5.203   6.027   3.886 -0.3960  0.1731  1.1683
   66SAPC   H6R 5458   5.173   5.934   3.836  1.9113 -0.6755  1.2097
   66SAPC   C27 5459   5.222   6.015   4.037  0.4370 -0.4572  0.7531
   66SAPC   H7R 5460   5.300   6.085   4.073 -0.1617  1.0458 -0.7279
   66SAPC   H7S 5461   5.251   5.914   4.072  0.6222 -0.1866  1.3903
   66SAPC   C28 5462   5.093   6.056   4.106 -0.3385  0.2020 -0.6422
   66SAPC   H8R 5463   5.022   6.117   4.048 -1.2497  0.0919  0.3250
   66SAPC   C29 5464   5.080   6.047   4.239 -0.1650  0.2972  0.0475
   66SAPC   H9R 5465   4.984   6.077   4.285  0.9008  0.4708  2.2909
   66SAPC  C210 5466   5.177   5.997   4.344  0.3768 -0.4621  0.7368
   66SAPC  H10R 5467   5.270   5.963   4.294  0.9260 -0.5682  1.8171
   66SAPC  H10S 5468   5.141   5.907   4.398  0.6488 -1.4550 -0.6659
   66SAPC  C211 5469   5.220   6.116   4.435 -0.1234  0.6374 -0.0982
   66SAPC  H11R 5470   5.269   6.199   4.383 -2.6982  1.5070 -1.3039
   66SAPC  C212 5471   5.189   6.131   4.567  0.4043 -0.1654  0.3328
   66SAPC  H12R 5472   5.235   6.208   4.629 -0.2102 -1.0872  1.9869
   66SAPC  C213 5473   5.102   6.032   4.646 -0.6223 -0.1180 -0.7889
   66SAPC  H13R 5474   5.015   5.992   4.590 -0.9789  0.9728 -1.0419
   66SAPC  H13S 5475   5.063   6.090   4.733  0.8604 -1.7699  1.0638
   66SAPC  C214 5476   5.182   5.910   4.693  0.3455 -0.6358  0.5403
   66SAPC  H14R 5477   5.252   5.874   4.615 -0.8289 -1.4705 -0.1546
   66SAPC  C215 5478   5.159   5.836   4.802 -0.3179 -1.4273 -0.6199
   66SAPC  H15R 5479   5.234   5.761   4.831  1.8611  0.9780  0.3225
   66SAPC  C216 5480   5.043   5.879   4.899  0.4051  0.0558  0.7415
   66SAPC  H16R 5481   4.998   5.780   4.925  0.4483 -0.4019 -0.8486
   66SAPC  H16S 5482   4.968   5.945   4.852 -1.2404 -0.9268  1.8823
   66SAPC  C217 5483   5.090   5.956   5.023  0.0582  0.0210 -0.5346
   66SAPC  H17R 5484   5.131   6.056   4.996  2.6518  0.4252  3.9294
   66SAPC  H17S 5485   5.175   5.900   5.068 -0.1613 -0.0303 -0.1759
   66SAPC  C218 5486   4.996   5.971   5.133 -0.8191  0.0763 -0.2401
   66SAPC  H18R 5487   4.939   5.879   5.158 -0.3778 -0.0528  0.3105
   66SAPC  H18S 5488   4.912   6.041   5.113 -0.5289  0.9421  1.4625
   66SAPC  C219 5489   5.060   6.027   5.262 -0.3777 -0.0361 -0.3577
   66SAPC  H19R 5490   5.167   5.998   5.270 -0.1887  0.8584  0.5136
   66SAPC  H19S 5491   5.013   6.007   5.361  0.9327  0.1424  0.3231
   66SAPC  C220 5492   5.063   6.178   5.253  0.7486 -0.2287  0.2331
   66SAPC  H20R 5493   5.125   6.218   5.336  1.8351 -1.7033  0.1706
   66SAPC  H20S 5494   4.962   6.225   5.254  0.8821  0.0600  0.3510
   66SAPC  H20T 5495   5.109   6.209   5.157 -2.4461  0.2648 -1.2605
   66SAPC   C33 5496   5.435   6.759   3.957  0.0395  0.0266 -0.3919
   66SAPC   H3X 5497   5.332   6.747   3.919  0.8828  1.3338 -3.4215
   66SAPC   H3Y 5498   5.465   6.866   3.968  2.6387 -0.5590 -1.0188
   66SAPC   C34 5499   5.454   6.687   4.099  0.3855  0.2149  0.6478
   66SAPC   H4X 5500   5.561   6.674   4.123  0.5968  2.3568  1.1145
   66SAPC   H4Y 5501   5.405   6.588   4.092  0.0699  0.3906  0.2574
   66SAPC   C35 5502   5.407   6.781   4.207  0.0906 -0.0211  0.1231
   66SAPC   H5X 5503   5.309   6.821   4.171 -0.4528 -2.0421 -0.7966
   66SAPC   H5Y 5504   5.475   6.868   4.197  1.1862 -0.8171  0.5071
   66SAPC   C36 5505   5.402   6.716   4.343 -0.4826  0.2113  1.0550
   66SAPC   H6X 5506   5.498   6.664   4.367 -1.2687 -2.3327 -0.8950
   66SAPC   H6Y 5507   5.329   6.632   4.349  0.8728 -1.0569  0.6000
   66SAPC   C37 5508   5.359   6.818   4.457 -0.1437 -0.0571  0.3433
   66SAPC   H7X 5509   5.256   6.856   4.438 -0.1451 -0.1515  0.1619
   66SAPC   H7Y 5510   5.418   6.912   4.460 -0.6363  0.2330  2.7401
   66SAPC   C38 5511   5.377   6.742   4.592  0.2368 -0.9226 -0.0443
   66SAPC   H8X 5512   5.474   6.693   4.610  1.2314  0.7960 -0.4909
   66SAPC   H8Y 5513   5.291   6.677   4.620  0.1971 -0.6222  0.5372
   66SAPC   C39 5514   5.381   6.854   4.700 -0.4562 -0.0281 -0.4375
   66SAPC   H9X 5515   5.280   6.901   4.698  0.3216  1.7624  0.3738
   66SAPC   H9Y 5516   5.456   6.935   4.687  0.3848 -0.9234 -1.2761
   66SAPC  C310 5517   5.405   6.795   4.836  0.1578 -0.1224 -0.6984
   66SAPC  H10X 5518   5.493   6.729   4.852 -1.2865 -1.7702  1.0335
   66SAPC  H10Y 5519   5.316   6.734   4.863  0.1678  0.0948 -0.1603
   66SAPC  C311 5520   5.427   6.895   4.946  0.4428 -0.2287  0.2405
   66SAPC  H11X 5521   5.333   6.956   4.945  0.9032  0.4877 -0.0500
   66SAPC  H11Y 5522   5.506   6.968   4.920  0.0484 -0.1094 -0.6715
   66SAPC  C312 5523   5.446   6.829   5.078 -0.1503 -0.6304 -0.2524
   66SAPC  H12X 5524   5.509   6.738   5.070  2.3310  1.1088 -1.9878
   66SAPC  H12Y 5525   5.346   6.791   5.109  0.3624 -3.1952 -1.4550
   66SAPC  C313 5526   5.511   6.938   5.183  0.4591 -0.5058 -0.1704
   66SAPC  H13X 5527   5.436   7.009   5.225  1.1925 -0.7673  1.6964
   66SAPC  H13Y 5528   5.585   7.001   5.130  0.7718 -1.0685 -0.4125
   66SAPC  C314 5529   5.585   6.884   5.305 -0.0769 -0.0164  0.8891
   66SAPC  H14X 5530   5.677   6.838   5.266 -0.1683 -0.4335  1.1583
   66SAPC  H14Y 5531   5.535   6.798   5.356  2.4348 -2.4195 -0.4762
   66SAPC  C315 5532   5.649   6.987   5.401 -0.4228 -0.0430  0.1305
   66SAPC  H15X 5533   5.704   7.069   5.350 -1.5501  0.5021 -0.2615
   66SAPC  H15Y 5534   5.744   6.942   5.436  1.0875  1.1751 -2.1029
   66SAPC  C316 5535   5.551   7.034   5.509 -0.2483 -0.2830  0.3265
   66SAPC  H16X 5536   5.516   6.945   5.565 -1.0851 -0.9449 -1.1959
   66SAPC  H16Y 5537   5.467   7.085   5.457 -0.4681  0.1625  1.0997
   66SAPC  C317 5538   5.599   7.129   5.616  0.5126  0.0034 -0.1796
   66SAPC  H17X 5539   5.627   7.232   5.584 -2.2060  1.2170  1.0568
   66SAPC  H17Y 5540   5.683   7.071   5.659 -0.2753 -2.7904 -2.0787
   66SAPC  C318 5541   5.510   7.134   5.747 -0.0459 -0.4580 -0.1948
   66SAPC  H18X 5542   5.504   7.036   5.799 -0.7362 -0.1359  0.3506
   66SAPC  H18Y 5543   5.407   7.167   5.725 -0.0886 -0.4544  0.0090
   66SAPC  H18Z 5544   5.554   7.209   5.817 -0.5269 -0.7322  0.4113
   67SAPC     N 5545   4.705   4.067   3.256  0.4180  0.5074  0.2140
   67SAPC   C12 5546   4.565   4.129   3.302  0.2629 -0.0251  0.4674
   67SAPC  H12A 5547   4.503   4.041   3.293  3.1229 -2.0014 -1.5139
   67SAPC  H12B 5548   4.526   4.207   3.239  1.1377 -1.2121 -1.6484
   67SAPC   C13 5549   4.757   3.970   3.359 -0.2284 -0.1630 -0.3169
   67SAPC  H13A 5550   4.766   4.022   3.453  0.0318  0.8115 -0.8753
   67SAPC  H13B 5551   4.686   3.891   3.379 -0.1447  0.4084  2.6229
   67SAPC  H13C 5552   4.844   3.920   3.319 -1.0087 -0.3749 -1.8185
   67SAPC   C14 5553   4.700   4.008   3.119 -0.0779 -0.6039 -0.8320
   67SAPC  H14A 5554   4.657   4.085   3.056  0.4372  0.7820  0.4654
   67SAPC  H14B 5555   4.800   3.995   3.080  1.4517  0.8571  2.2783
   67SAPC  H14C 5556   4.644   3.915   3.114 -0.9452 -0.1671  0.2829
   67SAPC   C15 5557   4.805   4.181   3.253  0.1197  0.2286 -0.0668
   67SAPC  H15A 5558   4.819   4.231   3.347  1.5036  0.8180 -0.5680
   67SAPC  H15B 5559   4.901   4.153   3.213  0.6353 -0.3634  1.5418
   67SAPC  H15C 5560   4.760   4.258   3.192  1.3184  0.5116 -0.6244
   67SAPC   C11 5561   4.555   4.164   3.455 -0.4539  0.3655  0.0315
   67SAPC  H11A 5562   4.453   4.207   3.465  0.3024  2.1776  0.4549
   67SAPC  H11B 5563   4.634   4.236   3.485  0.6022 -0.4614 -0.6654
   67SAPC     P 5564   4.453   3.941   3.538  0.0655 -0.2498 -0.0899
   67SAPC   O13 5565   4.365   3.957   3.418 -0.0265  0.1954 -0.4615
   67SAPC   O14 5566   4.507   3.813   3.561 -0.0179  0.2640  0.3049
   67SAPC   O12 5567   4.579   4.045   3.539 -0.2015  0.5636 -0.0403
   67SAPC   O11 5568   4.380   3.983   3.674 -0.0792 -0.3185  0.1096
   67SAPC    C1 5569   4.461   3.986   3.793 -0.2176 -1.0881  0.1402
   67SAPC    HA 5570   4.557   4.041   3.783 -2.2565  2.9195  0.6670
   67SAPC    HB 5571   4.409   4.044   3.873  0.5248 -3.3852  2.4080
   67SAPC    C2 5572   4.488   3.844   3.864 -0.1102  0.3752 -0.2543
   67SAPC    HS 5573   4.566   3.786   3.809 -0.2876 -1.5948  1.4459
   67SAPC   O21 5574   4.362   3.769   3.870  0.2615 -0.2311  0.1510
   67SAPC   C21 5575   4.365   3.636   3.885 -0.9306  0.1555  1.0905
   67SAPC   O22 5576   4.471   3.567   3.891  0.0397 -0.5227 -0.4585
   67SAPC   C22 5577   4.216   3.605   3.919  0.5175  0.9122 -0.0562
   67SAPC   H2R 5578   4.154   3.688   3.957 -0.4729  0.3861 -0.4925
   67SAPC   H2S 5579   4.173   3.589   3.818 -3.0787  0.6967  1.3903
   67SAPC    C3 5580   4.558   3.864   4.006 -0.2458 -0.2738  0.5217
   67SAPC    HX 5581   4.651   3.914   3.972  0.0730 -0.3534  1.2570
   67SAPC    HY 5582   4.597   3.770   4.050  0.3590 -0.4620 -0.3821
   67SAPC   O31 5583   4.491   3.954   4.093 -0.1292 -0.5350  0.4881
   67SAPC   C31 5584   4.413   3.900   4.172  0.0354  0.5597 -0.1479
   67SAPC   O32 5585   4.386   3.785   4.181  0.1355 -0.0088  0.0133
   67SAPC   C32 5586   4.374   4.014   4.272 -0.2584 -0.7011 -0.4167
   67SAPC   H2X 5587   4.287   4.065   4.225 -1.2550 -1.1081  0.9376
   67SAPC   H2Y 5588   4.453   4.092   4.275 -2.3659  1.6101 -1.5781
   67SAPC   C23 5589   4.190   3.465   3.993 -0.2528 -0.5302  0.5148
   67SAPC   H3R 5590   4.272   3.398   3.958  0.9476  1.3237 -0.3889
   67SAPC   H3S 5591   4.089   3.428   3.967  0.0915  0.7416 -3.2864
   67SAPC   C24 5592   4.190   3.482   4.144  0.2395  0.1232 -0.8260
   67SAPC   H4R 5593   4.294   3.486   4.183 -0.7376 -1.1184  2.2043
   67SAPC   H4S 5594   4.143   3.389   4.180 -2.1854  1.3684 -0.6112
   67SAPC   C25 5595   4.109   3.596   4.210  0.1732 -0.2441  0.6569
   67SAPC   H5R 5596   4.074   3.673   4.139  2.3897  1.9143  1.7343
   67SAPC   C26 5597   4.103   3.610   4.343 -0.5017 -0.1824  0.7409
   67SAPC   H6R 5598   4.054   3.698   4.386  1.2244  1.2043 -0.0073
   67SAPC   C27 5599   4.168   3.519   4.445 -0.2434  0.7688 -0.1578
   67SAPC   H7R 5600   4.270   3.489   4.414 -0.4252  1.4826 -1.5441
   67SAPC   H7S 5601   4.113   3.422   4.449 -1.1002  1.2645  0.5680
   67SAPC   C28 5602   4.172   3.577   4.585 -0.4223 -0.0322  0.6734
   67SAPC   H8R 5603   4.186   3.685   4.604  0.4645  0.1215 -0.7388
   67SAPC   C29 5604   4.153   3.503   4.698  0.7783 -0.1815  0.3773
   67SAPC   H9R 5605   4.135   3.557   4.792  0.0401 -0.1641  0.2314
   67SAPC  C210 5606   4.128   3.356   4.713  0.0408  0.0902  0.2031
   67SAPC  H10R 5607   4.202   3.325   4.790 -0.4606 -2.4099 -0.2247
   67SAPC  H10S 5608   4.153   3.299   4.621 -0.2379  1.8140 -0.9885
   67SAPC  C211 5609   3.988   3.331   4.756 -1.0683 -0.6253 -0.3837
   67SAPC  H11R 5610   3.916   3.343   4.673  1.3969  1.3543 -2.4201
   67SAPC  C212 5611   3.933   3.325   4.880 -0.0369 -0.0110 -0.1972
   67SAPC  H12R 5612   3.824   3.315   4.880  0.0498 -1.8079  1.9981
   67SAPC  C213 5613   4.003   3.330   5.013  0.5044 -0.1605 -0.3944
   67SAPC  H13R 5614   3.934   3.319   5.099  0.2930 -1.6534 -0.7213
   67SAPC  H13S 5615   4.046   3.431   5.024 -2.0781  0.9245  0.6005
   67SAPC  C214 5616   4.095   3.216   5.038 -0.7039  0.3264 -0.1923
   67SAPC  H14R 5617   4.093   3.140   4.959  0.3371 -1.5901  1.5255
   67SAPC  C215 5618   4.186   3.217   5.135 -0.1731  0.1425  0.4263
   67SAPC  H15R 5619   4.266   3.144   5.155  0.1523  0.6656  1.0440
   67SAPC  C216 5620   4.202   3.321   5.240  0.1315 -0.5327  0.0843
   67SAPC  H16R 5621   4.119   3.394   5.237  2.0128  1.6706 -2.1705
   67SAPC  H16S 5622   4.292   3.380   5.214 -0.4340  0.4596  0.3647
   67SAPC  C217 5623   4.230   3.274   5.378 -0.4414 -0.1401 -0.1630
   67SAPC  H17R 5624   4.292   3.182   5.380 -1.1919 -0.6648  2.5444
   67SAPC  H17S 5625   4.133   3.249   5.427 -0.8358 -1.4825 -1.5453
   67SAPC  C218 5626   4.295   3.378   5.472 -0.6435  0.5887 -0.7650
   67SAPC  H18R 5627   4.227   3.463   5.493  0.1390  0.6520  1.9336
   67SAPC  H18S 5628   4.382   3.428   5.424 -1.7510  0.8294 -2.6261
   67SAPC  C219 5629   4.331   3.331   5.617 -0.6016  0.7240  1.4655
   67SAPC  H19R 5630   4.380   3.417   5.668  2.1113 -0.6994  1.4476
   67SAPC  H19S 5631   4.410   3.254   5.607 -1.5209  0.0534 -1.7984
   67SAPC  C220 5632   4.205   3.291   5.694 -0.0055 -0.3085 -0.4655
   67SAPC  H20R 5633   4.149   3.385   5.712 -1.6172 -1.2685 -0.2720
   67SAPC  H20S 5634   4.228   3.240   5.790 -0.9382  1.7202  0.9055
   67SAPC  H20T 5635   4.130   3.238   5.632 -1.2359  0.5052  0.2829
   67SAPC   C33 5636   4.311   3.947   4.398  0.1753 -0.2901 -1.1312
   67SAPC   H3X 5637   4.391   3.885   4.444 -0.5203 -0.9407 -0.7714
   67SAPC   H3Y 5638   4.232   3.881   4.356  0.5071 -0.7767 -1.0027
   67SAPC   C34 5639   4.270   4.053   4.496  0.7263  0.3086  0.3262
   67SAPC   H4X 5640   4.195   4.009   4.565  1.2176  0.3791  0.9078
   67SAPC   H4Y 5641   4.222   4.137   4.440  0.1408  0.6001  1.2550
   67SAPC   C35 5642   4.397   4.108   4.571 -0.7201  0.2426 -0.3210
   67SAPC   H5X 5643   4.364   4.203   4.619 -1.3785  0.2351 -0.7463
   67SAPC   H5Y 5644   4.468   4.132   4.490 -0.8397  0.5819 -0.3278
   67SAPC   C36 5645   4.466   4.014   4.673  0.1580 -0.3797 -0.4502
   67SAPC   H6X 5646   4.530   3.943   4.617  3.5296  1.6251  0.5506
   67SAPC   H6Y 5647   4.383   3.961   4.724  2.8291 -3.6572  0.8999
   67SAPC   C37 5648   4.553   4.088   4.777 -1.2067 -0.2959 -0.2744
   67SAPC   H7X 5649   4.494   4.172   4.819  0.6418  0.8554  0.1501
   67SAPC   H7Y 5650   4.644   4.129   4.727 -0.8754 -0.7202 -0.0238
   67SAPC   C38 5651   4.599   3.999   4.887 -0.8443 -0.3877  0.2694
   67SAPC   H8X 5652   4.657   3.914   4.844  0.6304  0.4157  0.6185
   67SAPC   H8Y 5653   4.518   3.952   4.948 -0.5808  0.0938  0.9879
   67SAPC   C39 5654   4.689   4.073   4.997 -0.5699 -0.0770 -0.1284
   67SAPC   H9X 5655   4.626   4.151   5.045  0.6034  2.0317 -1.8544
   67SAPC   H9Y 5656   4.766   4.129   4.940 -1.4602 -0.2472 -1.5305
   67SAPC  C310 5657   4.747   3.972   5.100  0.7088  0.7783 -0.5074
   67SAPC  H10X 5658   4.789   3.893   5.033 -2.1274  0.8031 -2.5162
   67SAPC  H10Y 5659   4.680   3.917   5.169 -0.8653  1.8424 -1.1271
   67SAPC  C311 5660   4.861   4.027   5.193 -0.4620  0.3574  0.0557
   67SAPC  H11X 5661   4.806   4.105   5.250  1.8746  1.2827  1.1949
   67SAPC  H11Y 5662   4.930   4.087   5.129  1.1302  0.1951  1.5354
   67SAPC  C312 5663   4.926   3.927   5.285 -0.2011  0.3584 -0.4108
   67SAPC  H12X 5664   4.973   3.846   5.224 -0.4740  0.3365 -0.5965
   67SAPC  H12Y 5665   4.847   3.894   5.355 -0.8218  0.7559 -0.9028
   67SAPC  C313 5666   5.035   3.987   5.373 -0.0897 -0.1113 -0.1655
   67SAPC  H13X 5667   5.108   4.044   5.312  1.4025 -1.0811  0.6316
   67SAPC  H13Y 5668   5.086   3.905   5.429  0.6339  0.3440 -0.1410
   67SAPC  C314 5669   4.971   4.065   5.491 -0.3039  0.4578 -0.4678
   67SAPC  H14X 5670   4.938   3.995   5.570 -0.7365  2.5140  1.2705
   67SAPC  H14Y 5671   4.882   4.122   5.457 -0.6484  0.3586  0.2393
   67SAPC  C315 5672   5.073   4.166   5.543 -0.0646 -0.0221  0.1095
   67SAPC  H15X 5673   5.036   4.215   5.636 -0.5491  2.3065 -1.2323
   67SAPC  H15Y 5674   5.093   4.244   5.467 -1.7556  0.1214 -0.2346
   67SAPC  C316 5675   5.205   4.101   5.590  0.2858 -0.3115 -0.4802
   67SAPC  H16X 5676   5.236   4.036   5.505  1.2191  0.1511 -0.4945
   67SAPC  H16Y 5677   5.175   4.033   5.673  1.8684 -0.8620 -0.3215
   67SAPC  C317 5678   5.309   4.210   5.622  0.0967  0.2682  0.7955
   67SAPC  H17X 5679   5.261   4.282   5.693 -1.0567 -1.5790  1.9686
   67SAPC  H17Y 5680   5.340   4.254   5.525 -1.9574 -1.8596 -0.9694
   67SAPC  C318 5681   5.441   4.161   5.686 -0.1366  0.5498 -0.1541
   67SAPC  H18X 5682   5.510   4.245   5.709 -0.7317  0.6167  1.5133
   67SAPC  H18Y 5683   5.480   4.078   5.623 -1.8716 -2.1625  2.0589
   67SAPC  H18Z 5684   5.423   4.118   5.787  2.9959 -1.1501 -0.1882
   68SAPC     N 5685   4.131   5.038   2.970 -0.4036  0.1235 -0.0172
   68SAPC   C12 5686   4.000   4.989   3.017 -0.0007 -0.2776 -0.0770
   68SAPC  H12A 5687   4.015   4.890   3.058  0.8832  0.3014  1.0337
   68SAPC  H12B 5688   3.930   4.982   2.935 -1.3386  3.3287  0.5514
   68SAPC   C13 5689   4.166   4.961   2.849 -0.1004  0.7135  0.0791
   68SAPC  H13A 5690   4.190   4.860   2.878  1.1332  1.0449  0.2430
   68SAPC  H13B 5691   4.091   4.961   2.770 -0.1883  0.8115  0.1624
   68SAPC  H13C 5692   4.251   5.002   2.796 -0.8850  4.3409  1.3381
   68SAPC   C14 5693   4.131   5.187   2.932 -0.2788  0.5192 -0.5263
   68SAPC  H14A 5694   4.229   5.219   2.897 -0.8065  2.7828 -0.0875
   68SAPC  H14B 5695   4.065   5.206   2.849 -0.8480  2.0722  0.2514
   68SAPC  H14C 5696   4.096   5.250   3.012  1.4361  0.3011  0.4373
   68SAPC   C15 5697   4.239   5.001   3.067  0.0522 -0.2606 -0.4472
   68SAPC  H15A 5698   4.224   4.898   3.095  2.8501 -1.1921 -1.9307
   68SAPC  H15B 5699   4.342   4.999   3.033  0.2164 -0.8321  0.0606
   68SAPC  H15C 5700   4.229   5.054   3.160 -0.9477 -1.5727  0.2245
   68SAPC   C11 5701   3.933   5.080   3.130 -0.1321 -0.1677 -0.7359
   68SAPC  H11A 5702   4.007   5.124   3.200 -0.4922  1.8767 -1.5555
   68SAPC  H11B 5703   3.858   5.018   3.183 -1.0501  0.8737 -0.7746
   68SAPC     P 5704   3.817   5.317   3.148  0.3789  0.1848  0.1234
   68SAPC   O13 5705   3.872   5.430   3.077 -0.3645 -0.0204 -0.0991
   68SAPC   O14 5706   3.670   5.295   3.145  0.0719  0.2203  0.1088
   68SAPC   O12 5707   3.867   5.194   3.068 -1.2669 -0.6543 -0.1754
   68SAPC   O11 5708   3.876   5.312   3.294  0.3662 -0.5047  0.1326
   68SAPC    C1 5709   3.801   5.254   3.396 -0.4342 -0.0659  0.3026
   68SAPC    HA 5710   3.733   5.327   3.443 -0.8605 -1.6508  2.2448
   68SAPC    HB 5711   3.719   5.185   3.367 -1.5387  1.5680 -0.5594
   68SAPC    C2 5712   3.889   5.212   3.517 -0.4089 -0.3940  0.5019
   68SAPC    HS 5713   3.886   5.101   3.522  0.5480 -0.3760  3.5403
   68SAPC   O21 5714   3.834   5.263   3.636  0.4815 -0.1594  0.1933
   68SAPC   C21 5715   3.745   5.195   3.703 -0.4122 -0.7332 -0.4196
   68SAPC   O22 5716   3.702   5.082   3.674  0.4893 -0.2337  0.2601
   68SAPC   C22 5717   3.706   5.279   3.827  0.3135 -0.3283 -0.7895
   68SAPC   H2R 5718   3.795   5.324   3.877 -1.1771  0.5725  1.1917
   68SAPC   H2S 5719   3.630   5.357   3.804 -0.3901 -0.0266  2.2271
   68SAPC    C3 5720   4.048   5.229   3.512  0.5954 -0.7392  0.2077
   68SAPC    HX 5721   4.083   5.334   3.518 -0.9069 -0.2933  2.1634
   68SAPC    HY 5722   4.077   5.195   3.410 -2.6743 -0.2447 -1.0136
   68SAPC   O31 5723   4.105   5.170   3.624 -0.2919 -0.3291  0.3109
   68SAPC   C31 5724   4.178   5.056   3.606 -0.0411 -0.5271 -0.4870
   68SAPC   O32 5725   4.192   4.998   3.500 -0.1662 -0.0066  0.6102
   68SAPC   C32 5726   4.246   5.012   3.734  0.2814  0.6036  1.0966
   68SAPC   H2X 5727   4.209   5.079   3.815 -0.1134  2.1664 -0.3219
   68SAPC   H2Y 5728   4.354   5.035   3.730  0.4429 -0.1971 -2.4794
   68SAPC   C23 5729   3.637   5.198   3.940  0.1620 -0.1296 -0.2490
   68SAPC   H3R 5730   3.698   5.107   3.958 -1.5529 -1.3465 -0.3264
   68SAPC   H3S 5731   3.535   5.169   3.909 -0.9720  2.0810  1.1069
   68SAPC   C24 5732   3.630   5.288   4.065 -0.3551  0.1516 -0.0514
   68SAPC   H4R 5733   3.556   5.255   4.140  0.2638 -0.2140  0.4059
   68SAPC   H4S 5734   3.602   5.388   4.026  1.1047  0.3771 -0.5823
   68SAPC   C25 5735   3.767   5.300   4.136  0.3375  0.3543  0.2656
   68SAPC   H5R 5736   3.843   5.366   4.093  0.8449  0.6617  1.5785
   68SAPC   C26 5737   3.822   5.220   4.232 -0.4353  0.0888 -0.6056
   68SAPC   H6R 5738   3.926   5.230   4.269 -0.8971  1.9989  0.3340
   68SAPC   C27 5739   3.741   5.111   4.299  0.1651 -0.1964  0.6485
   68SAPC   H7R 5740   3.634   5.112   4.271  0.5944 -0.4135 -1.0761
   68SAPC   H7S 5741   3.754   5.139   4.406  0.9231  0.7296  0.3337
   68SAPC   C28 5742   3.810   4.981   4.280  0.2290  0.6549  0.4899
   68SAPC   H8R 5743   3.890   4.960   4.207  0.7467  1.1942  0.8904
   68SAPC   C29 5744   3.793   4.873   4.362  0.0486 -0.6136  0.3205
   68SAPC   H9R 5745   3.876   4.801   4.355 -0.6231 -1.4328  0.7315
   68SAPC  C210 5746   3.718   4.859   4.495  0.5641 -0.0054  0.1875
   68SAPC  H10R 5747   3.650   4.771   4.489 -0.5561  0.8541 -0.0029
   68SAPC  H10S 5748   3.651   4.946   4.504 -2.3357 -1.8512 -1.9101
   68SAPC  C211 5749   3.823   4.837   4.600  0.5888  0.3426 -0.8341
   68SAPC  H11R 5750   3.910   4.902   4.586  0.7460  0.4539  0.5102
   68SAPC  C212 5751   3.821   4.760   4.712  0.0509  0.1194  0.1879
   68SAPC  H12R 5752   3.915   4.763   4.769  0.7267  1.8480 -0.9148
   68SAPC  C213 5753   3.711   4.664   4.749 -0.6390  0.2631  0.4959
   68SAPC  H13R 5754   3.667   4.612   4.661 -1.3647  0.1688  0.9086
   68SAPC  H13S 5755   3.626   4.716   4.798 -1.2847 -0.1029 -0.2119
   68SAPC  C214 5756   3.760   4.560   4.844  0.3675  0.0156  0.0183
   68SAPC  H14R 5757   3.771   4.465   4.790 -0.9270  0.8163 -1.7452
   68SAPC  C215 5758   3.802   4.574   4.974  0.2549 -0.8433  0.0621
   68SAPC  H15R 5759   3.835   4.487   5.032 -0.0306  0.2765  1.9720
   68SAPC  C216 5760   3.780   4.701   5.052 -0.0994  0.2754  0.2797
   68SAPC  H16R 5761   3.686   4.694   5.111  0.5520  2.5844  1.7157
   68SAPC  H16S 5762   3.759   4.786   4.984  0.2856  0.5235  0.4623
   68SAPC  C217 5763   3.887   4.724   5.165  0.2141 -0.3790  0.9375
   68SAPC  H17R 5764   3.873   4.822   5.217 -3.0750  0.3071 -0.9417
   68SAPC  H17S 5765   3.988   4.728   5.118  0.9401  2.6238  2.4826
   68SAPC  C218 5766   3.889   4.610   5.268  0.0137  0.3892 -0.3813
   68SAPC  H18R 5767   3.903   4.509   5.224 -1.4801  0.6373 -1.5227
   68SAPC  H18S 5768   3.785   4.617   5.309 -0.1314  1.9879 -0.9481
   68SAPC  C219 5769   3.986   4.634   5.386 -0.0198  0.6086  0.5572
   68SAPC  H19R 5770   3.967   4.558   5.465 -0.1566 -0.3218 -0.3475
   68SAPC  H19S 5771   3.970   4.737   5.422 -2.6205 -0.1466  1.8345
   68SAPC  C220 5772   4.133   4.606   5.342  0.2402  0.1827 -0.3898
   68SAPC  H20R 5773   4.152   4.666   5.251  2.5426  1.0970  0.6075
   68SAPC  H20S 5774   4.140   4.498   5.317  1.2114 -0.5612  2.6702
   68SAPC  H20T 5775   4.206   4.635   5.421 -0.4628  1.2464 -0.1088
   68SAPC   C33 5776   4.214   4.857   3.765  0.1553  0.5904  0.2765
   68SAPC   H3X 5777   4.304   4.819   3.817  1.4194  0.4329 -1.8903
   68SAPC   H3Y 5778   4.208   4.805   3.667 -2.6814  0.0065  0.6650
   68SAPC   C34 5779   4.086   4.836   3.845  0.1633 -0.5173 -0.4085
   68SAPC   H4X 5780   4.067   4.728   3.857  2.0819 -0.7190  1.5882
   68SAPC   H4Y 5781   4.004   4.878   3.783  0.3931  0.6614  0.0474
   68SAPC   C35 5782   4.067   4.891   3.987 -0.0953  0.4511  0.1572
   68SAPC   H5X 5783   3.968   4.851   4.020  0.6432 -1.1930  0.4812
   68SAPC   H5Y 5784   4.069   5.002   3.989 -1.1175  0.4711  1.4980
   68SAPC   C36 5785   4.167   4.836   4.093 -0.2037 -0.6716  0.0850
   68SAPC   H6X 5786   4.267   4.869   4.058 -0.9467  2.4861  0.6742
   68SAPC   H6Y 5787   4.155   4.725   4.087 -0.1837 -0.7200  0.8084
   68SAPC   C37 5788   4.143   4.877   4.238  0.0078 -0.3150 -0.2643
   68SAPC   H7X 5789   4.045   4.840   4.275  0.1746 -1.1572 -0.6354
   68SAPC   H7Y 5790   4.133   4.987   4.250  0.6016 -0.3675  0.8351
   68SAPC   C38 5791   4.248   4.825   4.336 -0.2684 -0.4042  0.4471
   68SAPC   H8X 5792   4.345   4.878   4.323  0.4332 -1.1041  2.3727
   68SAPC   H8Y 5793   4.255   4.716   4.318  2.4182 -0.4441  1.3327
   68SAPC   C39 5794   4.197   4.848   4.480 -0.2013 -0.0616 -0.6111
   68SAPC   H9X 5795   4.108   4.783   4.490 -0.7180  0.6876 -0.1517
   68SAPC   H9Y 5796   4.156   4.948   4.507  0.8366 -0.4160  2.7477
   68SAPC  C310 5797   4.301   4.818   4.594 -0.3025  0.6371  0.0299
   68SAPC  H10X 5798   4.383   4.890   4.573 -0.5073  0.6863 -0.6048
   68SAPC  H10Y 5799   4.325   4.712   4.572 -1.1615  0.5810 -0.6891
   68SAPC  C311 5800   4.249   4.840   4.733 -0.4312 -0.6752  0.4306
   68SAPC  H11X 5801   4.154   4.783   4.745 -1.2209  0.0968 -1.6142
   68SAPC  H11Y 5802   4.240   4.948   4.753 -0.0829 -0.2517 -1.4763
   68SAPC  C312 5803   4.344   4.779   4.831  0.5174  0.1332 -0.3371
   68SAPC  H12X 5804   4.445   4.806   4.793 -0.7976  0.2844 -4.1967
   68SAPC  H12Y 5805   4.339   4.669   4.823 -2.3148  0.1712 -0.0892
   68SAPC  C313 5806   4.325   4.833   4.974  0.1150 -0.1937  0.0773
   68SAPC  H13X 5807   4.245   4.781   5.031 -0.6711  1.3311  0.4079
   68SAPC  H13Y 5808   4.298   4.940   4.984 -0.3936 -0.4885  2.2200
   68SAPC  C314 5809   4.457   4.819   5.057  0.2793  0.2544  0.6733
   68SAPC  H14X 5810   4.531   4.892   5.018  0.5772 -0.4801 -0.1545
   68SAPC  H14Y 5811   4.498   4.718   5.035  1.1841  0.2019  2.4353
   68SAPC  C315 5812   4.429   4.848   5.202  0.0576 -0.1748  0.2865
   68SAPC  H15X 5813   4.355   4.776   5.243  0.7147 -0.7245  0.5216
   68SAPC  H15Y 5814   4.380   4.947   5.218 -0.1724 -0.0399 -1.1219
   68SAPC  C316 5815   4.555   4.854   5.294  0.0230  0.4592 -0.0259
   68SAPC  H16X 5816   4.616   4.946   5.279 -1.5013  1.4645 -0.2633
   68SAPC  H16Y 5817   4.616   4.769   5.258 -0.3659 -0.0053  0.4009
   68SAPC  C317 5818   4.521   4.826   5.442 -0.0543 -0.2197 -0.0538
   68SAPC  H17X 5819   4.507   4.716   5.454 -0.3264 -0.3891 -1.6370
   68SAPC  H17Y 5820   4.424   4.867   5.477  0.2904 -1.2547  2.3342
   68SAPC  C318 5821   4.626   4.879   5.543  0.1340  0.2388 -0.1452
   68SAPC  H18X 5822   4.581   4.868   5.644 -0.7193 -2.8175 -0.7731
   68SAPC  H18Y 5823   4.630   4.990   5.531  1.2725  0.2379  0.1101
   68SAPC  H18Z 5824   4.721   4.824   5.529  0.4377  0.9483 -0.9498
   69SAPC     N 5825   5.063   1.267   3.425 -0.2741 -0.0347 -0.2953
   69SAPC   C12 5826   5.041   1.400   3.364  0.1508 -0.1935 -0.0588
   69SAPC  H12A 5827   5.129   1.436   3.313  0.7749  1.1457  1.8340
   69SAPC  H12B 5828   5.030   1.476   3.440 -1.0121 -0.7179  0.3281
   69SAPC   C13 5829   5.193   1.276   3.507 -0.5479 -0.0842 -0.2799
   69SAPC  H13A 5830   5.194   1.323   3.604 -0.4130 -1.4938  0.4294
   69SAPC  H13B 5831   5.237   1.179   3.522 -0.7497 -0.2615 -0.8161
   69SAPC  H13C 5832   5.273   1.329   3.457 -0.8789  0.6181 -0.0723
   69SAPC   C14 5833   4.943   1.225   3.504  0.3000  0.7240  0.3881
   69SAPC  H14A 5834   4.852   1.223   3.446 -1.0942  0.9688  2.4461
   69SAPC  H14B 5835   4.957   1.138   3.567 -1.7133 -0.0344 -0.1341
   69SAPC  H14C 5836   4.918   1.293   3.584 -1.7135  0.3000  0.1659
   69SAPC   C15 5837   5.087   1.167   3.319  0.8442  0.3073  0.2459
   69SAPC  H15A 5838   5.008   1.165   3.246  2.1601 -0.6253 -1.2226
   69SAPC  H15B 5839   5.174   1.201   3.264  0.1710  0.6618 -0.6215
   69SAPC  H15C 5840   5.106   1.069   3.360 -0.3961  0.0049  0.1320
   69SAPC   C11 5841   4.930   1.410   3.255  0.1235 -0.4538 -0.5509
   69SAPC  H11A 5842   4.828   1.381   3.290 -0.1845  2.2696  1.1142
   69SAPC  H11B 5843   4.963   1.342   3.173  1.4601 -1.7993  1.0237
   69SAPC     P 5844   4.860   1.654   3.292 -0.6068  0.2155  0.2897
   69SAPC   O13 5845   4.954   1.769   3.311  0.2887  0.7986  0.1582
   69SAPC   O14 5846   4.725   1.690   3.231 -0.7674 -0.7503 -0.2405
   69SAPC   O12 5847   4.931   1.546   3.204  0.1803  0.4823 -0.0754
   69SAPC   O11 5848   4.832   1.585   3.433  0.1647  0.1399 -0.1451
   69SAPC    C1 5849   4.873   1.639   3.552  0.1118  0.3512  0.3677
   69SAPC    HA 5850   4.870   1.550   3.618 -1.0448 -0.0630 -0.2186
   69SAPC    HB 5851   4.980   1.669   3.548  0.4515 -0.9322 -0.6186
   69SAPC    C2 5852   4.773   1.738   3.608  0.0564  0.4601  0.5095
   69SAPC    HS 5853   4.782   1.826   3.541  0.4040 -1.2462 -1.8271
   69SAPC   O21 5854   4.800   1.753   3.750 -0.2742  0.5012  0.1576
   69SAPC   C21 5855   4.758   1.869   3.796  0.1557  0.1745 -0.4011
   69SAPC   O22 5856   4.739   1.971   3.734  0.4681  0.1633 -0.1218
   69SAPC   C22 5857   4.748   1.864   3.951  0.3472  0.0210 -0.2888
   69SAPC   H2R 5858   4.830   1.795   3.981  0.0664 -0.8210 -1.3795
   69SAPC   H2S 5859   4.771   1.969   3.979  2.2285 -0.3624 -0.2413
   69SAPC    C3 5860   4.628   1.673   3.593 -0.1538  0.2675  0.0433
   69SAPC    HX 5861   4.627   1.577   3.649  3.3048  0.0526 -0.0743
   69SAPC    HY 5862   4.616   1.644   3.487 -2.4321  1.6269 -0.1402
   69SAPC   O31 5863   4.523   1.766   3.632 -0.1584  0.1475  0.2200
   69SAPC   C31 5864   4.403   1.735   3.575 -0.1428  0.2391 -0.3653
   69SAPC   O32 5865   4.380   1.630   3.515 -0.1208 -0.0166 -0.2443
   69SAPC   C32 5866   4.304   1.847   3.605 -0.7444 -0.2064  0.4450
   69SAPC   H2X 5867   4.217   1.846   3.535  0.3139  0.3319 -0.9058
   69SAPC   H2Y 5868   4.351   1.946   3.589 -0.3222 -0.3817  0.6038
   69SAPC   C23 5869   4.604   1.833   3.996 -0.7660  0.3246  0.0788
   69SAPC   H3R 5870   4.565   1.734   3.962 -0.4115  0.7414 -1.6507
   69SAPC   H3S 5871   4.539   1.917   3.962 -0.7505  0.6109  0.7511
   69SAPC   C24 5872   4.583   1.832   4.150  1.2932  0.2032 -0.5329
   69SAPC   H4R 5873   4.645   1.749   4.189  0.3702 -0.1613  0.2087
   69SAPC   H4S 5874   4.481   1.792   4.169  0.8411  1.7711  0.5694
   69SAPC   C25 5875   4.605   1.955   4.230 -0.7306  0.1294  0.3605
   69SAPC   H5R 5876   4.584   2.043   4.168 -2.4412 -0.7897 -0.4093
   69SAPC   C26 5877   4.620   1.962   4.368  0.4951 -0.3670  0.6299
   69SAPC   H6R 5878   4.644   2.060   4.411  1.8095  0.9729 -2.7805
   69SAPC   C27 5879   4.648   1.853   4.463  0.3974  0.3735  0.0356
   69SAPC   H7R 5880   4.731   1.874   4.534  2.7304 -1.0870 -2.0512
   69SAPC   H7S 5881   4.680   1.767   4.400  0.8325  0.6736 -0.1615
   69SAPC   C28 5882   4.524   1.808   4.537 -0.1480 -0.4026 -0.3101
   69SAPC   H8R 5883   4.436   1.795   4.472  0.6580  0.4599 -1.6160
   69SAPC   C29 5884   4.505   1.792   4.671  0.3727  0.0091  0.3812
   69SAPC   H9R 5885   4.406   1.756   4.703  1.0572  0.2295  2.9648
   69SAPC  C210 5886   4.607   1.823   4.771 -0.6469  0.6076 -0.0453
   69SAPC  H10R 5887   4.701   1.787   4.726 -0.8318 -0.5721  0.4696
   69SAPC  H10S 5888   4.588   1.778   4.871 -2.0011 -0.0430 -0.5708
   69SAPC  C211 5889   4.631   1.970   4.798 -0.3010 -0.0753  0.3134
   69SAPC  H11R 5890   4.613   2.047   4.722 -4.5790 -1.1617 -0.0525
   69SAPC  C212 5891   4.691   2.016   4.906 -0.3217 -1.1001 -0.5067
   69SAPC  H12R 5892   4.705   2.125   4.902  0.2867 -1.2090 -1.7056
   69SAPC  C213 5893   4.741   1.941   5.028 -0.0701 -0.3602  0.6755
   69SAPC  H13R 5894   4.699   1.838   5.023 -2.0277  0.4116  0.3061
   69SAPC  H13S 5895   4.696   1.982   5.121  0.1786  1.2455  0.1268
   69SAPC  C214 5896   4.890   1.933   5.039  0.2600 -0.4397 -0.1601
   69SAPC  H14R 5897   4.944   1.897   4.950  1.0556 -0.0887  0.1648
   69SAPC  C215 5898   4.958   1.982   5.144 -0.2375 -0.7554  0.2235
   69SAPC  H15R 5899   5.067   1.970   5.136  0.1262  1.3112  1.3094
   69SAPC  C216 5900   4.906   2.056   5.259  0.5964 -0.1280 -1.6056
   69SAPC  H16R 5901   4.906   1.986   5.346  0.9728 -0.8053 -2.1450
   69SAPC  H16S 5902   4.801   2.089   5.242  0.5616  0.5291 -0.2471
   69SAPC  C217 5903   4.981   2.186   5.299  0.1034  0.5526 -0.1429
   69SAPC  H17R 5904   4.950   2.257   5.219 -0.3540  0.2662 -0.2224
   69SAPC  H17S 5905   5.090   2.167   5.288 -0.3253 -4.9531  1.9112
   69SAPC  C218 5906   4.927   2.257   5.422  0.3374  0.0830  0.0148
   69SAPC  H18R 5907   4.822   2.290   5.405  0.7223  0.7131 -1.3063
   69SAPC  H18S 5908   4.986   2.349   5.440  0.8909  0.0048 -1.2945
   69SAPC  C219 5909   4.947   2.169   5.541 -0.1958 -0.3604  1.1289
   69SAPC  H19R 5910   5.047   2.122   5.553 -1.0707 -2.5678  0.3009
   69SAPC  H19S 5911   4.882   2.081   5.520 -0.8933  1.0330 -3.5428
   69SAPC  C220 5912   4.893   2.241   5.662 -0.3694 -0.2366 -0.4750
   69SAPC  H20R 5913   4.981   2.268   5.724 -0.7677 -0.8328  0.3737
   69SAPC  H20S 5914   4.819   2.174   5.712 -0.1919 -0.6520 -0.7613
   69SAPC  H20T 5915   4.824   2.328   5.655 -1.7288 -1.2114  0.2353
   69SAPC   C33 5916   4.248   1.848   3.752  0.2973 -0.0755 -0.3923
   69SAPC   H3X 5917   4.342   1.859   3.809  0.8694 -3.8358 -0.4044
   69SAPC   H3Y 5918   4.195   1.751   3.765 -0.6669  0.2542 -1.6366
   69SAPC   C34 5919   4.157   1.971   3.780  0.4420  0.7019 -1.2395
   69SAPC   H4X 5920   4.068   1.968   3.713 -0.7706  0.1338  0.3289
   69SAPC   H4Y 5921   4.211   2.065   3.756  0.7125  1.3550  1.5448
   69SAPC   C35 5922   4.112   1.985   3.929 -0.2654  0.5231 -0.0432
   69SAPC   H5X 5923   4.065   1.885   3.944  1.6879 -0.5246 -0.5056
   69SAPC   H5Y 5924   4.044   2.071   3.944 -0.3166  0.0559  2.9721
   69SAPC   C36 5925   4.223   1.980   4.027  0.6493  0.6605  0.0680
   69SAPC   H6X 5926   4.268   2.082   4.020 -0.5588  1.2273  0.2328
   69SAPC   H6Y 5927   4.304   1.910   4.000 -1.2016 -1.6799  0.3266
   69SAPC   C37 5928   4.186   1.970   4.174  0.2317  0.8799  0.1775
   69SAPC   H7X 5929   4.278   1.954   4.233  1.0219 -2.6658 -1.7083
   69SAPC   H7Y 5930   4.117   1.884   4.191 -0.4628  0.9556 -1.9027
   69SAPC   C38 5931   4.102   2.089   4.221  0.1276 -0.3645 -0.1087
   69SAPC   H8X 5932   3.996   2.095   4.186 -0.7987  0.6216  2.6205
   69SAPC   H8Y 5933   4.150   2.183   4.187  1.5461 -0.0601  2.4660
   69SAPC   C39 5934   4.091   2.096   4.376  0.0938 -0.3018  0.6106
   69SAPC   H9X 5935   4.037   2.191   4.396  0.3177  0.1827 -0.8860
   69SAPC   H9Y 5936   4.190   2.086   4.425  0.8449 -3.2374 -1.2527
   69SAPC  C310 5937   4.006   1.975   4.427  0.0356  0.2714 -0.1930
   69SAPC  H10X 5938   4.054   1.885   4.383  0.2385  0.7275 -0.9206
   69SAPC  H10Y 5939   3.907   1.993   4.379 -0.1009  2.3613  0.7736
   69SAPC  C311 5940   3.989   1.974   4.579 -0.6978  0.6522 -0.8913
   69SAPC  H11X 5941   3.929   1.886   4.611 -0.3289  0.9502  0.7323
   69SAPC  H11Y 5942   3.923   2.060   4.601  0.7895  1.3851  1.0755
   69SAPC  C312 5943   4.117   1.977   4.660  0.2720 -0.2962  0.2708
   69SAPC  H12X 5944   4.166   2.076   4.649 -0.3040  0.1497  1.5547
   69SAPC  H12Y 5945   4.176   1.892   4.620  0.7021  0.0411  0.1796
   69SAPC  C313 5946   4.089   1.958   4.812  0.4190 -0.1519  0.2397
   69SAPC  H13X 5947   4.013   1.880   4.835  0.4754 -0.7019 -1.3347
   69SAPC  H13Y 5948   4.053   2.058   4.843  0.4590  0.5325 -1.7663
   69SAPC  C314 5949   4.222   1.935   4.881  0.0089 -0.0152 -0.1942
   69SAPC  H14X 5950   4.302   1.999   4.838 -0.6014  0.8135 -0.1108
   69SAPC  H14Y 5951   4.266   1.837   4.851  1.2588  1.1619 -2.4888
   69SAPC  C315 5952   4.209   1.955   5.029  0.1727 -0.7166  0.5111
   69SAPC  H15X 5953   4.131   1.887   5.071  0.4361 -1.0297  0.4972
   69SAPC  H15Y 5954   4.165   2.057   5.039 -1.5740 -1.1458 -2.0260
   69SAPC  C316 5955   4.348   1.941   5.104  0.9116 -0.5280 -0.6850
   69SAPC  H16X 5956   4.419   2.020   5.073  0.3023  0.1494 -0.3795
   69SAPC  H16Y 5957   4.371   1.839   5.067 -0.1621 -1.8130  1.8892
   69SAPC  C317 5958   4.345   1.940   5.257  0.0114 -0.4007 -0.0066
   69SAPC  H17X 5959   4.274   2.022   5.282 -1.1006 -0.8645 -1.4647
   69SAPC  H17Y 5960   4.449   1.960   5.290 -0.2896  0.5677  0.3852
   69SAPC  C318 5961   4.282   1.811   5.308 -0.0370 -0.3221 -0.3015
   69SAPC  H18X 5962   4.343   1.722   5.279  2.7261  0.7531  1.7975
   69SAPC  H18Y 5963   4.175   1.809   5.280 -0.1600  1.4471 -0.0111
   69SAPC  H18Z 5964   4.282   1.816   5.419  0.2672  3.3999 -0.3653
   70SAPC     N 5965   5.973   6.695   2.909  0.3773 -0.3836 -0.1728
   70SAPC   C12 5966   6.058   6.817   2.918  0.5832  0.6711 -0.8084
   70SAPC  H12A 5967   6.005   6.910   2.923 -0.2106  0.2397 -1.0293
   70SAPC  H12B 5968   6.119   6.837   2.831  1.3300  0.0975 -0.4362
   70SAPC   C13 5969   5.893   6.669   3.027  0.2853 -0.2019  0.1530
   70SAPC  H13A 5970   5.813   6.740   3.044  1.3239  1.2562 -0.8664
   70SAPC  H13B 5971   5.855   6.568   3.028 -0.8419  0.2007  0.1925
   70SAPC  H13C 5972   5.946   6.672   3.121 -1.4343 -0.0717  1.1775
   70SAPC   C14 5973   5.878   6.701   2.789 -0.7839 -0.2668 -0.7488
   70SAPC  H14A 5974   5.785   6.748   2.817  0.8207  1.9971  1.2228
   70SAPC  H14B 5975   5.924   6.763   2.713  1.1376  0.1581  0.6720
   70SAPC  H14C 5976   5.865   6.602   2.749 -0.7612  0.3521 -2.3511
   70SAPC   C15 5977   6.068   6.586   2.877 -0.0112  0.1899 -0.1391
   70SAPC  H15A 5978   6.117   6.624   2.788 -0.7031  4.1420  0.9584
   70SAPC  H15B 5979   6.140   6.554   2.950 -0.4786 -1.4471 -0.3661
   70SAPC  H15C 5980   6.017   6.495   2.852 -1.2820  0.6616  0.6465
   70SAPC   C11 5981   6.163   6.825   3.034 -0.3229 -0.1792 -0.0139
   70SAPC  H11A 5982   6.219   6.919   3.013 -3.2117  1.7946  0.5509
   70SAPC  H11B 5983   6.227   6.734   3.043  0.8280  0.2914 -2.4699
   70SAPC     P 5984   6.021   6.972   3.191 -0.0681 -0.2515  0.2131
   70SAPC   O13 5985   5.987   7.058   3.079 -0.1406 -0.3146 -0.2515
   70SAPC   O14 5986   5.921   6.939   3.289  0.2509  0.2415  0.2478
   70SAPC   O12 5987   6.089   6.839   3.149 -0.4768 -0.7674  0.2284
   70SAPC   O11 5988   6.131   7.055   3.267 -0.0082  0.3204  0.5518
   70SAPC    C1 5989   6.247   7.011   3.335  0.3227  0.6156  0.0537
   70SAPC    HA 5990   6.285   6.916   3.290 -1.8436  0.3609 -1.4457
   70SAPC    HB 5991   6.330   7.082   3.315  1.2088 -0.2698  0.5247
   70SAPC    C2 5992   6.225   7.031   3.488 -0.0395  0.1141  0.3957
   70SAPC    HS 5993   6.323   7.010   3.535 -0.1481 -1.2445  0.0445
   70SAPC   O21 5994   6.121   6.948   3.549 -0.5849  0.0900  0.0353
   70SAPC   C21 5995   6.160   6.824   3.560 -0.0491  0.1527 -0.6012
   70SAPC   O22 5996   6.271   6.779   3.549 -1.0911 -0.0670  0.1607
   70SAPC   C22 5997   6.042   6.729   3.592  0.1443 -0.3579  0.8293
   70SAPC   H2R 5998   5.972   6.743   3.507  0.7986  2.3059  0.6136
   70SAPC   H2S 5999   6.091   6.629   3.596  1.0611 -0.1255 -1.9142
   70SAPC    C3 6000   6.199   7.182   3.520 -0.1960 -0.5365  0.4040
   70SAPC    HX 6001   6.121   7.211   3.446  0.9961  0.5568 -0.4773
   70SAPC    HY 6002   6.286   7.246   3.492 -0.9706 -0.7630 -2.9806
   70SAPC   O31 6003   6.154   7.200   3.654  0.0093  0.3479  0.0639
   70SAPC   C31 6004   6.255   7.210   3.743  0.1821 -0.1984 -0.6894
   70SAPC   O32 6005   6.373   7.225   3.721  0.2230 -0.0823  0.4636
   70SAPC   C32 6006   6.198   7.215   3.885  0.1725  0.4643 -0.1692
   70SAPC   H2X 6007   6.141   7.120   3.897  2.7109 -1.3797 -1.7653
   70SAPC   H2Y 6008   6.128   7.301   3.891 -2.8457 -1.7376 -1.3212
   70SAPC   C23 6009   5.975   6.766   3.725 -0.7009 -0.3559  0.0987
   70SAPC   H3R 6010   5.881   6.707   3.736  0.4451 -2.2991 -0.2002
   70SAPC   H3S 6011   5.932   6.869   3.730 -2.9308 -1.2888  2.9809
   70SAPC   C24 6012   6.070   6.762   3.852  0.0203  0.3677  0.1748
   70SAPC   H4R 6013   6.021   6.822   3.931 -0.5681 -0.0162  0.1128
   70SAPC   H4S 6014   6.156   6.823   3.818  1.5026 -1.1035  1.1532
   70SAPC   C25 6015   6.119   6.627   3.910  0.1696 -0.6643 -0.2994
   70SAPC   H5R 6016   6.162   6.567   3.828  0.4588 -0.9640  0.0664
   70SAPC   C26 6017   6.086   6.585   4.035 -0.5821 -0.0212  0.4585
   70SAPC   H6R 6018   6.119   6.483   4.061  0.6296  0.6942  1.8800
   70SAPC   C27 6019   6.028   6.666   4.148  0.1881  0.9951  0.7693
   70SAPC   H7R 6020   5.949   6.734   4.110  0.5590  0.2701 -1.4587
   70SAPC   H7S 6021   6.110   6.732   4.182  2.2827  0.0434 -2.0480
   70SAPC   C28 6022   5.989   6.585   4.263  0.0130 -0.0106 -0.0205
   70SAPC   H8R 6023   5.988   6.476   4.251 -0.2570  0.0808 -0.9156
   70SAPC   C29 6024   5.922   6.637   4.365  0.2554  0.1369 -0.6748
   70SAPC   H9R 6025   5.890   6.572   4.448  1.3280 -0.3157 -0.5933
   70SAPC  C210 6026   5.883   6.776   4.384  0.2725  0.0847 -0.5014
   70SAPC  H10R 6027   5.866   6.839   4.294 -1.4430 -0.2675 -0.4504
   70SAPC  H10S 6028   5.971   6.821   4.434  0.0918  2.6859 -2.3632
   70SAPC  C211 6029   5.756   6.807   4.463  0.1677  0.5744  0.9809
   70SAPC  H11R 6030   5.671   6.817   4.393  1.3168 -1.2819 -0.8100
   70SAPC  C212 6031   5.741   6.813   4.596  0.4023  0.1633 -0.2080
   70SAPC  H12R 6032   5.643   6.842   4.637  0.8079 -0.7086  1.4485
   70SAPC  C213 6033   5.849   6.791   4.701 -0.3733  0.0267 -0.9595
   70SAPC  H13R 6034   5.929   6.721   4.669 -0.2984 -1.1150  1.5429
   70SAPC  H13S 6035   5.811   6.750   4.796  1.7409 -1.7146 -0.7746
   70SAPC  C214 6036   5.921   6.922   4.721 -0.0641  0.7905  0.3702
   70SAPC  H14R 6037   5.924   6.983   4.630 -0.8360 -0.8111 -0.7929
   70SAPC  C215 6038   5.984   6.970   4.823  0.6456  0.2696 -0.0231
   70SAPC  H15R 6039   6.017   7.074   4.812 -1.2600  0.7590 -1.7699
   70SAPC  C216 6040   5.980   6.918   4.962 -0.5202  0.0710  0.1048
   70SAPC  H16R 6041   6.000   6.809   4.965  2.0546  0.3825 -1.7947
   70SAPC  H16S 6042   5.876   6.934   4.998 -0.2754  0.9394  0.4539
   70SAPC  C217 6043   6.071   6.996   5.059  0.2675 -0.4142  0.1543
   70SAPC  H17R 6044   6.050   7.104   5.056 -0.7473 -0.6102 -2.4472
   70SAPC  H17S 6045   6.179   6.981   5.033  0.5622  0.7951  0.6429
   70SAPC  C218 6046   6.035   6.953   5.204  0.4607  0.1203  0.4560
   70SAPC  H18R 6047   6.033   6.842   5.197  0.8576  0.1307  0.1542
   70SAPC  H18S 6048   5.936   6.994   5.233  0.3645  1.3444 -1.4918
   70SAPC  C219 6049   6.138   6.989   5.315  0.2453  0.6464 -0.1907
   70SAPC  H19R 6050   6.236   6.944   5.286 -1.4544 -4.2196  0.6446
   70SAPC  H19S 6051   6.114   6.930   5.407  0.5946 -0.6557 -0.9082
   70SAPC  C220 6052   6.145   7.136   5.345  0.1503 -0.0874  0.3834
   70SAPC  H20R 6053   6.178   7.203   5.263  1.0469 -0.8920  0.0716
   70SAPC  H20S 6054   6.217   7.156   5.428 -0.0788  0.2308  0.5088
   70SAPC  H20T 6055   6.055   7.181   5.391  0.3757  0.1309  0.6169
   70SAPC   C33 6056   6.295   7.221   4.005 -0.7370 -0.1538  0.4711
   70SAPC   H3X 6057   6.370   7.302   3.993 -0.6807 -0.4958 -1.9418
   70SAPC   H3Y 6058   6.356   7.128   4.009 -0.9721 -0.2821  3.7790
   70SAPC   C34 6059   6.242   7.249   4.146  0.0342  0.0307  0.1312
   70SAPC   H4X 6060   6.147   7.303   4.125  0.7636  0.6863 -1.7269
   70SAPC   H4Y 6061   6.320   7.316   4.188  1.0547 -0.6641 -0.5915
   70SAPC   C35 6062   6.218   7.123   4.219 -0.2176  0.1502 -0.0371
   70SAPC   H5X 6063   6.310   7.062   4.221  0.2234  0.6840 -1.8998
   70SAPC   H5Y 6064   6.144   7.050   4.180 -1.2248  0.9672  0.2954
   70SAPC   C36 6065   6.181   7.140   4.368  1.3241  0.7240 -0.2630
   70SAPC   H6X 6066   6.130   7.045   4.396  1.7238  0.6165  0.1174
   70SAPC   H6Y 6067   6.115   7.228   4.377  1.6121  0.9912 -0.7146
   70SAPC   C37 6068   6.297   7.181   4.463  0.4159  0.2165 -0.1763
   70SAPC   H7X 6069   6.381   7.108   4.457  0.7722  0.3851  1.9600
   70SAPC   H7Y 6070   6.333   7.283   4.435 -0.8498  0.9659  0.7970
   70SAPC   C38 6071   6.238   7.186   4.612 -0.9997  0.2610  0.1324
   70SAPC   H8X 6072   6.194   7.086   4.634  0.2639  0.0248  1.7894
   70SAPC   H8Y 6073   6.167   7.271   4.604 -0.1200  0.8946 -1.5701
   70SAPC   C39 6074   6.358   7.206   4.707  0.1478  0.1178 -0.0611
   70SAPC   H9X 6075   6.403   7.305   4.683 -2.4234  1.7367  1.3246
   70SAPC   H9Y 6076   6.436   7.128   4.694 -0.4475 -0.8971  2.0344
   70SAPC  C310 6077   6.321   7.207   4.853 -0.4617 -0.2688 -0.7330
   70SAPC  H10X 6078   6.286   7.105   4.879 -3.8722  1.0268  0.3480
   70SAPC  H10Y 6079   6.223   7.258   4.866  0.3816  1.3397 -0.3576
   70SAPC  C311 6080   6.428   7.272   4.940  0.6711 -0.1490  0.7108
   70SAPC  H11X 6081   6.462   7.370   4.899  0.2865 -0.0150  0.7112
   70SAPC  H11Y 6082   6.515   7.204   4.955  1.3063  0.3696 -0.5239
   70SAPC  C312 6083   6.370   7.301   5.075  0.1590  0.7035 -0.3070
   70SAPC  H12X 6084   6.335   7.206   5.120 -2.1587  0.7831 -1.7075
   70SAPC  H12Y 6085   6.285   7.373   5.075  1.0758  1.8153 -0.5552
   70SAPC  C313 6086   6.471   7.360   5.172  0.0797 -0.0386  0.1634
   70SAPC  H13X 6087   6.488   7.462   5.133  0.6930 -0.1129  0.2153
   70SAPC  H13Y 6088   6.571   7.312   5.162 -0.1317 -0.9251  1.9069
   70SAPC  C314 6089   6.418   7.377   5.315 -0.9266  0.5450  0.1375
   70SAPC  H14X 6090   6.393   7.276   5.355  1.0456 -0.4981 -1.0915
   70SAPC  H14Y 6091   6.339   7.455   5.317 -1.1686  0.3112  2.4215
   70SAPC  C315 6092   6.539   7.429   5.402  0.2355 -1.2386  0.2326
   70SAPC  H15X 6093   6.543   7.538   5.382  1.7500 -1.1171  1.0182
   70SAPC  H15Y 6094   6.636   7.395   5.362  0.3035  1.6873 -2.4299
   70SAPC  C316 6095   6.519   7.431   5.553 -0.1184  0.1364 -0.7027
   70SAPC  H16X 6096   6.596   7.497   5.598  0.0294  0.0663 -0.8511
   70SAPC  H16Y 6097   6.546   7.327   5.581  0.6628  0.7701  1.0435
   70SAPC  C317 6098   6.384   7.447   5.616  0.1013  0.5132 -0.3354
   70SAPC  H17X 6099   6.308   7.374   5.581 -0.3997  1.1682 -0.6476
   70SAPC  H17Y 6100   6.331   7.542   5.592 -2.0160 -0.2436  1.0571
   70SAPC  C318 6101   6.390   7.438   5.772  0.5141 -0.5483 -0.2333
   70SAPC  H18X 6102   6.295   7.472   5.819  0.0277  0.7751 -2.0448
   70SAPC  H18Y 6103   6.470   7.507   5.806  0.6290 -0.0571 -1.4477
   70SAPC  H18Z 6104   6.428   7.338   5.801  1.5194 -0.5010 -1.3027
   71SAPC     N 6105   5.547   5.349   3.084 -0.3163  0.2728  0.4905
   71SAPC   C12 6106   5.433   5.374   2.991 -0.2563 -0.0940  0.5084
   71SAPC  H12A 6107   5.445   5.319   2.899 -1.3079  0.4867  0.0056
   71SAPC  H12B 6108   5.437   5.475   2.955  0.0922 -0.3254 -0.1109
   71SAPC   C13 6109   5.598   5.204   3.082  0.8869  0.5931 -0.8175
   71SAPC  H13A 6110   5.676   5.191   3.157 -1.3667  1.1966  1.7915
   71SAPC  H13B 6111   5.517   5.134   3.089  0.9463  0.1259 -3.7964
   71SAPC  H13C 6112   5.644   5.185   2.986  2.6450 -1.8881  0.3898
   71SAPC   C14 6113   5.660   5.438   3.045 -0.2244 -0.1708 -0.3502
   71SAPC  H14A 6114   5.689   5.431   2.941  1.3415 -0.0559  0.0508
   71SAPC  H14B 6115   5.632   5.542   3.048  0.6422  0.1234 -1.6693
   71SAPC  H14C 6116   5.753   5.426   3.100 -0.8895  1.9445  1.3865
   71SAPC   C15 6117   5.502   5.366   3.223 -0.1252 -0.3118 -0.7208
   71SAPC  H15A 6118   5.428   5.289   3.241 -0.0228 -0.2895 -0.1944
   71SAPC  H15B 6119   5.580   5.354   3.297  0.1773 -0.6517 -1.0893
   71SAPC  H15C 6120   5.458   5.464   3.235  0.6690  0.1810 -1.6612
   71SAPC   C11 6121   5.283   5.355   3.040 -0.0909  0.0203  0.4042
   71SAPC  H11A 6122   5.277   5.248   3.068  1.1987  0.0361  0.8403
   71SAPC  H11B 6123   5.217   5.376   2.954  0.5689 -1.4545 -0.5014
   71SAPC     P 6124   5.153   5.570   3.129  0.4051 -0.4823  0.1930
   71SAPC   O13 6125   5.244   5.684   3.114 -0.3869  0.1286 -0.3426
   71SAPC   O14 6126   5.055   5.548   3.019 -0.0531  0.0428 -0.7207
   71SAPC   O12 6127   5.245   5.441   3.153  0.5616 -0.0516  0.1853
   71SAPC   O11 6128   5.083   5.569   3.269  0.1600  0.6247  0.1449
   71SAPC    C1 6129   5.146   5.558   3.400  0.0716 -0.0280 -0.3021
   71SAPC    HA 6130   5.080   5.504   3.471  0.2397 -1.0191 -0.8729
   71SAPC    HB 6131   5.241   5.501   3.391 -0.0020 -0.1239 -0.4776
   71SAPC    C2 6132   5.171   5.697   3.456 -0.4748 -0.1654  0.6827
   71SAPC    HS 6133   5.211   5.755   3.370 -2.5985 -0.7129 -0.7420
   71SAPC   O21 6134   5.264   5.674   3.567 -0.3629  0.2469  0.0227
   71SAPC   C21 6135   5.324   5.783   3.607  0.8907 -0.0343  0.1686
   71SAPC   O22 6136   5.316   5.893   3.555 -0.4503  0.3845  0.2267
   71SAPC   C22 6137   5.422   5.738   3.715 -0.2983 -0.9213 -0.1332
   71SAPC   H2R 6138   5.369   5.707   3.808 -0.6202 -0.5151 -0.1763
   71SAPC   H2S 6139   5.490   5.658   3.680 -0.7113 -0.5597 -1.9045
   71SAPC    C3 6140   5.037   5.776   3.498 -0.3623 -0.4205 -0.0844
   71SAPC    HX 6141   4.982   5.799   3.404  2.0570 -2.5205 -2.1778
   71SAPC    HY 6142   5.077   5.870   3.544 -2.7796 -0.2062  1.7796
   71SAPC   O31 6143   4.949   5.702   3.585  0.4860 -0.2585 -0.2642
   71SAPC   C31 6144   4.976   5.697   3.708  0.4673  0.3083  0.0052
   71SAPC   O32 6145   5.061   5.756   3.767  0.3213 -0.4995  0.2330
   71SAPC   C32 6146   4.874   5.607   3.783  0.1504 -1.4573  0.4360
   71SAPC   H2X 6147   4.834   5.520   3.727  1.1139 -1.6225 -0.0290
   71SAPC   H2Y 6148   4.785   5.671   3.800  1.3474 -0.4115  3.5294
   71SAPC   C23 6149   5.515   5.851   3.757 -0.5628 -0.0524  0.3990
   71SAPC   H3R 6150   5.463   5.932   3.814 -3.1954  0.2772 -2.2265
   71SAPC   H3S 6151   5.570   5.894   3.671  2.0459  0.3311  2.1215
   71SAPC   C24 6152   5.626   5.790   3.842 -0.7005 -0.4046 -1.2208
   71SAPC   H4R 6153   5.687   5.725   3.775  0.4949 -0.0999 -0.4624
   71SAPC   H4S 6154   5.593   5.725   3.926 -0.9744 -0.7861 -1.6184
   71SAPC   C25 6155   5.710   5.902   3.900 -0.3616 -0.2490 -0.2215
   71SAPC   H5R 6156   5.764   5.963   3.826 -0.6647 -1.5035 -1.5126
   71SAPC   C26 6157   5.742   5.932   4.030 -0.3006 -0.8465  0.3932
   71SAPC   H6R 6158   5.801   6.020   4.060 -1.1802 -0.3566  0.7458
   71SAPC   C27 6159   5.707   5.851   4.153  0.0710 -0.2017 -0.2151
   71SAPC   H7R 6160   5.801   5.851   4.213 -1.1618  3.3124  2.0566
   71SAPC   H7S 6161   5.695   5.741   4.138  1.6868 -0.4422  0.0083
   71SAPC   C28 6162   5.590   5.905   4.240 -0.1404  0.0052  0.1643
   71SAPC   H8R 6163   5.516   5.971   4.192 -0.1420 -0.6697 -0.7881
   71SAPC   C29 6164   5.590   5.875   4.367 -0.2180 -0.7742 -0.5935
   71SAPC   H9R 6165   5.506   5.912   4.428  0.8149 -1.3228  1.2288
   71SAPC  C210 6166   5.687   5.796   4.449  0.1950 -0.4607 -0.0140
   71SAPC  H10R 6167   5.773   5.752   4.395  0.3573  1.3443 -1.3447
   71SAPC  H10S 6168   5.645   5.705   4.497  0.9699 -0.7373  0.1452
   71SAPC  C211 6169   5.737   5.899   4.550  0.8867 -0.0820  0.3480
   71SAPC  H11R 6170   5.775   5.993   4.508  1.6151  0.1058  1.3813
   71SAPC  C212 6171   5.716   5.898   4.684 -0.5522  0.2027 -0.5909
   71SAPC  H12R 6172   5.755   5.981   4.744  0.9727 -0.7970 -0.1299
   71SAPC  C213 6173   5.670   5.777   4.761 -0.3164 -0.0926  0.0535
   71SAPC  H13R 6174   5.755   5.729   4.813 -1.1752 -1.4351  0.2705
   71SAPC  H13S 6175   5.627   5.691   4.705 -0.4262 -0.1662  0.2492
   71SAPC  C214 6176   5.566   5.827   4.855 -0.2124  0.5097 -0.0496
   71SAPC  H14R 6177   5.459   5.829   4.830 -0.2110 -0.5909 -0.1843
   71SAPC  C215 6178   5.601   5.859   4.983  0.2430 -0.5963 -0.5587
   71SAPC  H15R 6179   5.526   5.897   5.054 -0.4243 -0.4566 -1.3230
   71SAPC  C216 6180   5.742   5.874   5.034  0.3799 -0.4013  0.4914
   71SAPC  H16R 6181   5.817   5.903   4.957 -0.3895 -0.7742 -0.4099
   71SAPC  H16S 6182   5.782   5.775   5.065 -2.4476 -1.8562 -0.1746
   71SAPC  C217 6183   5.753   5.978   5.148  0.0166  0.0880 -0.5478
   71SAPC  H17R 6184   5.667   6.042   5.178  0.5883  0.7616 -0.3014
   71SAPC  H17S 6185   5.828   6.050   5.109 -0.2436 -0.0572 -1.3212
   71SAPC  C218 6186   5.805   5.918   5.271 -0.5254 -0.1971 -0.5628
   71SAPC  H18R 6187   5.891   5.851   5.250  1.0590  1.6565 -0.1939
   71SAPC  H18S 6188   5.740   5.856   5.335  0.2225 -0.2406  0.1649
   71SAPC  C219 6189   5.846   6.036   5.366  0.4398 -0.0704  0.6950
   71SAPC  H19R 6190   5.754   6.091   5.394  0.6155 -0.4482  2.1388
   71SAPC  H19S 6191   5.911   6.105   5.308  0.9797 -1.5651 -0.5425
   71SAPC  C220 6192   5.912   5.997   5.493 -0.7612 -0.0486 -0.3295
   71SAPC  H20R 6193   6.001   5.931   5.479  0.2343  1.5059 -1.6628
   71SAPC  H20S 6194   5.844   5.943   5.562 -1.1372  0.4688 -0.2947
   71SAPC  H20T 6195   5.949   6.088   5.544 -1.0265  1.0341 -1.9933
   71SAPC   C33 6196   4.936   5.551   3.910  0.1279  0.6619  0.3128
   71SAPC   H3X 6197   4.991   5.618   3.979 -0.5071  1.1746  0.3289
   71SAPC   H3Y 6198   5.007   5.468   3.887  0.0582  0.9252 -0.9258
   71SAPC   C34 6199   4.831   5.504   4.009 -0.0839  1.4408 -0.2055
   71SAPC   H4X 6200   4.761   5.429   3.966 -0.5732  0.6045  1.9305
   71SAPC   H4Y 6201   4.774   5.594   4.040  2.1525  2.2983  1.7251
   71SAPC   C35 6202   4.899   5.449   4.134  0.3473 -0.5332 -0.3624
   71SAPC   H5X 6203   4.928   5.531   4.203  2.6818 -2.3769  1.0204
   71SAPC   H5Y 6204   4.996   5.403   4.105  1.1269  0.4282  0.6316
   71SAPC   C36 6205   4.816   5.348   4.206  0.5643 -0.6630  0.5768
   71SAPC   H6X 6206   4.791   5.264   4.138 -2.2056  0.9814 -0.6089
   71SAPC   H6Y 6207   4.716   5.392   4.225  1.2368  2.6281 -2.4722
   71SAPC   C37 6208   4.878   5.297   4.330  0.1278  0.8167  0.1749
   71SAPC   H7X 6209   4.970   5.242   4.299 -0.6655  1.2443 -3.3704
   71SAPC   H7Y 6210   4.808   5.223   4.373  1.9520 -1.5004 -0.6147
   71SAPC   C38 6211   4.903   5.396   4.440 -0.0078 -0.6595 -0.5065
   71SAPC   H8X 6212   4.803   5.437   4.465  0.8227  1.2674 -0.1615
   71SAPC   H8Y 6213   4.959   5.485   4.404 -0.3792 -0.5410 -0.8030
   71SAPC   C39 6214   4.949   5.326   4.566 -0.1752 -0.4296  0.4935
   71SAPC   H9X 6215   5.056   5.296   4.555  0.0259  0.4804 -0.1627
   71SAPC   H9Y 6216   4.888   5.233   4.568 -1.3139  0.2740 -0.5319
   71SAPC  C310 6217   4.918   5.412   4.695 -0.1136  0.1142  0.0401
   71SAPC  H10X 6218   4.813   5.446   4.701 -0.6167 -1.4965  1.0866
   71SAPC  H10Y 6219   4.984   5.501   4.707 -1.0251  0.5617  2.0282
   71SAPC  C311 6220   4.919   5.325   4.822 -0.0591 -0.2001 -0.2644
   71SAPC  H11X 6221   5.019   5.281   4.844  0.7378  0.7060 -1.9033
   71SAPC  H11Y 6222   4.840   5.247   4.829  1.2915 -1.7672 -1.4383
   71SAPC  C312 6223   4.901   5.414   4.947 -0.5515  0.1030  0.1778
   71SAPC  H12X 6224   4.810   5.477   4.934 -0.1012  1.0259  1.3762
   71SAPC  H12Y 6225   4.981   5.491   4.950 -1.6736  1.4008 -1.3446
   71SAPC  C313 6226   4.888   5.344   5.090 -0.8331  0.3645 -0.4954
   71SAPC  H13X 6227   4.973   5.275   5.111 -1.4184  0.2316  1.6969
   71SAPC  H13Y 6228   4.789   5.292   5.088 -0.6245 -0.0594 -0.0103
   71SAPC  C314 6229   4.877   5.446   5.197  0.2932  0.0771 -0.0921
   71SAPC  H14X 6230   4.780   5.500   5.184 -0.1795 -0.5812  0.6195
   71SAPC  H14Y 6231   4.966   5.510   5.179  0.1107 -0.0329 -1.4693
   71SAPC  C315 6232   4.884   5.385   5.341  0.6717 -0.0242  0.4525
   71SAPC  H15X 6233   4.897   5.465   5.417 -0.0396 -0.6811  1.2820
   71SAPC  H15Y 6234   4.969   5.314   5.347  1.5262  0.9863  0.7547
   71SAPC  C316 6235   4.757   5.305   5.384  0.0858 -0.3589 -0.2404
   71SAPC  H16X 6236   4.782   5.241   5.471  1.4394 -1.0568 -1.0909
   71SAPC  H16Y 6237   4.740   5.235   5.299 -0.3369 -1.8181  1.0042
   71SAPC  C317 6238   4.620   5.375   5.402 -0.0513  0.3053 -0.0321
   71SAPC  H17X 6239   4.596   5.420   5.303 -0.5605  0.2674  0.0713
   71SAPC  H17Y 6240   4.641   5.453   5.479  2.2031 -1.4261  1.2481
   71SAPC  C318 6241   4.499   5.293   5.459 -0.3983 -0.0889  0.0786
   71SAPC  H18X 6242   4.402   5.347   5.463 -0.3889 -0.0383 -0.3809
   71SAPC  H18Y 6243   4.519   5.281   5.568 -2.9862  0.8683  0.7417
   71SAPC  H18Z 6244   4.489   5.188   5.423  1.4459 -0.2680 -0.0051
   72SAPC     N 6245   0.764   5.004   3.351  0.6340 -0.5169  0.2684
   72SAPC   C12 6246   0.687   4.890   3.413  0.0672 -0.3565  0.1755
   72SAPC  H12A 6247   0.726   4.878   3.513 -0.9886  1.9611  0.9368
   72SAPC  H12B 6248   0.721   4.806   3.355  0.1124  0.0210 -0.3535
   72SAPC   C13 6249   0.736   5.016   3.200  0.2728 -0.3695  0.7221
   72SAPC  H13A 6250   0.743   4.919   3.152  2.8613  0.8109 -1.5196
   72SAPC  H13B 6251   0.632   5.047   3.194  1.0080  1.9954 -2.0397
   72SAPC  H13C 6252   0.801   5.094   3.164 -1.8781  0.5252 -1.5149
   72SAPC   C14 6253   0.720   5.143   3.399 -0.6558  0.5690 -0.5579
   72SAPC  H14A 6254   0.748   5.159   3.501 -0.7682 -3.0307  0.1728
   72SAPC  H14B 6255   0.755   5.207   3.319 -0.0874 -0.1669 -0.9034
   72SAPC  H14C 6256   0.614   5.160   3.384 -0.8630  1.4076  1.5166
   72SAPC   C15 6257   0.905   4.996   3.386 -0.3781  0.5372  0.3904
   72SAPC  H15A 6258   0.961   5.070   3.331 -1.7422  0.3877 -1.3026
   72SAPC  H15B 6259   0.929   4.999   3.491  1.9179  1.3641 -0.1090
   72SAPC  H15C 6260   0.949   4.905   3.347  3.0828  1.7123  1.2105
   72SAPC   C11 6261   0.531   4.883   3.427  0.1801 -0.0567  0.0533
   72SAPC  H11A 6262   0.515   4.779   3.461  4.1988 -1.0971 -0.6880
   72SAPC  H11B 6263   0.489   4.899   3.325 -0.6048  1.7359  0.6144
   72SAPC     P 6264   0.339   5.043   3.504 -0.1300 -0.1737 -0.3527
   72SAPC   O13 6265   0.331   5.157   3.410 -0.6563  0.0950  0.4427
   72SAPC   O14 6266   0.242   4.939   3.462  0.3855 -0.0940  0.1782
   72SAPC   O12 6267   0.482   4.977   3.520 -0.2914  0.1621  0.1989
   72SAPC   O11 6268   0.309   5.090   3.653 -0.0441 -0.1879  0.7174
   72SAPC    C1 6269   0.413   5.162   3.725  0.6051  0.1947 -0.5990
   72SAPC    HA 6270   0.499   5.095   3.749  0.2079  0.3836  1.5823
   72SAPC    HB 6271   0.470   5.241   3.671  1.1100  0.6258  0.5340
   72SAPC    C2 6272   0.363   5.210   3.858  0.1360  0.0069  0.4147
   72SAPC    HS 6273   0.441   5.256   3.921 -0.5598 -1.2724  2.2883
   72SAPC   O21 6274   0.303   5.095   3.920 -0.6809  0.0538  0.2306
   72SAPC   C21 6275   0.388   5.008   3.974 -0.1643 -0.1707 -0.1142
   72SAPC   O22 6276   0.508   5.008   3.964 -0.5082 -0.8388  0.1736
   72SAPC   C22 6277   0.312   4.904   4.052 -0.0431 -0.1986 -0.0535
   72SAPC   H2R 6278   0.376   4.820   4.088 -1.9511 -1.5902  0.2513
   72SAPC   H2S 6279   0.268   4.950   4.143  2.2753  1.1676  0.4630
   72SAPC    C3 6280   0.252   5.312   3.844  0.7709 -0.6693  0.3936
   72SAPC    HX 6281   0.176   5.283   3.767  0.7538  3.0503 -1.1904
   72SAPC    HY 6282   0.293   5.402   3.794  0.5780 -1.9023 -2.1726
   72SAPC   O31 6283   0.198   5.343   3.975 -0.3651  0.2982 -0.3906
   72SAPC   C31 6284   0.101   5.264   4.026  0.0381 -0.2811 -0.2824
   72SAPC   O32 6285   0.038   5.179   3.965 -0.1192  0.0876  0.1069
   72SAPC   C32 6286   0.087   5.295   4.177  0.2328 -0.1125  0.2264
   72SAPC   H2X 6287  -0.009   5.350   4.185 -0.5808 -1.5505  0.8393
   72SAPC   H2Y 6288   0.170   5.367   4.195  0.4349  0.5656 -2.8516
   72SAPC   C23 6289   0.202   4.837   3.962 -0.0371  0.2004  0.3136
   72SAPC   H3R 6290   0.243   4.753   3.902  2.4866  1.6374 -0.1084
   72SAPC   H3S 6291   0.155   4.908   3.890 -2.1689 -0.5688  0.8655
   72SAPC   C24 6292   0.096   4.782   4.061 -0.4507 -0.0836 -0.0807
   72SAPC   H4R 6293   0.014   4.737   4.001 -1.9919  0.4759  1.5251
   72SAPC   H4S 6294   0.046   4.867   4.113 -4.7757 -2.7745  0.6803
   72SAPC   C25 6295   0.138   4.662   4.145  0.2398 -0.5852 -0.1014
   72SAPC   H5R 6296   0.218   4.606   4.094  1.0728  0.2614  0.2357
   72SAPC   C26 6297   0.123   4.651   4.275  0.2333  1.0937 -0.1334
   72SAPC   H6R 6298   0.153   4.556   4.322 -0.3822 -0.1391 -2.1380
   72SAPC   C27 6299   0.054   4.754   4.358  0.4219  0.5415 -0.1607
   72SAPC   H7R 6300  -0.029   4.706   4.413 -0.7696  1.5264 -1.0524
   72SAPC   H7S 6301   0.001   4.836   4.304 -0.8930  0.3555  0.8048
   72SAPC   C28 6302   0.142   4.824   4.457  0.3914 -0.1512  0.2410
   72SAPC   H8R 6303   0.240   4.863   4.426  1.1468  0.0110  2.6791
   72SAPC   C29 6304   0.108   4.848   4.586  0.0627 -0.3874 -0.2807
   72SAPC   H9R 6305   0.179   4.909   4.644  0.0015  0.8853 -1.4978
   72SAPC  C210 6306  -0.019   4.820   4.653  0.1552  0.0714 -0.3669
   72SAPC  H10R 6307  -0.021   4.716   4.692 -1.3311  0.1640 -0.1267
   72SAPC  H10S 6308  -0.101   4.824   4.578  0.2865 -1.1879 -0.5933
   72SAPC  C211 6309  -0.051   4.922   4.763  0.4005 -0.0705 -0.2518
   72SAPC  H11R 6310   0.013   5.012   4.764  1.8348 -1.0517  0.3113
   72SAPC  C212 6311  -0.146   4.900   4.852 -0.2317 -0.0370 -0.4696
   72SAPC  H12R 6312  -0.168   4.979   4.925  4.9031 -0.3544  1.8968
   72SAPC  C213 6313  -0.223   4.764   4.866 -0.4598  0.1426 -0.9024
   72SAPC  H13R 6314  -0.234   4.707   4.772 -0.2856  0.7298 -1.2842
   72SAPC  H13S 6315  -0.329   4.789   4.885 -1.1860 -0.2053 -4.0287
   72SAPC  C214 6316  -0.166   4.682   4.979 -0.7251  0.8401 -0.0389
   72SAPC  H14R 6317  -0.100   4.601   4.945 -3.4039 -1.2929 -0.5803
   72SAPC  C215 6318  -0.180   4.699   5.114 -0.4559 -0.3491  0.5831
   72SAPC  H15R 6319  -0.136   4.617   5.174  1.4396  1.3006  1.5576
   72SAPC  C216 6320  -0.264   4.795   5.189  0.4749  0.1157 -0.3943
   72SAPC  H16R 6321  -0.371   4.785   5.159 -0.0571  0.8855  1.1231
   72SAPC  H16S 6322  -0.233   4.894   5.150  0.9674  0.2059  0.2040
   72SAPC  C217 6323  -0.267   4.791   5.345 -0.5339  0.1255  0.3754
   72SAPC  H17R 6324  -0.174   4.837   5.386 -0.3446 -0.9309  1.1836
   72SAPC  H17S 6325  -0.262   4.686   5.378  3.7566  0.3894  1.1491
   72SAPC  C218 6326  -0.390   4.854   5.409 -0.2941 -0.0053 -0.5847
   72SAPC  H18R 6327  -0.481   4.800   5.377 -0.0323 -1.0179  0.3281
   72SAPC  H18S 6328  -0.394   4.962   5.383 -2.8791  0.0753 -0.1505
   72SAPC  C219 6329  -0.397   4.839   5.561  0.3742  0.2537 -0.7381
   72SAPC  H19R 6330  -0.476   4.900   5.610  1.0674 -0.3445  1.1866
   72SAPC  H19S 6331  -0.306   4.881   5.608  0.0484  0.0538  0.0993
   72SAPC  C220 6332  -0.417   4.688   5.597  0.0589  0.0513 -0.2354
   72SAPC  H20R 6333  -0.438   4.685   5.706  0.6655  1.6259 -0.0385
   72SAPC  H20S 6334  -0.320   4.637   5.582 -0.4437 -0.7069 -1.0020
   72SAPC  H20T 6335  -0.498   4.633   5.545 -0.0817 -0.9177  0.9653
   72SAPC   C33 6336   0.090   5.160   4.261 -0.3239 -0.3431  0.7913
   72SAPC   H3X 6337   0.194   5.121   4.255 -0.1168  0.3578 -1.6560
   72SAPC   H3Y 6338   0.005   5.096   4.228 -1.0923  1.4524 -0.9273
   72SAPC   C34 6339   0.067   5.188   4.409  0.3349  0.4114 -0.0257
   72SAPC   H4X 6340   0.075   5.090   4.461 -0.1559  1.1763  1.5518
   72SAPC   H4Y 6341  -0.027   5.241   4.433  3.0701  4.5972  2.7545
   72SAPC   C35 6342   0.174   5.266   4.485 -0.4445 -0.3241  0.0264
   72SAPC   H5X 6343   0.193   5.369   4.449  1.2861 -0.5196  0.2711
   72SAPC   H5Y 6344   0.274   5.219   4.474 -0.1874  0.2070  0.0411
   72SAPC   C36 6345   0.133   5.278   4.633  0.4980 -0.6588  0.8470
   72SAPC   H6X 6346   0.114   5.175   4.669 -3.1645 -0.3219  0.2678
   72SAPC   H6Y 6347   0.042   5.338   4.649  0.0816 -0.9301 -0.3849
   72SAPC   C37 6348   0.246   5.345   4.725  0.1100 -0.2436  0.2205
   72SAPC   H7X 6349   0.261   5.440   4.668 -1.4085 -0.6106 -0.8606
   72SAPC   H7Y 6350   0.338   5.284   4.726  1.3769  1.5658  1.5757
   72SAPC   C38 6351   0.209   5.357   4.874 -0.2979 -0.3024  0.2018
   72SAPC   H8X 6352   0.270   5.444   4.907 -1.6133  1.5410 -1.9468
   72SAPC   H8Y 6353   0.249   5.270   4.931 -1.4132  0.0656  1.6208
   72SAPC   C39 6354   0.061   5.357   4.914 -1.0261  0.2162 -0.3392
   72SAPC   H9X 6355   0.010   5.270   4.867 -0.8843 -0.2409  0.3493
   72SAPC   H9Y 6356   0.028   5.452   4.865 -0.8307  0.1473 -0.6114
   72SAPC  C310 6357   0.026   5.375   5.065  0.6177  0.2404  0.2526
   72SAPC  H10X 6358  -0.075   5.419   5.065  0.7523  0.5484  0.0591
   72SAPC  H10Y 6359   0.087   5.457   5.109  0.3843 -0.0762  1.1865
   72SAPC  C311 6360   0.018   5.253   5.145  0.2778 -0.4789 -0.3894
   72SAPC  H11X 6361   0.087   5.172   5.114  0.1985 -0.6450 -0.1315
   72SAPC  H11Y 6362  -0.083   5.209   5.127  1.7494 -4.3160 -0.1432
   72SAPC  C312 6363   0.028   5.276   5.298 -0.4161 -0.3713  0.4743
   72SAPC  H12X 6364  -0.033   5.364   5.328 -0.5081  0.0697 -0.9222
   72SAPC  H12Y 6365   0.136   5.295   5.318 -0.0104 -1.4141 -0.6015
   72SAPC  C313 6366  -0.010   5.154   5.380  0.0798 -0.4027 -0.4223
   72SAPC  H13X 6367   0.056   5.072   5.345 -2.1483 -2.2385 -0.5232
   72SAPC  H13Y 6368  -0.112   5.126   5.347 -0.2455  0.5203 -0.2417
   72SAPC  C314 6369  -0.005   5.174   5.528 -0.0952 -0.1011 -0.0919
   72SAPC  H14X 6370  -0.066   5.267   5.528  2.0932  1.4710 -3.1849
   72SAPC  H14Y 6371   0.094   5.193   5.573 -0.2086 -1.2265  0.6754
   72SAPC  C315 6372  -0.074   5.066   5.617 -0.2105 -0.5160  0.7996
   72SAPC  H15X 6373  -0.019   4.969   5.617  0.3855 -0.1862  0.4942
   72SAPC  H15Y 6374  -0.171   5.046   5.566  0.2771 -2.3443  0.4973
   72SAPC  C316 6375  -0.103   5.114   5.762  0.1179  0.3541 -0.0496
   72SAPC  H16X 6376  -0.024   5.177   5.806  0.8115  0.8259 -1.8747
   72SAPC  H16Y 6377  -0.099   5.026   5.829  0.5945 -0.5450 -1.2195
   72SAPC  C317 6378  -0.236   5.187   5.778  0.5620 -0.0921  0.6841
   72SAPC  H17X 6379  -0.263   5.189   5.886 -1.5076 -1.4344  0.2405
   72SAPC  H17Y 6380  -0.308   5.127   5.718  1.3721 -0.5167  0.1141
   72SAPC  C318 6381  -0.236   5.337   5.729  0.2229  0.7581  0.1241
   72SAPC  H18X 6382  -0.145   5.387   5.766 -1.0923  0.7716  3.7572
   72SAPC  H18Y 6383  -0.323   5.395   5.768  1.8052  2.2091  1.6731
   72SAPC  H18Z 6384  -0.239   5.328   5.618  0.7541 -0.5665  0.1948
   73SLPC     N 6385   3.577   4.856   8.183 -0.4803 -0.3113 -0.2415
   73SLPC   C13 6386   3.695   4.770   8.145  0.0064 -0.3340 -0.1255
   73SLPC  H13A 6387   3.666   4.668   8.123  1.0176 -0.4537 -0.9817
   73SLPC  H13B 6388   3.731   4.807   8.051  0.2942  0.8755  0.4398
   73SLPC  H13C 6389   3.774   4.768   8.219 -0.0451  1.3703 -0.0026
   73SLPC   C14 6390   3.624   4.991   8.234  0.3916  0.4255 -0.4314
   73SLPC  H14A 6391   3.654   5.046   8.146 -1.0916  0.9173 -0.6577
   73SLPC  H14B 6392   3.542   5.040   8.285 -2.6067 -2.2130 -2.3570
   73SLPC  H14C 6393   3.707   4.979   8.302 -0.7938 -2.1443  0.6984
   73SLPC   C15 6394   3.513   4.786   8.298  0.2655 -0.5536  0.0103
   73SLPC  H15A 6395   3.409   4.813   8.309  0.1213 -1.4488  1.1242
   73SLPC  H15B 6396   3.508   4.681   8.273  0.3901 -0.3493 -0.8720
   73SLPC  H15C 6397   3.566   4.797   8.392  2.1446 -0.4698 -1.0169
   73SLPC   C12 6398   3.483   4.871   8.066  0.1122 -0.4379 -0.0549
   73SLPC  H12A 6399   3.406   4.938   8.099 -0.6039 -0.7147 -1.1006
   73SLPC  H12B 6400   3.436   4.777   8.042 -1.1504  0.4686 -1.2446
   73SLPC   C11 6401   3.536   4.932   7.932 -0.6464  0.9522 -0.0127
   73SLPC  H11A 6402   3.462   4.919   7.850  1.6122 -1.7132 -1.8026
   73SLPC  H11B 6403   3.619   4.861   7.909 -2.6112 -1.9502  1.3889
   73SLPC     P 6404   3.484   5.185   7.943 -0.2280  0.4317 -0.2880
   73SLPC   O13 6405   3.348   5.135   7.969  0.2794  0.0761 -0.3006
   73SLPC   O14 6406   3.531   5.293   8.041 -0.5514  0.0014  0.5737
   73SLPC   O12 6407   3.589   5.062   7.948 -0.6760  0.1293  0.0035
   73SLPC   O11 6408   3.496   5.243   7.794 -0.0707  0.6795 -0.1287
   73SLPC    C1 6409   3.615   5.265   7.722  0.2469  0.4527  0.9972
   73SLPC    HA 6410   3.647   5.370   7.734 -0.8601  0.6447  2.6325
   73SLPC    HB 6411   3.696   5.201   7.762 -0.2458  0.0489  1.3694
   73SLPC    C2 6412   3.591   5.235   7.570  0.1228 -0.1151  0.5585
   73SLPC    HS 6413   3.526   5.313   7.525 -1.0170 -0.9607  0.7135
   73SLPC   O21 6414   3.528   5.105   7.568 -0.5293 -0.0712  0.3940
   73SLPC   C21 6415   3.462   5.083   7.451  0.7731  0.7312  0.1889
   73SLPC   O22 6416   3.443   5.157   7.360 -0.1373 -0.8091 -0.2011
   73SLPC   C22 6417   3.412   4.935   7.453  0.1850  0.2486  0.0888
   73SLPC   H2R 6418   3.502   4.871   7.443  0.4199  0.6537 -0.4283
   73SLPC   H2S 6419   3.375   4.905   7.553  2.9593 -0.8439  0.8623
   73SLPC    C3 6420   3.723   5.244   7.491  0.1654  0.0246  0.0322
   73SLPC    HX 6421   3.788   5.166   7.534 -0.7861 -1.5805 -1.3003
   73SLPC    HY 6422   3.755   5.345   7.525 -2.8196  1.1215 -0.0386
   73SLPC   O31 6423   3.712   5.222   7.351 -0.4199  0.0624 -0.2246
   73SLPC   C31 6424   3.687   5.319   7.273  0.4999 -0.1412 -0.2265
   73SLPC   O32 6425   3.654   5.432   7.307  0.4142 -0.1173  0.6993
   73SLPC   C32 6426   3.699   5.271   7.122  0.1667  0.0910  0.8166
   73SLPC   H2X 6427   3.613   5.205   7.099 -0.1716  0.4529  1.0466
   73SLPC   H2Y 6428   3.791   5.211   7.103 -1.2082 -2.0677  0.7109
   73SLPC   C23 6429   3.307   4.908   7.339  0.5776  0.5457  0.1702
   73SLPC   H3R 6430   3.307   4.799   7.319  0.1053  0.7437 -0.9624
   73SLPC   H3S 6431   3.325   4.951   7.239 -0.4746 -0.4864 -0.4876
   73SLPC   C24 6432   3.171   4.953   7.381  1.0622  0.6940 -0.4411
   73SLPC   H4R 6433   3.160   5.063   7.381  2.2189  0.8347 -1.2711
   73SLPC   H4S 6434   3.149   4.924   7.486  0.9529  0.6850 -0.4666
   73SLPC   C25 6435   3.058   4.898   7.295 -0.4957  0.3848 -0.3866
   73SLPC   H5R 6436   2.963   4.934   7.341 -0.8269 -0.0269 -0.7408
   73SLPC   H5S 6437   3.060   4.787   7.302  0.0765  0.1828 -2.8588
   73SLPC   C26 6438   3.078   4.926   7.141  0.3564 -0.4245  1.0858
   73SLPC   H6R 6439   3.175   4.878   7.117  0.5372  0.7843 -0.8617
   73SLPC   H6S 6440   3.068   5.031   7.106  0.9333 -1.1570 -1.5649
   73SLPC   C27 6441   2.968   4.853   7.059 -0.4109 -0.3878  0.2915
   73SLPC   H7R 6442   2.873   4.902   7.087  0.3374  0.5403  1.3104
   73SLPC   H7S 6443   2.976   4.750   7.097  1.6225 -0.7462 -0.9242
   73SLPC   C28 6444   2.987   4.853   6.909  0.1506 -0.1341  0.8447
   73SLPC   H8R 6445   2.994   4.959   6.879  2.3325 -0.4758 -0.0586
   73SLPC   H8S 6446   2.890   4.815   6.870 -0.7586  1.6803  1.2303
   73SLPC   C29 6447   3.096   4.758   6.857  0.6116 -0.2976  0.5508
   73SLPC   H9R 6448   3.170   4.737   6.936  3.0232 -1.8225 -1.9123
   73SLPC  C210 6449   3.104   4.702   6.741 -0.5931 -0.6608  1.0220
   73SLPC  H10R 6450   3.175   4.621   6.722  0.0288  0.1369 -0.1928
   73SLPC  C211 6451   3.021   4.746   6.624  0.1622  0.9207 -0.7033
   73SLPC  H11R 6452   2.952   4.828   6.653  0.4240  0.9852 -0.2572
   73SLPC  H11S 6453   2.959   4.668   6.575  0.0367 -1.2238  2.5404
   73SLPC  C212 6454   3.124   4.808   6.538  0.3418 -0.4892 -0.6871
   73SLPC  H12R 6455   3.200   4.866   6.591 -0.4730 -2.1368  2.5650
   73SLPC  C213 6456   3.140   4.795   6.404  0.5595 -0.3831 -0.7768
   73SLPC  H13R 6457   3.212   4.864   6.358  0.5438  0.8648  0.9499
   73SLPC  C214 6458   3.040   4.736   6.315  0.3674  0.0481 -0.3777
   73SLPC  H14R 6459   3.012   4.810   6.237 -0.2620 -0.4466 -0.6265
   73SLPC  H14S 6460   2.949   4.715   6.375  2.1169  1.0956  2.9301
   73SLPC  C215 6461   3.099   4.610   6.260  0.3986 -0.1273  0.0576
   73SLPC  H15R 6462   3.101   4.527   6.334  0.2257 -1.0119 -0.9044
   73SLPC  H15S 6463   3.197   4.630   6.213  0.9489 -1.7329  0.4463
   73SLPC  C216 6464   3.007   4.559   6.145  0.1593 -0.5152 -0.1606
   73SLPC  H16R 6465   3.006   4.642   6.072  0.6996 -0.3429  0.0261
   73SLPC  H16S 6466   2.906   4.544   6.190  0.9978 -2.6792  1.1635
   73SLPC  C217 6467   3.053   4.434   6.062 -0.6368 -0.4537  0.0301
   73SLPC  H17R 6468   3.090   4.358   6.134 -3.6111 -0.4813  1.6767
   73SLPC  H17S 6469   3.140   4.459   5.997  0.1274  0.4167  1.3587
   73SLPC  C218 6470   2.943   4.366   5.971 -0.9113 -0.2573 -0.7481
   73SLPC  H18R 6471   2.865   4.333   6.043  0.0262  0.3554  0.5809
   73SLPC  H18S 6472   2.983   4.280   5.914 -0.6154  0.0949 -1.0823
   73SLPC  H18T 6473   2.894   4.447   5.912 -0.9782  0.9157  0.8670
   73SLPC   C33 6474   3.701   5.388   7.021  0.4334  0.0687  0.2873
   73SLPC   H3X 6475   3.781   5.462   7.044 -2.5207  3.2330  1.2680
   73SLPC   H3Y 6476   3.609   5.450   7.016  0.3403 -0.1197 -0.4322
   73SLPC   C34 6477   3.718   5.335   6.878 -1.1319  0.8255  0.5244
   73SLPC   H4X 6478   3.654   5.245   6.862  0.3776 -0.3309  0.7458
   73SLPC   H4Y 6479   3.824   5.316   6.850 -1.7913 -1.6761 -0.5972
   73SLPC   C35 6480   3.685   5.431   6.763 -0.1141 -1.1371 -0.3853
   73SLPC   H5X 6481   3.760   5.513   6.759 -0.9260 -0.2558  1.1159
   73SLPC   H5Y 6482   3.587   5.476   6.790  0.8859  0.9095  0.0649
   73SLPC   C36 6483   3.676   5.354   6.633  0.1689  0.1401  0.0361
   73SLPC   H6X 6484   3.579   5.301   6.625 -0.1863  0.8804 -0.7917
   73SLPC   H6Y 6485   3.770   5.296   6.635  1.3440  1.9839  0.5035
   73SLPC   C37 6486   3.691   5.452   6.513  0.6662  0.1116  0.9343
   73SLPC   H7X 6487   3.772   5.522   6.543  0.1779  1.7649 -1.2791
   73SLPC   H7Y 6488   3.593   5.501   6.489  0.8917  0.4343  0.6524
   73SLPC   C38 6489   3.740   5.380   6.383 -0.0689  0.5154 -0.2849
   73SLPC   H8X 6490   3.680   5.289   6.358 -1.1950  0.5977  1.9101
   73SLPC   H8Y 6491   3.842   5.338   6.398 -0.3374  0.7103  2.8053
   73SLPC   C39 6492   3.722   5.466   6.253 -0.4785  0.0535 -1.1725
   73SLPC   H9X 6493   3.790   5.554   6.254  0.1558 -0.4117  0.6734
   73SLPC   H9Y 6494   3.620   5.509   6.251 -0.3297  0.4005 -2.2639
   73SLPC  C310 6495   3.740   5.391   6.120 -0.6374  0.4058  0.5221
   73SLPC  H10X 6496   3.663   5.312   6.108  1.5957 -1.9334  0.5954
   73SLPC  H10Y 6497   3.830   5.327   6.133  1.6900  3.7676  2.5182
   73SLPC  C311 6498   3.766   5.486   5.999 -0.3316  0.4067 -0.1576
   73SLPC  H11X 6499   3.867   5.532   6.006 -0.5795  0.9169  0.1398
   73SLPC  H11Y 6500   3.697   5.573   6.011 -0.7814 -0.2103  2.3249
   73SLPC  C312 6501   3.765   5.423   5.859 -0.4575  0.1590  1.0389
   73SLPC  H12X 6502   3.753   5.498   5.778  3.0409 -0.9966 -0.7528
   73SLPC  H12Y 6503   3.686   5.346   5.854  1.6022 -2.0615  1.1280
   73SLPC  C313 6504   3.892   5.343   5.839  0.1502 -0.1306 -0.3992
   73SLPC  H13X 6505   3.905   5.276   5.927  2.0807  2.9657  1.8800
   73SLPC  H13Y 6506   3.985   5.403   5.852 -0.6790  1.1625 -0.3314
   73SLPC  C314 6507   3.911   5.267   5.704  0.0009 -0.6566  0.3235
   73SLPC  H14X 6508   3.911   5.334   5.616  2.0004  0.3420  1.0250
   73SLPC  H14Y 6509   3.827   5.194   5.701 -0.6912  0.0593  1.4481
   73SLPC  C315 6510   4.057   5.206   5.702 -0.4280  1.0304 -0.2785
   73SLPC  H15X 6511   4.061   5.137   5.789  1.7289 -1.2210 -2.0533
   73SLPC  H15Y 6512   4.132   5.287   5.715 -0.7065  1.5715 -1.8436
   73SLPC  C316 6513   4.074   5.088   5.599 -0.1213 -0.1554  0.5663
   73SLPC  H16X 6514   3.983   5.025   5.599  0.9287 -1.7228  1.1190
   73SLPC  H16Y 6515   4.152   5.021   5.641  2.3416  0.7957 -2.1512
   73SLPC  C317 6516   4.112   5.125   5.458  0.4464 -0.9053 -0.6606
   73SLPC  H17X 6517   4.213   5.171   5.458 -0.6438  1.8970  1.6161
   73SLPC  H17Y 6518   4.049   5.212   5.431 -0.7673 -2.1511 -1.9793
   73SLPC  C318 6519   4.092   5.028   5.340 -0.4379 -0.0051  0.2544
   73SLPC  H18X 6520   3.990   4.984   5.331 -0.3446 -0.3086  0.6407
   73SLPC  H18Y 6521   4.143   4.930   5.350 -0.6577 -0.2388 -0.7640
   73SLPC  H18Z 6522   4.119   5.079   5.245  0.4783 -1.6748 -0.4307
   74SLPC     N 6523   3.063   6.456   7.915 -0.4016 -0.6938 -0.7676
   74SLPC   C13 6524   3.189   6.528   7.915  0.1117 -0.2313  0.2064
   74SLPC  H13A 6525   3.224   6.566   8.010  2.2818  0.5098 -0.8253
   74SLPC  H13B 6526   3.261   6.466   7.864  0.2047 -0.6612  0.8458
   74SLPC  H13C 6527   3.179   6.615   7.851  0.8552 -0.1706  0.1595
   74SLPC   C14 6528   2.948   6.558   7.929  0.4826  0.1512  0.1098
   74SLPC  H14A 6529   2.931   6.606   7.834 -2.2490  2.4938  1.5916
   74SLPC  H14B 6530   2.859   6.504   7.957  2.5947 -2.9540  1.4462
   74SLPC  H14C 6531   2.984   6.637   7.994  0.3801  0.2997 -0.0157
   74SLPC   C15 6532   3.056   6.367   8.041 -0.2501  0.3198  0.5940
   74SLPC  H15A 6533   3.150   6.317   8.058  0.0151 -0.3017 -2.2706
   74SLPC  H15B 6534   3.037   6.429   8.127 -4.3754  3.6236 -2.2812
   74SLPC  H15C 6535   2.973   6.299   8.030 -2.2112  2.8812 -2.0551
   74SLPC   C12 6536   3.050   6.378   7.788 -0.6458 -0.0337 -0.2823
   74SLPC  H12A 6537   2.950   6.336   7.788 -0.1608 -1.2905  1.2885
   74SLPC  H12B 6538   3.112   6.290   7.801 -3.2031 -2.4717 -2.9520
   74SLPC   C11 6539   3.081   6.446   7.651 -0.5890 -0.4456  0.1648
   74SLPC  H11A 6540   3.045   6.374   7.575  1.2370 -2.6608  1.2993
   74SLPC  H11B 6541   3.189   6.458   7.632 -0.5217  0.0766  0.8327
   74SLPC     P 6542   2.893   6.610   7.572 -0.4341  0.4935 -0.0551
   74SLPC   O13 6543   2.791   6.527   7.639  0.3843  0.0281 -0.0299
   74SLPC   O14 6544   2.869   6.752   7.574 -0.0837 -0.2206 -0.0741
   74SLPC   O12 6545   3.027   6.580   7.639 -0.3851 -0.5751 -0.1399
   74SLPC   O11 6546   2.901   6.562   7.424 -0.1274 -0.1549 -0.1184
   74SLPC    C1 6547   3.020   6.578   7.339  0.3384  0.3761 -0.2112
   74SLPC    HA 6548   3.021   6.678   7.290 -0.5614  0.1872 -0.6197
   74SLPC    HB 6549   3.111   6.580   7.403  0.3413  0.1002 -0.2060
   74SLPC    C2 6550   3.024   6.468   7.231 -0.4072 -0.2444  0.2459
   74SLPC    HS 6551   3.113   6.495   7.170  0.0480 -1.4874  0.3403
   74SLPC   O21 6552   2.907   6.453   7.155 -0.5226 -0.1579  0.6568
   74SLPC   C21 6553   2.895   6.524   7.048  0.1632 -0.2644  0.0598
   74SLPC   O22 6554   2.972   6.607   7.000 -0.2569 -0.2788 -0.1715
   74SLPC   C22 6555   2.773   6.459   6.977 -0.1102 -0.4301  0.0360
   74SLPC   H2R 6556   2.801   6.353   6.989  1.2716 -0.1738 -0.7463
   74SLPC   H2S 6557   2.675   6.478   7.028 -0.3454 -1.3170 -0.0785
   74SLPC    C3 6558   3.057   6.337   7.293  0.4759 -0.4543  0.7067
   74SLPC    HX 6559   2.982   6.295   7.364 -1.0693  2.5167  0.9867
   74SLPC    HY 6560   3.148   6.352   7.356  2.5236 -0.3489 -2.1047
   74SLPC   O31 6561   3.105   6.247   7.191 -0.1757  0.3794 -0.2812
   74SLPC   C31 6562   3.012   6.155   7.142  0.2723 -0.2382  0.5798
   74SLPC   O32 6563   2.903   6.138   7.192  0.0393 -0.1792 -0.4231
   74SLPC   C32 6564   3.076   6.076   7.032 -0.0405  0.0017 -0.9929
   74SLPC   H2X 6565   3.018   5.981   7.029 -2.0960  1.0775  1.5515
   74SLPC   H2Y 6566   3.183   6.059   7.056 -0.3732  0.0226  0.6314
   74SLPC   C23 6567   2.764   6.479   6.829 -0.0475 -0.3340  0.5014
   74SLPC   H3R 6568   2.850   6.428   6.781  0.5685  1.8587 -0.8802
   74SLPC   H3S 6569   2.774   6.587   6.804  0.1026 -0.5895 -0.6181
   74SLPC   C24 6570   2.643   6.421   6.760 -0.4440  0.4250  0.0980
   74SLPC   H4R 6571   2.552   6.463   6.808 -0.9822  0.9740 -1.3242
   74SLPC   H4S 6572   2.642   6.313   6.784  0.9844  0.1521 -0.9698
   74SLPC   C25 6573   2.627   6.444   6.611 -0.4338  0.3229 -0.0408
   74SLPC   H5R 6574   2.632   6.555   6.604 -2.7147  0.5859  1.3893
   74SLPC   H5S 6575   2.522   6.425   6.581 -0.6749  0.8382  0.4547
   74SLPC   C26 6576   2.732   6.373   6.527  0.2876  0.3095 -0.0555
   74SLPC   H6R 6577   2.710   6.264   6.534  0.2970  0.3850  1.3276
   74SLPC   H6S 6578   2.829   6.386   6.579  0.5200 -0.0036 -0.4011
   74SLPC   C27 6579   2.756   6.424   6.386  0.3086 -0.3651 -0.0010
   74SLPC   H7R 6580   2.843   6.381   6.332 -0.0611 -0.5286 -0.4749
   74SLPC   H7S 6581   2.760   6.534   6.394 -2.3325 -0.2757  1.1814
   74SLPC   C28 6582   2.638   6.404   6.290 -0.5510  1.1094 -0.4906
   74SLPC   H8R 6583   2.652   6.473   6.204  1.5735  0.2025 -0.9443
   74SLPC   H8S 6584   2.550   6.438   6.350 -0.3178  1.7703 -0.5172
   74SLPC   C29 6585   2.635   6.261   6.250  0.2672 -0.4004  0.4250
   74SLPC   H9R 6586   2.623   6.195   6.338  0.0798 -0.1679  0.5751
   74SLPC  C210 6587   2.641   6.205   6.123  0.4692  0.8316  0.1714
   74SLPC  H10R 6588   2.633   6.097   6.103  1.0715  0.8524 -0.2127
   74SLPC  C211 6589   2.655   6.287   6.001  0.0241 -0.4650 -0.6341
   74SLPC  H11R 6590   2.755   6.262   5.961  1.5474 -0.2033  2.6660
   74SLPC  H11S 6591   2.650   6.394   6.030 -1.7779 -0.9150  0.9776
   74SLPC  C212 6592   2.547   6.246   5.902 -0.4621 -0.0725 -1.2497
   74SLPC  H12R 6593   2.457   6.309   5.908 -0.7755 -0.6304  0.6194
   74SLPC  C213 6594   2.543   6.146   5.813 -0.4074  0.6669 -0.9819
   74SLPC  H13R 6595   2.442   6.132   5.772 -1.2846 -0.4988  1.4043
   74SLPC  C214 6596   2.648   6.033   5.793 -0.3273 -0.5163 -0.2809
   74SLPC  H14R 6597   2.604   5.931   5.799 -0.9522 -0.1684  3.2409
   74SLPC  H14S 6598   2.729   6.045   5.869  2.0718 -0.8331 -2.6552
   74SLPC  C215 6599   2.718   6.065   5.660  0.9686  0.0127 -1.1320
   74SLPC  H15R 6600   2.758   6.167   5.644  1.6153 -0.3930 -2.1540
   74SLPC  H15S 6601   2.640   6.047   5.583  0.4085 -0.6013 -0.4366
   74SLPC  C216 6602   2.839   5.964   5.662 -0.0666 -0.7597  0.6066
   74SLPC  H16R 6603   2.811   5.857   5.648 -0.2514 -0.5107 -1.3334
   74SLPC  H16S 6604   2.886   5.974   5.762  0.7421  1.5443  0.0556
   74SLPC  C217 6605   2.946   5.981   5.545  0.8106 -0.5060  0.8197
   74SLPC  H17R 6606   2.982   6.085   5.532  1.3880 -0.6576  1.1278
   74SLPC  H17S 6607   2.880   5.955   5.460 -2.5814  1.6584  2.5776
   74SLPC  C218 6608   3.060   5.879   5.549  0.0938  0.2938  0.3872
   74SLPC  H18R 6609   3.153   5.926   5.588  0.7060 -0.7828  0.2831
   74SLPC  H18S 6610   3.074   5.831   5.450 -2.1386 -2.1876  1.1635
   74SLPC  H18T 6611   3.035   5.801   5.624 -0.7641 -0.4312 -0.6235
   74SLPC   C33 6612   3.061   6.132   6.892 -0.1056  0.6471  1.1157
   74SLPC   H3X 6613   3.116   6.226   6.871  0.1099 -0.0130 -1.6770
   74SLPC   H3Y 6614   2.954   6.144   6.864 -0.3091 -0.4398  1.3641
   74SLPC   C34 6615   3.118   6.026   6.793 -0.7754 -1.1155 -0.6537
   74SLPC   H4X 6616   3.064   5.929   6.804  0.9793 -2.0259  0.4859
   74SLPC   H4Y 6617   3.222   6.000   6.821 -0.1349  1.6007 -0.2582
   74SLPC   C35 6618   3.108   6.075   6.649  0.3758  0.2833  0.6000
   74SLPC   H5X 6619   3.189   6.028   6.589 -0.8786 -0.6686 -0.4149
   74SLPC   H5Y 6620   3.129   6.184   6.653 -3.4685  1.1410  3.0434
   74SLPC   C36 6621   2.975   6.043   6.579 -0.0224  0.0612 -0.0411
   74SLPC   H6X 6622   2.890   6.071   6.645  0.2441 -0.1835  0.4194
   74SLPC   H6Y 6623   2.981   5.932   6.575  3.5647  0.1661 -1.6123
   74SLPC   C37 6624   2.970   6.102   6.438 -0.4480 -0.2030  0.3378
   74SLPC   H7X 6625   3.015   6.203   6.436  1.2869 -0.8795  1.7750
   74SLPC   H7Y 6626   2.863   6.102   6.411 -0.3597  1.7117 -0.1361
   74SLPC   C38 6627   3.041   6.013   6.332 -0.2686  0.4721  0.8314
   74SLPC   H8X 6628   3.020   5.905   6.351  3.0263 -0.7317 -1.4148
   74SLPC   H8Y 6629   3.152   6.017   6.337 -0.1853  1.9094 -1.1117
   74SLPC   C39 6630   3.009   6.060   6.187  0.0484 -0.5232 -0.4143
   74SLPC   H9X 6631   2.901   6.085   6.177  0.3409  1.3768  0.6022
   74SLPC   H9Y 6632   3.019   5.974   6.119  3.1594 -1.2652  0.8054
   74SLPC  C310 6633   3.102   6.173   6.126  0.0728 -0.1470  0.2574
   74SLPC  H10X 6634   3.207   6.139   6.127 -0.4030 -1.8914 -1.9277
   74SLPC  H10Y 6635   3.095   6.266   6.187  0.0388  1.1042 -1.5742
   74SLPC  C311 6636   3.071   6.203   5.983  0.0927  0.7707 -0.1297
   74SLPC  H11X 6637   2.966   6.237   5.972  0.2067  1.1161 -0.1367
   74SLPC  H11Y 6638   3.088   6.108   5.929 -0.1857 -0.0346  1.1394
   74SLPC  C312 6639   3.160   6.325   5.942 -0.1565 -0.0192 -0.0265
   74SLPC  H12X 6640   3.263   6.310   5.981 -0.4711  0.0568  0.8496
   74SLPC  H12Y 6641   3.110   6.410   5.991 -2.3436  0.3202 -2.5895
   74SLPC  C313 6642   3.154   6.365   5.793 -0.2980 -0.3639 -0.0353
   74SLPC  H13X 6643   3.216   6.456   5.772 -1.6515  0.9369  1.3386
   74SLPC  H13Y 6644   3.047   6.391   5.777 -1.5631 -3.1274  2.7943
   74SLPC  C314 6645   3.191   6.261   5.687 -0.0007  0.0478  0.1825
   74SLPC  H14X 6646   3.168   6.301   5.586 -1.0112 -1.9509 -0.4363
   74SLPC  H14Y 6647   3.112   6.185   5.706 -1.4846  1.5896  0.4603
   74SLPC  C315 6648   3.318   6.189   5.693  0.7701 -0.7473 -0.0265
   74SLPC  H15X 6649   3.328   6.093   5.638  1.8851 -1.5325  1.4903
   74SLPC  H15Y 6650   3.341   6.141   5.790  1.9884 -0.5054 -0.1775
   74SLPC  C316 6651   3.430   6.280   5.642 -0.3778 -0.3231 -0.2893
   74SLPC  H16X 6652   3.441   6.374   5.701 -0.9687 -1.9618  2.6144
   74SLPC  H16Y 6653   3.408   6.295   5.534 -1.9721 -1.4565 -0.1557
   74SLPC  C317 6654   3.568   6.215   5.655 -0.5647  0.1301 -0.0918
   74SLPC  H17X 6655   3.583   6.184   5.760 -0.9247 -0.2517 -0.1448
   74SLPC  H17Y 6656   3.642   6.295   5.635 -0.8162  0.1830 -0.8903
   74SLPC  C318 6657   3.592   6.098   5.562  0.2109 -0.1853 -0.2125
   74SLPC  H18X 6658   3.698   6.068   5.580  0.8962  2.4297  0.5548
   74SLPC  H18Y 6659   3.570   6.129   5.458  0.2161  2.7902  0.5731
   74SLPC  H18Z 6660   3.528   6.015   5.599 -0.8102  1.3439  1.6639
   75SLPC     N 6661   0.591   1.126   7.633 -0.3246 -0.2386 -0.3903
   75SLPC   C13 6662   0.596   0.978   7.624  0.6602 -0.1882 -0.0066
   75SLPC  H13A 6663   0.492   0.954   7.609  1.0207 -0.6430 -2.1009
   75SLPC  H13B 6664   0.655   0.933   7.546 -0.3176 -0.9293 -0.3438
   75SLPC  H13C 6665   0.605   0.931   7.720 -2.8013 -2.0277 -0.4201
   75SLPC   C14 6666   0.563   1.195   7.505 -0.6154 -0.1987  0.6304
   75SLPC  H14A 6667   0.622   1.169   7.418 -0.7716  0.3925  0.3459
   75SLPC  H14B 6668   0.460   1.179   7.476 -0.5488 -0.1690  0.3746
   75SLPC  H14C 6669   0.573   1.302   7.517 -0.8704 -0.0934 -0.0503
   75SLPC   C15 6670   0.732   1.158   7.677  0.0973  0.3345  1.0275
   75SLPC  H15A 6671   0.805   1.112   7.612  1.0673  2.3386  0.6122
   75SLPC  H15B 6672   0.743   1.264   7.694  3.6441 -0.0848  2.2016
   75SLPC  H15C 6673   0.762   1.122   7.774  1.9570  0.7026  0.6364
   75SLPC   C12 6674   0.499   1.186   7.733 -0.0645  0.0390 -0.3913
   75SLPC  H12A 6675   0.512   1.291   7.757 -1.2977  0.1446 -0.1080
   75SLPC  H12B 6676   0.526   1.154   7.833  2.8529  2.0017 -0.4152
   75SLPC   C11 6677   0.353   1.163   7.706  0.1906  0.0158 -0.2202
   75SLPC  H11A 6678   0.346   1.055   7.683  0.9961 -0.4807  1.6777
   75SLPC  H11B 6679   0.318   1.218   7.616  4.4635  1.4777 -1.2692
   75SLPC     P 6680   0.135   1.133   7.843  0.4350  0.3220  0.1173
   75SLPC   O13 6681   0.135   1.012   7.931 -0.1502  0.2281 -0.3009
   75SLPC   O14 6682   0.038   1.238   7.877  0.0016 -0.5151 -0.7728
   75SLPC   O12 6683   0.280   1.192   7.825 -0.2308 -0.0312  0.4510
   75SLPC   O11 6684   0.102   1.087   7.692  0.0156 -0.1896 -0.0183
   75SLPC    C1 6685   0.018   1.161   7.601  0.2885  0.0470 -0.2653
   75SLPC    HA 6686  -0.085   1.150   7.644  1.2258 -0.6697  1.9727
   75SLPC    HB 6687   0.050   1.267   7.602 -1.8279  0.7618 -1.0607
   75SLPC    C2 6688   0.026   1.112   7.460 -0.2735  0.6111 -0.1659
   75SLPC    HS 6689   0.001   1.198   7.394  2.5993  0.6057 -1.4002
   75SLPC   O21 6690  -0.057   0.993   7.447 -0.2588  0.0231 -0.0738
   75SLPC   C21 6691  -0.185   1.023   7.417 -0.0341  1.1276  0.5035
   75SLPC   O22 6692  -0.226   1.133   7.381 -0.1374  0.4441 -0.2356
   75SLPC   C22 6693  -0.276   0.903   7.436  0.7417 -0.3025 -0.3127
   75SLPC   H2R 6694  -0.227   0.813   7.392 -0.3097 -1.1269  0.1441
   75SLPC   H2S 6695  -0.292   0.872   7.542  1.6035 -1.1059 -0.4044
   75SLPC    C3 6696   0.174   1.063   7.429 -0.1056  0.7191  0.6918
   75SLPC    HX 6697   0.212   0.987   7.499  3.0601  0.1884 -1.3698
   75SLPC    HY 6698   0.245   1.148   7.433  0.1998  0.4782  0.4435
   75SLPC   O31 6699   0.184   0.991   7.307 -0.2509 -0.2645  0.1977
   75SLPC   C31 6700   0.159   1.059   7.196  0.0564  0.2025  0.3738
   75SLPC   O32 6701   0.125   1.170   7.179 -0.7529  0.3338  0.1934
   75SLPC   C32 6702   0.160   0.963   7.075 -0.2300  0.3637 -0.2928
   75SLPC   H2X 6703   0.149   0.857   7.106 -1.2698  0.1427 -1.3487
   75SLPC   H2Y 6704   0.260   0.972   7.028 -0.1923 -2.9465 -1.0679
   75SLPC   C23 6705  -0.411   0.926   7.370 -0.2559  0.1051 -0.0862
   75SLPC   H3R 6706  -0.455   1.025   7.394 -1.6419 -0.9317  1.8923
   75SLPC   H3S 6707  -0.488   0.855   7.406  1.6934 -2.1086 -0.0441
   75SLPC   C24 6708  -0.413   0.916   7.208 -0.6330  0.1454  0.3281
   75SLPC   H4R 6709  -0.309   0.912   7.170 -1.3753  1.9469 -2.1299
   75SLPC   H4S 6710  -0.448   1.014   7.170  1.0850  0.5606 -0.2564
   75SLPC   C25 6711  -0.494   0.793   7.159  0.6674 -0.2471  0.1553
   75SLPC   H5R 6712  -0.601   0.814   7.182  0.6902  0.7547 -0.6088
   75SLPC   H5S 6713  -0.471   0.693   7.202 -2.3082 -2.2281 -2.4436
   75SLPC   C26 6714  -0.473   0.772   7.008 -0.2705 -0.2074 -0.3197
   75SLPC   H6R 6715  -0.371   0.731   6.989 -0.2833  0.5520 -2.2193
   75SLPC   H6S 6716  -0.488   0.865   6.949  0.4285  0.8356  1.1035
   75SLPC   C27 6717  -0.568   0.670   6.950 -0.3178 -0.0063  0.2392
   75SLPC   H7R 6718  -0.555   0.661   6.840  1.9479 -2.3923  0.6151
   75SLPC   H7S 6719  -0.671   0.711   6.961  0.2331  1.4126  0.2725
   75SLPC   C28 6720  -0.554   0.521   6.997  0.4593  0.2696  0.0882
   75SLPC   H8R 6721  -0.484   0.523   7.084 -0.0467 -2.6528  0.6786
   75SLPC   H8S 6722  -0.510   0.462   6.914 -1.5151  0.2533 -1.0099
   75SLPC   C29 6723  -0.694   0.466   7.036 -0.2405  0.4410  0.8330
   75SLPC   H9R 6724  -0.715   0.481   7.143 -2.0897  1.0213  0.4235
   75SLPC  C210 6725  -0.781   0.416   6.946  0.3759 -0.6266  0.3081
   75SLPC  H10R 6726  -0.884   0.393   6.979 -0.2185 -1.0173 -1.7221
   75SLPC  C211 6727  -0.758   0.409   6.796 -0.0006 -0.4390 -0.1654
   75SLPC  H11R 6728  -0.654   0.432   6.764 -0.2065  0.9809  0.1280
   75SLPC  H11S 6729  -0.818   0.493   6.755 -0.2991  0.2498  1.6004
   75SLPC  C212 6730  -0.803   0.275   6.752  0.3081  0.2284 -0.1739
   75SLPC  H12R 6731  -0.722   0.202   6.760  0.0651 -0.1243 -0.8555
   75SLPC  C213 6732  -0.926   0.244   6.709 -0.3386  0.1927  0.1447
   75SLPC  H13R 6733  -0.946   0.136   6.698 -1.5252  0.4418 -0.2951
   75SLPC  C214 6734  -1.043   0.330   6.682  0.6028 -0.7661  0.0410
   75SLPC  H14R 6735  -1.036   0.410   6.758  1.0839  1.3849 -2.1194
   75SLPC  H14S 6736  -1.138   0.277   6.702 -0.7453  2.1040  1.7948
   75SLPC  C215 6737  -1.051   0.370   6.537  0.2453 -0.5481 -0.1387
   75SLPC  H15R 6738  -0.957   0.399   6.485 -0.3435 -0.2102 -1.0389
   75SLPC  H15S 6739  -1.113   0.461   6.531 -0.2027 -0.8066  0.5445
   75SLPC  C216 6740  -1.119   0.272   6.444 -0.4000 -0.3049  0.1614
   75SLPC  H16R 6741  -1.206   0.239   6.505 -0.9042  3.1319  1.5356
   75SLPC  H16S 6742  -1.056   0.183   6.422 -0.9714 -0.4581 -0.9213
   75SLPC  C217 6743  -1.158   0.329   6.307  0.2527 -0.2335  1.1460
   75SLPC  H17R 6744  -1.244   0.397   6.324  0.7171  1.3146 -1.9266
   75SLPC  H17S 6745  -1.201   0.245   6.248  0.4329  1.0933 -0.9744
   75SLPC  C218 6746  -1.046   0.391   6.225  0.2731 -0.4268 -0.4100
   75SLPC  H18R 6747  -0.959   0.324   6.212  1.4448  1.4894 -3.6095
   75SLPC  H18S 6748  -1.018   0.486   6.276 -0.6894 -0.0185 -0.6101
   75SLPC  H18T 6749  -1.074   0.433   6.126 -1.6974  2.6556  1.2613
   75SLPC   C33 6750   0.066   0.998   6.961  0.4467 -0.4804  0.4119
   75SLPC   H3X 6751   0.082   0.934   6.872  1.3196  0.2728  0.0148
   75SLPC   H3Y 6752   0.107   1.097   6.934 -1.2180  0.0665 -0.2318
   75SLPC   C34 6753  -0.084   0.991   6.996  0.4704 -0.4376 -0.2103
   75SLPC   H4X 6754  -0.113   1.046   7.088 -1.5678 -1.5341 -0.1340
   75SLPC   H4Y 6755  -0.113   0.887   7.020 -0.0882 -0.5274 -1.2141
   75SLPC   C35 6756  -0.182   1.021   6.879  0.5748 -0.0848  0.7296
   75SLPC   H5X 6757  -0.173   1.125   6.842 -0.0857 -0.9996 -2.2940
   75SLPC   H5Y 6758  -0.283   1.015   6.925  0.8235 -0.2538  1.2639
   75SLPC   C36 6759  -0.162   0.918   6.769 -0.1348 -0.0611 -0.3072
   75SLPC   H6X 6760  -0.163   0.811   6.801 -0.6823  0.1528  0.4171
   75SLPC   H6Y 6761  -0.064   0.932   6.720 -0.4193 -2.4339 -1.6901
   75SLPC   C37 6762  -0.267   0.936   6.670  0.6246 -0.2954  0.6256
   75SLPC   H7X 6763  -0.244   1.024   6.607 -1.8351  0.2818  0.4239
   75SLPC   H7Y 6764  -0.361   0.949   6.728  1.6698  1.5651  2.0108
   75SLPC   C38 6765  -0.278   0.817   6.577 -0.3381 -0.2006 -0.1820
   75SLPC   H8X 6766  -0.311   0.729   6.636 -0.7259  0.1175  0.0790
   75SLPC   H8Y 6767  -0.179   0.806   6.527  0.3840  1.4025  0.7749
   75SLPC   C39 6768  -0.391   0.842   6.478  0.0077 -0.6767  0.0363
   75SLPC   H9X 6769  -0.352   0.911   6.401  0.3613 -1.4196 -0.4564
   75SLPC   H9Y 6770  -0.472   0.897   6.531 -0.7778  0.5701 -2.3034
   75SLPC  C310 6771  -0.420   0.710   6.404 -0.5641  0.1182 -0.6726
   75SLPC  H10X 6772  -0.437   0.630   6.480  1.7533 -0.0499 -0.2790
   75SLPC  H10Y 6773  -0.323   0.687   6.356 -0.0248 -1.9566  1.2271
   75SLPC  C311 6774  -0.532   0.723   6.307  0.1533 -0.3680 -0.4974
   75SLPC  H11X 6775  -0.525   0.829   6.275 -1.1469  0.7837  2.5459
   75SLPC  H11Y 6776  -0.628   0.720   6.364  1.0757  1.5775  1.2654
   75SLPC  C312 6777  -0.523   0.635   6.184  0.2929  0.4802  0.3634
   75SLPC  H12X 6778  -0.417   0.618   6.157  0.4560  1.3639  0.4126
   75SLPC  H12Y 6779  -0.582   0.679   6.100  0.4480 -1.0681 -0.5907
   75SLPC  C313 6780  -0.589   0.494   6.211  0.2391  0.0735  0.3890
   75SLPC  H13X 6781  -0.697   0.510   6.233  0.0019 -0.7488 -0.1276
   75SLPC  H13Y 6782  -0.530   0.455   6.297  1.9839  4.4639  1.4938
   75SLPC  C314 6783  -0.575   0.409   6.081  0.5301  0.3775  0.1273
   75SLPC  H14X 6784  -0.630   0.314   6.101 -1.1573  1.3088  0.0001
   75SLPC  H14Y 6785  -0.472   0.375   6.055  0.0624 -1.6533  0.6875
   75SLPC  C315 6786  -0.635   0.478   5.958 -0.2725 -0.1353 -0.3234
   75SLPC  H15X 6787  -0.569   0.557   5.916  0.2667  0.4052  1.4558
   75SLPC  H15Y 6788  -0.734   0.520   5.988 -0.8706 -0.4484 -1.7497
   75SLPC  C316 6789  -0.664   0.367   5.852  0.5078 -0.4727  0.3580
   75SLPC  H16X 6790  -0.765   0.326   5.875  0.3078  0.0719  0.4766
   75SLPC  H16Y 6791  -0.585   0.289   5.858 -0.4142 -1.3091  2.9974
   75SLPC  C317 6792  -0.657   0.424   5.704  0.3855  0.0081  0.1226
   75SLPC  H17X 6793  -0.663   0.336   5.636  2.4598  0.4559 -0.6978
   75SLPC  H17Y 6794  -0.562   0.479   5.691  1.1226 -1.4701 -0.9885
   75SLPC  C318 6795  -0.776   0.519   5.672 -0.0763  0.1175 -0.1506
   75SLPC  H18X 6796  -0.865   0.473   5.722  2.2831 -2.1252  2.3078
   75SLPC  H18Y 6797  -0.798   0.524   5.563 -1.1896  0.0954  0.0568
   75SLPC  H18Z 6798  -0.765   0.624   5.703  0.7798 -0.0670  0.1989
   76SLPC     N 6799   1.394   1.176   7.911  0.2478 -0.0015 -0.4178
   76SLPC   C13 6800   1.332   1.205   7.776  0.1556  0.0575 -0.2660
   76SLPC  H13A 6801   1.231   1.167   7.774 -0.5290  1.8196 -0.5088
   76SLPC  H13B 6802   1.321   1.311   7.758 -0.0686  0.0208 -0.3421
   76SLPC  H13C 6803   1.387   1.151   7.701 -0.4558 -1.4760  0.3396
   76SLPC   C14 6804   1.409   1.027   7.920 -0.1908  0.0342  0.0936
   76SLPC  H14A 6805   1.458   0.995   8.011 -0.6207  0.2779  0.4132
   76SLPC  H14B 6806   1.316   0.976   7.898  0.0623  0.5280 -2.3593
   76SLPC  H14C 6807   1.480   0.991   7.847  1.3387  0.6883  1.2074
   76SLPC   C15 6808   1.301   1.223   8.017  0.2369  0.2129  0.5862
   76SLPC  H15A 6809   1.338   1.193   8.114  0.8601 -3.6536 -0.6812
   76SLPC  H15B 6810   1.273   1.326   8.003  0.9376  0.3015 -0.1936
   76SLPC  H15C 6811   1.206   1.176   7.997 -0.2872  1.9314 -1.2649
   76SLPC   C12 6812   1.524   1.248   7.931 -0.2220 -0.2365  0.1184
   76SLPC  H12A 6813   1.590   1.213   7.854  1.3736 -0.0180  1.3283
   76SLPC  H12B 6814   1.569   1.219   8.025 -1.1966 -0.6925  0.4595
   76SLPC   C11 6815   1.516   1.403   7.922  0.0635 -0.5970 -0.6406
   76SLPC  H11A 6816   1.454   1.446   8.003  0.4040 -0.3611 -0.5064
   76SLPC  H11B 6817   1.470   1.428   7.824  0.0945  0.2399 -0.4472
   76SLPC     P 6818   1.665   1.613   7.881  0.6082  0.3395 -0.0567
   76SLPC   O13 6819   1.579   1.698   7.965  0.4653  0.5457 -0.0057
   76SLPC   O14 6820   1.810   1.630   7.882 -0.7550 -0.2888 -0.0807
   76SLPC   O12 6821   1.650   1.470   7.936 -0.0763 -0.1767  0.2610
   76SLPC   O11 6822   1.611   1.613   7.729  0.0850 -0.4787 -0.4746
   76SLPC    C1 6823   1.650   1.500   7.648  0.2410  0.1479 -0.2339
   76SLPC    HA 6824   1.760   1.484   7.651  0.4045  1.3131  1.8389
   76SLPC    HB 6825   1.594   1.410   7.682  0.0098  0.6399  0.7243
   76SLPC    C2 6826   1.621   1.526   7.500  0.6397 -0.2181  0.0363
   76SLPC    HS 6827   1.519   1.570   7.499 -0.7394 -3.1022 -2.3798
   76SLPC   O21 6828   1.616   1.404   7.428  0.5347 -0.3040  0.3386
   76SLPC   C21 6829   1.503   1.329   7.428 -0.5663  0.3524 -0.2269
   76SLPC   O22 6830   1.404   1.353   7.492  0.3291 -0.3179 -0.4314
   76SLPC   C22 6831   1.518   1.211   7.335  0.0920 -0.9110 -0.5172
   76SLPC   H2R 6832   1.624   1.199   7.304  1.2242  3.2502  1.0535
   76SLPC   H2S 6833   1.483   1.124   7.394 -1.8199 -0.5639 -1.0732
   76SLPC    C3 6834   1.722   1.622   7.440  0.1737 -0.0452 -0.6146
   76SLPC    HX 6835   1.827   1.589   7.454  0.0566 -0.7859 -1.4430
   76SLPC    HY 6836   1.717   1.717   7.498  0.5588  0.0628 -0.7539
   76SLPC   O31 6837   1.682   1.649   7.303 -0.3584 -0.2765 -0.1424
   76SLPC   C31 6838   1.767   1.724   7.231 -0.4012  1.0798  0.4965
   76SLPC   O32 6839   1.874   1.770   7.261 -0.2144 -0.2131 -0.0743
   76SLPC   C32 6840   1.708   1.722   7.089 -0.4728  0.2597  0.5570
   76SLPC   H2X 6841   1.664   1.820   7.060 -0.1747  0.5848  1.1904
   76SLPC   H2Y 6842   1.629   1.644   7.087 -0.4315  0.2260 -0.5251
   76SLPC   C23 6843   1.425   1.227   7.208  0.1312  0.1700  0.2202
   76SLPC   H3R 6844   1.470   1.274   7.118  1.2504 -1.7326 -0.2614
   76SLPC   H3S 6845   1.327   1.269   7.240 -0.5510 -2.4299  1.7989
   76SLPC   C24 6846   1.362   1.097   7.156  0.7187  0.1442 -0.5482
   76SLPC   H4R 6847   1.330   1.028   7.237  2.1153 -3.1338 -2.5742
   76SLPC   H4S 6848   1.446   1.037   7.114  0.8640 -1.8841  2.3524
   76SLPC   C25 6849   1.237   1.122   7.068 -0.9743  0.6137 -0.5503
   76SLPC   H5R 6850   1.182   1.208   7.112 -0.2199  1.1723 -0.6769
   76SLPC   H5S 6851   1.169   1.034   7.073 -0.8765  0.6069  1.7883
   76SLPC   C26 6852   1.283   1.149   6.924 -0.4781  0.3682  0.2275
   76SLPC   H6R 6853   1.331   1.053   6.895  1.7821  1.5702 -0.1689
   76SLPC   H6S 6854   1.361   1.226   6.910  0.4567 -0.6320 -0.2291
   76SLPC   C27 6855   1.162   1.185   6.833  0.2172  0.4874  0.8159
   76SLPC   H7R 6856   1.126   1.284   6.869  1.4248  1.1025  0.3552
   76SLPC   H7S 6857   1.088   1.102   6.843  1.3059 -0.4481  1.3143
   76SLPC   C28 6858   1.197   1.205   6.694 -0.3130 -0.0405  0.1273
   76SLPC   H8R 6859   1.283   1.137   6.672  0.2926  1.0370 -0.9682
   76SLPC   H8S 6860   1.246   1.305   6.692 -1.0282  0.3110  0.1529
   76SLPC   C29 6861   1.083   1.191   6.602 -0.6007 -0.6113  0.3239
   76SLPC   H9R 6862   1.039   1.090   6.593  1.5335 -1.8964  2.8565
   76SLPC  C210 6863   1.014   1.292   6.542 -0.0666  0.5445 -0.5896
   76SLPC  H10R 6864   0.930   1.254   6.482  0.0821  1.2731 -1.2799
   76SLPC  C211 6865   1.045   1.442   6.524  0.1334 -0.2343 -0.1331
   76SLPC  H11R 6866   1.094   1.489   6.612  2.8233  1.0868 -2.1956
   76SLPC  H11S 6867   0.953   1.501   6.506  0.3106 -0.3045 -1.3490
   76SLPC  C212 6868   1.134   1.457   6.404  0.3201 -1.0321  0.3539
   76SLPC  H12R 6869   1.234   1.413   6.418  0.3367 -0.4598  2.4236
   76SLPC  C213 6870   1.088   1.500   6.283 -0.7382  0.2769 -0.4120
   76SLPC  H13R 6871   1.163   1.517   6.204 -0.7675  3.3418  0.1264
   76SLPC  C214 6872   0.955   1.549   6.236  0.2268 -0.5415 -0.1843
   76SLPC  H14R 6873   0.961   1.621   6.151  1.6308  0.5515  0.7894
   76SLPC  H14S 6874   0.892   1.612   6.303 -3.1570 -0.9819 -2.6765
   76SLPC  C215 6875   0.855   1.433   6.205 -0.1237  0.3168  0.3691
   76SLPC  H15R 6876   0.769   1.481   6.154 -0.4317  0.6430  1.1861
   76SLPC  H15S 6877   0.809   1.399   6.300 -0.2420 -1.6228 -0.3422
   76SLPC  C216 6878   0.914   1.311   6.132  0.0687  0.7814 -0.1769
   76SLPC  H16R 6879   0.834   1.235   6.124 -0.2402  1.2251 -1.4434
   76SLPC  H16S 6880   0.994   1.248   6.176 -1.3239 -1.2895 -0.4594
   76SLPC  C217 6881   0.945   1.352   5.992  0.2957  0.9830  0.1854
   76SLPC  H17R 6882   1.020   1.434   5.999 -2.0490  3.1493  1.6989
   76SLPC  H17S 6883   0.856   1.402   5.949  0.6885  0.7935 -0.8735
   76SLPC  C218 6884   1.002   1.238   5.903 -0.0616 -0.8044  0.4101
   76SLPC  H18R 6885   1.085   1.181   5.950 -2.3312 -2.7310  2.3921
   76SLPC  H18S 6886   1.043   1.285   5.811 -2.5387  0.9059  0.0603
   76SLPC  H18T 6887   0.926   1.159   5.887  0.4124 -1.7725  2.5815
   76SLPC   C33 6888   1.819   1.697   6.986 -0.0834  0.6058  0.7561
   76SLPC   H3X 6889   1.874   1.608   7.022 -0.4299 -0.6855 -1.7055
   76SLPC   H3Y 6890   1.887   1.785   6.984 -0.9057  1.2851 -1.5072
   76SLPC   C34 6891   1.771   1.681   6.841 -0.4890  0.7650  0.2527
   76SLPC   H4X 6892   1.693   1.759   6.825 -0.7217  0.9153  1.9654
   76SLPC   H4Y 6893   1.726   1.582   6.819 -1.0160  0.9403  0.5282
   76SLPC   C35 6894   1.887   1.708   6.744  0.4609  0.1972  0.2941
   76SLPC   H5X 6895   1.958   1.625   6.728  0.1201 -0.3940  1.6694
   76SLPC   H5Y 6896   1.941   1.795   6.789  1.0412  0.0484 -0.1048
   76SLPC   C36 6897   1.831   1.740   6.605  0.0447 -0.1324 -0.4150
   76SLPC   H6X 6898   1.759   1.824   6.609  1.2347  0.9014 -0.0760
   76SLPC   H6Y 6899   1.777   1.657   6.554 -0.4259  1.4400 -2.6124
   76SLPC   C37 6900   1.941   1.811   6.520 -0.2020  0.1547 -0.2323
   76SLPC   H7X 6901   2.014   1.738   6.481  1.0980  1.4816 -0.3853
   76SLPC   H7Y 6902   2.001   1.879   6.584 -0.4037 -0.1225  0.2549
   76SLPC   C38 6903   1.877   1.896   6.400 -0.5417  0.2118  1.0593
   76SLPC   H8X 6904   1.819   1.987   6.427 -0.3277  1.1537 -1.3931
   76SLPC   H8Y 6905   1.809   1.828   6.345  2.2151 -0.6167 -1.5912
   76SLPC   C39 6906   1.976   1.946   6.291 -0.1828  0.6192 -0.0162
   76SLPC   H9X 6907   2.029   1.854   6.257 -0.1325 -0.4772  2.7636
   76SLPC   H9Y 6908   2.058   2.006   6.336 -0.6035  0.9880  0.2595
   76SLPC  C310 6909   1.910   2.021   6.176  0.7958  0.1583  0.3700
   76SLPC  H10X 6910   1.855   2.110   6.213  1.3500  0.2922  0.8851
   76SLPC  H10Y 6911   1.833   1.950   6.139  2.4606 -1.2768 -0.4937
   76SLPC  C311 6912   1.996   2.078   6.062  0.2659 -0.2457 -0.1089
   76SLPC  H11X 6913   2.057   2.166   6.091  0.7909 -0.4026 -0.7143
   76SLPC  H11Y 6914   1.919   2.113   5.990 -1.1799 -0.1614  1.4168
   76SLPC  C312 6915   2.095   1.982   5.993 -0.4899  0.7872  0.7871
   76SLPC  H12X 6916   2.046   1.884   5.975 -0.5568  0.3642  3.0842
   76SLPC  H12Y 6917   2.184   1.962   6.056 -1.0839  0.8452  1.6516
   76SLPC  C313 6918   2.133   2.032   5.850  0.1592  0.5243 -0.0581
   76SLPC  H13X 6919   2.204   2.117   5.855 -0.2579  0.8267  1.1999
   76SLPC  H13Y 6920   2.038   2.066   5.803 -0.0439  0.1249  0.0580
   76SLPC  C314 6921   2.192   1.913   5.770 -0.4142 -0.8919  0.2880
   76SLPC  H14X 6922   2.159   1.817   5.816  2.4915 -2.1111 -0.0018
   76SLPC  H14Y 6923   2.302   1.925   5.778 -0.3555  0.8334 -2.1402
   76SLPC  C315 6924   2.161   1.907   5.623  0.7637  0.0732 -0.0155
   76SLPC  H15X 6925   2.194   1.993   5.562 -2.0337  1.2753 -0.0067
   76SLPC  H15Y 6926   2.050   1.907   5.613  0.7407 -0.9838  0.0784
   76SLPC  C316 6927   2.220   1.779   5.558 -0.0095  0.0432  0.2055
   76SLPC  H16X 6928   2.155   1.755   5.471  0.0496 -0.7196  0.3659
   76SLPC  H16Y 6929   2.210   1.695   5.629 -1.6735  1.5282  1.8442
   76SLPC  C317 6930   2.368   1.793   5.511 -0.6460  0.5082 -0.1427
   76SLPC  H17X 6931   2.434   1.835   5.590 -0.4219 -0.7717  0.3608
   76SLPC  H17Y 6932   2.374   1.862   5.424  1.4226 -0.9842 -1.2760
   76SLPC  C318 6933   2.422   1.670   5.450  0.3453 -0.1075  0.2835
   76SLPC  H18X 6934   2.391   1.650   5.345 -0.6608 -0.6727  0.6778
   76SLPC  H18Y 6935   2.391   1.585   5.513  1.5298  1.0464  2.5578
   76SLPC  H18Z 6936   2.533   1.672   5.453  0.3435  2.2913  1.0541
   77SLPC     N 6937   6.565   5.572   8.067  0.6684  0.3816  0.2654
   77SLPC   C13 6938   6.609   5.683   8.158 -0.4262  1.0206  0.2450
   77SLPC  H13A 6939   6.525   5.719   8.216 -1.1795  1.8422 -1.2826
   77SLPC  H13B 6940   6.686   5.645   8.223 -0.8378 -1.3992 -0.5797
   77SLPC  H13C 6941   6.656   5.762   8.101 -0.0345  1.3964  1.0840
   77SLPC   C14 6942   6.450   5.624   7.984 -0.4545  0.4987  0.3758
   77SLPC  H14A 6943   6.463   5.721   7.939 -2.7619 -0.2303 -2.1394
   77SLPC  H14B 6944   6.414   5.556   7.908 -0.3431  1.3042 -0.4105
   77SLPC  H14C 6945   6.365   5.641   8.048 -0.9776 -0.0519 -0.1671
   77SLPC   C15 6946   6.510   5.453   8.145 -0.6285 -0.5098  0.2283
   77SLPC  H15A 6947   6.583   5.428   8.221 -2.3309  0.0406  2.1204
   77SLPC  H15B 6948   6.427   5.487   8.205  0.7689 -1.7802  3.0861
   77SLPC  H15C 6949   6.476   5.365   8.092 -0.6855 -0.2040 -0.2455
   77SLPC   C12 6950   6.669   5.530   7.960 -0.3946  0.4839  0.1971
   77SLPC  H12A 6951   6.625   5.449   7.904 -0.9543 -0.7482  2.3178
   77SLPC  H12B 6952   6.750   5.483   8.013 -0.2808  0.2682 -0.1604
   77SLPC   C11 6953   6.746   5.638   7.878  0.0669  0.6563 -0.0861
   77SLPC  H11A 6954   6.672   5.699   7.823  0.0537 -1.2790 -2.3883
   77SLPC  H11B 6955   6.794   5.584   7.794 -2.3274 -1.4418 -0.2217
   77SLPC     P 6956   6.893   5.852   7.911  0.4688 -0.3398 -0.0290
   77SLPC   O13 6957   6.783   5.950   7.895  0.6940  0.0228 -0.1296
   77SLPC   O14 6958   7.013   5.886   7.985 -0.2248 -0.7660 -0.1085
   77SLPC   O12 6959   6.831   5.715   7.960  0.6633  0.0713 -0.3622
   77SLPC   O11 6960   6.947   5.811   7.759  0.2255  0.3089 -0.4262
   77SLPC    C1 6961   6.893   5.893   7.653 -0.1449 -0.1637  1.2441
   77SLPC    HA 6962   6.911   5.838   7.559  3.8291  1.3779  0.8954
   77SLPC    HB 6963   6.784   5.913   7.658  0.0299  1.0700  0.5445
   77SLPC    C2 6964   6.962   6.031   7.640 -0.0725  0.1807  1.1480
   77SLPC    HS 6965   6.953   6.083   7.738  1.7964  0.0170  1.4304
   77SLPC   O21 6966   6.895   6.103   7.534 -0.5206  0.5654  0.1096
   77SLPC   C21 6967   6.869   6.234   7.546  0.0478 -0.0985 -0.4197
   77SLPC   O22 6968   6.892   6.309   7.638  0.2198  0.2121  0.3047
   77SLPC   C22 6969   6.814   6.287   7.424 -0.2725 -0.1784  0.8147
   77SLPC   H2R 6970   6.896   6.306   7.351 -1.0267  2.2092  0.5262
   77SLPC   H2S 6971   6.735   6.214   7.397  0.4400  0.1273 -2.4607
   77SLPC    C3 6972   7.118   6.023   7.613 -0.3495  0.7830 -0.1782
   77SLPC    HX 6973   7.152   5.963   7.700 -1.5909  1.8256  1.0558
   77SLPC    HY 6974   7.173   6.119   7.618  2.3649 -0.7083  1.2377
   77SLPC   O31 6975   7.157   5.952   7.490  0.8038 -0.1159  0.4900
   77SLPC   C31 6976   7.225   5.833   7.500  0.2072 -0.2678  0.0347
   77SLPC   O32 6977   7.283   5.794   7.600 -0.6185  0.3316  0.1314
   77SLPC   C32 6978   7.226   5.766   7.363 -0.3659 -0.5600  0.1772
   77SLPC   H2X 6979   7.127   5.750   7.315  0.0227  1.0005 -1.2151
   77SLPC   H2Y 6980   7.264   5.663   7.377 -0.2729 -0.2479  2.7988
   77SLPC   C23 6981   6.738   6.428   7.444  0.1698 -0.2089 -0.2723
   77SLPC   H3R 6982   6.806   6.506   7.486  0.1088 -0.6324  0.6442
   77SLPC   H3S 6983   6.668   6.412   7.529 -0.7196  0.8016 -0.7981
   77SLPC   C24 6984   6.671   6.465   7.311 -0.1590 -0.2585 -0.0501
   77SLPC   H4R 6985   6.615   6.561   7.309  0.7947  0.3426  1.0125
   77SLPC   H4S 6986   6.609   6.382   7.270 -2.3299  1.0695  0.3445
   77SLPC   C25 6987   6.778   6.481   7.203  0.5984  0.6618  0.4117
   77SLPC   H5R 6988   6.815   6.383   7.168 -0.1181  0.0882  1.2129
   77SLPC   H5S 6989   6.863   6.539   7.245  0.6503  0.3678  0.7172
   77SLPC   C26 6990   6.741   6.554   7.064  0.0878 -0.2595 -0.2384
   77SLPC   H6R 6991   6.837   6.590   7.023 -0.4424  0.6952 -0.6733
   77SLPC   H6S 6992   6.680   6.637   7.107  0.2424 -1.6054  2.8461
   77SLPC   C27 6993   6.663   6.475   6.966  1.0412 -0.5955  0.3825
   77SLPC   H7R 6994   6.581   6.422   7.018 -0.0362 -2.5003 -2.9119
   77SLPC   H7S 6995   6.721   6.392   6.921 -1.6836 -3.0217  1.0271
   77SLPC   C28 6996   6.585   6.557   6.860  0.2707 -0.7808 -0.2958
   77SLPC   H8R 6997   6.512   6.621   6.913 -0.2109 -0.9801 -0.7123
   77SLPC   H8S 6998   6.527   6.498   6.786 -0.1102 -0.8173  0.0349
   77SLPC   C29 6999   6.681   6.648   6.783  0.6788 -0.1284 -0.0508
   77SLPC   H9R 7000   6.734   6.725   6.841 -1.0051  0.9524  0.1198
   77SLPC  C210 7001   6.689   6.653   6.647 -0.1372  0.7195 -0.1040
   77SLPC  H10R 7002   6.746   6.732   6.596  0.6728 -0.3157 -0.8346
   77SLPC  C211 7003   6.624   6.561   6.544 -1.0476 -0.2213 -0.4570
   77SLPC  H11R 7004   6.614   6.621   6.451 -1.0310  0.1019 -0.2540
   77SLPC  H11S 7005   6.520   6.532   6.567 -0.1732 -1.8201  1.8122
   77SLPC  C212 7006   6.703   6.431   6.531  0.0716 -1.1185  0.3883
   77SLPC  H12R 7007   6.793   6.432   6.595 -1.5121  0.6632  2.7569
   77SLPC  C213 7008   6.707   6.350   6.425  0.0331  0.2631 -0.8630
   77SLPC  H13R 7009   6.768   6.260   6.441  0.4046  1.0704  3.9604
   77SLPC  C214 7010   6.618   6.359   6.297 -0.1840  0.1175 -0.3898
   77SLPC  H14R 7011   6.675   6.404   6.213  0.0615  0.5924  0.0248
   77SLPC  H14S 7012   6.528   6.423   6.316  0.4618  0.9566 -0.0729
   77SLPC  C215 7013   6.552   6.230   6.237 -0.1075  0.7357  0.0398
   77SLPC  H15R 7014   6.495   6.170   6.311 -0.6641 -0.1963 -1.1172
   77SLPC  H15S 7015   6.644   6.173   6.211  0.8543  1.7258  1.1206
   77SLPC  C216 7016   6.451   6.254   6.130 -0.5140  0.2700 -0.5036
   77SLPC  H16R 7017   6.422   6.155   6.089  1.9826 -1.0289  0.6465
   77SLPC  H16S 7018   6.505   6.308   6.049 -1.8964  0.0865 -1.5967
   77SLPC  C217 7019   6.319   6.325   6.168 -0.0688  0.0433 -0.1764
   77SLPC  H17R 7020   6.267   6.338   6.071  0.8279 -0.7141 -0.7832
   77SLPC  H17S 7021   6.338   6.421   6.220 -0.2254  1.1429 -2.0377
   77SLPC  C218 7022   6.231   6.236   6.254 -0.2014  0.2998  0.2191
   77SLPC  H18R 7023   6.286   6.214   6.348 -0.2949  0.5574  0.3351
   77SLPC  H18S 7024   6.198   6.140   6.208  0.0621  0.6587 -0.7225
   77SLPC  H18T 7025   6.139   6.293   6.279 -1.6030 -1.1793 -1.2860
   77SLPC   C33 7026   7.314   5.843   7.258  0.8523  0.2224  0.0645
   77SLPC   H3X 7027   7.422   5.843   7.283  1.0086 -1.2230 -0.5433
   77SLPC   H3Y 7028   7.287   5.951   7.262  2.0410  0.4876  1.9043
   77SLPC   C34 7029   7.292   5.782   7.115 -0.1700  0.0621 -0.6031
   77SLPC   H4X 7030   7.185   5.767   7.087 -0.1082 -0.6920 -0.4597
   77SLPC   H4Y 7031   7.346   5.685   7.114  0.6176  0.3476  2.5331
   77SLPC   C35 7032   7.361   5.861   7.004  0.4664  0.2287 -0.5134
   77SLPC   H5X 7033   7.468   5.882   7.027  2.2778 -4.0878 -3.5561
   77SLPC   H5Y 7034   7.306   5.955   6.986  0.8883  0.7411  0.7632
   77SLPC   C36 7035   7.358   5.795   6.868  0.1996  0.3233 -0.0748
   77SLPC   H6X 7036   7.256   5.759   6.841  0.0250  1.5741 -1.1897
   77SLPC   H6Y 7037   7.430   5.710   6.869 -0.4112 -0.2213  1.3191
   77SLPC   C37 7038   7.391   5.890   6.754  0.5973 -0.3252  0.5787
   77SLPC   H7X 7039   7.499   5.914   6.759  0.3630  1.1185 -0.7170
   77SLPC   H7Y 7040   7.332   5.984   6.761 -0.0720 -0.7405  0.5275
   77SLPC   C38 7041   7.357   5.822   6.619  0.4013  0.9212 -0.3521
   77SLPC   H8X 7042   7.249   5.798   6.620  0.7689 -0.8489  0.3353
   77SLPC   H8Y 7043   7.417   5.730   6.603 -0.5136  0.2137  0.2412
   77SLPC   C39 7044   7.390   5.912   6.499 -0.0725 -0.1593 -0.2839
   77SLPC   H9X 7045   7.501   5.914   6.488  0.1182  1.0276  1.5316
   77SLPC   H9Y 7046   7.352   6.015   6.514  0.2345  0.3757 -2.8162
   77SLPC  C310 7047   7.330   5.877   6.362 -0.8535 -0.3846 -0.4544
   77SLPC  H10X 7048   7.224   5.908   6.364 -0.7099  0.1052 -0.1200
   77SLPC  H10Y 7049   7.330   5.767   6.354 -1.6532 -0.3148 -1.6291
   77SLPC  C311 7050   7.409   5.928   6.243 -0.4967  0.3292  0.3889
   77SLPC  H11X 7051   7.505   5.873   6.236 -0.6714 -0.0766  1.1289
   77SLPC  H11Y 7052   7.436   6.036   6.247 -2.0460  0.9924 -2.9219
   77SLPC  C312 7053   7.334   5.931   6.103 -0.1876  0.1197  0.2646
   77SLPC  H12X 7054   7.259   6.012   6.095 -2.9067 -2.4014 -3.0687
   77SLPC  H12Y 7055   7.283   5.833   6.089  0.1955  0.0109 -0.4077
   77SLPC  C313 7056   7.446   5.946   5.993 -0.1327 -0.6191  0.0318
   77SLPC  H13X 7057   7.538   5.885   6.005  0.4321 -0.2571 -1.9915
   77SLPC  H13Y 7058   7.493   6.045   6.007  1.8361 -1.2126 -1.8441
   77SLPC  C314 7059   7.393   5.922   5.849 -0.0650  0.1540  0.3043
   77SLPC  H14X 7060   7.322   5.837   5.846  0.5344 -0.3267 -0.5785
   77SLPC  H14Y 7061   7.478   5.909   5.780  1.8657 -1.4638  2.8087
   77SLPC  C315 7062   7.311   6.046   5.795  0.1794 -0.0299  0.1057
   77SLPC  H15X 7063   7.391   6.119   5.769 -0.6214  1.0120  0.5302
   77SLPC  H15Y 7064   7.257   6.082   5.885  1.2646 -0.5696  1.0087
   77SLPC  C316 7065   7.229   5.996   5.681 -0.1843  0.0936  0.5436
   77SLPC  H16X 7066   7.185   5.901   5.719  1.8376 -0.8103  0.7605
   77SLPC  H16Y 7067   7.288   5.971   5.591 -0.1130 -1.6895  1.0421
   77SLPC  C317 7068   7.106   6.087   5.652 -0.4478  0.2265  0.0552
   77SLPC  H17X 7069   7.142   6.190   5.632  0.1497  0.0553  0.2356
   77SLPC  H17Y 7070   7.040   6.097   5.740 -0.0356 -0.3996  0.4486
   77SLPC  C318 7071   7.019   6.047   5.528 -0.7272  0.5598  0.0594
   77SLPC  H18X 7072   6.947   5.969   5.560  0.0323  0.0164  0.4746
   77SLPC  H18Y 7073   7.075   6.000   5.445  0.1586  1.3352  0.2077
   77SLPC  H18Z 7074   6.967   6.134   5.482 -2.4309  0.0838  0.9831
   78SLPC     N 7075   2.077   3.977   7.711 -0.2601  0.3678 -0.5447
   78SLPC   C13 7076   2.133   4.097   7.776 -0.6296  1.2595  0.3588
   78SLPC  H13A 7077   2.235   4.116   7.746  0.1503  1.8004  3.0374
   78SLPC  H13B 7078   2.079   4.184   7.742 -0.3826  1.9994  1.8087
   78SLPC  H13C 7079   2.141   4.097   7.884 -0.1035 -1.8980  0.4262
   78SLPC   C14 7080   2.066   4.013   7.568 -1.1150 -0.2437  0.2425
   78SLPC  H14A 7081   2.165   4.037   7.532 -0.8596  0.6877  1.5178
   78SLPC  H14B 7082   2.020   3.936   7.508 -0.6884 -0.5428  0.2947
   78SLPC  H14C 7083   2.008   4.102   7.551 -1.0877 -0.0544  1.0921
   78SLPC   C15 7084   1.935   3.963   7.762  0.2428 -0.1511 -0.6507
   78SLPC  H15A 7085   1.889   4.060   7.776 -0.2331 -0.3788 -0.6176
   78SLPC  H15B 7086   1.869   3.911   7.694 -0.6081 -0.0430  0.0703
   78SLPC  H15C 7087   1.948   3.929   7.863  1.2604  1.1504 -0.3293
   78SLPC   C12 7088   2.149   3.842   7.732 -0.1659 -0.2960  0.6420
   78SLPC  H12A 7089   2.241   3.839   7.676  0.5648 -0.8006  1.8293
   78SLPC  H12B 7090   2.082   3.780   7.674 -2.1744  1.7409  0.6295
   78SLPC   C11 7091   2.182   3.800   7.880  0.2373  0.2656  0.1327
   78SLPC  H11A 7092   2.243   3.873   7.937  3.3185 -1.3503 -0.8826
   78SLPC  H11B 7093   2.243   3.708   7.872  0.2539  0.2577  0.3737
   78SLPC     P 7094   1.975   3.634   7.926 -0.1075 -0.2940  0.1230
   78SLPC   O13 7095   2.059   3.517   7.956  0.1643 -0.3650  0.0370
   78SLPC   O14 7096   1.847   3.647   8.002  0.0117 -0.2499 -0.0321
   78SLPC   O12 7097   2.054   3.770   7.944 -0.0869 -0.4597  0.1726
   78SLPC   O11 7098   1.931   3.637   7.781  0.0016  0.1706  0.2341
   78SLPC    C1 7099   1.873   3.524   7.721 -0.4223  0.1888  0.5969
   78SLPC    HA 7100   1.877   3.430   7.780  2.5698  0.0164  0.2674
   78SLPC    HB 7101   1.771   3.549   7.686 -1.1566 -2.4049  0.6970
   78SLPC    C2 7102   1.944   3.499   7.583 -0.5357  0.1060  0.2333
   78SLPC    HS 7103   1.892   3.417   7.529  2.9428 -0.4710 -2.5917
   78SLPC   O21 7104   2.088   3.467   7.581 -0.2339  0.6428 -0.3921
   78SLPC   C21 7105   2.129   3.350   7.642  0.1589 -0.6555 -0.0231
   78SLPC   O22 7106   2.052   3.268   7.687  0.1658 -0.0008 -0.0545
   78SLPC   C22 7107   2.281   3.336   7.639 -0.3025  0.0445  0.1803
   78SLPC   H2R 7108   2.322   3.440   7.642  0.9734 -0.4545  1.2350
   78SLPC   H2S 7109   2.317   3.284   7.730 -0.1489  2.4186  1.5768
   78SLPC    C3 7110   1.919   3.613   7.482 -0.3497 -0.2077 -0.5952
   78SLPC    HX 7111   1.941   3.703   7.543  3.3531 -1.6785  0.5412
   78SLPC    HY 7112   1.811   3.614   7.456 -0.4651  0.4194 -0.0973
   78SLPC   O31 7113   2.006   3.596   7.360  0.7354 -0.4383 -0.4124
   78SLPC   C31 7114   2.107   3.678   7.358  0.2462 -0.0842 -0.9038
   78SLPC   O32 7115   2.151   3.747   7.451  0.0218  0.7270 -0.2937
   78SLPC   C32 7116   2.156   3.681   7.218 -0.1656  0.0181 -0.2133
   78SLPC   H2X 7117   2.132   3.585   7.168  0.3054 -0.4793  0.4883
   78SLPC   H2Y 7118   2.266   3.693   7.228 -0.1219  3.6559 -2.9405
   78SLPC   C23 7119   2.316   3.254   7.508  0.0221  0.6484  0.5306
   78SLPC   H3R 7120   2.263   3.158   7.526 -1.2762  1.1670 -0.3585
   78SLPC   H3S 7121   2.424   3.227   7.513 -0.4001 -1.4912 -0.6130
   78SLPC   C24 7122   2.279   3.328   7.381  0.1457  0.3537 -0.2089
   78SLPC   H4R 7123   2.306   3.435   7.391 -2.7903  1.1472  0.1843
   78SLPC   H4S 7124   2.168   3.326   7.379  0.0797 -1.4356  1.7227
   78SLPC   C25 7125   2.338   3.268   7.252 -0.0778 -0.4560  0.1979
   78SLPC   H5R 7126   2.305   3.164   7.232  1.4361 -0.7636 -0.9029
   78SLPC   H5S 7127   2.448   3.261   7.270  0.0518  1.3871  0.3255
   78SLPC   C26 7128   2.322   3.364   7.136  0.2049 -0.3179 -0.3087
   78SLPC   H6R 7129   2.367   3.462   7.163  1.7456 -0.5158 -1.9939
   78SLPC   H6S 7130   2.215   3.374   7.108  0.9054  4.1289 -2.2381
   78SLPC   C27 7131   2.408   3.330   7.020  0.0417 -0.3738  0.4541
   78SLPC   H7R 7132   2.412   3.225   6.982  0.1578 -1.1333  2.4402
   78SLPC   H7S 7133   2.514   3.351   7.049 -0.4710  2.8748  0.3096
   78SLPC   C28 7134   2.371   3.414   6.901  0.3633  0.0025 -0.0807
   78SLPC   H8R 7135   2.268   3.387   6.871  0.1453  1.6656 -0.9481
   78SLPC   H8S 7136   2.427   3.372   6.814 -2.8445 -3.0962 -0.8739
   78SLPC   C29 7137   2.389   3.562   6.928  0.0137 -0.0473  0.0197
   78SLPC   H9R 7138   2.365   3.591   7.032  1.2607  1.7515 -0.1570
   78SLPC  C210 7139   2.435   3.649   6.830 -0.2602 -0.1574 -0.0701
   78SLPC  H10R 7140   2.460   3.754   6.851  1.6053 -0.6225  0.1755
   78SLPC  C211 7141   2.476   3.610   6.689 -0.0163  0.0816  0.6297
   78SLPC  H11R 7142   2.388   3.564   6.641 -0.2280 -0.4430  1.4987
   78SLPC  H11S 7143   2.552   3.531   6.710  2.0529  2.2459  1.8185
   78SLPC  C212 7144   2.551   3.708   6.604 -0.1733 -1.0372 -0.1405
   78SLPC  H12R 7145   2.656   3.722   6.633  0.6621  1.3641 -3.6411
   78SLPC  C213 7146   2.504   3.758   6.486  0.0995  1.1601  0.3869
   78SLPC  H13R 7147   2.570   3.818   6.422  3.4402 -1.4655  1.0946
   78SLPC  C214 7148   2.366   3.728   6.425 -0.3727  0.0973  0.5780
   78SLPC  H14R 7149   2.302   3.817   6.443 -1.3730 -0.9330  2.3487
   78SLPC  H14S 7150   2.322   3.633   6.462  4.0989 -2.9398 -0.9437
   78SLPC  C215 7151   2.375   3.711   6.265  0.2901  0.1140  0.2065
   78SLPC  H15R 7152   2.451   3.787   6.236 -0.2991  0.3841 -0.6664
   78SLPC  H15S 7153   2.280   3.743   6.218  1.8604  2.0578 -1.8626
   78SLPC  C216 7154   2.420   3.570   6.225  0.5408 -0.5279  0.3929
   78SLPC  H16R 7155   2.333   3.506   6.200  0.6827 -0.4467 -0.3341
   78SLPC  H16S 7156   2.474   3.524   6.309  0.7449 -0.5592  0.2451
   78SLPC  C217 7157   2.513   3.577   6.099  0.3040  0.2471 -0.0194
   78SLPC  H17R 7158   2.559   3.479   6.075 -1.4517 -0.3556 -1.1342
   78SLPC  H17S 7159   2.602   3.641   6.114 -0.0419  0.8361 -0.4444
   78SLPC  C218 7160   2.444   3.623   5.969 -0.7252 -0.7546  0.3830
   78SLPC  H18R 7161   2.513   3.618   5.883  0.7911 -0.1945  1.5292
   78SLPC  H18S 7162   2.431   3.732   5.983  1.1631 -0.6755  1.9247
   78SLPC  H18T 7163   2.348   3.569   5.952 -1.2658  0.8086 -1.9632
   78SLPC   C33 7164   2.105   3.802   7.140 -0.1792 -0.6264  0.2383
   78SLPC   H3X 7165   2.133   3.904   7.174 -1.8879 -0.0370 -0.0007
   78SLPC   H3Y 7166   1.996   3.823   7.138 -0.0964  0.0602  1.6923
   78SLPC   C34 7167   2.149   3.809   6.991  0.0528  0.1629 -0.1574
   78SLPC   H4X 7168   2.259   3.806   6.976  0.0367  0.2540 -0.3054
   78SLPC   H4Y 7169   2.108   3.903   6.947 -0.5666  0.3273  0.7541
   78SLPC   C35 7170   2.085   3.690   6.908  0.6158 -0.1106 -0.2014
   78SLPC   H5X 7171   1.978   3.682   6.939 -0.3966 -1.4338 -3.6262
   78SLPC   H5Y 7172   2.136   3.596   6.939 -0.1297 -0.1329  1.0466
   78SLPC   C36 7173   2.100   3.726   6.763 -0.5885 -0.0181 -0.7027
   78SLPC   H6X 7174   2.194   3.693   6.714 -0.2654  1.7417 -1.3393
   78SLPC   H6Y 7175   2.119   3.835   6.761 -0.4991 -0.0124  0.3160
   78SLPC   C37 7176   1.987   3.688   6.668  0.0153 -0.5946 -0.0140
   78SLPC   H7X 7177   1.894   3.733   6.708  0.4122 -0.5416  0.8704
   78SLPC   H7Y 7178   1.977   3.577   6.663  2.4201 -0.9048  0.7031
   78SLPC   C38 7179   1.993   3.735   6.522 -0.3458  0.2797 -0.5415
   78SLPC   H8X 7180   2.076   3.677   6.477 -0.1337  0.8686 -0.9241
   78SLPC   H8Y 7181   2.031   3.840   6.520 -2.4995  1.1042 -0.6111
   78SLPC   C39 7182   1.864   3.715   6.445 -0.3667  0.0057  0.3988
   78SLPC   H9X 7183   1.799   3.805   6.453 -0.4227  0.1184 -1.1177
   78SLPC   H9Y 7184   1.810   3.628   6.489 -2.0221 -0.4474 -2.3348
   78SLPC  C310 7185   1.898   3.691   6.297 -0.1781  0.1812 -0.1851
   78SLPC  H10X 7186   1.805   3.704   6.237 -0.1366  1.2659 -0.0307
   78SLPC  H10Y 7187   1.948   3.595   6.275 -0.7821  0.2861 -2.1713
   78SLPC  C311 7188   1.983   3.797   6.228 -0.4851  0.6577  0.0273
   78SLPC  H11X 7189   2.071   3.813   6.294  0.0763  0.2515 -0.5999
   78SLPC  H11Y 7190   1.939   3.898   6.237  1.9717  1.6866  1.6867
   78SLPC  C312 7191   2.032   3.768   6.086 -0.0015 -0.2694  0.2695
   78SLPC  H12X 7192   2.095   3.676   6.090 -1.7463 -1.5151  0.2321
   78SLPC  H12Y 7193   2.102   3.851   6.062  0.8931 -0.6019  1.6092
   78SLPC  C313 7194   1.920   3.746   5.979 -0.2742  0.5932  0.1573
   78SLPC  H13X 7195   1.841   3.823   5.990 -1.0347 -0.0786 -0.3923
   78SLPC  H13Y 7196   1.877   3.645   5.996  1.0849  0.2016  1.4037
   78SLPC  C314 7197   1.981   3.754   5.844 -0.2595 -0.2845 -0.1515
   78SLPC  H14X 7198   2.078   3.700   5.842  0.7518  1.1967  3.1897
   78SLPC  H14Y 7199   2.010   3.859   5.823  1.4287 -0.6706  0.1193
   78SLPC  C315 7200   1.891   3.695   5.732 -0.2766 -0.0901 -0.6506
   78SLPC  H15X 7201   1.805   3.766   5.731 -0.2365  0.0181  0.8900
   78SLPC  H15Y 7202   1.855   3.592   5.750  2.6552 -1.5057 -2.2491
   78SLPC  C316 7203   1.950   3.717   5.592  0.5944 -0.7602  0.1558
   78SLPC  H16X 7204   2.022   3.801   5.602  1.7617 -1.7261  0.1153
   78SLPC  H16Y 7205   1.870   3.733   5.517  1.7455 -0.9617 -1.1591
   78SLPC  C317 7206   2.027   3.591   5.538  0.7504 -0.8337  0.6284
   78SLPC  H17X 7207   2.043   3.595   5.428  3.7626 -2.9796  0.8785
   78SLPC  H17Y 7208   1.970   3.496   5.538  0.2145 -0.5431 -0.7750
   78SLPC  C318 7209   2.163   3.571   5.607  0.3167 -0.0707  0.5406
   78SLPC  H18X 7210   2.220   3.665   5.591 -2.4200  1.6288  0.2832
   78SLPC  H18Y 7211   2.224   3.488   5.564  0.5941  1.1495 -1.5664
   78SLPC  H18Z 7212   2.155   3.537   5.712  3.2373  0.5870  1.0600
   79SLPC     N 7213   1.069   0.064   7.705 -0.5324 -0.0487 -0.3320
   79SLPC   C13 7214   1.069   0.067   7.558 -0.3432 -0.0166 -0.2352
   79SLPC  H13A 7215   1.068   0.171   7.526 -4.8443  1.3277  3.1312
   79SLPC  H13B 7216   1.157   0.023   7.514  0.6731  0.9652  0.7652
   79SLPC  H13C 7217   0.974   0.029   7.524  0.0794 -2.0823  0.7769
   79SLPC   C14 7218   1.122  -0.069   7.743 -0.0738  0.4429 -0.5061
   79SLPC  H14A 7219   1.062  -0.149   7.701  0.6651 -0.4990  0.2032
   79SLPC  H14B 7220   1.223  -0.080   7.706 -0.6393 -0.6426 -1.8372
   79SLPC  H14C 7221   1.142  -0.088   7.847  2.0679 -2.2601 -1.2761
   79SLPC   C15 7222   0.924   0.079   7.745  0.2160  0.2469  0.9871
   79SLPC  H15A 7223   0.862  -0.006   7.719  1.1370  0.1580 -1.1061
   79SLPC  H15B 7224   0.918   0.097   7.851  0.8391  0.9536  0.9072
   79SLPC  H15C 7225   0.886   0.158   7.683  0.9730  0.8468  1.2793
   79SLPC   C12 7226   1.159   0.170   7.767  0.8366 -1.1739 -0.0222
   79SLPC  H12A 7227   1.131   0.164   7.871  0.0921  0.3338 -0.1085
   79SLPC  H12B 7228   1.123   0.266   7.733  0.9305 -0.7730  0.9771
   79SLPC   C11 7229   1.312   0.171   7.750  0.4554 -0.7046  0.2695
   79SLPC  H11A 7230   1.354   0.076   7.790 -0.8610 -0.7758  1.5886
   79SLPC  H11B 7231   1.361   0.250   7.811  1.0126 -1.0533  0.2845
   79SLPC     P 7232   1.319   0.318   7.532 -0.2089 -0.4312  0.5952
   79SLPC   O13 7233   1.232   0.410   7.612  0.1114 -0.1716 -0.5184
   79SLPC   O14 7234   1.457   0.365   7.498  0.0477 -0.2952 -0.0328
   79SLPC   O12 7235   1.337   0.188   7.614  0.1547  0.2374 -0.0029
   79SLPC   O11 7236   1.237   0.270   7.410  0.1956  0.8879 -0.0795
   79SLPC    C1 7237   1.307   0.203   7.307  0.1868 -0.3082 -0.1035
   79SLPC    HA 7238   1.416   0.190   7.317  0.0592  0.4043  3.6777
   79SLPC    HB 7239   1.275   0.099   7.285 -0.1086  0.4845 -4.3645
   79SLPC    C2 7240   1.291   0.302   7.179  0.2249  0.7836  0.6455
   79SLPC    HS 7241   1.350   0.256   7.097  0.7193  0.9372  0.9136
   79SLPC   O21 7242   1.331   0.433   7.212  1.1463 -0.3936 -0.0742
   79SLPC   C21 7243   1.462   0.452   7.227 -0.1821  0.5951 -0.1467
   79SLPC   O22 7244   1.548   0.367   7.206  0.2952 -0.3204 -0.2736
   79SLPC   C22 7245   1.497   0.606   7.262  0.4859 -0.5099  0.1133
   79SLPC   H2R 7246   1.466   0.636   7.364 -1.3359 -0.6801 -0.3533
   79SLPC   H2S 7247   1.608   0.613   7.260  0.4002  1.0440 -0.4220
   79SLPC    C3 7248   1.146   0.310   7.123  0.3594  0.6823 -0.4281
   79SLPC    HX 7249   1.079   0.363   7.194  0.4549  0.2460 -0.0091
   79SLPC    HY 7250   1.115   0.204   7.112  0.0293  0.5929  1.1578
   79SLPC   O31 7251   1.140   0.381   7.002 -0.3645  0.2496 -0.5236
   79SLPC   C31 7252   1.192   0.334   6.890 -0.1702  0.0862  0.1648
   79SLPC   O32 7253   1.246   0.224   6.873  0.1248  0.7169  0.0090
   79SLPC   C32 7254   1.164   0.433   6.777 -0.3761  0.2511 -0.0971
   79SLPC   H2X 7255   1.254   0.498   6.767 -0.7980  1.7810  4.0125
   79SLPC   H2Y 7256   1.075   0.492   6.806 -0.4609 -0.0202  0.2018
   79SLPC   C23 7257   1.448   0.704   7.152 -0.1717  0.0662  0.4544
   79SLPC   H3R 7258   1.476   0.806   7.188 -0.7571  1.3849 -2.5077
   79SLPC   H3S 7259   1.338   0.697   7.133 -0.6452 -0.3333  3.0479
   79SLPC   C24 7260   1.530   0.675   7.023 -0.4801 -0.4617  0.3743
   79SLPC   H4R 7261   1.491   0.581   6.977 -2.5522 -0.6152  2.2789
   79SLPC   H4S 7262   1.638   0.666   7.046  0.0954  2.8701 -0.5556
   79SLPC   C25 7263   1.520   0.788   6.922 -0.0796 -0.8051  0.0041
   79SLPC   H5R 7264   1.567   0.879   6.965 -0.0897 -1.2880  1.0684
   79SLPC   H5S 7265   1.413   0.817   6.910 -0.6158 -2.3531  0.7708
   79SLPC   C26 7266   1.583   0.750   6.788 -0.3387  0.2995 -0.0049
   79SLPC   H6R 7267   1.528   0.663   6.745  1.0847 -0.4094 -0.4591
   79SLPC   H6S 7268   1.679   0.704   6.822 -0.8870  0.0709  1.3104
   79SLPC   C27 7269   1.602   0.854   6.680  0.4402  0.2920 -0.5745
   79SLPC   H7R 7270   1.650   0.945   6.722 -0.0893  0.6339 -0.7000
   79SLPC   H7S 7271   1.504   0.889   6.640  0.7271 -0.4756 -1.9776
   79SLPC   C28 7272   1.695   0.803   6.564  0.2004  0.0231  0.9663
   79SLPC   H8R 7273   1.762   0.722   6.599 -3.0221 -3.1254  0.4871
   79SLPC   H8S 7274   1.748   0.894   6.528 -0.3889  0.0402  0.1180
   79SLPC   C29 7275   1.610   0.732   6.457 -0.3964 -0.4789  0.2539
   79SLPC   H9R 7276   1.540   0.663   6.506 -1.3591  1.6029  1.9847
   79SLPC  C210 7277   1.609   0.762   6.325 -0.2968  0.4790 -0.2639
   79SLPC  H10R 7278   1.542   0.701   6.262 -0.4288  0.6674 -0.3069
   79SLPC  C211 7279   1.695   0.856   6.249 -0.2341 -0.0349  0.2011
   79SLPC  H11R 7280   1.791   0.878   6.301  0.1985 -1.4104  0.0224
   79SLPC  H11S 7281   1.641   0.950   6.224 -1.2072 -0.5934  0.1659
   79SLPC  C212 7282   1.721   0.789   6.119  0.4590  0.5222  0.3906
   79SLPC  H12R 7283   1.773   0.692   6.123 -0.6516 -0.2176 -1.6020
   79SLPC  C213 7284   1.679   0.819   5.997  0.5094 -0.4675  0.3391
   79SLPC  H13R 7285   1.707   0.750   5.917  2.1806  1.3608 -0.7538
   79SLPC  C214 7286   1.592   0.939   5.955  0.1707 -0.2890  0.1901
   79SLPC  H14R 7287   1.589   1.008   6.042  0.8629  0.3473 -0.2768
   79SLPC  H14S 7288   1.492   0.903   5.922  0.7687  0.7997 -3.3230
   79SLPC  C215 7289   1.648   1.013   5.828 -0.2518 -0.3030  0.4733
   79SLPC  H15R 7290   1.577   1.096   5.810  1.3759  0.8200 -1.0702
   79SLPC  H15S 7291   1.631   0.948   5.739 -1.2279 -0.2348  0.5996
   79SLPC  C216 7292   1.791   1.056   5.831 -0.2024  0.5266 -0.2277
   79SLPC  H16R 7293   1.852   0.965   5.847 -1.1722 -0.3714 -1.4692
   79SLPC  H16S 7294   1.812   1.126   5.915  3.1627 -0.0638 -0.4690
   79SLPC  C217 7295   1.822   1.140   5.708 -0.5311  0.2568  0.5720
   79SLPC  H17R 7296   1.926   1.180   5.716  1.5793 -4.4571  0.2780
   79SLPC  H17S 7297   1.760   1.230   5.722 -0.7983  0.1905 -0.1441
   79SLPC  C218 7298   1.792   1.068   5.570  0.1949 -0.3837  0.3973
   79SLPC  H18R 7299   1.829   1.130   5.486 -0.5217 -0.4857 -0.0009
   79SLPC  H18S 7300   1.682   1.060   5.555 -0.8002 -0.3297  5.6810
   79SLPC  H18T 7301   1.841   0.969   5.576  0.2410 -0.3276  1.0634
   79SLPC   C33 7302   1.133   0.346   6.654  1.1420 -0.8586  0.4049
   79SLPC   H3X 7303   1.040   0.287   6.671  0.4506  0.5412  1.7802
   79SLPC   H3Y 7304   1.219   0.281   6.629  1.9703  0.1124  0.6484
   79SLPC   C34 7305   1.098   0.430   6.525  0.1186  0.8744 -0.8454
   79SLPC   H4X 7306   1.188   0.487   6.495  0.6787  0.1325 -0.6272
   79SLPC   H4Y 7307   1.031   0.510   6.563  0.0569  0.3097  0.2983
   79SLPC   C35 7308   1.041   0.349   6.401 -0.1083  1.5380 -0.0297
   79SLPC   H5X 7309   0.957   0.284   6.432  1.0307  0.0498  0.0150
   79SLPC   H5Y 7310   1.122   0.279   6.373  1.6218  2.5518  2.1076
   79SLPC   C36 7311   1.000   0.439   6.286  0.3902 -0.4733 -0.0456
   79SLPC   H6X 7312   1.088   0.499   6.256  1.2849 -0.6176  2.1521
   79SLPC   H6Y 7313   0.907   0.495   6.309 -0.4483 -1.2709 -1.3048
   79SLPC   C37 7314   0.946   0.358   6.165  0.8271 -0.8149 -0.6097
   79SLPC   H7X 7315   0.861   0.291   6.187 -0.2683  1.0182  1.0596
   79SLPC   H7Y 7316   1.020   0.281   6.134 -0.2355 -2.4396  0.7670
   79SLPC   C38 7317   0.894   0.443   6.042  0.3391  0.2470 -0.4841
   79SLPC   H8X 7318   0.848   0.533   6.087  0.4680  0.6421 -1.1303
   79SLPC   H8Y 7319   0.818   0.383   5.987 -1.0739  2.2958 -0.8902
   79SLPC   C39 7320   1.017   0.480   5.959  0.2673  0.5581  0.4540
   79SLPC   H9X 7321   1.104   0.487   6.027  1.3215  0.6388 -0.8761
   79SLPC   H9Y 7322   0.990   0.577   5.911  1.6830  0.6463 -0.2162
   79SLPC  C310 7323   1.042   0.386   5.840  0.2309  0.4047  0.1405
   79SLPC  H10X 7324   0.946   0.336   5.815 -0.7108  1.5922  1.2020
   79SLPC  H10Y 7325   1.113   0.311   5.882 -1.0740 -0.1742  1.4277
   79SLPC  C311 7326   1.104   0.455   5.716  0.4257  1.1246  0.6694
   79SLPC  H11X 7327   1.043   0.534   5.667 -0.5966 -0.8498 -1.4209
   79SLPC  H11Y 7328   1.105   0.382   5.632 -1.7303  0.1698  1.4344
   79SLPC  C312 7329   1.240   0.512   5.738  0.4120 -1.2817  0.5285
   79SLPC  H12X 7330   1.308   0.430   5.769  1.8558  0.0795  1.0854
   79SLPC  H12Y 7331   1.256   0.580   5.825  1.1555 -0.0212 -0.5452
   79SLPC  C313 7332   1.292   0.575   5.601 -0.3911 -0.2347  0.6356
   79SLPC  H13X 7333   1.212   0.632   5.550 -0.1430 -1.1986 -0.8815
   79SLPC  H13Y 7334   1.306   0.486   5.537  0.7338 -0.6746  1.4493
   79SLPC  C314 7335   1.417   0.661   5.608 -0.3507  0.3563 -0.3232
   79SLPC  H14X 7336   1.492   0.595   5.656 -1.0353 -1.5060 -1.7325
   79SLPC  H14Y 7337   1.411   0.742   5.685  2.1078 -1.3600  1.8537
   79SLPC  C315 7338   1.465   0.717   5.470 -0.5154 -0.2368 -0.4691
   79SLPC  H15X 7339   1.507   0.814   5.504 -0.5853 -0.8395  1.5011
   79SLPC  H15Y 7340   1.376   0.728   5.404 -0.1851 -0.5629 -0.9663
   79SLPC  C316 7341   1.568   0.619   5.408  0.1102 -0.2494 -0.6388
   79SLPC  H16X 7342   1.532   0.513   5.403  1.3725 -0.7501  0.2643
   79SLPC  H16Y 7343   1.659   0.625   5.471  0.8247 -0.8094 -1.5834
   79SLPC  C317 7344   1.603   0.660   5.265 -0.0366  0.0552 -0.4332
   79SLPC  H17X 7345   1.694   0.604   5.234 -1.2356 -1.8741 -0.6607
   79SLPC  H17Y 7346   1.620   0.770   5.266  1.7866 -0.1982  0.0491
   79SLPC  C318 7347   1.496   0.618   5.170  0.4019 -0.1674  0.3474
   79SLPC  H18X 7348   1.391   0.626   5.204 -0.4435  2.6852 -2.4859
   79SLPC  H18Y 7349   1.513   0.510   5.149  0.4672 -0.6903  2.7521
   79SLPC  H18Z 7350   1.508   0.670   5.073 -2.2496 -0.9801 -0.4935
   80SLPC     N 7351   3.515   1.891   7.523  0.1829 -0.8212 -0.0102
   80SLPC   C13 7352   3.657   1.846   7.504  0.0294 -0.1351 -0.0382
   80SLPC  H13A 7353   3.667   1.739   7.487 -0.7165  0.1138 -2.5102
   80SLPC  H13B 7354   3.706   1.895   7.422  1.9723 -0.1297  1.0693
   80SLPC  H13C 7355   3.710   1.866   7.596  0.2892 -0.9568  0.0011
   80SLPC   C14 7356   3.520   2.038   7.539 -0.1936  0.4722 -0.3316
   80SLPC  H14A 7357   3.592   2.072   7.612 -1.6363  0.9417  0.9256
   80SLPC  H14B 7358   3.535   2.092   7.447  0.3410 -0.9944 -1.1293
   80SLPC  H14C 7359   3.425   2.082   7.567  1.6728  3.8082  1.4740
   80SLPC   C15 7360   3.462   1.828   7.649 -0.3188  0.2964 -0.0514
   80SLPC  H15A 7361   3.356   1.842   7.661 -0.1739  1.4707 -0.0153
   80SLPC  H15B 7362   3.488   1.723   7.655  1.3482  0.7538  1.6457
   80SLPC  H15C 7363   3.502   1.859   7.744 -0.4576 -0.5283  0.2858
   80SLPC   C12 7364   3.422   1.864   7.401 -0.2491  0.7933 -0.6579
   80SLPC  H12A 7365   3.420   1.757   7.389 -0.8989  0.9021 -1.5923
   80SLPC  H12B 7366   3.462   1.908   7.311 -1.2992 -1.4868 -2.3279
   80SLPC   C11 7367   3.269   1.905   7.398 -0.6288 -0.2294 -0.1333
   80SLPC  H11A 7368   3.224   1.910   7.296 -2.0536  0.5098  0.5066
   80SLPC  H11B 7369   3.260   2.012   7.426  2.0694 -0.0320  0.2196
   80SLPC     P 7370   3.154   1.684   7.450 -0.2451  0.4602 -0.1465
   80SLPC   O13 7371   3.273   1.592   7.443  0.3859 -0.2100  0.1768
   80SLPC   O14 7372   3.046   1.632   7.535  0.2597  0.2251 -0.1358
   80SLPC   O12 7373   3.189   1.834   7.493  0.2712 -0.0341  0.5754
   80SLPC   O11 7374   3.093   1.698   7.303 -0.1069  0.1305 -0.9674
   80SLPC    C1 7375   2.954   1.711   7.291  0.6032  0.6961 -0.6579
   80SLPC    HA 7376   2.897   1.735   7.383  1.5956  3.6629 -0.7164
   80SLPC    HB 7377   2.932   1.797   7.225  0.5785  0.2653 -1.2201
   80SLPC    C2 7378   2.882   1.592   7.221 -0.3560 -0.0716  0.1188
   80SLPC    HS 7379   2.933   1.507   7.271  0.7769  0.8392  0.5639
   80SLPC   O21 7380   2.911   1.607   7.083 -0.1499  0.3313 -0.0121
   80SLPC   C21 7381   2.957   1.491   7.022  0.2638  0.0135  0.1712
   80SLPC   O22 7382   3.001   1.392   7.082 -0.1766 -0.8136 -0.1010
   80SLPC   C22 7383   2.961   1.503   6.873  0.5308  0.0119 -0.1194
   80SLPC   H2R 7384   2.986   1.611   6.865  1.1895 -0.0498  0.8873
   80SLPC   H2S 7385   3.050   1.443   6.845  0.4390 -0.0683 -0.2364
   80SLPC    C3 7386   2.730   1.594   7.259 -0.1595  1.0352  0.3421
   80SLPC    HX 7387   2.689   1.690   7.221  2.2822  0.7167 -3.7556
   80SLPC    HY 7388   2.729   1.579   7.369  0.0239 -1.5905  0.0494
   80SLPC   O31 7389   2.673   1.491   7.183 -0.6674  0.0758  0.1096
   80SLPC   C31 7390   2.566   1.430   7.223  0.6487 -0.5260 -0.1702
   80SLPC   O32 7391   2.518   1.455   7.333  0.4934 -0.0285 -0.6965
   80SLPC   C32 7392   2.506   1.338   7.118  1.1256  0.3585  0.4539
   80SLPC   H2X 7393   2.395   1.348   7.122  1.0385 -0.8221  1.4664
   80SLPC   H2Y 7394   2.528   1.234   7.149  1.0865  0.5363  1.1015
   80SLPC   C23 7395   2.830   1.483   6.792 -0.0356  0.1140 -0.4004
   80SLPC   H3R 7396   2.745   1.549   6.817 -0.4916 -1.0782  1.3769
   80SLPC   H3S 7397   2.803   1.376   6.805  1.1727 -0.2095 -0.4427
   80SLPC   C24 7398   2.861   1.496   6.638 -0.2853  0.2034 -0.3844
   80SLPC   H4R 7399   2.908   1.594   6.614  0.0647 -0.1221 -1.0591
   80SLPC   H4S 7400   2.762   1.501   6.589 -1.9973  0.6993  2.8894
   80SLPC   C25 7401   2.961   1.390   6.586  0.2448  0.2336  0.2767
   80SLPC   H5R 7402   2.937   1.287   6.620  2.1232 -0.0996  0.7405
   80SLPC   H5S 7403   3.055   1.421   6.638 -0.3778 -2.4815  3.3112
   80SLPC   C26 7404   2.980   1.389   6.431 -0.4786  0.2818 -0.2128
   80SLPC   H6R 7405   3.064   1.326   6.394 -1.1844  1.1487 -3.6268
   80SLPC   H6S 7406   3.008   1.492   6.403 -0.5891  1.3843  3.2160
   80SLPC   C27 7407   2.863   1.341   6.346  0.5146  0.2323  0.7525
   80SLPC   H7R 7408   2.772   1.390   6.386 -0.0483 -0.3670  0.2278
   80SLPC   H7S 7409   2.848   1.231   6.358  1.2159  0.3045  2.7311
   80SLPC   C28 7410   2.864   1.397   6.198 -0.1370  0.4435  0.4015
   80SLPC   H8R 7411   2.898   1.502   6.196 -0.0146  0.3986  0.0127
   80SLPC   H8S 7412   2.757   1.393   6.166 -0.5760 -0.0311  1.8351
   80SLPC   C29 7413   2.936   1.299   6.104 -0.0275 -0.1280 -0.2438
   80SLPC   H9R 7414   2.883   1.204   6.091  2.1123 -1.5156  0.7669
   80SLPC  C210 7415   3.049   1.330   6.039  0.1509 -0.2553 -0.0060
   80SLPC  H10R 7416   3.109   1.259   5.981 -0.5101 -0.7821 -0.0663
   80SLPC  C211 7417   3.112   1.468   6.047 -0.3075 -0.1312  0.3598
   80SLPC  H11R 7418   3.222   1.452   6.049 -0.5539 -2.5233 -0.6419
   80SLPC  H11S 7419   3.104   1.511   6.148  1.6260  0.1811  0.4278
   80SLPC  C212 7420   3.081   1.560   5.933  0.1088 -0.5350 -0.4418
   80SLPC  H12R 7421   3.029   1.650   5.969  1.2879 -0.7058  1.8688
   80SLPC  C213 7422   3.120   1.552   5.804  0.5548  0.5686 -0.4392
   80SLPC  H13R 7423   3.086   1.624   5.728 -1.3702  0.3954  0.1863
   80SLPC  C214 7424   3.207   1.443   5.745  0.0365 -0.4504  0.1693
   80SLPC  H14R 7425   3.219   1.363   5.820 -2.1725 -1.4896 -0.4921
   80SLPC  H14S 7426   3.308   1.487   5.729 -0.2081  0.0300 -0.1144
   80SLPC  C215 7427   3.154   1.373   5.615  0.3689 -0.1139  0.2707
   80SLPC  H15R 7428   3.230   1.294   5.596 -0.1553 -0.0058 -2.8169
   80SLPC  H15S 7429   3.148   1.436   5.524 -2.4882 -0.9991 -0.2506
   80SLPC  C216 7430   3.023   1.290   5.635  0.4278  0.7580  0.3441
   80SLPC  H16R 7431   2.941   1.359   5.663 -0.2679 -0.1927  0.6853
   80SLPC  H16S 7432   3.030   1.222   5.723 -1.0501  0.9471  0.6225
   80SLPC  C217 7433   2.976   1.215   5.507 -0.2771  0.1549  0.1550
   80SLPC  H17R 7434   3.062   1.149   5.483  0.6140  1.5201 -0.5251
   80SLPC  H17S 7435   2.963   1.297   5.433  1.1925  1.0857  0.8959
   80SLPC  C218 7436   2.859   1.121   5.527  0.1305 -0.0326  0.1524
   80SLPC  H18R 7437   2.848   1.047   5.445  0.9319  0.1438 -0.1248
   80SLPC  H18S 7438   2.766   1.181   5.537  0.2866  0.0567  1.1763
   80SLPC  H18T 7439   2.876   1.068   5.623  0.4249  0.3954  0.3393
   80SLPC   C33 7440   2.553   1.367   6.975  0.2693  0.2096  0.0955
   80SLPC   H3X 7441   2.663   1.357   6.962  0.8805  0.6184  3.8758
   80SLPC   H3Y 7442   2.519   1.466   6.936 -0.7093  0.0918  0.6062
   80SLPC   C34 7443   2.497   1.251   6.881 -0.1200 -0.0147 -0.4502
   80SLPC   H4X 7444   2.386   1.255   6.873 -0.0785  0.3388 -0.8628
   80SLPC   H4Y 7445   2.510   1.153   6.931  1.7569  0.5183  0.1876
   80SLPC   C35 7446   2.558   1.258   6.735 -0.2965 -0.5482 -0.0563
   80SLPC   H5X 7447   2.662   1.221   6.745 -0.2723 -0.9966 -1.6813
   80SLPC   H5Y 7448   2.544   1.364   6.705 -3.5560 -1.0753 -0.8671
   80SLPC   C36 7449   2.486   1.176   6.625  0.1012 -1.2108 -0.2324
   80SLPC   H6X 7450   2.384   1.219   6.614  1.4263  1.8584 -1.6395
   80SLPC   H6Y 7451   2.462   1.072   6.657 -1.6914 -0.7385  0.0827
   80SLPC   C37 7452   2.564   1.180   6.493  0.4157 -0.0035 -0.4226
   80SLPC   H7X 7453   2.663   1.130   6.505  0.6305  0.8843  2.1475
   80SLPC   H7Y 7454   2.563   1.286   6.462 -0.6692  0.4182  0.9619
   80SLPC   C38 7455   2.485   1.098   6.396 -0.3378  0.3560 -0.0302
   80SLPC   H8X 7456   2.384   1.145   6.391 -1.1816 -1.3926 -0.3157
   80SLPC   H8Y 7457   2.469   0.991   6.421 -1.9205 -0.1057 -2.6840
   80SLPC   C39 7458   2.538   1.107   6.253 -0.3650  0.0141 -0.3214
   80SLPC   H9X 7459   2.636   1.057   6.244 -0.5252  0.0086 -3.0400
   80SLPC   H9Y 7460   2.559   1.215   6.237  0.3444  0.2567  1.9734
   80SLPC  C310 7461   2.446   1.043   6.141 -0.3761  0.1382 -0.8055
   80SLPC  H10X 7462   2.341   1.081   6.138 -0.4504  0.2677  1.7538
   80SLPC  H10Y 7463   2.443   0.936   6.169  2.7676 -0.8187 -3.4895
   80SLPC  C311 7464   2.512   1.053   6.004  0.5581 -0.0997 -0.1383
   80SLPC  H11X 7465   2.608   0.997   5.997  0.1440 -0.6757 -2.1176
   80SLPC  H11Y 7466   2.535   1.160   5.986 -1.2343 -0.0901 -3.2085
   80SLPC  C312 7467   2.408   1.015   5.890  0.4811 -0.3041 -0.4614
   80SLPC  H12X 7468   2.308   1.048   5.928  0.6015 -1.1912  0.6887
   80SLPC  H12Y 7469   2.412   0.904   5.882 -1.8308 -0.6172  1.4747
   80SLPC  C313 7470   2.433   1.084   5.756  0.0286 -0.8669  0.4097
   80SLPC  H13X 7471   2.534   1.059   5.716  0.1313 -1.0115  0.7543
   80SLPC  H13Y 7472   2.433   1.193   5.780 -0.3513 -0.9376  0.7354
   80SLPC  C314 7473   2.325   1.046   5.649  0.2757  0.6155  0.3988
   80SLPC  H14X 7474   2.337   1.112   5.560  1.2503  2.4971  1.8469
   80SLPC  H14Y 7475   2.224   1.065   5.692 -0.1798  1.5583 -1.0150
   80SLPC  C315 7476   2.338   0.897   5.599 -1.0690 -0.5391  0.4320
   80SLPC  H15X 7477   2.311   0.833   5.686  1.8904  0.2725  2.0745
   80SLPC  H15Y 7478   2.447   0.880   5.585  0.2617  4.8094  2.2240
   80SLPC  C316 7479   2.244   0.870   5.480 -0.0880  0.1603 -0.0908
   80SLPC  H16X 7480   2.278   0.773   5.439  1.2361  0.4508  0.2732
   80SLPC  H16Y 7481   2.261   0.952   5.407  2.4885  1.0094  1.3272
   80SLPC  C317 7482   2.096   0.856   5.517 -0.2960 -0.8655 -0.0677
   80SLPC  H17X 7483   2.067   0.954   5.561  1.4524  0.0521 -0.8325
   80SLPC  H17Y 7484   2.089   0.779   5.597  0.1949  0.0451  0.8770
   80SLPC  C318 7485   2.007   0.818   5.405  0.4982  0.1356 -0.7435
   80SLPC  H18X 7486   2.067   0.765   5.328  1.4167 -0.6386  0.4767
   80SLPC  H18Y 7487   1.971   0.910   5.355  0.5978  0.8432  0.4438
   80SLPC  H18Z 7488   1.923   0.758   5.444  0.5874  1.3588  1.4749
   81SLPC     N 7489   4.121   5.706   3.233 -0.7659 -0.2346 -0.7021
   81SLPC   C13 7490   4.047   5.814   3.309 -0.1678 -0.4200  0.9166
   81SLPC  H13A 7491   4.042   5.907   3.254 -1.1475 -1.7071 -1.3044
   81SLPC  H13B 7492   3.942   5.791   3.318 -0.1316 -1.5605 -1.0350
   81SLPC  H13C 7493   4.094   5.842   3.402  2.5818 -0.4592 -0.3713
   81SLPC   C14 7494   4.129   5.585   3.324  0.5151 -0.0663  0.3366
   81SLPC  H14A 7495   4.032   5.561   3.367  0.3949 -1.5185 -0.6854
   81SLPC  H14B 7496   4.172   5.495   3.282  0.2274  0.2405 -0.6406
   81SLPC  H14C 7497   4.201   5.591   3.405  0.8548 -1.4857  0.1731
   81SLPC   C15 7498   4.263   5.730   3.193  0.4580 -0.8775 -0.0133
   81SLPC  H15A 7499   4.334   5.703   3.269 -0.0520 -1.3934  0.2916
   81SLPC  H15B 7500   4.278   5.663   3.109 -0.7666  0.2247 -1.1695
   81SLPC  H15C 7501   4.279   5.827   3.148  1.0348 -1.8088 -1.9636
   81SLPC   C12 7502   4.042   5.662   3.104 -0.2006 -0.8974 -0.3684
   81SLPC  H12A 7503   3.940   5.642   3.134 -1.1315 -0.0096 -2.6565
   81SLPC  H12B 7504   4.094   5.581   3.056 -0.2622 -2.1986  1.6672
   81SLPC   C11 7505   4.033   5.771   2.994  0.2400 -0.2542  0.3305
   81SLPC  H11A 7506   4.123   5.782   2.929 -0.3079  0.1131 -0.3761
   81SLPC  H11B 7507   4.010   5.871   3.036 -2.6036  0.0730 -1.7539
   81SLPC     P 7508   3.778   5.779   2.951  0.2152 -0.0338  0.3132
   81SLPC   O13 7509   3.756   5.922   2.904 -0.0313  0.0302  0.2441
   81SLPC   O14 7510   3.682   5.679   2.901 -0.0491  0.4371 -0.3031
   81SLPC   O12 7511   3.923   5.735   2.914 -0.0401 -0.5077  0.2525
   81SLPC   O11 7512   3.768   5.784   3.109 -0.1607  0.8110  0.0733
   81SLPC    C1 7513   3.644   5.749   3.168  0.8323 -0.5878 -1.3335
   81SLPC    HA 7514   3.572   5.824   3.130  1.9498  1.4560  0.3431
   81SLPC    HB 7515   3.623   5.644   3.140  1.0661 -1.1191  0.3645
   81SLPC    C2 7516   3.658   5.757   3.329 -0.1678  0.3589  0.8925
   81SLPC    HS 7517   3.557   5.752   3.374 -0.4006 -0.3566  0.3152
   81SLPC   O21 7518   3.734   5.876   3.371 -0.4462  0.2908 -0.2056
   81SLPC   C21 7519   3.667   5.984   3.348 -0.3031  0.6836  0.4477
   81SLPC   O22 7520   3.546   5.989   3.324 -0.2088 -0.2780  0.1451
   81SLPC   C22 7521   3.755   6.106   3.371  1.1250  0.2179 -0.6968
   81SLPC   H2R 7522   3.851   6.083   3.421 -0.6545 -1.4216  2.2825
   81SLPC   H2S 7523   3.784   6.140   3.269 -0.2664  0.5257 -1.0164
   81SLPC    C3 7524   3.717   5.627   3.393 -0.1635  0.7310 -0.0988
   81SLPC    HX 7525   3.808   5.585   3.346 -0.1380  0.2337  0.3822
   81SLPC    HY 7526   3.640   5.550   3.371  0.5657  0.1340 -0.6189
   81SLPC   O31 7527   3.724   5.633   3.538  0.7712 -0.0959  0.4680
   81SLPC   C31 7528   3.832   5.590   3.595  0.0608 -0.5475 -0.7448
   81SLPC   O32 7529   3.941   5.569   3.539 -0.1731 -0.1167  0.0314
   81SLPC   C32 7530   3.800   5.594   3.749  0.1511  0.8463 -0.3658
   81SLPC   H2X 7531   3.878   5.531   3.797 -1.1114 -1.0188 -0.6572
   81SLPC   H2Y 7532   3.709   5.530   3.760  2.0458 -1.7811  1.4489
   81SLPC   C23 7533   3.676   6.222   3.437 -0.1170  0.0927 -0.0797
   81SLPC   H3R 7534   3.593   6.240   3.365 -0.2087 -0.3087 -0.0741
   81SLPC   H3S 7535   3.744   6.310   3.445  1.3588 -1.1807  2.2091
   81SLPC   C24 7536   3.616   6.184   3.575 -0.4158 -0.5707  0.3983
   81SLPC   H4R 7537   3.534   6.109   3.564 -0.7251 -0.4887  1.9296
   81SLPC   H4S 7538   3.568   6.272   3.623 -2.0101 -0.7076 -0.8418
   81SLPC   C25 7539   3.713   6.132   3.677  0.2140 -0.3347  0.4855
   81SLPC   H5R 7540   3.803   6.197   3.680  1.4534 -1.9400 -0.1250
   81SLPC   H5S 7541   3.746   6.028   3.658 -1.1344 -0.6132 -0.4603
   81SLPC   C26 7542   3.635   6.131   3.811 -0.1072  0.6345 -0.5109
   81SLPC   H6R 7543   3.571   6.040   3.816  1.6853 -0.7420 -1.6097
   81SLPC   H6S 7544   3.573   6.221   3.828 -0.6433 -0.0138  1.1672
   81SLPC   C27 7545   3.724   6.131   3.938  0.1245  0.2214  0.6578
   81SLPC   H7R 7546   3.785   6.223   3.953 -0.3993  0.6362  0.2586
   81SLPC   H7S 7547   3.807   6.062   3.910 -1.4472 -1.4114 -0.1212
   81SLPC   C28 7548   3.650   6.093   4.065 -0.2834 -0.0380  0.5568
   81SLPC   H8R 7549   3.581   6.008   4.048 -3.0694  2.1826  0.0010
   81SLPC   H8S 7550   3.595   6.186   4.089  0.6846  0.7770 -0.2891
   81SLPC   C29 7551   3.745   6.074   4.189 -0.2210 -0.6266 -0.5788
   81SLPC   H9R 7552   3.849   6.105   4.173 -0.6018  0.1354 -1.7141
   81SLPC  C210 7553   3.704   6.039   4.313  0.4644  0.1963  0.4482
   81SLPC  H10R 7554   3.776   6.036   4.396 -0.1873  1.7241  1.1143
   81SLPC  C211 7555   3.558   6.020   4.348 -0.8533  0.2981 -0.4634
   81SLPC  H11R 7556   3.526   5.914   4.357  1.7999 -0.8329 -2.8637
   81SLPC  H11S 7557   3.501   6.066   4.264 -0.8875  2.2380  0.5732
   81SLPC  C212 7558   3.533   6.103   4.479 -0.0479  0.0816  0.3486
   81SLPC  H12R 7559   3.518   6.211   4.460 -2.1555 -0.5406 -2.1071
   81SLPC  C213 7560   3.515   6.056   4.608 -0.0774 -0.7392 -0.0095
   81SLPC  H13R 7561   3.467   6.124   4.680 -1.7464  0.2123 -1.9048
   81SLPC  C214 7562   3.533   5.915   4.649 -0.2791  0.3666  0.2442
   81SLPC  H14R 7563   3.570   5.850   4.567 -0.3195 -1.2757  1.4729
   81SLPC  H14S 7564   3.439   5.866   4.681  0.3057 -0.8395  0.1651
   81SLPC  C215 7565   3.631   5.894   4.765 -0.3563 -0.2178 -0.1855
   81SLPC  H15R 7566   3.615   5.795   4.814 -0.3937 -0.5826 -0.9141
   81SLPC  H15S 7567   3.600   5.961   4.848 -2.7630  0.4490 -1.5151
   81SLPC  C216 7568   3.780   5.877   4.717 -1.4083 -0.4158  0.3715
   81SLPC  H16R 7569   3.801   5.984   4.694 -0.4255 -0.1875  2.2091
   81SLPC  H16S 7570   3.784   5.817   4.623 -2.5802 -0.3438  0.2595
   81SLPC  C217 7571   3.884   5.842   4.821  0.1909 -0.1482 -0.3384
   81SLPC  H17R 7572   3.860   5.915   4.902  0.5477 -1.9352  1.4778
   81SLPC  H17S 7573   3.988   5.869   4.795 -0.1409  0.1081 -1.4354
   81SLPC  C218 7574   3.876   5.706   4.881  0.3579  0.3799 -1.0825
   81SLPC  H18R 7575   3.773   5.673   4.906  1.0220 -0.5249  0.6975
   81SLPC  H18S 7576   3.928   5.713   4.979 -1.3577  3.3594 -0.2984
   81SLPC  H18T 7577   3.912   5.627   4.811  1.6396  0.5865 -0.6912
   81SLPC   C33 7578   3.799   5.734   3.802  0.3246  0.6719  0.5382
   81SLPC   H3X 7579   3.726   5.795   3.744  0.0492  0.3990  0.5995
   81SLPC   H3Y 7580   3.897   5.779   3.776  0.7690 -0.0212  1.0057
   81SLPC   C34 7581   3.761   5.750   3.945  0.7380  0.4857 -0.2080
   81SLPC   H4X 7582   3.655   5.721   3.953  1.1175 -1.6562 -1.8085
   81SLPC   H4Y 7583   3.761   5.857   3.973 -2.9609  0.1695  1.5453
   81SLPC   C35 7584   3.849   5.662   4.039  0.6588  0.1625 -0.2394
   81SLPC   H5X 7585   3.942   5.721   4.057  0.0929  0.5795  1.5407
   81SLPC   H5Y 7586   3.876   5.562   3.999  0.0396  0.6215 -1.8826
   81SLPC   C36 7587   3.780   5.648   4.178  0.5740  0.6734 -0.1947
   81SLPC   H6X 7588   3.685   5.590   4.172  0.5787  0.6890 -0.4634
   81SLPC   H6Y 7589   3.754   5.753   4.203  0.6887  0.7946 -0.5633
   81SLPC   C37 7590   3.870   5.597   4.300  0.0461 -0.3028  0.5805
   81SLPC   H7X 7591   3.939   5.671   4.346 -1.3782  1.2042  0.4150
   81SLPC   H7Y 7592   3.928   5.511   4.262 -2.7239 -2.1384  0.1946
   81SLPC   C38 7593   3.782   5.553   4.421  0.2656 -0.5226  0.5842
   81SLPC   H8X 7594   3.722   5.462   4.399 -0.9559  0.5751 -0.8867
   81SLPC   H8Y 7595   3.715   5.629   4.465  0.5589  0.0048  0.1389
   81SLPC   C39 7596   3.878   5.499   4.522 -0.7092 -0.2170 -0.9123
   81SLPC   H9X 7597   3.922   5.592   4.566  0.6628 -1.6650  0.9155
   81SLPC   H9Y 7598   3.959   5.445   4.469 -0.1190 -2.0948  1.7000
   81SLPC  C310 7599   3.812   5.405   4.631  0.5962 -0.8497  0.2985
   81SLPC  H10X 7600   3.750   5.332   4.575  0.2399  0.2029 -0.6962
   81SLPC  H10Y 7601   3.743   5.467   4.692 -1.2473 -1.8493 -0.6800
   81SLPC  C311 7602   3.922   5.327   4.715  1.1982  0.0340 -0.6612
   81SLPC  H11X 7603   3.999   5.382   4.773 -0.9299  1.3757  1.0883
   81SLPC  H11Y 7604   3.977   5.263   4.644  1.0240  0.7399 -1.4422
   81SLPC  C312 7605   3.857   5.215   4.803 -0.3025 -0.6735  0.5018
   81SLPC  H12X 7606   3.948   5.154   4.824  0.7680  0.4372 -0.6847
   81SLPC  H12Y 7607   3.790   5.158   4.736 -1.4011  1.5195 -0.3876
   81SLPC  C313 7608   3.778   5.259   4.927 -0.5385 -0.6133  0.5071
   81SLPC  H13X 7609   3.735   5.167   4.973 -1.1374 -0.3445  0.4977
   81SLPC  H13Y 7610   3.708   5.339   4.894  1.5777  0.1452 -2.5665
   81SLPC  C314 7611   3.861   5.301   5.046 -0.5524 -0.3897 -0.2606
   81SLPC  H14X 7612   3.931   5.382   5.015  1.0734 -1.3087  0.8858
   81SLPC  H14Y 7613   3.930   5.220   5.076  1.4096  1.2515 -0.1388
   81SLPC  C315 7614   3.772   5.361   5.153  0.3482 -0.0268  0.3152
   81SLPC  H15X 7615   3.702   5.287   5.197  1.3712 -0.7047  0.8275
   81SLPC  H15Y 7616   3.714   5.445   5.109 -0.9364 -1.1303 -0.1535
   81SLPC  C316 7617   3.841   5.404   5.283 -0.1888  1.0118  0.0052
   81SLPC  H16X 7618   3.870   5.306   5.326 -0.1503  1.2409  0.5065
   81SLPC  H16Y 7619   3.762   5.436   5.354  0.7831 -1.6143  2.5051
   81SLPC  C317 7620   3.945   5.512   5.268  0.3912  0.5617 -0.6694
   81SLPC  H17X 7621   3.921   5.608   5.217 -0.7452 -0.1500 -1.5070
   81SLPC  H17Y 7622   4.018   5.459   5.204  1.2942 -2.5405  2.6120
   81SLPC  C318 7623   4.009   5.532   5.409  0.0071  0.1201 -0.4869
   81SLPC  H18X 7624   4.092   5.606   5.404  1.4489 -1.5344 -3.1387
   81SLPC  H18Y 7625   4.051   5.436   5.446 -0.2728 -0.5683 -1.9016
   81SLPC  H18Z 7626   3.926   5.554   5.479  0.0839  0.8877 -0.6239
   82SLPC     N 7627   3.119   5.160   2.930  0.1756  0.1608  0.4406
   82SLPC   C13 7628   2.981   5.115   2.899 -0.2067  0.3350 -0.1135
   82SLPC  H13A 7629   2.935   5.075   2.989 -1.4431  0.4584 -0.6674
   82SLPC  H13B 7630   2.928   5.203   2.865 -1.1152 -0.4452 -0.7861
   82SLPC  H13C 7631   2.984   5.035   2.826 -0.0244  0.0208  0.2347
   82SLPC   C14 7632   3.181   5.224   2.813  0.6655  0.1844  0.4397
   82SLPC  H14A 7633   3.156   5.323   2.778 -0.1797 -1.0146 -2.7229
   82SLPC  H14B 7634   3.289   5.230   2.825  0.4590  1.5948  1.9980
   82SLPC  H14C 7635   3.154   5.153   2.737  0.1951 -1.4874  2.1192
   82SLPC   C15 7636   3.198   5.040   2.970  0.5157  0.3996 -0.0362
   82SLPC  H15A 7637   3.203   4.967   2.891 -0.7176  0.8304 -0.5452
   82SLPC  H15B 7638   3.300   5.058   3.000  0.0362 -2.0995  3.8583
   82SLPC  H15C 7639   3.146   4.991   3.051 -1.1903  1.9555 -0.1212
   82SLPC   C12 7640   3.117   5.255   3.054  0.3846  0.1468 -0.0891
   82SLPC  H12A 7641   3.221   5.274   3.074  0.1099  2.0998 -0.3002
   82SLPC  H12B 7642   3.088   5.203   3.144 -0.1565  0.9529  0.2196
   82SLPC   C11 7643   3.045   5.396   3.038 -0.5028  0.0222  0.4637
   82SLPC  H11A 7644   3.093   5.453   2.955  0.7588 -0.7561  0.6385
   82SLPC  H11B 7645   3.065   5.459   3.128  2.9842  1.5013 -1.1757
   82SLPC     P 7646   2.811   5.343   3.143 -0.0607 -0.1492 -0.0035
   82SLPC   O13 7647   2.669   5.350   3.099 -0.1638  0.0978 -0.7571
   82SLPC   O14 7648   2.856   5.215   3.208  0.3020 -0.2401  0.1771
   82SLPC   O12 7649   2.901   5.386   3.025  0.2222  0.2981 -0.0981
   82SLPC   O11 7650   2.825   5.470   3.232 -0.3251  0.0850 -0.9126
   82SLPC    C1 7651   2.915   5.485   3.340  1.0331 -0.5308 -0.2429
   82SLPC    HA 7652   2.979   5.397   3.365 -0.3252 -0.6575  3.4044
   82SLPC    HB 7653   2.980   5.572   3.317  3.4497 -1.0601  3.7096
   82SLPC    C2 7654   2.830   5.521   3.469 -0.2491 -0.1538  0.3714
   82SLPC    HS 7655   2.903   5.565   3.540  0.4114  0.4968 -0.6873
   82SLPC   O21 7656   2.746   5.411   3.515 -0.2557  0.6303  0.2077
   82SLPC   C21 7657   2.817   5.321   3.575 -0.3001  0.4515  0.1238
   82SLPC   O22 7658   2.934   5.340   3.605  0.3912 -0.5971  0.2635
   82SLPC   C22 7659   2.745   5.190   3.590  0.4867  0.7281 -0.0918
   82SLPC   H2R 7660   2.637   5.216   3.582  0.4423  0.1536 -1.6871
   82SLPC   H2S 7661   2.763   5.127   3.501 -1.0171 -3.0927  2.0737
   82SLPC    C3 7662   2.725   5.632   3.432 -0.2019  0.6553  0.9211
   82SLPC    HX 7663   2.656   5.600   3.350  0.5980 -1.0818  0.8790
   82SLPC    HY 7664   2.775   5.723   3.394 -1.8443  1.1700 -0.1157
   82SLPC   O31 7665   2.666   5.685   3.544  0.5522  0.1501 -0.5111
   82SLPC   C31 7666   2.540   5.644   3.557 -0.5662 -0.8419  0.0639
   82SLPC   O32 7667   2.472   5.582   3.475 -0.6319 -0.0586  0.1207
   82SLPC   C32 7668   2.484   5.696   3.687  0.1732 -0.2821 -0.7807
   82SLPC   H2X 7669   2.410   5.617   3.714 -1.2621  1.3221  0.1812
   82SLPC   H2Y 7670   2.423   5.785   3.659 -2.0552 -1.9869 -1.7332
   82SLPC   C23 7671   2.792   5.112   3.719  0.2543  0.6189  0.1247
   82SLPC   H3R 7672   2.786   5.182   3.805 -1.9265  0.0265  0.5017
   82SLPC   H3S 7673   2.901   5.108   3.696  0.3897  2.5313  0.3033
   82SLPC   C24 7674   2.708   4.986   3.747  0.3029  0.4207 -0.3380
   82SLPC   H4R 7675   2.697   4.926   3.654 -0.6822 -0.7356  0.4920
   82SLPC   H4S 7676   2.605   5.021   3.765  0.3920  0.3907  0.2342
   82SLPC   C25 7677   2.767   4.902   3.857  0.2605  0.4500  0.3610
   82SLPC   H5R 7678   2.807   4.974   3.932  2.8710  0.7349 -1.1924
   82SLPC   H5S 7679   2.862   4.861   3.816  0.9540  2.4815 -0.1970
   82SLPC   C26 7680   2.665   4.797   3.907  0.3909  0.3014  0.3098
   82SLPC   H6R 7681   2.657   4.726   3.822 -0.0175 -1.7532  1.9887
   82SLPC   H6S 7682   2.572   4.844   3.945  0.1190  0.2755 -0.3193
   82SLPC   C27 7683   2.717   4.716   4.032  0.0893  0.1794  0.6930
   82SLPC   H7R 7684   2.823   4.691   4.011 -0.3945  0.3797 -2.4578
   82SLPC   H7S 7685   2.665   4.618   4.027  0.6870 -0.0826 -1.5301
   82SLPC   C28 7686   2.700   4.787   4.166 -0.0585  0.3131 -0.3680
   82SLPC   H8R 7687   2.595   4.771   4.198  0.4186  1.8181  2.1934
   82SLPC   H8S 7688   2.726   4.894   4.160 -0.3951  0.4316  0.1814
   82SLPC   C29 7689   2.798   4.733   4.272  0.4384 -0.2270 -0.0722
   82SLPC   H9R 7690   2.904   4.758   4.253  0.9301 -1.9874  0.1348
   82SLPC  C210 7691   2.775   4.672   4.388  0.2696 -0.2299 -0.7103
   82SLPC  H10R 7692   2.852   4.635   4.457 -0.3711 -1.7569 -0.7660
   82SLPC  C211 7693   2.642   4.636   4.452  0.4788  0.0366  0.3759
   82SLPC  H11R 7694   2.551   4.673   4.400 -0.1242 -1.8124  0.0346
   82SLPC  H11S 7695   2.637   4.687   4.551 -0.5724  0.3412  0.1783
   82SLPC  C212 7696   2.619   4.483   4.455 -0.3743 -0.5312 -0.1988
   82SLPC  H12R 7697   2.652   4.420   4.371  1.0048  1.0541 -0.9026
   82SLPC  C213 7698   2.556   4.418   4.556  0.7916  0.2165  0.1924
   82SLPC  H13R 7699   2.543   4.309   4.544 -3.6682  0.5811  0.2314
   82SLPC  C214 7700   2.514   4.481   4.685  0.3442 -0.1302 -0.5280
   82SLPC  H14R 7701   2.414   4.441   4.709  0.4500 -0.4138 -0.5654
   82SLPC  H14S 7702   2.501   4.592   4.688 -2.5235 -0.2070 -4.1486
   82SLPC  C215 7703   2.610   4.451   4.812 -0.0015  0.2251  0.3412
   82SLPC  H15R 7704   2.717   4.457   4.785  0.1401  0.6443  0.9913
   82SLPC  H15S 7705   2.599   4.348   4.854 -0.0096 -0.0956 -0.4347
   82SLPC  C216 7706   2.603   4.553   4.925  0.1685 -0.2027  0.6900
   82SLPC  H16R 7707   2.606   4.659   4.893 -2.2218 -0.2168  0.2365
   82SLPC  H16S 7708   2.682   4.528   4.999 -0.1819 -1.6641  0.6073
   82SLPC  C217 7709   2.463   4.546   4.994 -0.3952 -0.4396 -0.4082
   82SLPC  H17R 7710   2.457   4.453   5.054  1.0696  0.7654  1.7325
   82SLPC  H17S 7711   2.383   4.556   4.917  1.3382  0.8765 -2.1438
   82SLPC  C218 7712   2.445   4.667   5.091 -0.3237  0.0319 -0.0140
   82SLPC  H18R 7713   2.513   4.646   5.176 -1.2444 -0.5473  0.5962
   82SLPC  H18S 7714   2.342   4.692   5.124 -0.8050 -0.6320 -0.9651
   82SLPC  H18T 7715   2.483   4.758   5.039 -0.3346  0.7312  1.1671
   82SLPC   C33 7716   2.577   5.729   3.808 -0.2310  0.5465  0.4125
   82SLPC   H3X 7717   2.645   5.804   3.762  1.3167 -1.4361 -0.6749
   82SLPC   H3Y 7718   2.639   5.641   3.832  1.3050  0.5819 -2.9072
   82SLPC   C34 7719   2.501   5.778   3.932  0.0493  0.3881  1.0849
   82SLPC   H4X 7720   2.397   5.808   3.909  0.5542  0.6751 -1.0620
   82SLPC   H4Y 7721   2.554   5.868   3.969 -1.4174  1.6411  0.2537
   82SLPC   C35 7722   2.506   5.687   4.046  0.1582  0.1916  0.8413
   82SLPC   H5X 7723   2.484   5.581   4.022 -2.1922  0.2908  2.2502
   82SLPC   H5Y 7724   2.419   5.717   4.108 -0.6524 -2.6024  1.1716
   82SLPC   C36 7725   2.634   5.697   4.125 -0.1705 -0.2013 -0.6680
   82SLPC   H6X 7726   2.642   5.804   4.155  0.1715 -0.0741 -1.1993
   82SLPC   H6Y 7727   2.717   5.659   4.062 -1.4052 -2.4215 -1.0763
   82SLPC   C37 7728   2.636   5.604   4.249  0.2540  0.3892 -0.3473
   82SLPC   H7X 7729   2.726   5.639   4.305  1.2522  1.8315 -2.7216
   82SLPC   H7Y 7730   2.655   5.497   4.229  1.3370  0.1525  1.6543
   82SLPC   C38 7731   2.516   5.609   4.345 -0.0875 -0.0109  0.2948
   82SLPC   H8X 7732   2.422   5.580   4.293 -1.5505  1.2897  2.1240
   82SLPC   H8Y 7733   2.498   5.710   4.386  0.3700  0.7849 -1.3752
   82SLPC   C39 7734   2.551   5.525   4.473  0.2053 -0.1277  0.3444
   82SLPC   H9X 7735   2.625   5.581   4.534  0.1861 -0.3721  0.5919
   82SLPC   H9Y 7736   2.596   5.429   4.438  0.2776  0.2749 -0.7166
   82SLPC  C310 7737   2.420   5.488   4.554 -0.1580 -0.1095  0.2864
   82SLPC  H10X 7738   2.364   5.420   4.486 -0.6445  1.4203 -0.9100
   82SLPC  H10Y 7739   2.366   5.583   4.575  0.0435  0.2998 -0.9479
   82SLPC  C311 7740   2.445   5.415   4.682 -0.0236  0.4247  0.1860
   82SLPC  H11X 7741   2.531   5.347   4.665 -0.7323 -0.3662 -0.3169
   82SLPC  H11Y 7742   2.351   5.364   4.711  1.0729 -1.6817  0.2062
   82SLPC  C312 7743   2.489   5.509   4.804 -0.1907  0.0780  0.5157
   82SLPC  H12X 7744   2.412   5.589   4.806 -0.0672  0.1974  0.5161
   82SLPC  H12Y 7745   2.586   5.556   4.779 -0.8640  0.9978 -0.4885
   82SLPC  C313 7746   2.501   5.444   4.933  0.5991 -0.0613 -0.5392
   82SLPC  H13X 7747   2.596   5.389   4.953  0.2346 -0.3208  0.5357
   82SLPC  H13Y 7748   2.417   5.378   4.965  0.9333  0.2241  1.0170
   82SLPC  C314 7749   2.507   5.556   5.040 -0.3770 -0.8680 -0.4081
   82SLPC  H14X 7750   2.421   5.624   5.025 -0.9930 -1.3785  0.6904
   82SLPC  H14Y 7751   2.592   5.617   5.003 -1.4779 -0.3442 -2.1908
   82SLPC  C315 7752   2.536   5.517   5.182  0.1710 -0.6457  0.2553
   82SLPC  H15X 7753   2.646   5.503   5.192 -0.0493 -2.7815  0.1011
   82SLPC  H15Y 7754   2.487   5.418   5.196  1.7280 -1.9395 -2.6099
   82SLPC  C316 7755   2.494   5.607   5.295  0.2877 -0.0786  0.1824
   82SLPC  H16X 7756   2.528   5.548   5.383  0.8756 -1.7293 -1.0776
   82SLPC  H16Y 7757   2.384   5.618   5.303  0.4993  1.0339  2.2246
   82SLPC  C317 7758   2.544   5.745   5.291  0.2950  0.5344 -0.7338
   82SLPC  H17X 7759   2.509   5.805   5.204  0.0321  3.4286  1.2248
   82SLPC  H17Y 7760   2.654   5.736   5.282  0.2329 -1.0115 -0.2237
   82SLPC  C318 7761   2.509   5.814   5.422 -0.2186 -0.0675  0.9987
   82SLPC  H18X 7762   2.575   5.776   5.503  2.0660  2.3260  0.3920
   82SLPC  H18Y 7763   2.405   5.799   5.456 -1.1810  0.4703 -1.4970
   82SLPC  H18Z 7764   2.532   5.922   5.420  0.0091 -0.0871  1.9889
   83SLPC     N 7765   2.976   0.109   2.512 -0.1096  0.0163  0.0107
   83SLPC   C13 7766   3.092   0.181   2.457 -0.1619 -0.1830 -0.3239
   83SLPC  H13A 7767   3.063   0.255   2.384  0.3171  0.6932  0.3524
   83SLPC  H13B 7768   3.142   0.236   2.535  0.2172  2.8681 -2.5272
   83SLPC  H13C 7769   3.165   0.115   2.414 -0.7642  0.8051 -3.0771
   83SLPC   C14 7770   2.888   0.078   2.396  0.1096  0.1859  0.2061
   83SLPC  H14A 7771   2.850   0.164   2.343  0.9633 -0.3964 -1.4260
   83SLPC  H14B 7772   2.936   0.026   2.315 -1.5570 -2.0585  0.5552
   83SLPC  H14C 7773   2.806   0.021   2.437 -0.7486  0.9321 -0.4338
   83SLPC   C15 7774   2.899   0.194   2.607  0.1504 -0.1582  0.7367
   83SLPC  H15A 7775   2.973   0.250   2.663  1.2732  0.0512 -0.8855
   83SLPC  H15B 7776   2.829   0.261   2.560 -1.9463 -0.3938  3.2937
   83SLPC  H15C 7777   2.843   0.130   2.674  0.5570 -1.1379  0.1673
   83SLPC   C12 7778   3.017  -0.021   2.581  0.7970 -0.5808  0.1217
   83SLPC  H12A 7779   3.080   0.011   2.663  1.0338  0.0662 -0.3085
   83SLPC  H12B 7780   3.069  -0.084   2.511  1.1451 -1.4835  1.1595
   83SLPC   C11 7781   2.912  -0.102   2.655 -0.0151  0.7263  0.2194
   83SLPC  H11A 7782   2.957  -0.200   2.682  0.7417  1.1183  0.4013
   83SLPC  H11B 7783   2.829  -0.117   2.583 -0.0237  1.8287 -0.0145
   83SLPC     P 7784   2.771  -0.112   2.873 -0.3759 -0.0354  0.2243
   83SLPC   O13 7785   2.655  -0.165   2.801  0.0545 -0.1236  0.0480
   83SLPC   O14 7786   2.853  -0.199   2.959  0.8974 -0.0028 -0.3452
   83SLPC   O12 7787   2.870  -0.039   2.772 -1.0382  0.1038 -0.1771
   83SLPC   O11 7788   2.728   0.006   2.958 -0.6440  0.3201  0.3352
   83SLPC    C1 7789   2.817   0.084   3.037 -0.1095 -0.2168 -1.0103
   83SLPC    HA 7790   2.917   0.036   3.048  0.0819  0.6412  2.0909
   83SLPC    HB 7791   2.829   0.187   2.999 -3.0010  0.7122  0.3064
   83SLPC    C2 7792   2.775   0.098   3.194  0.7306  0.1524  0.6560
   83SLPC    HS 7793   2.671   0.136   3.178 -0.6129 -3.7163 -1.1742
   83SLPC   O21 7794   2.863   0.177   3.261  0.2483 -0.6499 -0.5799
   83SLPC   C21 7795   2.809   0.274   3.340 -0.0671 -0.5349  0.2694
   83SLPC   O22 7796   2.690   0.286   3.364 -0.4448 -0.2521  0.2099
   83SLPC   C22 7797   2.911   0.369   3.388  0.4673 -0.4137  0.5616
   83SLPC   H2R 7798   2.937   0.427   3.297 -1.6103 -1.5541 -0.8464
   83SLPC   H2S 7799   2.868   0.438   3.464  2.8827  2.6088 -0.6306
   83SLPC    C3 7800   2.766  -0.041   3.258 -0.5143 -0.4044 -0.7491
   83SLPC    HX 7801   2.874  -0.066   3.251  0.7004  4.2175 -2.8631
   83SLPC    HY 7802   2.710  -0.114   3.196 -1.0818  1.4952 -2.5766
   83SLPC   O31 7803   2.725  -0.050   3.398  0.2380  0.1137 -0.3651
   83SLPC   C31 7804   2.606  -0.024   3.430  0.9329 -0.5132  0.7645
   83SLPC   O32 7805   2.517   0.015   3.353 -0.0894 -0.7506 -0.1814
   83SLPC   C32 7806   2.588  -0.049   3.582 -0.0513 -0.0733 -0.3140
   83SLPC   H2X 7807   2.687  -0.070   3.628  0.0832 -0.8465 -0.9409
   83SLPC   H2Y 7808   2.518  -0.135   3.591 -0.7335  0.6964  3.2180
   83SLPC   C23 7809   3.035   0.289   3.445  0.9800 -0.2959 -0.2664
   83SLPC   H3R 7810   3.112   0.361   3.478 -0.6324  0.8869  1.0888
   83SLPC   H3S 7811   3.072   0.226   3.361  0.2169 -2.1353  0.7077
   83SLPC   C24 7812   2.997   0.195   3.561 -0.2630  0.4549 -0.2360
   83SLPC   H4R 7813   2.944   0.105   3.525 -1.4052  1.2328 -0.5563
   83SLPC   H4S 7814   2.930   0.261   3.622 -0.7864  1.4459 -1.8309
   83SLPC   C25 7815   3.114   0.144   3.647  0.5033 -0.5883  0.7728
   83SLPC   H5R 7816   3.157   0.231   3.701 -0.9902  1.0399 -0.5337
   83SLPC   H5S 7817   3.190   0.107   3.575 -1.4783 -2.0695 -0.6718
   83SLPC   C26 7818   3.089   0.037   3.753  0.5317  0.1380 -0.1295
   83SLPC   H6R 7819   3.189   0.000   3.785  1.9674  2.0849 -2.0762
   83SLPC   H6S 7820   3.028  -0.042   3.703  1.9354 -1.1970  0.1817
   83SLPC   C27 7821   3.008   0.080   3.875  0.0933  0.0966 -0.2534
   83SLPC   H7R 7822   2.903   0.104   3.846  0.0317  0.8440  0.5572
   83SLPC   H7S 7823   3.050   0.175   3.914 -2.3935  0.0646  2.8598
   83SLPC   C28 7824   3.005  -0.031   3.994 -1.1345 -0.7264 -0.2203
   83SLPC   H8R 7825   2.988  -0.128   3.942 -0.9719 -1.6896  1.4740
   83SLPC   H8S 7826   2.918  -0.012   4.059 -0.1456  0.8259  0.7019
   83SLPC   C29 7827   3.132  -0.041   4.069 -0.7443  0.4598  0.2646
   83SLPC   H9R 7828   3.219  -0.059   4.004 -0.5269 -0.8335  0.8852
   83SLPC  C210 7829   3.162  -0.026   4.195  0.5610  0.6656  0.2653
   83SLPC  H10R 7830   3.265  -0.039   4.230  0.0542 -1.0434  1.2697
   83SLPC  C211 7831   3.068   0.012   4.307  0.1806  0.4871 -0.0184
   83SLPC  H11R 7832   3.093  -0.052   4.394  0.2265  1.1591  0.4652
   83SLPC  H11S 7833   2.964  -0.022   4.292  0.4592  0.4140 -2.2811
   83SLPC  C212 7834   3.078   0.156   4.354  0.5947 -1.0022 -0.7493
   83SLPC  H12R 7835   3.017   0.224   4.293  1.8602 -0.5939 -1.5997
   83SLPC  C213 7836   3.133   0.210   4.462  0.5603  0.9111 -0.9728
   83SLPC  H13R 7837   3.117   0.318   4.477 -1.0339  0.7508 -1.3690
   83SLPC  C214 7838   3.217   0.144   4.569 -0.4507  0.3035 -0.1609
   83SLPC  H14R 7839   3.314   0.195   4.587 -1.1552  1.0636  1.6480
   83SLPC  H14S 7840   3.249   0.045   4.529  0.1290  1.7579 -3.7530
   83SLPC  C215 7841   3.159   0.129   4.708  0.5616  0.3403  0.4061
   83SLPC  H15R 7842   3.159   0.226   4.762  0.5968  0.9699 -0.7024
   83SLPC  H15S 7843   3.222   0.061   4.770  0.5489  0.8692  1.0038
   83SLPC  C216 7844   3.018   0.070   4.704  0.4217  0.6943  1.2022
   83SLPC  H16R 7845   3.022  -0.019   4.638  2.4458  0.2285  1.8881
   83SLPC  H16S 7846   2.949   0.148   4.663 -1.2408 -0.8863  0.8493
   83SLPC  C217 7847   2.958   0.020   4.837 -0.4910 -0.4105  0.2129
   83SLPC  H17R 7848   2.915   0.103   4.897  1.1076  1.0689 -0.6437
   83SLPC  H17S 7849   3.045  -0.029   4.885  0.1111  0.1415 -0.3170
   83SLPC  C218 7850   2.851  -0.081   4.816 -0.2436  0.3030  0.1375
   83SLPC  H18R 7851   2.898  -0.174   4.779 -1.2763 -0.0249 -0.3744
   83SLPC  H18S 7852   2.780  -0.046   4.738 -0.7633 -0.6032  0.1967
   83SLPC  H18T 7853   2.792  -0.099   4.908 -0.6958 -0.4900 -0.3044
   83SLPC   C33 7854   2.549   0.082   3.650  0.9325 -0.6152  0.0483
   83SLPC   H3X 7855   2.454   0.122   3.610  0.9619 -0.1015  0.4845
   83SLPC   H3Y 7856   2.619   0.164   3.626 -1.1404  0.6134 -2.2425
   83SLPC   C34 7857   2.551   0.066   3.801  0.6579  0.1506 -0.0434
   83SLPC   H4X 7858   2.647   0.015   3.828  1.6820  1.0482 -1.8023
   83SLPC   H4Y 7859   2.465   0.009   3.842 -0.0646  0.4882 -1.0806
   83SLPC   C35 7860   2.546   0.200   3.878 -0.0359  0.2139 -0.3321
   83SLPC   H5X 7861   2.457   0.258   3.845 -0.7974 -1.7435 -1.9975
   83SLPC   H5Y 7862   2.638   0.254   3.847  2.7973 -2.6805  2.2013
   83SLPC   C36 7863   2.527   0.186   4.032 -0.0227 -0.4776 -0.5658
   83SLPC   H6X 7864   2.478   0.090   4.058  0.0958 -0.5590 -0.6395
   83SLPC   H6Y 7865   2.472   0.273   4.075  2.0856  0.4711  0.3633
   83SLPC   C37 7866   2.667   0.187   4.106  0.2470  0.7108 -0.2000
   83SLPC   H7X 7867   2.725   0.278   4.081  2.3719 -1.1319 -2.5268
   83SLPC   H7Y 7868   2.735   0.113   4.058 -0.9056 -0.2806 -0.3553
   83SLPC   C38 7869   2.666   0.150   4.257 -0.2434  0.3423 -0.9176
   83SLPC   H8X 7870   2.767   0.122   4.293 -0.7578 -0.7418 -0.2854
   83SLPC   H8Y 7871   2.605   0.060   4.280  1.8179 -0.2179  3.3593
   83SLPC   C39 7872   2.637   0.270   4.348 -0.2707  0.0406  0.1219
   83SLPC   H9X 7873   2.543   0.315   4.311  0.2525  2.1808  1.2429
   83SLPC   H9Y 7874   2.717   0.347   4.346 -1.5417  1.4307  0.6717
   83SLPC  C310 7875   2.634   0.232   4.493  0.6861  0.4786 -0.1549
   83SLPC  H10X 7876   2.732   0.192   4.527  1.6085  1.2832 -1.7480
   83SLPC  H10Y 7877   2.564   0.148   4.514  0.8480  0.4465  0.2680
   83SLPC  C311 7878   2.613   0.348   4.589  0.4189  0.0507 -0.2065
   83SLPC  H11X 7879   2.529   0.410   4.551 -0.2034  0.1971  1.3535
   83SLPC  H11Y 7880   2.695   0.423   4.578 -1.4711  1.9899 -1.9502
   83SLPC  C312 7881   2.598   0.305   4.728 -0.2454  0.3256  0.3265
   83SLPC  H12X 7882   2.673   0.226   4.754 -0.8880  0.6292  3.5505
   83SLPC  H12Y 7883   2.505   0.248   4.750 -0.7205  0.7534 -0.5259
   83SLPC  C313 7884   2.630   0.417   4.829 -0.0102  0.5595 -0.4495
   83SLPC  H13X 7885   2.553   0.492   4.798  1.2540  1.8923 -0.4648
   83SLPC  H13Y 7886   2.733   0.456   4.816  0.9994 -1.7791  0.0374
   83SLPC  C314 7887   2.599   0.371   4.966  0.2542 -0.5131 -0.2468
   83SLPC  H14X 7888   2.514   0.300   4.957 -1.3495  1.5556 -2.8748
   83SLPC  H14Y 7889   2.561   0.455   5.029 -1.0506 -1.5077  0.3409
   83SLPC  C315 7890   2.718   0.311   5.040 -0.2165  0.2550  0.0681
   83SLPC  H15X 7891   2.790   0.396   5.049 -0.3801  0.6066 -1.5504
   83SLPC  H15Y 7892   2.774   0.248   4.968 -1.8068 -1.7275  0.4770
   83SLPC  C316 7893   2.688   0.228   5.176  0.8685  0.6685  0.4041
   83SLPC  H16X 7894   2.660   0.299   5.256 -0.2397  1.2981 -0.5160
   83SLPC  H16Y 7895   2.778   0.176   5.215  1.6570  0.1430 -1.9768
   83SLPC  C317 7896   2.579   0.119   5.167 -1.2998  0.2378  0.3633
   83SLPC  H17X 7897   2.613   0.048   5.089  0.1928  0.3648  0.8560
   83SLPC  H17Y 7898   2.486   0.176   5.148 -0.6135  1.0885 -0.6016
   83SLPC  C318 7899   2.570   0.048   5.303  0.3642 -0.1891 -0.6961
   83SLPC  H18X 7900   2.659   0.007   5.355  0.6605 -0.3701 -1.3326
   83SLPC  H18Y 7901   2.507  -0.042   5.287 -0.0936 -0.3641  1.7020
   83SLPC  H18Z 7902   2.539   0.116   5.386 -1.2027 -2.9306  1.1443
   84SLPC     N 7903   3.396   3.184   2.631 -0.2273  0.1715  0.1736
   84SLPC   C13 7904   3.451   3.318   2.608 -0.6369  0.3598 -0.5725
   84SLPC  H13A 7905   3.395   3.399   2.651  2.1663  1.6456  0.8977
   84SLPC  H13B 7906   3.546   3.326   2.658 -0.3062 -4.1167 -0.0991
   84SLPC  H13C 7907   3.461   3.321   2.500  1.4964 -0.6692 -0.4548
   84SLPC   C14 7908   3.465   3.077   2.555 -0.3080  0.3377 -0.0721
   84SLPC  H14A 7909   3.422   2.979   2.573 -0.2062  0.3122  0.0364
   84SLPC  H14B 7910   3.456   3.100   2.450 -1.1440  0.3053 -0.0144
   84SLPC  H14C 7911   3.564   3.075   2.597 -1.1846  0.9520  2.1976
   84SLPC   C15 7912   3.257   3.189   2.581  0.3045  0.2681 -0.1184
   84SLPC  H15A 7913   3.211   3.102   2.626  1.9722  0.1765  1.5349
   84SLPC  H15B 7914   3.222   3.285   2.617  2.9597  0.7210  1.5830
   84SLPC  H15C 7915   3.247   3.198   2.474 -0.0189 -0.0652 -0.1170
   84SLPC   C12 7916   3.405   3.148   2.778  0.3544  0.0869 -0.0876
   84SLPC  H12A 7917   3.506   3.148   2.815  0.0351  0.3238  0.8364
   84SLPC  H12B 7918   3.369   3.047   2.796  2.2941 -0.5099  0.6612
   84SLPC   C11 7919   3.338   3.252   2.875  0.6906 -0.0993 -0.6387
   84SLPC  H11A 7920   3.315   3.205   2.972 -1.3791 -0.0406 -1.0594
   84SLPC  H11B 7921   3.241   3.278   2.828  0.1562  0.1969  0.5861
   84SLPC     P 7922   3.538   3.364   3.001  0.5891 -0.4015  0.0718
   84SLPC   O13 7923   3.659   3.320   2.929 -0.1062 -0.4826 -0.1534
   84SLPC   O14 7924   3.545   3.494   3.078  0.4277 -0.6798  0.2922
   84SLPC   O12 7925   3.427   3.367   2.896 -0.3726 -0.0073  0.2426
   84SLPC   O11 7926   3.504   3.242   3.103 -0.0559 -0.6987 -0.0675
   84SLPC    C1 7927   3.499   3.267   3.240 -0.0352 -0.8033 -0.1188
   84SLPC    HA 7928   3.460   3.369   3.263 -1.5568 -1.2150 -0.7845
   84SLPC    HB 7929   3.421   3.199   3.281  0.4513 -0.2202  1.9176
   84SLPC    C2 7930   3.631   3.226   3.321  0.0768  0.5341 -0.0992
   84SLPC    HS 7931   3.704   3.303   3.290  1.2180 -0.9081 -1.1458
   84SLPC   O21 7932   3.659   3.098   3.270 -0.0829  0.3088  0.6332
   84SLPC   C21 7933   3.785   3.051   3.276 -0.3960 -0.1116 -0.1668
   84SLPC   O22 7934   3.878   3.122   3.314  0.0624  0.5299 -0.0339
   84SLPC   C22 7935   3.804   2.909   3.230  0.0880  0.1009 -0.4720
   84SLPC   H2R 7936   3.717   2.845   3.256  1.0082 -0.3810  1.6050
   84SLPC   H2S 7937   3.814   2.925   3.121  3.0431  1.6615 -0.0623
   84SLPC    C3 7938   3.611   3.226   3.475  0.6903  0.8159 -0.0700
   84SLPC    HX 7939   3.517   3.169   3.491  1.9701 -1.5892 -0.6940
   84SLPC    HY 7940   3.590   3.333   3.497 -1.6061 -0.0092  2.2920
   84SLPC   O31 7941   3.727   3.181   3.556  0.0316 -0.5721 -0.2186
   84SLPC   C31 7942   3.837   3.249   3.575 -0.3982 -0.5329 -0.3179
   84SLPC   O32 7943   3.855   3.363   3.544  0.4929 -0.1626  0.1203
   84SLPC   C32 7944   3.926   3.185   3.681  0.1397 -0.8284 -0.1313
   84SLPC   H2X 7945   4.033   3.202   3.661  0.5488 -0.0047  2.4137
   84SLPC   H2Y 7946   3.911   3.075   3.678 -0.3286 -0.8035  0.9776
   84SLPC   C23 7947   3.926   2.838   3.288 -0.8127  0.3861  0.4027
   84SLPC   H3R 7948   4.017   2.901   3.280 -1.4480  1.4488  1.2553
   84SLPC   H3S 7949   3.944   2.746   3.229  0.4352  0.9330 -0.1230
   84SLPC   C24 7950   3.899   2.817   3.440 -0.6954 -0.1910  0.4388
   84SLPC   H4R 7951   3.821   2.737   3.443 -1.1595 -0.0696 -3.1583
   84SLPC   H4S 7952   3.845   2.902   3.487  3.1324  1.3099  2.5105
   84SLPC   C25 7953   4.027   2.813   3.529  0.7712 -0.5639 -0.1376
   84SLPC   H5R 7954   4.082   2.910   3.523  1.3348 -0.7504  1.4805
   84SLPC   H5S 7955   4.099   2.741   3.486  1.1489  0.7418 -1.8273
   84SLPC   C26 7956   4.001   2.803   3.679  0.5249 -0.3690  0.1305
   84SLPC   H6R 7957   3.909   2.859   3.708  0.6215 -0.4669  0.6406
   84SLPC   H6S 7958   4.079   2.851   3.743 -0.3886  1.1606  0.1409
   84SLPC   C27 7959   3.979   2.658   3.720  0.0909 -0.4205 -0.2535
   84SLPC   H7R 7960   4.057   2.589   3.679 -0.6888 -1.2568 -0.3669
   84SLPC   H7S 7961   3.885   2.623   3.672  1.7961 -4.1434 -1.2987
   84SLPC   C28 7962   3.958   2.630   3.868  0.1044  0.8692  0.3684
   84SLPC   H8R 7963   3.909   2.533   3.889  0.2082  1.0602  1.5701
   84SLPC   H8S 7964   3.873   2.693   3.901 -2.5379 -1.9086 -0.6398
   84SLPC   C29 7965   4.089   2.648   3.941 -0.1331 -0.0103  0.3203
   84SLPC   H9R 7966   4.175   2.640   3.873 -0.4455  1.4687 -0.2705
   84SLPC  C210 7967   4.114   2.671   4.070 -0.6374 -0.3172 -0.5047
   84SLPC  H10R 7968   4.220   2.685   4.095 -0.8637  2.3651 -0.7375
   84SLPC  C211 7969   4.009   2.693   4.178 -0.2538 -0.2481  1.3248
   84SLPC  H11R 7970   3.922   2.746   4.135  1.1964  0.9040 -0.2967
   84SLPC  H11S 7971   4.050   2.755   4.261  0.6009  2.3253 -0.8864
   84SLPC  C212 7972   3.955   2.557   4.227 -0.7359  0.0223  0.4299
   84SLPC  H12R 7973   3.931   2.480   4.153 -0.0744  0.8868 -0.7230
   84SLPC  C213 7974   3.975   2.510   4.350 -0.5702 -0.2521 -0.6518
   84SLPC  H13R 7975   3.931   2.413   4.375  0.7512 -1.0250 -1.2135
   84SLPC  C214 7976   4.019   2.580   4.477  0.0718  0.9075  0.3344
   84SLPC  H14R 7977   4.071   2.675   4.453  0.4839  0.4069 -0.8369
   84SLPC  H14S 7978   4.083   2.509   4.535 -1.5926 -0.5103  0.5159
   84SLPC  C215 7979   3.895   2.615   4.576 -0.1608  0.6632 -0.0633
   84SLPC  H15R 7980   3.820   2.662   4.509  1.2457  1.3360 -1.2209
   84SLPC  H15S 7981   3.935   2.691   4.645  1.2438 -0.8492  0.8485
   84SLPC  C216 7982   3.823   2.500   4.656  0.0773  0.3073 -0.3130
   84SLPC  H16R 7983   3.800   2.407   4.599  2.1806 -1.6811  1.8366
   84SLPC  H16S 7984   3.725   2.539   4.690 -0.7823 -1.7205 -0.3081
   84SLPC  C217 7985   3.899   2.470   4.789  0.1731  0.1255  0.4218
   84SLPC  H17R 7986   3.819   2.427   4.854 -0.4964  0.3458 -0.2419
   84SLPC  H17S 7987   3.928   2.561   4.845  3.2040  1.3908 -2.8483
   84SLPC  C218 7988   4.007   2.368   4.758  0.0441 -0.2416 -0.3674
   84SLPC  H18R 7989   4.043   2.332   4.856  1.8155 -0.3827 -1.0294
   84SLPC  H18S 7990   4.093   2.417   4.708 -0.1540 -0.4099 -0.8898
   84SLPC  H18T 7991   3.976   2.296   4.678 -1.6560 -0.1834  0.1924
   84SLPC   C33 7992   3.891   3.226   3.823  0.2023  0.3098  0.0703
   84SLPC   H3X 7993   3.789   3.194   3.854 -0.1957  2.6119  1.3651
   84SLPC   H3Y 7994   3.875   3.334   3.839 -0.9662  0.2226 -0.3534
   84SLPC   C34 7995   3.996   3.166   3.925 -0.1503 -0.3582 -0.2693
   84SLPC   H4X 7996   4.093   3.219   3.915 -0.6181  0.2417 -1.8944
   84SLPC   H4Y 7997   4.007   3.065   3.882  0.3148 -0.6806  0.5755
   84SLPC   C35 7998   3.958   3.161   4.072  0.3870 -0.2217 -0.4065
   84SLPC   H5X 7999   3.861   3.106   4.080  0.7498 -0.7615  0.5380
   84SLPC   H5Y 8000   3.943   3.258   4.123  1.5581 -0.0550 -0.3560
   84SLPC   C36 8001   4.066   3.088   4.161 -0.0583 -0.9648 -0.1688
   84SLPC   H6X 8002   4.157   3.149   4.144  0.1227 -1.2495 -0.2423
   84SLPC   H6Y 8003   4.082   2.982   4.130 -0.9464 -0.5406 -2.2646
   84SLPC   C37 8004   4.034   3.101   4.307  0.6922 -0.5388 -0.0871
   84SLPC   H7X 8005   3.929   3.068   4.321  0.5396 -0.2307 -0.5033
   84SLPC   H7Y 8006   4.036   3.208   4.334  1.0262 -0.1776 -1.4686
   84SLPC   C38 8007   4.146   3.029   4.381  0.1786  0.3579  0.0603
   84SLPC   H8X 8008   4.248   3.073   4.373  0.4169 -0.3156 -0.7230
   84SLPC   H8Y 8009   4.155   2.934   4.324  0.4577  0.5102 -0.1512
   84SLPC   C39 8010   4.099   3.001   4.525  0.0321  0.1042 -0.3044
   84SLPC   H9X 8011   4.001   2.949   4.527 -1.0611  2.0495  0.5637
   84SLPC   H9Y 8012   4.079   3.096   4.580  0.6551 -0.1813  0.4373
   84SLPC  C310 8013   4.208   2.922   4.613 -0.3413  0.3847 -0.5009
   84SLPC  H10X 8014   4.310   2.964   4.606 -0.9014  1.9956  0.5707
   84SLPC  H10Y 8015   4.210   2.816   4.579 -0.2552 -0.4488  1.9186
   84SLPC  C311 8016   4.164   2.930   4.764  0.5654  0.4413  0.1663
   84SLPC  H11X 8017   4.054   2.924   4.775  0.6214  1.4488  1.4424
   84SLPC  H11Y 8018   4.187   3.030   4.807  1.7358 -0.2079  1.1046
   84SLPC  C312 8019   4.236   2.816   4.842 -0.7368  0.0989 -0.0833
   84SLPC  H12X 8020   4.339   2.816   4.802 -0.6055 -2.5253  0.0893
   84SLPC  H12Y 8021   4.192   2.717   4.815 -1.7320  0.8076 -1.1598
   84SLPC  C313 8022   4.259   2.826   4.992  0.1949  0.2886 -0.3716
   84SLPC  H13X 8023   4.249   2.929   5.034  0.5869  0.2523 -0.1893
   84SLPC  H13Y 8024   4.357   2.788   5.027  0.1867 -1.9924 -2.5464
   84SLPC  C314 8025   4.144   2.763   5.068 -0.1949  0.0007 -0.2874
   84SLPC  H14X 8026   4.047   2.784   5.018 -0.5302  0.5031  0.5482
   84SLPC  H14Y 8027   4.146   2.798   5.174  0.5965 -1.0120  0.0463
   84SLPC  C315 8028   4.162   2.613   5.077 -0.6637  0.3512  0.1322
   84SLPC  H15X 8029   4.261   2.599   5.125 -0.5087  3.1454  0.8089
   84SLPC  H15Y 8030   4.160   2.573   4.974 -0.2671  2.4926 -0.7597
   84SLPC  C316 8031   4.051   2.532   5.151  0.3569 -0.2534 -0.4247
   84SLPC  H16X 8032   3.952   2.544   5.102  0.2350 -3.0719 -0.9995
   84SLPC  H16Y 8033   4.037   2.575   5.253 -0.3937 -1.4408 -0.0070
   84SLPC  C317 8034   4.091   2.384   5.167 -0.5053 -0.0844  0.2612
   84SLPC  H17X 8035   4.183   2.372   5.227 -0.1113  2.1073  0.1743
   84SLPC  H17Y 8036   4.126   2.342   5.070  0.0711  2.5124 -0.7429
   84SLPC  C318 8037   3.971   2.296   5.220  0.4843 -0.8189 -0.0181
   84SLPC  H18X 8038   3.997   2.188   5.208 -0.3132 -0.8601 -1.6078
   84SLPC  H18Y 8039   3.875   2.311   5.167  0.4754  1.0876  0.4712
   84SLPC  H18Z 8040   3.954   2.322   5.326 -0.7793 -0.4137 -0.3146
   85SLPC     N 8041   1.719   0.725   2.759 -0.0525 -0.4664 -0.4357
   85SLPC   C13 8042   1.866   0.748   2.723 -0.4841  0.2091  0.0199
   85SLPC  H13A 8043   1.906   0.690   2.641  1.0925  0.7182  0.3959
   85SLPC  H13B 8044   1.891   0.853   2.716 -0.1312  0.3303  2.3043
   85SLPC  H13C 8045   1.919   0.727   2.814 -2.7578 -1.1755  1.1153
   85SLPC   C14 8046   1.694   0.816   2.882 -0.1473  0.0910  0.7769
   85SLPC  H14A 8047   1.589   0.809   2.904 -0.4700  0.6017 -0.5032
   85SLPC  H14B 8048   1.763   0.793   2.962  0.5516 -1.4926 -0.2267
   85SLPC  H14C 8049   1.711   0.915   2.843 -2.3574 -0.0567 -0.7295
   85SLPC   C15 8050   1.686   0.583   2.803  0.3266 -0.2973 -0.2875
   85SLPC  H15A 8051   1.734   0.557   2.896 -1.2500  0.2010  0.7068
   85SLPC  H15B 8052   1.580   0.566   2.786  0.4904  0.9328 -2.9641
   85SLPC  H15C 8053   1.723   0.518   2.726  0.3449  1.1457 -1.5343
   85SLPC   C12 8054   1.631   0.773   2.644 -0.3561  1.2258 -0.4569
   85SLPC  H12A 8055   1.630   0.695   2.569  0.2025  1.3040 -0.5430
   85SLPC  H12B 8056   1.684   0.852   2.594  0.9695 -0.8612 -2.5250
   85SLPC   C11 8057   1.483   0.803   2.680 -0.6286 -0.1902 -0.1611
   85SLPC  H11A 8058   1.429   0.822   2.584  0.6519  0.2004 -0.8233
   85SLPC  H11B 8059   1.465   0.901   2.728 -0.5796  0.4693 -1.4405
   85SLPC     P 8060   1.305   0.699   2.847  0.2969 -0.1959  0.3030
   85SLPC   O13 8061   1.213   0.805   2.794  0.3400  0.2108  0.2694
   85SLPC   O14 8062   1.254   0.555   2.864 -0.0043  0.3913  0.1855
   85SLPC   O12 8063   1.432   0.693   2.749  0.5910 -0.0539 -0.5047
   85SLPC   O11 8064   1.359   0.744   2.989  0.0811  0.0310  0.1231
   85SLPC    C1 8065   1.278   0.830   3.063  0.1766 -0.3809  0.2520
   85SLPC    HA 8066   1.272   0.934   3.025  1.1251 -1.0345 -1.8444
   85SLPC    HB 8067   1.179   0.779   3.068  0.9874 -2.1510 -0.7199
   85SLPC    C2 8068   1.322   0.844   3.209  0.1624 -0.8386 -0.0748
   85SLPC    HS 8069   1.250   0.899   3.273  0.7808  0.1627 -0.2130
   85SLPC   O21 8070   1.455   0.900   3.201 -0.3043 -0.4603  0.3396
   85SLPC   C21 8071   1.465   1.028   3.259 -0.5657  0.4816 -0.1736
   85SLPC   O22 8072   1.369   1.086   3.300  0.2644  0.2054  0.4744
   85SLPC   C22 8073   1.610   1.070   3.271  0.4342 -0.1670 -0.1305
   85SLPC   H2R 8074   1.655   1.049   3.172  2.4027  0.9933  0.4672
   85SLPC   H2S 8075   1.619   1.180   3.285  1.3038 -0.1474 -0.8081
   85SLPC    C3 8076   1.335   0.701   3.264  0.1143 -0.0599 -0.2483
   85SLPC    HX 8077   1.384   0.633   3.191  0.0161 -3.9598  2.9216
   85SLPC    HY 8078   1.231   0.671   3.290 -0.8606  2.5274 -0.8673
   85SLPC   O31 8079   1.424   0.698   3.383  0.0511 -0.5892  0.4872
   85SLPC   C31 8080   1.416   0.591   3.460 -0.5164 -0.0438  0.5907
   85SLPC   O32 8081   1.326   0.508   3.453  0.4063  0.2541 -0.4818
   85SLPC   C32 8082   1.532   0.588   3.556 -0.5608  0.1468  0.2032
   85SLPC   H2X 8083   1.577   0.690   3.552 -1.3587  0.4801 -0.8199
   85SLPC   H2Y 8084   1.598   0.512   3.509 -0.1222  0.5920  0.0784
   85SLPC   C23 8085   1.674   0.987   3.393 -0.1196 -0.5338  0.2649
   85SLPC   H3R 8086   1.781   1.017   3.388 -0.0431 -0.8460 -0.0201
   85SLPC   H3S 8087   1.679   0.881   3.358 -0.0608 -0.2666 -0.5622
   85SLPC   C24 8088   1.599   1.020   3.523 -1.2142  0.2376  0.1730
   85SLPC   H4R 8089   1.497   0.977   3.525 -0.8422 -0.7282 -0.5308
   85SLPC   H4S 8090   1.607   1.131   3.527  1.3902  0.0831  1.1069
   85SLPC   C25 8091   1.675   0.946   3.638 -0.3330 -0.4009  0.7217
   85SLPC   H5R 8092   1.679   0.836   3.621 -0.1907 -0.4169  0.8592
   85SLPC   H5S 8093   1.783   0.969   3.640 -0.0645 -1.5878  2.9443
   85SLPC   C26 8094   1.616   0.975   3.773  0.4044  0.3490  0.2978
   85SLPC   H6R 8095   1.510   0.942   3.776 -0.4915  2.8417 -1.0702
   85SLPC   H6S 8096   1.610   1.084   3.794 -0.9481  0.4059 -0.3026
   85SLPC   C27 8097   1.687   0.888   3.872  0.1449 -0.2087 -0.0111
   85SLPC   H7R 8098   1.794   0.916   3.858 -0.0100 -0.5927 -2.3304
   85SLPC   H7S 8099   1.667   0.785   3.838 -0.8468  0.1262 -0.4726
   85SLPC   C28 8100   1.638   0.920   4.019  0.5877  0.4047 -0.2973
   85SLPC   H8R 8101   1.533   0.891   4.039  0.9513  0.7487  2.4444
   85SLPC   H8S 8102   1.633   1.031   4.024 -1.6369  0.2973  1.3737
   85SLPC   C29 8103   1.736   0.861   4.121  0.1784  0.6615  0.2250
   85SLPC   H9R 8104   1.839   0.848   4.085  0.1164  1.6308 -0.3541
   85SLPC  C210 8105   1.702   0.823   4.245 -0.4019 -0.5103  0.7406
   85SLPC  H10R 8106   1.777   0.776   4.310 -0.0752 -0.6270  0.2807
   85SLPC  C211 8107   1.564   0.826   4.301  0.4193 -0.8644 -0.6988
   85SLPC  H11R 8108   1.511   0.755   4.235 -0.3901  0.2631 -1.2869
   85SLPC  H11S 8109   1.535   0.931   4.278 -2.2095 -0.8659  2.0209
   85SLPC  C212 8110   1.542   0.791   4.446  0.0539 -0.6896  0.5122
   85SLPC  H12R 8111   1.626   0.771   4.515  0.9841  1.2822  0.0068
   85SLPC  C213 8112   1.431   0.822   4.510  0.0337 -0.1825  0.1067
   85SLPC  H13R 8113   1.435   0.836   4.619  2.0865 -0.6962  0.1356
   85SLPC  C214 8114   1.306   0.865   4.435 -0.5542  0.0740 -0.9845
   85SLPC  H14R 8115   1.318   0.863   4.325  0.5072 -0.0372 -0.8740
   85SLPC  H14S 8116   1.263   0.964   4.463 -0.6658  0.0258 -0.9842
   85SLPC  C215 8117   1.188   0.764   4.459  0.4918 -0.0059  0.1081
   85SLPC  H15R 8118   1.224   0.662   4.434  2.2553  0.0672  2.1233
   85SLPC  H15S 8119   1.102   0.789   4.393  0.7043  0.4103 -0.0181
   85SLPC  C216 8120   1.136   0.737   4.605  0.2666 -0.2096 -0.1689
   85SLPC  H16R 8121   1.219   0.692   4.663 -0.9297 -0.6168  1.3165
   85SLPC  H16S 8122   1.046   0.672   4.593 -1.1357  1.4585  0.7472
   85SLPC  C217 8123   1.091   0.869   4.668  0.1879 -0.3347 -0.3736
   85SLPC  H17R 8124   1.013   0.901   4.595  0.3603 -1.4039 -1.0493
   85SLPC  H17S 8125   1.172   0.944   4.654 -1.0799  1.1245 -0.1683
   85SLPC  C218 8126   1.041   0.871   4.812 -0.1556 -0.3087 -0.6959
   85SLPC  H18R 8127   0.981   0.957   4.849 -2.0363 -1.7373 -0.3140
   85SLPC  H18S 8128   1.127   0.869   4.882 -1.3231  0.7257  0.8488
   85SLPC  H18T 8129   0.988   0.775   4.827 -1.5663  0.1379 -2.4691
   85SLPC   C33 8130   1.488   0.546   3.696  0.0880 -0.6531 -0.1563
   85SLPC   H3X 8131   1.575   0.539   3.765  0.6689  1.4198 -0.6197
   85SLPC   H3Y 8132   1.435   0.448   3.696 -1.5236  0.1663  0.8050
   85SLPC   C34 8133   1.391   0.644   3.772 -0.3809 -0.5610 -0.2983
   85SLPC   H4X 8134   1.305   0.662   3.704 -1.6774 -1.1029  1.1259
   85SLPC   H4Y 8135   1.447   0.737   3.794 -0.7376 -0.4080 -0.0159
   85SLPC   C35 8136   1.337   0.581   3.904  0.1961  0.5402  0.1171
   85SLPC   H5X 8137   1.285   0.486   3.881 -0.9352  1.5784 -1.9163
   85SLPC   H5Y 8138   1.272   0.654   3.956 -1.1498  0.8361 -1.8599
   85SLPC   C36 8139   1.438   0.556   4.013  0.1594  0.3462  0.7372
   85SLPC   H6X 8140   1.483   0.646   4.060  0.0390 -0.6624  2.9529
   85SLPC   H6Y 8141   1.527   0.498   3.979 -1.3394 -1.9728  0.5289
   85SLPC   C37 8142   1.361   0.469   4.120 -0.5518 -0.3090 -0.1245
   85SLPC   H7X 8143   1.310   0.378   4.082  1.1941 -0.4258 -2.3914
   85SLPC   H7Y 8144   1.288   0.548   4.149  1.1607  0.7447  1.5828
   85SLPC   C38 8145   1.436   0.436   4.251 -0.0358  0.0875 -0.1757
   85SLPC   H8X 8146   1.496   0.518   4.296 -0.5979 -0.2500  1.2435
   85SLPC   H8Y 8147   1.498   0.345   4.236 -0.5384 -0.3074  0.1076
   85SLPC   C39 8148   1.337   0.397   4.358  0.9682  0.2955 -0.5023
   85SLPC   H9X 8149   1.291   0.297   4.348 -0.6512  0.6793  2.1932
   85SLPC   H9Y 8150   1.255   0.472   4.360  0.6741 -0.0157 -0.7686
   85SLPC  C310 8151   1.401   0.392   4.499  0.0312  0.8320 -0.2960
   85SLPC  H10X 8152   1.462   0.484   4.511  1.0783 -0.1573  3.4220
   85SLPC  H10Y 8153   1.470   0.305   4.500 -0.0411  0.7719  0.9009
   85SLPC  C311 8154   1.293   0.360   4.613 -0.6759 -0.0868  0.8332
   85SLPC  H11X 8155   1.259   0.255   4.605  0.2397 -0.4062  0.9565
   85SLPC  H11Y 8156   1.211   0.424   4.576  0.6961  0.6128 -1.2057
   85SLPC  C312 8157   1.340   0.382   4.754  0.5117 -0.5115 -0.5277
   85SLPC  H12X 8158   1.251   0.405   4.816  1.7152  3.4790  0.0007
   85SLPC  H12Y 8159   1.404   0.472   4.765  1.1249 -0.8557 -1.2169
   85SLPC  C313 8160   1.420   0.253   4.792  0.2671  0.2055 -0.2328
   85SLPC  H13X 8161   1.507   0.239   4.724 -0.6443  0.0375 -1.3829
   85SLPC  H13Y 8162   1.345   0.174   4.772  0.9073 -0.3849 -0.3488
   85SLPC  C314 8163   1.472   0.241   4.932 -0.0579  0.3148 -0.2511
   85SLPC  H14X 8164   1.546   0.322   4.948  0.1504  0.1079 -0.1628
   85SLPC  H14Y 8165   1.527   0.146   4.950  1.1462  1.0139 -0.0971
   85SLPC  C315 8166   1.358   0.228   5.038  0.3077  0.4485 -0.1467
   85SLPC  H15X 8167   1.301   0.141   4.997  1.7740 -1.6744  2.0178
   85SLPC  H15Y 8168   1.301   0.323   5.027  0.0555  0.2122 -0.9556
   85SLPC  C316 8169   1.409   0.205   5.179 -0.5841  0.7465 -0.3190
   85SLPC  H16X 8170   1.488   0.281   5.195 -1.2279  0.8501  2.9846
   85SLPC  H16Y 8171   1.463   0.108   5.175 -2.5318 -0.3981 -0.1749
   85SLPC  C317 8172   1.303   0.216   5.285  0.4664  0.0116  0.0682
   85SLPC  H17X 8173   1.212   0.161   5.251  1.0766 -2.3268  1.9124
   85SLPC  H17Y 8174   1.268   0.321   5.292 -1.8032 -0.7036  0.2227
   85SLPC  C318 8175   1.342   0.168   5.428  0.2339 -0.1295 -0.3181
   85SLPC  H18X 8176   1.422   0.231   5.473 -0.8331  0.3053  1.0684
   85SLPC  H18Y 8177   1.375   0.062   5.422 -2.8669 -1.1653 -0.7056
   85SLPC  H18Z 8178   1.251   0.169   5.492  0.9198  0.9536  0.7041
   86SLPC     N 8179   1.510   4.249   2.636 -0.2739  0.3344 -0.8652
   86SLPC   C13 8180   1.422   4.198   2.528  0.2323 -0.1974  0.6172
   86SLPC  H13A 8181   1.479   4.201   2.437  0.4360 -3.4888  0.5142
   86SLPC  H13B 8182   1.387   4.097   2.547 -0.3697 -0.5408 -2.0049
   86SLPC  H13C 8183   1.333   4.257   2.514  1.3853  1.1482 -1.6407
   86SLPC   C14 8184   1.429   4.280   2.751  0.2264  0.3017 -0.4968
   86SLPC  H14A 8185   1.465   4.366   2.806  0.1534  2.1527 -3.1354
   86SLPC  H14B 8186   1.327   4.303   2.723  0.2542 -0.0325 -0.8818
   86SLPC  H14C 8187   1.417   4.197   2.819 -2.4486 -1.2565 -2.6653
   86SLPC   C15 8188   1.572   4.368   2.583  1.4450  0.4426 -0.1349
   86SLPC  H15A 8189   1.496   4.439   2.555  1.4522  0.1961 -0.8037
   86SLPC  H15B 8190   1.629   4.422   2.657  0.9106 -0.4792  0.9891
   86SLPC  H15C 8191   1.628   4.349   2.493 -0.6307 -1.9961 -1.0536
   86SLPC   C12 8192   1.620   4.147   2.670  0.0182 -0.6912 -1.1032
   86SLPC  H12A 8193   1.679   4.203   2.742 -0.9694  0.7027 -1.3472
   86SLPC  H12B 8194   1.673   4.115   2.581  0.9632 -2.2575 -0.0357
   86SLPC   C11 8195   1.576   4.026   2.746 -0.7601  0.2331 -0.8629
   86SLPC  H11A 8196   1.647   3.941   2.737 -0.3474  0.4367  0.2752
   86SLPC  H11B 8197   1.479   3.994   2.702 -0.9595 -0.6214  0.1541
   86SLPC     P 8198   1.478   3.980   2.980 -0.6447  0.0617 -0.2729
   86SLPC   O13 8199   1.349   3.963   2.909  0.1369  0.7225 -0.0987
   86SLPC   O14 8200   1.568   3.863   3.008  0.5019  0.4089  0.5788
   86SLPC   O12 8201   1.563   4.070   2.884 -0.9909  0.1532  0.0135
   86SLPC   O11 8202   1.466   4.066   3.113 -0.5937  0.3869  0.0772
   86SLPC    C1 8203   1.385   4.188   3.114 -0.4186 -0.5147  0.0872
   86SLPC    HA 8204   1.453   4.276   3.120 -1.6863  0.4344  0.9570
   86SLPC    HB 8205   1.326   4.205   3.022 -2.6739  0.8654  1.6874
   86SLPC    C2 8206   1.302   4.196   3.242 -0.4707  0.5384 -0.0251
   86SLPC    HS 8207   1.242   4.288   3.228 -2.3424 -0.6971 -0.5321
   86SLPC   O21 8208   1.385   4.196   3.357  0.1074 -0.0717 -0.2768
   86SLPC   C21 8209   1.374   4.296   3.440 -0.5983  0.3301 -1.1457
   86SLPC   O22 8210   1.314   4.401   3.421 -0.0956  0.1849  0.7444
   86SLPC   C22 8211   1.432   4.253   3.576 -0.6285 -0.3042 -0.4404
   86SLPC   H2R 8212   1.366   4.169   3.608 -0.8659  1.1924  3.5212
   86SLPC   H2S 8213   1.538   4.224   3.565 -0.1990  0.3455  1.6628
   86SLPC    C3 8214   1.199   4.078   3.247  0.1566 -0.8130 -0.3094
   86SLPC    HX 8215   1.250   3.980   3.233 -0.7879 -1.2193 -1.0814
   86SLPC    HY 8216   1.133   4.089   3.158  0.5602  0.6041 -0.4504
   86SLPC   O31 8217   1.117   4.080   3.363 -0.0688  0.9391 -0.0972
   86SLPC   C31 8218   1.137   4.004   3.460 -0.3203  0.9792  0.8073
   86SLPC   O32 8219   1.233   3.925   3.473  0.5047  0.9827 -0.1182
   86SLPC   C32 8220   1.037   4.038   3.569  0.0222  0.4132 -0.3714
   86SLPC   H2X 8221   0.935   4.040   3.527  0.2506 -0.4093 -0.9992
   86SLPC   H2Y 8222   1.065   4.140   3.604 -1.7877  0.5999  0.6504
   86SLPC   C23 8223   1.424   4.365   3.685 -0.3541  0.2567 -0.5043
   86SLPC   H3R 8224   1.453   4.464   3.646  1.7058  0.4332  1.2898
   86SLPC   H3S 8225   1.492   4.339   3.769  0.9160 -1.2594 -1.9383
   86SLPC   C24 8226   1.285   4.380   3.749  0.4068  0.0499 -0.7868
   86SLPC   H4R 8227   1.254   4.288   3.803  3.9959 -1.5273 -1.1424
   86SLPC   H4S 8228   1.212   4.391   3.665 -0.1327  1.0558 -0.2089
   86SLPC   C25 8229   1.268   4.496   3.854 -0.2517 -0.4341  0.1644
   86SLPC   H5R 8230   1.161   4.523   3.865 -0.3182 -1.0196  1.1122
   86SLPC   H5S 8231   1.325   4.580   3.809  1.4069 -1.7263 -0.2125
   86SLPC   C26 8232   1.323   4.463   3.991  0.2093  0.5775 -0.5298
   86SLPC   H6R 8233   1.431   4.442   3.974  0.4355  0.5785  0.7902
   86SLPC   H6S 8234   1.286   4.364   4.022  1.2117 -0.0856 -1.3730
   86SLPC   C27 8235   1.303   4.571   4.103  0.1527  1.1059 -0.6233
   86SLPC   H7R 8236   1.203   4.613   4.081 -0.9000 -0.8377  0.2187
   86SLPC   H7S 8237   1.369   4.660   4.100 -0.9665  1.9541 -0.4299
   86SLPC   C28 8238   1.289   4.510   4.251  1.0171 -0.7224  0.0663
   86SLPC   H8R 8239   1.201   4.445   4.264 -0.1244  0.8444  0.4100
   86SLPC   H8S 8240   1.259   4.592   4.319  2.3002  0.3095 -0.5574
   86SLPC   C29 8241   1.414   4.437   4.293 -0.2892 -0.0522 -0.4131
   86SLPC   H9R 8242   1.451   4.365   4.219 -2.4868  1.0487 -2.7441
   86SLPC  C210 8243   1.465   4.436   4.415  0.0466  0.0607  0.4942
   86SLPC  H10R 8244   1.556   4.376   4.432  0.8868  1.0346 -0.3777
   86SLPC  C211 8245   1.430   4.513   4.538  0.6043  0.4851 -0.2206
   86SLPC  H11R 8246   1.428   4.620   4.508  0.5583  0.4391 -0.3791
   86SLPC  H11S 8247   1.508   4.511   4.618 -0.3808  1.5609  0.8146
   86SLPC  C212 8248   1.290   4.490   4.588 -0.0996 -0.0293  0.0174
   86SLPC  H12R 8249   1.236   4.410   4.535 -0.1127  0.8859 -1.3874
   86SLPC  C213 8250   1.235   4.559   4.687 -0.4106  0.0766  0.0861
   86SLPC  H13R 8251   1.132   4.532   4.715 -0.1167 -2.2266 -0.8215
   86SLPC  C214 8252   1.307   4.663   4.760  0.4850 -0.1674  0.2552
   86SLPC  H14R 8253   1.257   4.761   4.743 -0.0556 -0.7214 -1.5378
   86SLPC  H14S 8254   1.410   4.682   4.725  0.4826  0.3747  0.5200
   86SLPC  C215 8255   1.331   4.635   4.912  0.4298  0.1661  0.0535
   86SLPC  H15R 8256   1.415   4.701   4.944 -1.9265  3.5712 -0.2051
   86SLPC  H15S 8257   1.364   4.531   4.932  1.8022  0.3525 -1.1075
   86SLPC  C216 8258   1.217   4.678   5.011 -0.2674  0.1256  1.0406
   86SLPC  H16R 8259   1.128   4.613   4.996  0.1769  0.0384 -1.6487
   86SLPC  H16S 8260   1.187   4.780   4.977  0.2250 -0.2500 -0.6215
   86SLPC  C217 8261   1.247   4.669   5.157  0.0690  0.4745 -0.3265
   86SLPC  H17R 8262   1.350   4.708   5.168  0.3290 -0.4411  0.7164
   86SLPC  H17S 8263   1.250   4.573   5.214  1.7175 -0.0194 -1.1989
   86SLPC  C218 8264   1.173   4.776   5.243 -0.2271 -0.4391 -1.0616
   86SLPC  H18R 8265   1.191   4.876   5.198  1.6074  1.0998  2.6306
   86SLPC  H18S 8266   1.217   4.789   5.345  0.6602  1.2335 -1.6134
   86SLPC  H18T 8267   1.063   4.767   5.257 -0.1019 -0.6430 -0.1597
   86SLPC   C33 8268   1.051   3.932   3.682 -0.2818 -1.1684  0.4405
   86SLPC   H3X 8269   1.156   3.929   3.718 -0.1753 -0.9927  0.1483
   86SLPC   H3Y 8270   1.032   3.828   3.646 -0.3132 -1.5360  1.4990
   86SLPC   C34 8271   0.961   3.963   3.798  0.2294 -0.4228  0.5597
   86SLPC   H4X 8272   0.992   3.891   3.877  2.1354  1.1469  1.3207
   86SLPC   H4Y 8273   0.851   3.963   3.780  0.2504 -1.0215  0.4207
   86SLPC   C35 8274   0.989   4.104   3.847  0.3829  0.3834 -0.1931
   86SLPC   H5X 8275   0.940   4.186   3.791  0.4073  0.1257 -0.5958
   86SLPC   H5Y 8276   1.099   4.122   3.845  0.2425  1.2028 -0.5998
   86SLPC   C36 8277   0.933   4.130   3.991  0.2230  0.0249  0.1553
   86SLPC   H6X 8278   0.946   4.050   4.066  0.8555  0.0587  0.0886
   86SLPC   H6Y 8279   0.823   4.135   3.973 -0.0245  1.1891  1.7949
   86SLPC   C37 8280   0.984   4.267   4.047 -0.3060 -0.2164 -0.0470
   86SLPC   H7X 8281   1.026   4.323   3.960 -1.6413 -1.3514 -1.5025
   86SLPC   H7Y 8282   1.068   4.247   4.116 -0.0128  0.8856 -0.0800
   86SLPC   C38 8283   0.875   4.344   4.122  0.4220  0.2192  0.5244
   86SLPC   H8X 8284   0.792   4.341   4.049  2.3127  0.7221 -1.7552
   86SLPC   H8Y 8285   0.926   4.442   4.132  1.2558 -0.3572  2.5321
   86SLPC   C39 8286   0.857   4.296   4.273 -0.8501 -0.3428 -0.5056
   86SLPC   H9X 8287   0.922   4.209   4.298  1.4184  1.4018 -0.0472
   86SLPC   H9Y 8288   0.748   4.276   4.282 -0.9041  1.0277  3.7761
   86SLPC  C310 8289   0.881   4.400   4.381 -0.1943 -0.5860  0.1775
   86SLPC  H10X 8290   0.803   4.479   4.375  0.2584 -0.1930 -0.8564
   86SLPC  H10Y 8291   0.982   4.443   4.361 -1.5197  1.4633 -2.8766
   86SLPC  C311 8292   0.873   4.332   4.522  0.2016 -0.3485  0.1675
   86SLPC  H11X 8293   0.943   4.246   4.522  0.3707 -0.2139  0.7842
   86SLPC  H11Y 8294   0.770   4.293   4.535 -0.9341  2.9821  2.4961
   86SLPC  C312 8295   0.900   4.432   4.639  0.0158 -0.5970 -0.8183
   86SLPC  H12X 8296   0.959   4.521   4.608  1.5072 -0.4251  2.1373
   86SLPC  H12Y 8297   0.945   4.377   4.724 -1.2989  2.0031  1.7166
   86SLPC  C313 8298   0.763   4.468   4.697 -0.1361 -0.6088  0.0812
   86SLPC  H13X 8299   0.709   4.372   4.714 -0.6144 -0.3671 -0.0718
   86SLPC  H13Y 8300   0.694   4.529   4.635 -1.7457  1.0672  3.2991
   86SLPC  C314 8301   0.764   4.552   4.825 -0.1537  0.0444 -0.2340
   86SLPC  H14X 8302   0.798   4.651   4.787  2.1225 -1.4599 -2.4806
   86SLPC  H14Y 8303   0.848   4.520   4.891 -0.3324 -0.7185 -0.3671
   86SLPC  C315 8304   0.627   4.565   4.893  0.4693  0.0389 -0.3481
   86SLPC  H15X 8305   0.582   4.464   4.907 -2.4055  1.3277  0.3650
   86SLPC  H15Y 8306   0.556   4.620   4.827 -0.3710 -1.2502 -0.5616
   86SLPC  C316 8307   0.627   4.626   5.035 -0.1506 -0.4207  0.6955
   86SLPC  H16X 8308   0.530   4.619   5.089 -1.0340  1.6190 -0.5079
   86SLPC  H16Y 8309   0.655   4.733   5.029 -0.3135 -0.4236 -0.5649
   86SLPC  C317 8310   0.730   4.551   5.126  0.0936  0.6137  0.0333
   86SLPC  H17X 8311   0.833   4.558   5.085 -0.7067 -0.1555 -2.3025
   86SLPC  H17Y 8312   0.692   4.446   5.128 -2.1767  1.2550 -2.6743
   86SLPC  C318 8313   0.758   4.600   5.266  0.0595  0.2648  0.4894
   86SLPC  H18X 8314   0.785   4.708   5.257 -1.2053  0.4008 -2.8197
   86SLPC  H18Y 8315   0.848   4.553   5.311  0.4533  1.3939  0.9196
   86SLPC  H18Z 8316   0.676   4.583   5.339 -2.0939 -1.2580 -2.1471
   87SLPC     N 8317   0.752   3.064   3.409  0.2745  0.0685  0.8768
   87SLPC   C13 8318   0.611   3.006   3.402 -0.2968  0.1820  0.3252
   87SLPC  H13A 8319   0.536   3.083   3.410 -0.9342 -0.3787 -0.1561
   87SLPC  H13B 8320   0.589   2.956   3.309  1.5048 -0.4097  0.1867
   87SLPC  H13C 8321   0.608   2.931   3.480 -0.9908 -0.0904  0.0402
   87SLPC   C14 8322   0.826   2.991   3.299  0.4078 -0.2369 -0.4830
   87SLPC  H14A 8323   0.761   2.999   3.213 -0.2357  1.4088  0.1221
   87SLPC  H14B 8324   0.924   3.036   3.293  0.3489 -0.2038 -1.2626
   87SLPC  H14C 8325   0.838   2.888   3.331  0.2232 -0.3674 -0.8289
   87SLPC   C15 8326   0.820   3.044   3.540 -1.3462 -0.4943 -0.2507
   87SLPC  H15A 8327   0.803   2.949   3.589  2.4322  0.5820  3.7479
   87SLPC  H15B 8328   0.924   3.072   3.536 -1.3866 -0.3058  0.0016
   87SLPC  H15C 8329   0.783   3.112   3.615  1.4013 -1.7708  2.4914
   87SLPC   C12 8330   0.749   3.211   3.383 -0.4310 -0.4627 -0.1023
   87SLPC  H12A 8331   0.690   3.261   3.458  2.0820  0.7724  1.2087
   87SLPC  H12B 8332   0.704   3.236   3.288  2.0155 -0.8832 -1.4614
   87SLPC   C11 8333   0.881   3.288   3.385  0.0800 -0.0712 -0.1364
   87SLPC  H11A 8334   0.925   3.284   3.487 -2.1792  0.6688  0.9436
   87SLPC  H11B 8335   0.866   3.395   3.358  1.7474  0.4305  0.7967
   87SLPC     P 8336   1.062   3.342   3.210 -0.5828  0.0501  0.0992
   87SLPC   O13 8337   1.176   3.268   3.152 -0.0829  0.2083 -0.1457
   87SLPC   O14 8338   0.984   3.408   3.105 -0.5402 -0.8707 -0.2647
   87SLPC   O12 8339   0.973   3.240   3.289 -0.3310 -0.2039 -0.4400
   87SLPC   O11 8340   1.110   3.449   3.317 -0.4374  0.1983 -0.0264
   87SLPC    C1 8341   1.195   3.392   3.422 -0.1093 -0.3637 -1.0423
   87SLPC    HA 8342   1.186   3.285   3.450  2.6519 -1.2770 -3.2397
   87SLPC    HB 8343   1.295   3.388   3.374 -0.0145  0.1209 -0.8958
   87SLPC    C2 8344   1.203   3.473   3.560  0.2321 -0.7629 -0.2207
   87SLPC    HS 8345   1.268   3.412   3.627 -0.6976  0.2442  1.6728
   87SLPC   O21 8346   1.072   3.485   3.607  0.4824 -0.6959 -0.0478
   87SLPC   C21 8347   1.054   3.480   3.735  0.3886  0.5387 -0.1981
   87SLPC   O22 8348   1.143   3.461   3.816  0.0126  0.0801 -0.2055
   87SLPC   C22 8349   0.909   3.516   3.777  0.3337  0.4980  0.0895
   87SLPC   H2R 8350   0.875   3.588   3.699  1.0500  1.0581  0.2892
   87SLPC   H2S 8351   0.843   3.427   3.772  2.5266 -1.3349  1.5373
   87SLPC    C3 8352   1.274   3.611   3.535  0.3272  0.5374 -0.2069
   87SLPC    HX 8353   1.210   3.688   3.487  0.8746  1.9367  1.2393
   87SLPC    HY 8354   1.356   3.590   3.462  0.7552 -2.7300  1.0790
   87SLPC   O31 8355   1.313   3.671   3.662  0.5945 -0.2175  0.1616
   87SLPC   C31 8356   1.433   3.649   3.707 -0.3504  0.7587  0.6940
   87SLPC   O32 8357   1.511   3.562   3.665  0.0090  0.0655 -0.7529
   87SLPC   C32 8358   1.458   3.740   3.832  0.1502 -0.3990 -0.4476
   87SLPC   H2X 8359   1.357   3.781   3.849 -0.3410 -1.5446 -0.5181
   87SLPC   H2Y 8360   1.529   3.823   3.811 -0.4010  0.4153  0.8148
   87SLPC   C23 8361   0.892   3.574   3.923  0.3625 -0.5300  0.0363
   87SLPC   H3R 8362   0.784   3.594   3.944  0.7075  0.2691  1.1199
   87SLPC   H3S 8363   0.953   3.667   3.923  0.7563 -0.7807 -0.6116
   87SLPC   C24 8364   0.942   3.494   4.049  0.0888 -0.2897  0.2605
   87SLPC   H4R 8365   1.050   3.470   4.037  0.2539  0.7562 -0.4690
   87SLPC   H4S 8366   0.886   3.403   4.077  2.1544 -1.2466  1.5333
   87SLPC   C25 8367   0.938   3.590   4.165  0.3163 -0.2219  0.6154
   87SLPC   H5R 8368   0.843   3.645   4.181  0.1220 -0.9130  1.9618
   87SLPC   H5S 8369   1.024   3.660   4.151 -1.4563  1.4634 -3.6467
   87SLPC   C26 8370   0.966   3.522   4.302  0.3058  0.5951 -0.4648
   87SLPC   H6R 8371   1.066   3.475   4.286 -0.3106 -1.6392  1.6241
   87SLPC   H6S 8372   0.896   3.439   4.323  0.3582  0.4037 -1.0239
   87SLPC   C27 8373   0.958   3.625   4.423 -0.1559 -0.3950  0.6193
   87SLPC   H7R 8374   0.853   3.648   4.451 -0.2657 -1.1890  0.9000
   87SLPC   H7S 8375   1.021   3.714   4.402  1.3816 -1.3876  0.8546
   87SLPC   C28 8376   1.018   3.564   4.548 -0.2516 -0.3605 -0.3467
   87SLPC   H8R 8377   1.128   3.550   4.543 -0.0235  1.4148 -1.2050
   87SLPC   H8S 8378   0.964   3.469   4.567 -2.2724  0.9548  0.8981
   87SLPC   C29 8379   0.991   3.643   4.670  0.4750  0.6778  0.6763
   87SLPC   H9R 8380   1.002   3.752   4.657  0.4145  0.6234  0.1261
   87SLPC  C210 8381   0.973   3.591   4.790  0.0328 -0.1710 -0.1561
   87SLPC  H10R 8382   0.957   3.649   4.883 -0.7819 -0.8615  0.1493
   87SLPC  C211 8383   0.967   3.446   4.831  0.0967  0.0851  0.5788
   87SLPC  H11R 8384   1.015   3.381   4.754 -0.3191  0.1618  0.2556
   87SLPC  H11S 8385   0.870   3.396   4.852 -1.3716  1.9052 -1.4964
   87SLPC  C212 8386   1.042   3.425   4.960  0.2799 -0.2062  0.0078
   87SLPC  H12R 8387   1.151   3.414   4.951  0.4555  0.1029  1.4805
   87SLPC  C213 8388   0.988   3.423   5.085  0.8201  0.1332 -0.3650
   87SLPC  H13R 8389   1.054   3.396   5.168  0.9439  1.0223 -0.1625
   87SLPC  C214 8390   0.837   3.435   5.114  0.7483 -0.0363  0.1695
   87SLPC  H14R 8391   0.780   3.376   5.039 -0.0265 -0.0939  0.7872
   87SLPC  H14S 8392   0.806   3.541   5.097  1.2727 -0.4045 -4.3072
   87SLPC  C215 8393   0.785   3.401   5.261 -0.2033 -0.0522  0.5480
   87SLPC  H15R 8394   0.817   3.299   5.290  3.0029  0.6326 -0.1510
   87SLPC  H15S 8395   0.676   3.419   5.274 -0.4438 -0.1094 -1.1331
   87SLPC  C216 8396   0.836   3.502   5.359 -0.0721 -0.2194 -0.6782
   87SLPC  H16R 8397   0.818   3.603   5.317 -4.0785 -0.7595 -0.6391
   87SLPC  H16S 8398   0.945   3.480   5.357  0.1538  0.8556 -3.0355
   87SLPC  C217 8399   0.769   3.494   5.496  0.0462 -0.9062  0.2956
   87SLPC  H17R 8400   0.769   3.387   5.525  0.7147 -1.8402 -2.7541
   87SLPC  H17S 8401   0.667   3.536   5.482  1.2540  2.0327 -0.5846
   87SLPC  C218 8402   0.836   3.585   5.597  0.3534 -0.2299  0.1448
   87SLPC  H18R 8403   0.947   3.582   5.591  0.3412  0.5508 -0.8009
   87SLPC  H18S 8404   0.791   3.561   5.695 -2.8908 -0.6980 -1.3282
   87SLPC  H18T 8405   0.810   3.690   5.569  0.3790 -0.3458 -0.3182
   87SLPC   C33 8406   1.497   3.675   3.968  0.0573  0.2275  0.0112
   87SLPC   H3X 8407   1.502   3.758   4.042 -1.5611  1.9041 -1.6452
   87SLPC   H3Y 8408   1.591   3.618   3.957 -0.3484 -0.4049 -0.2264
   87SLPC   C34 8409   1.381   3.595   4.019  0.0510 -0.4230 -0.3919
   87SLPC   H4X 8410   1.352   3.514   3.950  0.3253  0.4317 -1.5463
   87SLPC   H4Y 8411   1.293   3.661   4.033  1.9488  2.5661 -1.5198
   87SLPC   C35 8412   1.417   3.532   4.159 -0.8337  0.1341 -0.8628
   87SLPC   H5X 8413   1.520   3.490   4.159  0.4694  3.0648 -1.6678
   87SLPC   H5Y 8414   1.348   3.454   4.197 -2.4969  2.6412  1.5881
   87SLPC   C36 8415   1.430   3.639   4.269 -0.5756  0.4788 -0.1234
   87SLPC   H6X 8416   1.327   3.682   4.267 -1.0158 -0.3624  1.9713
   87SLPC   H6Y 8417   1.513   3.705   4.235 -2.2247  2.3808 -0.6364
   87SLPC   C37 8418   1.446   3.580   4.414 -0.0675 -0.5758  1.1211
   87SLPC   H7X 8419   1.534   3.513   4.415  2.9948  3.0786  1.6062
   87SLPC   H7Y 8420   1.349   3.531   4.435 -0.6398  0.0982  0.1085
   87SLPC   C38 8421   1.452   3.686   4.519 -0.0965  0.0087  0.0021
   87SLPC   H8X 8422   1.356   3.741   4.510 -0.0117  0.0737 -0.5424
   87SLPC   H8Y 8423   1.538   3.754   4.500  1.0307 -1.5610 -0.7324
   87SLPC   C39 8424   1.470   3.621   4.655 -0.4686  0.5038  0.3671
   87SLPC   H9X 8425   1.576   3.589   4.653 -0.4311  0.5880 -2.4529
   87SLPC   H9Y 8426   1.413   3.527   4.671  2.7456 -1.9958 -1.5275
   87SLPC  C310 8427   1.424   3.710   4.773  0.1052 -0.3196 -0.3920
   87SLPC  H10X 8428   1.316   3.730   4.756  0.4830  1.7933 -0.5218
   87SLPC  H10Y 8429   1.479   3.806   4.764 -0.8541  0.2684 -0.0817
   87SLPC  C311 8430   1.443   3.631   4.909 -0.1934  0.6009  0.3945
   87SLPC  H11X 8431   1.549   3.614   4.938  0.0424  1.4231  0.0629
   87SLPC  H11Y 8432   1.398   3.530   4.899  1.6180 -0.2947  0.8924
   87SLPC  C312 8433   1.357   3.696   5.013  0.1219 -0.1815 -0.3787
   87SLPC  H12X 8434   1.256   3.722   4.975  0.3166  2.4434  0.6920
   87SLPC  H12Y 8435   1.407   3.791   5.043  0.9100 -0.8721  0.5334
   87SLPC  C313 8436   1.342   3.607   5.137 -0.0197  0.5186 -0.1680
   87SLPC  H13X 8437   1.444   3.582   5.172 -0.2731 -0.4321 -0.0788
   87SLPC  H13Y 8438   1.296   3.510   5.107  0.7597  1.0150 -3.4470
   87SLPC  C314 8439   1.264   3.676   5.249 -0.0732 -0.2097  0.1879
   87SLPC  H14X 8440   1.219   3.603   5.320 -0.9882  2.3160  2.3959
   87SLPC  H14Y 8441   1.184   3.734   5.198 -1.0771 -1.8119 -0.1320
   87SLPC  C315 8442   1.340   3.772   5.338 -0.6231 -0.2123  0.3036
   87SLPC  H15X 8443   1.282   3.811   5.424  1.2922 -1.7530  2.4255
   87SLPC  H15Y 8444   1.372   3.865   5.285 -1.1396  1.0958  2.1945
   87SLPC  C316 8445   1.470   3.715   5.395  0.0804 -0.0788  0.2665
   87SLPC  H16X 8446   1.510   3.804   5.449 -0.5503  0.1127  0.4331
   87SLPC  H16Y 8447   1.543   3.689   5.316 -0.6972  3.1971 -1.6900
   87SLPC  C317 8448   1.454   3.602   5.500 -0.5861 -0.2052  0.0505
   87SLPC  H17X 8449   1.514   3.514   5.470  1.4288  0.6778  1.2436
   87SLPC  H17Y 8450   1.348   3.569   5.507  0.0218 -2.1421  0.9220
   87SLPC  C318 8451   1.515   3.642   5.641  0.1892 -0.8038  0.5870
   87SLPC  H18X 8452   1.499   3.555   5.709  2.0428 -0.5159  1.4510
   87SLPC  H18Y 8453   1.463   3.733   5.678 -0.9092 -1.2745  0.2530
   87SLPC  H18Z 8454   1.621   3.667   5.621 -0.1826  0.7825  0.4655
   88SLPC     N 8455   0.144   2.785   2.827  0.4596  0.1860  0.0164
   88SLPC   C13 8456   0.110   2.661   2.751  0.5453  0.3133 -0.3478
   88SLPC  H13A 8457   0.158   2.674   2.655  2.6094  0.7485  0.6710
   88SLPC  H13B 8458   0.153   2.573   2.796  1.6791  1.2290  0.4573
   88SLPC  H13C 8459   0.005   2.637   2.745 -0.3601  3.0954  1.9163
   88SLPC   C14 8460   0.125   2.750   2.974 -0.6849  0.0015 -0.3435
   88SLPC  H14A 8461   0.120   2.839   3.035 -0.1067 -0.9815  1.1776
   88SLPC  H14B 8462   0.035   2.692   2.989 -0.5120 -1.4958 -3.9209
   88SLPC  H14C 8463   0.215   2.700   3.006 -0.2977 -0.4558 -2.0304
   88SLPC   C15 8464   0.041   2.890   2.782 -0.0832 -0.4201 -0.0708
   88SLPC  H15A 8465   0.069   2.980   2.835  2.0902 -0.7306 -0.6172
   88SLPC  H15B 8466   0.042   2.911   2.676  2.7915 -0.7731 -0.1870
   88SLPC  H15C 8467  -0.056   2.869   2.825  0.0718  1.4877  1.3182
   88SLPC   C12 8468   0.283   2.828   2.796 -1.2168  0.2166 -0.2880
   88SLPC  H12A 8469   0.317   2.915   2.850  1.2086 -0.2565 -0.9120
   88SLPC  H12B 8470   0.290   2.860   2.693  3.0242  1.8258  0.2834
   88SLPC   C11 8471   0.404   2.725   2.819 -0.0252  0.9391  0.2631
   88SLPC  H11A 8472   0.489   2.767   2.763 -0.3116  1.9612  0.5771
   88SLPC  H11B 8473   0.375   2.626   2.775  1.3388 -0.7791  2.9601
   88SLPC     P 8474   0.525   2.799   3.047  0.1008  0.0407  0.2506
   88SLPC   O13 8475   0.664   2.771   3.007  0.0092  0.5873 -0.1859
   88SLPC   O14 8476   0.474   2.937   3.035  0.6604 -0.9825  0.2478
   88SLPC   O12 8477   0.433   2.703   2.960  0.2153  0.0350  0.4702
   88SLPC   O11 8478   0.524   2.756   3.197  0.1210  0.4498 -0.0279
   88SLPC    C1 8479   0.471   2.633   3.236  0.1732  0.4405 -0.6147
   88SLPC    HA 8480   0.368   2.626   3.195  0.2620 -0.6898 -0.6798
   88SLPC    HB 8481   0.527   2.551   3.186  1.9105  1.2622 -0.0578
   88SLPC    C2 8482   0.474   2.619   3.393  0.3985 -0.0528 -0.2928
   88SLPC    HS 8483   0.414   2.528   3.414 -2.0143  1.0226 -2.0715
   88SLPC   O21 8484   0.421   2.734   3.460 -0.5767  0.0065  0.3739
   88SLPC   C21 8485   0.295   2.756   3.440 -1.0942  0.1134  0.0528
   88SLPC   O22 8486   0.219   2.678   3.383 -0.2618 -0.4086 -0.2854
   88SLPC   C22 8487   0.244   2.885   3.505 -0.3252  0.6447 -0.3970
   88SLPC   H2R 8488   0.335   2.944   3.528  0.3248 -0.6335  0.4035
   88SLPC   H2S 8489   0.190   2.944   3.428 -0.8127 -0.1668 -0.6924
   88SLPC    C3 8490   0.617   2.593   3.443 -0.1422  0.5574  0.1219
   88SLPC    HX 8491   0.687   2.673   3.412 -0.8758  1.1685  0.0022
   88SLPC    HY 8492   0.657   2.500   3.397  1.5423  0.8652  0.8845
   88SLPC   O31 8493   0.632   2.584   3.587  0.2843  0.2529  0.2141
   88SLPC   C31 8494   0.653   2.690   3.663  0.1352  0.0677  0.3928
   88SLPC   O32 8495   0.662   2.805   3.623 -0.1395  0.5667  0.4348
   88SLPC   C32 8496   0.662   2.646   3.807 -0.0544  0.3461 -0.5010
   88SLPC   H2X 8497   0.658   2.535   3.812 -0.8229  0.4183  0.9981
   88SLPC   H2Y 8498   0.579   2.693   3.863 -0.9737 -1.0336 -0.6545
   88SLPC   C23 8499   0.152   2.869   3.631  0.0461  0.5113 -0.3676
   88SLPC   H3R 8500   0.056   2.828   3.594  0.3951 -0.0727 -0.6452
   88SLPC   H3S 8501   0.140   2.972   3.671  0.1654  0.2494  0.3705
   88SLPC   C24 8502   0.210   2.773   3.731  0.3097 -0.0268 -0.2461
   88SLPC   H4R 8503   0.317   2.796   3.751  0.3249  0.0733 -0.4405
   88SLPC   H4S 8504   0.221   2.668   3.699  3.5696  0.2225 -0.2321
   88SLPC   C25 8505   0.151   2.776   3.875  0.4134 -0.4165  0.1324
   88SLPC   H5R 8506   0.047   2.738   3.882 -0.5386  1.3123 -2.8741
   88SLPC   H5S 8507   0.149   2.881   3.910  3.2365  0.0332 -0.7656
   88SLPC   C26 8508   0.243   2.696   3.970  0.4943 -0.0221  0.0461
   88SLPC   H6R 8509   0.351   2.709   3.946  0.9100 -0.3178  1.6291
   88SLPC   H6S 8510   0.218   2.590   3.945  0.4571 -0.1925  0.7738
   88SLPC   C27 8511   0.208   2.738   4.116 -0.1427  0.5494 -0.4263
   88SLPC   H7R 8512   0.097   2.736   4.123 -0.2372 -0.0187 -1.8688
   88SLPC   H7S 8513   0.245   2.840   4.137  2.5887 -0.6595  1.0821
   88SLPC   C28 8514   0.278   2.648   4.221  0.1036 -0.0262 -0.7077
   88SLPC   H8R 8515   0.278   2.545   4.178 -0.2224 -0.8932  1.2794
   88SLPC   H8S 8516   0.213   2.645   4.311  0.8278 -1.4128 -0.2111
   88SLPC   C29 8517   0.415   2.692   4.265 -0.8266  0.5373 -0.8537
   88SLPC   H9R 8518   0.489   2.716   4.188 -0.6088  1.5252 -0.3573
   88SLPC  C210 8519   0.457   2.711   4.394  0.1953 -0.6337  0.0252
   88SLPC  H10R 8520   0.557   2.749   4.419  1.0920 -2.5141 -0.4668
   88SLPC  C211 8521   0.378   2.676   4.519  0.2502 -0.3435 -0.5368
   88SLPC  H11R 8522   0.426   2.592   4.572  0.0540 -0.3138 -0.3097
   88SLPC  H11S 8523   0.280   2.631   4.491  0.8587 -1.6408 -0.6664
   88SLPC  C212 8524   0.359   2.794   4.617  0.0574  0.1055  0.2185
   88SLPC  H12R 8525   0.382   2.888   4.565 -0.2632 -0.2654 -0.6207
   88SLPC  C213 8526   0.356   2.785   4.751  0.7351 -0.1804 -0.2921
   88SLPC  H13R 8527   0.353   2.876   4.813 -1.8190 -1.1314  1.1291
   88SLPC  C214 8528   0.350   2.658   4.830 -0.0177  0.5452  0.6849
   88SLPC  H14R 8529   0.380   2.565   4.777  0.9977  2.0791 -1.5864
   88SLPC  H14S 8530   0.243   2.639   4.854 -0.0759 -2.0708 -1.2324
   88SLPC  C215 8531   0.439   2.683   4.952 -0.5834  0.1682 -0.0974
   88SLPC  H15R 8532   0.411   2.774   5.010 -1.4867 -0.0014 -0.2650
   88SLPC  H15S 8533   0.541   2.704   4.912 -0.0703  1.1107  1.5849
   88SLPC  C216 8534   0.449   2.562   5.048 -0.4212  0.6392  0.3529
   88SLPC  H16R 8535   0.477   2.472   4.991 -1.9062  0.0619  0.4829
   88SLPC  H16S 8536   0.350   2.546   5.096  0.9561 -0.4203  3.0303
   88SLPC  C217 8537   0.545   2.575   5.170  0.2645  0.1829 -0.3799
   88SLPC  H17R 8538   0.504   2.658   5.233 -0.5865  0.4849 -1.3090
   88SLPC  H17S 8539   0.647   2.613   5.146 -0.0978  2.1489  0.8967
   88SLPC  C218 8540   0.548   2.446   5.258 -0.1912  0.3024  0.1888
   88SLPC  H18R 8541   0.570   2.361   5.190 -1.2951  1.7721 -2.1425
   88SLPC  H18S 8542   0.453   2.415   5.308  1.2258 -1.2745  2.0609
   88SLPC  H18T 8543   0.627   2.459   5.335 -1.4399  1.9142  1.2633
   88SLPC   C33 8544   0.792   2.692   3.882 -0.3410  0.1527  0.8819
   88SLPC   H3X 8545   0.808   2.798   3.853  1.3466  0.4347  2.6117
   88SLPC   H3Y 8546   0.874   2.640   3.827 -0.1229  0.1909  1.1667
   88SLPC   C34 8547   0.788   2.669   4.027  0.6317 -0.4397  0.4287
   88SLPC   H4X 8548   0.752   2.566   4.044  1.1209 -0.5164  1.0199
   88SLPC   H4Y 8549   0.714   2.741   4.067  1.3011  0.6976 -0.2989
   88SLPC   C35 8550   0.916   2.672   4.088 -0.5175 -0.0417  0.3309
   88SLPC   H5X 8551   0.955   2.774   4.105 -1.0797 -0.0676  2.0272
   88SLPC   H5Y 8552   0.988   2.619   4.023  0.0010  0.9088  0.1181
   88SLPC   C36 8553   0.908   2.622   4.231  0.0680  1.3397  0.2356
   88SLPC   H6X 8554   1.010   2.587   4.261 -0.6161 -1.0455  0.0048
   88SLPC   H6Y 8555   0.850   2.527   4.228 -1.1502  2.0624  0.4065
   88SLPC   C37 8556   0.860   2.724   4.332  0.1440  0.3401 -0.2592
   88SLPC   H7X 8557   0.750   2.717   4.342  0.4126 -3.8398  2.0919
   88SLPC   H7Y 8558   0.906   2.817   4.292  0.8229  0.7557  1.4004
   88SLPC   C38 8559   0.918   2.705   4.475 -0.5503 -0.6228 -0.2482
   88SLPC   H8X 8560   0.932   2.596   4.492  1.0846 -0.1256  1.9570
   88SLPC   H8Y 8561   0.846   2.739   4.552  0.0620 -1.0770  0.5346
   88SLPC   C39 8562   1.057   2.772   4.494 -0.5402  0.0298  0.3162
   88SLPC   H9X 8563   1.056   2.883   4.492 -1.0690  0.1617  3.3151
   88SLPC   H9Y 8564   1.143   2.738   4.432  1.6711 -0.8250  3.5664
   88SLPC  C310 8565   1.112   2.752   4.637  0.2578  0.0022  0.3708
   88SLPC  H10X 8566   1.209   2.806   4.645  0.0936  0.1188  1.8852
   88SLPC  H10Y 8567   1.127   2.645   4.661 -2.0113 -0.9212 -1.8429
   88SLPC  C311 8568   1.018   2.804   4.752  0.3342  0.0980  0.3163
   88SLPC  H11X 8569   0.915   2.772   4.727  0.4990 -0.1452 -0.0634
   88SLPC  H11Y 8570   1.022   2.914   4.739 -1.1414  0.0116 -1.2026
   88SLPC  C312 8571   1.070   2.780   4.895 -0.0835 -0.2266  0.1747
   88SLPC  H12X 8572   1.175   2.816   4.904 -0.0702  0.5968 -2.4598
   88SLPC  H12Y 8573   1.074   2.670   4.909 -1.5332 -0.7147 -2.5310
   88SLPC  C313 8574   0.973   2.828   4.998 -0.1344  0.1838  0.6176
   88SLPC  H13X 8575   0.891   2.754   4.995 -1.0809  1.1773 -3.6227
   88SLPC  H13Y 8576   0.919   2.925   4.990 -0.8581 -0.3177 -0.6837
   88SLPC  C314 8577   1.037   2.816   5.139 -0.7942 -0.6159  0.7494
   88SLPC  H14X 8578   1.136   2.867   5.138 -1.2036  0.1987  0.8227
   88SLPC  H14Y 8579   1.048   2.707   5.156 -0.4938 -0.3342  2.6056
   88SLPC  C315 8580   0.948   2.868   5.250  0.3792  0.2152 -0.0498
   88SLPC  H15X 8581   0.846   2.825   5.254  0.6610 -0.5009 -0.3737
   88SLPC  H15Y 8582   0.945   2.978   5.231  0.7361  0.2338 -0.0107
   88SLPC  C316 8583   0.999   2.861   5.392 -1.2286  0.5591  0.4682
   88SLPC  H16X 8584   1.106   2.889   5.401  0.6555 -5.8270  2.7371
   88SLPC  H16Y 8585   1.018   2.755   5.417  0.8213  1.1430  1.6285
   88SLPC  C317 8586   0.913   2.932   5.496  0.2059 -0.0433 -1.0126
   88SLPC  H17X 8587   0.978   2.948   5.585 -1.4158  0.0945  0.1944
   88SLPC  H17Y 8588   0.829   2.866   5.526 -2.2445  1.4575 -4.0048
   88SLPC  C318 8589   0.861   3.077   5.469 -0.3460  0.3579 -0.6924
   88SLPC  H18X 8590   0.770   3.093   5.531 -1.0252 -1.5915 -1.1149
   88SLPC  H18Y 8591   0.832   3.092   5.363 -0.0396  0.5171 -0.7546
   88SLPC  H18Z 8592   0.945   3.147   5.488  0.1592 -0.1904 -0.8763
   89SAPE     N 8593   2.370   5.533   7.466 -0.3913 -0.0986  0.5996
   89SAPE   HN1 8594   2.428   5.603   7.416 -2.0428  0.2157 -0.9856
   89SAPE   HN2 8595   2.272   5.565   7.454 -0.1601  0.7800  1.0553
   89SAPE   HN3 8596   2.395   5.561   7.563 -1.1447  2.0394  0.2182
   89SAPE   C12 8597   2.402   5.391   7.428  0.1269 -0.3267  0.2966
   89SAPE  H12A 8598   2.363   5.368   7.327 -0.5228 -0.6990  0.6263
   89SAPE  H12B 8599   2.356   5.331   7.509  1.1744 -0.5394  0.7511
   89SAPE   C11 8600   2.551   5.362   7.428 -0.1927 -0.1872 -1.0672
   89SAPE  H11A 8601   2.589   5.370   7.324 -0.3912  0.1542 -1.1139
   89SAPE  H11B 8602   2.555   5.254   7.453  0.9974  0.2001  0.5963
   89SAPE     P 8603   2.764   5.496   7.476 -0.1394 -0.3252 -0.1012
   89SAPE   O13 8604   2.734   5.582   7.358  0.1129 -0.6092 -0.6504
   89SAPE   O14 8605   2.839   5.563   7.586  0.1159 -0.0265  0.1246
   89SAPE   O12 8606   2.620   5.449   7.524  0.3057 -0.3320  0.8093
   89SAPE   O11 8607   2.837   5.360   7.432  0.3405 -0.6397  0.2803
   89SAPE    C1 8608   2.983   5.356   7.441  0.2473 -0.3254 -0.1698
   89SAPE    HA 8609   3.022   5.421   7.523 -0.0096  0.3312 -0.5612
   89SAPE    HB 8610   3.024   5.256   7.466  1.5181  0.9180  3.4270
   89SAPE    C2 8611   3.053   5.416   7.317 -0.1650  0.2957  0.6241
   89SAPE    HS 8612   3.018   5.520   7.302  0.0348  0.0862 -1.5304
   89SAPE   O21 8613   3.027   5.337   7.205  0.0389 -0.1950  0.6897
   89SAPE   C21 8614   3.024   5.385   7.082  0.4330  0.8644  0.0962
   89SAPE   O22 8615   3.022   5.503   7.050  0.0642 -0.2246 -0.4486
   89SAPE   C22 8616   3.026   5.267   6.981 -0.6042 -0.1478  0.5331
   89SAPE   H2R 8617   3.102   5.189   7.003  0.2710  0.3856 -0.4632
   89SAPE   H2S 8618   2.927   5.220   6.998 -0.7007  0.2633  1.1260
   89SAPE    C3 8619   3.210   5.411   7.341 -0.4681 -0.8430 -0.3196
   89SAPE    HX 8620   3.240   5.308   7.371 -1.0276 -1.1529 -0.7990
   89SAPE    HY 8621   3.240   5.475   7.427 -0.0415 -3.7207  1.8372
   89SAPE   O31 8622   3.278   5.443   7.216 -0.8305 -0.4173 -0.1113
   89SAPE   C31 8623   3.289   5.574   7.196 -0.5957  0.0466  0.0015
   89SAPE   O32 8624   3.241   5.665   7.260  0.6367  0.0457  0.5914
   89SAPE   C32 8625   3.379   5.595   7.070 -0.4895 -0.3052  0.5370
   89SAPE   H2X 8626   3.410   5.495   7.034  0.2376  0.0812  0.0768
   89SAPE   H2Y 8627   3.470   5.652   7.097 -0.1919 -1.0282  1.0737
   89SAPE   C23 8628   3.035   5.314   6.834 -0.1949 -0.5215 -0.3438
   89SAPE   H3R 8629   2.974   5.403   6.809 -1.0564  0.5587  4.7192
   89SAPE   H3S 8630   2.987   5.239   6.768 -0.8878  0.3441 -0.8379
   89SAPE   C24 8631   3.180   5.341   6.781  0.5048  0.1888 -0.6505
   89SAPE   H4R 8632   3.224   5.384   6.874  1.7847 -1.4051 -0.4740
   89SAPE   H4S 8633   3.175   5.427   6.711  1.7772 -1.3147 -2.6900
   89SAPE   C25 8634   3.266   5.227   6.722  0.3469  0.4755  0.5107
   89SAPE   H5R 8635   3.304   5.154   6.795 -0.1492 -0.7872 -0.4569
   89SAPE   C26 8636   3.285   5.194   6.589 -0.1310 -0.5344 -0.5018
   89SAPE   H6R 8637   3.339   5.101   6.564 -1.9000 -1.8783  0.4421
   89SAPE   C27 8638   3.244   5.279   6.472 -1.1721  0.0747  0.0825
   89SAPE   H7R 8639   3.338   5.321   6.430 -1.2030  0.8385  0.7473
   89SAPE   H7S 8640   3.194   5.369   6.515  0.6766  0.6919  1.0697
   89SAPE   C28 8641   3.163   5.215   6.355 -0.6717 -0.0821  0.1465
   89SAPE   H8R 8642   3.066   5.173   6.384 -0.4162 -1.3380 -0.7317
   89SAPE   C29 8643   3.208   5.195   6.228  0.2845  0.6033 -0.5961
   89SAPE   H9R 8644   3.130   5.162   6.159 -0.3733  1.3291 -0.2155
   89SAPE  C210 8645   3.329   5.251   6.156  0.5507 -0.3591 -0.4475
   89SAPE  H10R 8646   3.409   5.174   6.154  0.5154 -0.7330  3.5554
   89SAPE  H10S 8647   3.381   5.323   6.222  0.6765 -0.8119 -0.0488
   89SAPE  C211 8648   3.290   5.314   6.022  0.2534 -0.0137  0.1048
   89SAPE  H11R 8649   3.241   5.412   6.032 -1.0704 -0.7194  0.7142
   89SAPE  C212 8650   3.327   5.258   5.904  0.1893  0.2710  0.6179
   89SAPE  H12R 8651   3.307   5.322   5.817  2.3018  0.8084  0.4739
   89SAPE  C213 8652   3.391   5.124   5.886  0.1778 -0.2361  0.2814
   89SAPE  H13R 8653   3.365   5.055   5.969  2.3685  0.5351  1.7177
   89SAPE  H13S 8654   3.502   5.134   5.878  0.0523  0.7960 -0.4340
   89SAPE  C214 8655   3.338   5.077   5.754 -0.1815 -0.1513 -0.1985
   89SAPE  H14R 8656   3.231   5.053   5.743  0.3118 -1.4755 -2.6269
   89SAPE  C215 8657   3.422   5.052   5.650  0.2722 -0.2841 -0.2134
   89SAPE  H15R 8658   3.384   4.995   5.564 -1.2971 -1.1675  1.0172
   89SAPE  C216 8659   3.576   5.080   5.653  0.5109 -0.7303 -0.3719
   89SAPE  H16R 8660   3.597   5.168   5.718 -0.9200  0.5052 -1.5048
   89SAPE  H16S 8661   3.607   5.103   5.549 -0.2835 -0.5061 -0.5665
   89SAPE  C217 8662   3.660   4.962   5.704 -0.0446 -0.0621 -0.0980
   89SAPE  H17R 8663   3.635   4.944   5.811 -0.4983  1.5492  0.0921
   89SAPE  H17S 8664   3.766   4.997   5.702 -0.1893  0.5930  1.5075
   89SAPE  C218 8665   3.636   4.841   5.626  0.1169 -0.1842 -0.3420
   89SAPE  H18R 8666   3.658   4.856   5.518  2.4696 -1.1109 -0.0418
   89SAPE  H18S 8667   3.529   4.813   5.620  0.6082 -1.9484 -1.7524
   89SAPE  C219 8668   3.728   4.732   5.676 -0.1290  0.2862 -0.1080
   89SAPE  H19R 8669   3.709   4.710   5.784 -0.8389  0.7600 -0.1278
   89SAPE  H19S 8670   3.835   4.760   5.674 -0.5910  2.1476 -0.1816
   89SAPE  C220 8671   3.701   4.600   5.613  0.2973  0.2825 -0.6469
   89SAPE  H20R 8672   3.704   4.620   5.504 -4.1755  0.8786 -0.8500
   89SAPE  H20S 8673   3.603   4.552   5.633 -0.6315  1.8193 -1.3117
   89SAPE  H20T 8674   3.781   4.531   5.646  1.5115  0.8372 -2.3020
   89SAPE   C33 8675   3.312   5.676   6.951 -0.0122 -0.0630  0.1703
   89SAPE   H3X 8676   3.322   5.784   6.975 -0.5928 -0.1605  0.9046
   89SAPE   H3Y 8677   3.202   5.661   6.952  0.1118 -1.0514  0.0180
   89SAPE   C34 8678   3.377   5.648   6.819 -0.0326  0.8531 -0.2719
   89SAPE   H4X 8679   3.370   5.539   6.798 -2.3331  0.5226  1.8819
   89SAPE   H4Y 8680   3.483   5.679   6.836  0.1237  0.0447  0.3141
   89SAPE   C35 8681   3.310   5.724   6.704 -0.2723  0.0679  0.0262
   89SAPE   H5X 8682   3.320   5.834   6.717 -1.1263  0.0331  1.1603
   89SAPE   H5Y 8683   3.205   5.689   6.709  0.0022 -0.9097 -0.7638
   89SAPE   C36 8684   3.361   5.674   6.568  0.6022 -0.2168 -0.8954
   89SAPE   H6X 8685   3.313   5.575   6.556 -1.4682  0.7339 -0.8673
   89SAPE   H6Y 8686   3.472   5.673   6.566  0.6108  0.4336 -1.3551
   89SAPE   C37 8687   3.315   5.761   6.451 -0.9276  0.9608  0.7486
   89SAPE   H7X 8688   3.367   5.858   6.433 -1.3525  0.7938 -1.8655
   89SAPE   H7Y 8689   3.208   5.793   6.458 -1.0479  0.7094  0.1573
   89SAPE   C38 8690   3.361   5.679   6.323  0.0400  0.7443  0.2590
   89SAPE   H8X 8691   3.294   5.591   6.311 -3.0119  3.0388 -0.9621
   89SAPE   H8Y 8692   3.468   5.655   6.337 -0.3655 -0.5132  1.3745
   89SAPE   C39 8693   3.342   5.759   6.188 -0.6674 -0.0487 -0.6794
   89SAPE   H9X 8694   3.414   5.843   6.201  1.7361 -2.1523  0.4445
   89SAPE   H9Y 8695   3.236   5.792   6.195 -1.1893 -1.7855  0.3381
   89SAPE  C310 8696   3.355   5.687   6.054  0.7862 -0.2484  0.4956
   89SAPE  H10X 8697   3.323   5.582   6.071 -4.0141  1.2675  2.5713
   89SAPE  H10Y 8698   3.465   5.683   6.037  0.5053 -2.6824 -1.2418
   89SAPE  C311 8699   3.284   5.763   5.940 -0.3750  0.8792  1.1157
   89SAPE  H11X 8700   3.331   5.864   5.928 -0.3935  0.7443 -0.2003
   89SAPE  H11Y 8701   3.179   5.788   5.964 -0.2569  2.5394  0.1001
   89SAPE  C312 8702   3.280   5.678   5.813  0.3544 -0.8849 -0.5756
   89SAPE  H12X 8703   3.201   5.726   5.752 -0.9905 -0.1683  1.6154
   89SAPE  H12Y 8704   3.263   5.570   5.834 -0.1049 -0.5720  0.8153
   89SAPE  C313 8705   3.410   5.678   5.741  0.1083 -0.2651  0.5917
   89SAPE  H13X 8706   3.488   5.633   5.807  1.2186 -2.5983 -2.1111
   89SAPE  H13Y 8707   3.431   5.784   5.716  0.0589 -0.5483 -0.7015
   89SAPE  C314 8708   3.406   5.600   5.615 -0.0583 -0.4075 -0.8983
   89SAPE  H14X 8709   3.344   5.508   5.621 -1.0565  0.3276  1.9943
   89SAPE  H14Y 8710   3.506   5.568   5.577 -0.7539 -4.1762  0.0203
   89SAPE  C315 8711   3.336   5.685   5.518  0.0663 -0.0366  0.1290
   89SAPE  H15X 8712   3.405   5.771   5.500 -2.9225  2.6202  0.6026
   89SAPE  H15Y 8713   3.245   5.722   5.570  1.1248  1.7184  0.8207
   89SAPE  C316 8714   3.291   5.614   5.384 -0.0709 -0.1821 -0.7040
   89SAPE  H16X 8715   3.269   5.690   5.306 -1.6504  0.7928  0.6222
   89SAPE  H16Y 8716   3.197   5.554   5.387  0.0563 -0.5046 -2.1768
   89SAPE  C317 8717   3.395   5.524   5.317  0.4698  0.0629 -0.0581
   89SAPE  H17X 8718   3.401   5.429   5.375 -1.2698  1.6509  3.0023
   89SAPE  H17Y 8719   3.499   5.563   5.320  0.4403  0.0911  1.2172
   89SAPE  C318 8720   3.361   5.488   5.171  0.5027  0.4357 -0.1935
   89SAPE  H18X 8721   3.262   5.439   5.173  2.0473 -3.0718 -1.0029
   89SAPE  H18Y 8722   3.434   5.422   5.120  0.4793 -0.0192  0.3465
   89SAPE  H18Z 8723   3.360   5.586   5.119  2.2899  0.9138  0.5806
   90SAPE     N 8724   6.047   6.013   7.831  0.3101  0.0164  0.1670
   90SAPE   HN1 8725   5.979   5.998   7.908  0.3858 -0.8649  0.0657
   90SAPE   HN2 8726   6.018   5.953   7.751  2.0580  0.1822 -0.6455
   90SAPE   HN3 8727   6.137   5.973   7.865 -0.8620 -3.0084  0.0098
   90SAPE   C12 8728   6.052   6.152   7.787  0.6649 -0.4352 -0.4767
   90SAPE  H12A 8729   5.951   6.187   7.756  1.4087  2.5658  0.1921
   90SAPE  H12B 8730   6.110   6.146   7.692  0.0098  1.9315 -1.1056
   90SAPE   C11 8731   6.131   6.237   7.883 -0.5723  0.2409 -0.0281
   90SAPE  H11A 8732   6.075   6.240   7.979 -1.1525  0.6307 -0.3702
   90SAPE  H11B 8733   6.121   6.343   7.848  2.5253  0.3583 -0.8439
   90SAPE     P 8734   6.384   6.290   7.858  0.1627 -0.0392  0.1200
   90SAPE   O13 8735   6.353   6.434   7.875 -0.6048  0.5944 -0.2232
   90SAPE   O14 8736   6.509   6.240   7.925 -0.6523  0.3269  0.1861
   90SAPE   O12 8737   6.269   6.195   7.901 -0.2412  0.5906  0.0979
   90SAPE   O11 8738   6.394   6.256   7.706  0.0709  1.0729  0.8488
   90SAPE    C1 8739   6.494   6.184   7.638 -0.2642 -0.5000 -0.0274
   90SAPE    HA 8740   6.517   6.247   7.549 -0.0253  0.3141  0.5933
   90SAPE    HB 8741   6.587   6.177   7.698  0.8684 -1.1310 -1.7742
   90SAPE    C2 8742   6.444   6.060   7.572 -0.3823  0.3386  0.2403
   90SAPE    HS 8743   6.409   5.992   7.653 -0.6997  0.1282 -0.0714
   90SAPE   O21 8744   6.554   6.008   7.496 -0.1662 -0.2767 -0.0458
   90SAPE   C21 8745   6.553   5.875   7.489  0.1992 -0.2727  0.0479
   90SAPE   O22 8746   6.469   5.800   7.532 -0.3788 -0.3024 -0.0233
   90SAPE   C22 8747   6.672   5.835   7.404 -1.4477 -0.0197  0.5037
   90SAPE   H2R 8748   6.642   5.860   7.300  0.0744  1.7614  0.4620
   90SAPE   H2S 8749   6.758   5.902   7.423 -1.0742  0.8599 -3.4587
   90SAPE    C3 8750   6.326   6.092   7.465 -0.3221 -0.2310 -0.1076
   90SAPE    HX 8751   6.368   6.165   7.393 -1.5124  1.8784  1.2018
   90SAPE    HY 8752   6.247   6.160   7.506 -0.0665 -0.4368  0.7627
   90SAPE   O31 8753   6.276   5.975   7.396 -0.3745 -0.5331  0.5179
   90SAPE   C31 8754   6.160   5.925   7.423 -0.3492  0.5800  0.7972
   90SAPE   O32 8755   6.068   5.967   7.484  0.4514  0.2925 -0.6404
   90SAPE   C32 8756   6.156   5.784   7.363  0.3736 -0.3308  0.8291
   90SAPE   H2X 8757   6.133   5.723   7.453  1.1053 -1.4628  0.2781
   90SAPE   H2Y 8758   6.260   5.761   7.331  0.8395  1.7749  0.6672
   90SAPE   C23 8759   6.712   5.685   7.416 -0.3304  1.0810 -0.7607
   90SAPE   H3R 8760   6.631   5.621   7.375 -0.6656  1.4565 -0.6969
   90SAPE   H3S 8761   6.722   5.659   7.524  1.5476 -3.8556 -1.8681
   90SAPE   C24 8762   6.842   5.658   7.344 -0.4598  0.2657  0.3629
   90SAPE   H4R 8763   6.881   5.554   7.355  2.1340  0.9716 -1.2602
   90SAPE   H4S 8764   6.922   5.716   7.395  0.4334 -1.6244  1.2459
   90SAPE   C25 8765   6.833   5.687   7.194  0.5724  0.2139  0.6670
   90SAPE   H5R 8766   6.830   5.796   7.184 -1.9592  0.1152 -0.4689
   90SAPE   C26 8767   6.818   5.600   7.093  0.6156  0.1311 -0.2894
   90SAPE   H6R 8768   6.811   5.625   6.986 -4.0350 -0.8315 -0.3922
   90SAPE   C27 8769   6.801   5.455   7.129 -0.1820 -0.3199 -0.4178
   90SAPE   H7R 8770   6.729   5.409   7.057  0.5137 -1.4895 -0.3958
   90SAPE   H7S 8771   6.768   5.437   7.233 -0.4841 -0.8883 -0.6025
   90SAPE   C28 8772   6.926   5.376   7.111  0.0613 -0.7293  0.3189
   90SAPE   H8R 8773   6.954   5.323   7.203  3.1491  1.0833  0.5561
   90SAPE   C29 8774   7.007   5.354   7.008 -0.7705 -0.5158  0.0496
   90SAPE   H9R 8775   7.100   5.297   7.024 -0.2344  0.2834 -0.1709
   90SAPE  C210 8776   6.996   5.424   6.873  0.1368  0.0057  0.5734
   90SAPE  H10R 8777   7.059   5.516   6.872  0.8470 -0.4586  1.1289
   90SAPE  H10S 8778   6.895   5.466   6.857 -0.6435 -1.8785  0.2570
   90SAPE  C211 8779   7.023   5.341   6.750  0.4345 -0.4569 -0.1181
   90SAPE  H11R 8780   7.032   5.233   6.768  1.5043 -0.1634  1.2280
   90SAPE  C212 8781   7.021   5.401   6.624 -0.4074 -0.3684 -0.6027
   90SAPE  H12R 8782   7.044   5.340   6.535 -1.1037  0.5165 -1.4214
   90SAPE  C213 8783   6.988   5.542   6.589  0.1356 -0.0463  0.5282
   90SAPE  H13R 8784   7.079   5.601   6.565 -1.3822  2.1747 -0.1300
   90SAPE  H13S 8785   6.951   5.598   6.678 -1.1553  0.5434 -0.3514
   90SAPE  C214 8786   6.890   5.563   6.478  0.5623  0.0561  0.1546
   90SAPE  H14R 8787   6.784   5.543   6.500  0.0432  0.0165 -2.1727
   90SAPE  C215 8788   6.910   5.597   6.349  0.2483  0.3169 -0.6921
   90SAPE  H15R 8789   6.821   5.615   6.286 -0.1361 -1.1978 -0.6268
   90SAPE  C216 8790   7.036   5.632   6.273  0.3351  0.2936 -0.7842
   90SAPE  H16R 8791   7.121   5.606   6.340 -0.7117 -1.9046 -0.2141
   90SAPE  H16S 8792   7.052   5.740   6.250 -0.0407  1.3791  3.1774
   90SAPE  C217 8793   7.047   5.558   6.137 -0.4323  0.0978 -0.2299
   90SAPE  H17R 8794   7.007   5.455   6.149  1.1732 -0.6355 -0.9687
   90SAPE  H17S 8795   7.147   5.570   6.091  0.8429  0.8788  2.5803
   90SAPE  C218 8796   6.959   5.636   6.035  0.0110 -0.0704 -0.0220
   90SAPE  H18R 8797   7.020   5.724   6.006  1.5390 -0.4107  1.8931
   90SAPE  H18S 8798   6.861   5.671   6.074  1.5261  3.8643  0.8138
   90SAPE  C219 8799   6.931   5.552   5.912  0.2369 -1.2059 -0.3851
   90SAPE  H19R 8800   6.862   5.470   5.941 -2.5744  1.0173 -0.2829
   90SAPE  H19S 8801   7.018   5.501   5.866 -0.6856 -3.1067 -0.1266
   90SAPE  C220 8802   6.851   5.635   5.805 -0.1054 -0.8070  0.8646
   90SAPE  H20R 8803   6.801   5.562   5.737 -1.2137  0.4148  0.3252
   90SAPE  H20S 8804   6.928   5.690   5.749 -1.0286  0.3078  0.6502
   90SAPE  H20T 8805   6.774   5.696   5.856  0.5744 -0.9848  2.1564
   90SAPE   C33 8806   6.074   5.757   7.235 -0.3258 -0.2806 -0.7784
   90SAPE   H3X 8807   5.971   5.799   7.239  0.6939  2.5265 -1.3835
   90SAPE   H3Y 8808   6.063   5.647   7.228  0.2456 -0.4503  0.6444
   90SAPE   C34 8809   6.139   5.812   7.110 -0.6128  0.0755  0.1354
   90SAPE   H4X 8810   6.243   5.775   7.100 -0.5369 -0.0015  1.1239
   90SAPE   H4Y 8811   6.145   5.923   7.107  0.1778  0.0347 -0.2341
   90SAPE   C35 8812   6.058   5.770   6.987 -0.0598  0.3375  0.0754
   90SAPE   H5X 8813   5.961   5.824   6.996 -0.6292 -0.7764  0.7525
   90SAPE   H5Y 8814   6.039   5.661   6.991  0.4623  0.1602 -1.4957
   90SAPE   C36 8815   6.124   5.797   6.854  0.8739  0.2910 -0.1092
   90SAPE   H6X 8816   6.213   5.732   6.839 -0.0821 -1.5151  1.6232
   90SAPE   H6Y 8817   6.163   5.901   6.846 -2.2555  1.5257 -0.8250
   90SAPE   C37 8818   6.034   5.774   6.734  0.5130 -0.0639 -0.2263
   90SAPE   H7X 8819   5.951   5.846   6.749  1.2958  0.2711  3.2441
   90SAPE   H7Y 8820   5.987   5.673   6.739 -1.7800  0.9272 -0.4479
   90SAPE   C38 8821   6.106   5.785   6.593  0.4417  0.3825 -0.1283
   90SAPE   H8X 8822   6.187   5.708   6.586  1.0390  0.9669  0.2852
   90SAPE   H8Y 8823   6.140   5.890   6.598 -1.5016  1.0612 -0.3684
   90SAPE   C39 8824   6.006   5.770   6.469  0.2175  0.3649 -0.7308
   90SAPE   H9X 8825   5.916   5.833   6.482  0.1918  0.2572 -0.3774
   90SAPE   H9Y 8826   5.975   5.664   6.458  1.9535  0.0736 -4.6192
   90SAPE  C310 8827   6.080   5.818   6.341  0.6990 -0.3105 -0.1311
   90SAPE  H10X 8828   6.180   5.770   6.350  0.4808 -1.2694 -2.2255
   90SAPE  H10Y 8829   6.091   5.928   6.349 -0.3994 -0.0245 -1.9942
   90SAPE  C311 8830   6.025   5.783   6.209 -0.0030  0.4434  0.1868
   90SAPE  H11X 8831   5.927   5.833   6.196 -0.7293 -0.9344  0.2069
   90SAPE  H11Y 8832   6.004   5.675   6.193  1.1059  0.0746  1.0714
   90SAPE  C312 8833   6.137   5.823   6.108  0.3809 -0.3079  0.6845
   90SAPE  H12X 8834   6.220   5.751   6.127  2.1972  1.8145  1.2001
   90SAPE  H12Y 8835   6.175   5.926   6.121  1.5268 -0.2210 -2.4319
   90SAPE  C313 8836   6.087   5.816   5.963 -0.0327 -0.3644 -0.2475
   90SAPE  H13X 8837   6.039   5.911   5.934  2.1293  0.3338 -1.7726
   90SAPE  H13Y 8838   5.999   5.752   5.940  0.8517 -1.1745 -1.5072
   90SAPE  C314 8839   6.194   5.783   5.861  0.3257 -0.0268 -0.4697
   90SAPE  H14X 8840   6.267   5.700   5.877  1.3889  0.4846 -2.4458
   90SAPE  H14Y 8841   6.257   5.872   5.842 -0.5001  0.6158 -0.2722
   90SAPE  C315 8842   6.133   5.759   5.723 -0.1012 -0.5257  0.0702
   90SAPE  H15X 8843   6.050   5.831   5.703 -1.9366 -2.0030  1.8836
   90SAPE  H15Y 8844   6.088   5.659   5.707  0.4132 -0.7849  0.2261
   90SAPE  C316 8845   6.243   5.768   5.608  0.3528  0.1989  0.2466
   90SAPE  H16X 8846   6.257   5.877   5.587  3.7741  0.1926  1.8064
   90SAPE  H16Y 8847   6.199   5.731   5.513 -1.3576  0.2016  1.0096
   90SAPE  C317 8848   6.373   5.701   5.640 -0.1846 -0.0169  0.4480
   90SAPE  H17X 8849   6.340   5.599   5.670 -2.0428  0.3996 -0.0294
   90SAPE  H17Y 8850   6.414   5.756   5.728 -1.3939 -2.0641  2.4140
   90SAPE  C318 8851   6.457   5.686   5.520 -0.0409 -0.7274  0.2030
   90SAPE  H18X 8852   6.559   5.654   5.550  0.6241 -0.8529 -2.0554
   90SAPE  H18Y 8853   6.466   5.790   5.483 -1.4487  0.6780  3.4000
   90SAPE  H18Z 8854   6.406   5.616   5.450 -2.2048  2.3770 -1.5548
   91SAPE     N 8855   4.534   5.014   7.671  0.6522 -0.0969  0.2720
   91SAPE   HN1 8856   4.517   5.082   7.747 -0.0700  0.1617 -0.1102
   91SAPE   HN2 8857   4.577   4.925   7.704 -0.2814 -0.3979  0.6984
   91SAPE   HN3 8858   4.581   5.060   7.590 -0.3429 -2.4728 -1.7876
   91SAPE   C12 8859   4.400   4.954   7.621  0.3965 -0.1092  0.0777
   91SAPE  H12A 8860   4.421   4.867   7.555 -0.5734 -0.4483  0.2051
   91SAPE  H12B 8861   4.350   5.027   7.555  2.6134  0.2589 -1.3175
   91SAPE   C11 8862   4.309   4.910   7.738 -0.2536  0.0544 -0.1792
   91SAPE  H11A 8863   4.356   4.819   7.781  0.5576  0.3104 -0.5117
   91SAPE  H11B 8864   4.204   4.893   7.704  0.1679  0.3197 -1.7058
   91SAPE     P 8865   4.190   5.109   7.878 -0.2194  0.3661  0.1582
   91SAPE   O13 8866   4.074   5.031   7.914 -0.0646 -0.0883  0.5437
   91SAPE   O14 8867   4.236   5.210   7.971 -0.1926 -0.5404  0.3827
   91SAPE   O12 8868   4.310   5.007   7.846  0.7712  0.0332  0.4519
   91SAPE   O11 8869   4.171   5.171   7.734 -0.0714 -0.2667 -0.7559
   91SAPE    C1 8870   4.137   5.311   7.728 -0.2157 -0.4332  0.4643
   91SAPE    HA 8871   4.032   5.316   7.689 -0.9659 -1.9820  2.1644
   91SAPE    HB 8872   4.125   5.368   7.823 -1.9377  0.6925 -0.3602
   91SAPE    C2 8873   4.231   5.388   7.626  0.0931  0.2645 -0.5176
   91SAPE    HS 8874   4.190   5.487   7.597  1.2719  1.3320  1.2855
   91SAPE   O21 8875   4.257   5.308   7.507  0.4367 -0.2161 -0.3056
   91SAPE   C21 8876   4.159   5.319   7.414 -0.2758  1.6240 -0.1919
   91SAPE   O22 8877   4.055   5.383   7.421  0.4836 -0.2628  0.2304
   91SAPE   C22 8878   4.209   5.242   7.298 -0.5324 -0.1430  0.0094
   91SAPE   H2R 8879   4.283   5.297   7.237 -2.0928  3.4126  1.0436
   91SAPE   H2S 8880   4.265   5.153   7.334  1.6835  1.5552  1.0048
   91SAPE    C3 8881   4.362   5.428   7.702  0.0535  0.6673 -0.5095
   91SAPE    HX 8882   4.402   5.341   7.757 -0.2952  0.7725 -0.0827
   91SAPE    HY 8883   4.329   5.506   7.775  1.5593  0.1040  0.8283
   91SAPE   O31 8884   4.450   5.486   7.612 -0.6365  0.4191  0.0179
   91SAPE   C31 8885   4.532   5.397   7.547  0.6059 -0.2480  0.5919
   91SAPE   O32 8886   4.543   5.280   7.568 -0.1763 -0.0755 -0.1642
   91SAPE   C32 8887   4.587   5.468   7.424  0.6339 -0.8170 -0.0972
   91SAPE   H2X 8888   4.673   5.536   7.440  0.6437 -0.5544 -1.1953
   91SAPE   H2Y 8889   4.504   5.534   7.390  0.8257 -1.2608 -1.4747
   91SAPE   C23 8890   4.086   5.203   7.212 -0.7963  0.9025 -0.0234
   91SAPE   H3R 8891   4.033   5.294   7.177 -0.8398  0.4058 -1.2929
   91SAPE   H3S 8892   4.015   5.135   7.263  0.1987 -0.9358 -0.9923
   91SAPE   C24 8893   4.131   5.134   7.086 -0.1360 -0.1426 -0.1675
   91SAPE   H4R 8894   4.188   5.050   7.129 -0.4624 -1.5579 -2.3287
   91SAPE   H4S 8895   4.207   5.192   7.029 -0.1414  0.8772  0.8222
   91SAPE   C25 8896   4.026   5.079   6.991 -0.8514 -0.1855  0.0531
   91SAPE   H5R 8897   3.940   5.024   7.031 -2.6516  0.8578 -2.1935
   91SAPE   C26 8898   4.032   5.082   6.855 -0.0810  0.3893 -0.4467
   91SAPE   H6R 8899   3.952   5.044   6.789  1.0179  0.0777 -1.6663
   91SAPE   C27 8900   4.139   5.140   6.770  0.1708 -0.7197 -0.0928
   91SAPE   H7R 8901   4.203   5.214   6.823 -1.4350  1.1810 -0.6388
   91SAPE   H7S 8902   4.095   5.197   6.685 -0.6661 -0.4090  0.5328
   91SAPE   C28 8903   4.224   5.027   6.719  0.8978  0.4740  0.3006
   91SAPE   H8R 8904   4.258   4.949   6.788  0.7552 -0.0685 -0.2368
   91SAPE   C29 8905   4.254   5.005   6.586 -0.5402 -0.2057  0.2301
   91SAPE   H9R 8906   4.326   4.926   6.560 -0.1765 -0.2463  1.3309
   91SAPE  C210 8907   4.221   5.110   6.470 -1.1050  0.2513 -0.6201
   91SAPE  H10R 8908   4.288   5.078   6.388  0.6674  0.8483  0.5254
   91SAPE  H10S 8909   4.258   5.215   6.478 -2.7348  0.8512 -0.6922
   91SAPE  C211 8910   4.078   5.111   6.429 -0.5707  0.0075  0.3845
   91SAPE  H11R 8911   4.005   5.137   6.507 -0.6380  0.3891  0.1985
   91SAPE  C212 8912   4.027   5.094   6.310 -0.0960 -0.0869 -0.4625
   91SAPE  H12R 8913   3.919   5.113   6.302  0.1588  2.0258  0.5813
   91SAPE  C213 8914   4.089   5.069   6.180  0.5435 -0.4158  0.4565
   91SAPE  H13R 8915   4.031   4.996   6.119  0.7170  0.3007 -0.5913
   91SAPE  H13S 8916   4.184   5.014   6.197  0.6407 -0.0497  1.1328
   91SAPE  C214 8917   4.118   5.186   6.090 -0.3557 -0.4426 -0.6273
   91SAPE  H14R 8918   4.042   5.265   6.096  0.2266  0.0275  1.5643
   91SAPE  C215 8919   4.240   5.215   6.036 -0.7652  0.2040  0.4968
   91SAPE  H15R 8920   4.251   5.298   5.964  2.0991 -1.6874 -1.4850
   91SAPE  C216 8921   4.365   5.136   6.026 -0.5741 -0.7854 -0.4066
   91SAPE  H16R 8922   4.329   5.032   6.010 -0.4463 -0.7343 -1.0340
   91SAPE  H16S 8923   4.412   5.132   6.126  0.0190  2.2931 -0.4772
   91SAPE  C217 8924   4.462   5.187   5.923  0.4921  0.3611 -0.4465
   91SAPE  H17R 8925   4.499   5.285   5.960  2.7189 -0.6715  0.2165
   91SAPE  H17S 8926   4.413   5.206   5.825 -1.1928 -0.5319  0.1868
   91SAPE  C218 8927   4.572   5.089   5.907  0.0577 -0.6719  0.2765
   91SAPE  H18R 8928   4.546   4.981   5.902  1.9190 -1.1021 -2.9106
   91SAPE  H18S 8929   4.644   5.094   5.992  2.0349 -2.2271 -1.2006
   91SAPE  C219 8930   4.643   5.112   5.778 -0.0089 -0.0426  0.6149
   91SAPE  H19R 8931   4.575   5.115   5.690  2.7349  0.3393 -1.6276
   91SAPE  H19S 8932   4.714   5.027   5.772  1.2053  0.8574  1.6248
   91SAPE  C220 8933   4.730   5.235   5.790 -0.2774 -0.3817  0.8157
   91SAPE  H20R 8934   4.827   5.218   5.842 -0.6305  1.9702  2.3728
   91SAPE  H20S 8935   4.676   5.318   5.839 -0.1677  1.8946 -2.6126
   91SAPE  H20T 8936   4.756   5.282   5.693 -0.5662 -1.7301  0.0450
   91SAPE   C33 8937   4.613   5.372   7.312  0.0701 -0.1294  0.0832
   91SAPE   H3X 8938   4.524   5.305   7.308 -1.0366  1.2411  1.0242
   91SAPE   H3Y 8939   4.698   5.314   7.353 -0.6716 -2.4943 -1.4586
   91SAPE   C34 8940   4.634   5.445   7.181 -0.1622 -0.4427 -0.4724
   91SAPE   H4X 8941   4.738   5.483   7.183 -0.8177  1.4877 -0.6690
   91SAPE   H4Y 8942   4.557   5.523   7.162 -0.3492 -0.6220 -0.4594
   91SAPE   C35 8943   4.648   5.340   7.072  0.5286 -1.0237 -0.0954
   91SAPE   H5X 8944   4.677   5.247   7.126 -1.8066 -1.0408  1.2624
   91SAPE   H5Y 8945   4.739   5.354   7.009 -0.2947 -0.5270 -1.1995
   91SAPE   C36 8946   4.518   5.309   6.998  0.1287  0.1889 -0.0803
   91SAPE   H6X 8947   4.470   5.407   6.975 -0.7855 -0.5834 -1.5736
   91SAPE   H6Y 8948   4.457   5.241   7.061  3.7089 -1.7996  1.4956
   91SAPE   C37 8949   4.539   5.246   6.856  0.5738 -0.2150 -0.6224
   91SAPE   H7X 8950   4.443   5.206   6.818  0.4228 -0.0655 -0.3979
   91SAPE   H7Y 8951   4.605   5.157   6.869  3.1055  1.7556  1.0061
   91SAPE   C38 8952   4.591   5.339   6.749 -0.4253  0.6411  0.5753
   91SAPE   H8X 8953   4.700   5.353   6.759 -0.4107  0.1217  1.2541
   91SAPE   H8Y 8954   4.546   5.440   6.752 -0.6222  0.6254 -0.9952
   91SAPE   C39 8955   4.562   5.283   6.606  0.3862  0.0289  0.1487
   91SAPE   H9X 8956   4.460   5.311   6.574  0.5279  1.4427  0.8769
   91SAPE   H9Y 8957   4.571   5.172   6.609 -1.3442 -0.1238  0.3627
   91SAPE  C310 8958   4.660   5.333   6.501 -0.0155  0.1676 -0.2846
   91SAPE  H10X 8959   4.766   5.329   6.534 -0.1484 -0.1408  0.1212
   91SAPE  H10Y 8960   4.639   5.438   6.474  1.1195 -0.4988 -4.4087
   91SAPE  C311 8961   4.650   5.245   6.371 -0.5471  0.5167 -0.8218
   91SAPE  H11X 8962   4.544   5.252   6.337 -0.4801 -2.2234 -1.8673
   91SAPE  H11Y 8963   4.662   5.138   6.400  3.2813  1.0576  0.1057
   91SAPE  C312 8964   4.741   5.285   6.254 -0.0466  0.3070  0.7902
   91SAPE  H12X 8965   4.716   5.197   6.191 -1.2839  1.0339  0.2261
   91SAPE  H12Y 8966   4.845   5.283   6.292 -0.2232 -3.6298  1.5283
   91SAPE  C313 8967   4.705   5.404   6.164  0.5672  0.4024  0.4234
   91SAPE  H13X 8968   4.599   5.435   6.184  0.4899  0.4882 -0.1098
   91SAPE  H13Y 8969   4.730   5.369   6.062 -1.6518 -0.8494  0.2371
   91SAPE  C314 8970   4.783   5.531   6.191  0.3539  0.9271  0.2567
   91SAPE  H14X 8971   4.885   5.495   6.218 -1.1682 -1.8922  2.8853
   91SAPE  H14Y 8972   4.746   5.576   6.286 -0.4923  0.8258 -0.0210
   91SAPE  C315 8973   4.774   5.633   6.082  0.5837  0.6899 -0.1603
   91SAPE  H15X 8974   4.792   5.731   6.132  1.1062  0.8742 -0.6976
   91SAPE  H15Y 8975   4.667   5.654   6.062  0.4686  1.9469  1.4862
   91SAPE  C316 8976   4.881   5.615   5.974 -0.5260 -0.5494 -0.3686
   91SAPE  H16X 8977   4.847   5.546   5.894 -0.5490 -0.4353 -0.4571
   91SAPE  H16Y 8978   4.978   5.584   6.019  0.5095 -1.1678 -2.8398
   91SAPE  C317 8979   4.911   5.745   5.902  0.5164  0.1364 -0.2401
   91SAPE  H17X 8980   4.937   5.819   5.981 -1.5954  0.5557  0.1335
   91SAPE  H17Y 8981   4.817   5.784   5.857  1.3806  0.2203 -2.0395
   91SAPE  C318 8982   5.024   5.716   5.799 -0.0361  0.4067 -1.1850
   91SAPE  H18X 8983   5.049   5.809   5.744  1.6163  2.1554  2.1768
   91SAPE  H18Y 8984   5.001   5.645   5.717  2.3468 -2.4765  0.4219
   91SAPE  H18Z 8985   5.117   5.677   5.844 -0.6197 -0.7909 -0.9620
   92SAPE     N 8986   5.514   1.471   7.966 -0.0564  0.0304 -0.2392
   92SAPE   HN1 8987   5.545   1.472   8.066  1.8108  0.1389 -0.7861
   92SAPE   HN2 8988   5.585   1.404   7.931  1.6160  0.2330  2.4803
   92SAPE   HN3 8989   5.536   1.565   7.928  1.4719 -0.3518 -0.3589
   92SAPE   C12 8990   5.372   1.418   7.931 -0.1833  0.1084  0.3414
   92SAPE  H12A 8991   5.349   1.335   8.000 -0.5233  1.1185  1.4759
   92SAPE  H12B 8992   5.379   1.395   7.823 -1.7087  1.6881 -0.1468
   92SAPE   C11 8993   5.271   1.529   7.961  0.0120  0.0771  0.2115
   92SAPE  H11A 8994   5.296   1.557   8.065  0.9316 -1.8168  0.5538
   92SAPE  H11B 8995   5.165   1.497   7.949  0.3289 -1.5474  1.3663
   92SAPE     P 8996   5.181   1.752   7.882 -0.3756  0.0277  0.0855
   92SAPE   O13 8997   5.043   1.708   7.927  0.5419 -0.6444 -0.0228
   92SAPE   O14 8998   5.232   1.867   7.954 -0.8358  0.0148 -0.0063
   92SAPE   O12 8999   5.296   1.643   7.882 -0.4099 -0.1886  0.4931
   92SAPE   O11 9000   5.179   1.785   7.733  0.5336 -0.4849 -0.0879
   92SAPE    C1 9001   5.113   1.705   7.635 -0.3455  0.5952 -0.2571
   92SAPE    HA 9002   5.185   1.625   7.606 -1.0021 -0.9717  2.1381
   92SAPE    HB 9003   5.017   1.658   7.668  0.8394 -2.3417 -0.6339
   92SAPE    C2 9004   5.075   1.791   7.514 -0.2429  0.0250 -0.6456
   92SAPE    HS 9005   5.013   1.731   7.444 -0.2032 -0.0937 -0.5791
   92SAPE   O21 9006   5.194   1.840   7.448  0.6164  0.7089 -0.2460
   92SAPE   C21 9007   5.250   1.746   7.369 -0.0094  0.1919  0.0009
   92SAPE   O22 9008   5.219   1.628   7.360 -0.5584 -0.3420  0.2698
   92SAPE   C22 9009   5.371   1.807   7.296  0.5031 -0.0912  0.6310
   92SAPE   H2R 9010   5.453   1.806   7.371 -0.9207 -2.9958  2.3341
   92SAPE   H2S 9011   5.400   1.728   7.223  2.7763 -0.0622  1.4236
   92SAPE    C3 9012   4.978   1.904   7.558  0.3709 -0.3869  0.2574
   92SAPE    HX 9013   5.040   1.978   7.613  1.0859 -1.4868  0.9995
   92SAPE    HY 9014   4.901   1.862   7.627  1.2216 -2.9964 -0.2558
   92SAPE   O31 9015   4.928   1.970   7.442 -0.4413 -0.4552 -0.5665
   92SAPE   C31 9016   4.833   2.059   7.463  0.3286 -0.4585  0.1598
   92SAPE   O32 9017   4.803   2.107   7.571  0.1529  0.0714  0.1878
   92SAPE   C32 9018   4.768   2.092   7.327 -0.4452  0.0437 -0.5099
   92SAPE   H2X 9019   4.678   2.029   7.310 -0.3063 -0.5612  0.8599
   92SAPE   H2Y 9020   4.843   2.052   7.256  1.8509  0.3316  1.6100
   92SAPE   C23 9021   5.330   1.937   7.211 -0.3929  0.8134 -0.2191
   92SAPE   H3R 9022   5.430   1.970   7.175 -0.2777  2.3377  1.3751
   92SAPE   H3S 9023   5.288   2.010   7.283 -2.2743 -0.3163 -0.0987
   92SAPE   C24 9024   5.231   1.904   7.098 -0.2853 -0.1253 -0.1250
   92SAPE   H4R 9025   5.144   1.846   7.138 -1.7306  1.6292 -0.5869
   92SAPE   H4S 9026   5.284   1.843   7.022  0.7183 -1.4137  1.5381
   92SAPE   C25 9027   5.177   2.026   7.037 -0.7028  0.3328  0.0149
   92SAPE   H5R 9028   5.149   2.104   7.108  0.6484  0.2081  0.7150
   92SAPE   C26 9029   5.191   2.069   6.913 -0.7229 -0.4957  0.0799
   92SAPE   H6R 9030   5.153   2.168   6.884  1.9049  0.1509 -1.4973
   92SAPE   C27 9031   5.239   1.983   6.799  0.5782  0.6712  0.9236
   92SAPE   H7R 9032   5.265   1.879   6.826 -1.1943 -0.7437 -2.1823
   92SAPE   H7S 9033   5.334   2.025   6.759 -0.2346  1.2017 -0.5224
   92SAPE   C28 9034   5.121   1.982   6.700  0.3823  0.0464 -0.1001
   92SAPE   H8R 9035   5.022   1.944   6.729 -0.5286  2.0169 -0.4203
   92SAPE   C29 9036   5.129   2.036   6.574  0.2393 -0.1354  0.0541
   92SAPE   H9R 9037   5.043   2.026   6.507 -2.9539 -0.7763  3.8735
   92SAPE  C210 9038   5.261   2.079   6.508 -0.3982  1.1798 -0.5893
   92SAPE  H10R 9039   5.343   2.018   6.550 -2.1859 -0.7055  0.3376
   92SAPE  H10S 9040   5.289   2.180   6.545  1.2596  0.6563 -0.3007
   92SAPE  C211 9041   5.268   2.054   6.356 -0.3857 -0.7195 -0.0730
   92SAPE  H11R 9042   5.349   1.986   6.327 -0.4450 -0.6859 -0.3153
   92SAPE  C212 9043   5.194   2.118   6.261 -0.2483 -0.7798 -0.1180
   92SAPE  H12R 9044   5.208   2.078   6.160  0.7476  0.2468 -0.4086
   92SAPE  C213 9045   5.089   2.229   6.282 -0.2423 -0.5447 -0.0148
   92SAPE  H13R 9046   5.060   2.233   6.389  0.8816 -2.2344  0.3851
   92SAPE  H13S 9047   4.998   2.203   6.224 -0.2092 -2.9734  0.9037
   92SAPE  C214 9048   5.144   2.358   6.238 -0.0394  0.0295  0.3831
   92SAPE  H14R 9049   5.159   2.444   6.306  0.5398 -0.4413  0.8619
   92SAPE  C215 9050   5.162   2.389   6.107 -0.5111  0.3194  0.2901
   92SAPE  H15R 9051   5.212   2.483   6.079  2.2361 -2.1386 -4.3362
   92SAPE  C216 9052   5.147   2.307   5.983  0.3640  0.1126  0.4295
   92SAPE  H16R 9053   5.076   2.368   5.923  0.4656 -0.4539 -0.2850
   92SAPE  H16S 9054   5.104   2.205   5.992  1.9410 -0.5600  0.6793
   92SAPE  C217 9055   5.279   2.277   5.920 -0.1099 -0.0105 -0.5009
   92SAPE  H17R 9056   5.328   2.221   6.003 -2.0747  1.0888  1.4954
   92SAPE  H17S 9057   5.337   2.369   5.900 -2.8632  1.7195 -0.9431
   92SAPE  C218 9058   5.277   2.191   5.794  0.1938 -0.0724 -0.1394
   92SAPE  H18R 9059   5.252   2.250   5.704 -1.8374 -0.4653  0.1117
   92SAPE  H18S 9060   5.191   2.123   5.809 -1.6097  2.0129 -0.4923
   92SAPE  C219 9061   5.414   2.126   5.770 -0.0556 -0.0387  0.3014
   92SAPE  H19R 9062   5.401   2.034   5.709 -0.1098  0.7191 -0.8840
   92SAPE  H19S 9063   5.455   2.099   5.869  2.6429  1.4450 -0.3108
   92SAPE  C220 9064   5.518   2.214   5.698 -0.3106 -0.3875  0.0121
   92SAPE  H20R 9065   5.568   2.278   5.774  3.2840 -0.2601 -2.2586
   92SAPE  H20S 9066   5.465   2.269   5.618 -2.3781 -1.4194  0.6116
   92SAPE  H20T 9067   5.594   2.149   5.650  0.0949 -0.7824  1.1435
   92SAPE   C33 9068   4.750   2.252   7.306 -0.5467  0.3415  0.3667
   92SAPE   H3X 9069   4.847   2.306   7.310  0.1029 -0.7285 -0.4416
   92SAPE   H3Y 9070   4.669   2.293   7.370  0.3198  2.9087 -0.0786
   92SAPE   C34 9071   4.695   2.284   7.164  0.9696 -0.3473  0.5197
   92SAPE   H4X 9072   4.655   2.387   7.178  0.0871 -0.6356  0.2186
   92SAPE   H4Y 9073   4.607   2.220   7.141  2.2110 -1.5896 -0.9583
   92SAPE   C35 9074   4.798   2.280   7.050  0.5179  0.0406  0.1841
   92SAPE   H5X 9075   4.895   2.230   7.071  0.2265 -0.4094  0.4625
   92SAPE   H5Y 9076   4.818   2.388   7.029  0.1732 -0.2094 -1.5735
   92SAPE   C36 9077   4.735   2.228   6.920 -0.9131 -0.2286  0.0336
   92SAPE   H6X 9078   4.669   2.306   6.877 -1.6766 -0.4497  0.7951
   92SAPE   H6Y 9079   4.669   2.143   6.947 -1.3768 -0.2874 -1.2134
   92SAPE   C37 9080   4.836   2.184   6.806 -0.2431  0.0452  0.0941
   92SAPE   H7X 9081   4.864   2.076   6.811  2.5723  0.6580 -0.8800
   92SAPE   H7Y 9082   4.932   2.236   6.824  0.5929 -0.0716 -3.2801
   92SAPE   C38 9083   4.794   2.220   6.660 -0.2455  0.2060 -0.0274
   92SAPE   H8X 9084   4.688   2.191   6.641 -0.3615  0.4649  0.2359
   92SAPE   H8Y 9085   4.854   2.151   6.596 -0.0688 -0.0511  0.4100
   92SAPE   C39 9086   4.823   2.362   6.615 -0.1982  0.0429 -0.6869
   92SAPE   H9X 9087   4.929   2.391   6.631 -0.5095  0.7726  0.1084
   92SAPE   H9Y 9088   4.749   2.431   6.663  1.4045  0.9502  0.5719
   92SAPE  C310 9089   4.785   2.377   6.468  0.7640 -0.2542  0.3194
   92SAPE  H10X 9090   4.681   2.341   6.454 -0.2518  3.0039 -1.4586
   92SAPE  H10Y 9091   4.843   2.308   6.403  0.6653  0.1975 -0.2575
   92SAPE  C311 9092   4.800   2.522   6.412 -0.4543 -0.0289 -0.3179
   92SAPE  H11X 9093   4.898   2.560   6.449 -0.8612 -0.6340  1.4792
   92SAPE  H11Y 9094   4.724   2.589   6.458  0.5523  1.1222 -0.2855
   92SAPE  C312 9095   4.804   2.519   6.258  0.4323  0.1427 -0.5405
   92SAPE  H12X 9096   4.718   2.462   6.218 -1.6464  1.8402  1.2809
   92SAPE  H12Y 9097   4.894   2.457   6.236 -0.2441 -1.2757  0.5306
   92SAPE  C313 9098   4.819   2.655   6.198  0.8123 -0.4846 -0.2244
   92SAPE  H13X 9099   4.926   2.682   6.207  0.4819  0.5955  0.8283
   92SAPE  H13Y 9100   4.748   2.720   6.254  0.4959 -1.1855  0.2051
   92SAPE  C314 9101   4.784   2.659   6.048  0.2591 -0.1788 -0.2208
   92SAPE  H14X 9102   4.780   2.764   6.010 -2.3265  0.2618  1.0853
   92SAPE  H14Y 9103   4.678   2.629   6.043  0.4298 -1.0883  1.1409
   92SAPE  C315 9104   4.867   2.582   5.949  0.2241 -0.2066 -0.3626
   92SAPE  H15X 9105   4.863   2.474   5.974 -1.1093 -0.1627 -0.3316
   92SAPE  H15Y 9106   4.969   2.625   5.960 -0.3668  0.7823  1.6339
   92SAPE  C316 9107   4.830   2.617   5.799 -0.4093 -0.2009  0.0900
   92SAPE  H16X 9108   4.897   2.563   5.728 -0.9878  0.8755 -1.3150
   92SAPE  H16Y 9109   4.846   2.721   5.762  0.5113 -0.7902 -1.2611
   92SAPE  C317 9110   4.691   2.562   5.764 -0.2956  0.4118 -0.9618
   92SAPE  H17X 9111   4.610   2.618   5.816  0.0526  0.2692 -0.2574
   92SAPE  H17Y 9112   4.694   2.454   5.789 -0.4717 -0.2234 -3.4023
   92SAPE  C318 9113   4.657   2.555   5.614  0.1988 -0.6723  0.0822
   92SAPE  H18X 9114   4.657   2.663   5.585 -1.2054 -0.5743  0.3592
   92SAPE  H18Y 9115   4.556   2.514   5.591  0.3943 -0.3487 -1.4490
   92SAPE  H18Z 9116   4.731   2.500   5.552 -1.4522 -0.5796 -2.0868
   93SAPE     N 9117   6.165   0.627   8.060 -0.5255  0.1846  0.3643
   93SAPE   HN1 9118   6.150   0.714   8.116 -1.5914 -0.8302  1.7164
   93SAPE   HN2 9119   6.075   0.624   8.007  0.2962  0.0112 -1.0579
   93SAPE   HN3 9120   6.167   0.549   8.128 -1.5744  0.0920  0.3054
   93SAPE   C12 9121   6.289   0.633   7.977  1.2281 -0.6312  0.0827
   93SAPE  H12A 9122   6.379   0.656   8.038  1.4669 -0.9070 -0.1643
   93SAPE  H12B 9123   6.265   0.723   7.915  1.0871 -0.4757  0.3581
   93SAPE   C11 9124   6.285   0.511   7.882  0.7436 -0.0481 -0.2416
   93SAPE  H11A 9125   6.315   0.423   7.942  1.1282 -0.7369 -1.3947
   93SAPE  H11B 9126   6.381   0.532   7.828  0.7070 -1.4430 -0.9077
   93SAPE     P 9127   6.107   0.352   7.771  0.2063  0.1309  0.6665
   93SAPE   O13 9128   6.170   0.243   7.854 -0.2352 -0.1493  0.0524
   93SAPE   O14 9129   5.961   0.334   7.757 -0.5282  0.0601 -0.1919
   93SAPE   O12 9130   6.159   0.501   7.810 -0.1056  0.3969 -0.4810
   93SAPE   O11 9131   6.172   0.346   7.630 -0.5680  0.0571 -0.3211
   93SAPE    C1 9132   6.253   0.235   7.594 -0.2368 -0.4002  0.4547
   93SAPE    HA 9133   6.254   0.139   7.651  0.7979 -2.0254 -2.1315
   93SAPE    HB 9134   6.228   0.219   7.487 -2.0739 -0.1990  0.8219
   93SAPE    C2 9135   6.407   0.270   7.590 -0.1393 -0.3505  0.1054
   93SAPE    HS 9136   6.430   0.280   7.698 -3.2248  1.1996  0.7246
   93SAPE   O21 9137   6.423   0.393   7.511  0.2296  0.2553  0.0308
   93SAPE   C21 9138   6.544   0.440   7.540  0.0733 -0.0065 -0.8508
   93SAPE   O22 9139   6.612   0.403   7.631 -0.2006  0.1907 -0.2018
   93SAPE   C22 9140   6.576   0.556   7.437 -0.3788  0.2431  0.0350
   93SAPE   H2R 9141   6.518   0.532   7.346 -1.1424  0.8018  0.3692
   93SAPE   H2S 9142   6.545   0.652   7.484  2.5537  1.2170  0.2076
   93SAPE    C3 9143   6.507   0.159   7.521  0.8943 -0.0803 -0.1717
   93SAPE    HX 9144   6.507   0.065   7.581  1.1008 -0.9577 -1.5017
   93SAPE    HY 9145   6.617   0.172   7.515  1.3660 -3.3370 -0.4594
   93SAPE   O31 9146   6.455   0.118   7.386  0.1130  0.4536  0.0427
   93SAPE   C31 9147   6.506   0.181   7.287  0.2064  0.2731  0.1438
   93SAPE   O32 9148   6.601   0.257   7.290 -0.2919 -0.0086  0.4238
   93SAPE   C32 9149   6.433   0.134   7.161  0.1436 -0.0945 -0.6947
   93SAPE   H2X 9150   6.324   0.143   7.182  0.2656  0.2127 -0.1647
   93SAPE   H2Y 9151   6.450   0.026   7.139 -2.4785 -0.9131  0.7717
   93SAPE   C23 9152   6.725   0.569   7.410 -0.1300  0.4919 -0.0789
   93SAPE   H3R 9153   6.759   0.466   7.383 -1.8740 -0.2665  0.4820
   93SAPE   H3S 9154   6.781   0.594   7.503 -1.2401 -0.5022  0.8840
   93SAPE   C24 9155   6.754   0.663   7.294 -0.0950 -0.0683  0.1787
   93SAPE   H4R 9156   6.864   0.654   7.282 -0.0784  1.1851 -0.8233
   93SAPE   H4S 9157   6.732   0.766   7.331 -0.6517  0.1684 -0.7949
   93SAPE   C25 9158   6.688   0.641   7.161 -0.0063  0.6234  0.4388
   93SAPE   H5R 9159   6.595   0.698   7.149 -0.0484  0.5783  0.5486
   93SAPE   C26 9160   6.730   0.564   7.056  0.0412  0.3467 -0.0515
   93SAPE   H6R 9161   6.668   0.567   6.965 -0.3199 -0.0747  0.1745
   93SAPE   C27 9162   6.855   0.479   7.049 -0.5194 -0.0567  0.2214
   93SAPE   H7R 9163   6.928   0.506   7.128 -0.9264  1.3643  0.1430
   93SAPE   H7S 9164   6.907   0.521   6.960 -1.3542  5.3565  1.9263
   93SAPE   C28 9165   6.837   0.330   7.062 -0.2774  0.2128 -0.1265
   93SAPE   H8R 9166   6.778   0.306   7.152 -0.6695 -1.1679 -0.7252
   93SAPE   C29 9167   6.867   0.242   6.969 -0.0785 -0.1784  0.0789
   93SAPE   H9R 9168   6.836   0.137   6.982 -0.6426  0.0496  0.5979
   93SAPE  C210 9169   6.950   0.277   6.847  0.9190 -0.0189 -0.2151
   93SAPE  H10R 9170   7.050   0.317   6.877  1.3768 -0.9278 -0.4768
   93SAPE  H10S 9171   6.899   0.357   6.790  1.8248 -0.3286 -1.5036
   93SAPE  C211 9172   6.986   0.167   6.753 -0.6486  0.1045  0.0172
   93SAPE  H11R 9173   7.029   0.078   6.801 -0.8049  0.9430  1.7785
   93SAPE  C212 9174   6.986   0.167   6.616  0.2641 -0.5501 -0.5842
   93SAPE  H12R 9175   6.994   0.065   6.574  1.7319 -0.4771 -0.5524
   93SAPE  C213 9176   6.935   0.265   6.514  0.0864 -0.2770  0.6756
   93SAPE  H13R 9177   7.011   0.347   6.513 -0.3457  0.1930 -2.3074
   93SAPE  H13S 9178   6.849   0.319   6.559 -0.0454  2.6181 -2.6467
   93SAPE  C214 9179   6.900   0.209   6.374  0.3017 -0.1165 -0.4104
   93SAPE  H14R 9180   6.810   0.148   6.387 -0.4418  0.9165 -0.5414
   93SAPE  C215 9181   6.978   0.217   6.263  0.1805  0.5675  0.4629
   93SAPE  H15R 9182   6.934   0.176   6.170 -0.2900 -2.0225  1.7451
   93SAPE  C216 9183   7.102   0.295   6.260 -0.7801  0.1114 -0.1247
   93SAPE  H16R 9184   7.176   0.222   6.222 -1.3079 -0.9744  0.8610
   93SAPE  H16S 9185   7.150   0.330   6.354  1.8214 -3.0566 -0.1040
   93SAPE  C217 9186   7.091   0.412   6.163  0.9141  0.2720  0.2479
   93SAPE  H17R 9187   7.036   0.481   6.231 -0.7599 -1.2350  0.4957
   93SAPE  H17S 9188   7.024   0.399   6.075  1.6454 -0.2444 -0.2439
   93SAPE  C218 9189   7.218   0.480   6.130 -0.2354  0.0499 -0.9674
   93SAPE  H18R 9190   7.274   0.414   6.061 -1.9261 -1.3516 -1.0894
   93SAPE  H18S 9191   7.275   0.480   6.225 -0.5829 -0.5913 -0.7528
   93SAPE  C219 9192   7.190   0.627   6.075 -0.5757  0.5979  0.0409
   93SAPE  H19R 9193   7.286   0.667   6.036 -0.1096 -0.7200 -0.2138
   93SAPE  H19S 9194   7.154   0.693   6.156 -0.5595  0.6252  0.0260
   93SAPE  C220 9195   7.097   0.624   5.950  0.0709 -0.3382  0.1764
   93SAPE  H20R 9196   7.082   0.726   5.910 -1.3580 -0.5496  0.0891
   93SAPE  H20S 9197   6.991   0.601   5.977  0.0412  0.5783  0.8717
   93SAPE  H20T 9198   7.135   0.555   5.872 -0.3148  0.3888 -0.6656
   93SAPE   C33 9199   6.471   0.222   7.037 -0.2708  1.1278 -0.2661
   93SAPE   H3X 9200   6.578   0.202   7.017 -0.0320 -0.5222  2.2465
   93SAPE   H3Y 9201   6.475   0.332   7.055  2.6390  1.1082 -0.2956
   93SAPE   C34 9202   6.393   0.187   6.910 -0.3087 -0.7987  0.5423
   93SAPE   H4X 9203   6.288   0.223   6.921  0.1452  0.2850  1.6240
   93SAPE   H4Y 9204   6.398   0.080   6.881  2.7863 -0.1871 -1.5423
   93SAPE   C35 9205   6.460   0.264   6.789  0.9154 -0.1610 -0.1531
   93SAPE   H5X 9206   6.563   0.224   6.783  0.7066 -0.6143 -0.7832
   93SAPE   H5Y 9207   6.456   0.375   6.794  1.2508 -0.0480 -1.9471
   93SAPE   C36 9208   6.386   0.244   6.662  0.4140 -0.5611  0.2696
   93SAPE   H6X 9209   6.281   0.280   6.668  0.5323 -0.2865  0.7288
   93SAPE   H6Y 9210   6.377   0.137   6.633  2.0668 -0.2779 -1.5368
   93SAPE   C37 9211   6.457   0.306   6.543 -0.3364  0.0914  0.3769
   93SAPE   H7X 9212   6.562   0.272   6.544  0.1143  1.4095  0.1525
   93SAPE   H7Y 9213   6.454   0.417   6.551  0.9171  0.3661 -2.0949
   93SAPE   C38 9214   6.387   0.257   6.417  0.4854 -0.7693 -0.1440
   93SAPE   H8X 9215   6.386   0.343   6.346  2.4219 -0.9686 -0.4735
   93SAPE   H8Y 9216   6.280   0.238   6.438 -0.1588  2.6638  0.2888
   93SAPE   C39 9217   6.467   0.148   6.361  0.0332 -0.1011  0.1976
   93SAPE   H9X 9218   6.471   0.057   6.425 -1.4981 -0.7650 -0.5899
   93SAPE   H9Y 9219   6.574   0.170   6.343 -0.1384 -0.7033 -1.7993
   93SAPE  C310 9220   6.412   0.105   6.226  0.3704 -0.1215 -0.0298
   93SAPE  H10X 9221   6.417   0.189   6.153  0.0669 -0.4312 -0.4118
   93SAPE  H10Y 9222   6.308   0.068   6.238  0.0845  0.9607  0.9873
   93SAPE  C311 9223   6.478  -0.020   6.148 -0.0715  0.0087  0.0074
   93SAPE  H11X 9224   6.457  -0.107   6.212 -0.7474 -0.9938 -1.5010
   93SAPE  H11Y 9225   6.587  -0.001   6.141  0.0049 -0.0763  0.8814
   93SAPE  C312 9226   6.422  -0.049   6.012  0.5739  0.0604 -0.5754
   93SAPE  H12X 9227   6.312  -0.063   6.019  0.5472 -0.0992 -1.2540
   93SAPE  H12Y 9228   6.459  -0.145   5.971  1.5717  0.0935  0.2138
   93SAPE  C313 9229   6.439   0.057   5.906  0.0768 -0.1319 -0.0566
   93SAPE  H13X 9230   6.546   0.077   5.887 -0.2652  0.8837 -1.0763
   93SAPE  H13Y 9231   6.399   0.155   5.941 -2.4561 -0.4217 -1.8509
   93SAPE  C314 9232   6.374   0.015   5.775 -0.2713 -0.7121  1.0359
   93SAPE  H14X 9233   6.277  -0.036   5.794 -0.3399 -2.0550 -2.3071
   93SAPE  H14Y 9234   6.435  -0.066   5.730 -1.3473  0.0020 -1.9479
   93SAPE  C315 9235   6.365   0.120   5.662  0.5242 -0.4131  0.2412
   93SAPE  H15X 9236   6.288   0.195   5.689  2.2451  1.4106  0.3571
   93SAPE  H15Y 9237   6.335   0.070   5.567  0.6719 -0.1742  0.0661
   93SAPE  C316 9238   6.499   0.189   5.630  0.2270 -0.6916  0.1799
   93SAPE  H16X 9239   6.569   0.105   5.610 -1.1006 -2.4240  2.3762
   93SAPE  H16Y 9240   6.539   0.252   5.712  0.6976  2.5680 -2.3617
   93SAPE  C317 9241   6.507   0.285   5.504 -0.1883 -0.0587  0.9259
   93SAPE  H17X 9242   6.425   0.359   5.507 -0.9109 -0.8150  0.2925
   93SAPE  H17Y 9243   6.486   0.223   5.414  0.2789 -0.5427  1.1435
   93SAPE  C318 9244   6.644   0.352   5.471 -0.0784  0.5906  0.3045
   93SAPE  H18X 9245   6.723   0.274   5.459  1.3108  1.8673  0.9195
   93SAPE  H18Y 9246   6.666   0.436   5.540 -0.0660  1.6817 -0.9895
   93SAPE  H18Z 9247   6.631   0.401   5.372  0.8972 -0.1670 -0.2214
   94SAPE     N 9248   0.952   1.828   7.774  0.2464 -0.0755 -0.6016
   94SAPE   HN1 9249   1.039   1.885   7.785 -0.3459  0.5910  0.8784
   94SAPE   HN2 9250   0.883   1.903   7.791 -0.1425 -0.8775  1.6783
   94SAPE   HN3 9251   0.942   1.757   7.849  0.6955  0.8427  0.3585
   94SAPE   C12 9252   0.950   1.762   7.637  0.2363  0.3257 -0.4151
   94SAPE  H12A 9253   0.981   1.656   7.651  1.4190  0.5921 -0.8404
   94SAPE  H12B 9254   1.027   1.821   7.583  0.6025 -0.5556 -0.8738
   94SAPE   C11 9255   0.806   1.764   7.566  0.3359  0.0186 -0.1314
   94SAPE  H11A 9256   0.818   1.737   7.459  0.3556  0.9620 -0.3806
   94SAPE  H11B 9257   0.780   1.872   7.569  0.5850  0.0822 -0.2085
   94SAPE     P 9258   0.681   1.539   7.626  0.0400  0.1776  0.0580
   94SAPE   O13 9259   0.803   1.473   7.683  0.0274 -0.1029  0.5398
   94SAPE   O14 9260   0.557   1.517   7.703 -0.1606 -0.1061 -0.6407
   94SAPE   O12 9261   0.713   1.690   7.647 -0.5960 -0.2863 -0.2115
   94SAPE   O11 9262   0.652   1.520   7.472  0.0183 -0.3941  0.5313
   94SAPE    C1 9263   0.551   1.606   7.412  0.1214 -0.3370 -0.0900
   94SAPE    HA 9264   0.453   1.591   7.462  1.6308 -0.6391  2.9826
   94SAPE    HB 9265   0.583   1.713   7.419  0.2559 -0.4803  2.4777
   94SAPE    C2 9266   0.534   1.593   7.254  0.0030  0.0621  0.1031
   94SAPE    HS 9267   0.488   1.496   7.227  0.0455 -0.6601  2.4620
   94SAPE   O21 9268   0.664   1.629   7.188  0.0659 -0.3133 -0.9975
   94SAPE   C21 9269   0.698   1.541   7.094 -0.2969  0.2017 -0.1786
   94SAPE   O22 9270   0.623   1.449   7.064  0.3922 -0.3112  0.0619
   94SAPE   C22 9271   0.834   1.570   7.027  0.5351 -0.2787  0.7259
   94SAPE   H2R 9272   0.867   1.669   7.063  0.9698  0.0676 -0.5490
   94SAPE   H2S 9273   0.904   1.494   7.068  2.3844  0.4777 -0.8810
   94SAPE    C3 9274   0.425   1.694   7.203 -0.3803  0.6206  1.1130
   94SAPE    HX 9275   0.476   1.787   7.238  0.1177 -0.0595  2.2419
   94SAPE    HY 9276   0.328   1.686   7.255 -1.3984 -1.4952 -0.9328
   94SAPE   O31 9277   0.418   1.680   7.058 -0.1508  0.6661  0.3586
   94SAPE   C31 9278   0.306   1.608   7.018 -0.1441 -0.5664 -0.4410
   94SAPE   O32 9279   0.209   1.575   7.089 -0.5353  0.2034 -0.5958
   94SAPE   C32 9280   0.324   1.582   6.872  0.7163 -0.2075 -0.9859
   94SAPE   H2X 9281   0.434   1.578   6.853  1.1523 -3.1768  1.3494
   94SAPE   H2Y 9282   0.270   1.665   6.822  0.9041  1.0863  0.8557
   94SAPE   C23 9283   0.836   1.576   6.870  0.4121  0.6058  0.1997
   94SAPE   H3R 9284   0.808   1.474   6.834 -0.1066  1.4246 -1.8281
   94SAPE   H3S 9285   0.938   1.599   6.834 -1.0265  2.0093 -3.5177
   94SAPE   C24 9286   0.753   1.682   6.795  0.4657 -0.1799 -0.1223
   94SAPE   H4R 9287   0.768   1.778   6.850  1.9560  0.2834 -1.2770
   94SAPE   H4S 9288   0.642   1.668   6.797  0.2850  1.1546  0.8194
   94SAPE   C25 9289   0.800   1.692   6.655 -0.0628 -0.1094 -0.1453
   94SAPE   H5R 9290   0.894   1.746   6.638  1.6912 -2.4245  1.4630
   94SAPE   C26 9291   0.728   1.637   6.555 -0.0041  0.3279 -0.3928
   94SAPE   H6R 9292   0.779   1.631   6.457 -0.2650 -1.9496 -0.4535
   94SAPE   C27 9293   0.596   1.563   6.570  0.5649  0.3292 -0.2280
   94SAPE   H7R 9294   0.511   1.634   6.573  0.6221  0.3791  0.3165
   94SAPE   H7S 9295   0.583   1.492   6.655 -0.6526  1.3378  0.4513
   94SAPE   C28 9296   0.584   1.471   6.447 -0.3319  0.4759 -0.0143
   94SAPE   H8R 9297   0.597   1.366   6.478 -1.0153  0.4361  0.1512
   94SAPE   C29 9298   0.540   1.509   6.320  0.0904  0.0180 -0.0662
   94SAPE   H9R 9299   0.539   1.431   6.242  0.4546 -0.2344  0.1761
   94SAPE  C210 9300   0.484   1.636   6.277  0.2933 -0.3020 -0.4576
   94SAPE  H10R 9301   0.419   1.676   6.358  1.4106  3.3828 -1.1620
   94SAPE  H10S 9302   0.421   1.625   6.186 -1.2668  0.7231  0.4333
   94SAPE  C211 9303   0.601   1.731   6.245 -0.0806 -0.0290  0.0154
   94SAPE  H11R 9304   0.664   1.694   6.162 -3.5294 -2.3917 -1.7872
   94SAPE  C212 9305   0.609   1.855   6.284 -0.6623 -0.3792 -0.2645
   94SAPE  H12R 9306   0.687   1.915   6.235  0.2696 -1.4574 -0.1430
   94SAPE  C213 9307   0.532   1.935   6.384  0.0233 -1.0369 -0.2747
   94SAPE  H13R 9308   0.436   1.890   6.417 -0.2442  0.6647  1.4958
   94SAPE  H13S 9309   0.499   2.031   6.338 -0.0031  0.0223  1.8443
   94SAPE  C214 9310   0.612   1.977   6.505  0.2022 -0.0967  0.0445
   94SAPE  H14R 9311   0.713   2.011   6.479 -0.0465  0.0444 -0.7362
   94SAPE  C215 9312   0.568   1.968   6.636 -0.2306  0.1731  0.1581
   94SAPE  H15R 9313   0.634   2.002   6.717  1.1935 -0.0922 -0.8449
   94SAPE  C216 9314   0.434   1.932   6.683  0.3136  0.1786  0.7730
   94SAPE  H16R 9315   0.437   1.840   6.745 -0.5054  1.0995  2.2329
   94SAPE  H16S 9316   0.370   1.903   6.597 -1.5150  0.1901  2.0587
   94SAPE  C217 9317   0.368   2.043   6.760 -0.3004  0.3218 -0.8386
   94SAPE  H17R 9318   0.266   2.007   6.782 -0.1214 -0.0693 -0.6309
   94SAPE  H17S 9319   0.348   2.137   6.705  1.0683  0.0971 -1.7724
   94SAPE  C218 9320   0.444   2.074   6.892  0.7045  0.1104 -0.3197
   94SAPE  H18R 9321   0.543   2.118   6.867  1.6126 -1.3114  0.6273
   94SAPE  H18S 9322   0.461   1.978   6.945 -2.6002 -0.1381  0.5546
   94SAPE  C219 9323   0.366   2.168   6.991  0.3106  0.4424 -0.4029
   94SAPE  H19R 9324   0.279   2.115   7.035 -1.0090  2.1359 -0.8656
   94SAPE  H19S 9325   0.310   2.239   6.926 -2.0635 -2.1970 -1.4382
   94SAPE  C220 9326   0.460   2.236   7.086 -0.1195 -0.2591  0.3490
   94SAPE  H20R 9327   0.472   2.188   7.186 -0.5673  2.8673  2.0273
   94SAPE  H20S 9328   0.426   2.340   7.103 -0.1904 -0.3458  0.7612
   94SAPE  H20T 9329   0.561   2.244   7.042  0.1854 -1.5184  0.7561
   94SAPE   C33 9330   0.271   1.445   6.830  0.5420 -0.0247  1.1436
   94SAPE   H3X 9331   0.168   1.427   6.868  0.1121 -0.3465 -0.1300
   94SAPE   H3Y 9332   0.333   1.368   6.881  0.2473  0.0773  1.6712
   94SAPE   C34 9333   0.258   1.429   6.676  0.8166  1.3075  0.2230
   94SAPE   H4X 9334   0.362   1.428   6.638  1.9694 -2.0131  3.0109
   94SAPE   H4Y 9335   0.194   1.510   6.634 -2.6736 -1.0890  0.4503
   94SAPE   C35 9336   0.176   1.299   6.648  0.2745 -0.4247  0.2642
   94SAPE   H5X 9337   0.085   1.297   6.711  1.5449 -0.9087  2.1585
   94SAPE   H5Y 9338   0.235   1.207   6.667  0.8254  0.3357  2.5770
   94SAPE   C36 9339   0.131   1.297   6.503 -0.0350  1.0155  0.4025
   94SAPE   H6X 9340   0.213   1.284   6.429 -1.0237  1.3321 -0.7912
   94SAPE   H6Y 9341   0.078   1.387   6.464 -0.3319  0.2575 -1.0215
   94SAPE   C37 9342   0.038   1.183   6.477 -0.2098  0.3743 -0.4078
   94SAPE   H7X 9343  -0.045   1.189   6.551  0.4116  1.5709  0.2312
   94SAPE   H7Y 9344   0.086   1.084   6.494  1.8043  1.4814  0.8347
   94SAPE   C38 9345  -0.017   1.187   6.343 -0.4667  0.2432 -0.1813
   94SAPE   H8X 9346   0.066   1.185   6.269 -2.8792  1.5404 -3.1638
   94SAPE   H8Y 9347  -0.071   1.284   6.334 -2.1004 -0.4675  1.2516
   94SAPE   C39 9348  -0.108   1.068   6.300 -0.3174 -0.6859 -0.1979
   94SAPE   H9X 9349  -0.189   1.076   6.375  1.0799 -0.3250  1.3415
   94SAPE   H9Y 9350  -0.051   0.974   6.320 -2.2367 -2.1266 -1.1273
   94SAPE  C310 9351  -0.146   1.064   6.148 -0.2927 -0.1659 -0.0314
   94SAPE  H10X 9352  -0.201   1.160   6.140  1.7480  1.0685  0.0113
   94SAPE  H10Y 9353  -0.219   0.981   6.140 -0.5335  0.0379  0.0397
   94SAPE  C311 9354  -0.043   1.040   6.040  0.0288  0.0799  0.2490
   94SAPE  H11X 9355   0.021   0.951   6.060  0.4295  0.6424  1.6083
   94SAPE  H11Y 9356   0.019   1.132   6.041 -1.1924  0.9162  1.3558
   94SAPE  C312 9357  -0.102   1.025   5.896 -0.5409  0.0808 -0.0204
   94SAPE  H12X 9358  -0.172   1.107   5.869  0.2500  0.6772 -0.2941
   94SAPE  H12Y 9359  -0.169   0.936   5.898 -0.6328  0.1652  1.4348
   94SAPE  C313 9360   0.015   1.018   5.791 -0.1588 -0.4340 -0.0975
   94SAPE  H13X 9361   0.094   1.097   5.798 -0.7667  0.6174 -3.3682
   94SAPE  H13Y 9362  -0.030   1.049   5.695 -0.1807 -1.1730 -0.3324
   94SAPE  C314 9363   0.072   0.875   5.781 -0.1141 -0.4335 -0.6148
   94SAPE  H14X 9364  -0.013   0.806   5.799 -1.0639  0.5404 -1.2885
   94SAPE  H14Y 9365   0.154   0.851   5.853  0.1942  1.9622 -0.0828
   94SAPE  C315 9366   0.132   0.838   5.644 -0.2405 -0.3761  0.3126
   94SAPE  H15X 9367   0.056   0.843   5.563  1.6549 -0.9195 -1.6114
   94SAPE  H15Y 9368   0.179   0.738   5.657  0.0817 -0.6878 -2.6494
   94SAPE  C316 9369   0.248   0.931   5.604  0.5303 -0.5931 -0.3872
   94SAPE  H16X 9370   0.325   0.932   5.684 -0.4227 -3.3230  0.6674
   94SAPE  H16Y 9371   0.209   1.034   5.589  3.0459  0.3050 -1.1157
   94SAPE  C317 9372   0.314   0.893   5.472 -1.2262 -0.2315 -0.4349
   94SAPE  H17X 9373   0.234   0.890   5.394 -1.3445  1.7638 -0.4449
   94SAPE  H17Y 9374   0.363   0.794   5.482  2.0732  1.3518  0.4181
   94SAPE  C318 9375   0.427   0.978   5.432 -0.7479 -0.7776 -0.2318
   94SAPE  H18X 9376   0.410   1.088   5.442  0.4498 -0.6512  0.6417
   94SAPE  H18Y 9377   0.455   0.961   5.326  1.4035 -1.0724  0.3351
   94SAPE  H18Z 9378   0.518   0.944   5.486  0.4638  2.8047  0.2685
   95SAPE     N 9379   1.047   0.586   7.516 -0.0452  0.1937 -0.1968
   95SAPE   HN1 9380   1.068   0.512   7.585 -0.0894  1.2894  1.0224
   95SAPE   HN2 9381   1.004   0.664   7.569  1.4269 -1.0983  3.1835
   95SAPE   HN3 9382   0.963   0.558   7.461  0.3424  0.7578 -1.1134
   95SAPE   C12 9383   1.169   0.641   7.437 -0.0658 -0.4734 -0.3815
   95SAPE  H12A 9384   1.206   0.563   7.368  1.6803  0.8081 -0.9625
   95SAPE  H12B 9385   1.246   0.656   7.516 -0.0902  0.2845 -0.4944
   95SAPE   C11 9386   1.132   0.765   7.359 -0.1452  0.2829 -0.6876
   95SAPE  H11A 9387   1.035   0.756   7.307 -0.9439  2.2469  0.3811
   95SAPE  H11B 9388   1.213   0.779   7.284  0.4676  0.4874  0.0041
   95SAPE     P 9389   1.016   0.930   7.530  0.1709 -0.1517  0.5323
   95SAPE   O13 9390   0.925   0.817   7.556  0.1733  0.2399  0.7851
   95SAPE   O14 9391   1.082   0.983   7.653  0.0402  0.1561  0.0427
   95SAPE   O12 9392   1.128   0.883   7.433 -0.1392  0.1922 -0.2326
   95SAPE   O11 9393   0.920   1.036   7.460 -0.9945  0.1516  0.0825
   95SAPE    C1 9394   0.997   1.155   7.423  0.0153 -0.5702  0.4085
   95SAPE    HA 9395   1.052   1.196   7.511 -0.6014 -0.5996  0.8121
   95SAPE    HB 9396   1.084   1.131   7.359  0.8830 -1.5760  1.8947
   95SAPE    C2 9397   0.907   1.260   7.343  0.7212  0.5218 -0.0291
   95SAPE    HS 9398   0.809   1.254   7.395  0.3281 -2.0108 -0.9221
   95SAPE   O21 9399   0.913   1.222   7.211 -0.3865 -0.0682 -0.1437
   95SAPE   C21 9400   0.822   1.141   7.168 -0.1638  0.1382 -0.4748
   95SAPE   O22 9401   0.708   1.133   7.214  0.1201  0.6720 -0.1860
   95SAPE   C22 9402   0.878   1.059   7.049  0.6152  0.2115  0.1983
   95SAPE   H2R 9403   0.947   1.120   6.987  0.9319  0.3235  0.6609
   95SAPE   H2S 9404   0.943   0.978   7.090  0.5277 -0.4483 -0.9147
   95SAPE    C3 9405   0.952   1.408   7.366  0.1737  0.3211  0.2048
   95SAPE    HX 9406   0.932   1.435   7.472 -1.2319  1.0892 -0.2322
   95SAPE    HY 9407   0.874   1.460   7.306  0.3439  1.0639  0.6236
   95SAPE   O31 9408   1.086   1.435   7.320 -0.6841  0.0843 -0.0075
   95SAPE   C31 9409   1.124   1.566   7.319 -0.0734 -0.1709  0.4792
   95SAPE   O32 9410   1.048   1.652   7.356 -0.3685  0.0734  0.4054
   95SAPE   C32 9411   1.269   1.581   7.283  0.7753 -0.2662 -0.6325
   95SAPE   H2X 9412   1.306   1.477   7.276  1.5436 -0.1209  0.9720
   95SAPE   H2Y 9413   1.320   1.628   7.370  2.2864 -0.1151 -1.5492
   95SAPE   C23 9414   0.771   0.981   6.965 -0.1981  0.1223 -0.5710
   95SAPE   H3R 9415   0.736   0.893   7.023  1.6577 -0.5665 -0.4380
   95SAPE   H3S 9416   0.823   0.922   6.887 -0.7148 -0.2848 -0.6103
   95SAPE   C24 9417   0.654   1.057   6.903 -0.6905  0.0796 -0.0848
   95SAPE   H4R 9418   0.589   1.108   6.978 -1.2846 -2.6451  1.3797
   95SAPE   H4S 9419   0.598   0.974   6.856 -0.5935 -0.9547  1.5533
   95SAPE   C25 9420   0.696   1.177   6.822 -0.1239 -0.5398  0.0986
   95SAPE   H5R 9421   0.718   1.258   6.892  2.5935 -1.6275  0.6577
   95SAPE   C26 9422   0.698   1.195   6.687 -0.3719 -0.4487 -0.3897
   95SAPE   H6R 9423   0.738   1.293   6.658  1.5297 -0.9709  0.2926
   95SAPE   C27 9424   0.676   1.093   6.575  0.1234  0.1749 -0.5887
   95SAPE   H7R 9425   0.721   0.997   6.609  1.2307  0.9837  0.3369
   95SAPE   H7S 9426   0.724   1.135   6.484  0.8322  0.2500 -0.1845
   95SAPE   C28 9427   0.527   1.057   6.556 -0.0827  1.0632  0.2010
   95SAPE   H8R 9428   0.487   1.005   6.645  0.4729 -1.5549 -0.9970
   95SAPE   C29 9429   0.455   1.059   6.435 -0.0301 -0.8219  0.0763
   95SAPE   H9R 9430   0.351   1.024   6.430 -0.5704  0.9190 -2.6756
   95SAPE  C210 9431   0.511   1.110   6.300  0.0139 -0.3998  0.4851
   95SAPE  H10R 9432   0.577   1.029   6.261  0.8395 -0.6828  2.3418
   95SAPE  H10S 9433   0.580   1.196   6.315 -3.0699  2.2311  0.8136
   95SAPE  C211 9434   0.407   1.145   6.194  1.0282  0.2385  0.2325
   95SAPE  H11R 9435   0.329   1.204   6.244 -1.6054 -1.8029 -1.1614
   95SAPE  C212 9436   0.394   1.105   6.068 -0.2713  1.0797  0.0401
   95SAPE  H12R 9437   0.317   1.152   6.006  0.6636  0.5182 -1.6028
   95SAPE  C213 9438   0.498   1.017   5.993  0.0448 -0.0233 -0.6196
   95SAPE  H13R 9439   0.453   0.916   5.984  0.3193 -0.4844  2.1874
   95SAPE  H13S 9440   0.582   0.998   6.063 -0.0596 -0.8250 -0.7000
   95SAPE  C214 9441   0.559   1.075   5.864  0.0494  0.1399 -0.3320
   95SAPE  H14R 9442   0.558   1.185   5.851 -2.1802 -0.0107 -2.1241
   95SAPE  C215 9443   0.630   1.001   5.784 -0.6661  0.0250 -0.0766
   95SAPE  H15R 9444   0.674   1.056   5.699  0.1768 -0.7468 -0.1589
   95SAPE  C216 9445   0.665   0.855   5.804  0.4750 -0.0404  0.3387
   95SAPE  H16R 9446   0.610   0.797   5.726  1.4292  2.5513 -2.4567
   95SAPE  H16S 9447   0.615   0.811   5.892 -2.9171  1.1728 -0.8076
   95SAPE  C217 9448   0.817   0.830   5.803  0.6043  0.1567  0.3447
   95SAPE  H17R 9449   0.836   0.723   5.826  1.6418  0.2439 -0.0643
   95SAPE  H17S 9450   0.873   0.883   5.882 -0.5054 -0.4711  1.5890
   95SAPE  C218 9451   0.876   0.870   5.674  0.4747  0.2934 -0.1538
   95SAPE  H18R 9452   0.845   0.976   5.660 -1.2936  0.0158  1.4616
   95SAPE  H18S 9453   0.839   0.810   5.588 -1.1738  1.3587 -0.2215
   95SAPE  C219 9454   1.029   0.857   5.669  0.1887  0.1263 -0.1748
   95SAPE  H19R 9455   1.059   0.763   5.720 -0.6785  0.8603  1.7845
   95SAPE  H19S 9456   1.066   0.923   5.751 -2.6652  0.7526  0.7376
   95SAPE  C220 9457   1.081   0.879   5.527  0.0025  0.5287 -0.3645
   95SAPE  H20R 9458   1.051   0.794   5.462 -1.5564  0.2583  0.6448
   95SAPE  H20S 9459   1.189   0.903   5.524 -0.2141  1.6960  0.6284
   95SAPE  H20T 9460   1.032   0.969   5.483  1.0709  2.2542  1.8076
   95SAPE   C33 9461   1.288   1.659   7.153 -0.1617 -0.4001  0.0152
   95SAPE   H3X 9462   1.398   1.672   7.146 -0.0626 -0.8863  0.6264
   95SAPE   H3Y 9463   1.248   1.762   7.161  3.3778  1.1901 -0.6682
   95SAPE   C34 9464   1.264   1.581   7.024  0.3471 -0.1777  0.5628
   95SAPE   H4X 9465   1.157   1.577   6.991  0.0068  0.8442  1.5106
   95SAPE   H4Y 9466   1.297   1.475   7.029  1.7258 -0.0458 -2.8600
   95SAPE   C35 9467   1.351   1.634   6.913 -0.5550  0.1230  0.2968
   95SAPE   H5X 9468   1.384   1.544   6.856  2.7737  2.0250 -1.0204
   95SAPE   H5Y 9469   1.447   1.674   6.952  1.1018 -2.7940 -0.4506
   95SAPE   C36 9470   1.286   1.733   6.819 -0.0965  0.0631 -0.5088
   95SAPE   H6X 9471   1.233   1.811   6.878  1.9445 -0.3648  2.0669
   95SAPE   H6Y 9472   1.204   1.679   6.767 -1.7098  0.5462  1.3939
   95SAPE   C37 9473   1.377   1.808   6.725 -0.1885 -0.2730 -0.0482
   95SAPE   H7X 9474   1.454   1.872   6.774  0.3394  0.4257 -1.7319
   95SAPE   H7Y 9475   1.315   1.883   6.673  0.3534  0.6504  0.6116
   95SAPE   C38 9476   1.428   1.715   6.611  0.1237  0.0503 -0.0152
   95SAPE   H8X 9477   1.337   1.656   6.584  0.2989  0.3721 -1.3773
   95SAPE   H8Y 9478   1.505   1.644   6.647 -0.0443 -0.5925 -0.8669
   95SAPE   C39 9479   1.465   1.796   6.487 -0.6616 -0.4669  0.0684
   95SAPE   H9X 9480   1.565   1.840   6.504 -0.7865 -0.0568 -0.2306
   95SAPE   H9Y 9481   1.397   1.883   6.474  0.5294  0.5759  0.6002
   95SAPE  C310 9482   1.488   1.717   6.359 -0.4310  0.5561  0.2124
   95SAPE  H10X 9483   1.392   1.664   6.344  0.1024 -1.5991  3.4285
   95SAPE  H10Y 9484   1.569   1.641   6.367 -0.8493 -0.0116 -0.7620
   95SAPE  C311 9485   1.527   1.825   6.250 -0.2305 -0.6970 -0.4437
   95SAPE  H11X 9486   1.613   1.890   6.274 -0.2663 -0.5560 -0.7027
   95SAPE  H11Y 9487   1.444   1.898   6.248 -0.5130 -0.9054  1.3706
   95SAPE  C312 9488   1.545   1.774   6.110 -0.8732 -0.0666 -0.5139
   95SAPE  H12X 9489   1.551   1.856   6.036 -0.6228 -0.0375 -0.4633
   95SAPE  H12Y 9490   1.455   1.713   6.090 -0.9732 -0.1779  0.2342
   95SAPE  C313 9491   1.668   1.686   6.105  0.2415  0.1184 -0.2270
   95SAPE  H13X 9492   1.662   1.620   6.194  2.9685 -0.4365 -0.3765
   95SAPE  H13Y 9493   1.759   1.748   6.118 -0.8545  1.9845 -1.0018
   95SAPE  C314 9494   1.676   1.602   5.976 -0.5068  0.7160  0.1136
   95SAPE  H14X 9495   1.574   1.569   5.949 -0.4335  1.4933 -1.1993
   95SAPE  H14Y 9496   1.737   1.511   5.998  0.3442  0.4791 -2.7032
   95SAPE  C315 9497   1.735   1.671   5.850 -0.3850 -0.1961  0.1712
   95SAPE  H15X 9498   1.835   1.692   5.893  0.0149 -4.0434  1.4596
   95SAPE  H15Y 9499   1.679   1.762   5.818 -1.5631 -1.6595 -2.2044
   95SAPE  C316 9500   1.759   1.594   5.725 -0.2627  0.0084  0.1893
   95SAPE  H16X 9501   1.660   1.562   5.685 -0.7771 -0.9639  2.1321
   95SAPE  H16Y 9502   1.806   1.499   5.760  1.7944  2.6516  5.6906
   95SAPE  C317 9503   1.848   1.670   5.630 -0.6050 -0.3728  0.6291
   95SAPE  H17X 9504   1.939   1.707   5.682  0.9431  0.0656 -2.2250
   95SAPE  H17Y 9505   1.791   1.759   5.597 -0.1703 -0.0267  0.8012
   95SAPE  C318 9506   1.878   1.589   5.502 -0.0171  0.2254 -0.1683
   95SAPE  H18X 9507   1.928   1.492   5.524 -1.1592 -0.7449 -1.6498
   95SAPE  H18Y 9508   1.942   1.646   5.431 -1.2531  0.6038 -1.0004
   95SAPE  H18Z 9509   1.782   1.572   5.448  1.1661 -1.9971 -1.7750
   96SAPE     N 9510   2.594   1.831   7.937  0.5274  0.4336 -0.2376
   96SAPE   HN1 9511   2.554   1.874   8.023  1.5268 -1.1179  1.0723
   96SAPE   HN2 9512   2.522   1.782   7.881 -0.8926 -0.1568  1.9650
   96SAPE   HN3 9513   2.653   1.758   7.984 -0.5826  0.2003  0.8553
   96SAPE   C12 9514   2.689   1.932   7.891 -0.5708 -0.6409 -0.2589
   96SAPE  H12A 9515   2.776   1.874   7.853  0.3625  0.2060  0.5019
   96SAPE  H12B 9516   2.722   1.981   7.985 -1.1513 -0.8186  0.0397
   96SAPE   C11 9517   2.618   2.033   7.792  0.0304  0.2490  0.0009
   96SAPE  H11A 9518   2.696   2.105   7.758  0.6830 -1.6079 -2.8497
   96SAPE  H11B 9519   2.547   2.085   7.859  0.3824 -0.7355  1.1550
   96SAPE     P 9520   2.622   1.942   7.552  0.0504 -0.2915  0.3408
   96SAPE   O13 9521   2.765   1.909   7.574  0.2079 -0.2370  0.3438
   96SAPE   O14 9522   2.534   1.857   7.465 -0.0661  0.0555 -0.1569
   96SAPE   O12 9523   2.552   1.968   7.687  0.3801  0.1359 -0.2024
   96SAPE   O11 9524   2.612   2.092   7.491  0.4037 -0.3761  0.1824
   96SAPE    C1 9525   2.494   2.172   7.507  0.3034 -0.4846 -0.5988
   96SAPE    HA 9526   2.407   2.123   7.459  1.7235 -2.5762 -1.1830
   96SAPE    HB 9527   2.461   2.172   7.613  1.6367 -1.7954 -0.1484
   96SAPE    C2 9528   2.498   2.323   7.466 -0.1940 -0.7815  0.5620
   96SAPE    HS 9529   2.405   2.375   7.496 -0.6050 -1.6872  0.9087
   96SAPE   O21 9530   2.523   2.325   7.322  0.2669  0.2140 -0.2742
   96SAPE   C21 9531   2.417   2.306   7.253 -0.3630  0.1138 -0.4368
   96SAPE   O22 9532   2.308   2.295   7.303  0.7275  0.0727  0.1566
   96SAPE   C22 9533   2.447   2.296   7.099  0.3180 -0.6206 -0.0150
   96SAPE   H2R 9534   2.556   2.284   7.079  0.0450 -0.4162 -1.7675
   96SAPE   H2S 9535   2.390   2.213   7.051  1.3042 -0.9363 -0.6990
   96SAPE    C3 9536   2.616   2.404   7.526  0.3566 -0.6331  0.6544
   96SAPE    HX 9537   2.706   2.345   7.501  0.5582 -0.9191  1.9822
   96SAPE    HY 9538   2.606   2.407   7.637  0.9335 -2.1938  0.7722
   96SAPE   O31 9539   2.637   2.540   7.467 -0.0473  0.0366 -0.2703
   96SAPE   C31 9540   2.593   2.643   7.541  0.6005  0.0537 -0.0133
   96SAPE   O32 9541   2.522   2.635   7.641 -0.3330 -0.7859 -0.1000
   96SAPE   C32 9542   2.643   2.773   7.489 -0.8815  0.0190 -0.1035
   96SAPE   H2X 9543   2.703   2.752   7.398 -0.1174 -0.1751  0.4349
   96SAPE   H2Y 9544   2.714   2.816   7.562  1.2369 -0.8429 -1.5485
   96SAPE   C23 9545   2.402   2.424   7.034  0.4732 -0.3210 -0.2769
   96SAPE   H3R 9546   2.463   2.512   7.064  0.5613 -1.0759  1.9629
   96SAPE   H3S 9547   2.294   2.440   7.055  0.5249 -0.6675  0.2809
   96SAPE   C24 9548   2.404   2.397   6.879  0.0555 -0.0042  0.4654
   96SAPE   H4R 9549   2.328   2.454   6.822  0.0335 -0.8574 -0.3823
   96SAPE   H4S 9550   2.379   2.289   6.875  1.9650 -0.5294  1.5880
   96SAPE   C25 9551   2.539   2.417   6.819  1.0580 -0.9711 -0.1758
   96SAPE   H5R 9552   2.616   2.448   6.891  1.5491 -0.3726 -0.9452
   96SAPE   C26 9553   2.569   2.405   6.693  0.6043  0.1427  0.9653
   96SAPE   H6R 9554   2.670   2.428   6.656 -0.9294  1.4136 -2.9171
   96SAPE   C27 9555   2.469   2.363   6.588  0.1097 -0.8557  1.8249
   96SAPE   H7R 9556   2.445   2.460   6.540 -1.2093 -1.4539  1.2417
   96SAPE   H7S 9557   2.370   2.322   6.617 -2.6056  1.7637 -2.6921
   96SAPE   C28 9558   2.542   2.264   6.503  0.0164  0.5452 -0.7290
   96SAPE   H8R 9559   2.573   2.174   6.558  2.4593  1.8578  0.2168
   96SAPE   C29 9560   2.551   2.263   6.371 -0.3999 -0.0348  0.6612
   96SAPE   H9R 9561   2.610   2.188   6.316 -1.7807 -0.2248 -0.6286
   96SAPE  C210 9562   2.513   2.386   6.284 -0.4283 -0.0566  0.2187
   96SAPE  H10R 9563   2.605   2.418   6.229  0.1098 -2.1776 -0.2162
   96SAPE  H10S 9564   2.472   2.471   6.343 -0.6688  0.0247 -0.0620
   96SAPE  C211 9565   2.405   2.343   6.192 -0.2213 -0.1439  0.2030
   96SAPE  H11R 9566   2.319   2.295   6.240 -0.7527 -0.1240 -0.7075
   96SAPE  C212 9567   2.408   2.367   6.056  0.0301 -0.0929 -0.7004
   96SAPE  H12R 9568   2.334   2.333   5.982 -1.9955 -1.6036  1.8614
   96SAPE  C213 9569   2.521   2.433   5.982 -0.3177  0.0786 -0.1945
   96SAPE  H13R 9570   2.517   2.410   5.873 -0.3713  1.0340 -0.4078
   96SAPE  H13S 9571   2.616   2.391   6.022  0.3252 -1.0123 -2.6822
   96SAPE  C214 9572   2.527   2.585   5.993 -0.0074 -0.2038 -0.1847
   96SAPE  H14R 9573   2.532   2.620   6.097  1.9238  0.0211 -0.3071
   96SAPE  C215 9574   2.550   2.669   5.887 -0.6304  0.6128  0.6113
   96SAPE  H15R 9575   2.560   2.777   5.902  1.9128  0.1555  3.0044
   96SAPE  C216 9576   2.582   2.619   5.747  0.6685  0.6409 -0.2088
   96SAPE  H16R 9577   2.488   2.629   5.690 -0.9833 -2.9173  1.5682
   96SAPE  H16S 9578   2.611   2.512   5.753 -1.3527  0.0333 -0.7972
   96SAPE  C217 9579   2.694   2.684   5.677 -0.0047 -0.1339  0.4844
   96SAPE  H17R 9580   2.785   2.629   5.712 -0.2851 -1.5512 -0.9148
   96SAPE  H17S 9581   2.710   2.785   5.721 -0.9782  0.7229 -1.0806
   96SAPE  C218 9582   2.699   2.687   5.528  0.3850  0.1551  0.9794
   96SAPE  H18R 9583   2.799   2.716   5.489 -0.2217 -1.1795 -1.8317
   96SAPE  H18S 9584   2.635   2.775   5.506  1.0474  1.0699  2.5176
   96SAPE  C219 9585   2.651   2.553   5.464 -0.3226  0.3280 -1.1418
   96SAPE  H19R 9586   2.542   2.561   5.485  0.2676  1.1742  2.2936
   96SAPE  H19S 9587   2.698   2.469   5.519 -3.8193  0.0137  1.7431
   96SAPE  C220 9588   2.661   2.542   5.316  0.1792  0.2821 -0.2663
   96SAPE  H20R 9589   2.622   2.441   5.290 -0.6547 -0.1728  2.4052
   96SAPE  H20S 9590   2.761   2.545   5.268  1.7699  0.6224  2.8350
   96SAPE  H20T 9591   2.594   2.618   5.270 -0.7803 -0.8858 -0.8613
   96SAPE   C33 9592   2.527   2.871   7.463 -0.1546 -0.2518 -0.4185
   96SAPE   H3X 9593   2.565   2.975   7.453  0.5387 -0.3690  0.7626
   96SAPE   H3Y 9594   2.458   2.879   7.549  1.1337 -1.2644  0.7640
   96SAPE   C34 9595   2.435   2.834   7.343  0.5697  0.2247 -0.5971
   96SAPE   H4X 9596   2.346   2.901   7.333 -0.9477 -1.2737  1.7530
   96SAPE   H4Y 9597   2.385   2.739   7.371 -0.4015  0.7177 -0.5943
   96SAPE   C35 9598   2.516   2.831   7.214 -0.1642 -0.2480 -0.0041
   96SAPE   H5X 9599   2.597   2.754   7.211  0.9305  0.9002 -2.1607
   96SAPE   H5Y 9600   2.563   2.929   7.192 -0.8314 -0.0394 -0.5251
   96SAPE   C36 9601   2.417   2.801   7.090 -0.0338 -0.5949  0.0771
   96SAPE   H6X 9602   2.355   2.887   7.059  2.4035  1.2277 -0.0111
   96SAPE   H6Y 9603   2.369   2.701   7.099 -0.0397 -0.5223  0.9200
   96SAPE   C37 9604   2.499   2.788   6.958 -0.4194  0.2203  0.0320
   96SAPE   H7X 9605   2.562   2.697   6.962  0.2239  0.6765  0.4560
   96SAPE   H7Y 9606   2.563   2.879   6.958 -1.8559  1.2911  1.2772
   96SAPE   C38 9607   2.405   2.785   6.830  0.7240  0.8197 -0.0850
   96SAPE   H8X 9608   2.327   2.863   6.834  0.8595  0.9622 -0.2302
   96SAPE   H8Y 9609   2.348   2.690   6.832 -0.8218  1.5647 -2.9131
   96SAPE   C39 9610   2.473   2.768   6.695 -1.0610 -0.4338  0.2958
   96SAPE   H9X 9611   2.550   2.688   6.698 -0.3912  0.2225  1.3359
   96SAPE   H9Y 9612   2.537   2.859   6.697 -2.3346  0.5107 -0.0775
   96SAPE  C310 9613   2.378   2.771   6.573 -0.3978  0.1712 -0.5949
   96SAPE  H10X 9614   2.311   2.860   6.576 -0.9179 -0.2386  0.4871
   96SAPE  H10Y 9615   2.308   2.688   6.598 -1.6257  1.9647  2.5579
   96SAPE  C311 9616   2.446   2.753   6.438  0.3747  1.2900  0.5371
   96SAPE  H11X 9617   2.522   2.672   6.440  1.2452  2.0221 -1.1902
   96SAPE  H11Y 9618   2.501   2.844   6.407  1.0867 -0.3270 -3.5767
   96SAPE  C312 9619   2.350   2.726   6.318  0.5585  0.4839 -0.1361
   96SAPE  H12X 9620   2.276   2.657   6.363  1.5480 -0.1399  0.5585
   96SAPE  H12Y 9621   2.396   2.666   6.237 -0.3581  1.1972 -1.2144
   96SAPE  C313 9622   2.266   2.843   6.272  0.6351 -0.2048  0.0806
   96SAPE  H13X 9623   2.241   2.917   6.351  0.0145  0.0936 -0.3842
   96SAPE  H13Y 9624   2.170   2.790   6.250  0.1347  0.4008  0.7803
   96SAPE  C314 9625   2.320   2.917   6.153  0.3382 -0.2858 -0.2813
   96SAPE  H14X 9626   2.338   2.842   6.073 -2.5287 -3.6358  1.9150
   96SAPE  H14Y 9627   2.402   2.983   6.187 -1.2093  0.2661  2.7893
   96SAPE  C315 9628   2.215   3.013   6.095  0.4334 -0.5910 -0.1604
   96SAPE  H15X 9629   2.213   3.087   6.178 -2.2314 -0.3329 -0.3766
   96SAPE  H15Y 9630   2.110   2.978   6.085  0.7195 -1.1997 -1.2160
   96SAPE  C316 9631   2.264   3.097   5.972 -0.1446  0.3221  0.5796
   96SAPE  H16X 9632   2.186   3.066   5.900  1.3217 -0.6026 -0.6758
   96SAPE  H16Y 9633   2.357   3.061   5.923  0.1216  1.3793  0.2801
   96SAPE  C317 9634   2.262   3.253   5.984 -0.0544 -0.0201  0.3227
   96SAPE  H17X 9635   2.291   3.295   5.885 -1.5123  0.1549 -0.0641
   96SAPE  H17Y 9636   2.344   3.277   6.055  0.5329 -1.7892  0.2741
   96SAPE  C318 9637   2.128   3.315   6.033  0.5256 -0.2709 -0.2182
   96SAPE  H18X 9638   2.057   3.305   5.947 -0.7462 -0.2237  0.8003
   96SAPE  H18Y 9639   2.144   3.423   6.051  0.8215  0.1852 -2.7813
   96SAPE  H18Z 9640   2.093   3.269   6.128 -0.7884 -1.1472 -1.0887
   97SAPE     N 9641   6.234   3.991   7.984 -0.0236 -0.1760  0.1187
   97SAPE   HN1 9642   6.213   4.072   7.922 -1.6852 -0.8481 -0.2392
   97SAPE   HN2 9643   6.328   3.950   7.965 -0.2401 -0.7778  0.3316
   97SAPE   HN3 9644   6.166   3.917   7.956  0.6278 -1.3112  1.4106
   97SAPE   C12 9645   6.220   4.031   8.133 -0.3152 -0.0845  0.3563
   97SAPE  H12A 9646   6.288   4.116   8.156 -0.1244 -0.4610  1.2416
   97SAPE  H12B 9647   6.252   3.949   8.201 -0.3385  1.6675  2.6032
   97SAPE   C11 9648   6.073   4.067   8.165 -0.1361 -0.1888  0.8324
   97SAPE  H11A 9649   6.047   4.169   8.129  0.8906 -0.8084 -1.8877
   97SAPE  H11B 9650   6.056   4.080   8.274  1.6732 -0.0246  1.1290
   97SAPE     P 9651   5.859   3.933   8.161 -0.0656 -0.1278  0.1353
   97SAPE   O13 9652   5.900   3.822   8.241 -0.7758 -0.0793 -0.7131
   97SAPE   O14 9653   5.776   4.033   8.229 -0.2633  0.6924 -0.3144
   97SAPE   O12 9654   5.984   3.990   8.083  0.1095 -0.2173 -0.4430
   97SAPE   O11 9655   5.781   3.883   8.037 -0.3009 -0.2272  0.0807
   97SAPE    C1 9656   5.849   3.863   7.914  0.2344 -0.4766 -0.1311
   97SAPE    HA 9657   5.952   3.823   7.921  1.8040  3.1787 -0.3466
   97SAPE    HB 9658   5.798   3.777   7.866 -0.0669  0.4527 -1.5224
   97SAPE    C2 9659   5.856   3.983   7.819 -0.2601 -0.8873  0.3500
   97SAPE    HS 9660   5.907   4.066   7.871 -2.8979  1.2801 -0.3108
   97SAPE   O21 9661   5.720   4.007   7.786 -0.5214  0.2759 -0.5050
   97SAPE   C21 9662   5.685   4.126   7.732  0.6703  0.7817 -0.2049
   97SAPE   O22 9663   5.748   4.231   7.747 -0.1025 -0.0438 -0.7041
   97SAPE   C22 9664   5.552   4.101   7.655  0.4581 -0.4395  1.2043
   97SAPE   H2R 9665   5.559   4.012   7.589  0.5834  0.0752  0.5089
   97SAPE   H2S 9666   5.472   4.104   7.732 -0.3424  0.5975  0.3648
   97SAPE    C3 9667   5.944   3.964   7.686  0.9329 -0.0127  0.0151
   97SAPE    HX 9668   5.889   3.889   7.625  1.0064 -0.8951  1.0023
   97SAPE    HY 9669   6.042   3.924   7.719  2.0406  1.2277 -1.6176
   97SAPE   O31 9670   5.951   4.086   7.603 -0.0119  0.4944 -0.3951
   97SAPE   C31 9671   6.053   4.158   7.647  0.5456  0.2867  0.4380
   97SAPE   O32 9672   6.127   4.130   7.742 -0.3259 -0.0939  0.3460
   97SAPE   C32 9673   6.056   4.284   7.562 -0.2953 -0.2714 -0.1091
   97SAPE   H2X 9674   5.975   4.349   7.603  1.1232  0.5879  1.4646
   97SAPE   H2Y 9675   6.032   4.253   7.459  1.0783 -0.9926 -0.2272
   97SAPE   C23 9676   5.517   4.227   7.562 -0.3885  0.2568  0.5730
   97SAPE   H3R 9677   5.586   4.216   7.476 -0.2037 -3.8195  1.0425
   97SAPE   H3S 9678   5.536   4.320   7.620  1.8460  0.7591 -0.8613
   97SAPE   C24 9679   5.369   4.226   7.502  0.2515  0.1000 -0.3322
   97SAPE   H4R 9680   5.296   4.243   7.584  1.0229 -3.1544  1.2185
   97SAPE   H4S 9681   5.347   4.124   7.463  1.4925 -0.4092  0.2521
   97SAPE   C25 9682   5.352   4.323   7.389  0.1741  0.4197 -0.9928
   97SAPE   H5R 9683   5.372   4.426   7.419 -0.0056 -0.0494  0.8533
   97SAPE   C26 9684   5.347   4.293   7.255  0.5353  0.2930 -0.2737
   97SAPE   H6R 9685   5.344   4.380   7.187 -3.9479  0.5159 -0.0981
   97SAPE   C27 9686   5.340   4.161   7.191 -0.0747  1.0903 -0.1796
   97SAPE   H7R 9687   5.253   4.168   7.121 -1.3844  1.5717  1.4347
   97SAPE   H7S 9688   5.314   4.081   7.264  0.5074 -0.3789 -1.5068
   97SAPE   C28 9689   5.466   4.109   7.121  0.1171 -0.4411 -0.4725
   97SAPE   H8R 9690   5.543   4.078   7.193 -0.8730 -3.4482 -0.5534
   97SAPE   C29 9691   5.494   4.090   6.992  0.1525  0.0372  0.5529
   97SAPE   H9R 9692   5.593   4.051   6.966  0.7329  1.3093  0.7950
   97SAPE  C210 9693   5.399   4.119   6.876  0.3895 -0.0012 -0.0198
   97SAPE  H10R 9694   5.327   4.194   6.914  1.1341  0.5037  0.4216
   97SAPE  H10S 9695   5.348   4.024   6.847 -1.5474 -0.0518  3.2092
   97SAPE  C211 9696   5.481   4.176   6.759  0.5125  0.3871  0.5532
   97SAPE  H11R 9697   5.565   4.242   6.786  1.7120 -0.1659 -1.6081
   97SAPE  C212 9698   5.436   4.175   6.630 -0.2289  0.1986 -0.9565
   97SAPE  H12R 9699   5.510   4.211   6.557  1.4870  1.0110  1.0815
   97SAPE  C213 9700   5.314   4.107   6.572 -0.2650 -0.6252 -0.9514
   97SAPE  H13R 9701   5.255   4.192   6.532 -1.1227 -1.0096 -0.5504
   97SAPE  H13S 9702   5.247   4.059   6.647  0.1925 -0.7009 -0.5921
   97SAPE  C214 9703   5.359   4.001   6.472 -0.7112  0.3689 -0.4708
   97SAPE  H14R 9704   5.349   3.898   6.511 -1.6171  0.2309 -1.0300
   97SAPE  C215 9705   5.372   4.020   6.343  0.4030  1.3555  0.1703
   97SAPE  H15R 9706   5.400   3.932   6.282  2.5170  2.2926 -0.2959
   97SAPE  C216 9707   5.355   4.148   6.269  0.0171 -0.5193 -0.2114
   97SAPE  H16R 9708   5.338   4.227   6.346  1.0256  1.0484 -1.5249
   97SAPE  H16S 9709   5.268   4.148   6.201 -1.3454 -1.6967  1.4477
   97SAPE  C217 9710   5.470   4.193   6.177  0.3790  0.6596 -0.5808
   97SAPE  H17R 9711   5.464   4.129   6.086 -0.7683 -0.2426  0.0998
   97SAPE  H17S 9712   5.571   4.190   6.223  0.9814  0.6187 -1.8463
   97SAPE  C218 9713   5.454   4.342   6.130 -0.2198  0.3324 -0.6504
   97SAPE  H18R 9714   5.477   4.411   6.214  1.8659  0.3015 -1.1337
   97SAPE  H18S 9715   5.353   4.361   6.088 -0.3900  1.5506  0.2625
   97SAPE  C219 9716   5.555   4.370   6.022 -0.3822  0.0256 -0.6516
   97SAPE  H19R 9717   5.551   4.283   5.952  1.8120  0.7372 -1.7591
   97SAPE  H19S 9718   5.655   4.367   6.070 -0.4045 -1.2672 -0.6444
   97SAPE  C220 9719   5.550   4.505   5.951  0.5001  0.0103 -0.4512
   97SAPE  H20R 9720   5.443   4.508   5.919 -0.1332  2.5791  1.5563
   97SAPE  H20S 9721   5.614   4.501   5.861  0.4705  0.4985 -0.4938
   97SAPE  H20T 9722   5.561   4.591   6.021 -0.4504 -1.2434  1.3609
   97SAPE   C33 9723   6.192   4.363   7.568 -0.2359 -0.5910 -0.2754
   97SAPE   H3X 9724   6.288   4.316   7.541  0.6142  1.0607 -0.2457
   97SAPE   H3Y 9725   6.200   4.405   7.671  0.6173 -0.9303 -0.1962
   97SAPE   C34 9726   6.183   4.485   7.473 -0.8450 -0.5632  0.0477
   97SAPE   H4X 9727   6.278   4.543   7.487 -1.3165 -0.2043  2.0331
   97SAPE   H4Y 9728   6.110   4.555   7.519  1.2661  2.4043 -0.7703
   97SAPE   C35 9729   6.172   4.459   7.326  0.0755  0.8388  0.0633
   97SAPE   H5X 9730   6.187   4.557   7.276 -0.8930  1.2728  0.5976
   97SAPE   H5Y 9731   6.068   4.424   7.310  0.3715  0.3909 -0.9882
   97SAPE   C36 9732   6.278   4.360   7.272 -0.1701  0.5014 -0.0789
   97SAPE   H6X 9733   6.275   4.264   7.327 -1.3951  0.7777  0.3729
   97SAPE   H6Y 9734   6.384   4.393   7.279  0.5870 -2.0441  2.0381
   97SAPE   C37 9735   6.263   4.329   7.124  0.3806 -0.7608  0.2442
   97SAPE   H7X 9736   6.162   4.283   7.114  0.8251 -1.1974 -3.5127
   97SAPE   H7Y 9737   6.334   4.250   7.093 -1.1740 -1.8136 -0.7515
   97SAPE   C38 9738   6.260   4.446   7.027 -0.1841 -0.1374  0.2024
   97SAPE   H8X 9739   6.356   4.501   7.043 -1.4014  1.5874  2.0534
   97SAPE   H8Y 9740   6.175   4.508   7.061 -0.9039 -1.4624  0.8651
   97SAPE   C39 9741   6.248   4.407   6.878 -0.3768 -0.3915  0.1517
   97SAPE   H9X 9742   6.139   4.395   6.859 -0.7711  0.2492  1.8790
   97SAPE   H9Y 9743   6.302   4.310   6.868  3.4320  1.6534 -1.1575
   97SAPE  C310 9744   6.325   4.487   6.779  0.2958  0.4835 -0.0699
   97SAPE  H10X 9745   6.432   4.491   6.810  0.5045 -1.6196 -0.3462
   97SAPE  H10Y 9746   6.276   4.586   6.785 -3.0941 -1.1308  2.1785
   97SAPE  C311 9747   6.297   4.427   6.641 -0.1932  0.4430  0.5135
   97SAPE  H11X 9748   6.189   4.409   6.624 -0.6347  0.5582  2.8530
   97SAPE  H11Y 9749   6.348   4.328   6.644 -1.2307 -0.1033  0.4028
   97SAPE  C312 9750   6.366   4.499   6.522 -0.2727 -0.6403 -0.8803
   97SAPE  H12X 9751   6.465   4.548   6.530  0.2843 -1.5576 -1.7716
   97SAPE  H12Y 9752   6.302   4.588   6.507 -0.1302 -0.4444 -0.3172
   97SAPE  C313 9753   6.359   4.418   6.388  0.1386 -0.3748 -0.6723
   97SAPE  H13X 9754   6.251   4.405   6.364 -1.1418  1.2588  3.2932
   97SAPE  H13Y 9755   6.397   4.315   6.398 -1.4217 -0.8824  0.5161
   97SAPE  C314 9756   6.412   4.480   6.268 -0.4639  0.0664  0.1137
   97SAPE  H14X 9757   6.523   4.488   6.267 -0.1343 -2.7191  1.9612
   97SAPE  H14Y 9758   6.367   4.580   6.252 -2.8779 -1.1752 -1.5792
   97SAPE  C315 9759   6.364   4.394   6.144 -0.3345 -0.4579  0.1344
   97SAPE  H15X 9760   6.254   4.383   6.148 -0.4271  0.4723  0.4376
   97SAPE  H15Y 9761   6.410   4.294   6.155 -0.4729 -0.3764  1.5822
   97SAPE  C316 9762   6.382   4.443   5.995  0.1011 -0.1437  0.0523
   97SAPE  H16X 9763   6.336   4.545   5.992  1.2514  0.4188  0.7470
   97SAPE  H16Y 9764   6.322   4.366   5.942  3.8831 -1.8680 -2.1685
   97SAPE  C317 9765   6.525   4.449   5.942  0.3968 -0.1576 -0.0400
   97SAPE  H17X 9766   6.584   4.355   5.954  2.4856  1.1812  0.6688
   97SAPE  H17Y 9767   6.583   4.527   5.996 -0.2526  1.0814 -1.0819
   97SAPE  C318 9768   6.526   4.492   5.796  0.2515 -0.9005  0.7132
   97SAPE  H18X 9769   6.627   4.488   5.749  0.0916  0.0253  0.2715
   97SAPE  H18Y 9770   6.488   4.595   5.780 -1.1291 -1.6096 -0.8855
   97SAPE  H18Z 9771   6.476   4.416   5.732 -0.5145 -0.7637  1.1400
   98SAPE     N 9772   5.357   3.162   7.760 -0.7524 -0.6285 -0.7877
   98SAPE   HN1 9773   5.287   3.130   7.830 -1.2191  1.5876 -0.1748
   98SAPE   HN2 9774   5.318   3.249   7.718 -0.2501 -0.5183 -1.0324
   98SAPE   HN3 9775   5.360   3.088   7.686 -0.8796 -0.7308 -0.6908
   98SAPE   C12 9776   5.504   3.183   7.811 -0.8167 -0.5715  0.1084
   98SAPE  H12A 9777   5.485   3.241   7.903 -1.0140  1.0134 -0.8893
   98SAPE  H12B 9778   5.551   3.257   7.742  0.4244 -1.2975  0.1443
   98SAPE   C11 9779   5.585   3.057   7.797  0.6008  0.0668 -0.3777
   98SAPE  H11A 9780   5.569   3.017   7.694 -0.0333 -0.9758  0.1182
   98SAPE  H11B 9781   5.534   2.977   7.853 -0.7492  0.6417 -0.7442
   98SAPE     P 9782   5.826   3.066   7.729 -0.2350  0.0433 -0.2087
   98SAPE   O13 9783   5.783   3.151   7.614  0.1167  0.0171  0.0761
   98SAPE   O14 9784   5.956   3.105   7.796  0.0103  0.1521 -0.1725
   98SAPE   O12 9785   5.716   3.071   7.839 -0.3620 -0.1977  0.5025
   98SAPE   O11 9786   5.832   2.918   7.687  0.2433  0.0951 -0.2154
   98SAPE    C1 9787   5.886   2.812   7.758 -0.0868 -0.2837 -0.4575
   98SAPE    HA 9788   5.992   2.834   7.787 -0.0324 -0.0757 -0.8081
   98SAPE    HB 9789   5.828   2.800   7.852  1.0240 -0.6752  0.1956
   98SAPE    C2 9790   5.868   2.682   7.677  0.0695 -0.3672 -0.2587
   98SAPE    HS 9791   5.933   2.601   7.717 -2.0878 -1.6532  0.8047
   98SAPE   O21 9792   5.901   2.703   7.540  0.1795 -0.2948  0.0732
   98SAPE   C21 9793   6.029   2.723   7.521 -0.7341  0.4993  0.1558
   98SAPE   O22 9794   6.119   2.701   7.592  0.0581 -0.1824 -0.0271
   98SAPE   C22 9795   6.059   2.782   7.380 -0.0714  0.0978  0.5001
   98SAPE   H2R 9796   6.147   2.847   7.397  0.1436  0.7048 -2.4816
   98SAPE   H2S 9797   6.092   2.703   7.309 -0.7068  1.5115 -1.4516
   98SAPE    C3 9798   5.717   2.632   7.678 -0.2434 -0.0343 -0.2513
   98SAPE    HX 9799   5.648   2.719   7.689  0.2742  0.6110 -1.8773
   98SAPE    HY 9800   5.710   2.581   7.777 -0.8266  1.0063  0.2630
   98SAPE   O31 9801   5.690   2.546   7.567  0.4530  0.1043 -0.1046
   98SAPE   C31 9802   5.632   2.609   7.463  0.2404 -0.3055 -0.2025
   98SAPE   O32 9803   5.597   2.722   7.461 -0.4155  0.0388  0.4734
   98SAPE   C32 9804   5.614   2.514   7.345  0.6919  0.1881  0.4418
   98SAPE   H2X 9805   5.527   2.450   7.370  0.7193  0.0636  0.2227
   98SAPE   H2Y 9806   5.706   2.452   7.334  0.1550 -0.8688  1.6270
   98SAPE   C23 9807   5.951   2.877   7.336  0.7023  0.2623 -0.2959
   98SAPE   H3R 9808   5.935   2.956   7.413 -2.2418 -2.1773  1.8333
   98SAPE   H3S 9809   5.859   2.815   7.336  2.1277 -2.0274 -2.1989
   98SAPE   C24 9810   5.973   2.930   7.193 -0.0984 -0.3963  0.7833
   98SAPE   H4R 9811   5.995   2.853   7.116  0.6521  0.8898 -0.3241
   98SAPE   H4S 9812   6.071   2.983   7.195 -0.5983  0.6738 -1.4443
   98SAPE   C25 9813   5.867   3.016   7.141 -0.6701  0.3447 -0.3134
   98SAPE   H5R 9814   5.787   3.023   7.216 -1.5210 -1.8384 -0.9453
   98SAPE   C26 9815   5.866   3.058   7.014  0.1941  0.4425 -0.3894
   98SAPE   H6R 9816   5.779   3.114   6.977  0.5691  2.0922  1.0677
   98SAPE   C27 9817   5.966   3.033   6.902 -0.3963 -0.3341 -0.1972
   98SAPE   H7R 9818   5.922   3.021   6.801  3.5392  0.8896 -2.2591
   98SAPE   H7S 9819   6.022   2.940   6.925  0.2545 -0.3068 -1.5953
   98SAPE   C28 9820   6.065   3.143   6.887  0.1799  0.1776 -0.4296
   98SAPE   H8R 9821   6.111   3.168   6.984 -0.7130 -1.2288  0.4013
   98SAPE   C29 9822   6.095   3.224   6.784  0.3570 -0.5965  0.8742
   98SAPE   H9R 9823   6.178   3.296   6.786  0.3793 -0.5914  0.0370
   98SAPE  C210 9824   6.032   3.219   6.646 -0.4668  0.6896  0.1957
   98SAPE  H10R 9825   6.077   3.308   6.598  4.2810 -2.0000 -1.0311
   98SAPE  H10S 9826   5.924   3.236   6.666  0.1468  3.4113  1.6446
   98SAPE  C211 9827   6.057   3.092   6.573  0.4349 -0.1092  0.2726
   98SAPE  H11R 9828   6.042   2.997   6.628 -2.6111 -0.0933 -0.3240
   98SAPE  C212 9829   6.082   3.078   6.442  0.3679  0.5526  0.0434
   98SAPE  H12R 9830   6.094   2.976   6.403  0.6791  0.7663 -0.4353
   98SAPE  C213 9831   6.083   3.189   6.335  0.0128  0.3235 -0.3807
   98SAPE  H13R 9832   6.011   3.271   6.359  1.2379  1.5449 -0.7029
   98SAPE  H13S 9833   6.047   3.145   6.239 -1.9292  1.0386 -0.0407
   98SAPE  C214 9834   6.219   3.246   6.341  0.0896 -0.3013 -0.3087
   98SAPE  H14R 9835   6.262   3.257   6.441  1.5908 -2.7861 -0.5986
   98SAPE  C215 9836   6.300   3.259   6.235  0.3829 -0.5348 -0.6575
   98SAPE  H15R 9837   6.395   3.309   6.257 -1.0981  1.0581  2.8045
   98SAPE  C216 9838   6.258   3.232   6.092 -0.6160 -0.3087  0.8159
   98SAPE  H16R 9839   6.320   3.299   6.029  1.9128 -2.1530  1.1849
   98SAPE  H16S 9840   6.150   3.251   6.077 -0.1950 -0.0790 -2.8673
   98SAPE  C217 9841   6.277   3.084   6.046 -0.1830  0.0989  0.1518
   98SAPE  H17R 9842   6.234   3.014   6.120 -0.4217  1.0312  0.9208
   98SAPE  H17S 9843   6.384   3.066   6.020 -0.4752 -0.8399 -0.4393
   98SAPE  C218 9844   6.199   3.052   5.912 -0.4413 -0.0816  0.3175
   98SAPE  H18R 9845   6.215   3.137   5.841 -1.5214 -0.2952 -0.2087
   98SAPE  H18S 9846   6.090   3.047   5.933 -0.3942 -1.1215  0.3465
   98SAPE  C219 9847   6.252   2.917   5.860 -0.1614  0.0427 -0.0780
   98SAPE  H19R 9848   6.237   2.844   5.943 -0.2508  0.0726 -0.0678
   98SAPE  H19S 9849   6.362   2.916   5.838 -0.1116  0.1750  0.1674
   98SAPE  C220 9850   6.183   2.872   5.730 -0.8452  0.4605 -0.8870
   98SAPE  H20R 9851   6.072   2.876   5.725 -0.8611 -0.0305 -0.9364
   98SAPE  H20S 9852   6.201   2.764   5.716  0.9313 -0.0235  3.4438
   98SAPE  H20T 9853   6.222   2.942   5.653  2.7073  0.8869  1.0839
   98SAPE   C33 9854   5.571   2.584   7.215  0.2410 -0.2825  0.6347
   98SAPE   H3X 9855   5.560   2.694   7.222 -1.1361 -0.1303 -2.2126
   98SAPE   H3Y 9856   5.475   2.537   7.185  2.3413 -3.8759 -1.1292
   98SAPE   C34 9857   5.659   2.557   7.093 -0.1066 -0.2072  0.3024
   98SAPE   H4X 9858   5.610   2.618   7.014 -1.1664 -2.2506 -0.7222
   98SAPE   H4Y 9859   5.643   2.450   7.065 -2.8441  0.4759 -1.0482
   98SAPE   C35 9860   5.804   2.592   7.109 -0.5699  0.3784 -0.4385
   98SAPE   H5X 9861   5.851   2.551   7.201  0.5736 -2.2328 -2.0322
   98SAPE   H5Y 9862   5.813   2.702   7.118 -0.0688  0.2725  0.5001
   98SAPE   C36 9863   5.892   2.546   6.997 -0.0508  0.1386 -0.6257
   98SAPE   H6X 9864   5.888   2.437   6.979  2.1385 -0.2552  0.8873
   98SAPE   H6Y 9865   5.997   2.575   7.022  0.1999 -0.9480 -0.3729
   98SAPE   C37 9866   5.849   2.606   6.863 -0.0816 -0.7672  0.3559
   98SAPE   H7X 9867   5.865   2.716   6.872  0.4170 -0.8526  0.5565
   98SAPE   H7Y 9868   5.744   2.585   6.836 -0.1233  1.7495 -1.7890
   98SAPE   C38 9869   5.936   2.567   6.742 -0.3079  0.4895 -0.3596
   98SAPE   H8X 9870   5.928   2.461   6.709  0.0967  0.2795  0.2045
   98SAPE   H8Y 9871   6.043   2.579   6.768 -0.6985 -0.4692  2.0187
   98SAPE   C39 9872   5.915   2.648   6.619  0.3432  0.2708  0.2331
   98SAPE   H9X 9873   5.941   2.756   6.626 -1.2176  0.7126 -0.3640
   98SAPE   H9Y 9874   5.807   2.662   6.597  0.7184  2.5100 -0.5286
   98SAPE  C310 9875   5.969   2.574   6.493  0.1188 -0.5639  0.5255
   98SAPE  H10X 9876   5.942   2.467   6.485 -0.9143 -0.2079 -1.5039
   98SAPE  H10Y 9877   6.079   2.581   6.506  0.0297  0.5363  0.8176
   98SAPE  C311 9878   5.927   2.646   6.357  0.1756 -0.1329  0.0084
   98SAPE  H11X 9879   5.965   2.750   6.364  1.2620 -0.5435  0.4388
   98SAPE  H11Y 9880   5.816   2.651   6.359  0.1750  1.1878 -1.3561
   98SAPE  C312 9881   5.992   2.583   6.232  0.0278 -0.5085  0.4582
   98SAPE  H12X 9882   5.955   2.478   6.223 -1.0230 -0.1044 -0.2239
   98SAPE  H12Y 9883   6.100   2.580   6.257 -0.0051 -0.3071  0.6255
   98SAPE  C313 9884   5.968   2.646   6.091 -0.0733  0.4405 -0.7663
   98SAPE  H13X 9885   6.014   2.748   6.095 -2.3516  1.5175 -0.3441
   98SAPE  H13Y 9886   5.859   2.654   6.074 -0.2219 -0.4589 -0.2510
   98SAPE  C314 9887   6.033   2.569   5.972 -0.3469  0.2232  0.4028
   98SAPE  H14X 9888   6.019   2.637   5.885 -0.1705  0.4930  0.5857
   98SAPE  H14Y 9889   5.982   2.471   5.959  0.2094  0.0556 -0.5674
   98SAPE  C315 9890   6.180   2.541   5.981  1.7061 -0.2129  0.0616
   98SAPE  H15X 9891   6.204   2.490   6.076  1.9119 -0.1314  0.0540
   98SAPE  H15Y 9892   6.232   2.634   6.014 -0.2777  0.6600  0.8780
   98SAPE  C316 9893   6.247   2.474   5.861  0.7039 -0.0857  0.2389
   98SAPE  H16X 9894   6.203   2.515   5.768 -3.1383  0.1450  1.9492
   98SAPE  H16Y 9895   6.201   2.372   5.861 -1.5291  0.8554  0.5011
   98SAPE  C317 9896   6.394   2.467   5.864  0.5660 -0.0666 -0.3896
   98SAPE  H17X 9897   6.441   2.374   5.824 -1.0928 -0.9985 -0.2626
   98SAPE  H17Y 9898   6.429   2.471   5.969 -0.1307 -1.0835 -0.0977
   98SAPE  C318 9899   6.470   2.584   5.795 -0.3896 -0.6227  0.5657
   98SAPE  H18X 9900   6.455   2.577   5.685 -1.1726  0.6063  0.5800
   98SAPE  H18Y 9901   6.580   2.573   5.810 -0.1735  0.6758  0.0245
   98SAPE  H18Z 9902   6.454   2.685   5.837  1.4384  0.3346 -0.8789
   99SAPE     N 9903   0.113   3.413   8.011 -0.0121  0.4978  1.0254
   99SAPE   HN1 9904   0.089   3.508   7.978  1.0605  0.0672 -1.1983
   99SAPE   HN2 9905   0.036   3.372   8.067  0.0072 -1.2334 -0.1349
   99SAPE   HN3 9906   0.195   3.415   8.075  1.1639 -1.0299 -0.3238
   99SAPE   C12 9907   0.115   3.316   7.900 -0.1916  1.2813  0.2602
   99SAPE  H12A 9908   0.108   3.217   7.949  0.9909  1.2643  0.4408
   99SAPE  H12B 9909   0.209   3.325   7.841 -0.8582  0.7879 -0.9019
   99SAPE   C11 9910   0.000   3.334   7.798  0.7826 -0.2047  0.1778
   99SAPE  H11A 9911   0.011   3.256   7.719 -0.2797  0.2828 -0.4739
   99SAPE  H11B 9912   0.010   3.425   7.735 -2.3064  0.9536  1.2012
   99SAPE     P 9913  -0.226   3.213   7.844 -0.1125  0.0451 -0.4382
   99SAPE   O13 9914  -0.156   3.088   7.887  0.2402 -0.8860  0.1820
   99SAPE   O14 9915  -0.355   3.231   7.902 -0.0007 -0.1863  0.2342
   99SAPE   O12 9916  -0.130   3.339   7.857  0.5618 -0.1544 -1.0268
   99SAPE   O11 9917  -0.243   3.196   7.684  0.2422 -1.3037 -0.2543
   99SAPE    C1 9918  -0.282   3.313   7.609  0.2053 -0.1939 -0.2384
   99SAPE    HA 9919  -0.390   3.334   7.629  0.6711  1.1412  1.0345
   99SAPE    HB 9920  -0.226   3.403   7.641  0.3627 -0.5227  0.4300
   99SAPE    C2 9921  -0.271   3.292   7.456 -0.3713 -0.3090 -0.1387
   99SAPE    HS 9922  -0.333   3.204   7.429  1.7647 -1.8639 -0.2390
   99SAPE   O21 9923  -0.131   3.274   7.427 -0.5020  0.5005 -0.6536
   99SAPE   C21 9924  -0.084   3.150   7.408  0.2660  0.1241 -0.2770
   99SAPE   O22 9925  -0.150   3.044   7.411 -0.2275 -0.6228 -0.4683
   99SAPE   C22 9926   0.064   3.166   7.367 -0.1779  0.1458  0.0826
   99SAPE   H2R 9927   0.069   3.252   7.297  0.8324 -0.8737 -1.1835
   99SAPE   H2S 9928   0.124   3.195   7.455 -0.6968 -0.1503  0.5384
   99SAPE    C3 9929  -0.322   3.407   7.371 -0.0536 -0.4662 -0.4484
   99SAPE    HX 9930  -0.274   3.504   7.396  1.4125 -1.4510  0.6465
   99SAPE    HY 9931  -0.431   3.417   7.390  0.1144  0.2822  0.1854
   99SAPE   O31 9932  -0.284   3.399   7.233 -0.0057  0.0604  0.2090
   99SAPE   C31 9933  -0.382   3.334   7.163 -0.3293  0.2702  0.2640
   99SAPE   O32 9934  -0.487   3.293   7.210 -0.3596 -0.3730  0.2373
   99SAPE   C32 9935  -0.340   3.308   7.020 -0.1303 -0.2677 -0.6876
   99SAPE   H2X 9936  -0.289   3.403   6.997  0.5512 -0.1195  1.2683
   99SAPE   H2Y 9937  -0.431   3.281   6.962  0.2033 -2.4704 -0.2916
   99SAPE   C23 9938   0.116   3.039   7.293  0.4517 -0.2437 -0.2826
   99SAPE   H3R 9939   0.034   3.008   7.224 -0.0928  3.4765 -1.5459
   99SAPE   H3S 9940   0.144   2.956   7.362  2.5284 -0.8254 -1.7488
   99SAPE   C24 9941   0.244   3.072   7.210 -0.0323  0.0675  0.7508
   99SAPE   H4R 9942   0.322   3.099   7.284 -0.4116 -0.0108  1.1802
   99SAPE   H4S 9943   0.230   3.169   7.159 -1.1644  0.5034  1.8332
   99SAPE   C25 9944   0.285   2.963   7.115  0.4655 -0.3536 -0.2031
   99SAPE   H5R 9945   0.325   2.870   7.158  0.0716  0.0144  1.0064
   99SAPE   C26 9946   0.280   2.972   6.982 -0.2290  0.3233  0.1998
   99SAPE   H6R 9947   0.312   2.889   6.918 -1.1636  0.2006 -0.1351
   99SAPE   C27 9948   0.227   3.094   6.907 -0.1292 -0.0190 -0.1005
   99SAPE   H7R 9949   0.154   3.155   6.965  0.8889  1.5320 -0.4043
   99SAPE   H7S 9950   0.174   3.052   6.818 -0.0241 -1.1485  0.3541
   99SAPE   C28 9951   0.332   3.198   6.860 -0.1717  0.0400 -0.4276
   99SAPE   H8R 9952   0.383   3.257   6.938 -0.8450  1.4391 -1.0141
   99SAPE   C29 9953   0.369   3.202   6.732  0.4346  0.6254 -0.1454
   99SAPE   H9R 9954   0.438   3.279   6.695  0.8571  1.2959  1.9081
   99SAPE  C210 9955   0.340   3.111   6.613  0.4275  0.6240 -0.5544
   99SAPE  H10R 9956   0.270   3.163   6.544  0.3856 -0.4529 -1.3497
   99SAPE  H10S 9957   0.282   3.019   6.638  1.2090  0.4002  0.5186
   99SAPE  C211 9958   0.470   3.077   6.539 -0.1869  0.2110  0.1657
   99SAPE  H11R 9959   0.549   3.023   6.593  0.1050 -0.2927 -0.7459
   99SAPE  C212 9960   0.491   3.104   6.406 -0.2192  0.0084 -0.0511
   99SAPE  H12R 9961   0.586   3.073   6.360  0.1263 -0.2058  0.7966
   99SAPE  C213 9962   0.394   3.150   6.293  0.5017 -0.0376  0.0544
   99SAPE  H13R 9963   0.448   3.213   6.220 -2.7369  1.8154 -0.9482
   99SAPE  H13S 9964   0.321   3.225   6.331  1.8161  1.1628  0.2803
   99SAPE  C214 9965   0.329   3.019   6.233 -0.4995 -0.5338  0.4743
   99SAPE  H14R 9966   0.254   2.964   6.291 -1.2074  1.5681  1.6403
   99SAPE  C215 9967   0.345   2.969   6.106 -0.5561  0.1072  0.4880
   99SAPE  H15R 9968   0.292   2.877   6.078 -1.3493  0.9411 -0.7943
   99SAPE  C216 9969   0.440   3.034   6.013 -0.0042  0.0103  0.1891
   99SAPE  H16R 9970   0.484   2.952   5.953  0.5725  0.6769 -0.3061
   99SAPE  H16S 9971   0.521   3.079   6.075  0.3183  1.2493 -1.0823
   99SAPE  C217 9972   0.387   3.144   5.922 -0.3418 -0.7155  0.2283
   99SAPE  H17R 9973   0.395   3.240   5.977  1.2097 -0.1763 -0.8708
   99SAPE  H17S 9974   0.281   3.129   5.894 -0.7584  0.9883  0.7823
   99SAPE  C218 9975   0.466   3.163   5.792  1.0923  0.1636  0.0805
   99SAPE  H18R 9976   0.465   3.065   5.740 -2.3601  0.0067  0.1822
   99SAPE  H18S 9977   0.569   3.190   5.823  1.0764  1.9621 -1.3009
   99SAPE  C219 9978   0.396   3.266   5.697 -0.4924 -0.2799  0.4013
   99SAPE  H19R 9979   0.376   3.363   5.749 -1.7961  0.8209 -2.0154
   99SAPE  H19S 9980   0.298   3.229   5.662 -0.7655  0.2525  0.5816
   99SAPE  C220 9981   0.475   3.300   5.572  0.1024 -0.0870 -0.0184
   99SAPE  H20R 9982   0.501   3.209   5.513 -0.6811 -0.7071  0.5839
   99SAPE  H20S 9983   0.571   3.347   5.601 -0.1302 -0.3597  1.2346
   99SAPE  H20T 9984   0.420   3.364   5.501 -0.1574  1.0335  1.1620
   99SAPE   C33 9985  -0.236   3.196   7.007  0.4049  0.0248 -0.3772
   99SAPE   H3X 9986  -0.291   3.099   7.013 -1.6424  0.7938 -3.7866
   99SAPE   H3Y 9987  -0.158   3.202   7.084 -0.8545 -1.5663  1.1018
   99SAPE   C34 9988  -0.159   3.194   6.872 -0.0505  0.3236  0.0144
   99SAPE   H4X 9989  -0.089   3.107   6.872 -0.9848 -0.4484 -0.3082
   99SAPE   H4Y 9990  -0.094   3.284   6.879 -0.8116  0.8209  0.8521
   99SAPE   C35 9991  -0.252   3.214   6.754  0.4717 -0.2742 -0.7270
   99SAPE   H5X 9992  -0.293   3.317   6.752  0.3585 -0.3296 -2.7830
   99SAPE   H5Y 9993  -0.332   3.138   6.764 -1.2262  1.4581 -0.6456
   99SAPE   C36 9994  -0.178   3.207   6.620  0.1949 -0.1069  0.2787
   99SAPE   H6X 9995  -0.268   3.226   6.558 -1.3499 -1.0462  2.1350
   99SAPE   H6Y 9996  -0.136   3.107   6.600  0.0395  0.2796 -2.3817
   99SAPE   C37 9997  -0.083   3.327   6.601  0.0701  0.2155  0.3592
   99SAPE   H7X 9998   0.016   3.287   6.632 -0.6530 -0.9549  1.2377
   99SAPE   H7Y 9999  -0.115   3.394   6.684  1.1377 -0.5694  1.4436
   99SAPE   C3810000  -0.078   3.399   6.467  0.6606 -0.0198  0.7740
   99SAPE   H8X10001  -0.019   3.491   6.486 -0.1424  0.3195  1.7047
   99SAPE   H8Y10002  -0.179   3.419   6.425  0.6297 -1.0173  0.3342
   99SAPE   C3910003  -0.002   3.316   6.369 -0.4394 -0.1030  0.0919
   99SAPE   H9X10004  -0.030   3.210   6.386 -1.7065  0.5078  2.1908
   99SAPE   H9Y10005   0.103   3.327   6.404 -1.0195 -0.4960  2.0697
   99SAPE  C31010006  -0.023   3.361   6.219  0.0765  0.4795 -0.6173
   99SAPE  H10X10007   0.016   3.465   6.215 -2.2031  1.3554 -1.4440
   99SAPE  H10Y10008  -0.134   3.354   6.211  0.1977 -0.8849 -1.3271
   99SAPE  C31110009   0.037   3.269   6.110 -0.3605  0.3438 -0.6950
   99SAPE  H11X10010   0.123   3.209   6.145 -1.2917 -0.7775 -0.2765
   99SAPE  H11Y10011   0.059   3.322   6.014  0.3199 -1.5731 -1.6359
   99SAPE  C31210012  -0.062   3.160   6.068 -0.1515 -0.8183 -0.6430
   99SAPE  H12X10013  -0.158   3.210   6.044  0.6961  0.3248 -1.8020
   99SAPE  H12Y10014  -0.071   3.090   6.153  1.5861 -0.0278  0.2251
   99SAPE  C31310015  -0.019   3.078   5.944  0.2079  0.3238  0.5167
   99SAPE  H13X10016   0.058   3.006   5.977  0.2264  1.2403  2.5965
   99SAPE  H13Y10017   0.028   3.157   5.881  0.0600  2.0893  2.5228
   99SAPE  C31410018  -0.128   2.999   5.871 -0.2787  0.2996 -0.1339
   99SAPE  H14X10019  -0.201   3.070   5.825 -0.1701  0.0114 -0.7611
   99SAPE  H14Y10020  -0.185   2.927   5.934  0.4888  0.8315  1.1918
   99SAPE  C31510021  -0.079   2.917   5.749  0.8202 -0.1310 -0.3985
   99SAPE  H15X10022  -0.168   2.868   5.705  0.3845 -0.2239  0.5542
   99SAPE  H15Y10023  -0.019   2.837   5.796 -1.2927 -2.3465 -1.2803
   99SAPE  C31610024   0.012   2.989   5.648 -0.3955  0.1179  0.7170
   99SAPE  H16X10025   0.113   3.005   5.691  1.0424  1.2638 -2.6761
   99SAPE  H16Y10026  -0.039   3.087   5.634 -0.0571  0.0708 -1.1481
   99SAPE  C31710027   0.022   2.917   5.516 -0.0142  0.0310  0.1831
   99SAPE  H17X10028   0.109   2.967   5.466  1.4688 -1.0071  1.6244
   99SAPE  H17Y10029  -0.060   2.958   5.453  2.3544  3.2798 -1.1080
   99SAPE  C31810030   0.043   2.765   5.522 -0.2322  0.4568  0.2749
   99SAPE  H18X10031  -0.058   2.722   5.542 -0.4699  0.8704 -0.0166
   99SAPE  H18Y10032   0.115   2.740   5.603 -1.2419 -0.2747  0.9811
   99SAPE  H18Z10033   0.080   2.730   5.424 -1.7465 -1.4781  0.3278
  100SAPE     N10034   3.349   1.420   7.624 -0.1689  0.2624 -0.3802
  100SAPE   HN110035   3.322   1.496   7.558 -0.4375  1.4756  1.0758
  100SAPE   HN210036   3.262   1.387   7.672  0.5252 -1.4426 -0.2314
  100SAPE   HN310037   3.419   1.467   7.683  0.9696 -1.0540 -0.6358
  100SAPE   C1210038   3.408   1.314   7.532  0.2407  0.0350  0.5612
  100SAPE  H12A10039   3.333   1.282   7.457 -2.3608  0.7277  2.7117
  100SAPE  H12B10040   3.423   1.226   7.598 -1.2452 -0.4540  0.2759
  100SAPE   C1110041   3.541   1.354   7.472 -0.2607 -0.2511 -0.1284
  100SAPE  H11A10042   3.520   1.447   7.415 -2.3320 -0.0266  0.9172
  100SAPE  H11B10043   3.586   1.277   7.405  3.8255  2.0127 -0.3479
  100SAPE     P10044   3.751   1.478   7.570 -0.1194  0.8000 -0.0163
  100SAPE   O1310045   3.728   1.568   7.685 -0.5122 -0.0898  0.9265
  100SAPE   O1410046   3.881   1.409   7.557  0.2735 -0.5155 -0.0916
  100SAPE   O1210047   3.641   1.366   7.576  0.2039  0.4025 -0.2076
  100SAPE   O1110048   3.713   1.558   7.438 -0.0726  0.4247  0.3830
  100SAPE    C110049   3.784   1.543   7.321 -0.1549 -0.6657 -0.1965
  100SAPE    HA10050   3.889   1.571   7.342 -0.2867 -1.6961  2.2392
  100SAPE    HB10051   3.784   1.440   7.280  1.0456  0.0686 -2.1787
  100SAPE    C210052   3.719   1.623   7.204  0.0451 -0.0019  0.1163
  100SAPE    HS10053   3.693   1.722   7.246  0.8439  0.2046  0.1413
  100SAPE   O2110054   3.602   1.546   7.167  0.0709 -0.1661 -0.0732
  100SAPE   C2110055   3.496   1.629   7.141 -0.1218 -1.1157  0.7074
  100SAPE   O2210056   3.494   1.746   7.171  0.6800  0.0963 -0.2085
  100SAPE   C2210057   3.382   1.552   7.081  0.3006 -0.7295  0.1255
  100SAPE   H2R10058   3.413   1.447   7.061  1.6265 -0.6947  1.7396
  100SAPE   H2S10059   3.304   1.540   7.159 -0.5502  2.5793 -0.0928
  100SAPE    C310060   3.822   1.642   7.085 -0.5481  0.3242  0.2784
  100SAPE    HX10061   3.848   1.538   7.056 -2.2062 -0.0565  0.0556
  100SAPE    HY10062   3.899   1.713   7.121 -1.6872  1.8576 -0.1709
  100SAPE   O3110063   3.764   1.699   6.964  0.2134  0.2817  0.2907
  100SAPE   C3110064   3.743   1.827   6.976  0.3124 -0.0962  0.1649
  100SAPE   O3210065   3.773   1.903   7.066 -0.3387 -0.0527  0.1286
  100SAPE   C3210066   3.679   1.880   6.853 -0.0256 -0.2609 -0.1801
  100SAPE   H2X10067   3.693   1.991   6.856 -0.8810 -0.1769  1.0658
  100SAPE   H2Y10068   3.570   1.868   6.865  0.2182 -2.1265  0.4033
  100SAPE   C2310069   3.293   1.619   6.970 -0.2634 -0.5635  0.6005
  100SAPE   H3R10070   3.327   1.724   6.962 -0.1702 -0.5205  1.4761
  100SAPE   H3S10071   3.188   1.604   7.003 -0.5844  0.1513 -0.0631
  100SAPE   C2410072   3.311   1.555   6.829  0.4291  0.2413  0.7033
  100SAPE   H4R10073   3.279   1.448   6.830 -0.3524  0.4630  0.3924
  100SAPE   H4S10074   3.421   1.552   6.813  0.3820  0.7747  0.2631
  100SAPE   C2510075   3.250   1.635   6.714  0.5511 -0.1154 -0.3746
  100SAPE   H5R10076   3.172   1.703   6.751 -0.8065 -0.6562 -2.1048
  100SAPE   C2610077   3.266   1.626   6.583 -0.1721  0.0538  0.0100
  100SAPE   H6R10078   3.207   1.691   6.516 -1.3715 -1.5691 -0.5669
  100SAPE   C2710079   3.361   1.535   6.502 -0.6487 -0.1956 -0.1705
  100SAPE   H7R10080   3.304   1.475   6.428 -2.3245  0.4807  0.5263
  100SAPE   H7S10081   3.415   1.467   6.571 -1.0057  1.2367  1.6128
  100SAPE   C2810082   3.455   1.632   6.436  0.1163  0.5634 -0.0458
  100SAPE   H8R10083   3.516   1.702   6.495 -0.4945  1.6464 -0.6598
  100SAPE   C2910084   3.481   1.634   6.304  0.1742 -0.3186 -0.5134
  100SAPE   H9R10085   3.555   1.710   6.274 -0.1674  0.1362 -0.2102
  100SAPE  C21010086   3.420   1.557   6.188  0.3365 -0.5041 -0.0052
  100SAPE  H10R10087   3.376   1.631   6.117  1.5250  0.2839  0.0502
  100SAPE  H10S10088   3.331   1.502   6.226 -0.7004  0.9729 -0.2005
  100SAPE  C21110089   3.514   1.478   6.103  0.3063 -0.6814  0.2689
  100SAPE  H11R10090   3.571   1.401   6.157  1.6688  0.3626  0.3763
  100SAPE  C21210091   3.558   1.509   5.981 -0.0908 -0.2084 -0.3625
  100SAPE  H12R10092   3.622   1.436   5.931 -1.6665 -0.9306 -1.3693
  100SAPE  C21310093   3.504   1.633   5.908 -0.5204 -0.4365  0.6527
  100SAPE  H13R10094   3.540   1.724   5.962  0.1045  0.6116 -1.4180
  100SAPE  H13S10095   3.396   1.614   5.895 -0.8230 -0.7356  3.1400
  100SAPE  C21410096   3.564   1.640   5.772 -0.2126 -0.1650  0.3372
  100SAPE  H14R10097   3.666   1.602   5.757  0.4368  1.0376  1.5098
  100SAPE  C21510098   3.518   1.716   5.665  0.1963  0.0644 -0.1800
  100SAPE  H15R10099   3.570   1.708   5.569 -3.4342  1.5692 -2.5109
  100SAPE  C21610100   3.390   1.798   5.667 -0.3075 -0.0092  0.1927
  100SAPE  H16R10101   3.423   1.904   5.659  2.7392 -0.9046 -0.4744
  100SAPE  H16S10102   3.330   1.777   5.758  0.0500 -0.2915  0.3618
  100SAPE  C21710103   3.306   1.761   5.545 -0.3873  0.4227  0.2726
  100SAPE  H17R10104   3.285   1.652   5.535 -1.3445  0.7171 -1.2216
  100SAPE  H17S10105   3.363   1.792   5.455 -1.8468  0.1107 -0.7957
  100SAPE  C21810106   3.176   1.840   5.553  1.0777  0.0258  0.1043
  100SAPE  H18R10107   3.208   1.943   5.579 -1.5433  0.9736 -0.0913
  100SAPE  H18S10108   3.111   1.802   5.636  1.3782 -1.3171 -0.2513
  100SAPE  C21910109   3.109   1.853   5.413 -0.4466 -0.2527 -0.0023
  100SAPE  H19R10110   3.198   1.866   5.347  1.7356 -1.6472  2.4564
  100SAPE  H19S10111   3.051   1.947   5.413  0.5362  0.4281  2.3688
  100SAPE  C22010112   3.030   1.741   5.366  0.0944 -0.5807 -0.4307
  100SAPE  H20R10113   2.936   1.721   5.421  1.9042 -1.2563  2.7080
  100SAPE  H20S10114   3.070   1.641   5.393 -0.4489 -0.3114  1.5684
  100SAPE  H20T10115   3.002   1.742   5.258 -1.1750  0.7762 -0.1209
  100SAPE   C3310116   3.726   1.812   6.721  0.6745  0.6241 -0.3058
  100SAPE   H3X10117   3.662   1.846   6.637 -0.7872 -0.4559  0.3373
  100SAPE   H3Y10118   3.713   1.702   6.726  1.9089  0.4325 -0.8731
  100SAPE   C3410119   3.867   1.839   6.670 -0.6221  0.2607  0.7178
  100SAPE   H4X10120   3.925   1.798   6.756 -1.4572  2.5579  2.4635
  100SAPE   H4Y10121   3.889   1.948   6.672  1.6231 -0.1528  0.9617
  100SAPE   C3510122   3.896   1.794   6.526 -0.6229  0.0066 -0.1269
  100SAPE   H5X10123   3.888   1.685   6.507  2.4491 -0.1360 -1.1931
  100SAPE   H5Y10124   4.007   1.803   6.515 -0.2986 -0.1109  2.3323
  100SAPE   C3610125   3.826   1.877   6.422  0.7852  0.4857  0.1130
  100SAPE   H6X10126   3.837   1.982   6.458  0.7994  0.2537  0.7927
  100SAPE   H6Y10127   3.717   1.858   6.427  0.7472  0.9732  1.9902
  100SAPE   C3710128   3.876   1.854   6.274  0.6864 -0.5438 -0.3390
  100SAPE   H7X10129   3.978   1.895   6.257  0.7753 -1.2367 -1.6178
  100SAPE   H7Y10130   3.795   1.908   6.220  1.1056  2.2629  1.5935
  100SAPE   C3810131   3.876   1.699   6.245 -0.1118 -0.4115  0.0365
  100SAPE   H8X10132   3.779   1.647   6.263 -0.5970 -0.2209 -1.7331
  100SAPE   H8Y10133   3.965   1.656   6.294  0.5491  1.0856  0.2061
  100SAPE   C3910134   3.894   1.676   6.087  0.5664 -0.9697 -0.3589
  100SAPE   H9X10135   3.820   1.745   6.041  0.6100 -2.1219 -2.2496
  100SAPE   H9Y10136   3.852   1.576   6.063 -0.1121 -0.6870 -0.3777
  100SAPE  C31010137   4.038   1.715   6.028  0.2930 -0.4144 -0.8323
  100SAPE  H10X10138   4.100   1.623   6.033  1.3924  0.1147 -3.4525
  100SAPE  H10Y10139   4.085   1.797   6.086  1.0006  0.9773 -3.2657
  100SAPE  C31110140   4.032   1.746   5.882  0.6611  0.6173  0.2947
  100SAPE  H11X10141   3.994   1.656   5.831  2.2831  0.1511 -0.1526
  100SAPE  H11Y10142   4.137   1.760   5.849  0.4134  1.4090 -0.1879
  100SAPE  C31210143   3.959   1.876   5.845 -0.0796  0.1469 -0.3038
  100SAPE  H12X10144   3.972   1.955   5.922  0.7464  1.1743 -1.4564
  100SAPE  H12Y10145   3.850   1.853   5.851  0.3774 -1.9187  1.8005
  100SAPE  C31310146   3.985   1.930   5.703  0.4821  0.7099  0.4612
  100SAPE  H13X10147   3.958   1.867   5.616  0.2421  0.7817  0.4830
  100SAPE  H13Y10148   4.095   1.938   5.706  0.6465 -0.9286 -0.3027
  100SAPE  C31410149   3.913   2.061   5.674 -0.5379  0.2865  0.1227
  100SAPE  H14X10150   3.956   2.108   5.584  1.2481 -1.1809  0.1525
  100SAPE  H14Y10151   3.931   2.128   5.761 -0.5031  0.7467 -0.2388
  100SAPE  C31510152   3.766   2.047   5.648 -0.3058  0.0864  0.4243
  100SAPE  H15X10153   3.709   2.008   5.734  2.3452 -3.2138  0.8853
  100SAPE  H15Y10154   3.769   1.967   5.571  1.5586 -0.1530  0.6924
  100SAPE  C31610155   3.698   2.164   5.587  0.8285 -0.2699  0.2327
  100SAPE  H16X10156   3.764   2.199   5.504  3.0897 -0.5387  1.8172
  100SAPE  H16Y10157   3.705   2.237   5.670 -1.0434 -0.4279  0.5742
  100SAPE  C31710158   3.552   2.144   5.541  0.4829  0.5040  0.0466
  100SAPE  H17X10159   3.504   2.243   5.525 -2.4290 -0.8756 -0.2305
  100SAPE  H17Y10160   3.489   2.103   5.623  0.8996  2.8071  1.6252
  100SAPE  C31810161   3.535   2.046   5.423 -0.3971  0.1798 -0.1033
  100SAPE  H18X10162   3.590   2.079   5.333  0.8602 -0.7059  0.3114
  100SAPE  H18Y10163   3.426   2.040   5.403 -0.0878 -3.4072 -1.5304
  100SAPE  H18Z10164   3.568   1.943   5.449  2.5021  1.2962  1.0166
  101SAPE     N10165   2.118   5.873   7.589  0.1719 -0.3447 -0.0723
  101SAPE   HN110166   2.057   5.889   7.671  0.6680  0.6861  0.1126
  101SAPE   HN210167   2.062   5.874   7.501 -0.1197  1.4036  0.0986
  101SAPE   HN310168   2.148   5.776   7.609 -3.1390 -1.3614  0.5512
  101SAPE   C1210169   2.237   5.953   7.581  0.5482  0.6303 -0.2595
  101SAPE  H12A10170   2.283   5.948   7.480  1.1938  2.1192 -0.0706
  101SAPE  H12B10171   2.314   5.926   7.655 -0.0205 -1.5489 -0.3936
  101SAPE   C1110172   2.201   6.093   7.620 -0.4399  0.1364 -0.5425
  101SAPE  H11A10173   2.300   6.143   7.615  0.0903 -0.8242  0.0057
  101SAPE  H11B10174   2.163   6.095   7.724  1.1597 -2.2841  0.1823
  101SAPE     P10175   2.157   6.282   7.449  0.0742  0.6784 -0.1734
  101SAPE   O1310176   2.042   6.333   7.379 -0.2557 -0.5181 -0.1636
  101SAPE   O1410177   2.218   6.373   7.549  0.3092  0.2568  0.3555
  101SAPE   O1210178   2.114   6.147   7.516  0.3565 -0.0246  0.0251
  101SAPE   O1110179   2.270   6.238   7.350 -0.4396  0.0286  0.1375
  101SAPE    C110180   2.265   6.124   7.256  0.1164  0.3161 -0.2005
  101SAPE    HA10181   2.344   6.049   7.277 -1.6017 -1.2322  0.9447
  101SAPE    HB10182   2.173   6.064   7.269  0.7793 -0.2836  2.3262
  101SAPE    C210183   2.289   6.161   7.105  0.6253 -0.3768  0.2310
  101SAPE    HS10184   2.387   6.213   7.093 -0.2143  1.3268  0.4832
  101SAPE   O2110185   2.180   6.249   7.059  0.5054 -0.3134  0.0540
  101SAPE   C2110186   2.190   6.383   7.094 -0.7036  0.4044 -0.4651
  101SAPE   O2210187   2.291   6.439   7.136  0.2350  0.3402 -0.2927
  101SAPE   C2210188   2.058   6.460   7.050 -0.0782 -0.7479 -0.2038
  101SAPE   H2R10189   2.055   6.548   7.118  1.6996 -0.9759  0.2097
  101SAPE   H2S10190   2.083   6.493   6.947  3.3366 -0.0044  0.7471
  101SAPE    C310191   2.304   6.035   7.022 -0.1020 -0.0585 -0.3090
  101SAPE    HX10192   2.213   5.977   7.046 -1.1941  1.4494 -0.6836
  101SAPE    HY10193   2.387   5.971   7.059 -1.7711 -1.1931  1.6227
  101SAPE   O3110194   2.310   6.066   6.876  0.0471  0.4870  0.0648
  101SAPE   C3110195   2.424   6.117   6.835  0.0593  0.2307 -0.3561
  101SAPE   O3210196   2.528   6.130   6.892 -0.0860  0.1142 -0.3585
  101SAPE   C3210197   2.417   6.130   6.681  0.2750 -0.5100  0.2843
  101SAPE   H2X10198   2.405   6.030   6.633  0.3750  0.8183 -2.7350
  101SAPE   H2Y10199   2.516   6.162   6.644 -0.8165 -0.2033 -2.6522
  101SAPE   C2310200   1.936   6.363   7.051  0.1360 -0.0591 -0.0463
  101SAPE   H3R10201   1.913   6.353   7.159 -1.3474  1.0472 -0.2166
  101SAPE   H3S10202   1.961   6.263   7.010 -1.6430 -0.6672  0.2662
  101SAPE   C2410203   1.811   6.405   6.978 -0.2364  0.4037  0.7910
  101SAPE   H4R10204   1.780   6.510   6.992  1.4588  1.1043 -0.3837
  101SAPE   H4S10205   1.726   6.352   7.026 -0.5483 -2.1567 -2.2382
  101SAPE   C2510206   1.820   6.368   6.832  0.6442  0.6724 -0.5593
  101SAPE   H5R10207   1.829   6.260   6.815 -0.5956  0.4147  0.2794
  101SAPE   C2610208   1.829   6.454   6.730  0.3950 -0.3545 -0.3934
  101SAPE   H6R10209   1.858   6.407   6.635 -0.8606 -2.3949  0.1609
  101SAPE   C2710210   1.852   6.606   6.733  0.0457  0.5294 -0.2492
  101SAPE   H7R10211   1.834   6.643   6.836  1.8227  0.5997  0.0789
  101SAPE   H7S10212   1.782   6.659   6.665 -1.6463  0.2076  1.1932
  101SAPE   C2810213   1.993   6.655   6.699  0.2045 -0.2353  0.1982
  101SAPE   H8R10214   2.074   6.631   6.770  0.5638  2.2101  0.7349
  101SAPE   C2910215   2.027   6.724   6.591 -0.7376  0.0238  0.0558
  101SAPE   H9R10216   2.132   6.759   6.591  0.0456 -2.1507  0.5262
  101SAPE  C21010217   1.942   6.759   6.469 -0.1779  0.3395  0.8645
  101SAPE  H10R10218   1.924   6.868   6.455 -2.2454 -0.2587 -2.1149
  101SAPE  H10S10219   1.839   6.716   6.467  0.5212 -1.4265  1.0654
  101SAPE  C21110220   2.007   6.707   6.340 -0.5969  0.5062 -0.0599
  101SAPE  H11R10221   2.014   6.597   6.342  1.0074  0.5930  0.2431
  101SAPE  C21210222   2.066   6.777   6.242  0.0862 -0.1290  0.1209
  101SAPE  H12R10223   2.111   6.722   6.158 -3.0213 -1.0512 -1.0720
  101SAPE  C21310224   2.066   6.931   6.238 -0.2420 -0.4812  0.5204
  101SAPE  H13R10225   2.164   6.958   6.192 -1.1020  0.4671 -0.8341
  101SAPE  H13S10226   2.078   6.975   6.339  0.1863 -0.8691  0.6429
  101SAPE  C21410227   1.945   6.995   6.183  0.3767 -0.7755  0.2602
  101SAPE  H14R10228   1.847   6.965   6.223 -0.3946 -1.4116 -2.0056
  101SAPE  C21510229   1.943   7.053   6.062  0.0545 -0.5220  0.2930
  101SAPE  H15R10230   1.852   7.102   6.026  0.5606  0.0946 -0.1620
  101SAPE  C21610231   2.068   7.079   5.985 -0.0214 -0.1209 -0.1550
  101SAPE  H16R10232   2.100   6.980   5.946 -0.5816  0.1467 -1.3359
  101SAPE  H16S10233   2.152   7.120   6.045 -1.7404  2.0690  0.8950
  101SAPE  C21710234   2.061   7.173   5.867 -0.9174 -0.3388  0.9114
  101SAPE  H17R10235   2.166   7.179   5.832 -0.8761 -0.5422  0.9945
  101SAPE  H17S10236   2.030   7.271   5.908  0.8047  2.0479 -2.9539
  101SAPE  C21810237   1.968   7.136   5.755 -0.2169 -0.3780 -0.1641
  101SAPE  H18R10238   1.864   7.138   5.793 -0.8559 -2.3384 -1.6135
  101SAPE  H18S10239   1.994   7.038   5.709  1.4349  0.3710 -0.9076
  101SAPE  C21910240   1.982   7.236   5.644 -0.2111  0.1816 -0.4812
  101SAPE  H19R10241   2.087   7.256   5.613  0.5979  0.7833  2.4083
  101SAPE  H19S10242   1.937   7.333   5.673 -0.6854 -0.0303 -0.5108
  101SAPE  C22010243   1.910   7.184   5.526 -0.7785  0.2038  0.2816
  101SAPE  H20R10244   1.921   7.247   5.435 -1.2237 -0.4743 -0.2532
  101SAPE  H20S10245   1.803   7.170   5.551 -0.6086 -1.7706  0.0895
  101SAPE  H20T10246   1.949   7.082   5.503 -0.6074  0.6559 -1.5831
  101SAPE   C3310247   2.304   6.232   6.634 -0.6434 -0.5273 -0.2362
  101SAPE   H3X10248   2.313   6.332   6.681  0.3291  0.3635 -2.1794
  101SAPE   H3Y10249   2.206   6.199   6.675 -0.3495  0.8892  1.7331
  101SAPE   C3410250   2.292   6.230   6.483  0.4075 -0.4280  0.7097
  101SAPE   H4X10251   2.298   6.130   6.435 -0.2888  0.3836 -1.1640
  101SAPE   H4Y10252   2.367   6.296   6.433  0.2315 -1.7186 -1.3872
  101SAPE   C3510253   2.159   6.294   6.443 -0.1142  0.1948  0.4442
  101SAPE   H5X10254   2.148   6.395   6.488 -1.0812  0.6889 -0.8672
  101SAPE   H5Y10255   2.080   6.230   6.487 -1.7879  0.5246 -1.9008
  101SAPE   C3610256   2.121   6.299   6.295  0.7272  0.3150  0.1031
  101SAPE   H6X10257   2.029   6.360   6.278  1.0324  1.6283  2.6694
  101SAPE   H6Y10258   2.097   6.197   6.258 -0.4742  1.0711 -1.3181
  101SAPE   C3710259   2.224   6.367   6.205  0.0148  0.1817  0.0518
  101SAPE   H7X10260   2.319   6.309   6.209 -1.0108 -1.5554  0.0517
  101SAPE   H7Y10261   2.236   6.472   6.240  3.8851  0.0854 -0.4764
  101SAPE   C3810262   2.171   6.358   6.057 -0.0120 -0.1458 -0.0067
  101SAPE   H8X10263   2.227   6.424   5.986 -2.0160 -0.0862 -1.6152
  101SAPE   H8Y10264   2.064   6.387   6.061 -0.0168 -0.0694 -0.6049
  101SAPE   C3910265   2.167   6.220   5.995  0.6637 -0.1753 -0.6530
  101SAPE   H9X10266   2.075   6.169   6.032 -0.1195  1.8378  0.3676
  101SAPE   H9Y10267   2.254   6.167   6.039  0.9464  1.8346  1.4020
  101SAPE  C31010268   2.147   6.227   5.850 -0.3734  0.2084 -0.0748
  101SAPE  H10X10269   2.235   6.275   5.802 -1.5973  2.1008 -0.5433
  101SAPE  H10Y10270   2.058   6.292   5.838 -0.6764  0.1603  1.6855
  101SAPE  C31110271   2.123   6.100   5.774  0.0970 -1.2663  0.7583
  101SAPE  H11X10272   2.016   6.070   5.784 -0.4660 -0.1524 -1.4009
  101SAPE  H11Y10273   2.194   6.027   5.818  1.0262  1.0788  3.4764
  101SAPE  C31210274   2.153   6.103   5.619  0.1599 -0.4073 -0.0402
  101SAPE  H12X10275   2.260   6.129   5.605  0.3011 -1.9336 -2.2511
  101SAPE  H12Y10276   2.094   6.184   5.569 -2.2972 -2.5912 -0.9120
  101SAPE  C31310277   2.129   5.961   5.554 -0.2540 -1.1501  0.3515
  101SAPE  H13X10278   2.031   5.931   5.597  0.0121 -0.3703  1.5710
  101SAPE  H13Y10279   2.205   5.896   5.601 -1.2507 -1.0296  2.2231
  101SAPE  C31410280   2.145   5.967   5.403  0.5323  0.0536 -0.2504
  101SAPE  H14X10281   2.249   5.992   5.376  1.1603 -0.4275  1.5757
  101SAPE  H14Y10282   2.072   6.040   5.362 -0.8932 -0.2152  1.6416
  101SAPE  C31510283   2.112   5.832   5.339 -0.8598 -0.5009 -0.7952
  101SAPE  H15X10284   2.009   5.799   5.362 -1.1893  0.4977 -0.8189
  101SAPE  H15Y10285   2.176   5.754   5.388 -1.4242 -1.8109 -2.0708
  101SAPE  C31610286   2.131   5.817   5.188 -0.0615  0.6800  0.2068
  101SAPE  H16X10287   2.237   5.838   5.159  0.0612  0.2483  0.3378
  101SAPE  H16Y10288   2.077   5.890   5.125 -0.8899 -0.3131 -0.2682
  101SAPE  C31710289   2.072   5.682   5.134 -0.2152 -0.5880 -0.1290
  101SAPE  H17X10290   1.961   5.681   5.130 -0.2376  0.1417  0.0908
  101SAPE  H17Y10291   2.094   5.595   5.199 -1.7766 -0.2233  0.9497
  101SAPE  C31810292   2.123   5.656   4.993  0.1726  0.1125 -0.3310
  101SAPE  H18X10293   2.233   5.645   4.985  0.0096 -0.4267 -2.6496
  101SAPE  H18Y10294   2.098   5.736   4.920 -0.5343  1.0198  0.8770
  101SAPE  H18Z10295   2.081   5.559   4.959  1.2520  0.4176 -2.7460
  102SAPE     N10296   1.633   3.744   7.890 -0.3003  0.4659 -0.4495
  102SAPE   HN110297   1.590   3.649   7.891  1.2195 -0.2557  1.5615
  102SAPE   HN210298   1.660   3.769   7.792  0.1009  1.4233 -0.1048
  102SAPE   HN310299   1.719   3.733   7.947 -0.8552  0.0244  0.3162
  102SAPE   C1210300   1.546   3.854   7.945 -0.8592 -0.0311 -0.4065
  102SAPE  H12A10301   1.528   3.838   8.053 -2.0300  2.5399 -0.1486
  102SAPE  H12B10302   1.444   3.836   7.904 -0.9769  0.1809 -0.2060
  102SAPE   C1110303   1.610   3.994   7.912  0.6859  0.0911 -0.2815
  102SAPE  H11A10304   1.712   4.002   7.954  0.9646 -0.1141 -0.9029
  102SAPE  H11B10305   1.541   4.060   7.968 -1.3806 -3.3749  1.5789
  102SAPE     P10306   1.545   4.141   7.704 -0.2290  0.1592 -0.2946
  102SAPE   O1310307   1.499   4.248   7.794  0.6926  0.1008 -0.0692
  102SAPE   O1410308   1.636   4.188   7.596 -0.3771 -0.1949  0.1193
  102SAPE   O1210309   1.616   4.023   7.773  0.1529  0.4974  0.5601
  102SAPE   O1110310   1.419   4.061   7.644  0.0470  0.6271 -0.2838
  102SAPE    C110311   1.422   4.001   7.518  0.0140  0.2611 -0.1930
  102SAPE    HA10312   1.512   3.937   7.507  0.3058  0.3996  1.2509
  102SAPE    HB10313   1.338   3.930   7.505 -1.6519  2.4421 -2.2666
  102SAPE    C210314   1.387   4.108   7.409  0.6091 -0.6814  1.2333
  102SAPE    HS10315   1.462   4.190   7.414 -0.6616  0.5857  0.4063
  102SAPE   O2110316   1.250   4.158   7.432  0.0087  0.1947  0.0801
  102SAPE   C2110317   1.221   4.284   7.417 -0.5362 -0.9839  0.0381
  102SAPE   O2210318   1.298   4.367   7.375  0.2741 -0.5171  0.1432
  102SAPE   C2210319   1.086   4.319   7.475 -0.1222 -0.2802 -0.0624
  102SAPE   H2R10320   1.034   4.230   7.516 -0.0919  0.6781  2.2173
  102SAPE   H2S10321   1.098   4.387   7.562  0.7977 -1.8882  1.1168
  102SAPE    C310322   1.401   4.054   7.262 -0.0338 -0.1665 -0.2493
  102SAPE    HX10323   1.352   3.956   7.243  2.3836 -2.2154  3.0122
  102SAPE    HY10324   1.507   4.019   7.253  1.0437  1.3510  4.1668
  102SAPE   O3110325   1.364   4.149   7.159  0.0892 -0.4893 -0.4371
  102SAPE   C3110326   1.460   4.248   7.148  0.8211  0.2419  0.3525
  102SAPE   O3210327   1.564   4.259   7.211  0.1639 -0.7077  0.2325
  102SAPE   C3210328   1.418   4.345   7.030 -0.2640 -0.2815  0.2146
  102SAPE   H2X10329   1.329   4.401   7.066 -1.3228  0.0616 -2.6522
  102SAPE   H2Y10330   1.394   4.269   6.952  0.6729 -1.5820  1.1400
  102SAPE   C2310331   0.994   4.385   7.368 -0.2187  0.4226 -0.4599
  102SAPE   H3R10332   1.049   4.477   7.338  1.8491  0.2936  2.4917
  102SAPE   H3S10333   0.901   4.418   7.419  0.3712 -0.0730  0.9670
  102SAPE   C2410334   0.959   4.293   7.253 -0.1648  0.2882 -0.9996
  102SAPE   H4R10335   0.899   4.204   7.280 -2.4092  1.7075 -1.0247
  102SAPE   H4S10336   1.052   4.255   7.205 -0.2564  0.8895 -1.6807
  102SAPE   C2510337   0.880   4.363   7.152  0.3926 -0.2350 -0.1480
  102SAPE   H5R10338   0.801   4.434   7.178  0.3844  1.1027 -3.3621
  102SAPE   C2610339   0.905   4.346   7.017 -0.0764 -0.3599  0.6863
  102SAPE   H6R10340   0.855   4.409   6.942  1.4077 -2.3268 -2.1342
  102SAPE   C2710341   1.000   4.256   6.949 -0.9627  0.0993  0.1331
  102SAPE   H7R10342   1.025   4.171   7.015  1.4047  1.0443  0.5662
  102SAPE   H7S10343   1.094   4.315   6.940 -1.9084  1.9756  1.8092
  102SAPE   C2810344   0.941   4.199   6.817  0.3549 -0.4730  0.4178
  102SAPE   H8R10345   0.839   4.158   6.823  0.3833 -0.9370 -1.5503
  102SAPE   C2910346   0.993   4.228   6.698  0.3085 -0.5247  0.5269
  102SAPE   H9R10347   0.941   4.205   6.604  4.0100  2.3852 -2.5822
  102SAPE  C21010348   1.123   4.295   6.673  0.0113  0.4887  0.1827
  102SAPE  H10R10349   1.200   4.276   6.751  0.3176  1.3979  0.1169
  102SAPE  H10S10350   1.109   4.405   6.667  0.9163  0.6032 -0.0860
  102SAPE  C21110351   1.168   4.257   6.530  0.3757 -0.0061 -0.1214
  102SAPE  H11R10352   1.205   4.154   6.536 -2.0053 -0.8362  1.7032
  102SAPE  C21210353   1.142   4.319   6.413  0.0556  0.7202  0.0824
  102SAPE  H12R10354   1.169   4.265   6.321  0.4063  1.2370 -0.1210
  102SAPE  C21310355   1.072   4.439   6.383  0.9172 -0.4972  0.2077
  102SAPE  H13R10356   1.152   4.511   6.355 -0.4496 -0.0909 -3.0852
  102SAPE  H13S10357   1.023   4.480   6.474  2.4048 -0.2151  0.9208
  102SAPE  C21410358   0.970   4.431   6.275 -0.2025  0.2515 -0.6067
  102SAPE  H14R10359   0.867   4.461   6.299  0.0594  1.2161 -0.6314
  102SAPE  C21510360   0.988   4.390   6.148  0.3990 -0.4346  0.2889
  102SAPE  H15R10361   0.905   4.379   6.077  0.6675 -1.4706  0.1125
  102SAPE  C21610362   1.124   4.366   6.082 -0.4025 -0.9313  1.0059
  102SAPE  H16R10363   1.136   4.259   6.056 -0.5099 -0.7965  0.3756
  102SAPE  H16S10364   1.195   4.400   6.160 -1.9935  2.3149  1.2263
  102SAPE  C21710365   1.134   4.456   5.954  0.1262 -0.6604 -0.2214
  102SAPE  H17R10366   1.244   4.458   5.935 -0.0570  2.0831 -1.3813
  102SAPE  H17S10367   1.090   4.555   5.978  0.2401 -0.8706  0.9299
  102SAPE  C21810368   1.072   4.377   5.831  0.1476 -0.0445 -0.1278
  102SAPE  H18R10369   0.963   4.355   5.838  0.1176 -0.3035 -1.2400
  102SAPE  H18S10370   1.117   4.275   5.837 -2.3639 -1.1631  1.6799
  102SAPE  C21910371   1.103   4.441   5.688  0.1934  0.2639  0.0245
  102SAPE  H19R10372   1.214   4.443   5.685  0.1650  0.8816 -0.8725
  102SAPE  H19S10373   1.077   4.546   5.665  0.1654  0.1664 -0.3908
  102SAPE  C22010374   1.053   4.367   5.564 -0.1191  0.2740 -0.3253
  102SAPE  H20R10375   1.084   4.417   5.470 -1.4095 -0.0370 -0.9392
  102SAPE  H20S10376   0.944   4.348   5.559 -0.1327  0.0887  0.4962
  102SAPE  H20T10377   1.109   4.271   5.564  2.6053  1.7443 -1.2294
  102SAPE   C3310378   1.531   4.442   6.987  0.1347 -0.5009 -0.3854
  102SAPE   H3X10379   1.604   4.404   6.912  1.6673 -1.0232  1.2834
  102SAPE   H3Y10380   1.599   4.462   7.072  1.8917 -2.3429 -1.2538
  102SAPE   C3410381   1.486   4.574   6.924 -0.3968 -0.2668 -0.4489
  102SAPE   H4X10382   1.573   4.642   6.916 -0.5827  0.0951  0.4483
  102SAPE   H4Y10383   1.427   4.626   7.003  1.4099  1.0122  0.1360
  102SAPE   C3510384   1.398   4.560   6.797 -0.6158  0.7103 -0.7820
  102SAPE   H5X10385   1.366   4.665   6.783  1.9093  1.6165 -0.2125
  102SAPE   H5Y10386   1.314   4.487   6.801  0.8891 -1.1263 -1.4028
  102SAPE   C3610387   1.476   4.502   6.671 -0.3481  0.3779 -0.0076
  102SAPE   H6X10388   1.476   4.391   6.683 -2.6346  0.2370 -0.7668
  102SAPE   H6Y10389   1.583   4.527   6.683  0.5128 -2.2293 -1.4681
  102SAPE   C3710390   1.407   4.557   6.538  0.9425 -0.3712  0.1974
  102SAPE   H7X10391   1.400   4.668   6.539  1.7856 -0.2895  1.8461
  102SAPE   H7Y10392   1.307   4.509   6.539 -0.7534  2.8688  1.3591
  102SAPE   C3810393   1.484   4.523   6.414  0.2770 -0.0769 -0.2277
  102SAPE   H8X10394   1.467   4.416   6.391 -1.0149 -0.4136  1.9504
  102SAPE   H8Y10395   1.593   4.541   6.422  0.2935 -0.7606  1.7541
  102SAPE   C3910396   1.436   4.598   6.285  0.1607  0.1158 -0.7927
  102SAPE   H9X10397   1.465   4.705   6.295 -0.7669  0.2797  0.3220
  102SAPE   H9Y10398   1.325   4.592   6.290  0.2256 -0.1139  1.0012
  102SAPE  C31010399   1.481   4.519   6.166  0.2427  0.0571  0.1089
  102SAPE  H10X10400   1.411   4.433   6.155  0.8818 -0.8243  2.3616
  102SAPE  H10Y10401   1.580   4.475   6.191 -0.4077 -0.6519  1.5595
  102SAPE  C31110402   1.470   4.597   6.036  0.7700  0.7868 -0.0572
  102SAPE  H11X10403   1.544   4.678   6.052  2.2617 -0.5869  0.3293
  102SAPE  H11Y10404   1.367   4.635   6.019 -0.0066 -1.7337 -1.5963
  102SAPE  C31210405   1.515   4.511   5.919  1.0516  0.2819 -0.0736
  102SAPE  H12X10406   1.450   4.421   5.911 -0.1541  1.1225  0.0434
  102SAPE  H12Y10407   1.619   4.483   5.950  0.4858 -1.6161  0.2497
  102SAPE  C31310408   1.515   4.598   5.793  0.3660 -0.4563 -0.5521
  102SAPE  H13X10409   1.586   4.682   5.809  2.2300 -1.7166 -1.8541
  102SAPE  H13Y10410   1.418   4.646   5.769  0.5670  0.4424  0.3575
  102SAPE  C31410411   1.565   4.515   5.672  0.7367 -0.1783 -0.1840
  102SAPE  H14X10412   1.486   4.441   5.647 -0.4212  0.9515  0.0237
  102SAPE  H14Y10413   1.660   4.465   5.700  1.3151  0.1208 -1.5646
  102SAPE  C31510414   1.584   4.598   5.550  0.1873 -0.3290 -0.2871
  102SAPE  H15X10415   1.670   4.668   5.563 -0.8958  0.8784  0.6581
  102SAPE  H15Y10416   1.487   4.652   5.552 -1.1047 -2.4931  2.0761
  102SAPE  C31610417   1.601   4.519   5.423 -0.1754  0.1572 -0.1586
  102SAPE  H16X10418   1.501   4.470   5.419  0.0446 -0.4222  0.8860
  102SAPE  H16Y10419   1.670   4.434   5.443 -1.0858 -0.2896  1.2768
  102SAPE  C31710420   1.638   4.607   5.296  0.6825 -0.7116 -0.3741
  102SAPE  H17X10421   1.725   4.670   5.323 -2.0624  3.4946 -0.4322
  102SAPE  H17Y10422   1.550   4.674   5.284  2.0677  1.5336  1.2169
  102SAPE  C31810423   1.672   4.536   5.162  0.4371 -0.3405 -0.1183
  102SAPE  H18X10424   1.585   4.484   5.117  1.7437 -3.1758  0.4080
  102SAPE  H18Y10425   1.757   4.464   5.164 -0.0747 -0.9489  0.2452
  102SAPE  H18Z10426   1.698   4.614   5.088  0.3738 -0.6451 -0.4656
  103SAPE     N10427   2.746   5.770   2.917  0.5969 -0.1584  0.2824
  103SAPE   HN110428   2.727   5.834   2.996  0.7970  1.0635 -0.6338
  103SAPE   HN210429   2.724   5.823   2.830  0.4288 -0.7324 -0.0343
  103SAPE   HN310430   2.668   5.702   2.933 -0.3709  0.3472 -1.8817
  103SAPE   C1210431   2.883   5.721   2.928  0.3848 -0.3607 -0.4710
  103SAPE  H12A10432   2.947   5.779   2.858  0.1421 -0.7795 -1.0448
  103SAPE  H12B10433   2.878   5.610   2.923 -1.1230 -0.3149 -0.3449
  103SAPE   C1110434   2.947   5.748   3.065 -0.6521 -0.5281  0.0019
  103SAPE  H11A10435   3.052   5.715   3.050  1.0395  3.8477  0.6767
  103SAPE  H11B10436   2.903   5.695   3.153 -1.7165  0.0116 -0.1842
  103SAPE     P10437   2.854   5.972   3.188  0.2068 -0.0466 -0.3361
  103SAPE   O1310438   2.868   6.114   3.152 -0.6380 -0.3781 -0.2864
  103SAPE   O1410439   2.726   5.912   3.163 -0.1420  0.4795  0.5022
  103SAPE   O1210440   2.948   5.888   3.093 -0.8585  0.8049  0.2152
  103SAPE   O1110441   2.902   5.946   3.332  0.5539  0.2465 -0.4177
  103SAPE    C110442   3.028   6.000   3.379  0.3583 -0.5305 -0.1409
  103SAPE    HA10443   3.106   6.005   3.299 -2.0752  3.6436 -2.5972
  103SAPE    HB10444   3.012   6.107   3.401 -0.2042 -0.9788  1.7691
  103SAPE    C210445   3.076   5.922   3.502 -0.4986 -0.0091  0.7943
  103SAPE    HS10446   3.059   5.815   3.475  1.4560  0.2078 -1.7240
  103SAPE   O2110447   3.006   5.961   3.627 -0.0770 -0.6060  0.0209
  103SAPE   C2110448   2.986   5.869   3.720  0.1524  0.2708  0.2121
  103SAPE   O2210449   3.014   5.751   3.708 -0.3084  0.3342  0.1660
  103SAPE   C2210450   2.907   5.928   3.843 -0.0392 -0.0612  0.3849
  103SAPE   H2R10451   2.869   6.027   3.810 -0.1147 -0.4641 -0.7550
  103SAPE   H2S10452   2.819   5.863   3.865 -0.0769  0.0404  0.5379
  103SAPE    C310453   3.225   5.950   3.522  0.2965  0.1531  0.0123
  103SAPE    HX10454   3.247   6.059   3.519  2.3707 -0.2565 -1.3453
  103SAPE    HY10455   3.275   5.905   3.434 -0.9686  0.1360 -0.7291
  103SAPE   O3110456   3.267   5.899   3.649 -0.5333 -0.5216  0.0737
  103SAPE   C3110457   3.331   5.782   3.635  0.3518  0.3165 -0.1072
  103SAPE   O3210458   3.336   5.717   3.530 -0.1189 -0.2207 -0.0717
  103SAPE   C3210459   3.383   5.742   3.779  0.0297 -0.5160 -0.1207
  103SAPE   H2X10460   3.485   5.781   3.800 -0.1182 -0.1926  0.0038
  103SAPE   H2Y10461   3.386   5.631   3.784  2.2732 -0.5574 -1.3876
  103SAPE   C2310462   2.987   5.930   3.976 -0.1564 -0.2129 -0.0176
  103SAPE   H3R10463   3.081   5.984   3.954 -0.1603 -0.9395 -1.9963
  103SAPE   H3S10464   3.029   5.830   4.000  1.3122  1.0997  3.6570
  103SAPE   C2410465   2.916   6.009   4.084  0.7442 -0.3359 -0.1373
  103SAPE   H4R10466   2.843   5.939   4.132  1.9297 -1.7870 -0.3534
  103SAPE   H4S10467   2.848   6.069   4.020  0.1320 -3.4593 -2.7074
  103SAPE   C2510468   2.993   6.088   4.183 -0.0354  0.1753 -0.2651
  103SAPE   H5R10469   2.997   6.197   4.168  1.0692  0.2355  0.3491
  103SAPE   C2610470   3.065   6.026   4.279 -0.3480  0.0130 -0.7553
  103SAPE   H6R10471   3.144   6.079   4.334 -0.4057  0.4245 -1.0654
  103SAPE   C2710472   3.048   5.883   4.318  0.1199 -0.6115 -0.1346
  103SAPE   H7R10473   3.139   5.853   4.375  0.1768 -1.6688 -0.7558
  103SAPE   H7S10474   3.048   5.822   4.225 -2.5097  0.9806 -1.3070
  103SAPE   C2810475   2.931   5.849   4.411 -0.5554  0.0383 -0.3767
  103SAPE   H8R10476   2.831   5.849   4.364  0.6239  2.8819 -3.2670
  103SAPE   C2910477   2.942   5.806   4.545 -0.0093 -0.6201  0.3320
  103SAPE   H9R10478   2.848   5.787   4.599  1.5118 -3.5963  2.2111
  103SAPE  C21010479   3.066   5.808   4.636  0.1392  0.5813  0.2355
  103SAPE  H10R10480   3.144   5.741   4.593 -2.8981 -2.7779 -0.5780
  103SAPE  H10S10481   3.037   5.764   4.734  0.3595  1.5480  0.7475
  103SAPE  C21110482   3.123   5.947   4.650 -0.3142 -0.1908 -0.1137
  103SAPE  H11R10483   3.182   5.983   4.564 -0.3473 -1.5012 -0.7021
  103SAPE  C21210484   3.112   6.034   4.745 -0.4019  0.5060 -1.2971
  103SAPE  H12R10485   3.166   6.130   4.742 -0.9736  0.8063 -2.9605
  103SAPE  C21310486   3.046   6.007   4.878  0.4137  0.1803  0.3358
  103SAPE  H13R10487   3.091   5.918   4.927  1.2060  0.6676  0.5153
  103SAPE  H13S10488   2.940   5.978   4.862 -0.2254  2.1608  0.6400
  103SAPE  C21410489   3.045   6.129   4.970  0.1353  0.5269 -0.0404
  103SAPE  H14R10490   2.980   6.213   4.943  0.9783  1.1116 -0.2751
  103SAPE  C21510491   3.100   6.127   5.099 -0.8358 -0.3235  0.0085
  103SAPE  H15R10492   3.095   6.220   5.156  2.5768 -0.1385  0.2426
  103SAPE  C21610493   3.186   6.022   5.174  0.3381 -0.4341 -0.3314
  103SAPE  H16R10494   3.202   5.926   5.120  0.9952 -0.3974 -0.2154
  103SAPE  H16S10495   3.149   5.999   5.276  0.3128  0.1312 -0.2112
  103SAPE  C21710496   3.335   6.073   5.179 -0.2656  0.0677  0.9081
  103SAPE  H17R10497   3.336   6.166   5.240 -0.8352  0.6915 -0.0099
  103SAPE  H17S10498   3.372   6.087   5.075 -0.9747 -1.2006  0.4629
  103SAPE  C21810499   3.428   5.974   5.246 -0.1797  0.1473  0.2012
  103SAPE  H18R10500   3.376   5.892   5.300  1.0417  0.1662  1.4588
  103SAPE  H18S10501   3.490   6.016   5.328 -1.5365 -2.2168  2.5822
  103SAPE  C21910502   3.530   5.920   5.144 -0.1109  0.3899  0.5567
  103SAPE  H19R10503   3.588   6.009   5.112 -1.2472  1.1012  0.4245
  103SAPE  H19S10504   3.480   5.874   5.057 -1.0056  2.6572 -0.1870
  103SAPE  C22010505   3.627   5.815   5.206  0.2150 -0.2948 -0.4038
  103SAPE  H20R10506   3.583   5.713   5.206 -0.7034  0.0846 -1.0800
  103SAPE  H20S10507   3.660   5.849   5.306 -2.4140 -1.1643  0.8419
  103SAPE  H20T10508   3.714   5.808   5.137 -0.6339  0.2626 -1.5632
  103SAPE   C3310509   3.296   5.798   3.895  0.6433  0.1183  0.3159
  103SAPE   H3X10510   3.193   5.762   3.872 -0.2919  1.7202  1.8206
  103SAPE   H3Y10511   3.293   5.908   3.888 -0.8403  0.0187 -1.4390
  103SAPE   C3410512   3.336   5.751   4.034  0.5393  0.9286 -0.0318
  103SAPE   H4X10513   3.264   5.796   4.107  0.1293 -0.7237  0.6278
  103SAPE   H4Y10514   3.435   5.795   4.059 -0.4628  3.7599 -0.6649
  103SAPE   C3510515   3.347   5.599   4.051 -0.7771  0.2897 -0.3611
  103SAPE   H5X10516   3.449   5.567   4.022  0.5939  2.4771  1.6062
  103SAPE   H5Y10517   3.273   5.549   3.985 -1.7824  0.6659  0.4305
  103SAPE   C3610518   3.305   5.545   4.193 -0.3241 -0.5983 -0.0649
  103SAPE   H6X10519   3.313   5.434   4.199  1.5551 -0.6241 -1.9163
  103SAPE   H6Y10520   3.195   5.560   4.198 -0.1547  0.3534  2.2006
  103SAPE   C3710521   3.383   5.601   4.310 -1.0040  0.4674 -0.8973
  103SAPE   H7X10522   3.367   5.711   4.317  0.2790  0.7147 -1.5372
  103SAPE   H7Y10523   3.491   5.585   4.295 -0.8570  2.2166 -2.0297
  103SAPE   C3810524   3.348   5.536   4.445  0.3139  0.0013  0.6150
  103SAPE   H8X10525   3.240   5.552   4.465 -0.5270 -1.9358 -1.8230
  103SAPE   H8Y10526   3.404   5.580   4.531 -0.2099 -1.4574  1.7422
  103SAPE   C3910527   3.367   5.389   4.449 -0.2612 -0.1946 -0.5053
  103SAPE   H9X10528   3.469   5.375   4.407  0.2040  1.1539  0.1207
  103SAPE   H9Y10529   3.296   5.337   4.380 -1.9732  0.5539  0.6290
  103SAPE  C31010530   3.360   5.338   4.599 -0.6076  0.5894 -0.1243
  103SAPE  H10X10531   3.273   5.380   4.653 -1.8054 -1.7276 -0.1287
  103SAPE  H10Y10532   3.445   5.387   4.652  0.2992 -0.5571 -0.4634
  103SAPE  C31110533   3.351   5.196   4.624 -0.3199 -0.2391 -0.2363
  103SAPE  H11X10534   3.419   5.149   4.550 -0.7150  0.3784 -0.9986
  103SAPE  H11Y10535   3.253   5.149   4.604  0.5877 -2.0380 -0.7083
  103SAPE  C31210536   3.404   5.157   4.761 -0.1566 -0.2090  0.5606
  103SAPE  H12X10537   3.352   5.211   4.843  0.1011  1.0301 -0.0645
  103SAPE  H12Y10538   3.514   5.173   4.764  0.0952 -1.7793  0.9464
  103SAPE  C31310539   3.382   5.010   4.792 -0.2221 -0.3317 -0.2721
  103SAPE  H13X10540   3.409   4.951   4.701  0.1628 -0.8139  0.1474
  103SAPE  H13Y10541   3.273   4.993   4.808  0.0440  0.2382  2.6947
  103SAPE  C31410542   3.479   4.952   4.897  0.2493  0.2962  0.3068
  103SAPE  H14X10543   3.581   4.982   4.865  0.5697  0.3417  1.3283
  103SAPE  H14Y10544   3.485   4.841   4.891  2.6973  0.2864  1.5086
  103SAPE  C31510545   3.434   5.006   5.035  0.2535 -0.5495 -0.0244
  103SAPE  H15X10546   3.336   4.958   5.054 -0.3907  0.3245 -1.0328
  103SAPE  H15Y10547   3.426   5.116   5.019 -0.0756 -0.6232 -0.3579
  103SAPE  C31610548   3.526   4.967   5.152  0.3028  0.7865  0.2766
  103SAPE  H16X10549   3.631   5.002   5.142  0.6473 -0.2673  0.1766
  103SAPE  H16Y10550   3.522   4.856   5.149  1.3470  0.7604 -1.0755
  103SAPE  C31710551   3.469   5.013   5.285 -0.1981  0.7487 -0.1436
  103SAPE  H17X10552   3.534   4.982   5.370 -1.5511  0.5678  0.8554
  103SAPE  H17Y10553   3.374   4.960   5.306  0.5149 -0.2290  0.7250
  103SAPE  C31810554   3.440   5.157   5.296  0.1801  0.0135  0.4398
  103SAPE  H18X10555   3.375   5.192   5.214  1.3336 -0.3343 -0.6533
  103SAPE  H18Y10556   3.531   5.221   5.300  0.3552 -0.2926  1.6664
  103SAPE  H18Z10557   3.376   5.183   5.383 -0.7606  0.5375 -0.3895
  104SAPE     N10558   2.187   4.218   3.318 -0.0776 -0.5029  0.3941
  104SAPE   HN110559   2.187   4.122   3.356 -1.0686 -0.0204  1.6829
  104SAPE   HN210560   2.090   4.241   3.288  0.0253 -3.5065 -3.0150
  104SAPE   HN310561   2.248   4.219   3.233  1.8265 -0.1445  1.7007
  104SAPE   C1210562   2.233   4.308   3.430  0.2577  0.1064  1.0244
  104SAPE  H12A10563   2.231   4.412   3.394 -1.3723 -0.3318 -0.2444
  104SAPE  H12B10564   2.337   4.273   3.448 -0.0816 -1.4051  0.2539
  104SAPE   C1110565   2.137   4.287   3.554  0.2728 -0.0367 -0.0617
  104SAPE  H11A10566   2.173   4.347   3.640 -1.0148  0.2655  0.2917
  104SAPE  H11B10567   2.145   4.181   3.582 -1.5574 -0.2515 -0.2158
  104SAPE     P10568   1.966   4.480   3.525  0.4203  0.1872 -0.3676
  104SAPE   O1310569   2.067   4.557   3.449  0.3642  0.6945 -0.3143
  104SAPE   O1410570   1.819   4.504   3.493 -0.2112 -0.4945 -0.5228
  104SAPE   O1210571   2.003   4.321   3.517  0.2907  0.3367 -0.3707
  104SAPE   O1110572   1.990   4.503   3.680 -0.0408 -0.0749  0.1822
  104SAPE    C110573   1.888   4.471   3.778 -0.0712 -0.0819  0.2975
  104SAPE    HA10574   1.801   4.421   3.730  0.9202 -0.8457 -0.7814
  104SAPE    HB10575   1.948   4.416   3.853  3.3111  0.4293 -1.8095
  104SAPE    C210576   1.852   4.610   3.856  0.3599 -0.0998  0.4257
  104SAPE    HS10577   1.794   4.676   3.788 -0.4165  0.5295  1.6581
  104SAPE   O2110578   1.971   4.676   3.889 -0.6524  0.4844  0.0563
  104SAPE   C2110579   1.977   4.812   3.870  0.2756 -0.2261 -0.3069
  104SAPE   O2210580   1.877   4.880   3.864 -0.7515 -0.5208  0.0539
  104SAPE   C2210581   2.123   4.851   3.866 -0.3570  0.3982  0.0753
  104SAPE   H2R10582   2.167   4.841   3.968 -1.2363 -0.8551  0.3667
  104SAPE   H2S10583   2.179   4.792   3.791 -0.2092 -1.8453  1.8199
  104SAPE    C310584   1.772   4.587   3.986  0.2190 -0.2361  0.6742
  104SAPE    HX10585   1.837   4.540   4.063  1.6817 -0.0571 -0.4000
  104SAPE    HY10586   1.688   4.523   3.950  1.7297 -0.3924 -3.1479
  104SAPE   O3110587   1.721   4.703   4.049  0.5170 -0.2929  0.1879
  104SAPE   C3110588   1.626   4.770   3.995 -0.6895 -0.6282 -0.6892
  104SAPE   O3210589   1.570   4.738   3.890 -0.1879  0.6671 -0.8758
  104SAPE   C3210590   1.580   4.886   4.087  0.0045 -0.8341 -0.3486
  104SAPE   H2X10591   1.476   4.908   4.055  0.3116 -0.1257 -0.8842
  104SAPE   H2Y10592   1.629   4.977   4.049 -0.2520 -0.8078 -0.6208
  104SAPE   C2310593   2.147   5.003   3.827 -0.3596 -0.3726  0.0679
  104SAPE   H3R10594   2.102   5.076   3.897  0.0899  0.9910 -1.0137
  104SAPE   H3S10595   2.089   5.016   3.734 -0.6882  0.7453  0.4210
  104SAPE   C2410596   2.296   5.040   3.812  0.0354 -0.3128 -0.6068
  104SAPE   H4R10597   2.349   4.961   3.756 -0.9999 -0.7743 -0.9667
  104SAPE   H4S10598   2.318   5.051   3.921 -1.8506  0.4134 -0.2521
  104SAPE   C2510599   2.321   5.167   3.738  0.5347  0.5336 -0.8713
  104SAPE   H5R10600   2.270   5.165   3.641 -0.3950 -2.6951 -0.4283
  104SAPE   C2610601   2.408   5.264   3.783 -0.9635  0.3177 -0.2168
  104SAPE   H6R10602   2.426   5.355   3.725  2.8797 -0.5384 -0.7018
  104SAPE   C2710603   2.492   5.242   3.908 -0.6125  0.3759 -0.2349
  104SAPE   H7R10604   2.592   5.283   3.883 -1.0691  1.3333 -0.5295
  104SAPE   H7S10605   2.513   5.135   3.929  0.7936  1.0918  2.4709
  104SAPE   C2810606   2.432   5.302   4.031 -0.3780  0.8909  0.3019
  104SAPE   H8R10607   2.383   5.399   4.018 -0.7451  0.8232  1.1104
  104SAPE   C2910608   2.445   5.248   4.152  0.5826 -0.5623 -0.3421
  104SAPE   H9R10609   2.402   5.293   4.243  0.8865 -2.5697  0.8724
  104SAPE  C21010610   2.509   5.116   4.198  0.1366  0.1349  0.8962
  104SAPE  H10R10611   2.597   5.157   4.252  1.5984  0.6368 -1.7015
  104SAPE  H10S10612   2.551   5.061   4.111 -1.0106 -0.8914  0.9672
  104SAPE  C21110613   2.417   5.021   4.276 -0.5612  0.4677  0.4150
  104SAPE  H11R10614   2.346   4.964   4.215 -0.4382  0.2320  0.4934
  104SAPE  C21210615   2.405   5.015   4.414 -0.0817 -0.6244  0.2342
  104SAPE  H12R10616   2.338   4.941   4.461  0.1677 -1.0660 -0.1025
  104SAPE  C21310617   2.476   5.108   4.515 -0.7228 -0.4101  0.1734
  104SAPE  H13R10618   2.412   5.142   4.599 -2.0270  1.1400 -1.3587
  104SAPE  H13S10619   2.515   5.199   4.464  0.1678 -1.9703 -2.1207
  104SAPE  C21410620   2.591   5.023   4.553  0.0161 -1.1754  0.2258
  104SAPE  H14R10621   2.667   5.034   4.474 -0.0734 -0.6971  0.1992
  104SAPE  C21510622   2.614   4.965   4.671 -0.6132 -0.3852 -0.2295
  104SAPE  H15R10623   2.710   4.914   4.686 -0.0490  0.1977 -1.6501
  104SAPE  C21610624   2.519   4.966   4.786 -0.0340  0.3611  0.5631
  104SAPE  H16R10625   2.546   4.879   4.849  2.2341 -0.6963 -1.7050
  104SAPE  H16S10626   2.414   4.943   4.756  1.0422 -2.5294 -1.4716
  104SAPE  C21710627   2.541   5.090   4.876 -0.4342 -0.2803 -0.9372
  104SAPE  H17R10628   2.472   5.069   4.959 -1.9842  1.1180 -1.8147
  104SAPE  H17S10629   2.512   5.179   4.816 -0.6140 -0.4128 -1.0471
  104SAPE  C21810630   2.685   5.109   4.939  0.0884 -0.1822  0.1549
  104SAPE  H18R10631   2.688   5.200   5.003  0.5780  0.3882 -0.6596
  104SAPE  H18S10632   2.759   5.130   4.860 -0.5594 -0.5020 -0.5486
  104SAPE  C21910633   2.733   4.979   5.012  0.2187  0.0816  0.2053
  104SAPE  H19R10634   2.775   4.913   4.933  1.8975 -0.1573  1.2483
  104SAPE  H19S10635   2.649   4.938   5.072  0.2501  0.4239  0.4879
  104SAPE  C22010636   2.847   5.011   5.109  0.8182  0.4130 -0.2980
  104SAPE  H20R10637   2.933   5.073   5.073  2.0495  0.5440  2.5979
  104SAPE  H20S10638   2.875   4.918   5.162  1.5732  1.3986  1.0860
  104SAPE  H20T10639   2.792   5.072   5.183 -0.1326  1.3540 -1.7280
  104SAPE   C3310640   1.588   4.861   4.239 -0.0009 -0.6190 -0.8629
  104SAPE   H3X10641   1.694   4.842   4.266 -0.1644 -0.9526 -0.4458
  104SAPE   H3Y10642   1.529   4.775   4.277 -0.3516  1.5081  4.1465
  104SAPE   C3410643   1.544   4.983   4.324  0.3413  0.1172  0.1918
  104SAPE   H4X10644   1.433   4.986   4.318  0.4020  0.3179 -1.1627
  104SAPE   H4Y10645   1.586   5.079   4.287  1.2175  0.5426  2.1561
  104SAPE   C3510646   1.576   4.961   4.470 -0.3437  0.4091 -0.2714
  104SAPE   H5X10647   1.681   4.931   4.488 -0.6008  0.6125  1.8345
  104SAPE   H5Y10648   1.511   4.876   4.503  2.1193 -1.4345  0.1245
  104SAPE   C3610649   1.544   5.084   4.561 -0.3845  0.4696 -0.4015
  104SAPE   H6X10650   1.447   5.125   4.526 -0.4298 -1.8126 -3.2990
  104SAPE   H6Y10651   1.610   5.173   4.553  1.8722 -1.1685 -0.9269
  104SAPE   C3710652   1.518   5.039   4.700 -0.1783 -0.1447 -1.0977
  104SAPE   H7X10653   1.432   4.969   4.706 -1.4743  1.4992  0.5637
  104SAPE   H7Y10654   1.485   5.133   4.750 -1.7345 -1.1416 -0.1497
  104SAPE   C3810655   1.642   4.992   4.771 -0.4010 -0.6449  0.0320
  104SAPE   H8X10656   1.727   5.060   4.748 -1.7739  0.3657 -2.4746
  104SAPE   H8Y10657   1.663   4.890   4.733  1.7729 -1.4169  2.9793
  104SAPE   C3910658   1.608   4.995   4.919  0.7114 -0.1277  0.6542
  104SAPE   H9X10659   1.515   4.936   4.937  0.8840  0.3851  3.9099
  104SAPE   H9Y10660   1.579   5.100   4.939  0.6108 -0.2237  1.0373
  104SAPE  C31010661   1.718   4.953   5.017 -0.0822  0.6888  0.1275
  104SAPE  H10X10662   1.770   5.045   5.051  0.2932  1.3141 -2.0104
  104SAPE  H10Y10663   1.794   4.884   4.973 -0.1950  0.7094 -0.1030
  104SAPE  C31110664   1.650   4.897   5.138  0.5093 -0.6378  0.7303
  104SAPE  H11X10665   1.726   4.868   5.213  0.4064 -0.1330  1.0370
  104SAPE  H11Y10666   1.595   4.806   5.105 -0.9382  0.8390 -1.1623
  104SAPE  C31210667   1.556   4.994   5.218  0.0767 -0.1382 -0.0211
  104SAPE  H12X10668   1.455   4.963   5.184  0.3558  0.6776 -1.6802
  104SAPE  H12Y10669   1.559   5.098   5.178 -1.2396  0.0355  0.2875
  104SAPE  C31310670   1.562   4.988   5.371 -0.3706 -0.0441 -0.3576
  104SAPE  H13X10671   1.560   4.886   5.417 -0.9903  0.1969  0.1605
  104SAPE  H13Y10672   1.480   5.047   5.416  0.4799  0.8772  0.0344
  104SAPE  C31410673   1.698   5.039   5.415  0.0926 -0.0118 -0.5441
  104SAPE  H14X10674   1.723   5.135   5.365 -1.5079  1.2788  0.9854
  104SAPE  H14Y10675   1.783   4.972   5.389  0.4033  0.4677 -0.7940
  104SAPE  C31510676   1.719   5.053   5.567  0.3633 -0.5928 -0.0574
  104SAPE  H15X10677   1.690   4.961   5.624 -0.9423  0.7442  1.5493
  104SAPE  H15Y10678   1.643   5.128   5.598 -0.0085 -0.6430 -0.8346
  104SAPE  C31610679   1.863   5.093   5.600 -0.2532 -0.7659 -0.0808
  104SAPE  H16X10680   1.882   5.186   5.543 -0.8046 -0.7497 -0.2468
  104SAPE  H16Y10681   1.931   5.009   5.573 -3.8440 -3.6532 -0.9755
  104SAPE  C31710682   1.890   5.115   5.746 -0.7190 -0.0636  0.3717
  104SAPE  H17X10683   1.998   5.104   5.770 -1.3340 -2.2311  2.4756
  104SAPE  H17Y10684   1.836   5.041   5.808  0.8043 -0.4143  1.3377
  104SAPE  C31810685   1.847   5.253   5.793  0.3922 -0.3223  0.3347
  104SAPE  H18X10686   1.740   5.277   5.774  1.1143  1.8307 -1.4928
  104SAPE  H18Y10687   1.888   5.330   5.724  0.2491  0.7211  1.3940
  104SAPE  H18Z10688   1.887   5.271   5.895 -0.1071  1.1087  0.3078
  105SAPE     N10689   0.405   3.646   3.105 -0.2641 -0.1960 -0.6325
  105SAPE   HN110690   0.306   3.664   3.077 -0.3824 -1.3482 -1.0166
  105SAPE   HN210691   0.461   3.703   3.037  0.3020  0.4816  0.3794
  105SAPE   HN310692   0.425   3.545   3.098 -2.7856 -0.8618  0.5652
  105SAPE   C1210693   0.430   3.672   3.247  1.4282  0.2691 -0.3845
  105SAPE  H12A10694   0.331   3.677   3.298  1.2668 -1.3471 -0.4648
  105SAPE  H12B10695   0.484   3.768   3.262  1.9029 -0.1130  0.4257
  105SAPE   C1110696   0.529   3.567   3.318  0.6485  0.2510 -0.2673
  105SAPE  H11A10697   0.526   3.582   3.429  0.0444 -0.5399 -0.1675
  105SAPE  H11B10698   0.629   3.596   3.280 -0.1152  1.8593 -1.1975
  105SAPE     P10699   0.395   3.339   3.359  0.4280 -0.1642 -0.5428
  105SAPE   O1310700   0.258   3.399   3.360  0.2861  0.3242 -0.0788
  105SAPE   O1410701   0.418   3.202   3.310 -0.1181 -0.2011  0.3478
  105SAPE   O1210702   0.495   3.437   3.277  0.2939 -0.2311 -0.3341
  105SAPE   O1110703   0.448   3.339   3.515  0.4579  0.3004  0.1990
  105SAPE    C110704   0.380   3.433   3.607  0.5666  0.1302 -0.1091
  105SAPE    HA10705   0.357   3.528   3.555 -0.4644 -0.7305 -1.2952
  105SAPE    HB10706   0.281   3.396   3.644  0.6376 -1.0564 -1.0365
  105SAPE    C210707   0.469   3.445   3.730 -0.0029 -0.1701 -0.6100
  105SAPE    HS10708   0.571   3.465   3.690  0.6784 -1.0777  0.6274
  105SAPE   O2110709   0.462   3.316   3.791 -0.3884 -0.1734 -0.6182
  105SAPE   C2110710   0.551   3.225   3.761 -0.1560 -0.1682 -0.6953
  105SAPE   O2210711   0.652   3.253   3.700 -0.0034 -0.2114 -0.2624
  105SAPE   C2210712   0.485   3.083   3.796 -0.1443 -0.7730 -0.1632
  105SAPE   H2R10713   0.389   3.077   3.740 -1.5165 -1.7781  2.1546
  105SAPE   H2S10714   0.559   3.014   3.749 -0.4528 -0.0107 -1.8677
  105SAPE    C310715   0.427   3.561   3.831 -0.1344 -0.4047 -0.1837
  105SAPE    HX10716   0.319   3.557   3.859  0.3272  1.5832  2.2581
  105SAPE    HY10717   0.447   3.655   3.776 -0.2976  0.4014  1.0903
  105SAPE   O3110718   0.506   3.561   3.953  0.2378 -0.3429  0.1290
  105SAPE   C3110719   0.459   3.513   4.063 -0.8496 -0.2117  0.0667
  105SAPE   O3210720   0.343   3.480   4.080  0.4293  0.3428 -0.5217
  105SAPE   C3210721   0.574   3.498   4.168  0.1772 -0.7074 -0.2963
  105SAPE   H2X10722   0.626   3.590   4.199 -0.8241 -0.3891  0.5058
  105SAPE   H2Y10723   0.639   3.417   4.129  0.0760 -1.0966  0.3267
  105SAPE   C2310724   0.456   3.054   3.939 -0.0836 -0.5704 -0.1071
  105SAPE   H3R10725   0.379   2.973   3.937  0.4762 -1.1097 -2.2377
  105SAPE   H3S10726   0.406   3.144   3.981 -1.6936 -0.1387 -2.7171
  105SAPE   C2410727   0.565   3.004   4.018 -0.1474  0.1507 -0.1405
  105SAPE   H4R10728   0.592   2.908   3.969 -2.5137 -1.3147  1.2311
  105SAPE   H4S10729   0.518   2.965   4.110 -0.1946  1.7410  0.5253
  105SAPE   C2510730   0.675   3.109   4.048 -0.3116 -0.0728  0.2986
  105SAPE   H5R10731   0.699   3.177   3.965 -0.9408  0.5623  0.6257
  105SAPE   C2610732   0.731   3.138   4.161  0.1395 -0.8480 -0.8346
  105SAPE   H6R10733   0.812   3.212   4.168 -0.1461 -0.4170 -1.8431
  105SAPE   C2710734   0.712   3.064   4.295 -0.7357  0.4797 -1.2686
  105SAPE   H7R10735   0.696   2.954   4.288 -2.5065  0.5474  0.4875
  105SAPE   H7S10736   0.622   3.108   4.344 -0.1192  0.2437  0.1083
  105SAPE   C2810737   0.829   3.085   4.392  1.0351 -0.3483 -1.2795
  105SAPE   H8R10738   0.923   3.083   4.336  1.1343  0.2774 -1.1476
  105SAPE   C2910739   0.827   3.095   4.528 -0.4594 -0.8146  0.1067
  105SAPE   H9R10740   0.922   3.122   4.576 -0.2835 -0.0394 -0.6612
  105SAPE  C21010741   0.704   3.087   4.619 -0.3892 -0.2810  0.1904
  105SAPE  H10R10742   0.622   3.052   4.552 -1.6264  1.3679  0.7871
  105SAPE  H10S10743   0.681   3.188   4.657 -0.2117  0.4903 -1.6379
  105SAPE  C21110744   0.720   2.976   4.717 -0.5541  0.5059  0.3661
  105SAPE  H11R10745   0.731   2.879   4.665 -0.4999  1.9317 -2.4727
  105SAPE  C21210746   0.722   2.984   4.853  0.4164 -0.0193 -0.2977
  105SAPE  H12R10747   0.704   2.900   4.922 -3.9936  2.5878  2.2457
  105SAPE  C21310748   0.698   3.115   4.932  0.3935  0.0172 -0.5345
  105SAPE  H13R10749   0.736   3.199   4.869 -1.3220  1.0274 -0.2989
  105SAPE  H13S10750   0.771   3.112   5.016 -0.5780 -1.7731  0.2866
  105SAPE  C21410751   0.556   3.138   4.983  0.4563  0.2648 -0.1740
  105SAPE  H14R10752   0.500   3.210   4.921 -1.9201  0.1083  1.6399
  105SAPE  C21510753   0.503   3.116   5.107  0.0185  0.0289  1.0617
  105SAPE  H15R10754   0.399   3.146   5.123  0.3976  0.9297  1.9157
  105SAPE  C21610755   0.559   3.043   5.219 -0.6595  0.5576  0.0455
  105SAPE  H16R10756   0.607   3.115   5.288 -0.8156 -0.1033  0.8520
  105SAPE  H16S10757   0.644   2.981   5.183 -1.4450 -0.9835  0.7506
  105SAPE  C21710758   0.461   2.959   5.302 -0.0294  0.2520  0.4365
  105SAPE  H17R10759   0.418   2.880   5.238 -0.5158  1.5878 -0.9400
  105SAPE  H17S10760   0.368   3.009   5.336 -0.6023 -1.0324  0.8004
  105SAPE  C21810761   0.519   2.899   5.431 -0.0508 -0.8519  0.0219
  105SAPE  H18R10762   0.570   2.978   5.491 -0.2070  0.3852 -1.4283
  105SAPE  H18S10763   0.603   2.833   5.399 -1.6274 -3.0873  0.2151
  105SAPE  C21910764   0.427   2.821   5.515  0.0704 -0.0885 -0.4917
  105SAPE  H19R10765   0.374   2.756   5.442  2.3849 -1.2718 -1.1752
  105SAPE  H19S10766   0.358   2.893   5.565 -0.6940 -2.6278  2.3894
  105SAPE  C22010767   0.482   2.753   5.640  0.9974 -0.6572  0.3737
  105SAPE  H20R10768   0.578   2.707   5.611  2.4185  2.4580 -0.2503
  105SAPE  H20S10769   0.402   2.688   5.682  0.0902  0.2952  0.1760
  105SAPE  H20T10770   0.506   2.831   5.715 -0.5263 -0.4889  0.7203
  105SAPE   C3310771   0.532   3.447   4.307  0.8389  0.0790 -1.1446
  105SAPE   H3X10772   0.622   3.412   4.361  0.7904 -0.3899 -1.3611
  105SAPE   H3Y10773   0.468   3.359   4.281  0.4267  0.5231 -1.6710
  105SAPE   C3410774   0.442   3.529   4.397  0.0735  0.4443  0.3731
  105SAPE   H4X10775   0.344   3.534   4.344  2.0204 -0.1023 -3.6996
  105SAPE   H4Y10776   0.472   3.635   4.381 -1.1847  0.4571 -2.5168
  105SAPE   C3510777   0.425   3.481   4.542 -0.1242  0.2492 -0.1271
  105SAPE   H5X10778   0.385   3.377   4.539 -2.1963  0.9981 -0.6236
  105SAPE   H5Y10779   0.355   3.547   4.598  1.7535  0.5601  1.9933
  105SAPE   C3610780   0.559   3.490   4.620 -0.5377 -0.3070  0.8223
  105SAPE   H6X10781   0.596   3.594   4.621 -2.2743  0.4503 -1.8281
  105SAPE   H6Y10782   0.646   3.434   4.578 -0.8081  0.3900 -0.7229
  105SAPE   C3710783   0.542   3.439   4.761  0.1258  0.1485  0.3630
  105SAPE   H7X10784   0.641   3.440   4.812 -0.1802  0.9275  0.9623
  105SAPE   H7Y10785   0.509   3.334   4.745 -2.6191  0.8310  0.9578
  105SAPE   C3810786   0.458   3.539   4.842  0.8060 -0.2919  0.2454
  105SAPE   H8X10787   0.353   3.543   4.809  1.0096 -1.2254 -0.5420
  105SAPE   H8Y10788   0.493   3.644   4.832 -0.7589  0.2304  0.1265
  105SAPE   C3910789   0.468   3.516   4.996  0.3551  0.5322  0.5956
  105SAPE   H9X10790   0.569   3.473   5.010 -0.9619 -2.6360  1.1077
  105SAPE   H9Y10791   0.405   3.428   5.018 -0.6925  0.9551 -0.6186
  105SAPE  C31010792   0.418   3.633   5.086  0.1591 -0.0987 -0.1191
  105SAPE  H10X10793   0.310   3.639   5.060  0.4098 -1.2799 -1.5886
  105SAPE  H10Y10794   0.477   3.724   5.064 -1.0468  0.8243  0.3806
  105SAPE  C31110795   0.422   3.599   5.238  1.0597 -0.6134 -0.0708
  105SAPE  H11X10796   0.518   3.555   5.271 -0.6756 -4.0367  0.8408
  105SAPE  H11Y10797   0.346   3.521   5.260  1.3034 -1.4882 -2.1442
  105SAPE  C31210798   0.388   3.730   5.318  0.1101 -0.5779 -0.3658
  105SAPE  H12X10799   0.297   3.769   5.268  1.2914  1.3118 -1.1495
  105SAPE  H12Y10800   0.454   3.816   5.296  0.0063 -0.0844  1.0940
  105SAPE  C31310801   0.369   3.697   5.470  0.2673 -0.0846  0.0693
  105SAPE  H13X10802   0.451   3.629   5.503 -1.8876 -3.2137 -0.6012
  105SAPE  H13Y10803   0.271   3.646   5.476 -0.3139  1.1375  3.3915
  105SAPE  C31410804   0.329   3.812   5.558  0.1516 -0.3380 -0.4312
  105SAPE  H14X10805   0.228   3.855   5.541 -1.2727 -2.3212  2.2248
  105SAPE  H14Y10806   0.408   3.890   5.561  0.0803 -0.2937  1.8157
  105SAPE  C31510807   0.312   3.758   5.698 -0.8920 -0.7534 -0.1483
  105SAPE  H15X10808   0.243   3.672   5.697 -2.5694  0.5192 -2.0753
  105SAPE  H15Y10809   0.275   3.832   5.772  0.8412  0.6543 -0.6240
  105SAPE  C31610810   0.451   3.730   5.761  0.0763 -0.2726  0.2308
  105SAPE  H16X10811   0.517   3.807   5.716 -1.4707  0.1707 -1.3961
  105SAPE  H16Y10812   0.479   3.624   5.742  0.5331  0.1135 -1.4278
  105SAPE  C31710813   0.452   3.743   5.913 -0.7009 -0.1451  0.4581
  105SAPE  H17X10814   0.365   3.682   5.945 -0.4512 -0.7979 -0.0718
  105SAPE  H17Y10815   0.420   3.845   5.943 -0.6508 -0.0082  0.0569
  105SAPE  C31810816   0.585   3.711   5.987  0.5364  0.8419 -0.9029
  105SAPE  H18X10817   0.563   3.733   6.093  0.1589 -0.6777 -0.6485
  105SAPE  H18Y10818   0.670   3.761   5.937  1.2159 -0.2912 -0.9108
  105SAPE  H18Z10819   0.610   3.603   5.987  0.0102  0.6699  1.6256
  106SAPE     N10820   6.421   5.613   3.216 -0.7213  0.1320 -0.4885
  106SAPE   HN110821   6.405   5.526   3.270 -0.6095  0.4603  0.0756
  106SAPE   HN210822   6.347   5.686   3.223 -0.2614  0.8821 -2.6497
  106SAPE   HN310823   6.441   5.590   3.116 -1.8106 -2.4822 -0.1728
  106SAPE   C1210824   6.533   5.691   3.276  0.1773  0.0404  0.5518
  106SAPE  H12A10825   6.561   5.767   3.200 -1.9831 -0.5151 -0.9102
  106SAPE  H12B10826   6.614   5.618   3.296  1.7239  1.1916 -1.2047
  106SAPE   C1110827   6.498   5.767   3.403  0.1643  0.4285 -0.9031
  106SAPE  H11A10828   6.591   5.814   3.441 -0.4600  2.0432 -1.2614
  106SAPE  H11B10829   6.475   5.687   3.477  1.5138  0.6134 -0.2638
  106SAPE     P10830   6.379   5.982   3.487 -0.0386 -0.0629  0.1251
  106SAPE   O1310831   6.496   6.069   3.464  0.2368  0.4238 -0.0560
  106SAPE   O1410832   6.249   6.039   3.462  0.6316  0.4380  0.1552
  106SAPE   O1210833   6.382   5.854   3.398 -0.6989  0.3188  0.2244
  106SAPE   O1110834   6.383   5.916   3.631  0.3409 -0.3084 -0.7793
  106SAPE    C110835   6.258   5.890   3.699  0.7577  0.3986 -0.5723
  106SAPE    HA10836   6.177   5.855   3.632  1.6384  2.4875 -2.8892
  106SAPE    HB10837   6.268   5.812   3.777 -2.7774  0.8710  0.5114
  106SAPE    C210838   6.212   6.019   3.773 -0.5691 -0.3035 -0.3292
  106SAPE    HS10839   6.170   6.091   3.699  0.0907  0.7766  0.3255
  106SAPE   O2110840   6.330   6.087   3.829  0.0989  0.2884  0.3583
  106SAPE   C2110841   6.316   6.213   3.848 -0.2480 -0.2104 -0.3897
  106SAPE   O2210842   6.219   6.280   3.825  0.1334 -0.3602 -0.0425
  106SAPE   C2210843   6.438   6.264   3.916  0.0841 -0.8685 -0.7925
  106SAPE   H2R10844   6.508   6.178   3.922  0.5830 -0.7167 -3.2477
  106SAPE   H2S10845   6.480   6.344   3.852 -1.6205 -0.4710 -1.4640
  106SAPE    C310846   6.113   5.973   3.886  0.5176 -0.1688 -0.2800
  106SAPE    HX10847   6.161   5.913   3.966  0.6850 -0.7584 -0.8119
  106SAPE    HY10848   6.032   5.918   3.834  0.0656  0.6365 -0.4462
  106SAPE   O3110849   6.049   6.086   3.950  0.4102  0.0184  0.4310
  106SAPE   C3110850   5.974   6.160   3.873  0.3641 -0.3403  0.2406
  106SAPE   O3210851   5.938   6.137   3.755 -0.0974 -0.6628 -0.2849
  106SAPE   C3210852   5.935   6.291   3.953 -0.1814 -0.3219 -0.1344
  106SAPE   H2X10853   6.014   6.365   3.926  0.7528 -1.8705 -1.9867
  106SAPE   H2Y10854   5.942   6.271   4.062  0.7646 -1.8420 -0.4448
  106SAPE   C2310855   6.413   6.335   4.055  0.4143  0.1138 -0.5106
  106SAPE   H3R10856   6.318   6.393   4.056  0.1343 -0.3205  1.3719
  106SAPE   H3S10857   6.488   6.415   4.075 -1.0040  0.9026  2.1300
  106SAPE   C2410858   6.413   6.244   4.180 -0.6030  0.1093  0.2359
  106SAPE   H4R10859   6.392   6.316   4.262 -0.7156 -0.6124  0.8505
  106SAPE   H4S10860   6.513   6.198   4.199 -2.1441 -2.6102  2.5921
  106SAPE   C2510861   6.313   6.133   4.198  0.2662  0.0547 -0.7643
  106SAPE   H5R10862   6.336   6.042   4.141  3.0994  0.2690 -0.1068
  106SAPE   C2610863   6.217   6.138   4.293 -0.3763 -0.4108  0.7398
  106SAPE   H6R10864   6.147   6.053   4.285  0.8959 -1.3335 -1.7755
  106SAPE   C2710865   6.171   6.257   4.370 -0.3351  0.7891 -0.1646
  106SAPE   H7R10866   6.182   6.344   4.302 -1.7135  1.0102 -0.1234
  106SAPE   H7S10867   6.245   6.261   4.453  2.3446  1.4577 -2.4482
  106SAPE   C2810868   6.030   6.249   4.421  0.1342  0.5047  0.8486
  106SAPE   H8R10869   5.966   6.191   4.353  2.2024 -0.2759 -0.5466
  106SAPE   C2910870   5.975   6.322   4.520  0.3082  1.1660  0.5736
  106SAPE   H9R10871   5.872   6.298   4.550 -0.1463 -0.2272 -1.8039
  106SAPE  C21010872   6.059   6.408   4.609 -0.0178 -0.0814 -0.2045
  106SAPE  H10R10873   6.091   6.499   4.554  0.0746 -1.8368 -3.2485
  106SAPE  H10S10874   6.144   6.344   4.640  0.0600 -0.4689 -1.1992
  106SAPE  C21110875   5.978   6.458   4.729 -0.6408 -0.1752 -0.4373
  106SAPE  H11R10876   5.899   6.525   4.692 -1.5929 -1.0375 -0.0127
  106SAPE  C21210877   5.990   6.438   4.867 -0.3468  0.3315  0.0320
  106SAPE  H12R10878   5.921   6.494   4.931 -1.0663 -0.6839  0.1746
  106SAPE  C21310879   6.108   6.364   4.922 -0.3801  0.6312 -0.5307
  106SAPE  H13R10880   6.171   6.435   4.979  1.8590  0.6528 -2.8863
  106SAPE  H13S10881   6.169   6.325   4.839 -0.8057 -2.0212  0.2877
  106SAPE  C21410882   6.055   6.253   5.010  0.0423  0.4667  0.3344
  106SAPE  H14R10883   5.967   6.201   4.968  1.6289 -2.5370  0.4351
  106SAPE  C21510884   6.106   6.216   5.130  0.9066  0.4942  0.5237
  106SAPE  H15R10885   6.079   6.116   5.169 -0.9884  0.4469 -0.7590
  106SAPE  C21610886   6.214   6.295   5.197  0.5924  1.0206 -0.2479
  106SAPE  H16R10887   6.167   6.380   5.251 -0.7534  1.3692 -1.8698
  106SAPE  H16S10888   6.274   6.336   5.113 -2.2309  1.1527 -2.3266
  106SAPE  C21710889   6.304   6.213   5.293  0.1254 -0.3014  0.3057
  106SAPE  H17R10890   6.394   6.262   5.335  2.2621 -0.9214 -3.1359
  106SAPE  H17S10891   6.342   6.127   5.234 -0.3797  0.5659 -1.3333
  106SAPE  C21810892   6.230   6.159   5.417 -0.3517  0.0872  0.5761
  106SAPE  H18R10893   6.275   6.063   5.448 -1.7021 -0.0187  2.3418
  106SAPE  H18S10894   6.128   6.133   5.382  0.5098 -1.4934 -0.8843
  106SAPE  C21910895   6.213   6.269   5.527 -0.0073 -0.3612 -0.0569
  106SAPE  H19R10896   6.123   6.243   5.587  0.6533 -1.0228  0.6722
  106SAPE  H19S10897   6.194   6.367   5.478  1.3649 -0.7764 -1.5335
  106SAPE  C22010898   6.337   6.271   5.613  0.8164  0.7282  0.2291
  106SAPE  H20R10899   6.328   6.347   5.694  1.8720 -1.0362  2.0949
  106SAPE  H20S10900   6.428   6.299   5.554  0.5437  0.5006 -0.3010
  106SAPE  H20T10901   6.355   6.172   5.660  0.7772  0.6171  0.0112
  106SAPE   C3310902   5.796   6.335   3.910 -0.3827 -0.2540 -0.3551
  106SAPE   H3X10903   5.726   6.256   3.877  0.2091 -0.5092 -1.0167
  106SAPE   H3Y10904   5.799   6.413   3.831  1.0088  0.7016  0.5901
  106SAPE   C3410905   5.726   6.400   4.035 -0.4101 -0.1083  0.2605
  106SAPE   H4X10906   5.634   6.450   3.999 -1.1424 -1.5146  0.1135
  106SAPE   H4Y10907   5.801   6.475   4.069  1.7793 -2.6633  1.5217
  106SAPE   C3510908   5.686   6.314   4.161 -1.1389 -0.5474 -0.6003
  106SAPE   H5X10909   5.774   6.255   4.194  0.3404  2.1743  0.6420
  106SAPE   H5Y10910   5.605   6.256   4.110 -1.5385 -1.5071  1.0650
  106SAPE   C3610911   5.634   6.401   4.282 -0.5920 -1.1392 -0.3313
  106SAPE   H6X10912   5.534   6.446   4.261 -0.0430  1.2881  1.7609
  106SAPE   H6Y10913   5.711   6.480   4.291 -1.5088 -0.0104 -1.8758
  106SAPE   C3710914   5.614   6.315   4.407 -0.4344 -0.6479 -0.8838
  106SAPE   H7X10915   5.716   6.271   4.413  0.1433  0.8112  0.8780
  106SAPE   H7Y10916   5.532   6.242   4.391 -0.6063 -0.3666 -1.3005
  106SAPE   C3810917   5.582   6.390   4.538  1.0908  1.1841  0.6056
  106SAPE   H8X10918   5.477   6.423   4.522  1.0103 -0.3240 -3.1062
  106SAPE   H8Y10919   5.655   6.473   4.552 -0.6473  2.5223  2.3249
  106SAPE   C3910920   5.587   6.283   4.654 -0.2434 -0.3537  0.2233
  106SAPE   H9X10921   5.691   6.248   4.672  0.7673  0.1192 -3.7929
  106SAPE   H9Y10922   5.531   6.193   4.620 -1.1190 -0.0887  0.9228
  106SAPE  C31010923   5.533   6.339   4.785  0.1484 -0.2524  0.0689
  106SAPE  H10X10924   5.422   6.330   4.784  0.1265 -0.1865 -1.6328
  106SAPE  H10Y10925   5.554   6.448   4.791  0.9698 -0.3831 -0.2474
  106SAPE  C31110926   5.585   6.270   4.911  0.0308 -0.1415  0.0523
  106SAPE  H11X10927   5.693   6.291   4.927  0.3839  0.3713 -2.5456
  106SAPE  H11Y10928   5.566   6.161   4.904  0.1017 -0.2516  1.3433
  106SAPE  C31210929   5.508   6.308   5.036  0.1467  0.2459 -1.0493
  106SAPE  H12X10930   5.548   6.242   5.115  0.2738 -0.5011 -1.7257
  106SAPE  H12Y10931   5.399   6.287   5.029  0.4146 -0.9821 -1.8333
  106SAPE  C31310932   5.536   6.449   5.086 -0.1122 -0.3271 -0.2730
  106SAPE  H13X10933   5.483   6.526   5.026  0.5122  0.5507  0.2874
  106SAPE  H13Y10934   5.641   6.481   5.072 -0.2295 -0.4156 -1.4934
  106SAPE  C31410935   5.499   6.459   5.231  0.3397  0.2184 -0.2000
  106SAPE  H14X10936   5.548   6.548   5.275 -1.3636  0.1849  1.9460
  106SAPE  H14Y10937   5.555   6.379   5.285 -2.1889 -0.4429  1.6217
  106SAPE  C31510938   5.351   6.447   5.271  0.7721 -0.0469 -0.0702
  106SAPE  H15X10939   5.333   6.420   5.377  0.7448 -0.2537 -0.1262
  106SAPE  H15Y10940   5.309   6.369   5.203  0.9939 -1.4758  1.3710
  106SAPE  C31610941   5.262   6.567   5.249 -0.1539 -0.1925  0.4964
  106SAPE  H16X10942   5.262   6.595   5.141  2.8751  0.0387  0.4642
  106SAPE  H16Y10943   5.303   6.656   5.301 -0.9941 -1.4837  3.6219
  106SAPE  C31710944   5.108   6.553   5.278  0.3294  0.1810  0.3168
  106SAPE  H17X10945   5.104   6.513   5.382  2.9563 -0.3066  0.3053
  106SAPE  H17Y10946   5.064   6.480   5.208  1.1969 -0.7235  0.6794
  106SAPE  C31810947   5.033   6.686   5.246 -0.0217 -0.2471  0.3897
  106SAPE  H18X10948   5.098   6.776   5.252  0.9455 -0.9080 -0.0176
  106SAPE  H18Y10949   4.937   6.706   5.298 -2.9462  2.0272 -5.0963
  106SAPE  H18Z10950   5.012   6.671   5.138  3.7884 -0.7272 -0.4277
  107SAPE     N10951   3.576   3.807   3.478 -0.2863 -0.4416 -0.0056
  107SAPE   HN110952   3.647   3.760   3.538  0.7211  0.5813 -0.3483
  107SAPE   HN210953   3.512   3.734   3.443 -1.1206 -1.0995  2.6546
  107SAPE   HN310954   3.629   3.841   3.395 -0.9867  0.0030 -0.2772
  107SAPE   C1210955   3.533   3.930   3.548 -0.3891 -0.4040  0.9799
  107SAPE  H12A10956   3.623   3.995   3.543 -2.0094  1.8168 -1.0831
  107SAPE  H12B10957   3.504   3.901   3.651 -0.7885 -0.6617  0.7983
  107SAPE   C1110958   3.405   3.988   3.488  0.9983  0.0338  0.0181
  107SAPE  H11A10959   3.373   4.078   3.545 -0.2180  0.3768 -1.1571
  107SAPE  H11B10960   3.314   3.925   3.498  0.0568  1.5222  1.4397
  107SAPE     P10961   3.351   4.139   3.286  0.2106  0.5078  0.5432
  107SAPE   O1310962   3.369   4.130   3.135 -0.0873  0.7409 -0.1542
  107SAPE   O1410963   3.207   4.126   3.333 -0.8993  0.2783 -0.4151
  107SAPE   O1210964   3.430   4.022   3.353  0.2931 -0.3868 -0.5346
  107SAPE   O1110965   3.414   4.275   3.342  0.1808  0.4097 -0.3346
  107SAPE    C110966   3.550   4.281   3.382  0.1247  0.3725  0.2215
  107SAPE    HA10967   3.616   4.203   3.340  0.4046 -0.6253  2.3762
  107SAPE    HB10968   3.590   4.370   3.328 -2.4793 -0.1821 -2.9583
  107SAPE    C210969   3.565   4.314   3.536 -0.7704  0.5188 -0.3766
  107SAPE    HS10970   3.529   4.223   3.590 -0.9078  1.3412  0.9782
  107SAPE   O2110971   3.490   4.426   3.577  0.3975 -0.3083 -0.6818
  107SAPE   C2110972   3.437   4.415   3.699 -0.2009 -0.5878  0.3808
  107SAPE   O2210973   3.456   4.325   3.782  0.3765 -0.2308  0.0900
  107SAPE   C2210974   3.358   4.538   3.724 -0.0755  0.5752 -0.4078
  107SAPE   H2R10975   3.409   4.618   3.781  0.9290  0.3066 -0.9104
  107SAPE   H2S10976   3.349   4.584   3.624 -0.7997 -1.4358 -1.3203
  107SAPE    C310977   3.721   4.327   3.585  0.1386  0.1532  0.1547
  107SAPE    HX10978   3.744   4.428   3.543 -0.7456  0.8517  1.2995
  107SAPE    HY10979   3.787   4.243   3.554 -0.6657 -0.5207  0.2483
  107SAPE   O3110980   3.729   4.335   3.725 -0.5867 -0.6714  0.8263
  107SAPE   C3110981   3.720   4.222   3.787 -0.5008  0.4668  0.0333
  107SAPE   O3210982   3.728   4.113   3.729 -0.1890 -0.3687 -0.1032
  107SAPE   C3210983   3.713   4.249   3.932 -0.7313  0.0998 -0.2628
  107SAPE   H2X10984   3.706   4.148   3.976  1.9655  0.7643  2.0281
  107SAPE   H2Y10985   3.627   4.309   3.969  0.4166  1.4377  0.3450
  107SAPE   C2310986   3.222   4.505   3.790  0.0308 -0.2487  0.3668
  107SAPE   H3R10987   3.171   4.420   3.740  1.4622 -1.7824  1.4335
  107SAPE   H3S10988   3.162   4.596   3.767  0.7825 -0.0273 -0.8082
  107SAPE   C2410989   3.226   4.477   3.937 -0.2249  0.3899  0.4491
  107SAPE   H4R10990   3.291   4.560   3.971  0.1721  0.8322 -1.3272
  107SAPE   H4S10991   3.268   4.377   3.962  1.6478  1.1474  0.4551
  107SAPE   C2510992   3.093   4.490   4.006  0.8494  0.2916 -0.6270
  107SAPE   H5R10993   3.037   4.583   3.989  1.5383  0.7344 -0.4832
  107SAPE   C2610994   3.044   4.398   4.098 -0.6308  0.4540  0.6321
  107SAPE   H6R10995   2.952   4.414   4.155 -0.7767  0.5516  0.3736
  107SAPE   C2710996   3.115   4.276   4.151 -0.7054 -0.0751 -0.4810
  107SAPE   H7R10997   3.135   4.283   4.260  0.9707  0.1531 -0.7755
  107SAPE   H7S10998   3.212   4.249   4.105  0.7727  0.2373  2.2683
  107SAPE   C2810999   3.037   4.150   4.108 -0.7287  0.3026  0.6245
  107SAPE   H8R11000   3.002   4.149   4.003  1.8813 -1.4853 -0.3308
  107SAPE   C2911001   2.995   4.053   4.189 -0.1372 -0.5993  0.6482
  107SAPE   H9R11002   2.944   3.969   4.140  1.1790 -0.8700 -0.3343
  107SAPE  C21011003   3.036   4.036   4.336 -0.2166  0.2410 -0.0138
  107SAPE  H10R11004   3.142   4.065   4.350 -0.4731  0.5489  1.5214
  107SAPE  H10S11005   3.050   3.928   4.357  2.5532  0.6712  0.6764
  107SAPE  C21111006   2.955   4.112   4.441 -0.0490  0.0391  0.5575
  107SAPE  H11R11007   2.878   4.178   4.400  1.8367  0.3520 -2.8344
  107SAPE  C21211008   2.980   4.114   4.570 -0.7561  0.4753 -0.0312
  107SAPE  H12R11009   2.917   4.174   4.637 -0.4964  1.7153 -0.8590
  107SAPE  C21311010   3.093   4.040   4.631 -0.3673  0.4239  0.6467
  107SAPE  H13R11011   3.180   4.108   4.649  0.5156 -1.0715  2.4222
  107SAPE  H13S11012   3.139   3.969   4.559 -0.1219  0.4558  0.7702
  107SAPE  C21411013   3.057   3.959   4.753  0.3423  0.0180  0.1020
  107SAPE  H14R11014   2.990   3.872   4.741  1.1134 -0.6211  0.3260
  107SAPE  C21511015   3.109   3.971   4.872  0.2540  0.1615  0.3374
  107SAPE  H15R11016   3.079   3.914   4.961 -1.3417  0.8101  0.2503
  107SAPE  C21611017   3.199   4.079   4.919 -0.6290 -0.6192  0.3467
  107SAPE  H16R11018   3.226   4.153   4.841  1.9114 -2.7370 -0.9503
  107SAPE  H16S11019   3.295   4.027   4.941  0.4260 -0.4133 -3.2561
  107SAPE  C21711020   3.157   4.152   5.047 -0.0227  0.6602 -0.1156
  107SAPE  H17R11021   3.126   4.074   5.120 -1.7492  0.9288 -0.5131
  107SAPE  H17S11022   3.063   4.209   5.031  0.5163  1.0728 -2.0170
  107SAPE  C21811023   3.252   4.254   5.116 -0.0990  0.9854 -0.2056
  107SAPE  H18R11024   3.195   4.324   5.181 -0.8498  1.3613 -1.2318
  107SAPE  H18S11025   3.304   4.303   5.031 -0.2881  0.9170 -0.3614
  107SAPE  C21911026   3.354   4.175   5.218  0.3047 -0.1014  0.3134
  107SAPE  H19R11027   3.413   4.100   5.161  1.4578  1.0410 -0.0568
  107SAPE  H19S11028   3.301   4.120   5.299 -2.0979 -0.0605 -1.1227
  107SAPE  C22011029   3.445   4.280   5.287  0.0917 -0.2982  0.6964
  107SAPE  H20R11030   3.519   4.310   5.210  1.6962 -1.1800  1.8239
  107SAPE  H20S11031   3.505   4.238   5.371  0.8131  0.3801  0.5276
  107SAPE  H20T11032   3.389   4.368   5.325 -1.2359 -0.5427 -0.6277
  107SAPE   C3311033   3.837   4.314   3.989  0.8188 -0.1771 -0.2572
  107SAPE   H3X11034   3.848   4.406   3.928 -2.2126 -1.7948 -3.5998
  107SAPE   H3Y11035   3.930   4.254   3.977  0.9837 -0.1242  0.6763
  107SAPE   C3411036   3.818   4.342   4.144  0.1248 -0.3672  0.0217
  107SAPE   H4X11037   3.786   4.253   4.201 -1.2752 -0.5838 -1.0356
  107SAPE   H4Y11038   3.744   4.425   4.148  0.9577  0.3533  0.8485
  107SAPE   C3511039   3.941   4.399   4.218  0.3809  0.1519  0.1368
  107SAPE   H5X11040   3.964   4.504   4.191  1.8820 -0.0461  0.5615
  107SAPE   H5Y11041   4.028   4.332   4.200  0.6458  0.1498  1.3307
  107SAPE   C3611042   3.935   4.393   4.372 -0.4776  0.7049  0.1374
  107SAPE   H6X11043   3.911   4.290   4.406  1.0391  0.7374  1.3679
  107SAPE   H6Y11044   3.848   4.455   4.401 -1.6313 -0.3416 -0.9092
  107SAPE   C3711045   4.049   4.471   4.445 -0.4015  0.2919  0.1231
  107SAPE   H7X11046   4.044   4.578   4.415  0.3182 -0.0297 -1.2381
  107SAPE   H7Y11047   4.145   4.428   4.410  1.3167  3.3731  0.6781
  107SAPE   C3811048   4.021   4.446   4.592  0.0721  0.4798  0.0152
  107SAPE   H8X11049   3.975   4.348   4.616 -1.6267  1.1754 -0.2522
  107SAPE   H8Y11050   3.957   4.530   4.628  0.1658 -0.4870  2.6581
  107SAPE   C3911051   4.155   4.439   4.673 -0.2301  0.4352  0.9301
  107SAPE   H9X11052   4.197   4.542   4.672 -2.5437  1.4371 -0.1474
  107SAPE   H9Y11053   4.223   4.364   4.627  0.2027  0.0207  2.1845
  107SAPE  C31011054   4.122   4.392   4.818  0.0501 -0.1355  0.2901
  107SAPE  H10X11055   4.059   4.301   4.814  1.0992 -0.8436 -1.1209
  107SAPE  H10Y11056   4.061   4.469   4.869  1.6295  0.0930  1.9430
  107SAPE  C31111057   4.247   4.376   4.905  0.1175  0.9131 -0.5669
  107SAPE  H11X11058   4.313   4.466   4.904 -0.6103  1.4604 -0.0689
  107SAPE  H11Y11059   4.309   4.294   4.861  0.5098  0.0488  1.4779
  107SAPE  C31211060   4.218   4.319   5.049  0.3296  0.4511  0.9545
  107SAPE  H12X11061   4.147   4.235   5.032 -0.9117  2.0583 -3.1771
  107SAPE  H12Y11062   4.179   4.392   5.122  1.2563  0.2662  1.6578
  107SAPE  C31311063   4.333   4.253   5.115 -0.3220  0.0585  0.0802
  107SAPE  H13X11064   4.409   4.331   5.138  0.6632 -0.7417 -0.4127
  107SAPE  H13Y11065   4.373   4.166   5.060 -0.3885 -0.2460  0.5075
  107SAPE  C31411066   4.276   4.195   5.247  0.5981 -0.0300 -0.1674
  107SAPE  H14X11067   4.185   4.132   5.234 -0.3013  0.9508  1.1390
  107SAPE  H14Y11068   4.254   4.283   5.311  1.5372  1.9085 -2.3442
  107SAPE  C31511069   4.371   4.104   5.317  0.6840  0.0598  0.1605
  107SAPE  H15X11070   4.477   4.137   5.309  0.4229  1.1256  0.9020
  107SAPE  H15Y11071   4.369   4.001   5.274 -0.3288  0.1950 -0.1459
  107SAPE  C31611072   4.337   4.083   5.465 -0.2426 -0.0958 -0.1982
  107SAPE  H16X11073   4.232   4.048   5.470  0.5004 -2.4306  0.4300
  107SAPE  H16Y11074   4.338   4.181   5.516 -1.8558  0.4803 -1.1921
  107SAPE  C31711075   4.437   3.990   5.539  0.0109 -0.4454 -0.4925
  107SAPE  H17X11076   4.538   4.036   5.548  0.0482 -0.7128  0.5984
  107SAPE  H17Y11077   4.442   3.896   5.480 -2.5119 -0.8848 -0.1261
  107SAPE  C31811078   4.402   3.943   5.685 -0.2139  0.0560 -0.1323
  107SAPE  H18X11079   4.292   3.932   5.698 -0.3945  2.3339  0.6709
  107SAPE  H18Y11080   4.426   4.025   5.756  2.5666 -0.5692 -0.2488
  107SAPE  H18Z11081   4.460   3.852   5.712 -0.2144  0.2365  0.4987
  108SAPE     N11082   0.948   4.621   2.782 -0.0768  0.3216  0.2247
  108SAPE   HN111083   0.919   4.652   2.688  1.5559 -1.8493 -1.0906
  108SAPE   HN211084   1.047   4.590   2.787 -0.1132 -0.0260 -1.0343
  108SAPE   HN311085   0.880   4.543   2.798  2.0785 -2.0589 -1.4945
  108SAPE   C1211086   0.931   4.733   2.879  0.0566 -0.1255 -0.1523
  108SAPE  H12A11087   0.823   4.758   2.870  0.2610  0.5472 -0.8184
  108SAPE  H12B11088   0.989   4.819   2.841 -0.2149  0.3413  0.4768
  108SAPE   C1111089   0.967   4.714   3.024  0.2189 -0.0644 -0.5415
  108SAPE  H11A11090   0.945   4.800   3.090  2.3803 -0.8680  1.3827
  108SAPE  H11B11091   1.078   4.707   3.035 -0.1031 -0.8270  4.1176
  108SAPE     P11092   0.798   4.598   3.181 -0.0281 -0.1139  0.0229
  108SAPE   O1311093   0.696   4.704   3.144  0.7607  0.4790 -0.4717
  108SAPE   O1411094   0.755   4.460   3.210  0.4538 -0.1544  0.0306
  108SAPE   O1211095   0.914   4.589   3.068 -0.0164  0.4905 -0.4106
  108SAPE   O1111096   0.892   4.649   3.304  0.1871  0.2769 -0.0992
  108SAPE    C111097   1.013   4.578   3.347  0.5976  0.0563  0.3388
  108SAPE    HA11098   1.031   4.484   3.292 -3.4857 -0.4426 -0.4047
  108SAPE    HB11099   1.099   4.649   3.342  2.1122 -1.8191 -2.4941
  108SAPE    C211100   1.005   4.540   3.501 -0.1565 -0.6857  0.1350
  108SAPE    HS11101   1.083   4.465   3.527  1.1158  0.3711 -0.4859
  108SAPE   O2111102   0.876   4.504   3.542  0.4887  0.1024 -0.4573
  108SAPE   C2111103   0.839   4.382   3.497 -0.2677  0.3834  0.6040
  108SAPE   O2211104   0.915   4.304   3.440 -0.1192  0.5876 -0.1749
  108SAPE   C2211105   0.687   4.356   3.517  0.0612  0.3544  1.1409
  108SAPE   H2R11106   0.639   4.456   3.512  1.0817  0.8020 -0.0997
  108SAPE   H2S11107   0.645   4.292   3.437  0.7213 -0.6608  1.5706
  108SAPE    C311108   1.039   4.668   3.587  0.1635  0.6740  0.2454
  108SAPE    HX11109   0.975   4.744   3.538  0.3724  1.9685  1.8942
  108SAPE    HY11110   1.143   4.702   3.571  0.0628  1.7181  1.6120
  108SAPE   O3111111   1.011   4.655   3.731 -0.5770 -0.1680  1.1060
  108SAPE   C3111112   0.923   4.742   3.789  0.7910 -0.2331 -0.3622
  108SAPE   O3211113   0.858   4.820   3.725  0.5213  0.1626 -0.2883
  108SAPE   C3211114   0.917   4.721   3.942  0.6221 -0.5623  0.3383
  108SAPE   H2X11115   1.019   4.729   3.985  0.9679  0.5914 -0.6482
  108SAPE   H2Y11116   0.899   4.612   3.959 -1.3422  0.0601  2.6695
  108SAPE   C2311117   0.659   4.282   3.656  0.0307  0.7727  0.2583
  108SAPE   H3R11118   0.722   4.192   3.666 -1.5328 -0.4468 -0.4795
  108SAPE   H3S11119   0.552   4.253   3.651 -0.1807  1.3598  1.1198
  108SAPE   C2411120   0.677   4.383   3.777 -0.0892  0.4111 -0.6072
  108SAPE   H4R11121   0.784   4.405   3.794 -0.1479  1.1783 -1.1879
  108SAPE   H4S11122   0.658   4.326   3.871  0.0091  0.2628 -0.6773
  108SAPE   C2511123   0.602   4.511   3.768  0.1532 -0.1487 -0.0482
  108SAPE   H5R11124   0.622   4.578   3.684 -0.6207  2.0363  1.4297
  108SAPE   C2611125   0.509   4.560   3.854 -0.1120 -0.3136  0.0613
  108SAPE   H6R11126   0.467   4.657   3.824  1.1100  0.6424  1.3257
  108SAPE   C2711127   0.458   4.500   3.981 -0.6324 -0.0323  0.0211
  108SAPE   H7R11128   0.401   4.577   4.037  0.1202  0.0488  0.6988
  108SAPE   H7S11129   0.547   4.484   4.046 -0.0823  0.3592 -0.6214
  108SAPE   C2811130   0.375   4.375   3.975 -0.3142 -0.8932 -0.3509
  108SAPE   H8R11131   0.346   4.354   3.871 -3.3040 -0.2411  0.2545
  108SAPE   C2911132   0.323   4.320   4.084  0.4036 -0.2075  0.4322
  108SAPE   H9R11133   0.244   4.245   4.067  1.5111 -1.1095 -0.8752
  108SAPE  C21011134   0.361   4.344   4.223  0.7772  0.5707 -0.5660
  108SAPE  H10R11135   0.325   4.444   4.255 -1.3077 -0.4734  0.5603
  108SAPE  H10S11136   0.472   4.342   4.236  0.8968 -3.5149 -0.8895
  108SAPE  C21111137   0.314   4.229   4.316 -0.1003  0.5198 -0.8379
  108SAPE  H11R11138   0.250   4.152   4.271 -1.1983  1.8818 -1.7381
  108SAPE  C21211139   0.328   4.213   4.449 -0.2128 -0.4088 -0.0073
  108SAPE  H12R11140   0.279   4.126   4.496 -0.2868  0.1291  0.9317
  108SAPE  C21311141   0.414   4.299   4.541  0.1371  0.5197 -0.1384
  108SAPE  H13R11142   0.520   4.297   4.507 -0.3079 -1.6933 -1.5690
  108SAPE  H13S11143   0.413   4.254   4.643 -1.8147 -1.7803 -1.0722
  108SAPE  C21411144   0.352   4.436   4.545  0.3514 -0.6904 -0.1560
  108SAPE  H14R11145   0.394   4.514   4.481 -0.1739  0.8470  1.2882
  108SAPE  C21511146   0.246   4.478   4.618  0.5229  0.1353  0.1390
  108SAPE  H15R11147   0.206   4.580   4.607  0.5361  0.1688  0.4165
  108SAPE  C21611148   0.180   4.396   4.725 -0.2006  0.3511  0.1805
  108SAPE  H16R11149   0.210   4.290   4.710 -0.3383  0.2895  0.3418
  108SAPE  H16S11150   0.070   4.400   4.712 -0.5313 -0.4162  2.3879
  108SAPE  C21711151   0.218   4.437   4.862  0.1323  0.0532  0.2155
  108SAPE  H17R11152   0.186   4.541   4.887 -2.3447 -0.5359 -0.2137
  108SAPE  H17S11153   0.329   4.438   4.871  0.6529  3.6129 -3.5817
  108SAPE  C21811154   0.147   4.344   4.957 -0.3153 -0.3106 -0.4783
  108SAPE  H18R11155   0.176   4.237   4.950  0.6942  0.0041 -1.3505
  108SAPE  H18S11156   0.037   4.353   4.945 -0.7792  0.0255  2.8944
  108SAPE  C21911157   0.175   4.378   5.111 -0.1102 -0.2360  0.6574
  108SAPE  H19R11158   0.109   4.315   5.175  0.6885 -1.8690 -0.0870
  108SAPE  H19S11159   0.144   4.482   5.136 -0.1893  0.6344 -2.6299
  108SAPE  C22011160   0.318   4.344   5.151  0.1260  0.5175  0.0741
  108SAPE  H20R11161   0.386   4.420   5.107 -0.4854  0.8218 -0.3648
  108SAPE  H20S11162   0.354   4.249   5.107 -0.8089 -0.5155  1.4435
  108SAPE  H20T11163   0.319   4.346   5.262 -1.6213 -1.8324  0.2210
  108SAPE   C3311164   0.806   4.795   4.017 -0.2764 -0.1631 -0.3413
  108SAPE   H3X11165   0.707   4.783   3.969 -1.6564 -3.1116  2.8474
  108SAPE   H3Y11166   0.821   4.905   4.024  1.2655 -0.4634  2.1947
  108SAPE   C3411167   0.797   4.739   4.158 -0.5910  0.2386  0.2683
  108SAPE   H4X11168   0.888   4.750   4.220 -0.2036  0.3173 -0.3098
  108SAPE   H4Y11169   0.754   4.638   4.176 -2.0204  0.8238  0.2647
  108SAPE   C3511170   0.671   4.815   4.215 -0.8849 -0.0912  0.6608
  108SAPE   H5X11171   0.687   4.924   4.208 -0.4388 -0.2088 -0.3651
  108SAPE   H5Y11172   0.586   4.784   4.151  1.6597 -1.9061 -2.1391
  108SAPE   C3611173   0.635   4.773   4.357  0.1579  0.2106 -0.3953
  108SAPE   H6X11174   0.725   4.752   4.419 -0.9309 -0.7330  0.9333
  108SAPE   H6Y11175   0.591   4.671   4.355  0.0431  0.1992  1.4022
  108SAPE   C3711176   0.535   4.874   4.431  0.3150  0.1768 -0.4587
  108SAPE   H7X11177   0.435   4.887   4.384  0.0048 -0.5828 -0.0289
  108SAPE   H7Y11178   0.580   4.975   4.427 -0.6354  0.6019 -0.8861
  108SAPE   C3811179   0.518   4.832   4.578  0.4451  0.6304  0.4851
  108SAPE   H8X11180   0.613   4.788   4.616  0.2467  0.4338  0.7574
  108SAPE   H8Y11181   0.435   4.758   4.586  1.0869 -0.2989 -1.1318
  108SAPE   C3911182   0.480   4.947   4.669  0.2682  0.7255  0.0284
  108SAPE   H9X11183   0.399   4.995   4.609 -0.1544  1.5154  1.1888
  108SAPE   H9Y11184   0.575   5.004   4.684  0.9439 -1.0266  3.1143
  108SAPE  C31011185   0.424   4.899   4.807 -0.9064  0.1467  0.6157
  108SAPE  H10X11186   0.501   4.830   4.849  0.2196  1.6854  1.1733
  108SAPE  H10Y11187   0.344   4.825   4.785 -1.1557  1.1798 -2.3985
  108SAPE  C31111188   0.401   5.006   4.905  0.3410 -0.3211  0.1241
  108SAPE  H11X11189   0.314   5.061   4.863 -1.1800 -1.9302  1.0534
  108SAPE  H11Y11190   0.495   5.065   4.916 -0.8914  1.9638 -0.8389
  108SAPE  C31211191   0.373   4.963   5.047 -0.5032 -0.8709 -0.4939
  108SAPE  H12X11192   0.349   5.057   5.101  0.6625 -0.0828 -1.3040
  108SAPE  H12Y11193   0.460   4.910   5.091 -0.5014  0.5270  1.2846
  108SAPE  C31311194   0.241   4.880   5.052 -0.2185  0.2737  0.7141
  108SAPE  H13X11195   0.254   4.780   5.004  0.4031  1.0000 -0.7041
  108SAPE  H13Y11196   0.173   4.943   4.991  0.9059 -0.2652 -1.2084
  108SAPE  C31411197   0.179   4.871   5.185  0.3363  0.0440  0.6955
  108SAPE  H14X11198   0.068   4.866   5.189  0.2572 -0.5167 -1.1798
  108SAPE  H14Y11199   0.189   4.968   5.238  0.7982  0.5562 -0.3107
  108SAPE  C31511200   0.230   4.745   5.251 -0.0232 -0.5050 -0.4897
  108SAPE  H15X11201   0.341   4.747   5.257  0.2167 -2.0139 -2.9359
  108SAPE  H15Y11202   0.205   4.655   5.190 -1.0600  0.3989 -1.4353
  108SAPE  C31611203   0.167   4.723   5.390  0.2968  0.0318 -0.6994
  108SAPE  H16X11204   0.057   4.722   5.377  0.4254  0.7093 -2.0299
  108SAPE  H16Y11205   0.184   4.810   5.457 -2.1612 -1.7300  2.4732
  108SAPE  C31711206   0.235   4.605   5.469  0.6516 -0.7652 -0.1661
  108SAPE  H17X11207   0.341   4.639   5.461  0.4918 -0.3745 -0.7028
  108SAPE  H17Y11208   0.204   4.506   5.429 -1.2055 -0.1044 -0.4872
  108SAPE  C31811209   0.205   4.615   5.618  0.1997  0.0174 -0.2855
  108SAPE  H18X11210   0.097   4.621   5.641  0.0714  1.3322 -1.1646
  108SAPE  H18Y11211   0.250   4.706   5.664  1.8317 -1.9892  2.4122
  108SAPE  H18Z11212   0.250   4.529   5.672  0.8834  1.6354  1.8912
  109SAPE     N11213   5.956   3.511   3.288 -0.5179 -0.4532 -0.0480
  109SAPE   HN111214   6.028   3.462   3.345 -1.4427 -0.6145  1.0180
  109SAPE   HN211215   5.905   3.449   3.222 -0.2872 -1.4684  0.6898
  109SAPE   HN311216   6.006   3.586   3.237  1.5601  0.7405  3.3574
  109SAPE   C1211217   5.866   3.573   3.389 -0.7775  0.2771 -0.3930
  109SAPE  H12A11218   5.930   3.635   3.455 -1.6108  0.6336  0.1112
  109SAPE  H12B11219   5.822   3.498   3.458 -1.6574  0.3750 -0.8318
  109SAPE   C1111220   5.746   3.648   3.325 -0.0358  0.6454 -0.1854
  109SAPE  H11A11221   5.672   3.652   3.408  1.0178  1.6910  0.7356
  109SAPE  H11B11222   5.705   3.585   3.243  0.4028 -0.4013  0.3843
  109SAPE     P11223   5.673   3.889   3.259  0.2368  0.1354  0.3308
  109SAPE   O1311224   5.721   4.000   3.174  0.0843 -0.0633 -0.2781
  109SAPE   O1411225   5.547   3.812   3.222 -0.0890 -0.1157  0.2752
  109SAPE   O1211226   5.785   3.779   3.271  0.4219 -0.1967 -0.2825
  109SAPE   O1111227   5.667   3.930   3.406 -0.4158 -0.0577 -0.3947
  109SAPE    C111228   5.785   3.926   3.491 -0.2812 -0.7078  0.6631
  109SAPE    HA11229   5.779   3.844   3.566  0.1437  0.2047  1.7244
  109SAPE    HB11230   5.879   3.894   3.441 -0.8747 -1.5760  0.0801
  109SAPE    C211231   5.815   4.059   3.563 -0.1536  0.4115 -0.3457
  109SAPE    HS11232   5.918   4.059   3.605 -0.8779  0.5743  1.5499
  109SAPE   O2111233   5.719   4.086   3.673 -0.0069 -0.6198 -0.5446
  109SAPE   C2111234   5.746   4.027   3.781  0.1607  0.3764  0.0394
  109SAPE   O2211235   5.843   3.959   3.807 -0.1079  0.2371 -0.0664
  109SAPE   C2211236   5.624   4.057   3.885  0.1057 -0.4794  0.5221
  109SAPE   H2R11237   5.644   4.163   3.911  3.4457 -0.9941  0.5651
  109SAPE   H2S11238   5.530   4.046   3.828 -0.7129 -0.5141  1.8246
  109SAPE    C311239   5.807   4.181   3.463 -0.7405  0.2665 -0.0742
  109SAPE    HX11240   5.701   4.208   3.448 -0.5234  2.0660  1.3942
  109SAPE    HY11241   5.860   4.137   3.375  0.4639 -2.3308  1.7949
  109SAPE   O3111242   5.869   4.293   3.518 -0.3534  0.1873 -0.0032
  109SAPE   C3111243   6.010   4.291   3.526 -0.0664 -0.2572  0.3529
  109SAPE   O3211244   6.080   4.223   3.460 -0.3221  0.2408 -0.2332
  109SAPE   C3211245   6.054   4.394   3.631  0.0381 -0.5452  0.4005
  109SAPE   H2X11246   5.970   4.461   3.660 -0.1469 -0.8109  0.4865
  109SAPE   H2Y11247   6.122   4.458   3.571 -2.1679  0.4653 -1.1565
  109SAPE   C2311248   5.627   3.980   4.012  0.0053  0.9584 -0.1663
  109SAPE   H3R11249   5.716   4.013   4.069 -0.5234 -0.6507  1.7313
  109SAPE   H3S11250   5.639   3.874   3.983  0.7826  0.9371  0.2008
  109SAPE   C2411251   5.503   4.009   4.100 -0.0630  0.2862  0.3898
  109SAPE   H4R11252   5.479   3.926   4.169 -0.9251  0.0253 -0.2036
  109SAPE   H4S11253   5.413   4.014   4.036 -0.2083  1.4067  0.6628
  109SAPE   C2511254   5.510   4.142   4.168 -0.4221  0.2552  0.1664
  109SAPE   H5R11255   5.526   4.224   4.097  0.5569  1.5141  1.8000
  109SAPE   C2611256   5.473   4.177   4.292 -0.4026  0.6386 -0.1364
  109SAPE   H6R11257   5.481   4.282   4.324  0.1598  1.3504 -2.4427
  109SAPE   C2711258   5.423   4.085   4.397 -0.1894 -0.2660  0.4328
  109SAPE   H7R11259   5.339   4.035   4.345  1.1492 -0.7953 -1.3153
  109SAPE   H7S11260   5.387   4.137   4.489  2.0460  1.0192  0.6607
  109SAPE   C2811261   5.513   3.974   4.443  0.1620  0.4675  0.5155
  109SAPE   H8R11262   5.568   3.924   4.362  1.4115 -0.0515  1.6344
  109SAPE   C2911263   5.540   3.946   4.574 -0.6611  0.2466  0.0738
  109SAPE   H9R11264   5.603   3.862   4.606 -2.5580 -0.8938  1.0068
  109SAPE  C21011265   5.478   4.012   4.699 -0.0021  0.4220  0.3259
  109SAPE  H10R11266   5.420   3.939   4.758 -0.1727 -0.8875 -1.3849
  109SAPE  H10S11267   5.407   4.091   4.665 -2.5244 -1.0403  1.9078
  109SAPE  C21111268   5.580   4.067   4.790 -0.4667  0.2881 -0.1309
  109SAPE  H11R11269   5.685   4.079   4.757  0.0901  0.3351  1.5375
  109SAPE  C21211270   5.559   4.111   4.917 -0.6470 -0.4766  0.5580
  109SAPE  H12R11271   5.651   4.141   4.969  1.1133 -1.9216 -1.5559
  109SAPE  C21311272   5.430   4.113   4.989 -0.2697  0.0954  0.9476
  109SAPE  H13R11273   5.361   4.027   4.977 -1.6121  0.9147  2.4402
  109SAPE  H13S11274   5.386   4.199   4.934  1.1948  0.5718  0.4844
  109SAPE  C21411275   5.423   4.148   5.134 -0.6942 -0.3131 -0.4083
  109SAPE  H14R11276   5.401   4.255   5.150  1.2365  0.0700 -0.0586
  109SAPE  C21511277   5.451   4.067   5.233 -0.3989 -0.1001 -0.6033
  109SAPE  H15R11278   5.447   4.110   5.334  2.2563 -0.5964 -0.1991
  109SAPE  C21611279   5.503   3.936   5.211  0.0519 -1.0573  0.0516
  109SAPE  H16R11280   5.604   3.952   5.168  0.3917  1.3699  1.5778
  109SAPE  H16S11281   5.440   3.886   5.135 -2.0046  1.3217  0.0531
  109SAPE  C21711282   5.502   3.849   5.337  0.8367 -0.4526 -0.4196
  109SAPE  H17R11283   5.521   3.741   5.318  0.6162 -0.8020  1.2227
  109SAPE  H17S11284   5.408   3.855   5.395 -0.2362  0.7287 -2.1717
  109SAPE  C21811285   5.622   3.893   5.428  0.0486  0.2114  0.2177
  109SAPE  H18R11286   5.607   3.998   5.460 -0.6263  0.1060  0.2731
  109SAPE  H18S11287   5.716   3.886   5.369  0.7830 -1.6438  1.4939
  109SAPE  C21911288   5.630   3.808   5.556 -0.0520  0.4751  0.1116
  109SAPE  H19R11289   5.675   3.712   5.522  2.3821  1.8608 -0.8556
  109SAPE  H19S11290   5.528   3.792   5.596 -0.1569  1.2085  0.1532
  109SAPE  C22011291   5.698   3.862   5.682  0.2882  0.5327 -1.1701
  109SAPE  H20R11292   5.807   3.875   5.665  1.0012  0.0771  2.2174
  109SAPE  H20S11293   5.686   3.785   5.762 -0.5202  0.1724 -1.6368
  109SAPE  H20T11294   5.653   3.955   5.723  0.9693 -0.0420  1.0172
  109SAPE   C3311295   6.128   4.321   3.742  0.2180  0.4432  0.0049
  109SAPE   H3X11296   6.196   4.399   3.782 -0.3845  1.0205 -0.0692
  109SAPE   H3Y11297   6.184   4.231   3.709 -0.3943 -0.1901  0.6524
  109SAPE   C3411298   6.031   4.284   3.855 -0.2383  0.2287  0.2128
  109SAPE   H4X11299   6.094   4.229   3.929 -0.0978 -2.3575 -1.6743
  109SAPE   H4Y11300   5.954   4.209   3.826  0.7455 -1.1544  1.0405
  109SAPE   C3511301   5.969   4.393   3.935  0.6758  0.1008 -0.2238
  109SAPE   H5X11302   5.902   4.435   3.856 -1.4486 -3.8046 -0.7438
  109SAPE   H5Y11303   6.036   4.474   3.972  0.6024 -1.2895  3.3155
  109SAPE   C3611304   5.867   4.359   4.044 -0.3603 -0.0054 -0.7220
  109SAPE   H6X11305   5.817   4.262   4.021 -1.0800  0.3516 -0.6745
  109SAPE   H6Y11306   5.797   4.444   4.055 -1.8843 -1.5345  3.4105
  109SAPE   C3711307   5.941   4.347   4.181 -1.0043 -0.1787  0.1074
  109SAPE   H7X11308   6.013   4.428   4.205 -1.9277  0.1863  1.7830
  109SAPE   H7Y11309   6.007   4.258   4.177 -0.4465  0.2562 -0.9770
  109SAPE   C3811310   5.849   4.326   4.300 -0.2595 -0.7607  0.3468
  109SAPE   H8X11311   5.786   4.235   4.292 -2.1685 -0.0632  4.8337
  109SAPE   H8Y11312   5.780   4.413   4.299 -0.1359 -0.6582  0.9591
  109SAPE   C3911313   5.937   4.332   4.438  0.9378  0.6159  0.5250
  109SAPE   H9X11314   5.992   4.428   4.431 -1.7074  2.2550  0.8800
  109SAPE   H9Y11315   6.001   4.241   4.445  0.5742  0.2807 -0.4244
  109SAPE  C31011316   5.835   4.336   4.551  0.2193  0.1407  0.7485
  109SAPE  H10X11317   5.778   4.241   4.557  1.5397 -0.6227  1.7397
  109SAPE  H10Y11318   5.756   4.414   4.546  0.3125  0.1519 -1.3105
  109SAPE  C31111319   5.905   4.353   4.683 -0.1064 -0.3078 -0.2831
  109SAPE  H11X11320   5.974   4.440   4.696 -2.4278  1.5054  0.5516
  109SAPE  H11Y11321   5.964   4.259   4.694  0.6612  0.3177  1.2629
  109SAPE  C31211322   5.799   4.366   4.788  0.3103 -0.1932 -0.0182
  109SAPE  H12X11323   5.702   4.312   4.776 -0.0320  0.2016  0.8957
  109SAPE  H12Y11324   5.759   4.469   4.776  1.1497  0.0950 -0.3653
  109SAPE  C31311325   5.866   4.334   4.926 -0.1287 -0.0713 -0.8071
  109SAPE  H13X11326   5.965   4.380   4.945 -0.4544  0.2690  0.1209
  109SAPE  H13Y11327   5.882   4.224   4.932 -0.4661 -0.0861 -0.1162
  109SAPE  C31411328   5.777   4.391   5.043  0.2347  0.1156  0.1655
  109SAPE  H14X11329   5.675   4.348   5.036 -0.4255  1.6279  0.0591
  109SAPE  H14Y11330   5.776   4.502   5.039  0.1730  0.0821 -1.1738
  109SAPE  C31511331   5.835   4.358   5.180 -0.9578 -0.1155 -0.8892
  109SAPE  H15X11332   5.924   4.422   5.197 -1.4807  0.7765 -1.4687
  109SAPE  H15Y11333   5.864   4.251   5.182 -0.5351 -0.0389  1.8207
  109SAPE  C31611334   5.740   4.373   5.301 -0.1202  0.1754 -0.1577
  109SAPE  H16X11335   5.672   4.288   5.280  0.1861 -0.2412  0.5113
  109SAPE  H16Y11336   5.675   4.463   5.301 -0.8993 -0.3752  0.5681
  109SAPE  C31711337   5.814   4.371   5.438 -0.5641  0.1657  0.1314
  109SAPE  H17X11338   5.770   4.447   5.505  1.8843  0.6119  1.3524
  109SAPE  H17Y11339   5.922   4.399   5.439 -0.8497  1.6458 -2.4159
  109SAPE  C31811340   5.803   4.228   5.502  0.4629 -0.7928 -0.0096
  109SAPE  H18X11341   5.695   4.209   5.516  0.6619 -1.7369  0.2728
  109SAPE  H18Y11342   5.838   4.241   5.606 -2.4353  1.8768  0.8039
  109SAPE  H18Z11343   5.854   4.152   5.439 -0.0278  0.6344 -2.2452
  110SAPE     N11344   4.580   0.616   2.978 -0.3966  0.8212 -0.2089
  110SAPE   HN111345   4.491   0.645   2.934 -2.6520 -1.5228  2.4143
  110SAPE   HN211346   4.620   0.565   2.897 -1.5962 -1.3296  0.4820
  110SAPE   HN311347   4.556   0.551   3.055 -1.0730  2.3770  0.9631
  110SAPE   C1211348   4.670   0.716   3.035  0.0173 -0.2451 -0.7298
  110SAPE  H12A11349   4.732   0.763   2.955  2.0449 -2.1603 -0.3963
  110SAPE  H12B11350   4.739   0.658   3.100 -0.1358 -0.7510 -1.0176
  110SAPE   C1111351   4.607   0.827   3.126  0.1444 -0.9782 -0.4113
  110SAPE  H11A11352   4.678   0.882   3.191 -0.3575 -1.6091  0.7247
  110SAPE  H11B11353   4.541   0.774   3.198  0.5430  0.3767  1.0181
  110SAPE     P11354   4.413   1.016   3.098 -0.1135 -0.3261 -0.4620
  110SAPE   O1311355   4.434   1.149   3.033  0.1728 -0.0769  0.0514
  110SAPE   O1411356   4.284   0.952   3.075 -0.1325  0.1165  0.0339
  110SAPE   O1211357   4.524   0.921   3.050 -0.6050 -0.0894 -0.0296
  110SAPE   O1111358   4.434   1.029   3.259  0.2074  0.3081  0.1426
  110SAPE    C111359   4.521   1.128   3.321  0.4134  0.0165  1.4238
  110SAPE    HA11360   4.620   1.081   3.340  0.6869 -0.6422 -1.1704
  110SAPE    HB11361   4.530   1.220   3.259 -1.4304  0.0209  1.0986
  110SAPE    C211362   4.460   1.172   3.453 -0.2171 -0.2275  0.3615
  110SAPE    HS11363   4.523   1.247   3.505 -1.2340 -0.7352  2.4231
  110SAPE   O2111364   4.426   1.063   3.540  0.2039  0.4458  0.2401
  110SAPE   C2111365   4.466   1.075   3.664 -0.2322  0.1287  0.2761
  110SAPE   O2211366   4.571   1.125   3.696  0.3085  0.0775 -0.0727
  110SAPE   C2211367   4.383   0.996   3.765 -0.2290 -0.3859  0.6281
  110SAPE   H2R11368   4.279   1.028   3.745  0.1602  1.6305  1.6558
  110SAPE   H2S11369   4.399   0.890   3.735  1.6229  0.1560 -0.5199
  110SAPE    C311370   4.331   1.250   3.427  0.0115  0.1743  0.0518
  110SAPE    HX11371   4.352   1.328   3.351 -1.2592 -0.2370 -0.7516
  110SAPE    HY11372   4.261   1.177   3.380  0.3089 -2.2176  2.9880
  110SAPE   O3111373   4.277   1.303   3.548 -0.0278  1.1822  0.0163
  110SAPE   C3111374   4.168   1.385   3.529  0.1904  0.0183  0.1544
  110SAPE   O3211375   4.120   1.409   3.414  0.1654 -0.5382  0.3970
  110SAPE   C3211376   4.100   1.427   3.655  0.2523  0.2748  0.1247
  110SAPE   H2X11377   4.015   1.356   3.668  0.0852  0.3702 -0.4268
  110SAPE   H2Y11378   4.045   1.520   3.629 -0.7801 -0.0658  0.9780
  110SAPE   C2311379   4.419   1.016   3.910  0.1381 -0.2158  0.4169
  110SAPE   H3R11380   4.429   1.123   3.939 -3.8567  0.0315  1.4229
  110SAPE   H3S11381   4.510   0.956   3.930 -0.4982 -1.8347 -1.2737
  110SAPE   C2411382   4.299   0.960   3.995  0.2391 -0.5925 -0.2959
  110SAPE   H4R11383   4.199   1.006   3.983 -0.6258 -1.9440  1.4046
  110SAPE   H4S11384   4.310   0.968   4.105  2.8093 -2.7041 -0.2961
  110SAPE   C2511385   4.273   0.818   3.982  0.0085 -0.2054  0.7275
  110SAPE   H5R11386   4.196   0.794   3.907  1.9355 -0.4909 -1.2685
  110SAPE   C2611387   4.332   0.719   4.047  0.0772  0.1598 -0.3469
  110SAPE   H6R11388   4.306   0.615   4.020 -1.1541  0.8300 -1.9211
  110SAPE   C2711389   4.428   0.740   4.162 -0.2714  0.0438  0.7330
  110SAPE   H7R11390   4.499   0.819   4.126  0.0145  0.3568  1.9436
  110SAPE   H7S11391   4.489   0.647   4.169 -0.5445 -0.4083 -1.7873
  110SAPE   C2811392   4.379   0.771   4.296  0.1457  0.2555  0.0229
  110SAPE   H8R11393   4.393   0.873   4.334 -0.5317  1.1078 -1.9284
  110SAPE   C2911394   4.310   0.703   4.386  0.2271  0.3244  0.0123
  110SAPE   H9R11395   4.288   0.746   4.485 -0.3226 -0.2487  0.1416
  110SAPE  C21011396   4.266   0.561   4.370 -0.2625 -0.7823  0.4119
  110SAPE  H10R11397   4.301   0.515   4.465 -0.0879  0.8176  1.1520
  110SAPE  H10S11398   4.322   0.509   4.289 -0.7947 -1.5623  0.5334
  110SAPE  C21111399   4.117   0.556   4.341 -0.0628  0.2790  0.6694
  110SAPE  H11R11400   4.082   0.624   4.262 -0.0965  0.7347  1.0795
  110SAPE  C21211401   4.026   0.488   4.409 -0.4248 -0.0674  0.0889
  110SAPE  H12R11402   3.920   0.503   4.385 -0.2747  0.7694 -0.1000
  110SAPE  C21311403   4.056   0.396   4.528  0.2206 -0.6974 -0.6643
  110SAPE  H13R11404   3.966   0.385   4.593  0.9435  0.0266  0.4950
  110SAPE  H13S11405   4.128   0.441   4.600  0.1982 -0.5614 -0.7265
  110SAPE  C21411406   4.110   0.260   4.481  0.4662 -0.8064  0.4342
  110SAPE  H14R11407   4.104   0.237   4.373  1.0304  1.0977 -0.0430
  110SAPE  C21511408   4.173   0.177   4.564 -0.4438 -0.2222  0.7801
  110SAPE  H15R11409   4.207   0.084   4.515  0.8344  0.3268  0.5947
  110SAPE  C21611410   4.202   0.191   4.711  0.0611  0.0878 -0.1897
  110SAPE  H16R11411   4.190   0.294   4.751 -0.5054 -1.2941  3.7457
  110SAPE  H16S11412   4.308   0.161   4.717  0.6399  1.7839 -1.4513
  110SAPE  C21711413   4.122   0.106   4.811  0.4283 -0.1412 -0.4413
  110SAPE  H17R11414   4.022   0.080   4.770 -0.0514 -1.4503  1.4554
  110SAPE  H17S11415   4.105   0.171   4.899 -1.3712 -0.7358 -0.3221
  110SAPE  C21811416   4.197  -0.025   4.845  0.3109 -0.2243 -0.2309
  110SAPE  H18R11417   4.295   0.006   4.887  0.6801 -0.1605 -1.1165
  110SAPE  H18S11418   4.199  -0.076   4.746  0.2572  0.4007 -0.5645
  110SAPE  C21911419   4.114  -0.106   4.941  0.2276 -0.6135 -0.0037
  110SAPE  H19R11420   4.009  -0.128   4.910  0.0497 -2.1183  1.5327
  110SAPE  H19S11421   4.123  -0.055   5.039  1.1572 -1.6846  0.4836
  110SAPE  C22011422   4.186  -0.245   4.962 -0.2159  0.1510  0.4253
  110SAPE  H20R11423   4.153  -0.299   5.054  0.5142  0.7825  1.0802
  110SAPE  H20S11424   4.295  -0.226   4.961 -0.5049  3.0798 -3.9422
  110SAPE  H20T11425   4.162  -0.306   4.873 -0.6783  0.2491  0.4792
  110SAPE   C3311426   4.200   1.451   3.777 -0.1497  0.1033  0.6986
  110SAPE   H3X11427   4.284   1.517   3.745  0.8297 -1.7481 -0.7096
  110SAPE   H3Y11428   4.245   1.357   3.815 -1.3935 -0.4287  0.9018
  110SAPE   C3411429   4.129   1.533   3.884 -0.0349  0.5976 -0.0864
  110SAPE   H4X11430   4.047   1.470   3.923 -0.2140  0.3752 -0.8088
  110SAPE   H4Y11431   4.094   1.634   3.854  1.9801  0.6596 -2.5593
  110SAPE   C3511432   4.229   1.543   4.003  0.2326 -1.0004  0.8487
  110SAPE   H5X11433   4.301   1.623   3.975 -1.3643  0.0076 -0.5735
  110SAPE   H5Y11434   4.281   1.447   4.027  0.5595 -1.1851 -0.5238
  110SAPE   C3611435   4.154   1.584   4.125 -0.4080 -0.7249 -0.2002
  110SAPE   H6X11436   4.056   1.532   4.128 -1.4362  1.1112 -0.3103
  110SAPE   H6Y11437   4.130   1.690   4.103 -0.5854 -0.5155  0.9152
  110SAPE   C3711438   4.235   1.571   4.261 -0.4096  0.2073  0.6301
  110SAPE   H7X11439   4.315   1.648   4.261 -1.5301  1.5824 -3.1494
  110SAPE   H7Y11440   4.282   1.471   4.249  1.1598  0.9972 -0.2372
  110SAPE   C3811441   4.155   1.575   4.386 -0.1650  0.5717 -0.7980
  110SAPE   H8X11442   4.069   1.509   4.367 -0.7487  0.8370  0.8114
  110SAPE   H8Y11443   4.109   1.674   4.408  3.0668  1.4353  3.3824
  110SAPE   C3911444   4.234   1.541   4.511 -0.1028  0.2077 -0.6089
  110SAPE   H9X11445   4.313   1.616   4.532 -1.3022  1.6998 -1.1827
  110SAPE   H9Y11446   4.267   1.436   4.503 -1.9935 -0.3548 -1.8233
  110SAPE  C31011447   4.149   1.543   4.643 -0.5356 -0.0145 -0.3366
  110SAPE  H10X11448   4.068   1.467   4.636 -0.2054 -0.5760  1.4603
  110SAPE  H10Y11449   4.111   1.647   4.654 -1.4234 -0.3424 -0.2265
  110SAPE  C31111450   4.230   1.506   4.770 -0.0863  0.0649 -0.4160
  110SAPE  H11X11451   4.323   1.565   4.779  0.2042 -0.4295 -0.1584
  110SAPE  H11Y11452   4.265   1.401   4.772 -2.4138 -0.7733 -0.2609
  110SAPE  C31211453   4.147   1.526   4.893  0.5109  0.3000 -0.3751
  110SAPE  H12X11454   4.061   1.457   4.898  0.9118 -0.1176  2.4888
  110SAPE  H12Y11455   4.101   1.627   4.895 -1.6909 -0.5750 -2.4936
  110SAPE  C31311456   4.220   1.492   5.018 -0.4716  0.3441  0.3498
  110SAPE  H13X11457   4.306   1.563   5.024 -0.3328  0.4057 -1.6490
  110SAPE  H13Y11458   4.260   1.390   4.999 -2.8380 -0.3924 -1.0717
  110SAPE  C31411459   4.122   1.489   5.136 -0.4046 -0.7121  0.3234
  110SAPE  H14X11460   4.035   1.428   5.103 -0.1122 -0.4878 -0.9257
  110SAPE  H14Y11461   4.080   1.591   5.148 -1.5367 -0.8788 -1.7839
  110SAPE  C31511462   4.181   1.431   5.265  0.3217 -0.5021 -0.2316
  110SAPE  H15X11463   4.278   1.486   5.271 -0.5330  0.9861  0.4572
  110SAPE  H15Y11464   4.214   1.326   5.252 -0.9404 -1.1129  1.1980
  110SAPE  C31611465   4.093   1.447   5.388 -0.1516 -0.7278  0.6913
  110SAPE  H16X11466   4.000   1.388   5.373 -0.9994  0.8131 -0.3225
  110SAPE  H16Y11467   4.062   1.553   5.396 -0.0848 -0.7551  1.4063
  110SAPE  C31711468   4.163   1.409   5.522  0.1313  0.3013  0.3581
  110SAPE  H17X11469   4.267   1.446   5.514  0.9187 -1.3453  2.1223
  110SAPE  H17Y11470   4.167   1.298   5.524 -2.2461  0.0317 -2.3014
  110SAPE  C31811471   4.085   1.462   5.636 -0.3307  0.3476 -0.0217
  110SAPE  H18X11472   4.001   1.395   5.665  0.7729 -2.0544 -1.8960
  110SAPE  H18Y11473   4.072   1.572   5.629  0.3817  0.3440 -3.4428
  110SAPE  H18Z11474   4.144   1.447   5.729 -2.9303 -0.1108  1.6425
  111SAPE     N11475   3.620   2.192   2.988  0.8348  0.1823 -0.5443
  111SAPE   HN111476   3.558   2.181   2.905 -2.1909 -0.0121  1.5722
  111SAPE   HN211477   3.675   2.278   2.968  1.4496 -0.3312 -1.1142
  111SAPE   HN311478   3.683   2.109   2.996  1.4159  0.4727 -1.9008
  111SAPE   C1211479   3.521   2.204   3.113 -0.5510  0.2982 -0.7072
  111SAPE  H12A11480   3.582   2.177   3.201 -0.4643 -0.0631 -0.8731
  111SAPE  H12B11481   3.445   2.123   3.101 -3.0234  2.4946 -0.5896
  111SAPE   C1111482   3.469   2.348   3.128  0.3737  0.3338 -0.7695
  111SAPE  H11A11483   3.551   2.418   3.153  0.9039 -0.6951  0.5050
  111SAPE  H11B11484   3.405   2.341   3.218  2.0171 -1.8079  0.3291
  111SAPE     P11485   3.237   2.373   3.000 -0.0969  0.2541  0.1255
  111SAPE   O1311486   3.199   2.464   2.889  0.3721  0.8624 -0.2598
  111SAPE   O1411487   3.206   2.228   2.982 -0.4694  0.3392  0.5251
  111SAPE   O1211488   3.399   2.391   3.007 -0.1586 -0.1765 -0.9332
  111SAPE   O1111489   3.193   2.438   3.136  0.6467  0.0493  0.3981
  111SAPE    C111490   3.088   2.535   3.142 -0.2428 -0.4155 -0.5133
  111SAPE    HA11491   3.019   2.520   3.056  0.4840 -1.3949 -0.9393
  111SAPE    HB11492   3.027   2.515   3.233  3.0087 -1.0168  1.6924
  111SAPE    C211493   3.158   2.674   3.154  0.0927  0.1031 -0.0756
  111SAPE    HS11494   3.223   2.672   3.064  1.3365 -0.9765  0.7997
  111SAPE   O2111495   3.238   2.653   3.270  0.2170  0.0762 -0.1767
  111SAPE   C2111496   3.313   2.759   3.311  0.6064  0.2095  0.4904
  111SAPE   O2211497   3.332   2.857   3.247  0.0349  0.1891  0.5263
  111SAPE   C2211498   3.381   2.722   3.441 -0.4382 -0.0246 -0.1016
  111SAPE   H2R11499   3.312   2.761   3.519  0.4902 -2.0097  1.7923
  111SAPE   H2S11500   3.403   2.614   3.454  2.1592  0.5140  0.5116
  111SAPE    C311501   3.053   2.794   3.157 -0.5458  0.4372  0.3018
  111SAPE    HX11502   2.981   2.791   3.072  1.4935  0.7885 -1.5415
  111SAPE    HY11503   3.110   2.888   3.139 -1.9558  1.2183 -0.2806
  111SAPE   O3111504   2.981   2.805   3.284 -0.2810  0.1484 -0.1637
  111SAPE   C3111505   2.851   2.769   3.283  0.1005 -0.3435 -0.1676
  111SAPE   O3211506   2.788   2.750   3.181 -0.0252  0.0940 -0.2530
  111SAPE   C3211507   2.794   2.762   3.426 -0.0313  0.7953  0.0496
  111SAPE   H2X11508   2.692   2.718   3.430 -0.4876  1.8671  0.5296
  111SAPE   H2Y11509   2.785   2.861   3.476 -0.9840  1.5411 -1.5087
  111SAPE   C2311510   3.518   2.792   3.460 -0.1224  0.2254 -0.4431
  111SAPE   H3R11511   3.520   2.889   3.406 -0.2795 -0.8890 -2.5561
  111SAPE   H3S11512   3.593   2.728   3.408  1.5634  1.0830  0.8275
  111SAPE   C2411513   3.544   2.818   3.606 -0.0536 -0.4619  0.5265
  111SAPE   H4R11514   3.456   2.876   3.641  0.0118  0.5656 -0.9132
  111SAPE   H4S11515   3.634   2.880   3.627  0.3410 -1.6906  2.7006
  111SAPE   C2511516   3.561   2.695   3.694 -0.0008 -0.1737 -0.0722
  111SAPE   H5R11517   3.573   2.607   3.629 -0.6479  1.2143 -2.1782
  111SAPE   C2611518   3.557   2.691   3.826 -0.2180 -0.4581  0.1125
  111SAPE   H6R11519   3.568   2.596   3.880  0.2336  0.9335  2.6286
  111SAPE   C2711520   3.533   2.810   3.916  0.3041 -0.7082  0.6258
  111SAPE   H7R11521   3.435   2.798   3.966  0.0293  1.0850  0.5894
  111SAPE   H7S11522   3.526   2.904   3.857  2.6664 -0.8654 -0.0239
  111SAPE   C2811523   3.645   2.828   4.019 -0.8023  0.0139  0.6954
  111SAPE   H8R11524   3.732   2.882   3.979 -0.3126 -0.7354  0.7474
  111SAPE   C2911525   3.630   2.788   4.147 -0.4101 -0.7081 -0.5171
  111SAPE   H9R11526   3.712   2.813   4.215 -0.0892  0.4343 -1.2875
  111SAPE  C21011527   3.508   2.719   4.203  0.2575  0.3057  0.2495
  111SAPE  H10R11528   3.436   2.679   4.128  0.7940 -2.5386  1.1678
  111SAPE  H10S11529   3.455   2.799   4.259  1.1454  0.8723  0.3059
  111SAPE  C21111530   3.560   2.621   4.301  0.5999 -0.8705  0.1618
  111SAPE  H11R11531   3.636   2.560   4.250  0.6090  1.0489 -2.3212
  111SAPE  C21211532   3.531   2.615   4.440 -0.2019 -0.1101 -0.2879
  111SAPE  H12R11533   3.563   2.524   4.494  0.3436  0.1069 -0.2376
  111SAPE  C21311534   3.424   2.690   4.514  0.2056  0.2150  0.0332
  111SAPE  H13R11535   3.355   2.732   4.439 -1.5562  0.5688  1.7576
  111SAPE  H13S11536   3.467   2.777   4.569  0.1285  0.6183 -0.5420
  111SAPE  C21411537   3.347   2.609   4.618  0.3651  0.3858  0.4714
  111SAPE  H14R11538   3.276   2.538   4.574 -0.7483  0.2378  2.3567
  111SAPE  C21511539   3.389   2.582   4.742 -0.0557 -0.3620  0.1904
  111SAPE  H15R11540   3.321   2.516   4.799 -2.1947  1.4357 -0.1187
  111SAPE  C21611541   3.503   2.638   4.822 -0.1639  0.3509  0.5521
  111SAPE  H16R11542   3.581   2.685   4.759  0.6070  0.5650  1.6448
  111SAPE  H16S11543   3.559   2.553   4.866  0.3336 -0.8663 -2.2502
  111SAPE  C21711544   3.447   2.741   4.923 -0.2744  0.2664 -0.0648
  111SAPE  H17R11545   3.395   2.681   5.001  0.2799 -0.1002  0.0353
  111SAPE  H17S11546   3.383   2.817   4.875 -0.5344 -0.2000 -0.4688
  111SAPE  C21811547   3.568   2.800   4.997  0.1600 -0.0467  0.0165
  111SAPE  H18R11548   3.528   2.856   5.084  1.9212 -0.3038  1.0285
  111SAPE  H18S11549   3.624   2.865   4.927  2.9336 -0.4763  1.7105
  111SAPE  C21911550   3.673   2.708   5.056  0.5316  0.4386 -0.3836
  111SAPE  H19R11551   3.745   2.764   5.120 -1.9045  2.8714  0.4201
  111SAPE  H19S11552   3.725   2.653   4.975  0.4382 -1.0450  0.5352
  111SAPE  C22011553   3.611   2.604   5.152  0.0990  0.4608 -0.0132
  111SAPE  H20R11554   3.527   2.546   5.108  0.2966  1.1074 -1.2988
  111SAPE  H20S11555   3.570   2.656   5.242 -0.4501  0.5118 -0.2899
  111SAPE  H20T11556   3.683   2.526   5.184 -1.1644 -1.7705 -2.2736
  111SAPE   C3311557   2.887   2.675   3.514 -0.3432  0.2528 -0.3012
  111SAPE   H3X11558   2.985   2.721   3.537 -0.2212 -0.2561  0.2276
  111SAPE   H3Y11559   2.903   2.584   3.452 -1.3342 -0.1887  0.0777
  111SAPE   C3411560   2.841   2.629   3.652  0.0404 -0.7169  0.4133
  111SAPE   H4X11561   2.823   2.722   3.710 -0.0371  1.0482 -2.2508
  111SAPE   H4Y11562   2.926   2.577   3.702  1.3253 -0.1985 -1.1413
  111SAPE   C3511563   2.709   2.554   3.641  0.0321  0.0684  0.0036
  111SAPE   H5X11564   2.690   2.531   3.534 -1.0436 -0.4586  0.2948
  111SAPE   H5Y11565   2.626   2.622   3.669 -0.5784 -0.8988  0.6368
  111SAPE   C3611566   2.708   2.407   3.696 -0.2073  0.2054  0.2675
  111SAPE   H6X11567   2.801   2.353   3.668  1.0787  1.2499  2.2548
  111SAPE   H6Y11568   2.632   2.349   3.641 -1.0741 -0.4488  2.0945
  111SAPE   C3711569   2.691   2.385   3.847  0.2540  0.0171  1.1778
  111SAPE   H7X11570   2.631   2.473   3.877  1.1147  1.2834 -0.6248
  111SAPE   H7Y11571   2.789   2.370   3.897  0.8222 -0.1569  0.0527
  111SAPE   C3811572   2.599   2.262   3.872  0.3325 -0.7897  0.2284
  111SAPE   H8X11573   2.646   2.165   3.845  1.4982 -0.5003  1.1569
  111SAPE   H8Y11574   2.519   2.286   3.799  0.1025 -0.7548  0.4872
  111SAPE   C3911575   2.538   2.249   4.014 -0.7992  0.0195  0.4317
  111SAPE   H9X11576   2.607   2.195   4.082 -1.4338 -0.5058  0.6701
  111SAPE   H9Y11577   2.448   2.184   4.014 -1.6843  1.1519 -1.5248
  111SAPE  C31011578   2.474   2.379   4.064 -0.5855  0.2896 -0.6924
  111SAPE  H10X11579   2.404   2.413   3.985 -0.0621  0.3998 -1.1181
  111SAPE  H10Y11580   2.550   2.459   4.075 -0.1360  0.2137 -2.8686
  111SAPE  C31111581   2.395   2.359   4.196 -0.1606 -0.7852 -0.5034
  111SAPE  H11X11582   2.343   2.261   4.185  1.9168 -1.8969 -0.9612
  111SAPE  H11Y11583   2.324   2.444   4.202  1.3373  0.5552 -1.0055
  111SAPE  C31211584   2.480   2.351   4.326 -0.4459  0.1074  0.5272
  111SAPE  H12X11585   2.550   2.437   4.312 -1.5536  0.8568 -0.6028
  111SAPE  H12Y11586   2.538   2.256   4.322 -2.2867 -1.0311 -0.2265
  111SAPE  C31311587   2.397   2.353   4.450 -0.6141 -0.0904  0.3489
  111SAPE  H13X11588   2.325   2.268   4.457  0.4051 -1.0273 -0.1463
  111SAPE  H13Y11589   2.332   2.442   4.438 -0.3050  0.1640  0.5708
  111SAPE  C31411590   2.489   2.370   4.570 -0.4245  0.0903 -0.2331
  111SAPE  H14X11591   2.534   2.472   4.571  3.5665 -1.4133  2.9388
  111SAPE  H14Y11592   2.566   2.291   4.561 -2.4252 -1.9515 -0.2899
  111SAPE  C31511593   2.410   2.360   4.703 -0.1005 -0.1107 -0.3916
  111SAPE  H15X11594   2.320   2.296   4.688 -0.2570 -0.3480  1.2722
  111SAPE  H15Y11595   2.363   2.457   4.731 -0.2476 -0.1711 -0.4275
  111SAPE  C31611596   2.505   2.311   4.816  0.5095 -0.4864  0.1872
  111SAPE  H16X11597   2.601   2.363   4.830  0.7810 -0.2042 -2.2084
  111SAPE  H16Y11598   2.519   2.205   4.786  0.6141 -0.0152 -1.5360
  111SAPE  C31711599   2.431   2.327   4.953  0.4027 -0.3018 -0.0676
  111SAPE  H17X11600   2.331   2.277   4.949  0.2367 -0.0317  0.6131
  111SAPE  H17Y11601   2.418   2.435   4.973  0.6844 -0.3794  0.5268
  111SAPE  C31811602   2.507   2.272   5.073 -0.2615  0.5392 -0.1287
  111SAPE  H18X11603   2.454   2.303   5.165  1.0889  2.8786 -0.0559
  111SAPE  H18Y11604   2.613   2.304   5.068 -0.7764  2.1879 -1.2858
  111SAPE  H18Z11605   2.500   2.161   5.071  1.0436  0.3807  1.7561
  112SAPE     N11606   1.107   0.352   2.914 -0.0927 -0.0039 -0.0658
  112SAPE   HN111607   1.139   0.450   2.901 -0.2566 -0.2945 -3.4895
  112SAPE   HN211608   1.194   0.318   2.959 -0.7218 -0.6107  0.7322
  112SAPE   HN311609   1.113   0.305   2.822  4.2845  1.6115 -0.8619
  112SAPE   C1211610   0.982   0.341   3.000 -0.4508  1.0381  0.0254
  112SAPE  H12A11611   0.969   0.235   3.028 -0.6663  1.9160  3.6827
  112SAPE  H12B11612   0.890   0.376   2.946 -1.1128  1.5746  1.4571
  112SAPE   C1111613   0.985   0.426   3.132  1.2627  0.5740 -0.7326
  112SAPE  H11A11614   1.076   0.399   3.190 -0.0741  1.9848  2.2481
  112SAPE  H11B11615   0.888   0.402   3.182  0.4949  0.1786 -2.3346
  112SAPE     P11616   0.859   0.646   3.111 -0.2364 -0.3718  0.3910
  112SAPE   O1311617   0.880   0.785   3.070 -0.2883 -0.0952 -0.9665
  112SAPE   O1411618   0.747   0.574   3.040 -0.1754  0.4058 -0.1232
  112SAPE   O1211619   0.992   0.560   3.099  0.0656  0.1588 -0.1859
  112SAPE   O1111620   0.836   0.639   3.262  0.0472  0.2272 -0.1932
  112SAPE    C111621   0.944   0.652   3.348 -0.7113 -0.4753  0.0516
  112SAPE    HA11622   1.029   0.586   3.323  1.5997  2.3010  0.0275
  112SAPE    HB11623   0.977   0.758   3.349  0.4142 -0.8210  1.2623
  112SAPE    C211624   0.916   0.621   3.496  0.4207  0.0300  0.1039
  112SAPE    HS11625   0.811   0.653   3.514  0.9527  2.3622 -0.4869
  112SAPE   O2111626   1.000   0.716   3.573  0.9137  0.5804 -0.3396
  112SAPE   C2111627   0.967   0.847   3.574 -0.6397 -0.0666  0.0364
  112SAPE   O2211628   0.871   0.897   3.527  0.1112  0.2232 -0.1750
  112SAPE   C2211629   1.079   0.927   3.641  0.2058 -0.0034  0.3253
  112SAPE   H2R11630   1.177   0.897   3.599 -0.0185  2.7242 -2.5736
  112SAPE   H2S11631   1.047   1.031   3.619  0.7386  0.2183  0.5968
  112SAPE    C311632   0.947   0.477   3.532 -0.1530  0.7592 -0.1108
  112SAPE    HX11633   1.058   0.476   3.531 -0.1453 -0.6900 -0.7576
  112SAPE    HY11634   0.896   0.409   3.460 -1.5411  2.0224 -0.3794
  112SAPE   O3111635   0.899   0.448   3.663 -1.3827 -0.3360 -0.2925
  112SAPE   C3111636   0.970   0.360   3.740 -0.6689 -0.1618 -0.4543
  112SAPE   O3211637   1.060   0.286   3.704 -0.5459 -0.7368  0.2389
  112SAPE   C3211638   0.899   0.347   3.885  0.5321  0.2523  0.2299
  112SAPE   H2X11639   0.880   0.240   3.906  1.8701 -0.0499 -0.0119
  112SAPE   H2Y11640   0.804   0.402   3.868  0.5091  0.3535  0.6619
  112SAPE   C2311641   1.073   0.903   3.792 -0.3560 -1.2956  0.0664
  112SAPE   H3R11642   1.054   0.795   3.809 -3.8427 -0.8710 -0.5674
  112SAPE   H3S11643   0.985   0.952   3.838 -0.0984 -0.2822 -0.4777
  112SAPE   C2411644   1.206   0.939   3.867 -0.0607  0.2224 -0.5197
  112SAPE   H4R11645   1.289   0.884   3.818 -0.4923  0.4121 -1.4985
  112SAPE   H4S11646   1.207   0.901   3.971 -1.5277  2.8431  0.5426
  112SAPE   C2511647   1.226   1.090   3.864 -1.0452 -0.7482  0.0197
  112SAPE   H5R11648   1.265   1.126   3.767 -1.2297 -0.0446  0.2001
  112SAPE   C2611649   1.196   1.182   3.961  0.2816  0.2360  0.2879
  112SAPE   H6R11650   1.207   1.290   3.945 -0.5572  0.1021 -1.4389
  112SAPE   C2711651   1.159   1.142   4.102  0.2987 -0.6133 -0.7655
  112SAPE   H7R11652   1.239   1.159   4.177 -0.1557  0.7526 -0.5603
  112SAPE   H7S11653   1.133   1.034   4.105 -1.5541 -0.2242 -1.1624
  112SAPE   C2811654   1.029   1.204   4.153 -0.3871 -0.3506  0.2363
  112SAPE   H8R11655   0.948   1.183   4.081  0.3136 -1.0816 -0.3611
  112SAPE   C2911656   1.003   1.287   4.260 -0.0556 -1.1120 -0.0800
  112SAPE   H9R11657   0.897   1.315   4.266 -0.0608 -1.0128 -0.5779
  112SAPE  C21011658   1.098   1.330   4.369 -0.1124  0.3887  0.2447
  112SAPE  H10R11659   1.069   1.427   4.414  1.2233  1.2296 -0.6202
  112SAPE  H10S11660   1.197   1.352   4.321  0.1508 -0.5417  0.3408
  112SAPE  C21111661   1.110   1.214   4.464  0.4042  0.5491 -0.3486
  112SAPE  H11R11662   1.106   1.114   4.419  0.1546  0.4511 -0.1138
  112SAPE  C21211663   1.113   1.219   4.600 -0.5664  0.0646  0.9113
  112SAPE  H12R11664   1.101   1.126   4.659 -0.5863  0.6933  1.9308
  112SAPE  C21311665   1.131   1.348   4.679 -0.1370 -0.0041 -0.2927
  112SAPE  H13R11666   1.039   1.353   4.741 -1.0717 -1.3186 -1.5295
  112SAPE  H13S11667   1.146   1.441   4.620  1.2036  0.5292  0.8281
  112SAPE  C21411668   1.258   1.340   4.754 -0.1009 -0.0808  0.0538
  112SAPE  H14R11669   1.344   1.334   4.685 -0.9517 -0.7801 -0.9689
  112SAPE  C21511670   1.281   1.345   4.885  0.6933  0.4371 -0.2230
  112SAPE  H15R11671   1.382   1.339   4.929 -0.5758 -1.0200  2.7714
  112SAPE  C21611672   1.163   1.342   4.985 -0.0134 -0.1582  0.0499
  112SAPE  H16R11673   1.066   1.300   4.950 -0.0944 -0.4553  0.6098
  112SAPE  H16S11674   1.132   1.445   5.014 -0.9939 -0.2770 -0.5342
  112SAPE  C21711675   1.187   1.276   5.118  0.3403 -0.4452 -0.2820
  112SAPE  H17R11676   1.104   1.305   5.185  2.0081 -0.5753  1.9726
  112SAPE  H17S11677   1.277   1.316   5.170 -1.4058  1.3142  1.5644
  112SAPE  C21811678   1.188   1.121   5.103 -0.2544  0.7125  0.0660
  112SAPE  H18R11679   1.277   1.108   5.038 -0.8465 -2.6500 -0.2572
  112SAPE  H18S11680   1.105   1.071   5.050  0.6375 -1.5848  0.7022
  112SAPE  C21911681   1.195   1.050   5.236  0.0828  0.0839  0.2969
  112SAPE  H19R11682   1.096   1.050   5.286 -0.5755 -1.4981 -0.9147
  112SAPE  H19S11683   1.266   1.097   5.307  1.8365  0.0193 -1.3409
  112SAPE  C22011684   1.237   0.900   5.220 -0.0414  0.1817  0.3449
  112SAPE  H20R11685   1.340   0.902   5.178  0.5032 -0.2266  1.6263
  112SAPE  H20S11686   1.166   0.868   5.140 -2.4766  1.5037  1.8715
  112SAPE  H20T11687   1.231   0.839   5.313  1.2683  0.7115  0.7946
  112SAPE   C3311688   0.991   0.398   4.000  0.2585  0.2411 -0.3226
  112SAPE   H3X11689   1.028   0.501   3.983  2.8512 -0.6443 -0.4327
  112SAPE   H3Y11690   1.080   0.335   4.022 -0.3485 -0.2097  0.9743
  112SAPE   C3411691   0.916   0.392   4.128  0.4461 -1.3699  0.3329
  112SAPE   H4X11692   0.884   0.287   4.141  1.1541 -2.0939 -2.8180
  112SAPE   H4Y11693   0.822   0.448   4.109  0.2017 -2.1551 -0.9284
  112SAPE   C3511694   0.993   0.451   4.244  0.3693 -0.2085  0.5168
  112SAPE   H5X11695   1.011   0.557   4.217 -0.9037 -0.2530 -0.6187
  112SAPE   H5Y11696   1.093   0.402   4.247  0.5157  0.0481  0.0353
  112SAPE   C3611697   0.916   0.438   4.376  0.0292  0.3858  0.6672
  112SAPE   H6X11698   0.816   0.486   4.368 -1.0727 -1.7009  0.8998
  112SAPE   H6Y11699   0.976   0.496   4.449  1.6250  0.8462 -0.9383
  112SAPE   C3711700   0.890   0.292   4.419 -0.8518  0.2530 -0.4058
  112SAPE   H7X11701   0.988   0.241   4.428 -0.6664  0.5968 -0.4710
  112SAPE   H7Y11702   0.825   0.240   4.345 -0.9947 -0.0288 -0.0861
  112SAPE   C3811703   0.834   0.287   4.563  0.3148  0.1918  0.0131
  112SAPE   H8X11704   0.763   0.203   4.564 -0.8614  1.1452  1.8057
  112SAPE   H8Y11705   0.764   0.372   4.574 -0.1436 -0.0065 -1.1721
  112SAPE   C3911706   0.930   0.292   4.679 -0.0673 -0.1473 -0.3294
  112SAPE   H9X11707   1.006   0.373   4.681 -1.1708  0.9041  1.9098
  112SAPE   H9Y11708   0.981   0.193   4.670  2.1563  0.7714  1.2526
  112SAPE  C31011709   0.856   0.290   4.817 -0.2846  0.1037 -0.4957
  112SAPE  H10X11710   0.822   0.184   4.827 -1.2617  0.4357 -0.1983
  112SAPE  H10Y11711   0.773   0.363   4.825 -0.6867 -0.5468  2.4062
  112SAPE  C31111712   0.951   0.323   4.936 -0.3067 -0.4810 -0.3487
  112SAPE  H11X11713   1.052   0.284   4.910  0.1284  0.0003  0.5795
  112SAPE  H11Y11714   0.916   0.268   5.026 -1.1406  1.3817  0.5228
  112SAPE  C31211715   0.970   0.468   4.971 -0.2168 -0.2467  0.4648
  112SAPE  H12X11716   0.872   0.509   4.940  0.6019 -0.2924 -2.4582
  112SAPE  H12Y11717   1.029   0.527   4.898 -2.7034  2.5771  0.5226
  112SAPE  C31311718   1.005   0.500   5.115  0.6342  0.3038 -0.4752
  112SAPE  H13X11719   1.110   0.466   5.126  1.3865  1.9452 -1.9330
  112SAPE  H13Y11720   0.934   0.451   5.185  0.4453  1.1363 -0.0719
  112SAPE  C31411721   0.999   0.657   5.144 -0.9587  0.7942  0.0141
  112SAPE  H14X11722   1.040   0.710   5.055 -2.1567  0.4170 -0.7828
  112SAPE  H14Y11723   1.064   0.677   5.232  1.2567  1.5440 -1.6737
  112SAPE  C31511724   0.850   0.697   5.166 -0.8318 -0.3902  0.4277
  112SAPE  H15X11725   0.794   0.632   5.096 -2.3185  0.8493  0.4075
  112SAPE  H15Y11726   0.843   0.806   5.143  2.1612 -0.2876 -0.5025
  112SAPE  C31611727   0.805   0.674   5.307  0.2189  0.9356  0.6458
  112SAPE  H16X11728   0.862   0.713   5.394 -1.0947  0.0911  1.9151
  112SAPE  H16Y11729   0.810   0.564   5.315 -1.4821  0.5208 -2.4055
  112SAPE  C31711730   0.655   0.692   5.338  0.1616 -0.4194  0.2054
  112SAPE  H17X11731   0.599   0.665   5.246 -0.5967  1.7955 -0.0489
  112SAPE  H17Y11732   0.635   0.800   5.354  0.2396 -0.5320  1.1304
  112SAPE  C31811733   0.588   0.627   5.461  0.4650  0.3460 -0.0547
  112SAPE  H18X11734   0.621   0.522   5.476 -1.6392 -0.5020 -0.9795
  112SAPE  H18Y11735   0.479   0.624   5.442  0.6343 -0.0597 -1.0597
  112SAPE  H18Z11736   0.617   0.689   5.548 -2.4762 -0.5271  1.6808
  113SAPE     N11737   0.438   5.876   3.247 -0.3247 -0.4205 -0.5360
  113SAPE   HN111738   0.471   5.845   3.341  0.3244  2.3223  0.2494
  113SAPE   HN211739   0.515   5.939   3.218 -0.3660 -0.6425 -1.1427
  113SAPE   HN311740   0.351   5.932   3.259 -0.6972 -1.1377  0.2350
  113SAPE   C1211741   0.425   5.765   3.150 -0.7840  0.2992  0.3856
  113SAPE  H12A11742   0.378   5.804   3.057  2.4746 -1.7984 -2.3684
  113SAPE  H12B11743   0.357   5.690   3.196 -0.7931  1.0000  1.5836
  113SAPE   C1111744   0.566   5.698   3.134 -0.2085  0.1278  0.5380
  113SAPE  H11A11745   0.643   5.777   3.117  0.5702 -0.6120  0.5290
  113SAPE  H11B11746   0.570   5.627   3.049  1.0869 -0.7799  1.3227
  113SAPE     P11747   0.568   5.484   3.288 -0.5055  0.1624  0.2311
  113SAPE   O1311748   0.441   5.455   3.213  0.0431  0.1450  0.4895
  113SAPE   O1411749   0.695   5.422   3.238 -0.4597  0.1795 -0.0319
  113SAPE   O1211750   0.596   5.640   3.266 -0.1932 -0.3159  1.0801
  113SAPE   O1111751   0.531   5.464   3.442  0.1526  0.3004  0.6015
  113SAPE    C111752   0.621   5.479   3.551  0.2372 -1.1330 -0.5551
  113SAPE    HA11753   0.595   5.416   3.639  0.8222 -0.1167  0.3674
  113SAPE    HB11754   0.724   5.457   3.516  0.6103  1.6012 -1.4607
  113SAPE    C211755   0.625   5.623   3.600 -0.3079  0.3332 -0.3380
  113SAPE    HS11756   0.632   5.690   3.511  0.6483 -0.2562 -0.7238
  113SAPE   O2111757   0.736   5.635   3.694  0.2356 -0.5807 -0.5251
  113SAPE   C2111758   0.855   5.650   3.633  0.0927 -0.1349 -0.5691
  113SAPE   O2211759   0.875   5.651   3.515 -0.0699 -0.0044  0.0171
  113SAPE   C2211760   0.965   5.687   3.741  0.5992 -0.2032  0.2007
  113SAPE   H2R11761   1.053   5.735   3.692  2.5005 -1.6200  2.0364
  113SAPE   H2S11762   0.930   5.757   3.819 -1.3131 -0.4546 -0.3756
  113SAPE    C311763   0.490   5.657   3.676  0.2088 -0.0137  0.1625
  113SAPE    HX11764   0.481   5.596   3.769 -1.0543 -0.5507 -0.2810
  113SAPE    HY11765   0.403   5.639   3.609 -0.4336  1.4429  0.5708
  113SAPE   O3111766   0.489   5.792   3.713 -0.6156  0.5532 -0.3823
  113SAPE   C3111767   0.493   5.888   3.628  0.1150 -0.1264  0.3324
  113SAPE   O3211768   0.479   5.879   3.506  0.2174  0.6853 -0.0723
  113SAPE   C3211769   0.497   6.024   3.702  0.6635 -0.4657 -0.3921
  113SAPE   H2X11770   0.450   6.095   3.630 -1.4551 -2.2889 -0.9121
  113SAPE   H2Y11771   0.606   6.049   3.705  0.5811 -0.1265 -0.1924
  113SAPE   C2311772   1.034   5.564   3.808 -0.4593 -0.0716 -0.6258
  113SAPE   H3R11773   1.105   5.502   3.748 -0.5873 -0.7565 -0.0829
  113SAPE   H3S11774   0.950   5.503   3.847  1.6051 -2.5922  0.1714
  113SAPE   C2411775   1.088   5.615   3.943 -0.0769 -0.0047  0.1157
  113SAPE   H4R11776   1.121   5.529   4.005 -1.8333 -2.3214 -1.9537
  113SAPE   H4S11777   1.008   5.666   4.001 -0.4030 -0.1055 -0.2407
  113SAPE   C2511778   1.207   5.710   3.940 -0.1209  0.1204  0.2646
  113SAPE   H5R11779   1.205   5.786   3.861  0.6211  0.2447  0.3574
  113SAPE   C2611780   1.314   5.708   4.021  0.2237 -0.7072 -0.7897
  113SAPE   H6R11781   1.392   5.777   3.987 -0.1563 -0.8199 -1.9124
  113SAPE   C2711782   1.348   5.627   4.148  0.7513  0.4086  0.0931
  113SAPE   H7R11783   1.459   5.629   4.143  0.7464 -0.4894 -3.8124
  113SAPE   H7S11784   1.329   5.517   4.142  0.3088  0.3273  2.2191
  113SAPE   C2811785   1.285   5.675   4.275 -0.3364  0.0837 -0.5715
  113SAPE   H8R11786   1.228   5.768   4.265  0.4866  0.6637  0.0538
  113SAPE   C2911787   1.311   5.627   4.400  0.4598  0.1078 -0.0559
  113SAPE   H9R11788   1.259   5.673   4.486 -1.2537  1.8049 -1.8765
  113SAPE  C21011789   1.384   5.504   4.423 -0.0673 -0.0886  0.0181
  113SAPE  H10R11790   1.467   5.536   4.489 -0.7079 -1.5773  1.6117
  113SAPE  H10S11791   1.414   5.449   4.332 -0.5013  0.7960 -0.6832
  113SAPE  C21111792   1.298   5.413   4.504 -0.3728 -0.5991  0.6580
  113SAPE  H11R11793   1.256   5.332   4.443  1.3120 -2.0616  1.3451
  113SAPE  C21211794   1.306   5.388   4.632 -0.8502 -0.2710 -0.1639
  113SAPE  H12R11795   1.238   5.319   4.686  1.2543 -0.7334  2.0703
  113SAPE  C21311796   1.398   5.453   4.743  0.1071  0.5482 -0.3908
  113SAPE  H13R11797   1.485   5.505   4.698  1.3586 -1.0283  0.1279
  113SAPE  H13S11798   1.449   5.379   4.808  0.9773  0.6096 -0.9918
  113SAPE  C21411799   1.312   5.552   4.831 -0.4467  0.2616 -0.4944
  113SAPE  H14R11800   1.243   5.619   4.778 -0.3451 -0.0734 -1.0605
  113SAPE  C21511801   1.274   5.527   4.956 -0.0959 -0.0890 -0.4759
  113SAPE  H15R11802   1.201   5.592   5.006 -0.3903 -0.6676 -0.1410
  113SAPE  C21611803   1.318   5.417   5.051 -0.2114 -0.0118  0.7303
  113SAPE  H16R11804   1.364   5.456   5.145  0.5046 -1.1728  0.8828
  113SAPE  H16S11805   1.399   5.355   5.006  0.5125  0.5079  1.2807
  113SAPE  C21711806   1.191   5.341   5.086  0.5370  0.0795  0.0536
  113SAPE  H17R11807   1.154   5.295   4.992 -0.3144 -0.3467  0.5869
  113SAPE  H17S11808   1.110   5.404   5.128 -0.3107 -2.0563  1.8828
  113SAPE  C21811809   1.212   5.230   5.191 -0.5658 -0.3413 -0.2168
  113SAPE  H18R11810   1.283   5.151   5.157  1.0535  1.1345 -0.4215
  113SAPE  H18S11811   1.114   5.177   5.189 -0.8529  0.1890 -0.4896
  113SAPE  C21911812   1.274   5.275   5.320 -1.1685  0.0852  0.2903
  113SAPE  H19R11813   1.374   5.317   5.299 -1.0057 -0.5686 -0.2604
  113SAPE  H19S11814   1.298   5.185   5.382 -0.1168  0.8947  1.0837
  113SAPE  C22011815   1.194   5.364   5.400 -0.5799  0.1812 -0.0686
  113SAPE  H20R11816   1.091   5.327   5.420 -0.3523 -1.3368 -1.4581
  113SAPE  H20S11817   1.180   5.464   5.354 -2.7275  0.0640  0.2068
  113SAPE  H20T11818   1.241   5.375   5.500 -0.1916  0.3026 -0.2621
  113SAPE   C3311819   0.443   6.026   3.850  0.0276  0.0899  0.3749
  113SAPE   H3X11820   0.474   5.939   3.913  0.4041 -0.2000 -0.1981
  113SAPE   H3Y11821   0.336   6.003   3.830  0.0214 -1.1198  1.6480
  113SAPE   C3411822   0.466   6.154   3.924  0.7857 -1.0146  0.5896
  113SAPE   H4X11823   0.373   6.214   3.914  1.9101  0.5195 -1.4469
  113SAPE   H4Y11824   0.544   6.212   3.870 -0.2978 -0.4625 -0.4553
  113SAPE   C3511825   0.496   6.137   4.076  0.3765  0.4711 -0.3766
  113SAPE   H5X11826   0.515   6.239   4.117  0.5587  0.3518 -0.1623
  113SAPE   H5Y11827   0.587   6.074   4.083  0.2995  0.4145  0.2357
  113SAPE   C3611828   0.385   6.064   4.156  0.1075  0.6971  0.3878
  113SAPE   H6X11829   0.349   5.980   4.092  2.5020  0.6373 -0.9999
  113SAPE   H6Y11830   0.317   6.145   4.189  1.7444  2.6233 -0.7473
  113SAPE   C3711831   0.440   5.987   4.279 -0.2539  0.4457 -0.1920
  113SAPE   H7X11832   0.504   5.904   4.243  3.3059  1.9095  2.2229
  113SAPE   H7Y11833   0.361   5.949   4.347  0.2484  0.7896  0.5916
  113SAPE   C3811834   0.548   6.067   4.365  0.7819  0.1582  0.8419
  113SAPE   H8X11835   0.646   6.073   4.314 -1.2837 -3.3074 -4.4000
  113SAPE   H8Y11836   0.497   6.165   4.377 -0.8534 -0.5174 -0.2974
  113SAPE   C3911837   0.568   6.000   4.502  0.4448 -0.4209  0.5280
  113SAPE   H9X11838   0.633   5.915   4.472  0.4972  0.6909 -3.1077
  113SAPE   H9Y11839   0.470   5.987   4.552 -0.8426  2.9051 -0.8606
  113SAPE  C31011840   0.643   6.095   4.599  0.0958  0.0046  0.0518
  113SAPE  H10X11841   0.580   6.184   4.621  2.2148  2.7586 -3.7284
  113SAPE  H10Y11842   0.737   6.128   4.550 -0.3524 -0.3312 -1.0630
  113SAPE  C31111843   0.668   6.016   4.731 -0.5851  0.1067 -1.0798
  113SAPE  H11X11844   0.730   5.927   4.707 -0.6694 -0.0639 -0.6695
  113SAPE  H11Y11845   0.571   5.979   4.772 -0.5294  0.8911 -0.1880
  113SAPE  C31211846   0.735   6.110   4.837  0.8055  0.3086  0.0803
  113SAPE  H12X11847   0.655   6.172   4.882  0.7699  0.5147 -0.2679
  113SAPE  H12Y11848   0.803   6.176   4.779  0.3262  0.2289 -0.5827
  113SAPE  C31311849   0.811   6.034   4.936 -0.4398  0.1294  0.2150
  113SAPE  H13X11850   0.887   5.974   4.881 -0.0742  1.5266 -0.8467
  113SAPE  H13Y11851   0.744   5.955   4.977 -2.3660  2.0098  0.9056
  113SAPE  C31411852   0.877   6.111   5.049 -0.1925 -0.2075  0.5240
  113SAPE  H14X11853   0.828   6.209   5.069 -0.2957 -0.1969  0.2332
  113SAPE  H14Y11854   0.984   6.137   5.034 -0.9879  2.7904 -0.7295
  113SAPE  C31511855   0.890   6.028   5.173 -0.2728 -0.8880 -0.6943
  113SAPE  H15X11856   0.792   5.980   5.193 -0.5803  0.9568  3.1003
  113SAPE  H15Y11857   0.938   6.091   5.250  0.6986  1.2720 -2.9373
  113SAPE  C31611858   0.998   5.923   5.156 -0.7037 -0.2328  0.3149
  113SAPE  H16X11859   1.089   5.973   5.115 -0.5930 -0.1110  0.7025
  113SAPE  H16Y11860   0.975   5.845   5.081 -1.0870 -0.2192  0.4178
  113SAPE  C31711861   1.012   5.847   5.286  0.7318 -1.1839  0.7161
  113SAPE  H17X11862   0.909   5.809   5.303  0.4072 -1.0298 -0.7639
  113SAPE  H17Y11863   1.028   5.913   5.374 -1.6984  0.2833  0.1657
  113SAPE  C31811864   1.104   5.731   5.290 -0.1999 -0.0077  0.5183
  113SAPE  H18X11865   1.115   5.692   5.186  2.6344 -0.5951  0.9602
  113SAPE  H18Y11866   1.086   5.655   5.369 -0.4161 -0.9727 -0.4287
  113SAPE  H18Z11867   1.211   5.760   5.299  0.4644 -1.8482 -0.7734
  114SAPE     N11868   4.273   0.834   3.376 -0.2424  0.2596 -0.4777
  114SAPE   HN111869   4.347   0.907   3.373  1.1088 -1.0291  0.0514
  114SAPE   HN211870   4.299   0.812   3.475  0.3002  0.3388 -0.5949
  114SAPE   HN311871   4.307   0.753   3.320  1.5550 -0.8175  1.9448
  114SAPE   C1211872   4.134   0.888   3.366  0.0851 -0.3792  0.8025
  114SAPE  H12A11873   4.069   0.803   3.336  2.1968 -2.1700  0.9523
  114SAPE  H12B11874   4.134   0.968   3.290  0.2400 -1.0098  0.1252
  114SAPE   C1111875   4.078   0.934   3.504 -0.1834  0.4034  0.8260
  114SAPE  H11A11876   3.969   0.954   3.501 -0.2684  0.0449  1.3373
  114SAPE  H11B11877   4.138   1.024   3.532 -0.5060  0.5375  1.0971
  114SAPE     P11878   4.007   0.723   3.650 -0.0153  0.4026 -0.4745
  114SAPE   O1311879   3.894   0.711   3.552  0.3088  0.2393 -0.3379
  114SAPE   O1411880   4.065   0.588   3.681  0.1697 -0.6237 -0.2878
  114SAPE   O1211881   4.108   0.825   3.589  0.4891  0.5919 -0.2694
  114SAPE   O1111882   3.951   0.796   3.787 -0.0589 -0.0828  0.0617
  114SAPE    C111883   3.935   0.724   3.908 -0.6068  0.3192  0.0375
  114SAPE    HA11884   4.019   0.651   3.909 -0.8126  0.0841  1.2959
  114SAPE    HB11885   3.932   0.786   4.000 -1.3371 -2.1110  1.7453
  114SAPE    C211886   3.809   0.634   3.919 -0.1531 -0.1741 -0.5286
  114SAPE    HS11887   3.814   0.571   3.828  1.7484 -0.2059 -0.4568
  114SAPE   O2111888   3.705   0.724   3.935 -0.2113 -0.4991  0.3494
  114SAPE   C2111889   3.586   0.704   3.875 -0.5605  0.1307  0.0081
  114SAPE   O2211890   3.565   0.622   3.791  0.3404  0.1669  0.0083
  114SAPE   C2211891   3.468   0.787   3.937  0.6265 -0.4895 -0.6595
  114SAPE   H2R11892   3.384   0.769   3.867  0.3910 -4.0811  0.3183
  114SAPE   H2S11893   3.442   0.742   4.036 -0.1268  0.8818 -0.2071
  114SAPE    C311894   3.816   0.534   4.036  0.3870 -0.0044 -0.2070
  114SAPE    HX11895   3.737   0.457   4.023  0.7746 -1.1239  3.1636
  114SAPE    HY11896   3.794   0.597   4.125  1.4267  0.4330 -0.2356
  114SAPE   O3111897   3.946   0.479   4.066  0.4449  0.0619  0.2587
  114SAPE   C3111898   3.988   0.384   3.984  0.6982  0.5750  0.0070
  114SAPE   O3211899   3.920   0.339   3.894  0.6095 -0.0247  0.3833
  114SAPE   C3211900   4.130   0.346   4.022  0.2917 -0.5352 -0.6962
  114SAPE   H2X11901   4.127   0.330   4.131 -2.6528 -2.2357 -0.9361
  114SAPE   H2Y11902   4.200   0.430   4.002  0.4026 -0.1096  1.2985
  114SAPE   C2311903   3.501   0.933   3.967 -0.3574 -0.0575  0.2716
  114SAPE   H3R11904   3.550   0.981   3.880  2.2853  0.4250  1.9243
  114SAPE   H3S11905   3.572   0.935   4.052 -0.5008  0.1298  0.3865
  114SAPE   C2411906   3.377   1.015   4.003  0.3061  0.2341 -0.0210
  114SAPE   H4R11907   3.329   1.052   3.909  0.4481  0.0635 -0.1624
  114SAPE   H4S11908   3.416   1.098   4.066 -0.5614 -0.2242  1.1495
  114SAPE   C2511909   3.260   0.949   4.068  0.4910  0.0727  0.3736
  114SAPE   H5R11910   3.181   0.903   4.007 -1.5028 -0.1422  2.9765
  114SAPE   C2611911   3.231   0.964   4.199 -0.4457  0.6906 -0.1071
  114SAPE   H6R11912   3.144   0.909   4.236 -0.1804 -0.5196 -1.2278
  114SAPE   C2711913   3.293   1.048   4.303 -0.6274 -0.1336 -0.2452
  114SAPE   H7R11914   3.212   1.116   4.335  0.4101  1.1880 -0.3332
  114SAPE   H7S11915   3.377   1.108   4.261  1.1562 -0.4100  2.7052
  114SAPE   C2811916   3.346   0.963   4.415  0.0319  0.3517  0.1623
  114SAPE   H8R11917   3.365   0.856   4.395  1.3198  0.6432 -0.2671
  114SAPE   C2911918   3.390   1.012   4.536 -0.0057 -0.2750 -0.2837
  114SAPE   H9R11919   3.430   0.946   4.614 -1.2506  0.9393  1.4714
  114SAPE  C21011920   3.383   1.161   4.578  0.6438  0.4188  0.4297
  114SAPE  H10R11921   3.331   1.161   4.676 -1.3512 -0.0851 -0.5792
  114SAPE  H10S11922   3.318   1.225   4.516 -1.5191  0.6424  2.7491
  114SAPE  C21111923   3.518   1.218   4.574 -0.2005  0.9386  0.5580
  114SAPE  H11R11924   3.565   1.200   4.476 -1.7968 -0.4386  0.0161
  114SAPE  C21211925   3.590   1.269   4.677 -0.0423 -1.1413 -0.0773
  114SAPE  H12R11926   3.688   1.314   4.655 -0.9389 -0.6884 -3.9286
  114SAPE  C21311927   3.563   1.273   4.818  0.1087 -0.3992  0.0713
  114SAPE  H13R11928   3.456   1.294   4.838  0.0214 -0.8100  0.0351
  114SAPE  H13S11929   3.621   1.359   4.859 -2.8988  1.1624  1.3894
  114SAPE  C21411930   3.578   1.145   4.892 -0.2387 -0.2327 -0.4295
  114SAPE  H14R11931   3.530   1.060   4.842 -2.4092  0.9932 -0.5357
  114SAPE  C21511932   3.637   1.129   5.013 -0.1619  0.3611  0.7951
  114SAPE  H15R11933   3.636   1.026   5.052 -0.1744  1.0346  2.6708
  114SAPE  C21611934   3.703   1.225   5.103  0.0551 -0.0493  0.1030
  114SAPE  H16R11935   3.696   1.328   5.063 -0.8967  1.0536  2.8314
  114SAPE  H16S11936   3.808   1.198   5.126 -0.0445  0.8899  1.8608
  114SAPE  C21711937   3.624   1.221   5.243 -0.4570 -0.3823  0.3598
  114SAPE  H17R11938   3.677   1.146   5.305 -0.3778 -0.1639  0.5568
  114SAPE  H17S11939   3.518   1.193   5.230 -0.8157  1.0471  0.0345
  114SAPE  C21811940   3.622   1.357   5.314  0.0215  0.3704  0.0856
  114SAPE  H18R11941   3.558   1.425   5.255 -0.2818 -0.9395 -1.1446
  114SAPE  H18S11942   3.726   1.393   5.330  1.5876 -3.5247 -0.1021
  114SAPE  C21911943   3.563   1.338   5.449  0.0227  0.5347  0.9252
  114SAPE  H19R11944   3.481   1.264   5.460 -0.6626  0.8312 -1.5073
  114SAPE  H19S11945   3.522   1.437   5.478 -1.8758  0.3849 -1.0314
  114SAPE  C22011946   3.662   1.292   5.553 -0.9428  0.0856 -0.9965
  114SAPE  H20R11947   3.614   1.294   5.653 -3.3988  1.5918 -2.1024
  114SAPE  H20S11948   3.739   1.372   5.562 -1.5172  0.8269 -2.4226
  114SAPE  H20T11949   3.712   1.196   5.528 -1.4515 -0.3326 -0.4492
  114SAPE   C3311950   4.165   0.217   3.966 -0.7523 -1.1508 -0.1306
  114SAPE   H3X11951   4.265   0.199   4.011 -0.8242  2.3797  1.8222
  114SAPE   H3Y11952   4.165   0.212   3.855 -2.7267 -1.9914 -0.1270
  114SAPE   C3411953   4.071   0.102   4.014  0.3111  0.4755 -0.2777
  114SAPE   H4X11954   4.110   0.015   3.958  0.9462  0.8290 -0.3870
  114SAPE   H4Y11955   3.966   0.099   3.979  0.9915  0.1393 -2.4239
  114SAPE   C3511956   4.081   0.074   4.168 -0.2789  0.3780  0.5104
  114SAPE   H5X11957   4.008   0.147   4.209 -0.7324  0.2270 -0.0121
  114SAPE   H5Y11958   4.182   0.095   4.209 -0.0230 -1.9023  1.1749
  114SAPE   C3611959   4.042  -0.078   4.199 -0.7353  0.1467  0.2909
  114SAPE   H6X11960   4.106  -0.146   4.139 -1.0271 -0.7669  0.9980
  114SAPE   H6Y11961   3.938  -0.093   4.164 -0.2184  0.7021 -1.6108
  114SAPE   C3711962   4.047  -0.095   4.350  0.0116 -0.2146 -0.6852
  114SAPE   H7X11963   3.978  -0.024   4.402  1.0241 -1.1532  2.1117
  114SAPE   H7Y11964   4.142  -0.057   4.394 -1.5852  1.9195  1.1945
  114SAPE   C3811965   4.004  -0.233   4.403 -0.1567 -0.1834  0.6496
  114SAPE   H8X11966   4.054  -0.316   4.347 -1.6767 -0.5560 -0.1990
  114SAPE   H8Y11967   3.895  -0.244   4.387 -0.3645  2.3359 -0.0535
  114SAPE   C3911968   4.032  -0.253   4.549 -0.2326  0.7060 -0.0302
  114SAPE   H9X11969   3.957  -0.194   4.606  0.9932  1.9824  0.3145
  114SAPE   H9Y11970   4.137  -0.229   4.576  0.4235  0.5093 -2.1767
  114SAPE  C31011971   4.042  -0.404   4.594  0.3269 -0.0393  0.4292
  114SAPE  H10X11972   4.105  -0.410   4.685  0.0490 -0.7166  0.5836
  114SAPE  H10Y11973   4.106  -0.444   4.512  2.4193 -0.4962  2.2021
  114SAPE  C31111974   3.912  -0.479   4.616 -0.0774  0.7370  0.6504
  114SAPE  H11X11975   3.923  -0.589   4.617 -0.1711  0.7228  0.4061
  114SAPE  H11Y11976   3.855  -0.461   4.522  0.7389 -0.9759 -0.2060
  114SAPE  C31211977   3.819  -0.421   4.724 -0.4429  0.1539  0.2728
  114SAPE  H12X11978   3.715  -0.454   4.707 -0.4236  0.4504 -0.4698
  114SAPE  H12Y11979   3.814  -0.310   4.721  1.6961  0.2828 -2.6626
  114SAPE  C31311980   3.849  -0.475   4.861  0.5542 -1.2064  0.3140
  114SAPE  H13X11981   3.955  -0.453   4.887 -0.2053  2.5198  0.7032
  114SAPE  H13Y11982   3.832  -0.585   4.872  0.3843 -1.1854  0.2582
  114SAPE  C31411983   3.766  -0.409   4.973  0.3081  0.0153 -0.2202
  114SAPE  H14X11984   3.657  -0.424   4.963  0.0041  2.2433 -0.7333
  114SAPE  H14Y11985   3.770  -0.299   4.959 -0.0520 -0.0262 -0.6580
  114SAPE  C31511986   3.814  -0.466   5.109 -0.4065  0.7772  0.8051
  114SAPE  H15X11987   3.909  -0.421   5.146 -0.7636  1.9182  0.3558
  114SAPE  H15Y11988   3.819  -0.577   5.101 -0.1848  0.6581  2.3344
  114SAPE  C31611989   3.721  -0.434   5.228 -0.6880  0.5477  0.6063
  114SAPE  H16X11990   3.757  -0.496   5.312 -3.7124  1.5165  2.7779
  114SAPE  H16Y11991   3.615  -0.466   5.218 -1.1333  2.3411 -1.2924
  114SAPE  C31711992   3.731  -0.288   5.285 -0.4021  0.8575  0.9440
  114SAPE  H17X11993   3.647  -0.278   5.357  1.6432 -0.7602  3.8020
  114SAPE  H17Y11994   3.722  -0.215   5.203 -1.4429 -0.6627 -0.3551
  114SAPE  C31811995   3.848  -0.265   5.384 -0.6791  0.5424  0.0764
  114SAPE  H18X11996   3.826  -0.203   5.473  1.4753 -0.3847  1.3487
  114SAPE  H18Y11997   3.929  -0.215   5.327 -1.0233  2.4540  1.1926
  114SAPE  H18Z11998   3.885  -0.363   5.424  1.1512 -0.3836 -3.4601
  115SAPE     N11999   0.889   1.476   3.307  0.1261 -0.1596 -0.1090
  115SAPE   HN112000   0.856   1.419   3.227 -3.6356 -0.2985  1.3621
  115SAPE   HN212001   0.837   1.447   3.392  3.2449 -0.2659  1.9236
  115SAPE   HN312002   0.867   1.575   3.284 -1.3192 -0.6060 -0.7328
  115SAPE   C1212003   1.033   1.468   3.347  0.5770  0.9430  0.1915
  115SAPE  H12A12004   1.067   1.369   3.310 -1.7383  0.7701 -1.7246
  115SAPE  H12B12005   1.040   1.477   3.457 -0.1856 -1.5004  0.5014
  115SAPE   C1112006   1.096   1.587   3.273 -0.0496 -0.2829 -0.1293
  115SAPE  H11A12007   1.100   1.563   3.164 -3.2929 -0.5657 -0.2844
  115SAPE  H11B12008   1.203   1.574   3.300  0.7343  0.6283 -2.4632
  115SAPE     P12009   1.102   1.813   3.414  0.0335  0.5654 -0.0101
  115SAPE   O1312010   1.248   1.789   3.425  0.0560 -0.4368  0.1453
  115SAPE   O1412011   1.053   1.952   3.385  0.3579  0.2361 -0.2536
  115SAPE   O1212012   1.043   1.718   3.301 -0.2957  0.1630 -0.4904
  115SAPE   O1112013   1.031   1.753   3.544 -0.0191 -0.2473 -0.0299
  115SAPE    C112014   0.887   1.749   3.544 -0.1004 -0.6784 -0.3500
  115SAPE    HA12015   0.837   1.829   3.485  2.8298  2.1289  0.6252
  115SAPE    HB12016   0.846   1.651   3.514 -0.9336 -0.3435 -0.3255
  115SAPE    C212017   0.829   1.772   3.690  0.7101  0.1596  0.1423
  115SAPE    HS12018   0.723   1.802   3.682  1.0624  1.5435  0.3838
  115SAPE   O2112019   0.909   1.860   3.773  0.8337  0.0644  0.2093
  115SAPE   C2112020   0.870   1.989   3.756 -0.4004  0.5311 -0.0080
  115SAPE   O2212021   0.783   2.026   3.685 -0.2527 -0.4559  0.8326
  115SAPE   C2212022   0.973   2.072   3.831 -0.1799  0.5624 -0.1017
  115SAPE   H2R12023   0.974   2.050   3.940 -0.5307  2.4812  0.3330
  115SAPE   H2S12024   1.077   2.059   3.793 -0.5929 -2.0564 -0.4577
  115SAPE    C312025   0.817   1.636   3.754 -0.9087  0.1794 -0.0212
  115SAPE    HX12026   0.906   1.577   3.723  1.4550  2.4670  1.9698
  115SAPE    HY12027   0.740   1.583   3.694  1.8269 -1.7260 -2.0895
  115SAPE   O3112028   0.803   1.626   3.894  0.2547  0.1554  0.1726
  115SAPE   C3112029   0.912   1.624   3.963 -0.6335 -0.1979  0.4543
  115SAPE   O3212030   1.026   1.632   3.922 -0.1288 -0.2621 -0.4356
  115SAPE   C3212031   0.889   1.636   4.122 -0.0458 -0.2222  0.6937
  115SAPE   H2X12032   0.975   1.590   4.175 -2.0741 -0.1014  4.4485
  115SAPE   H2Y12033   0.802   1.571   4.145  0.2447 -0.7876  0.2373
  115SAPE   C2312034   0.951   2.225   3.803 -0.3669 -0.1699 -0.2238
  115SAPE   H3R12035   0.929   2.248   3.696  1.7110 -1.1010 -0.9102
  115SAPE   H3S12036   1.052   2.269   3.819 -1.0156  1.0781  0.5669
  115SAPE   C2412037   0.851   2.298   3.898 -0.6894 -0.2387 -0.9007
  115SAPE   H4R12038   0.754   2.245   3.895 -0.8881 -0.1836  1.8071
  115SAPE   H4S12039   0.835   2.404   3.867  1.6911  1.2937  2.3927
  115SAPE   C2512040   0.918   2.302   4.032  0.4423  0.7157  0.2931
  115SAPE   H5R12041   0.988   2.383   4.058  0.4954 -0.2561  3.5673
  115SAPE   C2612042   0.883   2.230   4.142  0.1610 -0.3552 -0.1599
  115SAPE   H6R12043   0.950   2.255   4.226 -0.0989  1.3869 -0.4308
  115SAPE   C2712044   0.774   2.126   4.157 -0.2122  0.2762 -0.5872
  115SAPE   H7R12045   0.782   2.066   4.251 -0.5174  0.9719 -0.1022
  115SAPE   H7S12046   0.775   2.050   4.076  0.2099 -0.5396  0.1682
  115SAPE   C2812047   0.627   2.176   4.158 -0.5230  0.2333 -0.8534
  115SAPE   H8R12048   0.569   2.165   4.065 -1.6995 -1.0276 -0.0124
  115SAPE   C2912049   0.553   2.216   4.266 -0.1963  0.5920  0.9465
  115SAPE   H9R12050   0.447   2.240   4.248 -0.0759 -0.3059 -1.4223
  115SAPE  C21012051   0.610   2.241   4.397 -0.2665 -0.2730 -0.3717
  115SAPE  H10R12052   0.706   2.189   4.421 -0.3598 -0.3647 -0.2002
  115SAPE  H10S12053   0.533   2.200   4.465 -1.4871  0.4990 -1.2522
  115SAPE  C21112054   0.604   2.386   4.434 -0.1757 -0.0461 -0.7548
  115SAPE  H11R12055   0.564   2.454   4.356 -0.0534 -0.0083 -0.7848
  115SAPE  C21212056   0.675   2.433   4.536  0.6960 -0.9402  0.6086
  115SAPE  H12R12057   0.671   2.542   4.554 -0.1351 -0.9357  0.4498
  115SAPE  C21312058   0.731   2.357   4.648  0.6597 -0.5129 -0.1567
  115SAPE  H13R12059   0.710   2.249   4.636 -0.9388 -0.2872  0.4021
  115SAPE  H13S12060   0.667   2.398   4.728  0.5829  0.3232 -0.6378
  115SAPE  C21412061   0.868   2.379   4.692 -0.6475 -0.5429  0.3868
  115SAPE  H14R12062   0.934   2.429   4.620  0.1799 -1.3407  0.5839
  115SAPE  C21512063   0.914   2.353   4.813 -0.3058 -0.5091 -0.1354
  115SAPE  H15R12064   1.020   2.374   4.835 -0.4748 -0.5527  0.7407
  115SAPE  C21612065   0.848   2.297   4.934 -0.1780  0.2338 -0.0792
  115SAPE  H16R12066   0.777   2.218   4.901  0.9529  0.2555 -2.8095
  115SAPE  H16S12067   0.792   2.369   4.996  1.7070 -0.6659  2.8785
  115SAPE  C21712068   0.952   2.238   5.031  0.0329  0.3574 -0.6086
  115SAPE  H17R12069   1.035   2.310   5.045 -1.1506  1.9811 -1.6337
  115SAPE  H17S12070   0.983   2.139   4.991 -2.9151 -0.8819 -0.1377
  115SAPE  C21812071   0.894   2.203   5.170  0.0197 -0.6258 -0.5768
  115SAPE  H18R12072   0.871   2.298   5.224 -0.3001 -1.0205 -0.0081
  115SAPE  H18S12073   0.980   2.163   5.229  0.7061  2.1827  0.5043
  115SAPE  C21912074   0.772   2.110   5.181  0.1721  0.7358 -0.7327
  115SAPE  H19R12075   0.811   2.010   5.154  2.5766  1.0126  1.3831
  115SAPE  H19S12076   0.688   2.141   5.114  1.1095 -0.0770 -2.3326
  115SAPE  C22012077   0.731   2.089   5.335  0.1164  0.0880  0.5146
  115SAPE  H20R12078   0.824   2.052   5.384  0.5357 -3.1376 -2.3475
  115SAPE  H20S12079   0.644   2.021   5.341 -0.0355  0.2082 -0.1918
  115SAPE  H20T12080   0.709   2.188   5.382  0.5411  1.1979 -1.5001
  115SAPE   C3312081   0.878   1.778   4.177  0.7404  0.6287 -0.3168
  115SAPE   H3X12082   0.794   1.832   4.129  0.0033  2.3590  2.6224
  115SAPE   H3Y12083   0.964   1.840   4.144  1.1629  1.0729  1.4683
  115SAPE   C3412084   0.857   1.787   4.330 -0.4170 -0.2403  1.0124
  115SAPE   H4X12085   0.771   1.723   4.359 -0.5116 -0.6622 -0.1745
  115SAPE   H4Y12086   0.832   1.893   4.349  0.8179  0.2827 -0.1062
  115SAPE   C3512087   0.981   1.747   4.410  0.1851 -0.3583 -0.4276
  115SAPE   H5X12088   1.059   1.812   4.367 -0.6518  1.2134  0.3578
  115SAPE   H5Y12089   1.014   1.642   4.394 -0.1690 -1.0011  2.4416
  115SAPE   C3612090   0.974   1.774   4.563 -0.0386  0.9232 -0.1664
  115SAPE   H6X12091   0.932   1.872   4.595  1.0202  0.8729  1.4998
  115SAPE   H6Y12092   1.082   1.777   4.590  0.2756 -1.4327 -0.9052
  115SAPE   C3712093   0.889   1.665   4.623  0.2291 -0.1389 -0.1469
  115SAPE   H7X12094   0.939   1.566   4.613  0.2065 -0.5518  2.8210
  115SAPE   H7Y12095   0.794   1.672   4.566  1.0018  0.8919 -1.3592
  115SAPE   C3812096   0.861   1.683   4.778  0.7593  0.1435  0.2790
  115SAPE   H8X12097   0.780   1.611   4.799 -2.1136  2.3630 -2.1829
  115SAPE   H8Y12098   0.826   1.787   4.797 -1.3071  0.1513 -2.8633
  115SAPE   C3912099   0.982   1.659   4.869  0.5276 -0.7778 -0.8085
  115SAPE   H9X12100   1.062   1.728   4.835  0.4808 -0.4004 -0.1576
  115SAPE   H9Y12101   1.008   1.551   4.862 -0.7367 -1.0353 -1.8101
  115SAPE  C31012102   0.960   1.693   5.014  0.8125 -0.2244 -0.1162
  115SAPE  H10X12103   0.928   1.799   5.022  2.6196  0.4017 -0.6954
  115SAPE  H10Y12104   1.050   1.672   5.075  2.4407  3.0597 -1.1331
  115SAPE  C31112105   0.846   1.603   5.076 -0.0854  0.2215 -0.2607
  115SAPE  H11X12106   0.871   1.496   5.060  0.1945  0.4054 -1.1194
  115SAPE  H11Y12107   0.751   1.615   5.019 -0.9971  1.5238  1.4435
  115SAPE  C31212108   0.821   1.626   5.221  0.1934  0.0951 -0.7501
  115SAPE  H12X12109   0.810   1.735   5.237 -1.5142 -0.4727  3.3024
  115SAPE  H12Y12110   0.907   1.600   5.286 -1.4264  0.6726  1.7713
  115SAPE  C31312111   0.701   1.540   5.278 -0.2650 -0.4660 -0.5094
  115SAPE  H13X12112   0.710   1.440   5.230  2.1283 -0.2591 -0.5988
  115SAPE  H13Y12113   0.609   1.586   5.237  0.9109  0.9355 -1.6935
  115SAPE  C31412114   0.704   1.515   5.428 -0.2234 -0.2367  0.0751
  115SAPE  H14X12115   0.808   1.481   5.451 -0.2268 -0.1737  0.1896
  115SAPE  H14Y12116   0.648   1.421   5.446  0.7824 -1.0865 -1.0848
  115SAPE  C31512117   0.673   1.627   5.519  0.0913 -0.3963 -0.3004
  115SAPE  H15X12118   0.566   1.643   5.496  0.1955 -0.1137 -0.6031
  115SAPE  H15Y12119   0.727   1.721   5.493 -2.5968  0.6986 -2.4066
  115SAPE  C31612120   0.699   1.584   5.664 -0.5930  0.5711  0.2099
  115SAPE  H16X12121   0.807   1.557   5.667 -0.0802  2.2236 -1.4449
  115SAPE  H16Y12122   0.640   1.491   5.679  1.2789 -0.5607  0.9519
  115SAPE  C31712123   0.664   1.689   5.773  0.5778 -0.1602 -0.1796
  115SAPE  H17X12124   0.666   1.644   5.875 -4.0118  1.1516  0.7226
  115SAPE  H17Y12125   0.558   1.716   5.756  1.0886  2.4048  0.2684
  115SAPE  C31812126   0.758   1.813   5.777 -0.0443  0.2847 -0.2319
  115SAPE  H18X12127   0.746   1.867   5.873 -0.1522 -0.5902  0.2629
  115SAPE  H18Y12128   0.717   1.890   5.709 -1.8798  1.4096  2.0110
  115SAPE  H18Z12129   0.864   1.796   5.750 -0.0332  1.6885 -1.1138
  116SAPE     N12130   1.728   3.730   3.169  0.1713 -0.1483  0.3991
  116SAPE   HN112131   1.801   3.790   3.212  0.6246  1.1242 -1.9563
  116SAPE   HN212132   1.771   3.688   3.084  1.0925  1.1868  0.1800
  116SAPE   HN312133   1.642   3.781   3.139  0.2907  1.0445  1.9816
  116SAPE   C1212134   1.706   3.617   3.260 -0.2461  0.4270 -0.6121
  116SAPE  H12A12135   1.646   3.536   3.213 -0.1593  0.0800 -0.1297
  116SAPE  H12B12136   1.652   3.645   3.352  0.8949 -0.1368  0.2515
  116SAPE   C1112137   1.851   3.559   3.287  0.5757 -0.0360 -0.0796
  116SAPE  H11A12138   1.896   3.522   3.192  0.3075 -2.7387  0.7574
  116SAPE  H11B12139   1.837   3.469   3.350  0.6260  0.5424  0.7650
  116SAPE     P12140   2.043   3.613   3.459  0.2579  0.4073  0.0856
  116SAPE   O1312141   2.093   3.480   3.415 -0.1409 -0.0602  0.4974
  116SAPE   O1412142   2.139   3.717   3.482 -0.4224  0.1368 -0.1606
  116SAPE   O1212143   1.931   3.662   3.353  0.0704  0.1977  0.5141
  116SAPE   O1112144   1.961   3.569   3.590  0.1182 -0.7969 -0.0908
  116SAPE    C112145   1.867   3.656   3.643  0.2865 -0.6800 -0.5195
  116SAPE    HA12146   1.853   3.748   3.581 -0.7788  0.1993  0.9694
  116SAPE    HB12147   1.767   3.609   3.657  0.4566 -0.8087  0.2734
  116SAPE    C212148   1.917   3.708   3.785  0.4111 -0.0723 -0.2520
  116SAPE    HS12149   1.845   3.790   3.809  2.0115  1.0995  0.7444
  116SAPE   O2112150   2.048   3.763   3.790  0.7041  0.6943 -0.5337
  116SAPE   C2112151   2.060   3.885   3.729  0.8993  0.2445 -0.2401
  116SAPE   O2212152   1.968   3.945   3.674  0.0777 -0.1387  0.0271
  116SAPE   C2212153   2.204   3.941   3.748  0.4483  0.3675  0.8462
  116SAPE   H2R12154   2.270   3.856   3.777 -0.5750 -0.9254 -0.4341
  116SAPE   H2S12155   2.231   3.972   3.645 -0.3560 -0.2796  0.4224
  116SAPE    C312156   1.900   3.590   3.885 -0.0618  0.3588  0.1227
  116SAPE    HX12157   1.995   3.533   3.876 -0.6831 -0.4031 -2.4050
  116SAPE    HY12158   1.816   3.522   3.857  1.7234 -1.9450  0.0723
  116SAPE   O3112159   1.896   3.629   4.028  0.7083  0.3883 -0.5897
  116SAPE   C3112160   1.863   3.529   4.117 -0.1521 -0.3856  0.8679
  116SAPE   O3212161   1.838   3.418   4.079  0.6535  0.7736 -0.0538
  116SAPE   C3212162   1.850   3.587   4.257 -0.5705 -0.9337 -0.0740
  116SAPE   H2X12163   1.745   3.620   4.267  0.1862  1.5251  0.4732
  116SAPE   H2Y12164   1.928   3.665   4.272 -0.9605 -0.5675  0.0773
  116SAPE   C2312165   2.208   4.067   3.847  0.0666 -0.2674  0.0319
  116SAPE   H3R12166   2.135   4.145   3.815 -2.6395 -2.2450  1.0465
  116SAPE   H3S12167   2.311   4.110   3.848 -0.2456  0.5155  0.8922
  116SAPE   C2412168   2.170   4.023   3.987  0.4181 -0.1025  0.5162
  116SAPE   H4R12169   2.254   3.964   4.030  1.4356 -0.3009 -1.6051
  116SAPE   H4S12170   2.092   3.945   3.980  1.2709 -1.0134  0.9389
  116SAPE   C2512171   2.122   4.122   4.090 -0.2689  0.3452  0.2502
  116SAPE   H5R12172   2.207   4.162   4.148  2.0449 -0.7081 -2.1818
  116SAPE   C2612173   1.999   4.178   4.096 -0.3045  0.9638  0.0188
  116SAPE   H6R12174   1.983   4.246   4.181 -1.4613 -0.6704  1.1644
  116SAPE   C2712175   1.884   4.160   4.003  0.6795  0.3996 -0.4211
  116SAPE   H7R12176   1.913   4.139   3.897  0.8060  0.3061 -0.3689
  116SAPE   H7S12177   1.804   4.235   3.988 -0.5742 -0.4818  1.4245
  116SAPE   C2812178   1.813   4.032   4.044 -0.7103  0.1015  0.6013
  116SAPE   H8R12179   1.873   3.946   4.010  1.2588  1.8152 -0.4357
  116SAPE   C2912180   1.701   4.020   4.119 -0.0673  0.8709 -0.3150
  116SAPE   H9R12181   1.658   3.923   4.147  2.6067 -0.1843  0.4105
  116SAPE  C21012182   1.616   4.134   4.168  0.0050  0.0049 -0.6687
  116SAPE  H10R12183   1.676   4.227   4.162  0.6158 -0.4221 -1.3033
  116SAPE  H10S12184   1.598   4.124   4.277  1.9814 -1.8677 -0.4535
  116SAPE  C21112185   1.494   4.139   4.082  0.5462  1.1647  0.0663
  116SAPE  H11R12186   1.501   4.198   3.989  0.0002 -0.1333 -0.8308
  116SAPE  C21212187   1.369   4.100   4.124  0.1032  0.1874 -0.4967
  116SAPE  H12R12188   1.281   4.104   4.059 -0.8700 -0.6660  0.7344
  116SAPE  C21312189   1.338   4.046   4.266  0.4135  0.6400  0.5260
  116SAPE  H13R12190   1.403   4.081   4.348  0.5706 -1.2513  1.2506
  116SAPE  H13S12191   1.356   3.937   4.254 -1.6477  0.4138 -1.1979
  116SAPE  C21412192   1.197   4.053   4.300 -0.1230  0.8401  0.2015
  116SAPE  H14R12193   1.133   4.035   4.212  0.8174 -0.7957 -0.1864
  116SAPE  C21512194   1.143   4.030   4.419 -0.4110 -0.5619  0.2505
  116SAPE  H15R12195   1.035   4.042   4.429 -0.2139  0.5922  1.2498
  116SAPE  C21612196   1.214   4.019   4.551 -0.3046  0.4959  0.7643
  116SAPE  H16R12197   1.315   4.066   4.547  0.0594 -0.1480  1.9834
  116SAPE  H16S12198   1.233   3.912   4.578 -0.9166  0.5814  1.5680
  116SAPE  C21712199   1.130   4.090   4.662 -0.6020  0.3286  0.0290
  116SAPE  H17R12200   1.025   4.054   4.650 -0.1512 -0.6200 -1.3136
  116SAPE  H17S12201   1.123   4.200   4.650  0.9141  0.4255 -0.1985
  116SAPE  C21812202   1.182   4.048   4.802  1.3670 -0.5664 -0.2240
  116SAPE  H18R12203   1.293   4.041   4.804  1.3785 -0.3370 -0.0674
  116SAPE  H18S12204   1.139   3.949   4.829  0.8481  0.3962  2.8595
  116SAPE  C21912205   1.130   4.143   4.911 -0.2026 -1.1151  0.3564
  116SAPE  H19R12206   1.020   4.162   4.913 -0.3398 -1.2931 -2.0633
  116SAPE  H19S12207   1.170   4.246   4.902 -2.8963  0.1234  1.3073
  116SAPE  C22012208   1.188   4.111   5.052 -0.7754  0.2869  0.5381
  116SAPE  H20R12209   1.137   4.019   5.087  1.6862 -0.8232  1.3888
  116SAPE  H20S12210   1.162   4.194   5.121  0.7612  0.8408  0.4888
  116SAPE  H20T12211   1.298   4.097   5.055 -0.9266 -1.2142 -0.3112
  116SAPE   C3312212   1.887   3.482   4.363 -0.1713  0.5250 -0.0927
  116SAPE   H3X12213   1.988   3.438   4.349  0.4232  1.1975  1.8274
  116SAPE   H3Y12214   1.829   3.392   4.331  1.5157 -0.1147 -1.5508
  116SAPE   C3412215   1.876   3.531   4.507  0.7614 -0.5680 -0.0739
  116SAPE   H4X12216   1.772   3.510   4.540  0.1540 -2.5673 -2.8751
  116SAPE   H4Y12217   1.889   3.642   4.507  0.4065 -0.4784  2.1857
  116SAPE   C3512218   1.985   3.466   4.600  0.9195 -0.7208 -0.3583
  116SAPE   H5X12219   2.080   3.520   4.580  0.7608  0.1034  1.0124
  116SAPE   H5Y12220   1.990   3.357   4.579  1.9271 -1.0858  1.5970
  116SAPE   C3612221   1.951   3.484   4.744  0.3876 -0.3936 -0.1775
  116SAPE   H6X12222   2.039   3.449   4.803 -1.3338 -3.7561  0.6199
  116SAPE   H6Y12223   1.868   3.413   4.760 -0.2326 -0.4033 -2.9711
  116SAPE   C3712224   1.900   3.624   4.792 -0.0933  0.0232  0.5246
  116SAPE   H7X12225   1.812   3.662   4.737  1.6769  3.1758 -0.3761
  116SAPE   H7Y12226   1.975   3.702   4.766 -0.0527 -0.5765 -1.2921
  116SAPE   C3812227   1.857   3.629   4.941  0.1008 -0.0691 -0.4889
  116SAPE   H8X12228   1.944   3.596   5.002  1.2317  0.6923 -1.6391
  116SAPE   H8Y12229   1.770   3.561   4.952  1.7010 -2.4999 -1.8551
  116SAPE   C3912230   1.824   3.774   4.981 -0.0096  0.0077  0.1347
  116SAPE   H9X12231   1.746   3.809   4.910 -0.2882  0.5243  0.6786
  116SAPE   H9Y12232   1.914   3.839   4.978 -1.5180  2.1448 -1.4350
  116SAPE  C31012233   1.769   3.781   5.119 -0.5361 -0.5205 -0.1891
  116SAPE  H10X12234   1.813   3.700   5.180 -1.6394 -1.6523 -0.8352
  116SAPE  H10Y12235   1.661   3.762   5.099 -0.8899  0.9675  0.1850
  116SAPE  C31112236   1.768   3.918   5.199 -0.3386  0.2237  0.7154
  116SAPE  H11X12237   1.692   3.914   5.280 -0.2654  2.5008  0.9589
  116SAPE  H11Y12238   1.723   4.003   5.146 -0.6458 -0.4056 -0.0453
  116SAPE  C31212239   1.909   3.954   5.247  0.0702 -0.4566  0.0562
  116SAPE  H12X12240   1.980   3.958   5.162 -1.0371 -3.0038 -1.1015
  116SAPE  H12Y12241   1.943   3.880   5.322 -0.0290 -0.5147  0.0438
  116SAPE  C31312242   1.916   4.099   5.299  0.1180  0.0967 -0.2122
  116SAPE  H13X12243   1.888   4.166   5.214  0.0968  0.2286 -0.1006
  116SAPE  H13Y12244   2.021   4.130   5.316 -0.6657  1.4431  2.8822
  116SAPE  C31412245   1.827   4.125   5.425  0.0702  0.3630 -0.2362
  116SAPE  H14X12246   1.722   4.099   5.397 -0.0465  1.2775 -0.7054
  116SAPE  H14Y12247   1.832   4.236   5.431  1.4556  0.2349  1.6181
  116SAPE  C31512248   1.880   4.074   5.554  0.4462 -0.4364 -0.0498
  116SAPE  H15X12249   1.991   4.077   5.552  0.4794 -1.2695  0.1187
  116SAPE  H15Y12250   1.861   3.966   5.569  1.5592 -0.6618 -0.1863
  116SAPE  C31612251   1.833   4.153   5.684 -0.4212 -0.3931  1.0511
  116SAPE  H16X12252   1.723   4.167   5.679 -0.2837  0.5472  0.2197
  116SAPE  H16Y12253   1.867   4.256   5.659  0.6751 -1.4684 -2.7150
  116SAPE  C31712254   1.873   4.116   5.824  0.6728  0.1541  0.2267
  116SAPE  H17X12255   1.984   4.113   5.818  0.6284 -0.7535 -0.4485
  116SAPE  H17Y12256   1.849   4.008   5.839  0.5941  0.1737  0.2400
  116SAPE  C31812257   1.819   4.197   5.940  0.6292  0.3145 -0.2659
  116SAPE  H18X12258   1.819   4.144   6.038 -3.0661  1.0495  0.2648
  116SAPE  H18Y12259   1.715   4.227   5.914  1.0547  0.3275 -2.0396
  116SAPE  H18Z12260   1.876   4.292   5.948  1.0363 -0.0758  2.9983
  117SOPE     N12261   3.761   0.153   7.867  0.1768  0.2178  0.7174
  117SOPE   HN112262   3.659   0.131   7.862 -0.2605  1.7562  1.8940
  117SOPE   HN212263   3.778   0.186   7.965  2.1777  0.4884  0.3224
  117SOPE   HN312264   3.773   0.219   7.788 -0.0984  0.1982  0.6590
  117SOPE   C1212265   3.836   0.030   7.850  0.4495  0.6882 -0.1018
  117SOPE  H12A12266   3.839   0.007   7.742  0.3907  0.4106 -0.0446
  117SOPE  H12B12267   3.784  -0.049   7.910 -1.5513  0.2336 -2.2865
  117SOPE   C1112268   3.982   0.049   7.913  0.2365 -0.0998 -0.2295
  117SOPE  H11A12269   3.973   0.072   8.021 -2.5658 -0.1897 -0.3572
  117SOPE  H11B12270   4.040   0.135   7.875  2.5314 -1.2431  0.5413
  117SOPE     P12271   4.197  -0.084   7.834  0.2580 -0.1432 -0.0811
  117SOPE   O1312272   4.179  -0.184   7.725  0.7385  0.0996 -0.7331
  117SOPE   O1412273   4.287  -0.127   7.941 -0.3234  0.0737  0.2060
  117SOPE   O1212274   4.058  -0.076   7.904 -0.4125 -0.1101 -0.1521
  117SOPE   O1112275   4.238   0.052   7.776  0.0966 -0.4101 -0.2785
  117SOPE    C112276   4.194   0.111   7.659  0.3989  0.4813 -0.4651
  117SOPE    HA12277   4.182   0.221   7.672 -0.2836  0.2192  1.5170
  117SOPE    HB12278   4.092   0.074   7.634  1.1398 -1.0276 -1.3919
  117SOPE    C212279   4.293   0.100   7.539 -0.6450 -0.3745 -0.9151
  117SOPE    HS12280   4.239   0.148   7.454  1.2053  2.6275 -0.5478
  117SOPE   O2112281   4.338  -0.033   7.510  0.4858  0.3873  0.0296
  117SOPE   C2112282   4.251  -0.126   7.471  0.0561 -0.2496  0.3151
  117SOPE   O2212283   4.133  -0.100   7.448  0.3422  0.2172  0.9907
  117SOPE   C2212284   4.318  -0.263   7.451  0.2874 -0.4276  0.4296
  117SOPE   H2R12285   4.238  -0.335   7.423  1.8716 -1.4079 -1.9182
  117SOPE   H2S12286   4.364  -0.290   7.548  2.9710  1.3978 -0.2330
  117SOPE    C312287   4.417   0.197   7.561 -0.6321  0.5992 -0.1607
  117SOPE    HX12288   4.472   0.171   7.654 -1.4942  0.4225  0.3168
  117SOPE    HY12289   4.371   0.296   7.584  0.8799  1.2302  0.3076
  117SOPE   O3112290   4.515   0.186   7.461 -0.2815  0.3518 -0.1961
  117SOPE   C3112291   4.487   0.231   7.339  0.5161 -0.1285 -0.2013
  117SOPE   O3212292   4.379   0.282   7.314  0.1992 -0.6263 -0.8845
  117SOPE   C3212293   4.609   0.199   7.249  0.3720  0.7505  0.1436
  117SOPE   H2X12294   4.615   0.089   7.237 -0.4635  0.7490 -0.3078
  117SOPE   H2Y12295   4.701   0.239   7.297  0.0235  0.7685  0.8148
  117SOPE   C2312296   4.417  -0.283   7.344 -0.1371 -0.7236  0.3328
  117SOPE   H3R12297   4.448  -0.390   7.349 -3.2459 -1.7016  1.2078
  117SOPE   H3S12298   4.504  -0.217   7.358 -1.6084  1.0714  1.5252
  117SOPE   C2412299   4.361  -0.261   7.202  0.5047  0.4742 -0.0073
  117SOPE   H4R12300   4.287  -0.340   7.176 -1.9222  2.3491  0.7683
  117SOPE   H4S12301   4.313  -0.162   7.188 -1.8181 -0.6312 -0.3424
  117SOPE   C2512302   4.479  -0.264   7.096 -1.0040  0.1117  0.3757
  117SOPE   H5R12303   4.563  -0.196   7.122 -0.5564 -0.7710  1.2968
  117SOPE   H5S12304   4.529  -0.363   7.101 -0.5296  0.3499  0.3923
  117SOPE   C2612305   4.432  -0.243   6.952  0.7478 -0.1737  0.2893
  117SOPE   H6R12306   4.360  -0.325   6.931 -1.4003  1.6689 -0.0047
  117SOPE   H6S12307   4.376  -0.147   6.956 -1.4945 -1.4189  2.6812
  117SOPE   C2712308   4.557  -0.243   6.853 -0.5365 -0.6439  0.3262
  117SOPE   H7R12309   4.617  -0.153   6.876 -2.4715  0.7820  0.0936
  117SOPE   H7S12310   4.621  -0.332   6.869 -0.8714 -0.6559  1.6754
  117SOPE   C2812311   4.530  -0.230   6.698  0.7046 -0.6724 -0.1862
  117SOPE   H8R12312   4.625  -0.228   6.641  0.3220 -0.9343 -0.8369
  117SOPE   H8S12313   4.478  -0.320   6.659  0.0426  0.2070 -1.4204
  117SOPE   C2912314   4.448  -0.101   6.662  0.4531 -0.4170 -0.1963
  117SOPE   H9112315   4.350  -0.087   6.710  0.1113  1.0276 -1.2440
  117SOPE  C21012316   4.473  -0.017   6.562  0.6335  0.2949 -0.4130
  117SOPE  H10112317   4.404   0.069   6.567  0.1477 -0.0924 -0.3732
  117SOPE  C21112318   4.580  -0.024   6.460 -0.0832  0.1759  0.1662
  117SOPE  H11R12319   4.630  -0.123   6.468  0.1628  0.3548  0.8878
  117SOPE  H11S12320   4.654   0.056   6.483 -1.0200  0.9385  0.5830
  117SOPE  C21212321   4.540   0.001   6.316  0.3577  0.0340 -0.0322
  117SOPE  H12R12322   4.621  -0.009   6.240 -0.7414 -3.8603 -0.9148
  117SOPE  H12S12323   4.492   0.101   6.312 -1.1639 -0.6520  0.6275
  117SOPE  C21312324   4.436  -0.103   6.274  0.2991 -0.6232 -0.4648
  117SOPE  H13R12325   4.362  -0.120   6.355  0.3702 -0.3899 -0.3506
  117SOPE  H13S12326   4.496  -0.195   6.255  3.3984  1.3328 -0.9031
  117SOPE  C21412327   4.363  -0.068   6.143  0.0520  0.2968  0.0834
  117SOPE  H14R12328   4.292   0.011   6.176  0.4016  1.0883 -1.0181
  117SOPE  H14S12329   4.299  -0.154   6.114 -0.8902  0.6976  0.8954
  117SOPE  C21512330   4.460  -0.033   6.032  0.5260  0.2716  0.0017
  117SOPE  H15R12331   4.528  -0.120   6.018  1.4448  0.5709  2.1517
  117SOPE  H15S12332   4.516   0.056   6.067  1.2341 -0.5392  0.9980
  117SOPE  C21612333   4.391   0.005   5.899  0.0437 -0.4402  0.3615
  117SOPE  H16R12334   4.336   0.101   5.905 -0.5334 -0.2320 -4.3684
  117SOPE  H16S12335   4.330  -0.086   5.883 -1.1254  0.0090  2.1158
  117SOPE  C21712336   4.498   0.018   5.790 -0.8470 -0.9005  0.2446
  117SOPE  H17R12337   4.437   0.026   5.697  0.6182 -1.2980 -0.7879
  117SOPE  H17S12338   4.554  -0.078   5.784 -0.7146 -0.8312  0.3888
  117SOPE  C21812339   4.586   0.143   5.814 -0.0879 -0.8307  0.2542
  117SOPE  H18R12340   4.524   0.235   5.822  0.5092 -0.5298  1.6208
  117SOPE  H18S12341   4.652   0.154   5.726 -0.5812 -2.1056 -0.3049
  117SOPE  H18T12342   4.646   0.138   5.907  0.0195 -1.3613  0.1610
  117SOPE   C3312343   4.591   0.257   7.104  0.2662  0.1593 -0.3042
  117SOPE   H3X12344   4.692   0.259   7.057  0.2653 -2.7105 -0.6044
  117SOPE   H3Y12345   4.569   0.366   7.112  2.1795  0.5647  0.1035
  117SOPE   C3412346   4.497   0.181   7.010  0.3451  0.1737 -0.2669
  117SOPE   H4X12347   4.391   0.176   7.044  0.4771  1.6094  0.4473
  117SOPE   H4Y12348   4.536   0.080   6.986  1.1153  0.4742 -0.3242
  117SOPE   C3512349   4.471   0.240   6.869  0.0196  0.5327 -0.3715
  117SOPE   H5X12350   4.403   0.168   6.820  1.8000 -1.2833 -0.3209
  117SOPE   H5Y12351   4.563   0.227   6.808  0.5140 -0.4812  0.5445
  117SOPE   C3612352   4.423   0.379   6.872  0.3940  0.7885  0.5237
  117SOPE   H6X12353   4.491   0.462   6.900  0.1499  1.3412 -0.4837
  117SOPE   H6Y12354   4.339   0.375   6.945  0.8391 -1.9748  0.9904
  117SOPE   C3712355   4.374   0.414   6.725  0.1158  0.3943 -0.9854
  117SOPE   H7X12356   4.359   0.523   6.732  1.0053  0.4504  0.4587
  117SOPE   H7Y12357   4.278   0.358   6.716 -0.8920  1.5977  1.3270
  117SOPE   C3812358   4.471   0.395   6.610  0.3976  0.4542 -0.0385
  117SOPE   H8X12359   4.472   0.285   6.592 -3.3568  0.2696  0.0907
  117SOPE   H8Y12360   4.570   0.438   6.637  0.3776 -1.0491  2.7478
  117SOPE   C3912361   4.431   0.458   6.480 -0.1582 -0.7183  0.3005
  117SOPE   H9X12362   4.413   0.567   6.488 -1.8621 -0.9602  0.1004
  117SOPE   H9Y12363   4.329   0.422   6.455 -0.5399  0.6455 -0.1980
  117SOPE  C31012364   4.520   0.418   6.360 -0.2864  0.8514  0.5307
  117SOPE  H10X12365   4.541   0.309   6.360  0.4749  0.8994 -2.4800
  117SOPE  H10Y12366   4.617   0.472   6.357 -1.0923  2.3034 -0.8679
  117SOPE  C31112367   4.455   0.435   6.224  0.2934  0.3072 -0.5200
  117SOPE  H11X12368   4.397   0.528   6.243 -0.0085 -0.1371  0.7680
  117SOPE  H11Y12369   4.391   0.348   6.197  0.8108 -0.6844  1.3476
  117SOPE  C31212370   4.556   0.469   6.105 -0.5881 -0.0950  0.3737
  117SOPE  H12X12371   4.623   0.386   6.073 -1.0363 -0.1024 -0.5755
  117SOPE  H12Y12372   4.624   0.551   6.138 -0.5420  0.6700 -1.5112
  117SOPE  C31312373   4.479   0.502   5.979 -0.6255 -1.1695  0.0410
  117SOPE  H13X12374   4.398   0.570   6.013  0.0676  1.5606 -3.2384
  117SOPE  H13Y12375   4.438   0.404   5.946 -2.8861  0.2636 -1.7029
  117SOPE  C31412376   4.563   0.561   5.865 -0.0032  0.0160  0.9516
  117SOPE  H14X12377   4.650   0.492   5.856 -2.3119 -3.2526  1.6175
  117SOPE  H14Y12378   4.603   0.658   5.901 -0.6095  1.2762 -1.5632
  117SOPE  C31512379   4.491   0.558   5.727 -0.8456 -0.5941 -0.1954
  117SOPE  H15X12380   4.385   0.591   5.737 -1.2051 -1.3074 -1.3709
  117SOPE  H15Y12381   4.484   0.451   5.697  3.0035 -1.4888  1.5728
  117SOPE  C31612382   4.568   0.622   5.602 -0.0705  0.2527 -0.3557
  117SOPE  H16X12383   4.666   0.571   5.599  0.2113  0.7809 -0.2133
  117SOPE  H16Y12384   4.571   0.733   5.605  0.2687  0.2390  2.0809
  117SOPE  C31712385   4.498   0.575   5.471  0.4073 -0.0119 -0.1888
  117SOPE  H17X12386   4.398   0.622   5.481  0.2867 -0.1024 -0.9563
  117SOPE  H17Y12387   4.487   0.465   5.479  0.0471 -0.1407 -2.1120
  117SOPE  C31812388   4.566   0.622   5.347  0.7103 -0.4493  0.2942
  117SOPE  H18X12389   4.499   0.633   5.260 -0.1636 -0.0036  1.0061
  117SOPE  H18Y12390   4.646   0.555   5.310 -0.3273 -0.4176 -2.1884
  117SOPE  H18Z12391   4.621   0.716   5.373  0.3992 -0.8030  2.4380
  118SOPE     N12392   4.776   0.990   7.686 -0.3946 -0.0058 -0.1722
  118SOPE   HN112393   4.841   0.992   7.767 -1.0767 -1.0642  0.4240
  118SOPE   HN212394   4.781   1.085   7.644 -1.9818 -0.1945 -0.8517
  118SOPE   HN312395   4.681   0.963   7.720  0.4412 -1.0435  1.4812
  118SOPE   C1212396   4.839   0.899   7.589 -0.4588 -0.2188  0.1417
  118SOPE  H12A12397   4.947   0.924   7.578 -0.5580 -0.3061 -1.1497
  118SOPE  H12B12398   4.791   0.904   7.489 -1.4551 -1.0423  0.5587
  118SOPE   C1112399   4.832   0.754   7.639  0.4856 -0.2903  0.2516
  118SOPE  H11A12400   4.873   0.684   7.564  0.4122  1.0155 -1.0643
  118SOPE  H11B12401   4.731   0.712   7.657 -0.5781  1.9729 -0.0580
  118SOPE     P12402   4.961   0.626   7.833  0.3555  0.1808 -0.2588
  118SOPE   O1312403   4.871   0.509   7.816 -0.1263  0.5118 -0.4872
  118SOPE   O1412404   4.995   0.671   7.972  0.5090  0.8153 -0.2004
  118SOPE   O1212405   4.892   0.752   7.766 -0.0257  0.7030 -0.0548
  118SOPE   O1112406   5.103   0.605   7.769  0.1967  0.0806  0.2099
  118SOPE    C112407   5.187   0.720   7.740 -1.2590  0.7704  0.2454
  118SOPE    HA12408   5.284   0.706   7.791  0.9076  0.0013 -3.6870
  118SOPE    HB12409   5.144   0.820   7.763 -1.3223  0.6405  0.6900
  118SOPE    C212410   5.222   0.722   7.584 -0.3298 -0.7114 -0.0854
  118SOPE    HS12411   5.121   0.729   7.539 -0.0489 -0.7639 -0.7231
  118SOPE   O2112412   5.287   0.599   7.543 -0.2020 -0.0124  0.2168
  118SOPE   C2112413   5.268   0.561   7.416 -0.3633  0.4626 -0.2940
  118SOPE   O2212414   5.186   0.606   7.337 -0.0168  0.6400 -0.2285
  118SOPE   C2212415   5.362   0.444   7.393  0.1571 -0.3452  0.5425
  118SOPE   H2R12416   5.326   0.377   7.475  0.0309 -0.9355  0.0175
  118SOPE   H2S12417   5.468   0.471   7.411  0.0807 -0.2801  0.9114
  118SOPE    C312418   5.300   0.855   7.549 -0.2739 -0.3143 -0.4102
  118SOPE    HX12419   5.393   0.836   7.607 -0.2378 -1.1914 -0.7325
  118SOPE    HY12420   5.248   0.938   7.600  0.1022 -1.1377  1.3935
  118SOPE   O3112421   5.331   0.875   7.409  0.0256 -0.8032 -0.1046
  118SOPE   C3112422   5.227   0.916   7.338 -0.1484  0.0788  0.0471
  118SOPE   O3212423   5.117   0.950   7.378  0.2138  0.1026 -0.1672
  118SOPE   C3212424   5.272   0.922   7.194  0.1654  0.9349 -0.5699
  118SOPE   H2X12425   5.326   0.828   7.168 -1.6602 -0.9829  2.0813
  118SOPE   H2Y12426   5.352   0.999   7.191 -0.5127  1.7050  0.4345
  118SOPE   C2312427   5.355   0.369   7.257  1.2383 -0.1570 -0.5766
  118SOPE   H3R12428   5.248   0.371   7.228  1.1403  2.4906 -0.2370
  118SOPE   H3S12429   5.377   0.261   7.277  1.1039 -0.4340 -1.8608
  118SOPE   C2412430   5.435   0.429   7.147 -0.7642 -0.7103  0.0209
  118SOPE   H4R12431   5.412   0.537   7.151 -1.6426 -0.9200  0.7866
  118SOPE   H4S12432   5.544   0.426   7.171 -0.4075 -0.2193 -1.3862
  118SOPE   C2512433   5.417   0.365   7.011 -0.4236 -0.2224 -0.2178
  118SOPE   H5R12434   5.490   0.401   6.935 -0.1527  0.7838  0.4932
  118SOPE   H5S12435   5.442   0.257   7.009  1.1258  0.1270 -2.3292
  118SOPE   C2612436   5.281   0.371   6.961  0.1705  0.3365  0.4807
  118SOPE   H6R12437   5.218   0.294   7.010 -0.3793  1.9298  2.4387
  118SOPE   H6S12438   5.232   0.469   6.983  1.0619  1.1957 -1.1664
  118SOPE   C2712439   5.271   0.334   6.810  0.5956 -0.0507  0.0451
  118SOPE   H7R12440   5.316   0.233   6.803 -0.4971 -0.5827  0.3487
  118SOPE   H7S12441   5.160   0.330   6.798  0.7445  0.5417 -1.7350
  118SOPE   C2812442   5.328   0.434   6.715  0.0545 -0.4925 -0.4263
  118SOPE   H8R12443   5.288   0.532   6.746  0.2198 -0.2664 -0.9218
  118SOPE   H8S12444   5.439   0.436   6.719  0.2267 -3.0705 -1.2981
  118SOPE   C2912445   5.303   0.403   6.572  0.0810  0.7693  0.2536
  118SOPE   H9112446   5.328   0.298   6.551  0.7882  0.8032  0.8899
  118SOPE  C21012447   5.273   0.485   6.463 -0.4059  0.6043 -0.3886
  118SOPE  H10112448   5.256   0.442   6.364  1.6506  0.9086 -0.9206
  118SOPE  C21112449   5.259   0.636   6.467  0.3027 -0.2749  0.6622
  118SOPE  H11R12450   5.268   0.673   6.571 -2.4946  0.8303  0.6040
  118SOPE  H11S12451   5.159   0.662   6.428  0.5746  0.8008  0.6502
  118SOPE  C21212452   5.356   0.704   6.371 -0.7003  0.4283 -0.0843
  118SOPE  H12R12453   5.459   0.668   6.390 -0.8393 -0.3523 -0.7186
  118SOPE  H12S12454   5.367   0.813   6.388 -0.5245  0.3663  0.2155
  118SOPE  C21312455   5.342   0.666   6.225  0.1441  0.3987 -0.2061
  118SOPE  H13R12456   5.237   0.679   6.191 -0.8412  1.0147  2.8029
  118SOPE  H13S12457   5.372   0.560   6.238  1.2303  0.9156  1.9389
  118SOPE  C21412458   5.446   0.742   6.141 -0.0809  0.4418 -0.4044
  118SOPE  H14R12459   5.544   0.705   6.176  1.4016  3.8029 -0.6533
  118SOPE  H14S12460   5.450   0.853   6.152 -1.1022  0.5657 -1.0364
  118SOPE  C21512461   5.428   0.710   5.996 -0.4456 -0.1357 -0.5001
  118SOPE  H15R12462   5.326   0.735   5.960 -0.0378 -0.6770 -2.1528
  118SOPE  H15S12463   5.434   0.599   5.995 -2.0534 -0.2515 -1.8162
  118SOPE  C21612464   5.537   0.772   5.906 -0.1462  0.4627 -0.1876
  118SOPE  H16R12465   5.530   0.883   5.901  2.2053  0.6249 -2.0285
  118SOPE  H16S12466   5.517   0.733   5.804 -0.3526  0.0936 -0.0060
  118SOPE  C21712467   5.679   0.733   5.949  0.3622 -0.2381  0.4065
  118SOPE  H17R12468   5.684   0.622   5.960 -0.4115 -0.3715 -0.4583
  118SOPE  H17S12469   5.694   0.798   6.038 -1.5796  1.4849 -0.4403
  118SOPE  C21812470   5.791   0.762   5.848 -0.4088 -0.4436 -0.4538
  118SOPE  H18R12471   5.890   0.726   5.883 -1.0238 -2.1584 -0.3765
  118SOPE  H18S12472   5.804   0.870   5.824 -2.3512  0.2792  1.3856
  118SOPE  H18T12473   5.769   0.726   5.745  0.3178 -4.2139  0.5790
  118SOPE   C3312474   5.165   0.945   7.091  0.4692  0.7724  0.5515
  118SOPE   H3X12475   5.113   1.038   7.124 -0.2816 -0.4951  3.2606
  118SOPE   H3Y12476   5.092   0.862   7.086  1.5889 -0.1861 -0.2784
  118SOPE   C3412477   5.223   0.959   6.949 -0.1396  0.9650  0.4822
  118SOPE   H4X12478   5.297   0.878   6.934 -2.9609 -1.5218 -0.9568
  118SOPE   H4Y12479   5.275   1.057   6.939 -1.5479  1.6542 -0.4070
  118SOPE   C3512480   5.124   0.929   6.842 -0.0502 -0.0379 -0.0413
  118SOPE   H5X12481   5.090   0.823   6.838  2.2126 -0.7855 -1.4363
  118SOPE   H5Y12482   5.178   0.944   6.746 -1.3387 -1.0619 -0.9707
  118SOPE   C3612483   5.004   1.022   6.845 -0.0892  0.2559 -0.0777
  118SOPE   H6X12484   5.045   1.125   6.845 -2.2865  1.2002  0.1996
  118SOPE   H6Y12485   4.947   0.991   6.935  0.4476  0.3516  0.2979
  118SOPE   C3712486   4.907   1.014   6.724  0.1976  0.9901  0.0186
  118SOPE   H7X12487   4.954   1.059   6.633 -0.4730  1.5629 -0.0618
  118SOPE   H7Y12488   4.825   1.087   6.745  0.5199  1.0328  1.1720
  118SOPE   C3812489   4.844   0.878   6.692  0.6613  0.1220 -0.4160
  118SOPE   H8X12490   4.762   0.862   6.765 -1.8279 -0.5884 -3.1430
  118SOPE   H8Y12491   4.912   0.795   6.721  0.0117 -0.6238 -0.9915
  118SOPE   C3912492   4.801   0.860   6.550  0.3034  0.0294  0.7744
  118SOPE   H9X12493   4.744   0.952   6.526 -2.6374 -2.4133 -2.6720
  118SOPE   H9Y12494   4.730   0.775   6.544 -0.4945  0.5535  2.2308
  118SOPE  C31012495   4.905   0.831   6.433 -0.0273  0.0425 -0.0582
  118SOPE  H10X12496   4.970   0.743   6.453  3.2498  2.3283  0.0394
  118SOPE  H10Y12497   4.976   0.916   6.425  0.3914 -0.3255 -0.2985
  118SOPE  C31112498   4.829   0.813   6.303  0.4271  0.0015  0.0882
  118SOPE  H11X12499   4.776   0.907   6.276 -0.0695 -0.7237 -1.5309
  118SOPE  H11Y12500   4.769   0.720   6.306  2.1729 -1.2401 -1.2063
  118SOPE  C31212501   4.931   0.774   6.194 -0.1033 -0.4934 -0.0390
  118SOPE  H12X12502   4.982   0.676   6.206 -0.4819 -0.7775 -0.6669
  118SOPE  H12Y12503   5.013   0.848   6.186  2.3524 -3.1793 -2.2181
  118SOPE  C31312504   4.862   0.762   6.061 -0.2326  0.1992 -0.4078
  118SOPE  H13X12505   4.794   0.846   6.038 -0.5688 -0.0469 -0.3105
  118SOPE  H13Y12506   4.792   0.676   6.060 -0.0539  0.0557 -0.7019
  118SOPE  C31412507   4.969   0.758   5.946 -0.4282 -0.2788 -0.4935
  118SOPE  H14X12508   5.053   0.689   5.968 -0.7376 -0.5701 -0.2219
  118SOPE  H14Y12509   5.010   0.861   5.945 -2.8532  0.8506  1.6714
  118SOPE  C31512510   4.897   0.734   5.814 -0.6594 -0.4117  0.2602
  118SOPE  H15X12511   4.810   0.800   5.792  1.0830  1.9399  0.0569
  118SOPE  H15Y12512   4.865   0.628   5.823 -1.6001  0.0228  3.1822
  118SOPE  C31612513   4.992   0.752   5.694 -0.2071 -0.7390  0.1037
  118SOPE  H16X12514   5.074   0.679   5.710 -1.5271 -1.8453  2.2429
  118SOPE  H16Y12515   5.026   0.858   5.698 -1.3175 -0.1933 -2.6574
  118SOPE  C31712516   4.922   0.731   5.563 -0.0243  0.3980 -0.3922
  118SOPE  H17X12517   4.835   0.801   5.566  0.5088  1.0463  0.2079
  118SOPE  H17Y12518   4.892   0.624   5.565 -0.2117  0.4307  2.2102
  118SOPE  C31812519   4.991   0.766   5.432 -0.5654 -0.3396  0.1139
  118SOPE  H18X12520   5.014   0.874   5.449 -0.2497 -0.7344  2.5092
  118SOPE  H18Y12521   4.925   0.754   5.343  1.7134 -2.3580 -1.4347
  118SOPE  H18Z12522   5.087   0.713   5.418 -0.4815 -0.2599  0.3819
  119SOPE     N12523   5.694   0.104   8.014 -0.1351 -0.1736 -0.3739
  119SOPE   HN112524   5.665   0.203   7.996  1.6540  0.5484  0.4954
  119SOPE   HN212525   5.797   0.096   8.005 -0.2148 -0.9975 -0.6350
  119SOPE   HN312526   5.658   0.052   7.931  2.7498 -3.7102  0.3800
  119SOPE   C1212527   5.647   0.038   8.141 -0.8658 -0.5029  0.2314
  119SOPE  H12A12528   5.536   0.030   8.139 -1.2566  2.7223  1.7082
  119SOPE  H12B12529   5.679   0.110   8.220 -1.3200 -0.2338  0.1749
  119SOPE   C1112530   5.723  -0.093   8.164  0.3423  0.3629  0.0914
  119SOPE  H11A12531   5.683  -0.140   8.256 -4.4059 -0.6066 -2.1604
  119SOPE  H11B12532   5.821  -0.049   8.192 -0.6560  1.7670  1.6441
  119SOPE     P12533   5.840  -0.264   8.016 -0.4019  0.0144 -0.1908
  119SOPE   O1312534   5.789  -0.392   7.961  0.1310 -0.3847  0.0494
  119SOPE   O1412535   5.938  -0.264   8.131  0.5729 -0.3608 -0.4552
  119SOPE   O1212536   5.718  -0.175   8.053 -1.0435 -0.0749 -0.3816
  119SOPE   O1112537   5.913  -0.178   7.901 -0.0486 -0.3638 -0.5680
  119SOPE    C112538   5.838  -0.165   7.781  0.1358 -0.6860  0.0200
  119SOPE    HA12539   5.832  -0.060   7.744  0.3392 -1.0406 -1.0502
  119SOPE    HB12540   5.732  -0.197   7.795  0.4871 -1.3674  1.3145
  119SOPE    C212541   5.893  -0.241   7.657 -0.1052  0.2837  0.2410
  119SOPE    HS12542   5.896  -0.351   7.675 -0.9240 -0.1360 -1.8946
  119SOPE   O2112543   6.024  -0.197   7.629 -0.4289 -0.4625  0.1018
  119SOPE   C2112544   6.119  -0.283   7.571  0.0565 -0.0181 -0.1890
  119SOPE   O2212545   6.106  -0.402   7.552 -0.8185  0.2045  0.2045
  119SOPE   C2212546   6.248  -0.209   7.547  0.6713  0.6114 -0.3216
  119SOPE   H2R12547   6.303  -0.233   7.640 -1.2999  0.1615  0.7775
  119SOPE   H2S12548   6.217  -0.104   7.567 -1.6447 -0.0832 -0.0576
  119SOPE    C312549   5.797  -0.231   7.535 -0.2823 -0.3236 -0.4680
  119SOPE    HX12550   5.782  -0.124   7.508  0.9214  0.0311  0.2111
  119SOPE    HY12551   5.697  -0.264   7.572 -0.5378  0.1935 -0.6855
  119SOPE   O3112552   5.840  -0.304   7.418  0.2054 -0.2434 -0.0830
  119SOPE   C3112553   5.844  -0.433   7.420 -0.4477 -1.1397  0.0214
  119SOPE   O3212554   5.790  -0.504   7.505 -0.0502  0.0494 -0.5430
  119SOPE   C3212555   5.904  -0.479   7.292  0.3313  0.1654 -0.7047
  119SOPE   H2X12556   5.909  -0.589   7.275 -0.4893  0.0772 -0.4044
  119SOPE   H2Y12557   5.996  -0.417   7.281 -0.1540  0.7612 -1.4771
  119SOPE   C2312558   6.322  -0.237   7.409  0.2770  0.4969 -0.8823
  119SOPE   H3R12559   6.343  -0.345   7.392 -3.3528  0.1025 -4.3362
  119SOPE   H3S12560   6.419  -0.185   7.422 -0.0577  0.9297 -0.0099
  119SOPE   C2412561   6.236  -0.184   7.294  0.3933  0.2972 -0.1780
  119SOPE   H4R12562   6.129  -0.213   7.300  0.1648  1.3694  1.5777
  119SOPE   H4S12563   6.243  -0.073   7.291  4.7062  0.2481  0.9799
  119SOPE   C2512564   6.293  -0.229   7.163  0.1668  0.1899  0.1539
  119SOPE   H5R12565   6.251  -0.176   7.074  0.5129 -0.9520 -0.7204
  119SOPE   H5S12566   6.402  -0.206   7.167  0.3293 -0.7373  2.1136
  119SOPE   C2612567   6.253  -0.370   7.121 -0.6916  0.7824  0.0586
  119SOPE   H6R12568   6.302  -0.441   7.191 -1.1339  2.1188  1.7874
  119SOPE   H6S12569   6.145  -0.387   7.107  0.0124 -2.9190 -2.2192
  119SOPE   C2712570   6.305  -0.403   6.981 -0.3347  0.6198 -0.0957
  119SOPE   H7R12571   6.251  -0.333   6.914  0.2470  2.1798  1.0064
  119SOPE   H7S12572   6.415  -0.394   6.967 -0.0085  0.3422  2.0744
  119SOPE   C2812573   6.266  -0.548   6.935 -0.4315  0.2346  0.1790
  119SOPE   H8R12574   6.187  -0.599   6.994 -0.1215  0.7555  1.0634
  119SOPE   H8S12575   6.223  -0.541   6.833 -0.6956  2.9664  0.4014
  119SOPE   C2912576   6.387  -0.638   6.946  0.0052  0.5111  0.2131
  119SOPE   H9112577   6.393  -0.688   7.044 -0.2106  1.4006  0.6870
  119SOPE  C21012578   6.477  -0.645   6.845 -0.0129 -0.1851  0.3320
  119SOPE  H10112579   6.569  -0.702   6.860  0.1866 -0.1039 -0.5804
  119SOPE  C21112580   6.476  -0.569   6.714 -0.0482 -0.5883 -0.1284
  119SOPE  H11R12581   6.577  -0.524   6.700 -0.6376  0.6197 -0.7230
  119SOPE  H11S12582   6.403  -0.485   6.708 -1.0679 -1.4084  0.6347
  119SOPE  C21212583   6.424  -0.661   6.594 -0.2304  0.2280  0.2153
  119SOPE  H12R12584   6.429  -0.593   6.506 -1.9388  0.4301  0.2441
  119SOPE  H12S12585   6.315  -0.675   6.606 -0.1885 -0.9225 -0.5740
  119SOPE  C21312586   6.501  -0.795   6.578 -0.2958  0.0688 -1.0568
  119SOPE  H13R12587   6.467  -0.873   6.649 -1.6419  0.3902 -1.3367
  119SOPE  H13S12588   6.608  -0.766   6.590  0.1233 -0.4148 -3.2127
  119SOPE  C21412589   6.478  -0.857   6.438  0.2119  0.5398  0.6194
  119SOPE  H14R12590   6.544  -0.805   6.365  1.7275 -1.5558  0.3872
  119SOPE  H14S12591   6.372  -0.837   6.411 -1.0501 -3.1116  2.2943
  119SOPE  C21512592   6.493  -1.009   6.434  0.3811 -0.1825 -0.1328
  119SOPE  H15R12593   6.434  -1.053   6.518  1.2267  1.3077  1.3040
  119SOPE  H15S12594   6.601  -1.031   6.445  1.2201  2.5037 -1.9464
  119SOPE  C21612595   6.447  -1.070   6.301  0.8927  0.4539 -0.4297
  119SOPE  H16R12596   6.365  -1.017   6.249  0.5315  0.0176 -0.3134
  119SOPE  H16S12597   6.403  -1.169   6.327 -1.0500  2.0127  2.8947
  119SOPE  C21712598   6.559  -1.099   6.202  0.3795  0.3408 -0.5877
  119SOPE  H17R12599   6.613  -1.185   6.248  1.0662  0.8736 -0.3767
  119SOPE  H17S12600   6.629  -1.013   6.197  1.7577 -0.8041 -2.5913
  119SOPE  C21812601   6.515  -1.128   6.055 -0.2988 -0.8682 -0.7376
  119SOPE  H18R12602   6.469  -1.034   6.018 -0.3226 -0.4497  0.3366
  119SOPE  H18S12603   6.439  -1.209   6.053 -2.0532  0.5733  1.7841
  119SOPE  H18T12604   6.601  -1.154   5.990 -0.2696 -1.6872 -0.3797
  119SOPE   C3312605   5.818  -0.438   7.167 -0.5573  0.2645  0.2623
  119SOPE   H3X12606   5.819  -0.327   7.158  1.2828  0.5007  2.5589
  119SOPE   H3Y12607   5.717  -0.477   7.187 -0.4208  0.8922  2.3481
  119SOPE   C3412608   5.871  -0.509   7.037  0.0232 -0.1245 -0.1427
  119SOPE   H4X12609   5.858  -0.619   7.044  0.9702 -0.1598  1.9116
  119SOPE   H4Y12610   5.980  -0.491   7.023  0.5244 -1.3423  1.8061
  119SOPE   C3512611   5.801  -0.466   6.904  0.2511  0.6236 -0.3683
  119SOPE   H5X12612   5.828  -0.361   6.884 -0.4812  0.8893 -0.0100
  119SOPE   H5Y12613   5.690  -0.470   6.917  0.3285 -2.5009  0.2659
  119SOPE   C3612614   5.851  -0.535   6.780 -0.6940  0.0876 -0.7017
  119SOPE   H6X12615   5.834  -0.644   6.798 -0.5819  0.0058 -1.0682
  119SOPE   H6Y12616   5.959  -0.508   6.777 -0.5152 -0.1153  1.6958
  119SOPE   C3712617   5.775  -0.500   6.652 -0.1318 -0.3603 -0.7014
  119SOPE   H7X12618   5.764  -0.390   6.659  0.1748 -0.4119  1.7826
  119SOPE   H7Y12619   5.672  -0.541   6.664  0.4889 -1.6506  0.5649
  119SOPE   C3812620   5.856  -0.553   6.531  0.6571 -0.8201  0.1025
  119SOPE   H8X12621   5.882  -0.657   6.560 -0.8948 -0.6611  2.2922
  119SOPE   H8Y12622   5.948  -0.491   6.524  0.8234 -1.0939 -0.1725
  119SOPE   C3912623   5.783  -0.542   6.395  0.3913 -0.1077 -0.2907
  119SOPE   H9X12624   5.774  -0.437   6.359 -1.0440  0.2308  0.9420
  119SOPE   H9Y12625   5.681  -0.586   6.402 -0.0476  0.6856 -1.3584
  119SOPE  C31012626   5.843  -0.622   6.279  0.2424 -0.2058  0.3237
  119SOPE  H10X12627   5.815  -0.729   6.281 -3.1483  0.5485 -0.2431
  119SOPE  H10Y12628   5.954  -0.616   6.281  0.1757  2.4948  0.3033
  119SOPE  C31112629   5.811  -0.561   6.137 -0.8066 -0.3042  0.6962
  119SOPE  H11X12630   5.822  -0.450   6.139 -3.2862 -0.0015  0.9122
  119SOPE  H11Y12631   5.702  -0.579   6.128 -0.8020 -0.4658  0.9655
  119SOPE  C31212632   5.898  -0.619   6.029 -0.6326  0.1105  0.5427
  119SOPE  H12X12633   5.904  -0.729   6.046  0.3074 -0.0817 -0.8961
  119SOPE  H12Y12634   6.004  -0.587   6.030 -1.0490  1.6003  1.7370
  119SOPE  C31312635   5.839  -0.601   5.882  0.2792  0.4158  0.1865
  119SOPE  H13X12636   5.736  -0.644   5.885  0.4081  0.0479 -0.5589
  119SOPE  H13Y12637   5.905  -0.652   5.809  0.6595  0.0323  0.7937
  119SOPE  C31412638   5.828  -0.448   5.844  0.1470 -0.2582  0.4791
  119SOPE  H14X12639   5.925  -0.404   5.878 -0.3732 -0.6641  2.6208
  119SOPE  H14Y12640   5.756  -0.382   5.897  1.7323  2.6670 -0.7103
  119SOPE  C31512641   5.816  -0.425   5.692 -0.1220 -0.5247 -0.8147
  119SOPE  H15X12642   5.709  -0.439   5.666  0.2456 -2.4523 -1.4302
  119SOPE  H15Y12643   5.875  -0.497   5.632 -0.0399  0.7817 -2.3733
  119SOPE  C31612644   5.856  -0.278   5.654  0.2569 -0.2241  0.0200
  119SOPE  H16X12645   5.960  -0.250   5.680 -0.1469 -0.6359  2.2535
  119SOPE  H16Y12646   5.781  -0.216   5.708  0.9544  0.8669 -0.2222
  119SOPE  C31712647   5.831  -0.247   5.506 -0.2504 -0.4465  0.7667
  119SOPE  H17X12648   5.739  -0.307   5.487  0.5790 -2.3590  2.4145
  119SOPE  H17Y12649   5.919  -0.296   5.459  1.4825  1.7195  1.6227
  119SOPE  C31812650   5.835  -0.099   5.471 -0.0425 -0.1478 -0.1424
  119SOPE  H18X12651   5.756  -0.038   5.521 -0.3653 -0.2905 -0.4776
  119SOPE  H18Y12652   5.805  -0.074   5.367 -0.4512  1.3907  0.3134
  119SOPE  H18Z12653   5.936  -0.065   5.502  0.1988 -0.3780 -0.6682
  120SOPE     N12654   6.411   4.005   8.585  0.0737 -0.3927 -0.3143
  120SOPE   HN112655   6.326   4.064   8.585 -0.0145 -0.5186 -0.1505
  120SOPE   HN212656   6.401   3.906   8.554 -0.0227 -1.6602  3.3588
  120SOPE   HN312657   6.433   3.999   8.686 -1.3587 -1.9560 -0.0465
  120SOPE   C1212658   6.544   4.067   8.535  0.1109 -0.3138  0.2624
  120SOPE  H12A12659   6.616   3.982   8.530  0.3042 -0.2178  1.1781
  120SOPE  H12B12660   6.572   4.146   8.608  0.6818 -0.3779  0.1231
  120SOPE   C1112661   6.522   4.131   8.398  0.0516 -0.3411  0.0995
  120SOPE  H11A12662   6.610   4.194   8.375  0.4073 -0.4364  1.1789
  120SOPE  H11B12663   6.438   4.204   8.406  0.7076  0.3484  0.7307
  120SOPE     P12664   6.615   3.961   8.219  0.1545  0.2878 -0.1415
  120SOPE   O1312665   6.557   3.839   8.158 -0.1755  0.6490 -0.2746
  120SOPE   O1412666   6.733   3.954   8.306 -0.2551  0.3341 -0.0566
  120SOPE   O1212667   6.495   4.037   8.293 -0.1238  0.1072 -0.9287
  120SOPE   O1112668   6.655   4.050   8.098 -0.2250 -0.5097 -0.2688
  120SOPE    C112669   6.712   4.174   8.085 -0.3457 -1.1484 -0.0696
  120SOPE    HA12670   6.814   4.167   8.044  0.1559  2.6761  0.1437
  120SOPE    HB12671   6.721   4.223   8.185 -4.0060 -0.6895  0.1944
  120SOPE    C212672   6.625   4.257   7.987  0.3911 -0.2483 -0.5124
  120SOPE    HS12673   6.525   4.275   8.032 -0.2861  1.9169 -2.6370
  120SOPE   O2112674   6.617   4.188   7.863  0.0153 -0.2107  0.0476
  120SOPE   C2112675   6.496   4.165   7.802  0.4468  0.0483 -0.7799
  120SOPE   O2212676   6.387   4.201   7.848 -0.0296 -0.1577 -0.1423
  120SOPE   C2212677   6.520   4.087   7.679  0.1183  0.7316 -0.2796
  120SOPE   H2R12678   6.418   4.082   7.635 -0.0898  0.9946  0.1669
  120SOPE   H2S12679   6.553   3.983   7.696 -1.0823  0.5201  0.8651
  120SOPE    C312680   6.680   4.392   7.953  0.2066  0.1590 -0.1316
  120SOPE    HX12681   6.775   4.374   7.898 -0.7655 -2.0499 -1.1802
  120SOPE    HY12682   6.696   4.460   8.039  1.2581  1.1992 -1.1120
  120SOPE   O3112683   6.590   4.449   7.859  0.7187  0.4453  0.1698
  120SOPE   C3112684   6.641   4.565   7.804  0.9785  0.2803  0.1709
  120SOPE   O3212685   6.743   4.620   7.842 -0.0610 -0.2833 -0.1990
  120SOPE   C3212686   6.550   4.623   7.696  0.2949 -0.2425 -0.3909
  120SOPE   H2X12687   6.510   4.718   7.737  1.2741  0.2020 -0.4432
  120SOPE   H2Y12688   6.470   4.548   7.675  0.9130 -0.5440 -1.8132
  120SOPE   C2312689   6.596   4.173   7.578 -0.1458 -0.4276 -0.4417
  120SOPE   H3R12690   6.700   4.194   7.612  0.4586 -0.0538 -2.3986
  120SOPE   H3S12691   6.552   4.274   7.564  0.1063 -0.4352 -1.3992
  120SOPE   C2412692   6.619   4.103   7.436  0.4304  0.4179 -0.2297
  120SOPE   H4R12693   6.672   4.010   7.466 -0.4116  0.0200  0.0545
  120SOPE   H4S12694   6.522   4.070   7.394  0.4969 -0.7769  0.5214
  120SOPE   C2512695   6.708   4.186   7.350  0.1878 -0.7806  0.5291
  120SOPE   H5R12696   6.675   4.292   7.344 -0.9938 -1.1394  0.4429
  120SOPE   H5S12697   6.810   4.188   7.395 -0.1988 -2.0732  1.5110
  120SOPE   C2612698   6.698   4.139   7.205 -0.3241 -0.3707  0.7835
  120SOPE   H6R12699   6.760   4.047   7.196  3.8810  2.3369 -1.5838
  120SOPE   H6S12700   6.596   4.134   7.161 -0.1423  0.4717  0.2550
  120SOPE   C2712701   6.773   4.226   7.104  0.1081  0.1471 -0.0679
  120SOPE   H7R12702   6.737   4.331   7.107  1.6888  0.7051  1.0193
  120SOPE   H7S12703   6.881   4.227   7.133  0.5476 -2.4053 -1.3487
  120SOPE   C2812704   6.767   4.178   6.958  0.3634  0.1847  0.1315
  120SOPE   H8R12705   6.659   4.172   6.935  0.7278 -0.5611 -1.6011
  120SOPE   H8S12706   6.817   4.253   6.894  0.1522 -0.4782 -0.8428
  120SOPE   C2912707   6.831   4.039   6.940 -0.3625 -0.0866  0.3136
  120SOPE   H9112708   6.799   3.956   7.005  0.8256 -0.6932  0.1461
  120SOPE  C21012709   6.920   4.001   6.850 -0.2738  0.0626  0.2226
  120SOPE  H10112710   6.962   3.901   6.868  3.3348  1.4060  0.1775
  120SOPE  C21112711   6.983   4.092   6.752 -0.3484 -0.1904  0.9639
  120SOPE  H11R12712   7.092   4.071   6.762 -0.4614 -1.0320  0.4873
  120SOPE  H11S12713   6.986   4.201   6.772 -0.2662 -0.1015  0.4641
  120SOPE  C21212714   6.926   4.062   6.612 -0.4544  0.5966 -0.2410
  120SOPE  H12R12715   6.816   4.057   6.622 -0.2833 -0.3773  1.3530
  120SOPE  H12S12716   6.960   3.960   6.586 -0.9774  0.4521 -0.3643
  120SOPE  C21312717   6.978   4.161   6.508 -0.3170  1.2169 -0.4257
  120SOPE  H13R12718   7.086   4.181   6.524 -0.1860  0.2496 -0.0445
  120SOPE  H13S12719   6.931   4.261   6.510  3.2394  3.0570  0.7886
  120SOPE  C21412720   6.952   4.096   6.363  0.6452 -0.1047 -0.0715
  120SOPE  H14R12721   6.842   4.083   6.352  0.7410  0.2945 -1.6635
  120SOPE  H14S12722   6.998   3.995   6.366  0.7135 -0.1511 -1.8978
  120SOPE  C21512723   7.013   4.181   6.254 -0.3692 -0.9784 -0.4053
  120SOPE  H15R12724   7.122   4.173   6.268 -0.4366 -1.0575  0.0783
  120SOPE  H15S12725   6.973   4.282   6.278  0.8647 -1.3392  4.1832
  120SOPE  C21612726   6.973   4.128   6.117  0.4470  0.4757  0.6413
  120SOPE  H16R12727   6.864   4.105   6.125  0.3252  0.4404 -0.7970
  120SOPE  H16S12728   7.012   4.027   6.091 -2.1264 -0.4041 -0.0876
  120SOPE  C21712729   7.003   4.230   6.009  0.1294 -0.1131  0.0391
  120SOPE  H17R12730   7.036   4.191   5.911 -0.8953  1.0422 -0.8042
  120SOPE  H17S12731   7.089   4.295   6.037  0.6010  0.5159 -2.6306
  120SOPE  C21812732   6.888   4.330   5.987  0.4230 -0.3274 -0.4373
  120SOPE  H18R12733   6.912   4.407   5.911  0.6637  0.3331  0.2853
  120SOPE  H18S12734   6.855   4.379   6.081 -0.1089  1.1613 -1.3652
  120SOPE  H18T12735   6.798   4.285   5.941 -1.0809  0.3041  1.7090
  120SOPE   C3312736   6.640   4.649   7.573  0.4668  0.0119 -0.7718
  120SOPE   H3X12737   6.711   4.731   7.597  0.4664 -0.3408  0.5768
  120SOPE   H3Y12738   6.569   4.686   7.497 -0.5042  0.8764  0.5057
  120SOPE   C3412739   6.708   4.530   7.515 -0.2017  0.7140  0.9586
  120SOPE   H4X12740   6.627   4.456   7.500  0.4319  0.2262 -0.1727
  120SOPE   H4Y12741   6.783   4.484   7.584  2.3067  1.3434 -1.1755
  120SOPE   C3512742   6.771   4.551   7.376  0.1163  0.0620 -0.2067
  120SOPE   H5X12743   6.795   4.455   7.326  0.7530 -0.4917  1.1105
  120SOPE   H5Y12744   6.867   4.599   7.406  0.3629 -0.8206  0.4310
  120SOPE   C3612745   6.691   4.650   7.286 -0.4723 -0.9646  0.1059
  120SOPE   H6X12746   6.683   4.753   7.329  0.6594  0.8573 -3.5811
  120SOPE   H6Y12747   6.593   4.604   7.263 -0.0042 -1.5096 -0.8504
  120SOPE   C3712748   6.766   4.671   7.158  0.0759  0.3973  0.2257
  120SOPE   H7X12749   6.811   4.573   7.133  0.2835 -0.7338  4.3742
  120SOPE   H7Y12750   6.853   4.740   7.162  0.1014  0.7398 -2.9808
  120SOPE   C3812751   6.673   4.727   7.049 -0.1756  0.6635  0.1438
  120SOPE   H8X12752   6.642   4.824   7.092 -1.4075 -0.1023  1.0420
  120SOPE   H8Y12753   6.576   4.674   7.039  0.7672 -0.8440 -1.7775
  120SOPE   C3912754   6.746   4.741   6.911  0.3448 -0.4928  0.6302
  120SOPE   H9X12755   6.844   4.793   6.908  0.0008  0.1197 -0.5497
  120SOPE   H9Y12756   6.688   4.798   6.836  3.0879 -1.8861 -2.8006
  120SOPE  C31012757   6.769   4.606   6.842  0.4554  0.0514 -0.2563
  120SOPE  H10X12758   6.667   4.567   6.822  0.4145  0.4624 -0.8636
  120SOPE  H10Y12759   6.831   4.537   6.904  1.1153 -0.6338 -1.6406
  120SOPE  C31112760   6.840   4.611   6.702  0.7280 -0.5230  0.7436
  120SOPE  H11X12761   6.858   4.507   6.668 -0.9156 -0.9659  1.1377
  120SOPE  H11Y12762   6.940   4.661   6.705  0.9926 -0.9882 -0.0019
  120SOPE  C31212763   6.758   4.676   6.590  0.6942  0.4186 -0.5929
  120SOPE  H12X12764   6.753   4.785   6.607  0.7072  0.6261 -1.8248
  120SOPE  H12Y12765   6.652   4.644   6.601  0.1657  2.5956  1.3868
  120SOPE  C31312766   6.806   4.652   6.446  0.2959 -0.1526 -0.3179
  120SOPE  H13X12767   6.807   4.545   6.418  0.9438  0.1376 -1.4751
  120SOPE  H13Y12768   6.907   4.699   6.454 -0.3277  1.1599  0.1352
  120SOPE  C31412769   6.714   4.730   6.352 -0.1482 -0.0723 -0.1174
  120SOPE  H14X12770   6.667   4.812   6.410 -3.3524 -1.4108 -0.6136
  120SOPE  H14Y12771   6.639   4.661   6.307  0.2349 -0.5179 -0.0786
  120SOPE  C31512772   6.772   4.785   6.223 -0.1685 -0.7688 -0.6830
  120SOPE  H15X12773   6.851   4.857   6.251 -1.0772 -0.5223  1.3779
  120SOPE  H15Y12774   6.694   4.847   6.174 -1.7006 -1.7185  0.4644
  120SOPE  C31612775   6.837   4.687   6.126 -0.3455  0.9751  0.6569
  120SOPE  H16X12776   6.756   4.616   6.099  0.4732  0.5114 -0.6860
  120SOPE  H16Y12777   6.917   4.637   6.183  0.2572  0.2969 -0.7227
  120SOPE  C31712778   6.901   4.734   5.994 -0.2220  0.8118 -0.2483
  120SOPE  H17X12779   6.951   4.650   5.942 -2.4088 -0.4954 -0.3287
  120SOPE  H17Y12780   6.989   4.794   6.026  1.6606 -0.7450 -2.2005
  120SOPE  C31812781   6.810   4.810   5.899 -0.5243 -0.0508 -0.6526
  120SOPE  H18X12782   6.720   4.750   5.873 -1.6644  0.2051  2.2559
  120SOPE  H18Y12783   6.863   4.841   5.807 -0.9430  2.0298 -0.2511
  120SOPE  H18Z12784   6.764   4.900   5.946 -0.1306 -0.0765 -0.2034
  121SOPE     N12785   2.038   1.722   7.839 -0.0117 -0.2381  0.4123
  121SOPE   HN112786   2.088   1.632   7.851  0.0736 -0.0810  1.2577
  121SOPE   HN212787   1.942   1.697   7.870 -0.8291  1.3785 -0.6762
  121SOPE   HN312788   2.033   1.739   7.736  4.9713  1.1399  0.1326
  121SOPE   C1212789   2.108   1.832   7.908  0.5215 -0.5263 -0.3383
  121SOPE  H12A12790   2.202   1.840   7.850  1.2921  2.6383  1.1309
  121SOPE  H12B12791   2.132   1.808   8.014 -1.1670  1.6608  0.6335
  121SOPE   C1112792   2.036   1.972   7.883 -0.2866  0.0768  0.3374
  121SOPE  H11A12793   2.027   1.979   7.773 -1.5414 -1.2926  0.3126
  121SOPE  H11B12794   2.109   2.047   7.919 -0.3408  0.4663 -0.3589
  121SOPE     P12795   1.835   2.123   7.939  0.2333  0.0594  0.1272
  121SOPE   O1312796   1.935   2.227   7.914 -0.9734 -0.4208  0.3555
  121SOPE   O1412797   1.745   2.125   8.057 -0.5366 -0.3429 -0.4448
  121SOPE   O1212798   1.907   1.985   7.941 -0.1227 -0.3842 -0.8716
  121SOPE   O1112799   1.744   2.107   7.811 -0.3486 -0.4437 -0.5556
  121SOPE    C112800   1.694   1.982   7.761 -0.2403 -0.9554 -0.3474
  121SOPE    HA12801   1.621   1.928   7.824  1.4948 -2.1979  0.7032
  121SOPE    HB12802   1.777   1.911   7.741 -0.6271 -1.1829 -1.1947
  121SOPE    C212803   1.629   2.008   7.624 -0.1645 -0.0730  0.8285
  121SOPE    HS12804   1.609   1.913   7.571  0.6409  0.2116 -0.0073
  121SOPE   O2112805   1.712   2.103   7.544  0.6660 -0.3633 -0.0476
  121SOPE   C2112806   1.828   2.062   7.510  0.2448  0.0736  0.0776
  121SOPE   O2212807   1.863   1.944   7.515 -0.5272 -0.4675 -0.3811
  121SOPE   C2212808   1.910   2.172   7.446 -0.6011 -1.0328 -0.1583
  121SOPE   H2R12809   2.005   2.185   7.501 -1.4179 -0.1317  1.1043
  121SOPE   H2S12810   1.847   2.264   7.444  0.9469  0.0773 -1.5342
  121SOPE    C312811   1.487   2.071   7.639 -0.3247 -0.3994  0.5687
  121SOPE    HX12812   1.495   2.172   7.684 -0.1494  0.0011 -0.3323
  121SOPE    HY12813   1.425   2.019   7.714 -0.6446  0.2532  0.7668
  121SOPE   O3112814   1.425   2.084   7.511 -0.3145 -0.0328  0.6974
  121SOPE   C3112815   1.332   1.988   7.478 -0.1152 -0.0036 -0.1648
  121SOPE   O3212816   1.300   1.896   7.554 -0.3745  0.0925  0.2263
  121SOPE   C3212817   1.266   2.027   7.344  0.0402 -0.6023 -0.4979
  121SOPE   H2X12818   1.206   2.119   7.363 -0.7651 -1.3222  0.5372
  121SOPE   H2Y12819   1.196   1.944   7.320  2.4495 -1.9432 -3.5807
  121SOPE   C2312820   1.949   2.136   7.296 -0.2125 -0.3522 -0.1659
  121SOPE   H3R12821   2.010   2.044   7.304  0.1754 -0.0423  0.5388
  121SOPE   H3S12822   2.004   2.221   7.251 -1.7228  1.8442  1.8882
  121SOPE   C2412823   1.822   2.118   7.206  0.4696 -0.4603 -0.4474
  121SOPE   H4R12824   1.759   2.037   7.248  1.2074 -1.5698 -1.4161
  121SOPE   H4S12825   1.748   2.201   7.215 -0.1630 -1.0437 -0.1420
  121SOPE   C2512826   1.855   2.091   7.056 -0.1433 -0.2555 -0.4622
  121SOPE   H5R12827   1.919   2.002   7.068  1.8947  1.4373  2.3502
  121SOPE   H5S12828   1.760   2.065   7.004 -1.2714 -0.2140  1.4726
  121SOPE   C2612829   1.944   2.186   6.975 -0.0258  0.6409  0.5558
  121SOPE   H6R12830   1.900   2.284   6.946  1.0145  0.7531 -0.7337
  121SOPE   H6S12831   2.030   2.217   7.039  0.3724 -2.6077  1.8048
  121SOPE   C2712832   1.997   2.120   6.842  0.6664  0.1227 -0.0168
  121SOPE   H7R12833   2.065   2.034   6.860  1.4364  0.2159 -2.1094
  121SOPE   H7S12834   1.903   2.086   6.792  0.3105 -0.4331  1.0202
  121SOPE   C2812835   2.063   2.227   6.749 -0.2781  0.2035  0.5833
  121SOPE   H8R12836   1.985   2.306   6.747 -2.3018 -1.5778  2.6979
  121SOPE   H8S12837   2.157   2.269   6.793  0.4685 -1.5587  0.7888
  121SOPE   C2912838   2.094   2.195   6.605 -1.0110 -0.2669 -0.5816
  121SOPE   H9112839   2.145   2.098   6.594 -0.9196 -0.1963 -0.7783
  121SOPE  C21012840   2.047   2.246   6.496 -0.1850 -0.5520  0.4257
  121SOPE  H10112841   2.086   2.204   6.403 -0.9374  0.9579 -0.6111
  121SOPE  C21112842   1.978   2.379   6.480 -0.0918  0.2321 -0.2543
  121SOPE  H11R12843   1.977   2.434   6.576 -2.1515  1.0902 -0.7197
  121SOPE  H11S12844   1.869   2.364   6.467 -0.1963 -1.1201  1.7603
  121SOPE  C21212845   2.058   2.459   6.373  0.2924  0.9189  0.2184
  121SOPE  H12R12846   2.168   2.448   6.387  0.2444 -0.8376 -0.5575
  121SOPE  H12S12847   2.041   2.569   6.377  1.3794  1.0807  1.0919
  121SOPE  C21312848   2.018   2.420   6.226  0.0098 -0.1666 -0.2643
  121SOPE  H13R12849   1.907   2.424   6.215  0.0260  0.1367 -0.3361
  121SOPE  H13S12850   2.046   2.314   6.210  0.4020 -0.0958 -0.0488
  121SOPE  C21412851   2.074   2.518   6.120  0.1886  0.1025  0.3162
  121SOPE  H14R12852   2.183   2.530   6.136  0.4389  0.7545 -1.6078
  121SOPE  H14S12853   2.027   2.618   6.137 -1.2216 -0.0989 -1.9759
  121SOPE  C21512854   2.052   2.466   5.977  0.2283 -0.5086  0.3773
  121SOPE  H15R12855   1.947   2.427   5.975 -0.3244  0.7876  2.0869
  121SOPE  H15S12856   2.127   2.385   5.962  0.8557  0.1524 -0.1001
  121SOPE  C21612857   2.079   2.578   5.874  0.4673  0.1900 -0.2954
  121SOPE  H16R12858   2.101   2.543   5.771 -2.4289  0.5245 -1.0926
  121SOPE  H16S12859   2.171   2.629   5.910  0.3866  1.3855 -1.7061
  121SOPE  C21712860   1.978   2.700   5.871  0.6549  0.0268 -0.0168
  121SOPE  H17R12861   1.970   2.742   5.974 -0.4924  1.7252 -0.7619
  121SOPE  H17S12862   1.883   2.655   5.836  0.7857 -0.5209  0.3163
  121SOPE  C21812863   2.012   2.823   5.785 -0.1920  0.0674 -0.2824
  121SOPE  H18R12864   1.985   2.804   5.678 -0.4881 -1.4503  0.0397
  121SOPE  H18S12865   2.120   2.845   5.796  0.2010 -1.5905 -0.5879
  121SOPE  H18T12866   1.950   2.912   5.810  0.3978  1.0660 -2.1119
  121SOPE   C3312867   1.362   2.046   7.222 -0.3717  0.3079  0.1905
  121SOPE   H3X12868   1.420   1.951   7.216 -1.2951 -0.4214  2.1269
  121SOPE   H3Y12869   1.441   2.123   7.234  0.3083 -0.3133 -0.2233
  121SOPE   C3412870   1.283   2.073   7.096  0.1821 -0.0920  0.7551
  121SOPE   H4X12871   1.238   2.174   7.098  0.3850  0.2249 -2.8646
  121SOPE   H4Y12872   1.196   2.004   7.088 -1.1781  1.5677  0.7655
  121SOPE   C3512873   1.373   2.072   6.979 -0.5962 -0.0026 -0.2117
  121SOPE   H5X12874   1.321   2.068   6.881 -0.9443  1.5305 -0.1131
  121SOPE   H5Y12875   1.440   1.984   6.972 -1.1295 -0.3134 -2.1255
  121SOPE   C3612876   1.465   2.197   6.959 -0.0923 -0.3051 -0.3769
  121SOPE   H6X12877   1.535   2.222   7.042  0.8783 -1.0410 -0.9509
  121SOPE   H6Y12878   1.397   2.283   6.946 -0.6100 -0.6493 -0.0130
  121SOPE   C3712879   1.554   2.184   6.833  0.1840  0.2670 -0.9342
  121SOPE   H7X12880   1.608   2.087   6.846  1.3316  1.0857  0.8373
  121SOPE   H7Y12881   1.619   2.272   6.850 -1.7485  1.2544  2.1515
  121SOPE   C3812882   1.478   2.190   6.702 -0.1543 -0.1498  0.3050
  121SOPE   H8X12883   1.428   2.288   6.695  0.7001  0.2620 -0.1475
  121SOPE   H8Y12884   1.413   2.100   6.693 -0.0646 -0.1877  0.0371
  121SOPE   C3912885   1.582   2.183   6.588 -0.3284  0.1175 -0.1442
  121SOPE   H9X12886   1.622   2.080   6.581 -1.5255 -0.3538 -0.4087
  121SOPE   H9Y12887   1.660   2.259   6.608 -0.1750 -0.1487  0.2664
  121SOPE  C31012888   1.516   2.209   6.446  0.0654 -0.4664 -1.1187
  121SOPE  H10X12889   1.457   2.303   6.443  0.6530 -0.1050 -1.8515
  121SOPE  H10Y12890   1.447   2.126   6.421  0.6310 -1.5439  0.6863
  121SOPE  C31112891   1.624   2.214   6.337  0.5576  0.3601  0.0789
  121SOPE  H11X12892   1.685   2.121   6.338  1.4730  0.9433  1.8876
  121SOPE  H11Y12893   1.698   2.291   6.368  1.3994 -0.5507  0.3730
  121SOPE  C31212894   1.562   2.219   6.200 -0.2983  0.0423  0.4348
  121SOPE  H12X12895   1.463   2.258   6.232 -0.6452 -1.3138  1.0797
  121SOPE  H12Y12896   1.536   2.119   6.159 -0.9616  1.1843 -2.1935
  121SOPE  C31312897   1.638   2.293   6.086  0.0764  0.6886 -0.2667
  121SOPE  H13X12898   1.745   2.262   6.077  0.1040  1.0674 -1.4125
  121SOPE  H13Y12899   1.635   2.397   6.126 -0.9037  0.2487  0.8350
  121SOPE  C31412900   1.573   2.268   5.952 -0.2682 -0.4311  0.4533
  121SOPE  H14X12901   1.462   2.273   5.957 -0.1840  0.5631  2.1523
  121SOPE  H14Y12902   1.598   2.163   5.926  0.8979  0.0919 -0.6432
  121SOPE  C31512903   1.631   2.374   5.855 -0.3359 -0.0665  0.5292
  121SOPE  H15X12904   1.740   2.362   5.835  0.1505  0.4704  2.5869
  121SOPE  H15Y12905   1.621   2.472   5.908 -3.7413 -0.9016  1.6705
  121SOPE  C31612906   1.548   2.372   5.730 -0.2400  0.2162  0.0166
  121SOPE  H16X12907   1.451   2.423   5.749  0.5537  1.5488  0.6189
  121SOPE  H16Y12908   1.525   2.266   5.707 -1.2729  0.5796 -0.6943
  121SOPE  C31712909   1.612   2.448   5.616 -0.2839 -0.8467  0.0583
  121SOPE  H17X12910   1.562   2.428   5.519 -1.0944 -0.2859  0.3522
  121SOPE  H17Y12911   1.716   2.414   5.597 -0.2576  0.1937 -1.8478
  121SOPE  C31812912   1.611   2.598   5.640 -0.3451  0.3302  0.0116
  121SOPE  H18X12913   1.508   2.632   5.665 -0.4057  0.0712  0.1202
  121SOPE  H18Y12914   1.635   2.646   5.543 -0.4958 -0.9136 -0.6743
  121SOPE  H18Z12915   1.666   2.625   5.732 -1.6404 -0.2884  1.0045
  122SOPE     N12916   6.402   2.897   7.568  0.7971  0.2385  0.3325
  122SOPE   HN112917   6.497   2.931   7.540  0.6499 -0.1480 -0.6933
  122SOPE   HN212918   6.373   2.819   7.506  1.1436 -0.3824  0.9363
  122SOPE   HN312919   6.330   2.971   7.570 -1.4159 -1.7934  2.4448
  122SOPE   C1212920   6.400   2.835   7.708  0.7415 -0.1355  0.0339
  122SOPE  H12A12921   6.295   2.819   7.743  0.8025  0.0838  0.3305
  122SOPE  H12B12922   6.440   2.920   7.768  1.4901  0.1959 -0.9193
  122SOPE   C1112923   6.480   2.709   7.727  0.0518  0.3354 -0.7810
  122SOPE  H11A12924   6.446   2.626   7.661  0.5681 -1.9074  1.6188
  122SOPE  H11B12925   6.473   2.691   7.836  0.7622  0.3631 -0.7234
  122SOPE     P12926   6.720   2.630   7.728  0.1128 -0.2601 -0.0090
  122SOPE   O1312927   6.680   2.536   7.832 -0.9016 -0.3369 -0.3518
  122SOPE   O1412928   6.839   2.706   7.769 -0.9167  0.4892  0.2789
  122SOPE   O1212929   6.613   2.742   7.698 -0.0797 -0.5909 -0.0048
  122SOPE   O1112930   6.742   2.571   7.583  0.5970  0.2709  0.0441
  122SOPE    C112931   6.775   2.655   7.475 -0.9921  0.1047  0.0789
  122SOPE    HA12932   6.742   2.760   7.490  0.8676  1.0366 -1.8770
  122SOPE    HB12933   6.720   2.616   7.387 -2.0661 -0.0026  0.7731
  122SOPE    C212934   6.918   2.645   7.424 -0.3627 -0.7542  0.0206
  122SOPE    HS12935   6.957   2.544   7.449  0.0227 -1.0796 -1.7414
  122SOPE   O2112936   6.994   2.751   7.492 -1.2386 -0.6713  0.1937
  122SOPE   C2112937   7.118   2.727   7.529  0.2499 -0.2018 -0.3220
  122SOPE   O2212938   7.170   2.617   7.527 -0.2449 -0.0484  0.0853
  122SOPE   C2212939   7.184   2.853   7.577  0.5244  0.4842 -0.4595
  122SOPE   H2R12940   7.194   2.851   7.687  3.2183  2.6055 -0.5640
  122SOPE   H2S12941   7.121   2.943   7.562  0.1072  0.0228 -1.7067
  122SOPE    C312942   6.932   2.646   7.263  0.1451 -0.2232  0.3015
  122SOPE    HX12943   7.038   2.621   7.243 -0.4827 -0.3156 -3.9255
  122SOPE    HY12944   6.910   2.747   7.222 -0.2559 -0.4964 -0.1701
  122SOPE   O3112945   6.841   2.550   7.195  0.3235 -0.4156  0.0460
  122SOPE   C3112946   6.883   2.511   7.080  0.2737  0.5081 -0.1239
  122SOPE   O3212947   6.982   2.561   7.022  0.6201 -0.6129 -0.1483
  122SOPE   C3212948   6.796   2.398   7.027 -0.0169 -0.1115 -0.4544
  122SOPE   H2X12949   6.693   2.427   7.058  0.2806  0.5288 -0.0327
  122SOPE   H2Y12950   6.812   2.300   7.076  0.8743  0.2650  0.0370
  122SOPE   C2312951   7.316   2.872   7.491  0.5422  0.0768  0.0825
  122SOPE   H3R12952   7.374   2.778   7.498  1.6980  0.7504 -0.1566
  122SOPE   H3S12953   7.369   2.954   7.545  0.4218 -0.9510  1.8545
  122SOPE   C2412954   7.285   2.898   7.340 -0.2390 -0.1662 -0.2975
  122SOPE   H4R12955   7.232   2.812   7.294  0.0802 -0.8141  0.5289
  122SOPE   H4S12956   7.221   2.988   7.336 -0.7231 -0.2726  2.9560
  122SOPE   C2512957   7.413   2.940   7.267 -0.4802  0.2849  0.0513
  122SOPE   H5R12958   7.448   3.032   7.318  0.9252 -0.7557  1.0285
  122SOPE   H5S12959   7.480   2.853   7.279 -0.5791  0.3691  1.2541
  122SOPE   C2612960   7.389   2.981   7.117 -0.2769  0.7312  0.3397
  122SOPE   H6R12961   7.367   2.890   7.057 -0.3507  1.5055 -0.8325
  122SOPE   H6S12962   7.303   3.050   7.105  1.6138  3.0674 -0.4397
  122SOPE   C2712963   7.507   3.056   7.056 -0.3749  0.2716  0.0456
  122SOPE   H7R12964   7.543   3.135   7.125  1.7746 -1.5204  1.1201
  122SOPE   H7S12965   7.586   2.977   7.059  0.0551  0.5268 -2.4246
  122SOPE   C2812966   7.479   3.086   6.906  0.0816 -0.3491 -0.0376
  122SOPE   H8R12967   7.444   2.992   6.858 -0.0442  0.2870 -1.2307
  122SOPE   H8S12968   7.390   3.153   6.901 -2.0355 -3.0379 -0.6604
  122SOPE   C2912969   7.591   3.153   6.821 -0.5351 -0.3988 -0.7147
  122SOPE   H9112970   7.624   3.252   6.856 -0.2900 -0.0290 -1.9527
  122SOPE  C21012971   7.642   3.101   6.704  0.1483  0.2562 -0.7415
  122SOPE  H10112972   7.718   3.160   6.651  0.3488  1.1201  0.4781
  122SOPE  C21112973   7.598   2.967   6.646 -0.1365 -0.5450  0.1178
  122SOPE  H11R12974   7.490   2.965   6.617  0.2244  1.1292 -1.6055
  122SOPE  H11S12975   7.606   2.895   6.730  0.8674 -2.9720 -1.9470
  122SOPE  C21212976   7.678   2.913   6.521 -0.5181  0.3671  0.1945
  122SOPE  H12R12977   7.651   2.806   6.516  2.8893 -0.5850 -0.5971
  122SOPE  H12S12978   7.788   2.918   6.538 -0.7996  0.5856  2.1953
  122SOPE  C21312979   7.641   2.979   6.390  0.4463  0.2972  0.2353
  122SOPE  H13R12980   7.686   3.080   6.380  2.1915 -0.4986 -0.2272
  122SOPE  H13S12981   7.530   2.991   6.385  0.3989  0.0684  0.6867
  122SOPE  C21412982   7.686   2.894   6.271 -0.5143 -0.5057 -0.1376
  122SOPE  H14R12983   7.641   2.793   6.262 -2.2961  0.2212  0.1598
  122SOPE  H14S12984   7.793   2.877   6.296 -0.4795 -0.4812 -0.2645
  122SOPE  C21512985   7.687   2.965   6.138 -0.0586 -0.1575  0.0320
  122SOPE  H15R12986   7.782   3.023   6.131 -0.3409  0.3071  0.0522
  122SOPE  H15S12987   7.605   3.039   6.127 -0.3941 -0.5419 -0.0893
  122SOPE  C21612988   7.679   2.872   6.020 -0.5804 -0.0001  0.2397
  122SOPE  H16R12989   7.639   2.771   6.046 -0.3184  0.4588  2.6293
  122SOPE  H16S12990   7.784   2.867   5.984 -1.4578 -0.3782 -2.4988
  122SOPE  C21712991   7.587   2.918   5.902  0.2628 -0.3026  0.0351
  122SOPE  H17R12992   7.482   2.912   5.937 -0.6491  0.7064 -2.3651
  122SOPE  H17S12993   7.604   2.842   5.824  0.9271  0.2819 -0.4048
  122SOPE  C21812994   7.611   3.055   5.839  0.0447 -0.4736 -0.3445
  122SOPE  H18R12995   7.567   3.063   5.738 -0.7484 -2.8602 -0.2336
  122SOPE  H18S12996   7.719   3.073   5.821  0.7425 -1.8131  1.9993
  122SOPE  H18T12997   7.583   3.131   5.916  0.2326 -0.2087 -0.5342
  122SOPE   C3312998   6.801   2.389   6.875 -0.0479  0.2334 -0.3498
  122SOPE   H3X12999   6.904   2.360   6.843 -0.7125 -2.0745 -0.5228
  122SOPE   H3Y13000   6.783   2.492   6.837  0.6497  0.8323  0.8666
  122SOPE   C3413001   6.699   2.288   6.822 -0.3886  0.8979 -0.4352
  122SOPE   H4X13002   6.599   2.321   6.859 -0.9689 -0.3363 -0.8606
  122SOPE   H4Y13003   6.724   2.187   6.859  0.9930  1.0102 -1.0101
  122SOPE   C3513004   6.692   2.279   6.670 -0.0920 -0.5416 -0.0656
  122SOPE   H5X13005   6.688   2.380   6.623  0.5194 -0.3864  0.2074
  122SOPE   H5Y13006   6.593   2.240   6.637 -0.9532  2.1700 -0.9461
  122SOPE   C3613007   6.808   2.218   6.593 -0.9206  0.6595  0.5155
  122SOPE   H6X13008   6.841   2.122   6.638  4.0138  2.3040  0.9914
  122SOPE   H6Y13009   6.884   2.299   6.597  1.3211 -1.3302  0.7553
  122SOPE   C3713010   6.788   2.188   6.438  0.2258  0.0838 -0.3277
  122SOPE   H7X13011   6.772   2.283   6.383  0.7664  0.4927  0.2061
  122SOPE   H7Y13012   6.695   2.126   6.435  0.2170  0.1112 -0.6326
  122SOPE   C3813013   6.901   2.112   6.373  0.2763  0.9685 -1.0172
  122SOPE   H8X13014   6.933   2.030   6.441 -1.3397 -0.0973 -1.5027
  122SOPE   H8Y13015   6.996   2.167   6.357  1.2234 -0.5673 -0.8532
  122SOPE   C3913016   6.859   2.064   6.230 -0.2771  0.3058  0.1650
  122SOPE   H9X13017   6.841   2.145   6.156 -0.2173  1.2421  1.1490
  122SOPE   H9Y13018   6.760   2.016   6.241  0.2018 -0.3335  2.1359
  122SOPE  C31013019   6.962   1.971   6.158 -0.4330  0.6649 -0.1137
  122SOPE  H10X13020   6.907   1.914   6.080 -1.4913  0.1798  0.9547
  122SOPE  H10Y13021   7.002   1.895   6.228 -0.7115 -0.6827 -1.3496
  122SOPE  C31113022   7.071   2.050   6.085 -0.3680  0.0572  0.2887
  122SOPE  H11X13023   7.145   2.094   6.155 -0.1350 -1.3957  0.9960
  122SOPE  H11Y13024   7.031   2.141   6.036  2.6513  1.5039  0.2337
  122SOPE  C31213025   7.150   1.978   5.969  0.1979 -0.1781 -0.5484
  122SOPE  H12X13026   7.171   1.872   5.997 -2.6804 -0.0685  2.6467
  122SOPE  H12Y13027   7.243   2.037   5.962 -0.2946  0.5911 -0.8125
  122SOPE  C31313028   7.082   1.969   5.829  0.1171 -0.1819  0.3417
  122SOPE  H13X13029   6.984   1.917   5.833 -0.3485  0.6817  0.4362
  122SOPE  H13Y13030   7.149   1.910   5.763 -1.7457  1.4596 -3.2480
  122SOPE  C31413031   7.056   2.105   5.763  0.1589 -0.9322 -0.5284
  122SOPE  H14X13032   7.146   2.170   5.769 -0.7930  0.7107 -2.7522
  122SOPE  H14Y13033   6.979   2.168   5.812  0.2308  1.0081 -2.7549
  122SOPE  C31513034   7.009   2.089   5.614 -0.3283  0.1021  0.4209
  122SOPE  H15X13035   6.974   2.192   5.593  0.9010  0.8683  1.8610
  122SOPE  H15Y13036   6.926   2.016   5.602 -1.0361  0.6964  1.4524
  122SOPE  C31613037   7.118   2.047   5.512  0.0137 -0.6231 -0.0053
  122SOPE  H16X13038   7.170   1.956   5.548  1.5293  0.5609  0.9163
  122SOPE  H16Y13039   7.191   2.130   5.529  0.8347 -1.5900  1.4501
  122SOPE  C31713040   7.079   2.044   5.364  0.2660 -0.0949 -0.1991
  122SOPE  H17X13041   7.171   2.044   5.303 -0.0155  3.0790 -0.7947
  122SOPE  H17Y13042   7.033   2.137   5.325 -0.9437 -0.8257 -0.5872
  122SOPE  C31813043   6.998   1.925   5.323 -0.0796 -0.1353 -0.4134
  122SOPE  H18X13044   6.982   1.939   5.214 -1.3793 -0.0335 -0.2312
  122SOPE  H18Y13045   6.894   1.924   5.364 -1.3037  1.4609 -3.1728
  122SOPE  H18Z13046   7.057   1.834   5.344  1.1187  0.9990  1.4888
  123SOPE     N13047   5.421   3.594   3.152  0.2694  0.6247 -0.4666
  123SOPE   HN113048   5.498   3.579   3.084 -0.5866  1.1821 -1.5888
  123SOPE   HN213049   5.445   3.687   3.192  0.7529 -0.8688  3.1540
  123SOPE   HN313050   5.429   3.524   3.229 -0.1610  0.8360 -0.2270
  123SOPE   C1213051   5.290   3.589   3.080  0.6223  0.4589 -0.0157
  123SOPE  H12A13052   5.265   3.484   3.055 -0.0515  1.3085 -3.4034
  123SOPE  H12B13053   5.300   3.630   2.977 -1.1536 -1.0239 -0.8339
  123SOPE   C1113054   5.183   3.652   3.173 -0.9175  0.2057  0.6789
  123SOPE  H11A13055   5.173   3.584   3.260 -0.0723 -0.1445  0.5096
  123SOPE  H11B13056   5.092   3.662   3.110 -0.2037 -0.0901 -0.4387
  123SOPE     P13057   5.133   3.888   3.274 -0.0092 -0.1182  0.2302
  123SOPE   O1313058   5.006   3.812   3.303  0.3707 -0.2336  0.5130
  123SOPE   O1413059   5.131   4.010   3.189 -0.2304 -0.1414  0.7655
  123SOPE   O1213060   5.233   3.775   3.230  0.1613  0.2902 -0.2482
  123SOPE   O1113061   5.186   3.935   3.420 -0.5366  0.0574  0.2718
  123SOPE    C113062   5.333   3.944   3.432  0.1635  0.0753  0.9329
  123SOPE    HA13063   5.373   3.998   3.344 -0.3125  2.5731  2.1664
  123SOPE    HB13064   5.379   3.842   3.436  1.2867  0.4417 -1.2693
  123SOPE    C213065   5.379   4.021   3.562  0.4007 -0.5326  0.2262
  123SOPE    HS13066   5.480   3.980   3.585 -0.1921 -2.6597 -0.7739
  123SOPE   O2113067   5.291   3.998   3.669  0.0495  0.3453 -0.4009
  123SOPE   C2113068   5.314   3.884   3.737  0.3479  0.1700 -0.3697
  123SOPE   O2213069   5.412   3.814   3.717 -0.2432 -0.0176 -0.6667
  123SOPE   C2213070   5.220   3.868   3.858  0.6611 -0.8305 -1.3625
  123SOPE   H2R13071   5.117   3.856   3.818  0.1298  0.4372 -0.4472
  123SOPE   H2S13072   5.237   3.969   3.901  1.1201 -0.9532 -1.2517
  123SOPE    C313073   5.398   4.171   3.533  0.1235  0.0628 -0.5164
  123SOPE    HX13074   5.320   4.212   3.466 -0.8227  0.3812  0.7572
  123SOPE    HY13075   5.489   4.188   3.471 -1.3991 -0.4794 -3.0342
  123SOPE   O3113076   5.391   4.251   3.651 -0.2003 -0.1405 -0.2580
  123SOPE   C3113077   5.464   4.357   3.649 -0.2273 -0.3282  0.2185
  123SOPE   O3213078   5.526   4.401   3.556  0.0468 -0.4511 -0.5186
  123SOPE   C3213079   5.460   4.424   3.787 -0.5505  0.6572 -0.1000
  123SOPE   H2X13080   5.477   4.346   3.864  2.0271  0.8308 -0.4065
  123SOPE   H2Y13081   5.352   4.451   3.797 -0.0916  2.2391  0.8481
  123SOPE   C2313082   5.245   3.766   3.972  0.2750 -0.4590  0.4075
  123SOPE   H3R13083   5.353   3.769   3.999  0.2886 -0.4458  0.3517
  123SOPE   H3S13084   5.224   3.663   3.935 -0.9143  0.0421 -0.3538
  123SOPE   C2413085   5.161   3.791   4.098  0.0579  0.5640  0.4639
  123SOPE   H4R13086   5.198   3.877   4.158  0.6556  0.3871  0.3515
  123SOPE   H4S13087   5.056   3.806   4.064  0.0484  0.3846  0.4163
  123SOPE   C2513088   5.161   3.661   4.187 -0.4577 -0.7955  0.4929
  123SOPE   H5R13089   5.067   3.656   4.246  1.1177 -1.0694  3.1284
  123SOPE   H5S13090   5.171   3.570   4.124  0.0109 -0.4024 -0.0133
  123SOPE   C2613091   5.270   3.665   4.297  0.2618 -0.3486 -0.3324
  123SOPE   H6R13092   5.369   3.646   4.249 -0.4771  1.0286 -2.6104
  123SOPE   H6S13093   5.283   3.763   4.346  1.7356 -1.4593  1.6296
  123SOPE   C2713094   5.244   3.566   4.411 -1.0431 -0.2474  0.3318
  123SOPE   H7R13095   5.202   3.609   4.504  0.8530  1.7763  0.3129
  123SOPE   H7S13096   5.170   3.496   4.365 -3.5708  0.7764  2.5500
  123SOPE   C2813097   5.372   3.497   4.456  0.2327 -0.4578  0.2394
  123SOPE   H8R13098   5.420   3.445   4.371 -1.7225 -0.6762 -0.7868
  123SOPE   H8S13099   5.454   3.570   4.472 -1.2267  1.3682 -0.2290
  123SOPE   C2913100   5.369   3.407   4.572  0.4436 -0.4429 -0.1063
  123SOPE   H9113101   5.264   3.383   4.594 -0.1006  0.7616 -1.2658
  123SOPE  C21013102   5.469   3.355   4.658 -0.0207  0.3240  0.5408
  123SOPE  H10113103   5.447   3.289   4.743  0.1493  1.7817  1.7521
  123SOPE  C21113104   5.603   3.414   4.651 -0.3114 -0.7312 -0.4823
  123SOPE  H11R13105   5.627   3.457   4.551  0.8076  1.0197  0.4867
  123SOPE  H11S13106   5.688   3.343   4.659  0.2066 -0.0393  0.2182
  123SOPE  C21213107   5.643   3.503   4.763 -0.1466 -0.7288 -0.7936
  123SOPE  H12R13108   5.659   3.445   4.856 -1.1129  0.7690  0.3582
  123SOPE  H12S13109   5.569   3.583   4.786  3.4502  2.6464  0.0408
  123SOPE  C21313110   5.772   3.587   4.736 -0.1813  0.7276 -0.3875
  123SOPE  H13R13111   5.754   3.644   4.642 -0.1594 -0.1850 -0.9609
  123SOPE  H13S13112   5.861   3.522   4.728  0.5465  1.5444  0.7736
  123SOPE  C21413113   5.808   3.689   4.846 -1.0719  0.1356  0.3910
  123SOPE  H14R13114   5.810   3.631   4.940  0.6766 -1.0673 -0.3383
  123SOPE  H14S13115   5.724   3.763   4.841 -0.6541  0.7120  1.4879
  123SOPE  C21513116   5.939   3.762   4.830  0.2975 -0.5469  0.2950
  123SOPE  H15R13117   5.953   3.790   4.724 -0.4033  2.1023  0.8295
  123SOPE  H15S13118   6.026   3.697   4.855  1.2207 -0.4774 -2.4354
  123SOPE  C21613119   5.950   3.894   4.901  0.8375 -0.1273  0.3773
  123SOPE  H16R13120   5.968   3.877   5.010 -0.4169 -1.0549  0.4704
  123SOPE  H16S13121   5.854   3.950   4.901  1.3549  0.7884 -0.4326
  123SOPE  C21713122   6.057   3.995   4.846  0.2657  0.1082  0.0419
  123SOPE  H17R13123   6.044   4.085   4.909  1.0696 -0.9530  1.7876
  123SOPE  H17S13124   6.041   4.018   4.739 -4.0794  1.3623  0.7621
  123SOPE  C21813125   6.195   3.946   4.883 -0.8777  0.2069  0.1452
  123SOPE  H18R13126   6.212   3.942   4.992  1.2779 -1.5333 -0.1726
  123SOPE  H18S13127   6.275   4.010   4.840 -0.2842  0.1089  1.0924
  123SOPE  H18T13128   6.210   3.849   4.830  1.5333  0.2451  0.6397
  123SOPE   C3313129   5.534   4.554   3.812 -0.8441 -0.4911  0.0257
  123SOPE   H3X13130   5.472   4.629   3.758 -1.0449 -0.6123  0.0860
  123SOPE   H3Y13131   5.636   4.532   3.772  0.1251 -2.3508  3.1990
  123SOPE   C3413132   5.543   4.602   3.960  0.2961 -0.1879  0.4498
  123SOPE   H4X13133   5.599   4.526   4.019  0.4164 -0.6188 -0.2058
  123SOPE   H4Y13134   5.442   4.609   4.006 -1.2128 -0.8404 -2.5320
  123SOPE   C3513135   5.611   4.743   3.965 -0.1119 -0.3998 -0.4980
  123SOPE   H5X13136   5.562   4.807   3.888 -0.6818 -0.2698 -0.0399
  123SOPE   H5Y13137   5.716   4.739   3.930 -0.6498 -1.5008 -2.1458
  123SOPE   C3613138   5.601   4.798   4.107  0.2274  0.9541 -1.3057
  123SOPE   H6X13139   5.501   4.774   4.148 -1.0527  1.6537 -3.7742
  123SOPE   H6Y13140   5.614   4.907   4.091  0.8081  0.9305 -0.9939
  123SOPE   C3713141   5.711   4.754   4.211  0.1505  0.3883 -0.0058
  123SOPE   H7X13142   5.804   4.809   4.187 -1.1249  2.6781  0.0812
  123SOPE   H7Y13143   5.731   4.644   4.213  1.2961  0.5879  1.1206
  123SOPE   C3813144   5.667   4.798   4.356  0.3650  0.1685 -0.0967
  123SOPE   H8X13145   5.569   4.747   4.370  0.2036 -0.1060 -1.9473
  123SOPE   H8Y13146   5.651   4.908   4.357  0.9423  0.2549 -0.0664
  123SOPE   C3913147   5.771   4.756   4.459  0.2589  0.0128  0.1247
  123SOPE   H9X13148   5.873   4.783   4.424 -0.2165 -0.6364 -1.9310
  123SOPE   H9Y13149   5.772   4.646   4.473  0.6490  0.1242  0.9795
  123SOPE  C31013150   5.747   4.814   4.597 -0.7364 -0.2465 -0.3618
  123SOPE  H10X13151   5.654   4.768   4.639 -0.2177  0.1909  1.3415
  123SOPE  H10Y13152   5.727   4.923   4.605 -2.3644 -0.5812  0.8053
  123SOPE  C31113153   5.865   4.773   4.693  0.1320 -0.0923  0.0915
  123SOPE  H11X13154   5.955   4.822   4.648 -1.3576  1.5607 -1.2646
  123SOPE  H11Y13155   5.868   4.663   4.683 -1.0927 -0.0159 -1.6095
  123SOPE  C31213156   5.835   4.818   4.832  0.4242 -0.1994  0.5315
  123SOPE  H12X13157   5.739   4.783   4.875  0.9499 -0.5142  1.4677
  123SOPE  H12Y13158   5.808   4.925   4.820 -0.9774 -0.5301  0.6116
  123SOPE  C31313159   5.951   4.790   4.927  0.2670  0.9039  0.0406
  123SOPE  H13X13160   6.050   4.832   4.899  0.4022  0.6644  0.1552
  123SOPE  H13Y13161   5.962   4.680   4.915 -0.5407  0.6761  1.1637
  123SOPE  C31413162   5.913   4.818   5.075  0.2627  0.1232 -0.8665
  123SOPE  H14X13163   5.827   4.752   5.097  0.1332  0.5270 -0.1151
  123SOPE  H14Y13164   5.884   4.925   5.088  1.0982  0.4119 -1.3261
  123SOPE  C31513165   6.027   4.776   5.172  0.1490  0.3535 -0.0559
  123SOPE  H15X13166   6.121   4.834   5.166  0.0141  0.7675  1.3009
  123SOPE  H15Y13167   6.051   4.672   5.142  0.7950  0.4664  0.0573
  123SOPE  C31613168   5.959   4.774   5.313  0.3527  0.1516 -0.1528
  123SOPE  H16X13169   6.010   4.690   5.363  0.9281 -1.2872 -2.9643
  123SOPE  H16Y13170   5.855   4.738   5.296  1.2060 -2.6414  0.1537
  123SOPE  C31713171   5.965   4.918   5.386  0.5772 -0.4978  0.5245
  123SOPE  H17X13172   5.900   4.990   5.331  0.1354 -0.5493  0.9729
  123SOPE  H17Y13173   6.066   4.961   5.376  0.2953  0.0886  0.1398
  123SOPE  C31813174   5.911   4.914   5.524  0.0635 -0.1770 -1.0461
  123SOPE  H18X13175   5.983   4.864   5.592 -0.4299  0.7880  0.2274
  123SOPE  H18Y13176   5.813   4.861   5.532  0.6596 -1.1198  0.3339
  123SOPE  H18Z13177   5.890   5.013   5.571  0.1894 -1.2188  1.3563
  124SOPE     N13178   0.236   0.094   3.130 -0.0754  0.0596  0.3525
  124SOPE   HN113179   0.294   0.009   3.114  1.0086  0.6428  1.0553
  124SOPE   HN213180   0.153   0.063   3.185  0.9390  1.8010  3.0621
  124SOPE   HN313181   0.193   0.149   3.053 -0.5783  1.6062  1.6813
  124SOPE   C1213182   0.309   0.201   3.217  0.1232 -0.1463 -0.0151
  124SOPE  H12A13183   0.235   0.283   3.227  2.1322  1.8019 -0.5020
  124SOPE  H12B13184   0.396   0.246   3.164 -0.3291 -0.0351 -0.6823
  124SOPE   C1113185   0.349   0.134   3.352 -0.2347 -0.0283 -0.1340
  124SOPE  H11A13186   0.263   0.097   3.413  1.6968 -3.5217  0.7407
  124SOPE  H11B13187   0.408   0.214   3.402  3.2661 -1.6743 -1.3104
  124SOPE     P13188   0.507  -0.057   3.445  0.1219  0.1191 -0.2836
  124SOPE   O1313189   0.639   0.004   3.437  0.2879 -0.3762  0.1314
  124SOPE   O1413190   0.485  -0.201   3.425  0.0353  0.7616 -0.6029
  124SOPE   O1213191   0.426   0.018   3.330  0.0699  0.6909  0.2191
  124SOPE   O1113192   0.444  -0.015   3.580  0.1919 -0.1115  0.5844
  124SOPE    C113193   0.366  -0.114   3.652  0.9115 -0.0323 -0.3492
  124SOPE    HA13194   0.367  -0.090   3.761 -0.9403 -0.9181 -0.0983
  124SOPE    HB13195   0.407  -0.217   3.656 -1.3199 -0.9490  1.9501
  124SOPE    C213196   0.216  -0.122   3.608 -0.1816  0.7955 -1.0114
  124SOPE    HS13197   0.215  -0.109   3.498  1.3052 -1.1712 -1.3176
  124SOPE   O2113198   0.151  -0.014   3.677  0.4076  0.8895  0.6607
  124SOPE   C2113199   0.025  -0.005   3.650  0.9014 -0.4364 -0.5527
  124SOPE   O2213200  -0.038  -0.074   3.574  0.7100 -0.9028 -0.4985
  124SOPE   C2213201  -0.031   0.113   3.729 -1.0873 -0.7860 -0.6502
  124SOPE   H2R13202   0.006   0.207   3.683 -1.3436  0.2691  1.2139
  124SOPE   H2S13203   0.009   0.105   3.832 -0.0796 -1.9618 -1.0978
  124SOPE    C313204   0.165  -0.273   3.648 -0.0888 -0.5852 -0.3035
  124SOPE    HX13205   0.225  -0.339   3.582  0.4495  0.1079 -0.5161
  124SOPE    HY13206   0.058  -0.295   3.629 -0.2092 -2.1422  1.8027
  124SOPE   O3113207   0.195  -0.308   3.787 -0.4555  0.0762 -0.3834
  124SOPE   C3113208   0.096  -0.281   3.875 -0.2099 -0.0256  0.0780
  124SOPE   O3213209  -0.014  -0.228   3.839 -0.3250 -0.3055 -0.5300
  124SOPE   C3213210   0.152  -0.302   4.013 -0.4378  0.0960 -0.1298
  124SOPE   H2X13211   0.251  -0.254   4.025  0.2148 -0.6371 -2.1468
  124SOPE   H2Y13212   0.163  -0.413   4.019  0.4979 -0.0885 -3.3162
  124SOPE   C2313213  -0.183   0.114   3.726  0.5725  0.0023 -0.3387
  124SOPE   H3R13214  -0.221   0.085   3.626 -0.1839 -0.5972  0.1212
  124SOPE   H3S13215  -0.230   0.214   3.738 -0.3616 -0.6251  1.7743
  124SOPE   C2413216  -0.235   0.030   3.836 -0.1153  0.5868 -0.3652
  124SOPE   H4R13217  -0.346   0.026   3.837 -0.1044 -0.9723 -1.4301
  124SOPE   H4S13218  -0.206  -0.077   3.823  0.0055  0.6084 -0.2808
  124SOPE   C2513219  -0.191   0.073   3.978 -0.6387  0.2654  0.1620
  124SOPE   H5R13220  -0.088   0.031   3.978  0.2712  2.3659 -1.3565
  124SOPE   H5S13221  -0.196   0.183   3.987  1.0970  0.3159  0.8477
  124SOPE   C2613222  -0.272   0.001   4.084  0.3786 -0.6526 -0.0432
  124SOPE   H6R13223  -0.373   0.046   4.088  0.8938  0.5036  0.3962
  124SOPE   H6S13224  -0.287  -0.105   4.055  1.4642  0.1367 -4.0845
  124SOPE   C2713225  -0.198   0.007   4.219 -0.3648 -0.4422  0.4365
  124SOPE   H7R13226  -0.095  -0.036   4.214  0.5367  1.6164  0.4303
  124SOPE   H7S13227  -0.171   0.113   4.236  0.9535 -0.2938 -2.0410
  124SOPE   C2813228  -0.270  -0.078   4.331 -0.0878  0.4672 -0.3900
  124SOPE   H8R13229  -0.321  -0.163   4.281 -0.1846  1.1012 -1.4077
  124SOPE   H8S13230  -0.203  -0.123   4.407 -1.0094 -1.0685 -0.4509
  124SOPE   C2913231  -0.382  -0.004   4.389  0.1226  0.2875  0.2432
  124SOPE   H9113232  -0.438   0.049   4.310 -0.0483 -1.6447 -0.9938
  124SOPE  C21013233  -0.403   0.018   4.518  0.1176  0.6631 -0.2218
  124SOPE  H10113234  -0.498   0.056   4.559  0.7494  0.7541  1.2433
  124SOPE  C21113235  -0.323  -0.023   4.634  0.0757  0.7089  0.5306
  124SOPE  H11R13236  -0.340   0.048   4.718 -0.2739  1.0046  0.2161
  124SOPE  H11S13237  -0.214  -0.034   4.619  0.1679  0.9879  0.9687
  124SOPE  C21213238  -0.354  -0.165   4.697 -0.1862  0.4622 -0.0527
  124SOPE  H12R13239  -0.363  -0.230   4.607 -1.6277  1.9918 -1.0866
  124SOPE  H12S13240  -0.446  -0.160   4.758 -1.2976 -1.6330 -1.4406
  124SOPE  C21313241  -0.240  -0.216   4.791  0.6248  0.5735  0.0802
  124SOPE  H13R13242  -0.248  -0.145   4.876  0.9844  0.5419  0.1401
  124SOPE  H13S13243  -0.140  -0.184   4.754 -0.9696  4.0554 -1.7156
  124SOPE  C21413244  -0.250  -0.367   4.824 -0.6033 -0.6910  0.5765
  124SOPE  H14R13245  -0.255  -0.428   4.731 -0.7467 -0.4868  0.4491
  124SOPE  H14S13246  -0.338  -0.383   4.888 -1.5625 -0.9742 -0.7697
  124SOPE  C21513247  -0.131  -0.416   4.899  0.0271  0.5463 -0.1956
  124SOPE  H15R13248  -0.044  -0.351   4.876 -0.7062  1.8278  0.5486
  124SOPE  H15S13249  -0.101  -0.517   4.862  0.0725  0.0343  1.1629
  124SOPE  C21613250  -0.145  -0.429   5.049  0.1492 -0.5304 -0.9125
  124SOPE  H16R13251  -0.200  -0.525   5.061 -1.0401  0.2502  0.0473
  124SOPE  H16S13252  -0.198  -0.357   5.114  2.1935 -0.5757  0.9444
  124SOPE  C21713253  -0.017  -0.451   5.133 -0.6405  0.0916 -0.5056
  124SOPE  H17R13254   0.057  -0.370   5.116  1.3691 -1.2349  1.4591
  124SOPE  H17S13255   0.023  -0.547   5.095 -2.2050 -0.3507 -1.1118
  124SOPE  C21813256  -0.052  -0.465   5.278 -0.0780  0.3023 -0.0309
  124SOPE  H18R13257  -0.127  -0.545   5.292 -1.5458  1.8570  1.4243
  124SOPE  H18S13258  -0.097  -0.370   5.316  1.3953  1.1734 -0.3665
  124SOPE  H18T13259   0.035  -0.493   5.341  1.1404 -1.5491 -2.3644
  124SOPE   C3313260   0.053  -0.255   4.121  0.4479 -0.2512  0.0738
  124SOPE   H3X13261  -0.019  -0.337   4.139  3.7806 -3.2164  1.2033
  124SOPE   H3Y13262   0.006  -0.163   4.081  0.1718 -1.1851 -1.8552
  124SOPE   C3413263   0.113  -0.213   4.257  0.2963 -0.2647 -0.7456
  124SOPE   H4X13264   0.052  -0.134   4.307  1.9802 -0.7626  2.3343
  124SOPE   H4Y13265   0.216  -0.173   4.255 -0.8585  3.2186  1.1938
  124SOPE   C3513266   0.095  -0.334   4.359  0.0551 -0.1366 -1.1356
  124SOPE   H5X13267   0.157  -0.419   4.323 -0.1254 -0.7137 -0.1249
  124SOPE   H5Y13268  -0.013  -0.359   4.354 -0.2253  0.7132  0.1117
  124SOPE   C3613269   0.150  -0.311   4.499  0.2396 -0.4513 -0.2937
  124SOPE   H6X13270   0.089  -0.234   4.551  1.7681  0.8519 -0.3670
  124SOPE   H6Y13271   0.258  -0.285   4.496  0.7620 -1.8583  2.6817
  124SOPE   C3713272   0.143  -0.436   4.590  0.4106  0.7025  0.2263
  124SOPE   H7X13273   0.167  -0.530   4.535 -1.0894 -0.5053  1.5208
  124SOPE   H7Y13274   0.040  -0.442   4.632  0.0204 -0.6314 -0.8365
  124SOPE   C3813275   0.237  -0.439   4.716 -0.1836 -0.5845  0.3712
  124SOPE   H8X13276   0.213  -0.352   4.782  0.0220 -0.0562 -0.2394
  124SOPE   H8Y13277   0.341  -0.425   4.682  0.0241 -1.5961  0.5548
  124SOPE   C3913278   0.234  -0.562   4.792 -0.4609  0.7131 -0.8539
  124SOPE   H9X13279   0.271  -0.648   4.733  0.3484 -0.2229  0.9407
  124SOPE   H9Y13280   0.136  -0.581   4.841  0.1088 -0.1634 -0.0166
  124SOPE  C31013281   0.329  -0.561   4.918  0.9648 -0.1370  0.5425
  124SOPE  H10X13282   0.298  -0.477   4.984  2.2049 -0.8773  2.1516
  124SOPE  H10Y13283   0.437  -0.556   4.891  0.8660  0.2406  0.2185
  124SOPE  C31113284   0.329  -0.692   5.003  0.5759 -0.8994 -0.1868
  124SOPE  H11X13285   0.344  -0.779   4.935  2.0281  0.6676 -1.9760
  124SOPE  H11Y13286   0.238  -0.711   5.064 -0.1832 -0.5370 -1.1874
  124SOPE  C31213287   0.448  -0.689   5.091 -1.0001 -0.0446 -0.7789
  124SOPE  H12X13288   0.542  -0.679   5.032  0.2242  0.9493  1.2440
  124SOPE  H12Y13289   0.447  -0.786   5.145 -2.2264  1.2303  1.6633
  124SOPE  C31313290   0.451  -0.571   5.191  0.4755  0.4855 -0.4485
  124SOPE  H13X13291   0.383  -0.615   5.267 -0.4252 -1.0069 -2.0600
  124SOPE  H13Y13292   0.405  -0.473   5.168  3.0087  1.9309  0.2621
  124SOPE  C31413293   0.585  -0.524   5.254  0.3370 -0.8552 -0.1794
  124SOPE  H14X13294   0.625  -0.456   5.176 -1.8264 -0.5140 -1.0508
  124SOPE  H14Y13295   0.650  -0.613   5.273  1.7008 -0.2389 -1.6757
  124SOPE  C31513296   0.565  -0.443   5.383  0.0861  0.2514 -0.3796
  124SOPE  H15X13297   0.505  -0.503   5.455  0.5810  1.5150  1.1435
  124SOPE  H15Y13298   0.511  -0.347   5.372  1.7115  1.6703  2.6798
  124SOPE  C31613299   0.705  -0.424   5.460  0.8511 -0.5001 -0.1429
  124SOPE  H16X13300   0.756  -0.341   5.407  0.4865  0.2256  0.6156
  124SOPE  H16Y13301   0.755  -0.523   5.451 -2.6812 -2.4532 -0.2372
  124SOPE  C31713302   0.685  -0.376   5.604 -0.1549  0.4149  0.6113
  124SOPE  H17X13303   0.782  -0.410   5.646  0.2460 -2.0429 -1.9895
  124SOPE  H17Y13304   0.601  -0.429   5.654  1.5750 -3.3187 -0.0548
  124SOPE  C31813305   0.671  -0.223   5.618  0.0059 -0.0679  0.0933
  124SOPE  H18X13306   0.604  -0.164   5.552  0.9224  1.6304  0.6260
  124SOPE  H18Y13307   0.768  -0.177   5.591  0.0227  0.3115  0.7996
  124SOPE  H18Z13308   0.636  -0.198   5.720 -1.8689 -1.3547 -0.1783
  125SOPE     N13309   1.816   6.374   2.988 -0.6981  0.0902 -0.5289
  125SOPE   HN113310   1.837   6.272   2.986  1.1489  0.4292 -3.0325
  125SOPE   HN213311   1.875   6.414   3.064 -3.3921 -0.3297  2.0158
  125SOPE   HN313312   1.719   6.392   3.022 -0.3805 -1.1938  1.1978
  125SOPE   C1213313   1.864   6.445   2.865 -0.0937  0.1542  0.0712
  125SOPE  H12A13314   1.857   6.553   2.894  0.0360  0.5384 -1.2888
  125SOPE  H12B13315   1.795   6.415   2.784  1.7310 -4.2155 -0.1394
  125SOPE   C1113316   2.015   6.439   2.851  0.7451  0.2869 -0.2587
  125SOPE  H11A13317   2.057   6.492   2.763  2.2386  3.1494  1.9819
  125SOPE  H11B13318   2.045   6.333   2.838 -0.1239 -0.3801  2.4686
  125SOPE     P13319   2.159   6.610   2.992  0.0677  0.1387 -0.1004
  125SOPE   O1313320   2.118   6.698   2.880  0.2236 -0.1604 -0.2622
  125SOPE   O1413321   2.304   6.571   3.011  0.5453 -0.0847  0.1454
  125SOPE   O1213322   2.075   6.477   2.984  0.0737 -0.0297 -0.0899
  125SOPE   O1113323   2.109   6.669   3.123 -0.7509 -0.7429  0.1305
  125SOPE    C113324   2.132   6.807   3.161 -0.2058  0.0090 -0.7620
  125SOPE    HA13325   2.130   6.880   3.077  2.2388  1.8951  0.6737
  125SOPE    HB13326   2.235   6.822   3.199 -0.0194 -1.5946 -0.5831
  125SOPE    C213327   2.013   6.863   3.251  0.3225 -0.0812  0.6855
  125SOPE    HS13328   2.026   6.973   3.262  0.1793 -0.1884  2.2089
  125SOPE   O2113329   2.004   6.799   3.384  0.0477  0.0344  0.4786
  125SOPE   C2113330   2.102   6.842   3.466  0.2355 -0.3625  0.0922
  125SOPE   O2213331   2.189   6.922   3.430 -0.2941 -0.0840  0.6583
  125SOPE   C2213332   2.090   6.782   3.607 -0.1913  0.0703 -0.7590
  125SOPE   H2R13333   2.175   6.710   3.613  2.2084  2.6993 -0.7346
  125SOPE   H2S13334   2.001   6.718   3.622 -0.5480  0.6329 -0.3963
  125SOPE    C313335   1.868   6.846   3.197 -0.3045 -0.2116  0.1795
  125SOPE    HX13336   1.843   6.739   3.187  2.9472 -0.8640 -2.5070
  125SOPE    HY13337   1.868   6.891   3.095  0.1045 -0.4320  0.0832
  125SOPE   O3113338   1.785   6.922   3.281  0.5627 -0.1466  0.0787
  125SOPE   C3113339   1.662   6.873   3.297 -0.7788  0.3622 -0.7213
  125SOPE   O3213340   1.621   6.766   3.252 -0.3358  0.3526 -0.0995
  125SOPE   C3213341   1.580   6.967   3.374 -0.0097  0.5746  0.3157
  125SOPE   H2X13342   1.479   6.964   3.329 -0.5903  1.2440  1.5222
  125SOPE   H2Y13343   1.609   7.073   3.358 -0.9375  0.6129 -1.2237
  125SOPE   C2313344   2.109   6.891   3.716  0.5329 -0.1138 -0.3599
  125SOPE   H3R13345   2.025   6.963   3.714  0.1704 -0.4886  0.5668
  125SOPE   H3S13346   2.206   6.942   3.702  0.3752 -0.4204 -3.1232
  125SOPE   C2413347   2.111   6.830   3.853 -0.4321 -0.5129 -0.1548
  125SOPE   H4R13348   2.010   6.789   3.876 -0.0345 -1.3745  0.1258
  125SOPE   H4S13349   2.185   6.747   3.861  1.7096  1.3675  0.2614
  125SOPE   C2513350   2.155   6.928   3.961 -0.1135 -0.1055  0.0520
  125SOPE   H5R13351   2.244   6.979   3.917 -0.1545  0.0004  0.0920
  125SOPE   H5S13352   2.069   6.998   3.972  0.1517  0.1594  0.4733
  125SOPE   C2613353   2.193   6.867   4.095 -0.3423  0.3230  0.0857
  125SOPE   H6R13354   2.265   6.783   4.082  2.1293  2.3763 -0.3798
  125SOPE   H6S13355   2.251   6.937   4.159  0.2745 -1.1502  1.1755
  125SOPE   C2713356   2.079   6.829   4.184  0.6275 -0.5987  0.0898
  125SOPE   H7R13357   2.045   6.928   4.222  3.5785  0.1753  1.0201
  125SOPE   H7S13358   2.004   6.786   4.115  0.3177  1.0303 -0.6272
  125SOPE   C2813359   2.115   6.734   4.300 -0.8668 -1.0072  0.1173
  125SOPE   H8R13360   2.023   6.721   4.361 -0.6459  0.9923  0.9430
  125SOPE   H8S13361   2.151   6.636   4.262  1.7224 -0.1058  0.0424
  125SOPE   C2913362   2.222   6.781   4.398 -0.0913 -0.1413  0.5633
  125SOPE   H9113363   2.320   6.766   4.350 -0.3733 -3.6250  0.8104
  125SOPE  C21013364   2.201   6.856   4.508 -0.0573 -0.2076  0.7783
  125SOPE  H10113365   2.279   6.896   4.575  1.9797 -1.7124 -0.5808
  125SOPE  C21113366   2.066   6.874   4.570  0.0756 -0.2483 -0.1282
  125SOPE  H11R13367   2.003   6.787   4.540  1.4125 -0.3838 -2.8199
  125SOPE  H11S13368   2.021   6.948   4.500 -0.8590 -1.0959 -0.4540
  125SOPE  C21213369   2.067   6.870   4.725  0.0972  0.0238  0.0384
  125SOPE  H12R13370   2.098   6.765   4.743 -0.2164 -0.3606 -1.4827
  125SOPE  H12S13371   1.963   6.889   4.757  0.9593  3.2318  1.3123
  125SOPE  C21313372   2.163   6.971   4.796 -0.3941  1.3613  0.3349
  125SOPE  H13R13373   2.134   7.073   4.761 -1.6650  0.4840 -1.3620
  125SOPE  H13S13374   2.268   6.950   4.769 -0.4635 -1.4596  1.9283
  125SOPE  C21413375   2.127   6.974   4.947  0.5178  0.6409 -0.2766
  125SOPE  H14R13376   2.138   6.873   4.993  1.5195  1.0354  0.3804
  125SOPE  H14S13377   2.019   6.995   4.936  0.5890  0.1406 -2.7005
  125SOPE  C21513378   2.197   7.082   5.031 -0.2668  1.1220 -0.0658
  125SOPE  H15R13379   2.307   7.071   5.027 -0.4182 -1.6642  1.2540
  125SOPE  H15S13380   2.167   7.063   5.136  0.9758 -1.5770 -0.1208
  125SOPE  C21613381   2.172   7.229   4.999  0.6191 -0.3916  0.2736
  125SOPE  H16R13382   2.067   7.240   4.964 -0.2507  0.3921  2.8686
  125SOPE  H16S13383   2.246   7.258   4.921  1.9736  0.8751  1.9503
  125SOPE  C21713384   2.188   7.311   5.128 -0.3074 -0.0395  0.3504
  125SOPE  H17R13385   2.114   7.282   5.206  0.4656 -0.1022  1.0686
  125SOPE  H17S13386   2.158   7.416   5.104 -0.1028 -0.0559  0.0176
  125SOPE  C21813387   2.332   7.323   5.180 -0.0174 -0.0647 -0.0240
  125SOPE  H18R13388   2.390   7.228   5.187  1.0297  0.5291 -0.3974
  125SOPE  H18S13389   2.324   7.373   5.279 -0.6625 -1.7627  0.8308
  125SOPE  H18T13390   2.385   7.399   5.119  1.8968 -0.3097  1.2498
  125SOPE   C3313391   1.570   6.922   3.525 -0.2221  0.3984  0.0945
  125SOPE   H3X13392   1.527   6.820   3.529 -1.7768  0.9908 -0.4886
  125SOPE   H3Y13393   1.493   6.985   3.575 -0.8054  1.0162 -1.4941
  125SOPE   C3413394   1.699   6.911   3.606  0.4006 -0.1088  0.1242
  125SOPE   H4X13395   1.750   7.009   3.618 -1.6276  1.5143 -3.0942
  125SOPE   H4Y13396   1.768   6.847   3.548  0.8735  0.4761  0.0368
  125SOPE   C3513397   1.674   6.849   3.743  0.0114  0.3790 -0.3157
  125SOPE   H5X13398   1.767   6.805   3.787  1.5873  2.3449 -1.5016
  125SOPE   H5Y13399   1.608   6.762   3.724 -1.3829  1.4246 -0.3965
  125SOPE   C3613400   1.633   6.959   3.840  0.4988 -0.0096 -0.0682
  125SOPE   H6X13401   1.524   6.978   3.827  0.4627 -0.5144 -0.5584
  125SOPE   H6Y13402   1.686   7.051   3.808 -0.1250  0.7281  0.9661
  125SOPE   C3713403   1.648   6.915   3.986  0.4921 -0.0084  0.7242
  125SOPE   H7X13404   1.601   6.998   4.044 -0.8043 -0.9753  1.1216
  125SOPE   H7Y13405   1.756   6.898   4.004  1.1384 -0.9479 -3.2629
  125SOPE   C3813406   1.579   6.778   4.030 -0.0301  0.0609  0.0920
  125SOPE   H8X13407   1.651   6.698   4.004  0.0371 -0.1830  0.9987
  125SOPE   H8Y13408   1.485   6.783   3.970  1.0727  0.0766 -1.6921
  125SOPE   C3913409   1.546   6.775   4.179  0.4744  0.2238 -0.3076
  125SOPE   H9X13410   1.485   6.688   4.211  0.8825 -0.3017 -0.9072
  125SOPE   H9Y13411   1.476   6.859   4.196 -0.3371 -0.6181  0.5934
  125SOPE  C31013412   1.676   6.769   4.272  1.0486  0.3180  0.7229
  125SOPE  H10X13413   1.738   6.857   4.245 -0.0784  1.0721  0.5298
  125SOPE  H10Y13414   1.742   6.680   4.261  0.2754 -1.0384  5.1021
  125SOPE  C31113415   1.646   6.780   4.418 -0.0346 -0.0432 -0.6158
  125SOPE  H11X13416   1.572   6.862   4.428  0.8240  0.7317 -0.4734
  125SOPE  H11Y13417   1.741   6.797   4.474 -0.1094  0.0490 -0.5180
  125SOPE  C31213418   1.599   6.650   4.490 -0.6775  0.0338 -0.4847
  125SOPE  H12X13419   1.680   6.574   4.487 -0.9423 -0.2738  0.0451
  125SOPE  H12Y13420   1.514   6.611   4.430 -0.2017 -1.6078 -0.1266
  125SOPE  C31313421   1.560   6.681   4.636  1.3270  0.1045 -0.6540
  125SOPE  H13X13422   1.473   6.749   4.625  0.6132 -0.7654 -0.4328
  125SOPE  H13Y13423   1.641   6.739   4.687 -0.6810  2.2631  0.2628
  125SOPE  C31413424   1.529   6.549   4.727 -0.0359  0.5944  0.4447
  125SOPE  H14X13425   1.625   6.493   4.725 -0.0779  0.3999  2.3633
  125SOPE  H14Y13426   1.454   6.486   4.674 -1.6964  2.6881  0.1699
  125SOPE  C31513427   1.492   6.586   4.864  0.2110 -0.1759  0.3086
  125SOPE  H15X13428   1.407   6.656   4.875 -0.3544 -0.6360 -0.9442
  125SOPE  H15Y13429   1.582   6.628   4.915 -0.5903 -0.0738  1.6801
  125SOPE  C31613430   1.453   6.471   4.958 -0.3076 -0.5256 -0.7348
  125SOPE  H16X13431   1.515   6.381   4.939 -0.3308 -0.8542  0.6217
  125SOPE  H16Y13432   1.350   6.435   4.936  0.2860 -1.3060 -2.3830
  125SOPE  C31713433   1.474   6.508   5.109  0.4376 -0.3170  0.1798
  125SOPE  H17X13434   1.381   6.542   5.160  1.7799  2.3122  1.1024
  125SOPE  H17Y13435   1.543   6.595   5.109 -1.2849  1.1180 -0.8910
  125SOPE  C31813436   1.542   6.409   5.198 -0.7196  0.0784  0.6899
  125SOPE  H18X13437   1.490   6.310   5.198 -1.0915  0.2309  2.7721
  125SOPE  H18Y13438   1.558   6.440   5.303 -2.4126 -0.7221  1.2201
  125SOPE  H18Z13439   1.644   6.392   5.157 -2.3292 -1.5420 -3.0934
  126SOPE     N13440   2.361   2.606   3.318  0.0183  0.7254  0.5377
  126SOPE   HN113441   2.303   2.689   3.341 -0.3941 -0.1115  2.8384
  126SOPE   HN213442   2.293   2.536   3.283  1.3681 -3.4610  5.0426
  126SOPE   HN313443   2.410   2.564   3.400 -1.0993 -2.6047 -0.3426
  126SOPE   C1213444   2.454   2.634   3.198  0.3867 -0.3005  0.3453
  126SOPE  H12A13445   2.520   2.719   3.226  3.0785 -1.9471 -0.6161
  126SOPE  H12B13446   2.386   2.648   3.111 -0.0002 -1.9357  0.3674
  126SOPE   C1113447   2.545   2.513   3.171  0.5303 -0.5361 -0.2418
  126SOPE  H11A13448   2.623   2.509   3.250  0.6846  2.4312 -0.1403
  126SOPE  H11B13449   2.588   2.535   3.070 -0.9139 -0.9055 -0.9550
  126SOPE     P13450   2.548   2.256   3.172  0.2162  0.4522  0.2122
  126SOPE   O1313451   2.648   2.260   3.064 -0.2460  0.5351  0.3313
  126SOPE   O1413452   2.454   2.142   3.174  0.1479 -0.8197  0.5621
  126SOPE   O1213453   2.465   2.390   3.171 -0.4489 -0.1516  0.0425
  126SOPE   O1113454   2.621   2.268   3.317 -0.3985 -0.0100 -0.0451
  126SOPE    C113455   2.766   2.297   3.305  1.5305 -0.5502 -0.3126
  126SOPE    HA13456   2.785   2.369   3.387 -0.4533  0.1404 -0.4213
  126SOPE    HB13457   2.790   2.359   3.216 -0.0581 -0.1519 -0.4909
  126SOPE    C213458   2.859   2.170   3.315  0.7980  0.8160  0.4075
  126SOPE    HS13459   2.832   2.114   3.223 -0.2440 -0.2514  1.3295
  126SOPE   O2113460   2.839   2.106   3.444  0.8652 -0.5754 -0.3584
  126SOPE   C2113461   2.860   1.975   3.432  1.1948  1.0453 -0.4630
  126SOPE   O2213462   2.871   1.918   3.325  0.2419 -0.0810  0.0174
  126SOPE   C2213463   2.860   1.908   3.568 -0.0408 -0.2251 -0.3976
  126SOPE   H2R13464   2.880   1.800   3.549  0.5102 -0.1993  0.0238
  126SOPE   H2S13465   2.755   1.903   3.603  0.3882 -0.9953  0.8386
  126SOPE    C313466   3.011   2.213   3.300 -0.2795 -0.4436 -0.4021
  126SOPE    HX13467   3.027   2.264   3.202  1.3014  2.5228  1.2584
  126SOPE    HY13468   3.079   2.125   3.307 -2.6567 -2.3781 -0.4784
  126SOPE   O3113469   3.034   2.310   3.408 -0.3642  0.0612  0.4845
  126SOPE   C3113470   3.157   2.321   3.453 -0.0129  0.2005  0.3340
  126SOPE   O3213471   3.259   2.267   3.411  0.1312  0.1703  0.0350
  126SOPE   C3213472   3.154   2.406   3.583 -0.2274  0.0103 -0.0040
  126SOPE   H2X13473   3.060   2.369   3.630 -0.3479  0.1546 -0.1287
  126SOPE   H2Y13474   3.139   2.512   3.552 -2.5954 -0.4810 -0.8114
  126SOPE   C2313475   2.946   1.990   3.670  0.3666 -0.2301 -0.3597
  126SOPE   H3R13476   2.919   1.949   3.769  2.5584  2.1560  1.3704
  126SOPE   H3S13477   2.920   2.098   3.665 -0.0247 -0.2140  1.3999
  126SOPE   C2413478   3.098   1.974   3.644  0.6702  0.6219  0.0357
  126SOPE   H4R13479   3.110   1.864   3.631  0.7680  0.5336  0.8484
  126SOPE   H4S13480   3.120   2.026   3.548  0.1838  2.4914  0.8964
  126SOPE   C2513481   3.199   2.022   3.755  0.6323 -0.3666 -0.5601
  126SOPE   H5R13482   3.300   2.000   3.716  0.4559 -0.5432 -0.9178
  126SOPE   H5S13483   3.185   2.132   3.757  0.5379 -0.3814 -0.1664
  126SOPE   C2613484   3.193   1.956   3.896 -0.5561  0.3460 -0.0816
  126SOPE   H6R13485   3.088   1.950   3.931  0.0633 -1.4314  1.6822
  126SOPE   H6S13486   3.218   1.849   3.883  0.6039  0.3369  1.8162
  126SOPE   C2713487   3.296   2.026   4.000  0.6617  0.2497 -0.0692
  126SOPE   H7R13488   3.400   2.005   3.966  0.5355  1.7036 -1.4648
  126SOPE   H7S13489   3.284   2.136   3.994  1.5938  0.3482 -0.3445
  126SOPE   C2813490   3.285   1.975   4.144 -0.3487 -0.4278  0.1454
  126SOPE   H8R13491   3.281   1.864   4.138  1.6727 -0.4742 -4.4748
  126SOPE   H8S13492   3.376   2.011   4.196  0.9524 -0.8526 -1.7397
  126SOPE   C2913493   3.160   2.027   4.204 -0.2898  0.1534 -1.1765
  126SOPE   H9113494   3.087   2.078   4.139 -2.0070  0.5025  0.8999
  126SOPE  C21013495   3.133   2.000   4.335 -0.2046 -0.2234 -0.9547
  126SOPE  H10113496   3.039   2.028   4.383  1.0746 -0.2299  1.7331
  126SOPE  C21113497   3.226   1.937   4.433  0.4693  0.9640  0.3880
  126SOPE  H11R13498   3.326   1.985   4.425  1.4577 -1.2147 -1.4427
  126SOPE  H11S13499   3.247   1.834   4.398  2.1327  0.9398  1.3802
  126SOPE  C21213500   3.170   1.920   4.572  0.1932 -0.4970 -0.3377
  126SOPE  H12R13501   3.239   1.873   4.645 -0.9191 -0.7933  0.5620
  126SOPE  H12S13502   3.083   1.850   4.578 -1.6744  1.7546  0.8475
  126SOPE  C21313503   3.129   2.049   4.645 -0.2613  0.8403 -0.0199
  126SOPE  H13R13504   3.053   2.105   4.587 -0.4354  1.0094  0.3683
  126SOPE  H13S13505   3.216   2.115   4.664 -0.9305  1.6599  0.2336
  126SOPE  C21413506   3.077   2.019   4.784  0.3929  0.6339 -0.9411
  126SOPE  H14R13507   3.160   1.985   4.850 -0.0373  1.0469 -0.1840
  126SOPE  H14S13508   2.991   1.949   4.792  2.4214 -2.0541 -1.0604
  126SOPE  C21513509   3.023   2.145   4.859  0.2086  0.0925  0.8746
  126SOPE  H15R13510   2.929   2.181   4.812 -0.7649  0.3332  2.8848
  126SOPE  H15S13511   3.099   2.225   4.844 -1.2844  1.5557  0.8983
  126SOPE  C21613512   3.007   2.145   5.013 -0.2114 -0.1084  0.2976
  126SOPE  H16R13513   2.990   2.252   5.040 -0.2408  0.5772 -2.2097
  126SOPE  H16S13514   3.102   2.105   5.055 -1.4408 -2.1252  1.3644
  126SOPE  C21713515   2.881   2.073   5.069  0.0305 -0.1766  0.3613
  126SOPE  H17R13516   2.900   1.965   5.051 -0.4374  0.0068 -1.4528
  126SOPE  H17S13517   2.782   2.096   5.025  0.2228 -0.1126 -0.0360
  126SOPE  C21813518   2.863   2.096   5.216 -0.1168  0.5258  0.3993
  126SOPE  H18R13519   2.831   2.201   5.237  0.6600  0.9726 -0.5805
  126SOPE  H18S13520   2.962   2.084   5.263  0.3843  0.0268 -0.7526
  126SOPE  H18T13521   2.781   2.032   5.255 -0.5344  0.7636 -0.0805
  126SOPE   C3313522   3.273   2.382   3.685  0.7663 -0.5541 -0.2791
  126SOPE   H3X13523   3.362   2.446   3.667  0.7900 -0.1061  1.3009
  126SOPE   H3Y13524   3.318   2.282   3.669  0.7153 -0.3503 -1.9083
  126SOPE   C3413525   3.238   2.397   3.838  0.4679  0.1655 -0.2648
  126SOPE   H4X13526   3.329   2.377   3.898 -0.2205  0.1092  0.7780
  126SOPE   H4Y13527   3.153   2.329   3.861  0.9030 -1.2860 -2.5594
  126SOPE   C3513528   3.185   2.535   3.882  0.0678  0.1874  0.4416
  126SOPE   H5X13529   3.086   2.561   3.837  0.9266 -0.0862 -1.7547
  126SOPE   H5Y13530   3.255   2.610   3.839 -1.3928 -0.0406 -2.6258
  126SOPE   C3613531   3.179   2.557   4.040 -0.7597  0.0461 -0.0005
  126SOPE   H6X13532   3.152   2.661   4.068 -0.3091  0.3369 -0.6053
  126SOPE   H6Y13533   3.279   2.534   4.083 -1.0257  0.0890  0.6443
  126SOPE   C3713534   3.071   2.466   4.100 -0.2765 -0.0865  0.3309
  126SOPE   H7X13535   3.104   2.414   4.193  2.3635  0.1778 -0.3951
  126SOPE   H7Y13536   3.043   2.374   4.045 -0.9532  0.0477  0.4417
  126SOPE   C3813537   2.944   2.545   4.139  0.2367  0.0976 -0.6057
  126SOPE   H8X13538   2.894   2.588   4.050  0.1257 -3.5876 -2.5266
  126SOPE   H8Y13539   2.974   2.627   4.207 -1.1734 -0.5985  0.9155
  126SOPE   C3913540   2.844   2.457   4.220  0.0030  0.9412  0.0171
  126SOPE   H9X13541   2.798   2.377   4.158 -0.1982 -0.2466  1.6314
  126SOPE   H9Y13542   2.753   2.520   4.228 -0.4970  0.1252  0.8781
  126SOPE  C31013543   2.884   2.406   4.361  0.1780  0.0582 -0.1006
  126SOPE  H10X13544   2.979   2.349   4.353 -0.5756 -1.2855  0.3836
  126SOPE  H10Y13545   2.801   2.336   4.385 -1.3742  1.9441  0.2804
  126SOPE  C31113546   2.904   2.522   4.462 -0.1030  0.1316  0.5912
  126SOPE  H11X13547   2.801   2.561   4.480 -1.4488 -1.2212 -3.1452
  126SOPE  H11Y13548   2.966   2.607   4.426 -0.7977 -1.0798 -4.1675
  126SOPE  C31213549   2.937   2.471   4.606  0.1726  0.2962 -0.1807
  126SOPE  H12X13550   3.030   2.411   4.596 -0.7513 -0.7444 -4.2732
  126SOPE  H12Y13551   2.857   2.411   4.652  0.0319 -0.7270 -1.6913
  126SOPE  C31313552   2.965   2.583   4.706 -0.3240  0.1935 -0.2201
  126SOPE  H13X13553   2.881   2.656   4.701  0.3697  0.9906 -0.2509
  126SOPE  H13Y13554   3.058   2.635   4.674 -1.0711  2.8807  1.6588
  126SOPE  C31413555   2.990   2.536   4.852  0.1328  0.6437 -0.3493
  126SOPE  H14X13556   3.076   2.466   4.858 -1.1615 -0.9788  0.3774
  126SOPE  H14Y13557   2.900   2.477   4.879  0.4397  0.7351  0.9091
  126SOPE  C31513558   3.029   2.646   4.958 -0.2942 -0.0354  0.1704
  126SOPE  H15X13559   2.949   2.722   4.962  1.4950  1.8759  1.7993
  126SOPE  H15Y13560   3.115   2.710   4.929 -0.8544  0.4791 -0.3649
  126SOPE  C31613561   3.054   2.585   5.096 -0.5337  1.0755  0.0797
  126SOPE  H16X13562   3.140   2.515   5.081 -1.5016  0.1048 -1.1946
  126SOPE  H16Y13563   2.965   2.522   5.116 -0.8353  1.6867  0.6731
  126SOPE  C31713564   3.090   2.693   5.195  0.3781  0.4246  0.0988
  126SOPE  H17X13565   3.001   2.757   5.212 -1.6738 -1.3669 -2.9779
  126SOPE  H17Y13566   3.169   2.759   5.152 -1.4623  2.7012  0.0611
  126SOPE  C31813567   3.150   2.633   5.328  0.3235  0.3058  0.0853
  126SOPE  H18X13568   3.249   2.585   5.312  0.3766  0.6651 -0.6851
  126SOPE  H18Y13569   3.084   2.555   5.371  0.3715  0.2509  0.0602
  126SOPE  H18Z13570   3.162   2.709   5.409  1.0036 -0.9145  1.1692
  127SOPE     N13571   4.794   2.610   3.164 -0.2583 -0.4986  0.3688
  127SOPE   HN113572   4.778   2.678   3.086 -0.0270  0.1324  0.8596
  127SOPE   HN213573   4.893   2.579   3.167  0.0804 -0.3406 -3.4597
  127SOPE   HN313574   4.743   2.524   3.136 -0.8013  0.6198 -2.3885
  127SOPE   C1213575   4.746   2.640   3.303 -0.1761  0.6444 -0.4410
  127SOPE  H12A13576   4.651   2.694   3.286 -0.7501  0.0493  0.7714
  127SOPE  H12B13577   4.830   2.700   3.343  0.4215  1.2893 -2.5290
  127SOPE   C1113578   4.724   2.501   3.364  0.1539 -0.5849  0.0662
  127SOPE  H11A13579   4.654   2.442   3.302 -0.1586 -0.0916 -0.0590
  127SOPE  H11B13580   4.678   2.514   3.465  2.4632  1.2920  0.9987
  127SOPE     P13581   4.926   2.413   3.503 -0.1019  0.1457  0.4363
  127SOPE   O1313582   5.052   2.349   3.469  0.4038  0.5182 -0.5512
  127SOPE   O1413583   4.840   2.343   3.602 -0.2529  0.0918  0.2523
  127SOPE   O1213584   4.849   2.427   3.362  0.1138  0.1495 -0.7199
  127SOPE   O1113585   4.944   2.561   3.540  0.1055 -0.1940  0.6585
  127SOPE    C113586   4.962   2.591   3.679 -0.8211  0.3450  0.4781
  127SOPE    HA13587   5.025   2.683   3.682  0.1744 -0.2170 -1.4815
  127SOPE    HB13588   5.027   2.515   3.726  2.1215  2.6517  0.4357
  127SOPE    C213589   4.830   2.604   3.764  0.4457 -0.0140  0.2583
  127SOPE    HS13590   4.791   2.501   3.772  0.4117 -0.0983 -0.8590
  127SOPE   O2113591   4.730   2.684   3.685 -0.3970 -0.2543 -0.4112
  127SOPE   C2113592   4.611   2.679   3.735  0.1104  0.4181 -0.4582
  127SOPE   O2213593   4.572   2.608   3.832  0.0990 -0.4724 -0.2394
  127SOPE   C2213594   4.513   2.749   3.631 -0.2163  1.1314 -1.0243
  127SOPE   H2R13595   4.471   2.660   3.579 -2.1505  1.2386  0.2517
  127SOPE   H2S13596   4.572   2.812   3.560  0.6176  1.0987 -0.3694
  127SOPE    C313597   4.860   2.659   3.908 -1.2516 -0.0823 -0.3523
  127SOPE    HX13598   4.936   2.596   3.959 -1.3347 -0.0143 -0.1398
  127SOPE    HY13599   4.768   2.645   3.969 -0.4515  0.6125  1.0706
  127SOPE   O3113600   4.893   2.800   3.909 -0.0855  0.3334 -0.2956
  127SOPE   C3113601   4.901   2.866   4.027 -0.7647  0.0740  0.0701
  127SOPE   O3213602   4.908   2.808   4.137  0.0229 -0.3608 -0.3112
  127SOPE   C3213603   4.928   3.011   3.994  0.4355 -0.3878  0.0371
  127SOPE   H2X13604   4.833   3.067   3.987  0.7295  0.1324  0.1821
  127SOPE   H2Y13605   4.987   3.029   3.902 -0.9783 -0.4122 -0.9034
  127SOPE   C2313606   4.396   2.820   3.705  0.2620  0.3191 -0.2744
  127SOPE   H3R13607   4.361   2.759   3.791 -2.1027  1.0378 -0.6526
  127SOPE   H3S13608   4.308   2.811   3.637 -0.4429 -0.5612  0.7163
  127SOPE   C2413609   4.411   2.965   3.736 -0.2687  0.1864  0.1141
  127SOPE   H4R13610   4.515   2.994   3.761  0.4398 -0.1516 -2.2465
  127SOPE   H4S13611   4.390   3.026   3.646  0.2609 -0.0627 -0.1775
  127SOPE   C2513612   4.324   3.021   3.849  0.0210 -1.1020  0.5348
  127SOPE   H5R13613   4.333   3.131   3.863  0.2832 -1.3681  2.8064
  127SOPE   H5S13614   4.219   3.007   3.817 -0.0185  0.0976  0.1007
  127SOPE   C2613615   4.348   2.965   3.992 -0.0462  0.6469  0.3447
  127SOPE   H6R13616   4.289   3.024   4.065 -0.7435 -0.9302  1.0762
  127SOPE   H6S13617   4.300   2.867   4.009 -0.7957  1.0772  0.7745
  127SOPE   C2713618   4.494   2.976   4.042  0.4439  0.2893  0.1672
  127SOPE   H7R13619   4.577   2.958   3.971  2.2660  0.2969  2.1806
  127SOPE   H7S13620   4.513   3.074   4.092 -0.0018  0.4303  0.0669
  127SOPE   C2813621   4.535   2.864   4.143  0.0462  0.2901  0.2196
  127SOPE   H8R13622   4.543   2.774   4.078  3.6660  1.0228 -0.5377
  127SOPE   H8S13623   4.632   2.903   4.181  1.9646 -2.0243 -1.9052
  127SOPE   C2913624   4.442   2.843   4.257 -0.2070  0.3096  0.1904
  127SOPE   H9113625   4.337   2.870   4.242  0.2968  2.0732 -0.3225
  127SOPE  C21013626   4.473   2.787   4.374 -0.2044  0.7169  0.3236
  127SOPE  H10113627   4.395   2.786   4.453  1.1701  1.2997  1.7387
  127SOPE  C21113628   4.615   2.746   4.417  0.1443  0.3500 -0.4170
  127SOPE  H11R13629   4.681   2.724   4.330 -1.0830  0.1156 -1.3128
  127SOPE  H11S13630   4.618   2.649   4.471 -0.0626 -0.5315 -1.9460
  127SOPE  C21213631   4.684   2.853   4.508  0.2394  0.2918 -0.4364
  127SOPE  H12R13632   4.702   2.950   4.458 -0.1667  0.4502 -0.2745
  127SOPE  H12S13633   4.785   2.812   4.528  0.3102  1.2920  1.4311
  127SOPE  C21313634   4.611   2.858   4.645 -0.1418 -0.4314  0.2786
  127SOPE  H13R13635   4.595   2.750   4.665  1.0407 -0.6632  0.0627
  127SOPE  H13S13636   4.506   2.893   4.636 -0.6309 -1.7999  0.3799
  127SOPE  C21413637   4.697   2.922   4.748  0.3701  0.5486  0.2523
  127SOPE  H14R13638   4.700   3.031   4.727  2.6885  0.6525  0.8802
  127SOPE  H14S13639   4.803   2.890   4.743  0.9067  1.6047  2.9944
  127SOPE  C21513640   4.648   2.888   4.886  0.7658 -0.4305 -0.2198
  127SOPE  H15R13641   4.648   2.780   4.910  1.8877 -0.0762  1.5033
  127SOPE  H15S13642   4.545   2.929   4.897  1.3554  0.4979  2.6455
  127SOPE  C21613643   4.747   2.948   4.972  0.1266  0.4796 -1.2057
  127SOPE  H16R13644   4.750   3.056   4.945  0.7104  1.0705  1.0275
  127SOPE  H16S13645   4.850   2.911   4.957 -0.7258 -2.1647 -0.9479
  127SOPE  C21713646   4.726   2.902   5.120  0.2652 -0.3294 -0.1463
  127SOPE  H17R13647   4.808   2.914   5.194 -1.6762  1.5178  1.8399
  127SOPE  H17S13648   4.705   2.793   5.107 -3.5354  0.5161 -2.9212
  127SOPE  C21813649   4.606   2.976   5.184  0.2435  0.0219 -0.3976
  127SOPE  H18R13650   4.516   2.957   5.122  0.6151  3.0902 -2.0314
  127SOPE  H18S13651   4.628   3.085   5.188 -0.4522  0.1901 -0.9702
  127SOPE  H18T13652   4.579   2.959   5.290 -0.5340  0.2235 -0.5574
  127SOPE   C3313653   5.003   3.080   4.111  0.4154  0.6923 -0.1148
  127SOPE   H3X13654   5.044   3.176   4.072 -0.1557  0.5228 -1.1785
  127SOPE   H3Y13655   5.085   3.014   4.147  0.0218  0.7611  0.9316
  127SOPE   C3413656   4.925   3.082   4.247  0.7311 -0.4196 -0.2376
  127SOPE   H4X13657   4.887   2.980   4.272  2.7075 -1.4358 -1.1402
  127SOPE   H4Y13658   4.836   3.148   4.244  1.1754  0.1544 -2.2199
  127SOPE   C3513659   5.030   3.117   4.352 -0.1344 -0.8516  0.7352
  127SOPE   H5X13660   5.063   3.223   4.349 -0.1229 -0.8169  1.8535
  127SOPE   H5Y13661   5.127   3.063   4.339  0.3607 -0.1897  1.5565
  127SOPE   C3613662   4.977   3.087   4.491 -1.0345  0.0657  0.5731
  127SOPE   H6X13663   4.969   2.976   4.496 -1.3886 -0.1405 -2.5678
  127SOPE   H6Y13664   4.876   3.128   4.512 -0.2981  2.7643 -0.7715
  127SOPE   C3713665   5.068   3.137   4.602 -0.4172 -0.0423  0.2207
  127SOPE   H7X13666   5.080   3.245   4.583  2.5050 -0.3926 -0.3679
  127SOPE   H7Y13667   5.174   3.106   4.594  0.2846  1.7722  1.8744
  127SOPE   C3813668   5.008   3.122   4.746  0.1372  0.3612  0.1319
  127SOPE   H8X13669   5.000   3.015   4.773 -0.3535 -0.0737 -1.5866
  127SOPE   H8Y13670   4.910   3.175   4.743 -0.7052 -1.1554 -0.0603
  127SOPE   C3913671   5.100   3.198   4.838  0.1149  0.2462  0.1612
  127SOPE   H9X13672   5.122   3.297   4.794 -1.8457  0.3325 -0.6923
  127SOPE   H9Y13673   5.199   3.150   4.857 -0.1650 -0.0317  0.9916
  127SOPE  C31013674   5.045   3.220   4.982  0.0782  0.2781 -0.7931
  127SOPE  H10X13675   4.934   3.220   4.971  0.1832 -0.3397 -1.9867
  127SOPE  H10Y13676   5.085   3.315   5.025 -0.1413 -0.5500  1.3741
  127SOPE  C31113677   5.079   3.106   5.079  0.1268  0.5814 -0.0699
  127SOPE  H11X13678   5.188   3.083   5.073 -0.4007 -2.0531 -0.6393
  127SOPE  H11Y13679   5.019   3.020   5.044  2.0234 -0.2779 -1.3672
  127SOPE  C31213680   5.042   3.146   5.221 -0.4069  0.2807 -0.4734
  127SOPE  H12X13681   5.043   3.058   5.289 -1.5300  0.6550  0.0403
  127SOPE  H12Y13682   4.936   3.176   5.212 -1.1706 -2.2338 -0.5991
  127SOPE  C31313683   5.118   3.257   5.281 -0.1987  0.7081 -0.6828
  127SOPE  H13X13684   5.099   3.355   5.233  0.1986  1.1529  0.0411
  127SOPE  H13Y13685   5.225   3.230   5.264 -0.2563 -1.8591  2.0727
  127SOPE  C31413686   5.100   3.280   5.434 -0.0818  0.0282 -0.3330
  127SOPE  H14X13687   5.132   3.186   5.484 -0.7764  0.1651  0.3686
  127SOPE  H14Y13688   4.991   3.289   5.450  0.2409 -1.2677  3.4884
  127SOPE  C31513689   5.165   3.405   5.488 -0.5634 -0.5064 -0.3129
  127SOPE  H15X13690   5.124   3.497   5.443 -0.2273 -1.3187 -2.3671
  127SOPE  H15Y13691   5.270   3.411   5.455 -0.5628  0.3258 -0.1822
  127SOPE  C31613692   5.163   3.424   5.639 -0.0510  0.0399  0.3023
  127SOPE  H16X13693   5.203   3.334   5.690  0.2619 -1.7908 -2.9432
  127SOPE  H16Y13694   5.062   3.454   5.675 -0.6599 -0.4446 -0.9383
  127SOPE  C31713695   5.264   3.537   5.680  0.0359  0.6177 -0.0952
  127SOPE  H17X13696   5.366   3.505   5.648 -0.4743  1.4899 -2.7967
  127SOPE  H17Y13697   5.270   3.539   5.791 -1.2666 -0.8068  0.0189
  127SOPE  C31813698   5.224   3.675   5.625 -0.2932 -0.4348 -0.4452
  127SOPE  H18X13699   5.272   3.754   5.687 -0.2461  0.1378 -1.1967
  127SOPE  H18Y13700   5.115   3.693   5.614 -0.3207 -1.1121 -1.3733
  127SOPE  H18Z13701   5.264   3.679   5.521  0.7054  2.0302 -0.0541
  128SOPE     N13702   1.118   5.543   3.114 -0.3177 -0.3258  0.2877
  128SOPE   HN113703   1.187   5.466   3.130 -0.1734  0.2429  2.7334
  128SOPE   HN213704   1.169   5.632   3.130  3.8272 -1.8803 -2.5031
  128SOPE   HN313705   1.042   5.528   3.184 -2.2169 -0.5686 -1.6941
  128SOPE   C1213706   1.073   5.533   2.974 -0.2541  0.7117 -0.1479
  128SOPE  H12A13707   1.069   5.635   2.931 -2.3362 -0.5674 -3.3939
  128SOPE  H12B13708   0.969   5.494   2.975  0.2212 -0.6556 -0.9709
  128SOPE   C1113709   1.172   5.441   2.894  0.0606 -0.2047 -0.9593
  128SOPE  H11A13710   1.271   5.490   2.888  0.7457 -1.0975  1.8073
  128SOPE  H11B13711   1.128   5.443   2.791 -0.3841 -1.0488 -0.7944
  128SOPE     P13712   1.282   5.229   3.018  0.0690  0.1370  0.0058
  128SOPE   O1313713   1.408   5.224   2.935  0.3315  0.4889 -0.3560
  128SOPE   O1413714   1.232   5.102   3.084  0.6274 -0.0469 -0.4243
  128SOPE   O1213715   1.164   5.307   2.941 -0.6006  0.8744 -0.2279
  128SOPE   O1113716   1.317   5.335   3.129  0.1701  0.0917 -0.4296
  128SOPE    C113717   1.413   5.318   3.222 -0.6138 -0.1948  0.1943
  128SOPE    HA13718   1.508   5.358   3.182  0.8666 -3.3030  0.2798
  128SOPE    HB13719   1.426   5.212   3.254  0.2913 -0.3712 -0.7257
  128SOPE    C213720   1.377   5.397   3.346 -0.4516 -0.3901  0.3275
  128SOPE    HS13721   1.356   5.502   3.315  1.7833  0.0298  0.0891
  128SOPE   O2113722   1.490   5.388   3.432 -0.5360  0.3329 -0.2828
  128SOPE   C2113723   1.486   5.455   3.540  0.0808 -0.0073 -0.2944
  128SOPE   O2213724   1.389   5.512   3.594 -0.2399 -0.2376  0.2652
  128SOPE   C2213725   1.618   5.437   3.613  0.4298  0.3309 -0.4674
  128SOPE   H2R13726   1.682   5.527   3.599  1.7391 -0.5539 -0.3750
  128SOPE   H2S13727   1.672   5.353   3.564  0.5925 -0.1691  0.5495
  128SOPE    C313728   1.247   5.337   3.416  0.1431 -0.2654 -0.2227
  128SOPE    HX13729   1.163   5.334   3.343 -1.6741 -0.3290  1.7704
  128SOPE    HY13730   1.197   5.397   3.495 -0.2605  0.7473 -1.2123
  128SOPE   O3113731   1.273   5.204   3.466  0.5341  0.3890 -0.1027
  128SOPE   C3113732   1.184   5.158   3.562  0.5843 -0.6239 -0.0668
  128SOPE   O3213733   1.078   5.215   3.583 -0.2868 -0.3124 -0.0037
  128SOPE   C3213734   1.250   5.050   3.650 -0.5140 -0.1340  0.1026
  128SOPE   H2X13735   1.349   5.083   3.688 -0.1312 -0.2233 -0.7997
  128SOPE   H2Y13736   1.270   4.977   3.569 -1.2965 -0.4499  0.1930
  128SOPE   C2313737   1.611   5.432   3.774  0.3599  0.5074 -0.2638
  128SOPE   H3R13738   1.513   5.382   3.785  0.9278 -1.0861 -1.9174
  128SOPE   H3S13739   1.611   5.537   3.810  3.0215  0.4603  0.0874
  128SOPE   C2413740   1.714   5.347   3.836 -0.3156  0.2806 -0.5422
  128SOPE   H4R13741   1.720   5.245   3.792  3.1268 -1.7053  3.7409
  128SOPE   H4S13742   1.818   5.383   3.823 -0.1966 -0.1736 -0.8719
  128SOPE   C2513743   1.698   5.307   3.985  0.3294  0.0742  0.5716
  128SOPE   H5R13744   1.711   5.401   4.043 -0.6643  1.5813 -1.5428
  128SOPE   H5S13745   1.596   5.265   3.995  0.4923 -0.8109 -1.1280
  128SOPE   C2613746   1.807   5.208   4.022 -0.4176  0.1977 -0.5795
  128SOPE   H6R13747   1.778   5.104   3.997 -1.9578  1.0705 -2.8255
  128SOPE   H6S13748   1.893   5.221   3.953 -0.2477 -3.2944 -1.1991
  128SOPE   C2713749   1.857   5.210   4.173 -0.5107 -0.1749  0.6181
  128SOPE   H7R13750   1.869   5.318   4.197 -0.0060 -0.4378  1.6076
  128SOPE   H7S13751   1.768   5.171   4.226 -0.3496 -1.1645  0.1859
  128SOPE   C2813752   1.989   5.126   4.205  0.4990 -0.1386 -0.5701
  128SOPE   H8R13753   2.065   5.144   4.126  1.5338 -1.9067 -0.0282
  128SOPE   H8S13754   2.031   5.173   4.297 -0.3525 -0.8345  0.2023
  128SOPE   C2913755   1.946   4.984   4.224 -0.3789 -0.0137  0.0832
  128SOPE   H9113756   1.873   4.941   4.153  0.7537  0.7049 -1.5795
  128SOPE  C21013757   1.968   4.904   4.329  0.0760 -0.3915  0.3088
  128SOPE  H10113758   1.928   4.802   4.329 -3.1047  0.6987 -1.5366
  128SOPE  C21113759   2.062   4.951   4.439  0.1557 -0.0919  0.0739
  128SOPE  H11R13760   2.122   5.043   4.423  0.2731 -0.5556 -2.7676
  128SOPE  H11S13761   2.128   4.865   4.459 -1.0941 -1.1450 -0.1653
  128SOPE  C21213762   1.994   4.961   4.579  0.7158 -1.2075  0.0907
  128SOPE  H12R13763   1.963   4.863   4.622 -0.1130 -0.1213  2.1068
  128SOPE  H12S13764   1.909   5.033   4.577 -0.1723 -2.1801 -2.7047
  128SOPE  C21313765   2.090   5.027   4.677 -0.1956 -0.5588  1.0514
  128SOPE  H13R13766   2.111   5.126   4.632 -0.2206 -1.5046 -1.1234
  128SOPE  H13S13767   2.178   4.960   4.683  0.5144  0.0931 -1.3648
  128SOPE  C21413768   2.024   5.036   4.814  0.0684  0.0470 -0.3945
  128SOPE  H14R13769   2.013   4.933   4.855 -0.4403  0.5335  0.7341
  128SOPE  H14S13770   1.919   5.072   4.812 -0.6674 -1.8290  1.1714
  128SOPE  C21513771   2.112   5.115   4.905  1.0336  0.1549  0.2675
  128SOPE  H15R13772   2.094   5.224   4.888  2.1309 -0.0791 -3.1914
  128SOPE  H15S13773   2.218   5.101   4.875  0.7592  0.4970 -0.9180
  128SOPE  C21613774   2.078   5.076   5.047 -0.7764 -0.2007  0.0377
  128SOPE  H16R13775   2.080   4.964   5.046 -3.2412 -0.3098  0.6086
  128SOPE  H16S13776   1.975   5.097   5.083 -0.7624 -1.7313  1.0982
  128SOPE  C21713777   2.184   5.122   5.147 -0.5218 -0.2622  0.2254
  128SOPE  H17R13778   2.275   5.076   5.101 -1.3795 -1.2132 -0.5728
  128SOPE  H17S13779   2.174   5.079   5.249 -2.4224  0.0021  0.1853
  128SOPE  C21813780   2.205   5.271   5.158  0.6345  0.2654 -0.3053
  128SOPE  H18R13781   2.120   5.321   5.210 -0.6762 -1.1141 -1.0438
  128SOPE  H18S13782   2.217   5.322   5.060  0.4359  0.2877 -0.3191
  128SOPE  H18T13783   2.294   5.297   5.220 -0.7295  0.1480  1.8233
  128SOPE   C3313784   1.162   5.000   3.766  0.4894  0.1279 -0.9245
  128SOPE   H3X13785   1.205   4.901   3.792 -0.7946  0.1465  1.5410
  128SOPE   H3Y13786   1.054   4.988   3.739 -0.1768  0.9237  1.2020
  128SOPE   C3413787   1.170   5.105   3.880 -0.6222  0.4336  0.5335
  128SOPE   H4X13788   1.145   5.200   3.827  0.9633 -0.1882 -1.4670
  128SOPE   H4Y13789   1.274   5.103   3.918 -0.4172 -1.5711  0.0002
  128SOPE   C3513790   1.085   5.072   3.994  0.9048 -0.1797 -0.6098
  128SOPE   H5X13791   1.103   4.970   4.033  2.3047 -0.3035 -1.5134
  128SOPE   H5Y13792   0.978   5.089   3.967 -0.0545  2.3305  3.8078
  128SOPE   C3613793   1.119   5.168   4.104 -0.4732 -0.1138 -0.5419
  128SOPE   H6X13794   1.099   5.271   4.066  1.3898  0.5108  0.0637
  128SOPE   H6Y13795   1.221   5.157   4.147 -1.3932 -0.2362  1.7266
  128SOPE   C3713796   1.040   5.143   4.240  0.2932  0.6248  0.3050
  128SOPE   H7X13797   0.930   5.130   4.227  0.3998 -0.2106  0.1720
  128SOPE   H7Y13798   1.050   5.239   4.294 -1.6709  2.0305 -1.6542
  128SOPE   C3813799   1.100   5.035   4.337  0.2236 -0.0361 -0.5441
  128SOPE   H8X13800   1.196   5.074   4.377 -0.6316  2.4285 -0.7881
  128SOPE   H8Y13801   1.121   4.938   4.287  1.6488  1.0433 -2.1602
  128SOPE   C3913802   1.012   5.007   4.454 -0.2099 -0.8788  0.9754
  128SOPE   H9X13803   0.915   4.970   4.415  0.1148 -1.1291  0.3827
  128SOPE   H9Y13804   1.001   5.106   4.503 -0.1539 -0.3925  0.0237
  128SOPE  C31013805   1.079   4.910   4.551 -0.4421 -0.1893  0.0386
  128SOPE  H10X13806   1.177   4.947   4.589 -1.1782 -0.7029  2.5668
  128SOPE  H10Y13807   1.102   4.818   4.494  2.0309  0.1504  0.3767
  128SOPE  C31113808   0.992   4.866   4.669 -0.5042  0.3921 -0.3525
  128SOPE  H11X13809   1.044   4.778   4.714 -0.2427  0.0207 -1.3504
  128SOPE  H11Y13810   0.899   4.815   4.636  0.4822  0.5645 -3.6926
  128SOPE  C31213811   0.971   4.965   4.788  0.3783  0.8406  0.4853
  128SOPE  H12X13812   0.914   5.053   4.750  1.0242  2.0475  2.1883
  128SOPE  H12Y13813   1.071   4.996   4.825  1.8592  1.6771 -3.6780
  128SOPE  C31313814   0.906   4.887   4.908  0.0807  0.6339  0.3386
  128SOPE  H13X13815   0.965   4.794   4.920 -0.9351 -0.3431 -1.7124
  128SOPE  H13Y13816   0.805   4.849   4.880  0.5738 -1.1980  0.8990
  128SOPE  C31413817   0.904   4.979   5.033 -0.7972  0.3530 -0.0163
  128SOPE  H14X13818   1.001   4.992   5.086 -1.6818 -0.1116  1.7802
  128SOPE  H14Y13819   0.848   4.921   5.109 -0.3647 -0.1172 -0.0548
  128SOPE  C31513820   0.843   5.124   5.009  0.0431  0.3984 -0.0684
  128SOPE  H15X13821   0.747   5.091   4.963  0.2826  0.3526 -0.5394
  128SOPE  H15Y13822   0.899   5.186   4.936 -1.4144  2.5747  0.5495
  128SOPE  C31613823   0.831   5.204   5.134 -0.1406 -0.6430 -0.8063
  128SOPE  H16X13824   0.774   5.297   5.112  0.2594 -0.6689 -2.0312
  128SOPE  H16Y13825   0.932   5.238   5.166 -1.1235  1.9234 -0.2203
  128SOPE  C31713826   0.766   5.129   5.252 -0.4232  0.1791 -0.1714
  128SOPE  H17X13827   0.834   5.051   5.294 -0.2522  2.1345  3.6676
  128SOPE  H17Y13828   0.682   5.068   5.213  0.3992 -0.9571 -0.2232
  128SOPE  C31813829   0.725   5.219   5.369 -0.3389  0.3742  0.0856
  128SOPE  H18X13830   0.704   5.161   5.462 -0.8896 -0.9497 -0.8441
  128SOPE  H18Y13831   0.648   5.292   5.336  0.0503  1.1314  0.8032
  128SOPE  H18Z13832   0.802   5.289   5.408  1.7151 -1.7448  0.0756
  129OSM      N13833   4.971   5.872   7.658 -0.0238 -0.2304  0.5391
  129OSM    C1513834   4.839   5.916   7.713 -0.0501 -0.8373  0.2251
  129OSM   H15A13835   4.776   5.840   7.757 -0.8011 -0.2180  0.2337
  129OSM   H15B13836   4.780   5.946   7.628 -0.8883 -2.0526  0.3543
  129OSM   H15C13837   4.850   5.999   7.782  0.1389 -1.4639  0.9749
  129OSM    C1413838   5.056   5.822   7.773 -0.0973  0.9688 -0.0629
  129OSM   H14A13839   5.076   5.901   7.844  1.6339  0.5841 -0.0868
  129OSM   H14B13840   5.149   5.783   7.735 -1.1821 -0.9439 -0.8836
  129OSM   H14C13841   5.011   5.748   7.837  2.5582  0.7866  1.7554
  129OSM    C1313842   4.946   5.755   7.566 -0.4267 -0.4425 -0.2885
  129OSM   H13A13843   5.035   5.744   7.507 -0.1077 -1.5839  0.3925
  129OSM   H13B13844   4.874   5.772   7.487 -0.9336 -0.7662  0.0961
  129OSM   H13C13845   4.920   5.664   7.617  3.7999 -2.0807 -0.6628
  129OSM    C1213846   5.036   5.989   7.589 -0.2411  0.0529 -0.2445
  129OSM   H12A13847   5.139   5.967   7.565 -0.2363  1.2400 -1.4410
  129OSM   H12B13848   5.040   6.075   7.654 -1.0668 -0.3267  0.3196
  129OSM    C1113849   4.969   6.041   7.453 -0.3841 -0.3145  0.6188
  129OSM   H11A13850   4.993   5.965   7.375  1.5838 -0.7354  1.5557
  129OSM   H11B13851   5.039   6.122   7.421 -2.2627  0.5729 -1.5612
  129OSM      P13852   4.794   6.231   7.515  0.1202  0.6296  0.2008
  129OSM    O1313853   4.650   6.230   7.513 -0.1157 -0.0200 -0.4595
  129OSM    O1413854   4.858   6.250   7.642 -0.6600  0.4451  0.0087
  129OSM    O1113855   4.860   6.327   7.410  0.0171 -0.3947  0.4652
  129OSM    O1213856   4.837   6.088   7.466 -0.5463 -0.0494  0.4104
  129OSM    C1S13857   4.961   6.419   7.465  0.0237 -0.1257  0.6679
  129OSM    H1S13858   5.052   6.367   7.503  0.8959  1.8219  1.3713
  129OSM    H1T13859   4.914   6.487   7.538  1.5412 -0.1923  1.7462
  129OSM     NF13860   5.136   6.580   7.401  1.1963  0.2813  0.3039
  129OSM    HNF13861   5.134   6.672   7.439  3.8454 -0.0893  1.5893
  129OSM    C2S13862   5.014   6.521   7.356 -0.4892  0.1163  0.0032
  129OSM    H2S13863   5.038   6.456   7.269 -0.3258  0.6499 -0.3538
  129OSM    C3S13864   4.902   6.625   7.327 -0.0840 -0.2471  1.1652
  129OSM    H3S13865   4.889   6.688   7.417 -0.7069  1.1019  0.1649
  129OSM     O313866   4.773   6.566   7.300  0.1363 -0.2144 -0.0005
  129OSM    HO313867   4.795   6.473   7.305  0.7645 -0.1115 -0.7184
  129OSM    C4S13868   4.945   6.729   7.219 -0.3111 -0.4207  0.3788
  129OSM    H4S13869   5.004   6.814   7.258 -0.8535  0.6917 -1.1264
  129OSM    C5S13870   4.936   6.711   7.081  0.0055  0.1532 -0.1511
  129OSM    H5S13871   4.883   6.620   7.048  1.4637 -0.5744 -0.5722
  129OSM    C6S13872   4.991   6.804   6.974  0.5417  0.2613 -0.1461
  129OSM    H6S13873   5.043   6.890   7.021 -2.7644  1.0080  2.4955
  129OSM    H6T13874   4.906   6.850   6.920 -0.1415 -2.4422 -1.5290
  129OSM    C7S13875   5.069   6.726   6.864 -0.7445 -0.1405 -0.1865
  129OSM    H7S13876   5.161   6.687   6.912  1.4970  2.0564 -2.3638
  129OSM    H7T13877   5.100   6.808   6.795 -1.4306 -1.8152 -2.5936
  129OSM    C8S13878   4.987   6.630   6.775  0.6637  0.6864 -0.8945
  129OSM    H8S13879   4.887   6.676   6.763 -1.3192 -3.2399 -1.1084
  129OSM    H8T13880   4.968   6.538   6.835 -1.1855  2.3313  1.2010
  129OSM    C9S13881   5.057   6.597   6.639 -0.3571  0.4605  0.3679
  129OSM    H9S13882   5.147   6.534   6.653 -1.4225 -2.1464 -3.1424
  129OSM    H9T13883   5.098   6.686   6.586  0.7457 -1.0332 -1.4283
  129OSM   C10S13884   4.962   6.516   6.552 -0.1142  0.4040 -0.2126
  129OSM   H10S13885   4.874   6.575   6.517 -0.2465  0.6940  0.5756
  129OSM   H10T13886   4.913   6.433   6.607 -0.0899  1.3107  1.2436
  129OSM   C11S13887   5.023   6.475   6.418  0.2091  0.3017 -0.4489
  129OSM   H11S13888   4.954   6.401   6.371 -1.7020  1.7720 -0.0858
  129OSM   H11T13889   5.116   6.418   6.441 -0.4562 -0.5718  0.1258
  129OSM   C12S13890   5.055   6.586   6.313  0.4510  0.1066  0.4856
  129OSM   H12S13891   5.135   6.561   6.239  0.2502 -1.2742  0.7054
  129OSM   H12T13892   5.084   6.674   6.374 -1.7598  1.9913 -0.9999
  129OSM   C13S13893   4.930   6.633   6.235  0.1007  0.0354 -0.3837
  129OSM   H13S13894   4.938   6.739   6.203 -1.3056  0.4789  0.6589
  129OSM   H13T13895   4.838   6.633   6.296  0.2691  0.4415 -0.1237
  129OSM   C14S13896   4.903   6.542   6.114 -0.3585 -0.2994  0.4958
  129OSM   H14S13897   4.796   6.555   6.089  0.1764  0.1839 -1.7933
  129OSM   H14T13898   4.920   6.442   6.157 -1.1590  0.8462  3.7624
  129OSM   C15S13899   4.992   6.585   5.986  0.0164 -0.1210  0.0822
  129OSM   H15S13900   5.091   6.535   5.984 -0.1604 -0.7417 -4.7931
  129OSM   H15T13901   5.002   6.695   5.981 -0.6200 -0.0562  0.1755
  129OSM   C16S13902   4.918   6.551   5.852  0.0025 -0.8974 -0.1671
  129OSM   H16S13903   4.809   6.569   5.866  0.0145  0.1020 -1.2377
  129OSM   H16T13904   4.934   6.445   5.825  0.1688 -0.5834 -1.3256
  129OSM   C17S13905   4.967   6.642   5.735 -0.4961 -0.5033  0.2122
  129OSM   H17S13906   5.078   6.642   5.735 -0.4845 -0.5397 -1.0117
  129OSM   H17T13907   4.940   6.743   5.774  3.0689  0.6580  0.0695
  129OSM   C18S13908   4.916   6.607   5.596  0.2379 -0.0816  0.9763
  129OSM   H18S13909   4.975   6.518   5.566  0.6898 -0.2683  2.3612
  129OSM   H18T13910   4.936   6.689   5.523 -3.1419 -1.5293 -1.8777
  129OSM   H18U13911   4.807   6.586   5.599 -0.2242  2.0228  0.6386
  129OSM    C1F13912   5.254   6.521   7.406  0.7776  0.8704  0.4685
  129OSM     OF13913   5.255   6.399   7.421 -0.2181  0.1880  0.4155
  129OSM    C2F13914   5.375   6.601   7.400  0.5676 -0.1078 -0.5305
  129OSM    H2F13915   5.433   6.618   7.493  1.4840  0.0301 -1.1128
  129OSM    H2G13916   5.349   6.703   7.367 -0.0390  0.1967  0.8061
  129OSM    C3F13917   5.470   6.550   7.293 -0.3367 -0.1158 -0.2465
  129OSM    H3F13918   5.500   6.444   7.300  0.9267  0.3433  2.2364
  129OSM    H3G13919   5.561   6.610   7.317 -1.8815  1.0199  3.3347
  129OSM    C4F13920   5.419   6.593   7.149 -0.9020  0.4029  0.7882
  129OSM    H4F13921   5.398   6.702   7.152 -1.0815  0.4405 -0.9615
  129OSM    H4G13922   5.321   6.543   7.138 -0.0591 -1.1436 -0.0517
  129OSM    C5F13923   5.521   6.564   7.031 -0.0351 -0.0166  0.5134
  129OSM    H5F13924   5.530   6.453   7.035 -1.5082 -0.1742  0.0520
  129OSM    H5G13925   5.628   6.594   7.044  0.7077 -2.2623  0.0570
  129OSM    C6F13926   5.477   6.600   6.883 -0.1050 -0.2123 -0.2796
  129OSM    H6F13927   5.450   6.707   6.876 -3.9802 -1.1455 -3.5671
  129OSM    H6G13928   5.383   6.542   6.868 -0.3792  0.2529 -0.3561
  129OSM    C7F13929   5.574   6.560   6.773  0.4537 -0.5749  0.6073
  129OSM    H7F13930   5.559   6.453   6.747  0.4205 -0.3387 -0.3764
  129OSM    H7G13931   5.678   6.569   6.811  0.6299  0.7221 -0.1301
  129OSM    C8F13932   5.555   6.652   6.649  0.0501  0.4471 -0.1439
  129OSM    H8F13933   5.648   6.651   6.588  0.0999 -1.4408 -0.0810
  129OSM    H8G13934   5.538   6.755   6.687 -1.5807  0.1632 -0.0587
  129OSM    C9F13935   5.428   6.619   6.569 -0.1213 -0.4711 -0.4788
  129OSM    H9F13936   5.333   6.657   6.611  0.0848 -1.1440  0.6344
  129OSM   C10F13937   5.418   6.556   6.453 -0.2361 -0.0167  0.9069
  129OSM   H10F13938   5.329   6.551   6.389  0.9205 -1.7234 -0.6548
  129OSM   C11F13939   5.533   6.489   6.377  0.1741  0.4143  0.3041
  129OSM   H11F13940   5.577   6.399   6.426 -0.2039 -1.0541 -1.8965
  129OSM   H11G13941   5.612   6.567   6.371  1.8303 -1.2161 -0.0951
  129OSM   C12F13942   5.495   6.459   6.226  0.2601  0.0161 -0.6077
  129OSM   H12F13943   5.402   6.397   6.225  0.1997  0.0991 -2.3282
  129OSM   H12G13944   5.575   6.393   6.187  0.7588  0.5413 -0.4753
  129OSM   C13F13945   5.486   6.582   6.140 -0.3786  0.4796  0.1723
  129OSM   H13F13946   5.583   6.635   6.154 -1.5799  2.7983  0.2036
  129OSM   H13G13947   5.404   6.644   6.181  0.5658  2.0600 -0.2153
  129OSM   C14F13948   5.458   6.564   5.995  0.2370  0.2297  0.3253
  129OSM   H14F13949   5.363   6.508   5.986  0.5174 -0.7634  2.7994
  129OSM   H14G13950   5.535   6.491   5.962 -1.1637 -1.8881  1.4905
  129OSM   C15F13951   5.454   6.697   5.918  0.1048 -0.9227 -0.6770
  129OSM   H15F13952   5.480   6.780   5.986 -1.0504 -0.7766 -0.3956
  129OSM   H15G13953   5.355   6.723   5.875 -0.9716 -0.6807  1.7922
  129OSM   C16F13954   5.537   6.701   5.793  0.2033  0.1816  0.3042
  129OSM   H16F13955   5.646   6.700   5.814  0.3487 -2.0921 -0.3276
  129OSM   H16G13956   5.516   6.794   5.736  1.5789  0.6135  0.4616
  129OSM   C17F13957   5.525   6.576   5.702  0.2847 -0.2626 -0.0320
  129OSM   H17F13958   5.563   6.487   5.756 -0.9819 -0.6670  0.2400
  129OSM   H17G13959   5.585   6.586   5.609 -0.3627  0.9171 -0.3411
  129OSM   C18F13960   5.381   6.556   5.659  0.4621  0.1644  0.4354
  129OSM   H18F13961   5.313   6.534   5.744 -0.1570  1.4377  0.2890
  129OSM   H18G13962   5.373   6.467   5.592 -0.1045 -0.2076  0.9960
  129OSM   H18H13963   5.341   6.640   5.598  0.1611 -0.3800 -0.1248
  130OSM      N13964   0.747   3.161   7.898  0.1640 -0.7879  0.2636
  130OSM    C1513965   0.603   3.217   7.888 -0.6637 -1.2819 -0.2895
  130OSM   H15A13966   0.571   3.286   7.965 -0.5517 -1.4303 -0.1090
  130OSM   H15B13967   0.527   3.142   7.901 -1.4417 -0.4286  0.2193
  130OSM   H15C13968   0.591   3.268   7.793  0.9165 -0.7276 -0.2242
  130OSM    C1413969   0.773   3.086   7.774 -0.4573 -0.3417 -0.5894
  130OSM   H14A13970   0.725   2.990   7.784  1.0781 -1.2128 -1.2595
  130OSM   H14B13971   0.878   3.060   7.785  0.2724  2.5740  0.3013
  130OSM   H14C13972   0.743   3.143   7.688  2.0704 -0.8394 -1.8938
  130OSM    C1313973   0.851   3.275   7.898 -0.5664 -0.1023 -0.0421
  130OSM   H13A13974   0.837   3.345   7.817 -1.3484  1.4912  1.4112
  130OSM   H13B13975   0.954   3.241   7.899 -0.8090 -0.9982 -1.4547
  130OSM   H13C13976   0.839   3.333   7.988 -1.1906 -1.9021  1.0899
  130OSM    C1213977   0.749   3.082   8.027 -0.3451  0.5206 -0.1285
  130OSM   H12A13978   0.680   3.003   8.005  0.7040  0.2935 -3.1486
  130OSM   H12B13979   0.712   3.141   8.109  0.6892  2.3591 -0.9108
  130OSM    C1113980   0.883   3.006   8.070  0.2738  0.3731 -0.6946
  130OSM   H11A13981   0.867   2.990   8.179  0.7058 -1.5730 -0.8811
  130OSM   H11B13982   0.969   3.075   8.061  1.9840 -1.4394  0.9169
  130OSM      P13983   0.852   2.747   8.048  0.2186  0.1316  0.1417
  130OSM    O1313984   0.932   2.707   8.166  0.2987 -0.3696  0.0101
  130OSM    O1413985   0.708   2.762   8.075  0.4134 -0.5143 -0.1924
  130OSM    O1113986   0.886   2.654   7.926 -0.2789 -0.2216 -0.1697
  130OSM    O1213987   0.906   2.888   7.993  0.1765 -0.6674 -0.7588
  130OSM    C1S13988   0.880   2.703   7.786 -0.4047 -0.6385  0.4025
  130OSM    H1S13989   0.863   2.812   7.770 -0.8913 -1.0151 -2.0470
  130OSM    H1T13990   0.810   2.652   7.716  0.2318  1.7086 -2.1287
  130OSM     NF13991   1.008   2.741   7.579  0.0777 -0.5965  0.7240
  130OSM    HNF13992   0.984   2.677   7.507 -1.0192 -1.0916  1.4986
  130OSM    C2S13993   1.011   2.674   7.713 -0.2163  0.4518 -0.2149
  130OSM    H2S13994   1.081   2.723   7.784 -3.0728  0.3521  2.9309
  130OSM    C3S13995   1.042   2.526   7.717  0.0086  0.6196  0.3409
  130OSM    H3S13996   0.955   2.467   7.681  2.7348 -1.7625 -3.0748
  130OSM     O313997   1.062   2.477   7.848  0.5726  0.0874 -0.4207
  130OSM    HO313998   1.009   2.530   7.907  2.4453 -0.0979  1.5365
  130OSM    C4S13999   1.162   2.492   7.628  0.1444  0.1383 -0.6523
  130OSM    H4S14000   1.255   2.547   7.649  0.0254 -0.3872  1.4653
  130OSM    C5S14001   1.153   2.420   7.517 -0.0732  0.3041  0.2607
  130OSM    H5S14002   1.060   2.377   7.477  0.4618 -0.2586 -0.4043
  130OSM    C6S14003   1.261   2.403   7.413 -0.1416  0.3874  0.0679
  130OSM    H6S14004   1.216   2.422   7.314 -0.5987 -1.1127 -0.0327
  130OSM    H6T14005   1.305   2.301   7.416  3.6434  1.8815  0.4448
  130OSM    C7S14006   1.378   2.498   7.433  0.0444 -0.1530 -0.0612
  130OSM    H7S14007   1.422   2.472   7.531 -2.7867  0.3898  1.4777
  130OSM    H7T14008   1.330   2.598   7.441  2.7083  1.0629  4.6115
  130OSM    C8S14009   1.479   2.492   7.314 -0.3197 -1.0240 -0.8239
  130OSM    H8S14010   1.422   2.505   7.219 -1.4746 -1.5044 -0.2154
  130OSM    H8T14011   1.517   2.391   7.289  1.7749  0.1153 -2.6535
  130OSM    C9S14012   1.588   2.601   7.321 -0.0348  0.3999 -0.6799
  130OSM    H9S14013   1.638   2.609   7.420  1.2542 -1.7711 -1.0904
  130OSM    H9T14014   1.531   2.697   7.312  0.4478  0.6713 -0.8621
  130OSM   C10S14015   1.692   2.585   7.212 -0.8532  0.4042  0.1478
  130OSM   H10S14016   1.742   2.487   7.226 -0.7349 -0.0212 -2.6944
  130OSM   H10T14017   1.765   2.668   7.227 -1.2551  0.8215 -0.1805
  130OSM   C11S14018   1.636   2.586   7.071  0.1726  0.3836  0.1547
  130OSM   H11S14019   1.565   2.503   7.050  1.6628 -0.7198 -0.7647
  130OSM   H11T14020   1.715   2.565   6.996  0.2032  0.6667  0.1050
  130OSM   C12S14021   1.573   2.718   7.035 -0.4148 -0.3808 -0.0497
  130OSM   H12S14022   1.653   2.792   7.055 -0.2893 -0.2459 -1.0085
  130OSM   H12T14023   1.490   2.740   7.106  1.5581 -1.5915  2.8447
  130OSM   C13S14024   1.548   2.722   6.890  0.1419  0.2166  0.1026
  130OSM   H13S14025   1.447   2.681   6.871  0.4427 -0.5208  0.0811
  130OSM   H13T14026   1.616   2.653   6.836 -0.3198 -0.6753  0.6426
  130OSM   C14S14027   1.557   2.861   6.826 -0.8148  0.1052  0.1704
  130OSM   H14S14028   1.661   2.899   6.823  0.6443 -3.5566 -1.1681
  130OSM   H14T14029   1.495   2.927   6.890  0.3588  2.7606 -1.2551
  130OSM   C15S14030   1.492   2.856   6.685 -0.0409 -0.0568  0.1125
  130OSM   H15S14031   1.398   2.797   6.686 -0.6360  0.8497  1.0792
  130OSM   H15T14032   1.569   2.810   6.619  0.3442  1.9238 -0.9073
  130OSM   C16S14033   1.453   2.988   6.622  0.5897 -0.2348 -0.2749
  130OSM   H16S14034   1.536   3.048   6.580  2.2888 -2.0188  0.4091
  130OSM   H16T14035   1.395   3.048   6.696  0.4092  0.1957 -0.7537
  130OSM   C17S14036   1.363   2.969   6.497  0.8235 -0.2786  0.8614
  130OSM   H17S14037   1.274   2.912   6.529  1.3942 -2.4676 -1.1633
  130OSM   H17T14038   1.411   2.904   6.421 -1.2975  0.3726 -1.1574
  130OSM   C18S14039   1.323   3.105   6.430  0.0298 -0.0399  0.3479
  130OSM   H18S14040   1.269   3.094   6.334 -1.9850  1.6593  1.2184
  130OSM   H18T14041   1.416   3.155   6.395  2.1638 -3.9990 -0.1782
  130OSM   H18U14042   1.268   3.184   6.486 -0.9394 -1.3416  1.2717
  130OSM    C1F14043   1.024   2.872   7.556 -0.3084  0.1438  0.2141
  130OSM     OF14044   1.058   2.951   7.642  0.1132 -0.2162  0.3797
  130OSM    C2F14045   0.984   2.924   7.419  0.0246  0.5682 -0.0850
  130OSM    H2F14046   0.891   2.981   7.440 -1.2177 -1.0842 -0.8550
  130OSM    H2G14047   0.958   2.832   7.362  0.8617 -1.0915  2.0633
  130OSM    C3F14048   1.089   3.018   7.357  0.2669  0.2787  0.3172
  130OSM    H3F14049   1.111   3.089   7.439  2.0824 -0.5304  0.5661
  130OSM    H3G14050   1.037   3.084   7.285 -0.2033 -0.5690 -0.1371
  130OSM    C4F14051   1.219   2.947   7.311 -0.0910  0.1202 -0.0689
  130OSM    H4F14052   1.187   2.858   7.252 -1.9791  0.7111 -0.0085
  130OSM    H4G14053   1.269   2.912   7.403 -2.8960  0.4429  1.7077
  130OSM    C5F14054   1.329   3.036   7.236  0.0861 -0.0706 -0.0053
  130OSM    H5F14055   1.422   2.974   7.238 -0.4800 -0.9234  0.2040
  130OSM    H5G14056   1.329   3.134   7.287  1.1388  0.6192 -1.2552
  130OSM    C6F14057   1.295   3.054   7.084 -0.3897 -0.0772 -0.1681
  130OSM    H6F14058   1.194   3.088   7.054 -0.4652  1.9433  2.0728
  130OSM    H6G14059   1.306   2.953   7.039  0.5740 -1.4771  2.9156
  130OSM    C7F14060   1.395   3.153   7.014 -0.6846  0.4203 -0.1239
  130OSM    H7F14061   1.396   3.135   6.904 -1.5519 -0.7807  0.0530
  130OSM    H7G14062   1.498   3.131   7.051 -1.1185 -1.2912  0.1579
  130OSM    C8F14063   1.360   3.301   7.038 -0.5600  0.2275 -0.7194
  130OSM    H8F14064   1.450   3.364   7.024  0.7565 -1.2495  0.7100
  130OSM    H8G14065   1.336   3.332   7.142 -2.2528  3.1983 -1.8696
  130OSM    C9F14066   1.241   3.337   6.951 -1.1120 -0.8252  0.2951
  130OSM    H9F14067   1.159   3.264   6.959 -0.1362 -1.8711  1.1687
  130OSM   C10F14068   1.242   3.449   6.879  0.1853 -0.0470 -0.3144
  130OSM   H10F14069   1.160   3.485   6.815  0.5842  0.5131 -0.5159
  130OSM   C11F14070   1.353   3.547   6.857 -0.7827  0.1598  0.0322
  130OSM   H11F14071   1.405   3.561   6.954 -0.1436 -1.4365 -0.0462
  130OSM   H11G14072   1.307   3.645   6.831  0.3110  0.5354 -0.5277
  130OSM   C12F14073   1.443   3.510   6.740 -0.4905 -0.7767  0.1135
  130OSM   H12F14074   1.498   3.415   6.754  0.6418 -0.3901 -1.3830
  130OSM   H12G14075   1.514   3.596   6.733 -0.7366 -0.6735 -1.5014
  130OSM   C13F14076   1.367   3.510   6.605  0.1336  0.3824 -0.0766
  130OSM   H13F14077   1.316   3.606   6.583 -1.5612 -0.8343 -1.8682
  130OSM   H13G14078   1.285   3.435   6.607  0.4503  0.0550  1.1159
  130OSM   C14F14079   1.465   3.470   6.491 -0.8921  0.0203 -0.9113
  130OSM   H14F14080   1.501   3.368   6.517  0.7192  0.8645  0.3893
  130OSM   H14G14081   1.556   3.533   6.504 -1.7601  0.9440  1.0924
  130OSM   C15F14082   1.402   3.493   6.359 -0.3452  0.3945  0.1244
  130OSM   H15F14083   1.376   3.601   6.357  2.0462  1.0114 -1.8021
  130OSM   H15G14084   1.317   3.422   6.347  1.6235 -2.0855 -0.0232
  130OSM   C16F14085   1.498   3.481   6.235  0.2136  0.6041  0.3922
  130OSM   H16F14086   1.510   3.372   6.220 -2.6282 -0.0964  2.4580
  130OSM   H16G14087   1.600   3.524   6.249  0.9331  0.2037 -2.8867
  130OSM   C17F14088   1.427   3.545   6.109  0.0983  0.4129 -0.0283
  130OSM   H17F14089   1.430   3.655   6.125  1.4327  0.2852  0.7889
  130OSM   H17G14090   1.324   3.505   6.106  0.2442  0.0286  0.0091
  130OSM   C18F14091   1.496   3.504   5.981 -0.6031  0.8630  0.5412
  130OSM   H18F14092   1.424   3.521   5.898  0.4584  0.9271 -0.3818
  130OSM   H18G14093   1.515   3.395   5.978  1.1085  0.9552 -5.5567
  130OSM   H18H14094   1.592   3.559   5.966 -0.2281  0.5284  1.6355
  131OSM      N14095   4.404   4.838   8.195 -0.1095  0.2460  0.4898
  131OSM    C1514096   4.316   4.752   8.106 -0.0616 -0.5702  0.0185
  131OSM   H15A14097   4.222   4.803   8.092  1.5509  2.5483 -0.3984
  131OSM   H15B14098   4.312   4.647   8.130 -1.1290 -0.5606 -0.0819
  131OSM   H15C14099   4.368   4.742   8.012 -1.2574 -0.2739 -0.6853
  131OSM    C1414100   4.399   4.978   8.151 -0.0171 -0.2648  0.7790
  131OSM   H14A14101   4.477   5.040   8.192  0.2908  0.2824 -0.5884
  131OSM   H14B14102   4.300   5.017   8.169 -0.1715 -0.0601 -0.4434
  131OSM   H14C14103   4.405   4.981   8.044  0.9836 -0.5865  0.8183
  131OSM    C1314104   4.339   4.826   8.329  0.1813 -0.2184 -0.0199
  131OSM   H13A14105   4.234   4.854   8.333  0.8985  3.1111 -1.6872
  131OSM   H13B14106   4.387   4.893   8.399  1.7021 -1.6566  0.3749
  131OSM   H13C14107   4.355   4.727   8.369  0.6707 -0.4862 -0.8658
  131OSM    C1214108   4.548   4.790   8.187 -0.1751  0.4008  0.1955
  131OSM   H12A14109   4.610   4.838   8.262  0.4798 -2.1749  1.4254
  131OSM   H12B14110   4.585   4.824   8.092 -0.1299 -1.0820 -0.3448
  131OSM    C1114111   4.575   4.640   8.208 -0.8171 -0.4197 -0.1379
  131OSM   H11A14112   4.512   4.608   8.294 -1.5700 -0.6413 -0.7472
  131OSM   H11B14113   4.680   4.629   8.240  0.2918 -0.6322 -3.4688
  131OSM      P14114   4.671   4.539   7.994 -0.1242 -0.1356 -0.1946
  131OSM    O1314115   4.723   4.664   7.939  0.4083  0.0098 -0.0906
  131OSM    O1414116   4.766   4.460   8.081 -0.0089 -0.1849 -0.4716
  131OSM    O1114117   4.624   4.447   7.874  0.1069  0.0105 -0.2912
  131OSM    O1214118   4.551   4.561   8.090  0.6266 -0.6058  0.0255
  131OSM    C1S14119   4.492   4.431   7.825 -0.3845  0.0857  0.4305
  131OSM    H1S14120   4.439   4.528   7.816  2.5559  1.6953 -1.3060
  131OSM    H1T14121   4.436   4.370   7.899  1.3375 -0.0752  1.6602
  131OSM     NF14122   4.375   4.396   7.601 -0.0597  0.3152 -0.0848
  131OSM    HNF14123   4.318   4.314   7.598  1.3473 -0.7492  0.7590
  131OSM    C2S14124   4.499   4.372   7.677  0.3469  0.0236 -0.3284
  131OSM    H2S14125   4.577   4.428   7.620  1.6423 -2.2956 -0.9381
  131OSM    C3S14126   4.531   4.218   7.690 -0.0161  0.7407 -1.4808
  131OSM    H3S14127   4.442   4.177   7.742  0.2537  3.3756  1.3290
  131OSM     O314128   4.651   4.196   7.778  0.3658 -0.1233  0.4448
  131OSM    HO314129   4.668   4.280   7.822  0.2460  0.7480 -1.1273
  131OSM    C4S14130   4.559   4.141   7.562  0.0891  0.0013  0.0664
  131OSM    H4S14131   4.660   4.159   7.522  0.4960 -0.6573  0.7831
  131OSM    C5S14132   4.494   4.033   7.515 -0.6119 -0.4195 -0.6695
  131OSM    H5S14133   4.405   4.002   7.572 -0.6722  0.7620 -0.0916
  131OSM    C6S14134   4.536   3.958   7.392 -0.6749  0.3897 -0.2490
  131OSM    H6S14135   4.457   3.958   7.313  0.9714  1.2996 -1.9882
  131OSM    H6T14136   4.557   3.854   7.426  0.2627 -0.1565 -2.3308
  131OSM    C7S14137   4.674   3.988   7.342 -0.4043 -0.2253 -0.4624
  131OSM    H7S14138   4.753   3.974   7.420  3.2560  1.5437 -3.5024
  131OSM    H7T14139   4.670   4.097   7.318 -3.9457  0.1998  1.4148
  131OSM    C8S14140   4.713   3.900   7.217  0.7632 -0.2051  0.1640
  131OSM    H8S14141   4.692   3.794   7.240 -1.5066 -0.1564 -1.3014
  131OSM    H8T14142   4.819   3.904   7.184  0.2031  0.9714 -1.6887
  131OSM    C9S14143   4.627   3.928   7.085 -0.5333 -0.1774  0.1893
  131OSM    H9S14144   4.677   4.023   7.056  1.0191 -0.5697  1.4271
  131OSM    H9T14145   4.517   3.941   7.092 -0.9085 -0.1235 -3.6361
  131OSM   C10S14146   4.654   3.820   6.982  0.0428  0.2614 -0.2725
  131OSM   H10S14147   4.581   3.742   7.013  1.0602  0.7177  3.8873
  131OSM   H10T14148   4.762   3.793   6.985  0.0913  0.3428 -1.1037
  131OSM   C11S14149   4.623   3.878   6.840  0.3488  0.0213  0.1684
  131OSM   H11S14150   4.702   3.954   6.821  2.9633 -1.7016  3.2023
  131OSM   H11T14151   4.525   3.929   6.839 -0.1435 -0.8848  1.2939
  131OSM   C12S14152   4.623   3.767   6.738  0.3091 -1.0888  0.2204
  131OSM   H12S14153   4.541   3.697   6.764  0.3902 -1.6328 -0.9471
  131OSM   H12T14154   4.716   3.708   6.756  0.2941 -1.3946 -0.6751
  131OSM   C13S14155   4.624   3.821   6.597 -0.2069  0.2015 -0.6951
  131OSM   H13S14156   4.687   3.912   6.590  1.6610 -1.0645 -0.8940
  131OSM   H13T14157   4.525   3.847   6.553 -0.3503  0.5247 -0.1830
  131OSM   C14S14158   4.701   3.728   6.502 -0.4678  0.9470  0.2494
  131OSM   H14S14159   4.683   3.618   6.506  1.3183  0.6562  0.8812
  131OSM   H14T14160   4.806   3.745   6.533 -0.3807 -1.7241  1.7004
  131OSM   C15S14161   4.687   3.765   6.353 -0.3052  0.0261 -0.3398
  131OSM   H15S14162   4.770   3.722   6.293 -1.8382 -0.9088 -1.8704
  131OSM   H15T14163   4.697   3.875   6.338 -0.3805  0.1348  0.3532
  131OSM   C16S14164   4.553   3.722   6.298  0.3239 -0.2030 -0.1456
  131OSM   H16S14165   4.470   3.782   6.340  0.3224  1.3099 -2.1513
  131OSM   H16T14166   4.543   3.615   6.328 -0.6095  0.7782  3.6316
  131OSM   C17S14167   4.541   3.742   6.147 -0.5454  0.1916 -0.1835
  131OSM   H17S14168   4.463   3.669   6.116 -0.8403  0.5408 -0.2664
  131OSM   H17T14169   4.639   3.717   6.101 -0.3207  2.6013 -1.1543
  131OSM   C18S14170   4.493   3.876   6.102  0.2360 -0.7057  0.0647
  131OSM   H18S14171   4.487   3.881   5.991 -0.0517  0.6225  0.1250
  131OSM   H18T14172   4.569   3.946   6.144  0.0695  0.8513 -2.0179
  131OSM   H18U14173   4.397   3.910   6.145  0.1536 -0.2706 -0.4465
  131OSM    C1F14174   4.339   4.517   7.559  0.1962  0.5451  0.3438
  131OSM     OF14175   4.412   4.610   7.546 -0.1783  0.0867  0.2831
  131OSM    C2F14176   4.197   4.523   7.520  0.1468 -0.6612  0.6008
  131OSM    H2F14177   4.126   4.478   7.592  0.3648 -4.1019 -1.0967
  131OSM    H2G14178   4.189   4.457   7.431  2.6722 -2.1075  1.3669
  131OSM    C3F14179   4.150   4.668   7.480 -0.1226  0.3603  0.4268
  131OSM    H3F14180   4.221   4.740   7.433  0.4489 -0.4671  0.0103
  131OSM    H3G14181   4.112   4.718   7.571  1.4664  0.0736  1.2707
  131OSM    C4F14182   4.027   4.665   7.377 -0.3730  0.5109  0.0646
  131OSM    H4F14183   3.951   4.600   7.426  0.8104 -0.4268  0.7040
  131OSM    H4G14184   4.064   4.608   7.289 -1.1026 -0.3980  0.3220
  131OSM    C5F14185   3.969   4.807   7.350 -0.6929  0.1251  0.2424
  131OSM    H5F14186   4.035   4.860   7.278 -3.0729 -0.4623 -2.5483
  131OSM    H5G14187   3.968   4.860   7.448  0.6684 -0.7322  0.7437
  131OSM    C6F14188   3.832   4.807   7.278 -0.1116 -0.4324  0.2457
  131OSM    H6F14189   3.806   4.913   7.257  0.0673 -0.5553 -0.6202
  131OSM    H6G14190   3.752   4.774   7.347 -2.1098  1.3429 -1.0922
  131OSM    C7F14191   3.834   4.737   7.140 -0.5593 -0.3320  0.2348
  131OSM    H7F14192   3.877   4.635   7.153 -0.0129 -0.1042  0.2258
  131OSM    H7G14193   3.896   4.800   7.072  1.0869 -2.9605 -0.8700
  131OSM    C8F14194   3.696   4.731   7.070 -0.0084  0.3441  0.0967
  131OSM    H8F14195   3.643   4.652   7.126  0.7465 -1.2908 -1.3991
  131OSM    H8G14196   3.709   4.686   6.969  0.3826 -2.7547  1.4270
  131OSM    C9F14197   3.608   4.860   7.067 -0.0234  0.4222  0.1940
  131OSM    H9F14198   3.602   4.914   7.163 -0.3013 -0.3375  0.6178
  131OSM   C10F14199   3.530   4.909   6.961  0.2886  0.3964 -0.3222
  131OSM   H10F14200   3.462   4.993   6.981 -0.8478 -0.7505  0.8762
  131OSM   C11F14201   3.517   4.854   6.817 -0.3586 -0.5129 -0.0800
  131OSM   H11F14202   3.412   4.831   6.790 -1.1439 -0.5863  2.7069
  131OSM   H11G14203   3.581   4.763   6.812  1.8675  0.9525  0.2247
  131OSM   C12F14204   3.590   4.948   6.721  0.1733 -0.5873 -0.7706
  131OSM   H12F14205   3.693   4.959   6.761  0.3242 -3.5345 -0.1346
  131OSM   H12G14206   3.529   5.040   6.713  1.3351  0.1836 -1.1101
  131OSM   C13F14207   3.598   4.908   6.569  0.6957 -0.4061 -0.1831
  131OSM   H13F14208   3.494   4.881   6.539  0.4536  0.1817  0.1199
  131OSM   H13G14209   3.667   4.821   6.563  2.3311  0.7718  0.8444
  131OSM   C14F14210   3.639   5.033   6.481  0.4060 -0.1785 -0.1305
  131OSM   H14F14211   3.723   5.081   6.534  0.3445  0.4014 -0.5551
  131OSM   H14G14212   3.562   5.112   6.477 -0.3148 -0.7780  1.2529
  131OSM   C15F14213   3.670   4.991   6.340 -0.8630 -0.4795 -0.0531
  131OSM   H15F14214   3.760   4.925   6.335 -0.6284 -0.1024 -1.0003
  131OSM   H15G14215   3.686   5.074   6.268  1.2235 -0.7464  0.0277
  131OSM   C16F14216   3.552   4.916   6.275  0.5011  0.4013  0.0858
  131OSM   H16F14217   3.460   4.978   6.275 -0.2518 -0.2660 -4.7946
  131OSM   H16G14218   3.529   4.817   6.319  0.4144 -1.3947 -3.6200
  131OSM   C17F14219   3.586   4.879   6.131 -0.0842 -0.1746 -0.0600
  131OSM   H17F14220   3.676   4.815   6.143 -0.7971 -1.2516 -0.3492
  131OSM   H17G14221   3.614   4.973   6.078  1.1179 -0.0184  0.7912
  131OSM   C18F14222   3.485   4.790   6.067  0.1707 -0.5445 -0.3354
  131OSM   H18F14223   3.456   4.703   6.131 -0.0314  0.1117  0.4929
  131OSM   H18G14224   3.499   4.749   5.965 -1.5781 -1.3528 -0.3026
  131OSM   H18H14225   3.389   4.846   6.072  0.3407 -0.2665  4.1638
  132OSM      N14226   5.525   0.632   8.173 -0.4136  0.0287 -0.0392
  132OSM    C1514227   5.646   0.546   8.185  0.3919 -0.2807 -0.5336
  132OSM   H15A14228   5.644   0.479   8.270  1.2852 -1.4398 -1.4022
  132OSM   H15B14229   5.740   0.600   8.190  0.4378 -0.4535  1.5202
  132OSM   H15C14230   5.651   0.475   8.104  0.1282  0.3305 -1.0851
  132OSM    C1414231   5.418   0.540   8.204 -0.0701 -0.1271  0.5766
  132OSM   H14A14232   5.443   0.449   8.151  0.2225  0.2790  0.0069
  132OSM   H14B14233   5.318   0.574   8.180 -0.5008 -3.0927 -2.6360
  132OSM   H14C14234   5.413   0.512   8.308  3.8873  0.1876  1.0137
  132OSM    C1314235   5.519   0.741   8.282 -0.1191  0.4420  0.0220
  132OSM   H13A14236   5.572   0.709   8.370  0.0595  1.7971  0.4423
  132OSM   H13B14237   5.417   0.775   8.291 -0.9787 -1.5007 -1.7357
  132OSM   H13C14238   5.571   0.834   8.262 -1.0095  0.6659 -1.4152
  132OSM    C1214239   5.506   0.691   8.031 -0.6678  0.5110  0.6735
  132OSM   H12A14240   5.402   0.720   8.034 -0.9778 -0.5817  0.7036
  132OSM   H12B14241   5.514   0.612   7.959  0.6633  0.5213  0.7934
  132OSM    C1114242   5.604   0.807   7.984 -0.5221 -0.9760 -0.5679
  132OSM   H11A14243   5.577   0.904   8.032 -0.7479 -0.4323 -1.7527
  132OSM   H11B14244   5.582   0.823   7.877 -0.2082 -2.0822 -0.8038
  132OSM      P14245   5.845   0.743   7.894 -0.3015  0.3099  0.7724
  132OSM    O1314246   5.921   0.864   7.854  0.2978 -0.1410 -0.2635
  132OSM    O1414247   5.911   0.625   7.942  0.5156  0.4738  0.5705
  132OSM    O1114248   5.759   0.709   7.760  0.3715 -0.3434  0.1193
  132OSM    O1214249   5.740   0.774   8.004 -0.6038 -0.4808 -0.0607
  132OSM    C1S14250   5.819   0.613   7.679  0.0599 -0.9653  0.2996
  132OSM    H1S14251   5.791   0.512   7.715 -0.8396  0.0414  2.6018
  132OSM    H1T14252   5.929   0.625   7.670 -0.3040  2.0503 -1.7328
  132OSM     NF14253   5.828   0.514   7.462  0.1578  0.1271 -0.2758
  132OSM    HNF14254   5.925   0.522   7.439  0.4645 -1.4906  0.2710
  132OSM    C2S14255   5.768   0.630   7.534 -0.3388  0.1302  0.9323
  132OSM    H2S14256   5.657   0.628   7.542 -0.2118 -2.3255  3.4858
  132OSM    C3S14257   5.809   0.773   7.476  0.4018 -0.0812  0.2266
  132OSM    H3S14258   5.919   0.780   7.476  0.3803  0.5663  1.1788
  132OSM     O314259   5.763   0.879   7.558 -0.9097 -0.0546  0.1656
  132OSM    HO314260   5.717   0.842   7.634 -0.7783  3.3645  2.1089
  132OSM    C4S14261   5.759   0.777   7.335 -0.2769  0.4046 -0.1606
  132OSM    H4S14262   5.833   0.733   7.267  0.0700  0.0480  0.4364
  132OSM    C5S14263   5.649   0.832   7.287 -0.4836 -0.1749 -0.0266
  132OSM    H5S14264   5.591   0.897   7.354 -2.2273 -2.1315  0.4600
  132OSM    C6S14265   5.617   0.834   7.134  0.3186 -0.2335  0.0361
  132OSM    H6S14266   5.617   0.939   7.099  2.0845  0.1519  1.0769
  132OSM    H6T14267   5.519   0.787   7.109 -1.0172  1.7716  1.2520
  132OSM    C7S14268   5.719   0.782   7.031 -0.5683 -0.4190 -0.2175
  132OSM    H7S14269   5.759   0.680   7.050  0.3217 -0.5083 -2.3554
  132OSM    H7T14270   5.810   0.846   7.028 -0.9178  0.0838 -0.1605
  132OSM    C8S14271   5.661   0.798   6.886  0.4976  0.0277 -0.9405
  132OSM    H8S14272   5.617   0.899   6.888  0.3428 -0.0500  0.2239
  132OSM    H8T14273   5.573   0.734   6.867 -0.0869  0.7345 -0.6262
  132OSM    C9S14274   5.765   0.786   6.776 -0.2495  0.6373 -1.0182
  132OSM    H9S14275   5.802   0.682   6.772 -2.4279 -0.1664 -1.2730
  132OSM    H9T14276   5.853   0.847   6.806  2.3192 -4.0654  2.3489
  132OSM   C10S14277   5.709   0.815   6.642 -0.3960 -0.6259 -0.1176
  132OSM   H10S14278   5.684   0.924   6.645  1.1332 -0.2415 -0.4217
  132OSM   H10T14279   5.622   0.752   6.615 -0.3119 -0.4250 -0.8945
  132OSM   C11S14280   5.811   0.776   6.532  0.7367  0.6631  0.1827
  132OSM   H11S14281   5.825   0.666   6.523  0.5744  0.7541 -1.6346
  132OSM   H11T14282   5.912   0.815   6.553  0.7441  1.5705 -1.3825
  132OSM   C12S14283   5.793   0.827   6.387  0.3258 -0.4616  0.4840
  132OSM   H12S14284   5.702   0.778   6.346  0.4116 -1.6424  1.6421
  132OSM   H12T14285   5.882   0.800   6.325  0.6117  0.3480  0.5308
  132OSM   C13S14286   5.770   0.980   6.363  0.2899  0.8153  0.3424
  132OSM   H13S14287   5.855   1.039   6.404 -1.4232  3.3499  0.4381
  132OSM   H13T14288   5.677   0.998   6.420  0.2580 -0.4602  0.7252
  132OSM   C14S14289   5.744   1.007   6.215  0.1818  0.0176 -0.6444
  132OSM   H14S14290   5.653   0.949   6.188  0.4576 -0.4962 -0.4833
  132OSM   H14T14291   5.833   0.971   6.158  0.6703 -1.0834  0.7638
  132OSM   C15S14292   5.726   1.154   6.189  0.1914  0.6169  0.9553
  132OSM   H15S14293   5.804   1.211   6.244  0.2935  0.8678  0.5572
  132OSM   H15T14294   5.627   1.185   6.229  0.1559  1.4955  0.2182
  132OSM   C16S14295   5.730   1.196   6.044 -0.8319  0.2737  0.2852
  132OSM   H16S14296   5.645   1.147   5.992  0.8888 -0.7160 -1.7410
  132OSM   H16T14297   5.825   1.174   5.990 -2.4024 -2.5926 -1.5327
  132OSM   C17S14298   5.719   1.348   6.032  0.6540 -0.0687 -0.2533
  132OSM   H17S14299   5.790   1.395   6.104  0.1257  0.6994 -0.2235
  132OSM   H17T14300   5.615   1.381   6.050  0.9622  0.3364  0.8585
  132OSM   C18S14301   5.747   1.419   5.896  0.4937  0.3109 -0.6347
  132OSM   H18S14302   5.850   1.404   5.857  0.3796  1.8805 -1.6502
  132OSM   H18T14303   5.734   1.529   5.910  1.9866  0.3527  0.6475
  132OSM   H18U14304   5.677   1.387   5.815 -1.3490  0.8240  0.6881
  132OSM    C1F14305   5.777   0.395   7.476  0.1167  0.5639  0.1091
  132OSM     OF14306   5.675   0.383   7.543  0.4694 -0.3917 -0.1329
  132OSM    C2F14307   5.841   0.284   7.401 -0.1697 -0.1878  0.3209
  132OSM    H2F14308   5.916   0.234   7.466 -0.3305 -2.1747 -0.9387
  132OSM    H2G14309   5.905   0.331   7.323 -0.4645  0.4723  0.4641
  132OSM    C3F14310   5.753   0.181   7.334  0.3471  0.1389 -0.2076
  132OSM    H3F14311   5.687   0.234   7.261 -0.1947  0.0773  0.2328
  132OSM    H3G14312   5.694   0.128   7.411 -1.4675  0.5497 -1.2420
  132OSM    C4F14313   5.821   0.071   7.254 -0.3314 -0.6192  0.7701
  132OSM    H4F14314   5.747  -0.001   7.214 -1.9640  2.3051 -1.9080
  132OSM    H4G14315   5.890   0.031   7.332  1.0094  0.4969  0.2090
  132OSM    C5F14316   5.912   0.113   7.137 -0.4181  0.9994  0.4235
  132OSM    H5F14317   5.985   0.179   7.188  1.7258 -1.5533  0.9309
  132OSM    H5G14318   5.854   0.168   7.061 -1.1316 -2.1539 -1.5247
  132OSM    C6F14319   5.995   0.003   7.074 -0.0778 -0.0401  0.8839
  132OSM    H6F14320   5.992  -0.085   7.142 -1.1660  0.3134  1.3157
  132OSM    H6G14321   6.097   0.044   7.066 -0.3967  0.6250  0.0154
  132OSM    C7F14322   5.942  -0.052   6.937 -0.3172 -0.5068 -0.7712
  132OSM    H7F14323   5.930   0.031   6.863  0.5580 -0.4599 -0.8657
  132OSM    H7G14324   5.841  -0.096   6.948 -1.1799  1.3393 -0.9400
  132OSM    C8F14325   6.017  -0.161   6.867 -0.6958 -0.6762  0.1090
  132OSM    H8F14326   5.947  -0.201   6.791  1.2538 -2.5352 -0.8073
  132OSM    H8G14327   6.038  -0.246   6.935 -0.8187 -0.0251  0.9820
  132OSM    C9F14328   6.148  -0.111   6.815 -0.2200 -0.1773 -0.7352
  132OSM    H9F14329   6.192  -0.042   6.889 -2.0614  0.0720  0.1751
  132OSM   C10F14330   6.227  -0.141   6.707  0.3931  0.3560 -0.1925
  132OSM   H10F14331   6.322  -0.086   6.698  0.5549  0.6136  2.3981
  132OSM   C11F14332   6.180  -0.233   6.598  0.6068 -0.6273  0.1138
  132OSM   H11F14333   6.147  -0.330   6.640  0.0058 -0.5034 -0.0664
  132OSM   H11G14334   6.270  -0.258   6.538  0.7751  1.0199 -0.3811
  132OSM   C12F14335   6.073  -0.163   6.506  0.0700 -0.7604  0.0987
  132OSM   H12F14336   5.981  -0.144   6.565 -0.4076 -0.2421 -0.7705
  132OSM   H12G14337   6.046  -0.236   6.426  0.3214 -0.1486 -0.5606
  132OSM   C13F14338   6.109  -0.021   6.447  0.7887  0.6864  0.7796
  132OSM   H13F14339   6.172  -0.043   6.358 -1.9616  0.9198 -1.3919
  132OSM   H13G14340   6.181   0.037   6.508  0.0079  0.9281  1.4940
  132OSM   C14F14341   5.992   0.065   6.412  0.3934  0.3749  0.0686
  132OSM   H14F14342   6.033   0.162   6.378 -0.6464  0.1105 -2.1024
  132OSM   H14G14343   5.942   0.086   6.509  1.1016 -0.5454  0.6487
  132OSM   C15F14344   5.909   0.008   6.295 -0.5361  0.4644  0.1330
  132OSM   H15F14345   5.819   0.073   6.281 -0.2630  0.3136 -3.2165
  132OSM   H15G14346   5.878  -0.096   6.320 -1.0871  0.9596  1.6524
  132OSM   C16F14347   5.983   0.005   6.161 -0.1297  0.2803 -1.5380
  132OSM   H16F14348   6.072  -0.061   6.161 -0.1399  0.2383 -0.1466
  132OSM   H16G14349   6.022   0.106   6.134  0.6752  0.1880 -0.7478
  132OSM   C17F14350   5.886  -0.038   6.052 -0.0610  0.6456 -0.2663
  132OSM   H17F14351   5.823   0.050   6.029 -1.8266 -1.3233 -3.7965
  132OSM   H17G14352   5.835  -0.129   6.090  1.8405 -0.5603 -0.4652
  132OSM   C18F14353   5.963  -0.067   5.924 -0.5052  0.2351 -0.2317
  132OSM   H18F14354   6.023  -0.160   5.931 -0.6042  0.0918 -1.2082
  132OSM   H18G14355   6.042   0.011   5.911 -1.4895  1.3310  0.2042
  132OSM   H18H14356   5.900  -0.074   5.833 -0.7946  0.3250 -0.0373
  133OSM      N14357   4.787   1.425   8.023  0.4292  0.1259  0.1821
  133OSM    C1514358   4.712   1.536   8.071 -0.1978 -0.0915 -0.0980
  133OSM   H15A14359   4.763   1.630   8.057  0.9201 -0.3884  1.6342
  133OSM   H15B14360   4.688   1.539   8.177 -0.5571  1.3365 -0.2061
  133OSM   H15C14361   4.622   1.544   8.012  0.6233 -2.0584 -1.7459
  133OSM    C1414362   4.692   1.310   8.008  0.0299  0.6364  0.0975
  133OSM   H14A14363   4.655   1.300   7.907  0.3093 -0.6911  0.1061
  133OSM   H14B14364   4.606   1.308   8.074 -3.3102  1.6642 -3.8236
  133OSM   H14C14365   4.746   1.217   8.023  1.3627  0.9041 -2.5149
  133OSM    C1314366   4.853   1.459   7.891  0.2541  0.0151 -0.6398
  133OSM   H13A14367   4.782   1.493   7.816  1.5724  3.5732 -0.4508
  133OSM   H13B14368   4.906   1.372   7.855  1.8416  1.0845 -0.9747
  133OSM   H13C14369   4.912   1.548   7.902  0.1411  0.0863 -0.5992
  133OSM    C1214370   4.900   1.393   8.127 -0.0537  0.0083  0.5295
  133OSM   H12A14371   4.850   1.375   8.221  0.5230  0.3342  0.9080
  133OSM   H12B14372   4.949   1.489   8.136  1.0560 -0.6470  1.9060
  133OSM    C1114373   4.994   1.274   8.091  0.3410 -0.6944 -0.3498
  133OSM   H11A14374   4.929   1.189   8.120  1.1880 -0.8706  1.1283
  133OSM   H11B14375   5.082   1.290   8.157 -0.1812 -2.2908  0.7956
  133OSM      P14376   5.061   1.118   7.896  0.4430  0.2142 -0.2317
  133OSM    O1314377   5.182   1.061   7.952 -0.1559 -1.1601 -0.1151
  133OSM    O1414378   4.939   1.031   7.904 -0.3904  0.1012  0.3563
  133OSM    O1114379   5.090   1.142   7.749  0.1712 -0.1092  0.1097
  133OSM    O1214380   5.030   1.262   7.952 -0.6508  0.3239  0.2260
  133OSM    C1S14381   5.153   1.250   7.685  0.2907 -0.1441  0.2325
  133OSM    H1S14382   5.263   1.242   7.702  0.3122  0.2117  0.2647
  133OSM    H1T14383   5.112   1.337   7.740  0.8123  0.2542 -0.0072
  133OSM     NF14384   5.233   1.334   7.454  0.1150  0.9226  0.1506
  133OSM    HNF14385   5.209   1.418   7.406  1.4272 -0.5801 -3.5476
  133OSM    C2S14386   5.126   1.264   7.525 -0.1268 -0.0736 -0.4540
  133OSM    H2S14387   5.142   1.163   7.481 -0.6759 -0.6771  0.6800
  133OSM    C3S14388   4.983   1.308   7.494  0.5460  0.5531 -0.3561
  133OSM    H3S14389   4.974   1.418   7.503 -0.5594  0.4776 -0.3578
  133OSM     O314390   4.892   1.248   7.589  0.2555 -0.0689 -0.2122
  133OSM    HO314391   4.950   1.211   7.656 -0.0699  1.1868  0.7994
  133OSM    C4S14392   4.946   1.288   7.349  0.7779  0.4114 -0.1853
  133OSM    H4S14393   5.000   1.358   7.283  1.5381 -0.2570 -0.2917
  133OSM    C5S14394   4.873   1.184   7.298  0.2930 -0.0944 -0.8250
  133OSM    H5S14395   4.815   1.119   7.366 -1.2772  3.8090  1.9457
  133OSM    C6S14396   4.840   1.164   7.153 -0.0529 -0.1791  0.3034
  133OSM    H6S14397   4.786   1.067   7.144  0.5292 -0.4471 -0.3595
  133OSM    H6T14398   4.934   1.160   7.095 -0.3074 -1.8260 -0.0383
  133OSM    C7S14399   4.745   1.269   7.079  0.3406 -0.0694  0.2675
  133OSM    H7S14400   4.800   1.365   7.067 -1.4828  0.8943 -0.7479
  133OSM    H7T14401   4.656   1.302   7.137  0.3634  2.4376 -0.9874
  133OSM    C8S14402   4.699   1.226   6.933 -0.2416  0.0047 -0.2520
  133OSM    H8S14403   4.673   1.118   6.940 -0.8629  0.2457  1.8438
  133OSM    H8T14404   4.792   1.242   6.875 -1.6147  0.4677 -2.4667
  133OSM    C9S14405   4.592   1.312   6.878  0.0044 -0.1270  0.5220
  133OSM    H9S14406   4.629   1.413   6.849  0.8980 -0.5929  0.0249
  133OSM    H9T14407   4.508   1.319   6.951 -0.8367 -2.0313 -0.1910
  133OSM   C10S14408   4.542   1.255   6.745  0.0112 -0.3569 -0.1581
  133OSM   H10S14409   4.445   1.297   6.711 -0.1933 -0.5377  0.1982
  133OSM   H10T14410   4.533   1.144   6.749  0.5595 -0.5010 -1.9355
  133OSM   C11S14411   4.641   1.282   6.629  1.3625 -1.1097  0.2515
  133OSM   H11S14412   4.742   1.247   6.659  0.3482 -2.7747  1.9604
  133OSM   H11T14413   4.639   1.393   6.631  1.0792 -1.1171  0.4928
  133OSM   C12S14414   4.617   1.227   6.488  0.0804 -0.0365  0.8635
  133OSM   H12S14415   4.516   1.251   6.448 -0.0338  2.4809  2.4582
  133OSM   H12T14416   4.611   1.117   6.502  1.0343 -0.6102 -2.4279
  133OSM   C13S14417   4.733   1.245   6.397 -0.2378  0.5879  0.1894
  133OSM   H13S14418   4.731   1.173   6.313  2.2835  0.2597  0.3460
  133OSM   H13T14419   4.829   1.218   6.446 -0.4856  1.5697  1.2674
  133OSM   C14S14420   4.744   1.382   6.337  0.4282 -1.0862  0.4391
  133OSM   H14S14421   4.763   1.460   6.413 -0.0611 -0.0285 -0.4991
  133OSM   H14T14422   4.650   1.413   6.287  2.3260  1.2564 -2.0078
  133OSM   C15S14423   4.864   1.395   6.237  0.1868 -0.3031 -0.1502
  133OSM   H15S14424   4.953   1.353   6.287  2.0748  0.2354 -2.8437
  133OSM   H15T14425   4.891   1.501   6.220 -0.5613  0.2657  1.9499
  133OSM   C16S14426   4.826   1.329   6.111  0.1530  0.2417 -0.0573
  133OSM   H16S14427   4.736   1.376   6.066 -0.7964 -1.5168 -0.0971
  133OSM   H16T14428   4.808   1.220   6.118  2.1041 -0.5023 -3.9784
  133OSM   C17S14429   4.945   1.337   6.020  0.2624  0.3157 -0.0505
  133OSM   H17S14430   5.032   1.310   6.085  0.6969  0.2323 -0.6578
  133OSM   H17T14431   4.957   1.444   5.992  2.1456  0.8237  2.2946
  133OSM   C18S14432   4.948   1.244   5.900 -0.3413 -0.4810  0.4890
  133OSM   H18S14433   5.033   1.261   5.831  0.0613 -3.9335 -0.0304
  133OSM   H18T14434   4.860   1.258   5.833 -0.2436 -0.0024  0.4582
  133OSM   H18U14435   4.960   1.139   5.934  0.4806 -0.0335  1.6828
  133OSM    C1F14436   5.365   1.293   7.451 -0.3318  0.4517 -0.1438
  133OSM     OF14437   5.405   1.199   7.520 -0.1976 -0.4497 -0.1647
  133OSM    C2F14438   5.473   1.363   7.372  0.1191  0.7156 -0.5968
  133OSM    H2F14439   5.570   1.374   7.424  0.8822 -0.7522 -1.6376
  133OSM    H2G14440   5.435   1.464   7.345 -1.0330  0.3679 -0.3191
  133OSM    C3F14441   5.492   1.270   7.249  0.1460 -0.1240 -0.4238
  133OSM    H3F14442   5.501   1.166   7.286  2.3478  1.0501  2.9218
  133OSM    H3G14443   5.592   1.291   7.205  0.3610 -2.5909 -1.2550
  133OSM    C4F14444   5.386   1.288   7.133 -0.2971  0.5428  0.2362
  133OSM    H4F14445   5.282   1.263   7.162  0.1496 -0.6525  0.9125
  133OSM    H4G14446   5.413   1.220   7.050  0.1303  0.0166  0.7928
  133OSM    C5F14447   5.391   1.428   7.073  0.2213  0.4294  0.4992
  133OSM    H5F14448   5.486   1.441   7.016 -0.7345  0.0479 -1.2458
  133OSM    H5G14449   5.373   1.503   7.153 -1.9102 -1.9999  2.4950
  133OSM    C6F14450   5.289   1.450   6.956 -0.1110 -0.2379  0.1602
  133OSM    H6F14451   5.299   1.377   6.873  2.7456  0.2933 -0.0751
  133OSM    H6G14452   5.307   1.552   6.915 -1.3499 -0.4415 -0.9765
  133OSM    C7F14453   5.144   1.441   7.009 -0.7899 -0.0274 -0.0750
  133OSM    H7F14454   5.128   1.520   7.086  2.6385 -1.3897  2.2636
  133OSM    H7G14455   5.129   1.345   7.062  2.5320 -2.3826 -2.9425
  133OSM    C8F14456   5.052   1.448   6.884 -0.5331  0.6673 -0.1323
  133OSM    H8F14457   4.951   1.431   6.927  0.5181 -0.4151  2.0688
  133OSM    H8G14458   5.056   1.356   6.822 -0.4948  1.1838 -0.8993
  133OSM    C9F14459   5.064   1.582   6.822 -0.4208 -0.6004 -0.8441
  133OSM    H9F14460   5.075   1.664   6.895 -0.6048 -1.2099 -0.1281
  133OSM   C10F14461   5.078   1.606   6.692 -0.4375  0.7158  0.9845
  133OSM   H10F14462   5.083   1.710   6.656 -0.4619  0.1074 -0.9095
  133OSM   C11F14463   5.082   1.510   6.568 -0.0602 -0.9051 -0.6188
  133OSM   H11F14464   4.975   1.489   6.546 -0.4251 -2.1033  1.9094
  133OSM   H11G14465   5.133   1.418   6.604  1.5079  0.5823  1.1407
  133OSM   C12F14466   5.152   1.566   6.442  0.5758  0.4878  0.1846
  133OSM   H12F14467   5.109   1.666   6.421 -1.6491  0.0129  2.1227
  133OSM   H12G14468   5.131   1.496   6.358  1.5773  0.3525  0.0295
  133OSM   C13F14469   5.299   1.578   6.463 -0.8066  0.1996 -0.0373
  133OSM   H13F14470   5.338   1.500   6.532  1.1171  2.9587  2.2172
  133OSM   H13G14471   5.313   1.677   6.511  2.0154 -0.3772  0.4695
  133OSM   C14F14472   5.388   1.567   6.336  0.2443  0.4052 -0.3073
  133OSM   H14F14473   5.334   1.489   6.278  0.7059 -0.5149  0.4748
  133OSM   H14G14474   5.489   1.527   6.357 -0.8257 -1.7418  1.1810
  133OSM   C15F14475   5.382   1.695   6.247 -0.5114 -0.0507 -0.5422
  133OSM   H15F14476   5.425   1.781   6.302 -0.6262 -0.0267 -0.4909
  133OSM   H15G14477   5.273   1.716   6.244 -0.7652 -0.6732  2.1929
  133OSM   C16F14478   5.463   1.684   6.119  0.5191 -0.3567  0.1671
  133OSM   H16F14479   5.438   1.586   6.073  0.2556  0.1382 -0.7728
  133OSM   H16G14480   5.572   1.683   6.143  0.9611 -0.0130 -1.6974
  133OSM   C17F14481   5.442   1.787   6.009 -0.7932 -0.6948  0.2776
  133OSM   H17F14482   5.459   1.884   6.058 -0.4949  0.0752 -1.2770
  133OSM   H17G14483   5.342   1.772   5.963  0.0309 -1.8819 -1.2530
  133OSM   C18F14484   5.534   1.779   5.889  0.5835 -0.2223 -0.3194
  133OSM   H18F14485   5.532   1.866   5.820  2.8606 -1.4165 -2.0413
  133OSM   H18G14486   5.508   1.691   5.827  0.4360 -0.4241  0.0286
  133OSM   H18H14487   5.639   1.784   5.926  0.5680  1.5031 -0.4183
  134OSM      N14488   3.510   5.727   7.917 -0.3031 -0.3329 -0.1379
  134OSM    C1514489   3.540   5.816   7.799  0.7047 -0.4235 -0.0709
  134OSM   H15A14490   3.643   5.847   7.794  0.3550  0.6486 -0.9703
  134OSM   H15B14491   3.480   5.906   7.802  1.5331  0.1303  0.4117
  134OSM   H15C14492   3.522   5.764   7.706  1.7764 -1.9580  0.5499
  134OSM    C1414493   3.372   5.667   7.907 -0.7472  0.2947 -0.0517
  134OSM   H14A14494   3.337   5.627   8.001  0.4734 -0.3659  0.1499
  134OSM   H14B14495   3.366   5.585   7.836 -5.3492  0.4479 -0.1029
  134OSM   H14C14496   3.295   5.740   7.887 -2.3685 -0.7746  1.9024
  134OSM    C1314497   3.611   5.615   7.914 -0.0733 -0.6535 -0.3251
  134OSM   H13A14498   3.590   5.545   7.835  1.5445  0.3846 -1.7444
  134OSM   H13B14499   3.621   5.564   8.009 -0.1693 -0.8963 -0.4449
  134OSM   H13C14500   3.712   5.651   7.900 -0.5144 -0.1072 -2.4444
  134OSM    C1214501   3.516   5.802   8.051 -0.6754  0.1727  0.4266
  134OSM   H12A14502   3.618   5.834   8.066 -0.6369  0.4529 -0.3868
  134OSM   H12B14503   3.489   5.742   8.137 -3.2730  0.6041  0.0030
  134OSM    C1114504   3.447   5.943   8.066 -0.1770 -0.4390 -0.3640
  134OSM   H11A14505   3.462   5.966   8.173 -1.7113 -1.9211  0.2237
  134OSM   H11B14506   3.338   5.919   8.055 -0.4302  0.4573  0.1468
  134OSM      P14507   3.393   6.164   7.938 -0.0168 -0.3754  0.2003
  134OSM    O1314508   3.266   6.110   7.891 -0.2413 -0.6892  0.0135
  134OSM    O1414509   3.385   6.261   8.049  0.0159  0.7462  0.1486
  134OSM    O1114510   3.461   6.230   7.808  0.1538 -0.2262 -0.3772
  134OSM    O1214511   3.494   6.048   7.986  0.1280 -0.2761 -0.1078
  134OSM    C1S14512   3.606   6.219   7.784  0.0627 -0.3532 -0.2691
  134OSM    H1S14513   3.637   6.114   7.766  3.0374  0.3706  0.0904
  134OSM    H1T14514   3.662   6.241   7.877 -0.2003 -2.0634  0.3296
  134OSM     NF14515   3.781   6.293   7.610  0.5220  0.5802  0.6156
  134OSM    HNF14516   3.848   6.367   7.616  1.4677 -0.2694  0.8041
  134OSM    C2S14517   3.643   6.311   7.665 -0.0590 -0.0873  0.1822
  134OSM    H2S14518   3.578   6.276   7.582 -1.2288  0.6726  0.7633
  134OSM    C3S14519   3.596   6.465   7.684  1.2324 -0.4281 -0.6449
  134OSM    H3S14520   3.668   6.525   7.745 -0.3733 -0.9079  1.8707
  134OSM     O314521   3.476   6.486   7.762  0.5366 -0.6916 -0.2734
  134OSM    HO314522   3.461   6.406   7.812 -1.4823 -0.3258 -0.2207
  134OSM    C4S14523   3.576   6.528   7.548  0.1312 -0.2001  0.3085
  134OSM    H4S14524   3.648   6.600   7.506 -1.8245  0.7564 -1.6403
  134OSM    C5S14525   3.464   6.510   7.472  0.0452  0.4439 -0.2976
  134OSM    H5S14526   3.388   6.445   7.518  0.9992  1.6247  3.2783
  134OSM    C6S14527   3.439   6.584   7.342  0.4526 -0.3304 -1.3268
  134OSM    H6S14528   3.515   6.664   7.328 -0.5839  0.9844  0.1488
  134OSM    H6T14529   3.351   6.647   7.366  0.6820 -0.3355 -0.4443
  134OSM    C7S14530   3.434   6.501   7.215  0.5596  0.3119  0.5432
  134OSM    H7S14531   3.365   6.415   7.234  2.1236 -0.3989  3.7217
  134OSM    H7T14532   3.538   6.478   7.184  0.4428 -1.1632  1.1532
  134OSM    C8S14533   3.370   6.590   7.108  0.1515  0.0765  0.0735
  134OSM    H8S14534   3.433   6.677   7.077 -0.1778  0.6205  0.9067
  134OSM    H8T14535   3.281   6.637   7.156 -0.8811 -1.4074 -0.3310
  134OSM    C9S14536   3.326   6.511   6.986 -0.2968  0.0369  0.0903
  134OSM    H9S14537   3.233   6.565   6.957  0.7422  2.3100  0.7362
  134OSM    H9T14538   3.300   6.408   7.017 -1.5777  0.0987 -0.7093
  134OSM   C10S14539   3.432   6.518   6.874 -0.5663  0.4070  0.1702
  134OSM   H10S14540   3.521   6.459   6.904  1.7539  2.6386 -1.9684
  134OSM   H10T14541   3.479   6.618   6.879 -0.8437  0.5406  5.2313
  134OSM   C11S14542   3.367   6.490   6.741  0.2598  0.0080 -0.0147
  134OSM   H11S14543   3.274   6.549   6.727 -0.6662 -1.7140 -1.6520
  134OSM   H11T14544   3.344   6.381   6.741 -2.8112  0.5579  0.7034
  134OSM   C12S14545   3.476   6.523   6.631  0.0966  0.1048  0.0146
  134OSM   H12S14546   3.560   6.452   6.647 -0.6897 -1.0612 -0.9307
  134OSM   H12T14547   3.503   6.631   6.630  0.8473 -0.0758  0.1278
  134OSM   C13S14548   3.427   6.503   6.492  0.4323  0.2823  0.5349
  134OSM   H13S14549   3.325   6.546   6.483  0.0840 -0.4835  0.7133
  134OSM   H13T14550   3.423   6.394   6.468 -0.1753  0.5178 -0.4428
  134OSM   C14S14551   3.522   6.552   6.387 -0.0119  0.4199  0.6216
  134OSM   H14S14552   3.614   6.495   6.413 -0.2847 -1.3429 -1.9644
  134OSM   H14T14553   3.537   6.662   6.400  0.2753  0.2995  1.3865
  134OSM   C15S14554   3.470   6.509   6.247  0.6930  0.3437 -0.6750
  134OSM   H15S14555   3.383   6.572   6.218 -1.7297 -1.3844  2.2786
  134OSM   H15T14556   3.421   6.409   6.245 -2.3854  1.7277 -0.2155
  134OSM   C16S14557   3.583   6.501   6.140  0.8536  0.4292 -0.1120
  134OSM   H16S14558   3.635   6.403   6.152 -0.5331 -0.1564  1.4133
  134OSM   H16T14559   3.657   6.584   6.139 -0.2281  1.4289  0.7758
  134OSM   C17S14560   3.527   6.501   5.994 -0.1374 -0.6537  0.0064
  134OSM   H17S14561   3.453   6.421   5.975 -0.2045 -0.5850 -0.0228
  134OSM   H17T14562   3.612   6.487   5.924  0.2508  4.0008 -0.7834
  134OSM   C18S14563   3.485   6.639   5.934  0.6770 -0.1507  0.1136
  134OSM   H18S14564   3.416   6.686   6.008 -0.4567 -0.8300 -0.4878
  134OSM   H18T14565   3.427   6.628   5.840 -0.1814 -2.7665  0.8771
  134OSM   H18U14566   3.577   6.700   5.921  0.0766  0.5663 -0.8995
  134OSM    C1F14567   3.833   6.173   7.582 -0.2148 -0.8380  0.4420
  134OSM     OF14568   3.764   6.073   7.569 -0.2770 -0.5972 -0.2141
  134OSM    C2F14569   3.982   6.169   7.556  0.4381  0.5933  0.6117
  134OSM    H2F14570   4.030   6.115   7.640  0.0005 -0.8893 -0.0498
  134OSM    H2G14571   4.008   6.275   7.537 -2.0336  1.8673  3.5108
  134OSM    C3F14572   4.019   6.077   7.429 -0.0854  0.0524  0.5804
  134OSM    H3F14573   3.967   5.979   7.434  0.6453 -0.3658  0.1884
  134OSM    H3G14574   4.128   6.056   7.425 -0.0112  0.2964  1.2027
  134OSM    C4F14575   3.980   6.144   7.292 -0.6708 -0.8942  0.2145
  134OSM    H4F14576   3.879   6.188   7.298  0.5042  1.7222  2.9390
  134OSM    H4G14577   3.984   6.067   7.211 -0.2709  0.3905 -1.0207
  134OSM    C5F14578   4.057   6.270   7.252  0.1126 -0.3582 -0.1799
  134OSM    H5F14579   4.163   6.235   7.259 -0.1622 -1.3080 -0.6236
  134OSM    H5G14580   4.043   6.358   7.319  0.8793 -1.6343  1.7582
  134OSM    C6F14581   4.037   6.318   7.107  0.3360 -0.3876  0.3308
  134OSM    H6F14582   4.074   6.422   7.093 -0.8810  0.2574  1.6715
  134OSM    H6G14583   3.926   6.332   7.101  0.2192 -0.0566  2.4430
  134OSM    C7F14584   4.090   6.221   7.003 -1.2708 -0.1782 -0.4255
  134OSM    H7F14585   4.051   6.119   7.023 -1.0692  0.1706  1.9534
  134OSM    H7G14586   4.201   6.220   7.003 -1.2649 -1.3475  0.6993
  134OSM    C8F14587   4.037   6.253   6.858  0.3697  0.3866 -0.1413
  134OSM    H8F14588   3.937   6.293   6.888  1.0589  1.4764  0.8401
  134OSM    H8G14589   4.027   6.166   6.791  1.9329  0.4878 -0.5254
  134OSM    C9F14590   4.113   6.358   6.779 -0.3147 -0.0495 -0.3185
  134OSM    H9F14591   4.117   6.460   6.820  1.7665  0.4402 -1.5790
  134OSM   C10F14592   4.172   6.346   6.657 -1.3963 -0.0853 -0.3766
  134OSM   H10F14593   4.225   6.433   6.617  0.4764 -0.5772  0.8622
  134OSM   C11F14594   4.184   6.230   6.568  0.2474  0.0513  0.4038
  134OSM   H11F14595   4.116   6.146   6.594 -0.3155  0.7822  1.3808
  134OSM   H11G14596   4.287   6.187   6.568 -0.4829 -1.7897  0.7394
  134OSM   C12F14597   4.170   6.265   6.420  0.1204 -0.2742  0.5698
  134OSM   H12F14598   4.232   6.344   6.373 -1.5188  0.9069  0.2980
  134OSM   H12G14599   4.075   6.321   6.407  0.0347 -0.2114  1.3813
  134OSM   C13F14600   4.165   6.141   6.325  0.3695 -0.1508 -0.6354
  134OSM   H13F14601   4.067   6.092   6.345  0.2454  0.3420  0.0063
  134OSM   H13G14602   4.246   6.075   6.364 -0.0331 -0.9091 -1.0524
  134OSM   C14F14603   4.198   6.169   6.177  0.2904 -0.3295  0.2196
  134OSM   H14F14604   4.203   6.074   6.120  0.3268 -0.4698  0.4511
  134OSM   H14G14605   4.303   6.205   6.171  0.2067  0.1073  1.1252
  134OSM   C15F14606   4.087   6.254   6.115 -0.6638  0.5374 -0.4918
  134OSM   H15F14607   4.062   6.337   6.184 -0.6137  1.6193 -1.7270
  134OSM   H15G14608   3.995   6.195   6.096  0.1926 -1.2155  0.6063
  134OSM   C16F14609   4.114   6.312   5.976  0.6438  0.0255 -0.8356
  134OSM   H16F14610   4.129   6.223   5.911  1.2321 -0.9320  0.5836
  134OSM   H16G14611   4.211   6.367   5.980  0.0498  1.0381  2.5329
  134OSM   C17F14612   3.987   6.402   5.933 -0.6100  0.4166  0.1350
  134OSM   H17F14613   3.947   6.443   6.029  0.2419  0.6338  0.4079
  134OSM   H17G14614   3.924   6.318   5.897  0.3466 -0.7263  1.0378
  134OSM   C18F14615   4.017   6.490   5.815  0.5572 -0.1768  0.3247
  134OSM   H18F14616   3.927   6.524   5.760  2.2957  0.2628 -2.4230
  134OSM   H18G14617   4.088   6.444   5.743 -1.8949 -0.2385 -2.2004
  134OSM   H18H14618   4.053   6.588   5.852 -0.6317 -0.2081  1.6738
  135OSM      N14619   2.060   5.671   8.083 -0.1204 -0.3115  0.5498
  135OSM    C1514620   2.085   5.782   8.187  0.8752  0.1619 -0.7569
  135OSM   H15A14621   2.173   5.762   8.246  0.1329 -0.8396  0.0416
  135OSM   H15B14622   2.004   5.785   8.259 -0.1402  2.4145 -1.8812
  135OSM   H15C14623   2.085   5.879   8.138 -0.3496  0.4102 -0.3153
  135OSM    C1414624   2.189   5.664   8.000 -0.0922 -0.3655 -0.1650
  135OSM   H14A14625   2.276   5.698   8.054  0.3829  0.0683 -1.1704
  135OSM   H14B14626   2.165   5.726   7.914 -1.9285 -0.5553  0.1554
  135OSM   H14C14627   2.202   5.566   7.956 -0.4330  0.1088 -1.3771
  135OSM    C1314628   2.044   5.540   8.149  0.0245  0.1312 -0.1263
  135OSM   H13A14629   1.990   5.468   8.089 -0.6939  0.6158 -0.0693
  135OSM   H13B14630   1.985   5.557   8.237 -2.4182  3.0013 -2.1057
  135OSM   H13C14631   2.143   5.506   8.176 -0.2482 -0.1816  0.4789
  135OSM    C1214632   1.939   5.706   8.008 -0.1601 -0.8339  0.2350
  135OSM   H12A14633   1.946   5.808   7.973 -1.3292 -0.6242  0.5479
  135OSM   H12B14634   1.853   5.711   8.074 -0.7200  0.7041 -0.5531
  135OSM    C1114635   1.908   5.609   7.889  0.1144 -0.6391  0.7762
  135OSM   H11A14636   1.804   5.636   7.861  0.1199  0.8264  2.0330
  135OSM   H11B14637   1.901   5.503   7.923  0.2153 -1.2507 -0.9982
  135OSM      P14638   2.040   5.521   7.679 -0.5680  0.1232 -0.0798
  135OSM    O1314639   2.123   5.592   7.581  0.0832  0.4929  0.1756
  135OSM    O1414640   2.103   5.411   7.754 -0.0728  0.0935  0.3174
  135OSM    O1114641   1.913   5.469   7.603  1.1658  0.3664 -0.2547
  135OSM    O1214642   1.986   5.630   7.773 -0.0146  0.0085  0.1653
  135OSM    C1S14643   1.830   5.560   7.538 -0.3699  0.4038  0.0013
  135OSM    H1S14644   1.832   5.665   7.574 -3.7411  1.1855 -1.6453
  135OSM    H1T14645   1.724   5.533   7.559  0.2257 -2.0989  0.0889
  135OSM     NF14646   1.790   5.670   7.316 -0.4935  0.1882  0.0429
  135OSM    HNF14647   1.696   5.694   7.294 -1.1112  0.9553  3.0301
  135OSM    C2S14648   1.830   5.548   7.382 -0.3399  0.2016  0.2207
  135OSM    H2S14649   1.931   5.514   7.350 -0.5195 -0.9428  0.8098
  135OSM    C3S14650   1.736   5.423   7.345 -0.4371 -0.7841 -0.2273
  135OSM    H3S14651   1.634   5.436   7.387  0.5586 -2.3757  2.9210
  135OSM     O314652   1.790   5.304   7.404  1.3400  0.9240 -0.2632
  135OSM    HO314653   1.838   5.318   7.485  1.5647 -2.9887  0.4604
  135OSM    C4S14654   1.715   5.398   7.198 -0.3080 -0.3001 -0.4330
  135OSM    H4S14655   1.785   5.325   7.156  0.7817  1.2409 -1.4072
  135OSM    C5S14656   1.611   5.448   7.125 -0.0314 -0.1869  0.3301
  135OSM    H5S14657   1.537   5.514   7.172 -0.6796 -0.0722 -0.8258
  135OSM    C6S14658   1.592   5.411   6.983  0.3268 -0.1501  0.4650
  135OSM    H6S14659   1.489   5.373   6.970 -0.1014  1.3241 -0.7068
  135OSM    H6T14660   1.665   5.331   6.958  1.5920  1.2550 -0.5488
  135OSM    C7S14661   1.619   5.530   6.891  0.3400 -0.1752  0.5184
  135OSM    H7S14662   1.697   5.596   6.935  1.1536 -1.2694  0.7818
  135OSM    H7T14663   1.524   5.587   6.900 -0.6485 -1.5735 -0.6167
  135OSM    C8S14664   1.652   5.490   6.743  0.2958 -0.2216 -0.4468
  135OSM    H8S14665   1.571   5.443   6.683  0.9989  0.7000 -2.2017
  135OSM    H8T14666   1.735   5.416   6.747 -0.8295 -1.5263 -0.1738
  135OSM    C9S14667   1.689   5.615   6.663  0.5365  0.1038  0.1940
  135OSM    H9S14668   1.795   5.639   6.687  1.1873  0.1916 -2.4587
  135OSM    H9T14669   1.613   5.693   6.686 -1.1094 -0.7466 -1.9202
  135OSM   C10S14670   1.684   5.581   6.509  0.3812  0.3859 -0.0194
  135OSM   H10S14671   1.696   5.680   6.459 -0.6484  0.8398  0.5821
  135OSM   H10T14672   1.583   5.538   6.489  0.2793  0.4310  0.3706
  135OSM   C11S14673   1.786   5.477   6.460 -0.9219 -0.0119 -0.6033
  135OSM   H11S14674   1.784   5.386   6.522 -0.5562 -1.2243 -2.2995
  135OSM   H11T14675   1.883   5.531   6.469 -1.6136  1.3427 -0.9354
  135OSM   C12S14676   1.760   5.428   6.309 -0.3600 -0.5019  0.4767
  135OSM   H12S14677   1.665   5.370   6.305 -0.0127 -1.0312 -1.6466
  135OSM   H12T14678   1.853   5.378   6.275  0.0980  0.7769 -0.2499
  135OSM   C13S14679   1.748   5.544   6.211 -0.0490 -0.2591 -0.0713
  135OSM   H13S14680   1.841   5.604   6.217  0.7774 -1.4472 -0.4805
  135OSM   H13T14681   1.662   5.609   6.239 -0.5670  0.2009 -2.5353
  135OSM   C14S14682   1.734   5.508   6.058  0.3341  0.0267 -0.7590
  135OSM   H14S14683   1.639   5.450   6.048 -2.0337  2.9337  2.4327
  135OSM   H14T14684   1.817   5.448   6.015 -0.3788  1.0966 -3.9431
  135OSM   C15S14685   1.721   5.632   5.967  0.6668 -0.0003  0.5257
  135OSM   H15S14686   1.823   5.673   5.951  0.3226  0.2293 -1.3804
  135OSM   H15T14687   1.651   5.702   6.019 -0.4066 -1.3395  0.9472
  135OSM   C16S14688   1.663   5.589   5.830 -0.4267 -0.7779  0.2746
  135OSM   H16S14689   1.570   5.535   5.856 -0.3101 -1.1333 -0.0330
  135OSM   H16T14690   1.725   5.506   5.789 -1.5676 -0.5316 -2.1129
  135OSM   C17S14691   1.641   5.702   5.728 -0.4090 -0.0601 -0.3740
  135OSM   H17S14692   1.613   5.796   5.779  1.5998  1.4995 -1.9690
  135OSM   H17T14693   1.568   5.666   5.652 -0.0812  0.1426 -0.7889
  135OSM   C18S14694   1.766   5.732   5.637 -0.5152 -0.3592  0.3258
  135OSM   H18S14695   1.762   5.691   5.534 -1.1816  0.9838 -0.2113
  135OSM   H18T14696   1.858   5.694   5.686 -0.0148  1.0505  0.5219
  135OSM   H18U14697   1.783   5.841   5.622  4.6571 -0.8104  1.2369
  135OSM    C1F14698   1.867   5.773   7.311  0.3091  0.0678  0.0695
  135OSM     OF14699   1.986   5.771   7.352  0.0832  0.0626 -0.0311
  135OSM    C2F14700   1.804   5.902   7.269 -0.5247 -0.1515 -0.0460
  135OSM    H2F14701   1.869   5.989   7.288  0.2868  0.0755 -3.2245
  135OSM    H2G14702   1.715   5.929   7.331 -0.2945  1.3327 -0.3277
  135OSM    C3F14703   1.780   5.892   7.118  0.0201  0.2417  0.0215
  135OSM    H3F14704   1.756   5.991   7.072  2.3344  1.1848  0.6830
  135OSM    H3G14705   1.697   5.822   7.098 -1.0958  1.6757 -0.5442
  135OSM    C4F14706   1.911   5.839   7.047  0.0957 -0.0634  0.1137
  135OSM    H4F14707   1.997   5.894   7.092 -0.2957  2.7805 -2.3320
  135OSM    H4G14708   1.928   5.732   7.067 -1.0131 -0.0326  1.3970
  135OSM    C5F14709   1.900   5.851   6.889  0.0792  0.0550 -0.4457
  135OSM    H5F14710   1.872   5.955   6.862  1.2722  0.8049  1.0608
  135OSM    H5G14711   1.819   5.786   6.850  1.5534 -2.5296  0.5384
  135OSM    C6F14712   2.029   5.828   6.809 -0.1121  0.5574  0.0001
  135OSM    H6F14713   2.013   5.726   6.767 -0.4883  0.1256  1.1225
  135OSM    H6G14714   2.114   5.823   6.881 -0.4134 -1.2495  0.2920
  135OSM    C7F14715   2.044   5.929   6.699  0.6065  0.2756  0.5110
  135OSM    H7F14716   2.080   6.027   6.738 -2.8058  2.2342 -0.8556
  135OSM    H7G14717   1.943   5.964   6.669  0.8794  0.3084 -0.3706
  135OSM    C8F14718   2.127   5.891   6.576  0.0382  0.0366 -0.4848
  135OSM    H8F14719   2.221   5.849   6.617 -1.7174  0.3294  4.3782
  135OSM    H8G14720   2.162   5.983   6.524  0.9742 -0.5827 -0.9945
  135OSM    C9F14721   2.059   5.801   6.481 -0.0743  0.3082  0.0934
  135OSM    H9F14722   1.975   5.744   6.524 -0.6157 -1.8033 -3.4319
  135OSM   C10F14723   2.075   5.786   6.348  0.2128  1.0316  0.3963
  135OSM   H10F14724   2.014   5.710   6.298  0.5436 -0.4346  2.1036
  135OSM   C11F14725   2.184   5.848   6.267 -0.8145  0.0829 -0.1717
  135OSM   H11F14726   2.270   5.893   6.319  0.3151 -1.0459 -0.9961
  135OSM   H11G14727   2.144   5.931   6.205  0.3452  1.8733  1.3913
  135OSM   C12F14728   2.235   5.741   6.167 -0.3386 -0.3074 -0.4296
  135OSM   H12F14729   2.276   5.646   6.207  0.4203  0.1086 -0.2079
  135OSM   H12G14730   2.318   5.800   6.124 -1.6417  1.3708 -0.7172
  135OSM   C13F14731   2.131   5.702   6.060 -0.5529 -0.4239  0.0354
  135OSM   H13F14732   2.075   5.793   6.027  1.2036  0.2362 -1.3431
  135OSM   H13G14733   2.055   5.627   6.089 -1.0978 -0.4543 -1.3990
  135OSM   C14F14734   2.197   5.669   5.926 -0.2465 -0.2944  0.4420
  135OSM   H14F14735   2.272   5.590   5.948 -0.4028  0.0468  2.3708
  135OSM   H14G14736   2.246   5.765   5.899 -0.8266 -0.2850 -0.6249
  135OSM   C15F14737   2.106   5.629   5.812 -0.2067  0.2897 -0.4005
  135OSM   H15F14738   2.045   5.721   5.799  1.5268  1.7257  1.1147
  135OSM   H15G14739   2.043   5.541   5.841 -0.1697 -0.4840 -2.4689
  135OSM   C16F14740   2.185   5.572   5.692  0.2662 -0.2405 -0.1891
  135OSM   H16F14741   2.246   5.484   5.722  0.5225 -0.1164 -0.3431
  135OSM   H16G14742   2.254   5.648   5.649 -0.2486  0.2063 -0.2385
  135OSM   C17F14743   2.073   5.533   5.588 -0.7767 -0.1834  0.0807
  135OSM   H17F14744   2.020   5.618   5.539 -3.8512 -0.1031  3.1478
  135OSM   H17G14745   1.996   5.478   5.646 -1.3628 -1.1641 -1.5545
  135OSM   C18F14746   2.137   5.432   5.494 -0.0002 -0.3909 -0.2746
  135OSM   H18F14747   2.168   5.336   5.540  0.7407  0.0065  0.0661
  135OSM   H18G14748   2.223   5.486   5.448 -0.9727 -0.0682 -1.7810
  135OSM   H18H14749   2.066   5.402   5.413 -1.6781  0.9955  0.6161
  136OSM      N14750   0.466   6.437   7.972  0.4336  0.1501  0.1169
  136OSM    C1514751   0.422   6.440   8.107 -0.4002 -1.0352 -0.1673
  136OSM   H15A14752   0.473   6.506   8.175 -0.9607  1.1457 -1.7410
  136OSM   H15B14753   0.410   6.342   8.151 -1.7254 -0.2330  1.3997
  136OSM   H15C14754   0.323   6.483   8.108 -0.1280 -0.1686  3.5188
  136OSM    C1414755   0.362   6.364   7.888 -0.0756  0.9766 -0.7264
  136OSM   H14A14756   0.399   6.371   7.786  0.7935  0.4772 -0.4510
  136OSM   H14B14757   0.260   6.399   7.899  0.5362  1.9706  3.5596
  136OSM   H14C14758   0.347   6.264   7.924 -1.0881  1.6069  0.6786
  136OSM    C1314759   0.483   6.580   7.919 -0.3488  0.1317 -0.2031
  136OSM   H13A14760   0.532   6.569   7.824 -0.2630 -2.8488  0.0831
  136OSM   H13B14761   0.541   6.642   7.985  1.4536 -1.2580 -0.3904
  136OSM   H13C14762   0.385   6.620   7.900  0.2560  1.5012 -0.5241
  136OSM    C1214763   0.595   6.364   7.968 -0.5270  0.0821  0.2724
  136OSM   H12A14764   0.590   6.273   8.026 -0.3803  0.2782  0.5959
  136OSM   H12B14765   0.675   6.426   8.005 -0.3508 -0.1345  0.2572
  136OSM    C1114766   0.659   6.321   7.830  0.0696  0.1605 -0.4468
  136OSM   H11A14767   0.601   6.241   7.779 -0.3713 -0.7111  1.3319
  136OSM   H11B14768   0.757   6.288   7.873 -0.3714 -0.2380  0.2793
  136OSM      P14769   0.764   6.448   7.633 -0.0625 -0.3600  0.0749
  136OSM    O1314770   0.749   6.586   7.571 -0.1750 -0.3733  0.8854
  136OSM    O1414771   0.900   6.409   7.670  0.1458 -0.5030 -0.1450
  136OSM    O1114772   0.691   6.334   7.545  0.0623  0.0381 -0.6799
  136OSM    O1214773   0.675   6.436   7.755  0.6011 -0.6137  0.5674
  136OSM    C1S14774   0.738   6.324   7.409 -0.7232  0.1691 -0.3263
  136OSM    H1S14775   0.822   6.251   7.397 -0.2572  0.8148 -1.1783
  136OSM    H1T14776   0.765   6.420   7.360 -2.1617  0.4540 -0.5861
  136OSM     NF14777   0.694   6.239   7.185  0.2528 -0.1471 -0.3469
  136OSM    HNF14778   0.646   6.283   7.110 -0.3397  0.6027  0.4504
  136OSM    C2S14779   0.633   6.255   7.319 -0.4710  0.0015  0.6088
  136OSM    H2S14780   0.624   6.150   7.355  1.4312 -0.4524 -0.1161
  136OSM    C3S14781   0.489   6.321   7.319  0.0864  0.4440  0.4758
  136OSM    H3S14782   0.500   6.419   7.268  0.7225 -0.4933 -1.2829
  136OSM     O314783   0.441   6.343   7.453 -0.5535 -0.3374  0.7094
  136OSM    HO314784   0.521   6.335   7.505 -0.0513  0.7098  0.1417
  136OSM    C4S14785   0.384   6.258   7.235 -0.5724 -0.2543  0.1022
  136OSM    H4S14786   0.348   6.328   7.158  1.2016  0.7484  0.1503
  136OSM    C5S14787   0.333   6.137   7.245 -0.1067 -0.3887  0.1157
  136OSM    H5S14788   0.362   6.077   7.332 -0.2377  1.1220  1.2420
  136OSM    C6S14789   0.231   6.085   7.155 -0.8104 -0.1333 -0.2130
  136OSM    H6S14790   0.132   6.104   7.201 -0.3345  0.3663  0.6363
  136OSM    H6T14791   0.251   5.977   7.136 -0.8483 -0.3410  0.8736
  136OSM    C7S14792   0.233   6.151   7.018 -0.7184  0.1638  1.2373
  136OSM    H7S14793   0.333   6.153   6.970 -1.0879  1.0698  0.4797
  136OSM    H7T14794   0.199   6.256   7.018 -0.1812  0.5571 -3.2915
  136OSM    C8S14795   0.137   6.057   6.924  0.1425 -0.2238 -0.3702
  136OSM    H8S14796   0.032   6.070   6.957 -0.1051  0.7917 -1.4780
  136OSM    H8T14797   0.172   5.952   6.933  0.6501  0.0578  1.1614
  136OSM    C9S14798   0.136   6.088   6.766  0.3585 -0.3090 -0.2905
  136OSM    H9S14799   0.101   6.192   6.750  0.3081 -0.2851 -0.0348
  136OSM    H9T14800   0.062   6.017   6.723 -0.6340  1.2878 -1.3223
  136OSM   C10S14801   0.273   6.062   6.703  0.4453  0.5107 -0.5746
  136OSM   H10S14802   0.302   5.957   6.725  0.6739  0.3182 -1.6965
  136OSM   H10T14803   0.354   6.126   6.744 -0.4784  0.8002  0.8481
  136OSM   C11S14804   0.277   6.085   6.548 -0.5169 -0.4336 -0.5624
  136OSM   H11S14805   0.378   6.065   6.507  0.2304  2.5992 -0.4373
  136OSM   H11T14806   0.250   6.191   6.527 -0.6337 -0.0985  1.1940
  136OSM   C12S14807   0.187   5.992   6.466  0.4189 -0.3734 -0.5920
  136OSM   H12S14808   0.080   6.013   6.492 -0.0754  0.3564 -2.9849
  136OSM   H12T14809   0.199   5.882   6.469  1.1392 -0.2886  1.4001
  136OSM   C13S14810   0.195   6.028   6.316 -0.2359  0.1176  1.0407
  136OSM   H13S14811   0.299   6.018   6.278 -0.4458  0.8348  0.2556
  136OSM   H13T14812   0.171   6.136   6.305  0.8750  0.2612 -0.1819
  136OSM   C14S14813   0.096   5.946   6.228 -0.0033  0.5969  0.1373
  136OSM   H14S14814  -0.006   5.966   6.268 -0.9662 -1.5705 -1.0434
  136OSM   H14T14815   0.121   5.838   6.231  1.5619  0.9632  2.0252
  136OSM   C15S14816   0.120   5.991   6.091  1.2278  0.4745  0.0687
  136OSM   H15S14817   0.205   5.931   6.053  0.2114 -2.4181  2.0131
  136OSM   H15T14818   0.130   6.101   6.078 -1.2732  0.9195  1.3546
  136OSM   C16S14819   0.000   5.947   6.000  0.7945  0.7081  0.4175
  136OSM   H16S14820  -0.085   5.993   6.054  0.2323 -0.7166  0.7831
  136OSM   H16T14821  -0.017   5.839   6.016  0.8290  0.7409  0.6751
  136OSM   C17S14822   0.014   5.983   5.848 -0.4018  0.0832  0.3648
  136OSM   H17S14823  -0.058   5.929   5.782  1.4264  0.8558 -2.4604
  136OSM   H17T14824   0.121   5.957   5.831 -0.7549 -1.9326  0.9865
  136OSM   C18S14825  -0.005   6.132   5.819  0.7458 -0.2069 -0.5274
  136OSM   H18S14826   0.003   6.147   5.709  0.6281 -1.0493 -0.6543
  136OSM   H18T14827   0.069   6.196   5.873  0.6229  0.9527 -1.6825
  136OSM   H18U14828  -0.109   6.165   5.841  0.0448 -1.2968 -2.0240
  136OSM    C1F14829   0.796   6.156   7.151  0.0677  0.1626 -0.4970
  136OSM     OF14830   0.832   6.076   7.234  0.5802 -0.0489 -0.4854
  136OSM    C2F14831   0.840   6.147   7.009 -0.6210 -0.7331  0.1471
  136OSM    H2F14832   0.821   6.247   6.967 -0.7204  0.5711  3.0661
  136OSM    H2G14833   0.772   6.080   6.952 -0.2806 -2.4491  1.6718
  136OSM    C3F14834   0.987   6.099   6.991  0.2558 -0.5323 -0.4861
  136OSM    H3F14835   1.007   6.005   7.046 -0.7482 -0.2129  0.4710
  136OSM    H3G14836   1.054   6.171   7.043 -0.4771  0.1317 -0.4397
  136OSM    C4F14837   1.021   6.070   6.842  0.0298 -0.6038 -0.1105
  136OSM    H4F14838   0.937   6.009   6.802 -1.9835  0.1966  2.6166
  136OSM    H4G14839   1.121   6.022   6.839  1.1619  1.6954 -0.9088
  136OSM    C5F14840   1.031   6.197   6.742  0.5290  0.3156  0.1051
  136OSM    H5F14841   1.097   6.283   6.769  3.2646 -1.1983 -1.3518
  136OSM    H5G14842   0.928   6.237   6.735  0.3395 -0.2997 -0.6527
  136OSM    C6F14843   1.077   6.144   6.604 -0.2879 -1.1053  0.1000
  136OSM    H6F14844   1.041   6.045   6.572 -1.1148 -0.2327 -1.7874
  136OSM    H6G14845   1.188   6.151   6.596 -0.3832  2.3417  0.2991
  136OSM    C7F14846   1.032   6.238   6.489  0.1944 -0.5246  0.5627
  136OSM    H7F14847   1.064   6.339   6.525 -0.9667  0.0778 -0.0390
  136OSM    H7G14848   0.923   6.220   6.477  0.4093 -0.9960 -0.9076
  136OSM    C8F14849   1.113   6.198   6.357  0.4092  0.2323  0.5081
  136OSM    H8F14850   1.133   6.089   6.360 -0.5606  0.0497  2.6428
  136OSM    H8G14851   1.217   6.235   6.365  0.0465  1.5265 -0.5001
  136OSM    C9F14852   1.042   6.243   6.232 -0.6122 -0.7681 -0.1602
  136OSM    H9F14853   0.933   6.231   6.238 -0.7380  0.5105  0.6848
  136OSM   C10F14854   1.091   6.269   6.107  0.0601 -0.8037 -0.4669
  136OSM   H10F14855   1.024   6.295   6.024  2.2840 -0.6553 -2.3110
  136OSM   C11F14856   1.241   6.265   6.072 -0.1174  0.6760  0.0867
  136OSM   H11F14857   1.258   6.180   6.002 -0.4945  0.6675  0.0029
  136OSM   H11G14858   1.311   6.236   6.153  1.8793 -0.6669 -1.9912
  136OSM   C12F14859   1.287   6.385   5.986  0.4462 -0.2739 -0.0534
  136OSM   H12F14860   1.387   6.360   5.943 -0.0015  0.9704 -1.9357
  136OSM   H12G14861   1.301   6.479   6.044  1.4090 -0.7225  0.4733
  136OSM   C13F14862   1.214   6.418   5.863  0.3136  0.0412  0.7268
  136OSM   H13F14863   1.122   6.472   5.895  1.1296  0.6147  2.1547
  136OSM   H13G14864   1.197   6.326   5.802 -0.4508  1.3127 -1.0882
  136OSM   C14F14865   1.285   6.516   5.772 -0.0814 -0.1758  0.0030
  136OSM   H14F14866   1.384   6.476   5.740 -0.1944 -0.6288  0.2001
  136OSM   H14G14867   1.306   6.611   5.826  0.7682  1.3761 -2.8846
  136OSM   C15F14868   1.194   6.560   5.651  0.6181  0.1699 -0.4253
  136OSM   H15F14869   1.270   6.613   5.590  4.1217 -1.1566  2.4476
  136OSM   H15G14870   1.109   6.624   5.681 -0.1389  0.4191 -2.9109
  136OSM   C16F14871   1.136   6.451   5.557 -0.0444 -0.3565  0.9161
  136OSM   H16F14872   1.087   6.506   5.473  3.6189  0.4834 -0.8545
  136OSM   H16G14873   1.056   6.397   5.612 -1.4609  1.2298  0.5310
  136OSM   C17F14874   1.241   6.343   5.511  0.0773  0.1930 -0.8936
  136OSM   H17F14875   1.282   6.281   5.593 -1.3389 -1.0781 -1.1082
  136OSM   H17G14876   1.327   6.394   5.462 -0.3537  0.7824 -1.0386
  136OSM   C18F14877   1.186   6.243   5.409  0.1190  0.5166  0.4852
  136OSM   H18F14878   1.097   6.189   5.446  0.8042 -1.4253 -0.5175
  136OSM   H18G14879   1.267   6.169   5.390 -2.1266 -1.7089 -1.0917
  136OSM   H18H14880   1.158   6.282   5.308 -2.9447  0.1480  1.1158
  137OSM      N14881   1.668   6.648   7.731  0.0534  0.5295  0.0370
  137OSM    C1514882   1.649   6.561   7.854  0.9993  0.4059 -0.4016
  137OSM   H15A14883   1.545   6.551   7.880  1.5152 -1.3563  1.2546
  137OSM   H15B14884   1.709   6.589   7.939  2.1103 -1.8287 -0.3754
  137OSM   H15C14885   1.673   6.457   7.832 -0.1679 -0.0646  0.4660
  137OSM    C1414886   1.639   6.785   7.781 -0.6087 -0.4010 -0.5702
  137OSM   H14A14887   1.539   6.786   7.822 -0.1913  0.5331  0.4544
  137OSM   H14B14888   1.630   6.844   7.691 -0.1335  2.0354  0.8884
  137OSM   H14C14889   1.712   6.827   7.848 -1.6442  1.0988 -0.3474
  137OSM    C1314890   1.812   6.623   7.697 -0.1491  0.5961 -0.1634
  137OSM   H13A14891   1.813   6.524   7.653  0.4266  0.2175  0.6782
  137OSM   H13B14892   1.877   6.636   7.782 -0.6587 -0.1929  0.3601
  137OSM   H13C14893   1.839   6.688   7.615  2.1335 -0.8914 -0.6830
  137OSM    C1214894   1.572   6.608   7.620 -0.6439 -0.2670  0.5575
  137OSM   H12A14895   1.466   6.608   7.643 -0.8557 -0.1751 -0.3631
  137OSM   H12B14896   1.596   6.507   7.591  1.4888  0.8482 -1.9875
  137OSM    C1114897   1.578   6.704   7.492 -0.2256  0.2555  0.1503
  137OSM   H11A14898   1.686   6.730   7.482  0.5370 -2.4512  0.5234
  137OSM   H11B14899   1.523   6.799   7.505 -2.2254 -0.6064 -1.4527
  137OSM      P14900   1.614   6.536   7.288  0.0139  0.3470 -0.1895
  137OSM    O1314901   1.753   6.594   7.294  0.1729  0.1800 -0.3219
  137OSM    O1414902   1.597   6.398   7.343  0.6200 -0.3928  0.2796
  137OSM    O1114903   1.550   6.551   7.143 -0.0689  0.6276  0.0111
  137OSM    O1214904   1.523   6.633   7.377  0.7631  0.4923  0.0715
  137OSM    C1S14905   1.508   6.678   7.102 -0.3510  0.1963 -0.6568
  137OSM    H1S14906   1.576   6.759   7.136 -0.4505  0.0356 -0.0615
  137OSM    H1T14907   1.407   6.697   7.145 -0.1976 -1.4814  0.5524
  137OSM     NF14908   1.487   6.820   6.905 -0.3221  0.0611  0.6737
  137OSM    HNF14909   1.391   6.846   6.890  0.1043  0.8324 -1.0405
  137OSM    C2S14910   1.500   6.686   6.948 -0.0603 -0.4306 -0.3455
  137OSM    H2S14911   1.600   6.652   6.913  0.2677 -1.1171  1.1321
  137OSM    C3S14912   1.382   6.597   6.896  0.4564 -0.3032 -0.2489
  137OSM    H3S14913   1.294   6.662   6.916  0.7231  0.3851 -1.2798
  137OSM     O314914   1.352   6.478   6.973 -0.2636 -0.5409 -0.0042
  137OSM    HO314915   1.415   6.487   7.045  0.3257 -1.2725 -0.4112
  137OSM    C4S14916   1.392   6.578   6.746 -0.6861 -0.2686 -0.1425
  137OSM    H4S14917   1.329   6.648   6.688 -0.6226  1.0523  1.3073
  137OSM    C5S14918   1.461   6.477   6.677  0.4168  0.1386 -0.7656
  137OSM    H5S14919   1.502   6.391   6.731  0.9130  0.4584 -0.6214
  137OSM    C6S14920   1.457   6.469   6.530 -0.1461 -0.7355 -0.1881
  137OSM    H6S14921   1.363   6.512   6.489  0.6754  0.8309 -0.4805
  137OSM    H6T14922   1.474   6.363   6.499 -1.3701 -0.7278 -0.9568
  137OSM    C7S14923   1.574   6.551   6.471  0.4888 -0.3567 -0.4161
  137OSM    H7S14924   1.673   6.506   6.496  0.2619 -0.7216 -0.1623
  137OSM    H7T14925   1.572   6.648   6.526 -1.8982  0.1876 -1.3771
  137OSM    C8S14926   1.542   6.571   6.323  0.2522  0.3475 -0.0070
  137OSM    H8S14927   1.450   6.631   6.307  0.2118  0.5263  0.8272
  137OSM    H8T14928   1.511   6.474   6.279  0.1470 -0.3166  1.4573
  137OSM    C9S14929   1.669   6.617   6.244  0.0290 -0.5394  0.0154
  137OSM    H9S14930   1.754   6.546   6.251 -0.0901 -0.5841  1.2816
  137OSM    H9T14931   1.694   6.719   6.281 -2.9100  1.4257 -2.8405
  137OSM   C10S14932   1.636   6.629   6.092  0.2915  0.5270  0.8017
  137OSM   H10S14933   1.550   6.698   6.082  0.8999  1.5248  2.1438
  137OSM   H10T14934   1.597   6.533   6.052  3.2945 -1.4511  2.1834
  137OSM   C11S14935   1.744   6.671   6.003 -0.0795 -0.6184 -0.0276
  137OSM   H11S14936   1.794   6.760   6.048 -1.1511 -0.2914  0.5488
  137OSM   H11T14937   1.691   6.699   5.910 -3.1985 -0.5739  1.5992
  137OSM   C12S14938   1.848   6.560   5.965  0.3633  0.9437 -0.7394
  137OSM   H12S14939   1.798   6.465   5.938  0.0729  0.8444  0.1319
  137OSM   H12T14940   1.903   6.546   6.060 -0.9534 -0.6774 -0.1743
  137OSM   C13S14941   1.944   6.596   5.852  0.0254 -0.1956 -0.0460
  137OSM   H13S14942   1.884   6.617   5.760  0.9059  0.6853 -0.4392
  137OSM   H13T14943   2.010   6.514   5.816  1.4821  1.5662 -1.6721
  137OSM   C14S14944   2.032   6.716   5.873  0.4137 -0.3203 -1.0202
  137OSM   H14S14945   2.114   6.686   5.941  0.1789  0.1097 -0.5400
  137OSM   H14T14946   1.976   6.794   5.929 -1.4037  0.5740 -3.8359
  137OSM   C15S14947   2.102   6.769   5.749  0.7544 -0.1891 -0.0213
  137OSM   H15S14948   2.167   6.852   5.782 -0.0808  0.0169  1.1938
  137OSM   H15T14949   2.022   6.815   5.687  1.5849  2.7261  0.9159
  137OSM   C16S14950   2.169   6.658   5.664 -0.1106 -0.0893 -0.3236
  137OSM   H16S14951   2.082   6.605   5.620  0.9891 -0.8467 -1.6537
  137OSM   H16T14952   2.217   6.597   5.743  2.8162  0.8952 -1.2012
  137OSM   C17S14953   2.273   6.693   5.552 -0.0175  0.6233  0.2728
  137OSM   H17S14954   2.305   6.594   5.513 -0.1724  0.2451  1.0896
  137OSM   H17T14955   2.358   6.742   5.604 -0.3802  0.6948  0.8012
  137OSM   C18S14956   2.214   6.783   5.447 -0.2155 -0.2552 -0.2708
  137OSM   H18S14957   2.133   6.720   5.405  0.5277 -2.1883  1.0365
  137OSM   H18T14958   2.284   6.808   5.365  1.5862 -0.4329  1.1580
  137OSM   H18U14959   2.178   6.877   5.494  0.9646  0.6910 -1.2033
  137OSM    C1F14960   1.590   6.909   6.922  0.0141  0.0469  0.2730
  137OSM     OF14961   1.690   6.872   6.977 -0.1415  0.0724  0.1430
  137OSM    C2F14962   1.564   7.049   6.870 -0.1683  0.3554 -0.3317
  137OSM    H2F14963   1.623   7.112   6.941  3.0426 -1.8359 -0.8064
  137OSM    H2G14964   1.457   7.077   6.877 -0.4834 -0.5961 -1.0806
  137OSM    C3F14965   1.637   7.079   6.737 -0.1842  0.1281 -0.6060
  137OSM    H3F14966   1.744   7.053   6.751 -0.0790  1.3014  1.0026
  137OSM    H3G14967   1.638   7.188   6.720  0.4413  0.1165 -0.6786
  137OSM    C4F14968   1.576   7.005   6.619 -0.4478  0.1432 -0.1238
  137OSM    H4F14969   1.466   7.006   6.636 -0.1154 -1.0758  2.7303
  137OSM    H4G14970   1.604   6.898   6.622  0.0284  0.2726  0.2787
  137OSM    C5F14971   1.595   7.078   6.488  0.4350  0.6810  0.2738
  137OSM    H5F14972   1.703   7.101   6.477  0.3569  0.9538  0.0636
  137OSM    H5G14973   1.547   7.178   6.490  0.8270  1.0018 -2.3190
  137OSM    C6F14974   1.531   7.017   6.362  0.0675  0.2038 -0.0136
  137OSM    H6F14975   1.421   7.027   6.372  0.1930  2.1431 -0.2663
  137OSM    H6G14976   1.544   6.907   6.352 -1.0220 -0.0998  1.5728
  137OSM    C7F14977   1.578   7.093   6.240 -1.1142  0.6610 -0.0449
  137OSM    H7F14978   1.689   7.103   6.249 -1.1412 -0.1294  1.6095
  137OSM    H7G14979   1.527   7.191   6.257  0.4010  1.5837 -0.6300
  137OSM    C8F14980   1.537   7.029   6.109 -0.5942 -0.1491 -0.4540
  137OSM    H8F14981   1.426   7.020   6.117 -0.6148  0.6364  0.2764
  137OSM    H8G14982   1.583   6.928   6.099 -0.3082  0.0760 -1.4234
  137OSM    C9F14983   1.564   7.116   5.989 -0.1563 -0.3050  0.2215
  137OSM    H9F14984   1.597   7.217   6.017 -3.0898  0.3770  1.6180
  137OSM   C10F14985   1.555   7.085   5.861  0.2829 -0.1050  0.2509
  137OSM   H10F14986   1.575   7.162   5.784 -2.5640  0.1073 -0.4196
  137OSM   C11F14987   1.513   6.951   5.803 -1.0995  0.1814  0.1950
  137OSM   H11F14988   1.411   6.953   5.759 -0.5881 -1.0152 -1.1332
  137OSM   H11G14989   1.521   6.866   5.875 -1.5689 -0.9085 -0.9916
  137OSM   C12F14990   1.603   6.917   5.689 -0.2237 -0.8515  0.2615
  137OSM   H12F14991   1.711   6.929   5.712 -0.0773 -1.7690  0.0736
  137OSM   H12G14992   1.601   6.989   5.604  0.2786 -2.1037 -0.8524
  137OSM   C13F14993   1.590   6.771   5.642 -0.4490 -0.2145 -0.0381
  137OSM   H13F14994   1.488   6.744   5.610 -0.1686 -1.7313  0.2940
  137OSM   H13G14995   1.613   6.700   5.724 -2.7901  0.8145  1.6180
  137OSM   C14F14996   1.695   6.733   5.537 -0.7595  0.2619  0.1689
  137OSM   H14F14997   1.685   6.628   5.502 -0.7783 -0.1897  1.4945
  137OSM   H14G14998   1.798   6.732   5.580 -0.7764 -1.0282  0.2329
  137OSM   C15F14999   1.689   6.816   5.405  0.4721  0.9467  0.7414
  137OSM   H15F15000   1.643   6.913   5.436  1.2829  2.3098 -1.9492
  137OSM   H15G15001   1.621   6.762   5.336  1.5857 -0.7207  0.9156
  137OSM   C16F15002   1.822   6.839   5.326  0.4233  0.0602  0.0036
  137OSM   H16F15003   1.865   6.747   5.282 -0.5957 -0.6702  0.4786
  137OSM   H16G15004   1.898   6.860   5.404 -0.7423 -1.0476  1.4829
  137OSM   C17F15005   1.809   6.951   5.226  0.1183 -0.2807 -0.1321
  137OSM   H17F15006   1.910   6.997   5.221 -0.1675  0.5611  1.3254
  137OSM   H17G15007   1.742   7.035   5.255  0.7149 -0.0288  0.5154
  137OSM   C18F15008   1.769   6.904   5.087 -0.9453  0.1419 -0.6950
  137OSM   H18F15009   1.676   6.843   5.087 -0.0421 -1.3222 -2.0474
  137OSM   H18G15010   1.852   6.841   5.047 -0.6890 -0.5100  0.7622
  137OSM   H18H15011   1.750   6.994   5.026  1.2736  0.4291 -1.0608
  138OSM      N15012   5.461   3.746   8.082  0.4400  0.2922  0.2813
  138OSM    C1515013   5.331   3.681   8.086 -0.0949 -0.3522 -0.2218
  138OSM   H15A15014   5.248   3.750   8.092  2.1212  2.3878  1.2124
  138OSM   H15B15015   5.331   3.603   8.161 -0.4080  0.6005  0.8056
  138OSM   H15C15016   5.317   3.631   7.991 -0.3648  0.6897 -0.7382
  138OSM    C1415017   5.455   3.865   7.988 -0.0315 -0.5416 -0.3097
  138OSM   H14A15018   5.408   3.946   8.043  1.7003  0.8917 -0.8392
  138OSM   H14B15019   5.414   3.842   7.891  1.7063 -2.8134 -0.5703
  138OSM   H14C15020   5.553   3.906   7.972 -1.4789  2.6487 -2.0725
  138OSM    C1315021   5.489   3.806   8.219 -0.9354  0.6597  0.6609
  138OSM   H13A15022   5.423   3.889   8.236 -0.0259  1.1689  1.9371
  138OSM   H13B15023   5.588   3.850   8.218 -1.1736  1.2250 -0.9339
  138OSM   H13C15024   5.483   3.731   8.297 -2.4661 -0.2119 -0.2611
  138OSM    C1215025   5.572   3.661   8.026 -0.1525 -0.0705 -0.3047
  138OSM   H12A15026   5.573   3.572   8.087 -0.6146  0.0291 -0.1484
  138OSM   H12B15027   5.664   3.714   8.045 -0.1841  0.1494 -0.7508
  138OSM    C1115028   5.554   3.616   7.881 -0.0930 -0.0577 -0.4313
  138OSM   H11A15029   5.637   3.549   7.850 -0.4245  0.7461 -3.3828
  138OSM   H11B15030   5.547   3.700   7.808 -0.8698 -2.0348 -2.7476
  138OSM      P15031   5.342   3.548   7.743  0.0663 -0.0854 -0.1068
  138OSM    O1315032   5.322   3.419   7.678 -0.1457  0.1392  0.3439
  138OSM    O1415033   5.221   3.625   7.784 -0.2802 -0.4352  0.2557
  138OSM    O1115034   5.409   3.640   7.643 -0.2109  0.7308  0.2551
  138OSM    O1215035   5.437   3.535   7.871 -0.1951 -0.0855 -0.0150
  138OSM    C1S15036   5.388   3.634   7.501 -0.0133 -0.1850 -0.2849
  138OSM    H1S15037   5.278   3.628   7.485 -0.0512 -1.1523  0.2613
  138OSM    H1T15038   5.436   3.538   7.473  2.7660  0.4234  1.9103
  138OSM     NF15039   5.408   3.758   7.288  0.2576  0.3384  0.3058
  138OSM    HNF15040   5.484   3.743   7.224 -0.3035 -0.3399 -0.2184
  138OSM    C2S15041   5.447   3.753   7.427 -0.2571 -0.4472 -0.2864
  138OSM    H2S15042   5.417   3.843   7.484 -2.3667 -0.6523 -0.9845
  138OSM    C3S15043   5.603   3.750   7.435 -0.3593 -0.0662  0.0530
  138OSM    H3S15044   5.623   3.649   7.394 -1.1253  0.5181 -1.8698
  138OSM     O315045   5.650   3.759   7.570  0.2858 -0.2475 -1.0059
  138OSM    HO315046   5.570   3.747   7.621 -0.2325 -1.3264 -2.0435
  138OSM    C4S15047   5.680   3.842   7.344  0.1250 -0.1932  0.0867
  138OSM    H4S15048   5.682   3.803   7.241 -3.1541 -2.3936  0.7048
  138OSM    C5S15049   5.743   3.956   7.373 -0.4679 -0.4702 -0.2580
  138OSM    H5S15050   5.749   3.994   7.476  0.4755  0.0436 -0.4831
  138OSM    C6S15051   5.818   4.048   7.273  0.0430  0.0763  0.6872
  138OSM    H6S15052   5.914   4.076   7.320 -0.1068 -1.0174  1.6944
  138OSM    H6T15053   5.769   4.146   7.259  3.1592  1.4674 -1.5190
  138OSM    C7S15054   5.843   4.009   7.122  0.2781 -0.0554 -1.0256
  138OSM    H7S15055   5.745   3.985   7.074  1.1081 -0.7213 -2.4807
  138OSM    H7T15056   5.891   3.909   7.124 -2.4916 -1.5107 -1.6466
  138OSM    C8S15057   5.933   4.104   7.045 -0.2055  0.6931 -0.7343
  138OSM    H8S15058   6.024   4.117   7.109 -0.4128 -2.2602  0.3109
  138OSM    H8T15059   5.891   4.207   7.055  2.4458  1.6832  2.4202
  138OSM    C9S15060   5.969   4.053   6.904 -0.4109  0.4057 -0.7796
  138OSM    H9S15061   5.997   3.945   6.912  2.1179  1.0429 -0.1191
  138OSM    H9T15062   6.051   4.115   6.863 -0.2474  0.4814 -0.3448
  138OSM   C10S15063   5.853   4.075   6.804  0.0281  0.5231 -0.2029
  138OSM   H10S15064   5.828   4.183   6.798  0.3088  0.6140  0.1867
  138OSM   H10T15065   5.765   4.018   6.839  1.1205 -0.9315  0.3002
  138OSM   C11S15066   5.881   4.020   6.669 -0.4026 -0.0279  0.5783
  138OSM   H11S15067   5.787   4.040   6.613  1.1023  1.6371 -1.5499
  138OSM   H11T15068   5.922   3.917   6.667  2.7621  1.1213  1.3126
  138OSM   C12S15069   5.977   4.106   6.582 -0.0528 -0.0511  0.5114
  138OSM   H12S15070   6.079   4.111   6.625  1.3304 -2.6122 -2.1322
  138OSM   H12T15071   5.941   4.209   6.562 -2.6380 -0.9669  0.0623
  138OSM   C13S15072   5.991   4.055   6.433 -0.3352 -0.0779  0.0424
  138OSM   H13S15073   5.893   4.069   6.383 -0.0998 -0.7775 -0.6587
  138OSM   H13T15074   6.013   3.946   6.435 -0.4657 -0.1276  2.9512
  138OSM   C14S15075   6.098   4.126   6.354  0.3161 -0.8356 -0.0252
  138OSM   H14S15076   6.199   4.121   6.398  0.3789 -0.0619 -0.0681
  138OSM   H14T15077   6.066   4.232   6.345  1.8362 -0.4076 -0.6260
  138OSM   C15S15078   6.130   4.066   6.215 -0.4758  0.2275  0.3094
  138OSM   H15S15079   6.127   3.956   6.234 -0.6931  0.1531 -0.1376
  138OSM   H15T15080   6.234   4.078   6.179 -0.5561  1.6374  0.5201
  138OSM   C16S15081   6.028   4.100   6.104  0.4646  0.1452 -0.6952
  138OSM   H16S15082   5.993   4.204   6.119 -0.3082 -0.3212  0.9858
  138OSM   H16T15083   5.940   4.034   6.119  0.8933 -0.3203 -0.1576
  138OSM   C17S15084   6.088   4.074   5.962 -0.3303  0.5323  0.4985
  138OSM   H17S15085   6.114   3.966   5.967 -0.4856  0.5425  3.0818
  138OSM   H17T15086   6.184   4.123   5.934 -0.6420 -0.7377 -3.3703
  138OSM   C18S15087   5.997   4.106   5.842  0.5243 -0.0179 -0.0784
  138OSM   H18S15088   5.930   4.019   5.826  3.4505 -2.8572  1.8869
  138OSM   H18T15089   6.049   4.123   5.745  0.3446  1.8968  0.1178
  138OSM   H18U15090   5.944   4.203   5.854 -0.2889 -0.2683 -1.3898
  138OSM    C1F15091   5.284   3.795   7.251  0.8777 -0.0121 -0.4449
  138OSM     OF15092   5.197   3.828   7.332 -0.0477 -0.1116 -0.4536
  138OSM    C2F15093   5.254   3.803   7.101 -0.3077 -0.2718  0.1443
  138OSM    H2F15094   5.327   3.733   7.055  1.2149 -0.2209  2.3224
  138OSM    H2G15095   5.290   3.903   7.069 -1.9453 -0.2489 -1.8287
  138OSM    C3F15096   5.106   3.770   7.067 -0.9864  0.7259  0.2794
  138OSM    H3F15097   5.035   3.847   7.106  0.8721  2.1022  1.1218
  138OSM    H3G15098   5.079   3.668   7.101 -2.8152  0.9379 -0.4021
  138OSM    C4F15099   5.080   3.769   6.917  0.1467 -0.1644  0.4315
  138OSM    H4F15100   4.997   3.701   6.888  1.5429 -1.2359 -1.1796
  138OSM    H4G15101   5.167   3.731   6.859  0.1237  0.5706 -0.0936
  138OSM    C5F15102   5.039   3.909   6.858  1.3728  0.1799  0.2409
  138OSM    H5F15103   5.113   3.986   6.890  1.7162  0.9007 -2.1035
  138OSM    H5G15104   4.942   3.939   6.902 -0.0115 -0.0230 -2.4788
  138OSM    C6F15105   5.019   3.908   6.706  0.3250 -0.0895 -0.1745
  138OSM    H6F15106   4.937   3.837   6.682 -1.1510  1.4385  0.1616
  138OSM    H6G15107   5.111   3.876   6.652  1.3701  0.4442  1.2207
  138OSM    C7F15108   4.962   4.045   6.658 -0.5769 -0.2787  0.1107
  138OSM    H7F15109   5.036   4.126   6.677  1.9415 -2.3421 -0.2902
  138OSM    H7G15110   4.878   4.069   6.727  1.2117  2.0282  1.6889
  138OSM    C8F15111   4.933   4.038   6.515  0.2100  0.7645 -0.2722
  138OSM    H8F15112   4.880   3.941   6.502  0.8693  0.6260 -2.1323
  138OSM    H8G15113   5.026   4.032   6.456 -0.7994  1.2718 -2.0000
  138OSM    C9F15114   4.852   4.158   6.477  0.6339  0.0150 -0.2038
  138OSM    H9F15115   4.772   4.181   6.550  1.8149  2.0595  0.5180
  138OSM   C10F15116   4.873   4.225   6.366  0.3177  0.3116  0.3500
  138OSM   H10F15117   4.816   4.318   6.349 -0.0895 -0.3300 -2.2042
  138OSM   C11F15118   4.994   4.208   6.270 -0.2327 -0.4092 -0.0149
  138OSM   H11F15119   4.953   4.170   6.174 -1.3362 -0.7556  0.5846
  138OSM   H11G15120   5.062   4.123   6.288 -1.0570 -1.3858 -1.3521
  138OSM   C12F15121   5.072   4.336   6.241  0.2296  0.3605 -1.3781
  138OSM   H12F15122   5.161   4.311   6.179  1.0687 -3.2769  0.9738
  138OSM   H12G15123   5.116   4.369   6.337 -1.7776 -0.2128 -0.1924
  138OSM   C13F15124   4.987   4.455   6.181  0.2870  0.4384  0.6217
  138OSM   H13F15125   5.040   4.550   6.207  1.1506  0.5593 -1.4395
  138OSM   H13G15126   4.888   4.468   6.231 -0.4998  0.2106 -0.8433
  138OSM   C14F15127   4.976   4.447   6.029 -0.0747 -0.0521  0.1667
  138OSM   H14F15128   4.914   4.363   5.991  2.3250 -2.5575  1.3733
  138OSM   H14G15129   5.076   4.423   5.987  0.6728  0.8291  1.3558
  138OSM   C15F15130   4.932   4.588   5.979  0.2301  0.4081 -0.3362
  138OSM   H15F15131   5.017   4.657   5.996  1.0050 -0.6301  0.0591
  138OSM   H15G15132   4.846   4.629   6.037 -1.1985  0.3745 -2.3348
  138OSM   C16F15133   4.888   4.586   5.831  0.4971  0.1010 -0.5372
  138OSM   H16F15134   4.962   4.550   5.757  1.1433 -0.8098  0.5233
  138OSM   H16G15135   4.858   4.690   5.803  0.6057  0.0170 -0.9652
  138OSM   C17F15136   4.764   4.506   5.780  0.1532 -0.0050 -0.0780
  138OSM   H17F15137   4.789   4.400   5.760 -1.8967 -0.3754 -0.9262
  138OSM   H17G15138   4.740   4.555   5.684  2.3479 -3.2660 -2.5109
  138OSM   C18F15139   4.643   4.508   5.880  0.1648  0.4152 -0.6001
  138OSM   H18F15140   4.550   4.469   5.835 -0.7149 -2.2554  3.0586
  138OSM   H18G15141   4.617   4.614   5.901  1.3923  0.7628 -0.7740
  138OSM   H18H15142   4.655   4.458   5.979 -0.1727  0.0122 -0.7607
  139OSM      N15143   2.852   1.004   8.149 -0.0645 -0.0274 -0.1547
  139OSM    C1515144   2.968   1.064   8.228 -0.4393 -0.0762 -0.2501
  139OSM   H15A15145   3.053   0.998   8.216 -1.4759 -1.3801 -0.5822
  139OSM   H15B15146   2.940   1.085   8.330 -1.3421 -2.7382  0.1226
  139OSM   H15C15147   2.997   1.154   8.174  1.0254 -0.1690  0.3241
  139OSM    C1415148   2.810   0.875   8.226 -0.3406  0.3154 -0.2413
  139OSM   H14A15149   2.713   0.850   8.187  0.4798  2.2227 -3.9017
  139OSM   H14B15150   2.818   0.900   8.331 -0.3063  0.5806 -0.3083
  139OSM   H14C15151   2.873   0.792   8.197 -2.1504 -0.7287 -1.3693
  139OSM    C1315152   2.733   1.097   8.146  0.1853 -0.3108  0.6464
  139OSM   H13A15153   2.753   1.199   8.115  1.3234 -0.4687  0.8318
  139OSM   H13B15154   2.683   1.107   8.242 -1.1789 -0.4566 -0.0229
  139OSM   H13C15155   2.669   1.052   8.072  1.8262 -1.0659 -0.3651
  139OSM    C1215156   2.893   0.963   8.000  0.1213  0.5375  0.0855
  139OSM   H12A15157   2.993   0.923   8.002 -0.8822 -2.2195 -1.0375
  139OSM   H12B15158   2.906   1.055   7.944  1.0537  1.4844  1.7408
  139OSM    C1115159   2.794   0.865   7.930 -0.6006 -0.3970 -0.3890
  139OSM   H11A15160   2.835   0.766   7.958 -0.2811  0.0157  0.6415
  139OSM   H11B15161   2.821   0.890   7.825  0.6163 -1.3607 -0.3186
  139OSM      P15162   2.563   0.790   7.965  0.0557  0.0433  0.1400
  139OSM    O1315163   2.597   0.733   8.100 -0.0995  0.3598 -0.5500
  139OSM    O1415164   2.425   0.840   7.952  0.3381  0.2863 -0.1394
  139OSM    O1115165   2.600   0.698   7.847 -0.6558 -0.0547  0.4498
  139OSM    O1215166   2.667   0.905   7.955  0.4884  0.0213  0.5690
  139OSM    C1S15167   2.540   0.705   7.719 -0.6365  0.1926 -0.6715
  139OSM    H1S15168   2.451   0.771   7.717 -1.1818 -0.4888  0.1409
  139OSM    H1T15169   2.501   0.605   7.690  1.6317 -0.5188 -1.5156
  139OSM     NF15170   2.586   0.788   7.486 -0.2548  0.3042 -1.0751
  139OSM    HNF15171   2.583   0.713   7.421 -1.2969 -0.6619  0.0160
  139OSM    C2S15172   2.646   0.748   7.610 -0.2084 -0.1916 -0.0503
  139OSM    H2S15173   2.703   0.838   7.643 -0.7370  1.3272 -2.8815
  139OSM    C3S15174   2.758   0.641   7.597 -1.2737  0.0958  0.2464
  139OSM    H3S15175   2.720   0.542   7.562  1.1854 -0.4713 -1.0287
  139OSM     O315176   2.832   0.610   7.717  0.6040  0.2599 -0.0455
  139OSM    HO315177   2.792   0.670   7.780  1.2611  1.5153 -0.7904
  139OSM    C4S15178   2.870   0.675   7.493  0.4342 -0.2370 -0.8191
  139OSM    H4S15179   2.833   0.631   7.399  0.0742 -1.1676 -0.2537
  139OSM    C5S15180   2.999   0.724   7.508  1.0120 -0.6251  0.5006
  139OSM    H5S15181   3.034   0.752   7.608  0.3530 -1.4063  0.9713
  139OSM    C6S15182   3.100   0.734   7.398  0.3257  0.2655 -0.1708
  139OSM    H6S15183   3.185   0.668   7.425  0.1378  0.7579  1.7458
  139OSM    H6T15184   3.146   0.835   7.403  1.7264 -0.2573 -1.7473
  139OSM    C7S15185   3.060   0.701   7.257 -0.0201  0.0249 -0.3783
  139OSM    H7S15186   3.135   0.744   7.188  1.4265 -2.0024 -0.1649
  139OSM    H7T15187   2.965   0.756   7.241 -0.0375 -0.4938 -2.2183
  139OSM    C8S15188   3.046   0.554   7.217  0.1668  0.2358  0.0898
  139OSM    H8S15189   2.967   0.492   7.264 -0.9627  0.0361 -1.9355
  139OSM    H8T15190   3.144   0.508   7.242  0.7072 -0.1259 -2.3846
  139OSM    C9S15191   3.010   0.530   7.070 -0.2243  0.6002 -0.1324
  139OSM    H9S15192   2.911   0.572   7.046 -0.6764 -0.2140  0.2492
  139OSM    H9T15193   3.010   0.423   7.040 -1.6814  0.7714 -0.8288
  139OSM   C10S15194   3.108   0.601   6.970 -0.1719  0.0717 -0.7400
  139OSM   H10S15195   3.212   0.568   6.993  0.2039  0.4278 -1.8213
  139OSM   H10T15196   3.100   0.711   6.983  0.1240  0.0617 -0.4748
  139OSM   C11S15197   3.066   0.563   6.828  0.3438  0.0983 -0.4750
  139OSM   H11S15198   2.969   0.616   6.813 -0.3136 -0.7821  0.4578
  139OSM   H11T15199   3.038   0.455   6.821 -2.2313  0.7034 -0.5339
  139OSM   C12S15200   3.163   0.609   6.723 -0.2814 -0.6729  0.0094
  139OSM   H12S15201   3.267   0.580   6.750 -0.2805 -0.3216  0.4045
  139OSM   H12T15202   3.160   0.720   6.729  1.3365 -0.5976  0.0113
  139OSM   C13S15203   3.130   0.563   6.586  0.2007  0.2887  0.3316
  139OSM   H13S15204   3.022   0.584   6.570  0.3607 -0.2356 -1.5969
  139OSM   H13T15205   3.140   0.453   6.578 -0.3046  0.3103 -0.8057
  139OSM   C14S15206   3.216   0.638   6.489 -0.3640  0.3693  0.2345
  139OSM   H14S15207   3.317   0.637   6.535 -0.3592  1.8305  0.2853
  139OSM   H14T15208   3.178   0.742   6.490 -0.6793  0.2555  1.0434
  139OSM   C15S15209   3.217   0.565   6.358 -0.4357  0.0878  0.3686
  139OSM   H15S15210   3.112   0.564   6.321 -1.4303 -0.4341  2.9643
  139OSM   H15T15211   3.252   0.460   6.367  1.9894  0.7636 -0.4654
  139OSM   C16S15212   3.296   0.630   6.240  0.1643 -0.1780 -0.1675
  139OSM   H16S15213   3.401   0.631   6.276 -0.4572  0.8596  1.7298
  139OSM   H16T15214   3.266   0.735   6.220  0.7781  0.1230  0.4622
  139OSM   C17S15215   3.274   0.559   6.114  0.5565  0.8540 -0.4138
  139OSM   H17S15216   3.169   0.545   6.082  0.7072 -3.0531  0.2626
  139OSM   H17T15217   3.313   0.456   6.126  1.8162  1.4775  1.3228
  139OSM   C18S15218   3.364   0.616   5.996  0.3430  0.2864  0.2608
  139OSM   H18S15219   3.303   0.697   5.950 -2.0714 -0.6817  1.5757
  139OSM   H18T15220   3.379   0.539   5.918  0.5009  0.7522 -0.1773
  139OSM   H18U15221   3.467   0.652   6.020  1.5677 -2.8678  0.2256
  139OSM    C1F15222   2.507   0.894   7.461 -0.4632  0.1591 -0.3536
  139OSM     OF15223   2.467   0.969   7.549 -0.0987 -0.5264  0.0623
  139OSM    C2F15224   2.465   0.939   7.320 -0.7376 -0.2443 -0.1205
  139OSM    H2F15225   2.488   0.858   7.247  0.6383 -0.6059  0.6801
  139OSM    H2G15226   2.512   1.038   7.302 -1.8214  0.3240  0.0928
  139OSM    C3F15227   2.315   0.978   7.319  0.4476  0.2361 -0.3870
  139OSM    H3F15228   2.304   1.061   7.392 -0.2417 -1.1375  1.1350
  139OSM    H3G15229   2.241   0.906   7.361  0.8943 -0.3087 -0.5265
  139OSM    C4F15230   2.262   1.027   7.187 -0.2337  0.5495  0.6595
  139OSM    H4F15231   2.338   1.100   7.152  1.6737 -0.4816  2.4262
  139OSM    H4G15232   2.179   1.098   7.207  1.2006  2.0734  1.5080
  139OSM    C5F15233   2.236   0.923   7.083 -0.4409  0.6356 -0.7346
  139OSM    H5F15234   2.168   0.854   7.138 -0.7598 -0.3544 -2.2928
  139OSM    H5G15235   2.322   0.861   7.051 -0.3209  0.9949 -1.1088
  139OSM    C6F15236   2.171   0.974   6.957 -0.0547 -0.6350  0.2270
  139OSM    H6F15237   2.238   1.041   6.899  0.5136 -0.5101  1.0082
  139OSM    H6G15238   2.083   1.036   6.984  0.7923  0.7964 -0.1736
  139OSM    C7F15239   2.118   0.856   6.868  0.0903 -0.0593  0.4974
  139OSM    H7F15240   2.042   0.802   6.929 -1.7358  0.1741 -1.4443
  139OSM    H7G15241   2.197   0.784   6.837 -0.8113 -0.6124 -0.6098
  139OSM    C8F15242   2.044   0.918   6.750  0.5948 -0.1131  0.1178
  139OSM    H8F15243   1.985   1.006   6.785 -0.7740 -0.7569 -0.5003
  139OSM    H8G15244   1.968   0.847   6.710  0.4020  0.2356 -0.1413
  139OSM    C9F15245   2.148   0.960   6.647  0.6091  0.5186 -0.1117
  139OSM    H9F15246   2.250   0.928   6.674 -0.0888 -0.7169  1.2322
  139OSM   C10F15247   2.127   1.017   6.529 -0.5113 -0.0841 -0.1646
  139OSM   H10F15248   2.203   1.040   6.452 -0.6845 -1.5931 -0.8248
  139OSM   C11F15249   1.990   1.045   6.468  0.2886 -0.6586 -0.5355
  139OSM   H11F15250   1.909   0.998   6.528  0.5280  0.2925  0.5716
  139OSM   H11G15251   1.988   0.997   6.368 -0.9346  2.0469 -1.9124
  139OSM   C12F15252   1.946   1.188   6.442  0.5099  0.1228  0.2653
  139OSM   H12F15253   1.955   1.246   6.536  0.5664  3.6153 -1.7315
  139OSM   H12G15254   1.840   1.180   6.408  0.5778 -2.9629  0.5213
  139OSM   C13F15255   2.039   1.276   6.356  0.1006  0.2684  0.1602
  139OSM   H13F15256   2.143   1.256   6.388 -0.8298 -3.4714  1.3001
  139OSM   H13G15257   2.014   1.383   6.373  1.1098  0.6555 -0.6604
  139OSM   C14F15258   2.028   1.242   6.208  0.5929 -0.1415 -0.4928
  139OSM   H14F15259   1.922   1.236   6.175  0.6562 -1.1529 -0.5368
  139OSM   H14G15260   2.073   1.142   6.191 -1.2352 -0.9928 -0.5647
  139OSM   C15F15261   2.095   1.346   6.122 -0.1848  0.1849 -0.2622
  139OSM   H15F15262   2.196   1.347   6.168 -0.3298 -2.7335  0.3034
  139OSM   H15G15263   2.040   1.441   6.143  1.4720  1.5246 -1.6856
  139OSM   C16F15264   2.100   1.317   5.974 -0.0743 -0.1793  0.0974
  139OSM   H16F15265   1.999   1.314   5.927 -0.4929  0.0873  0.9583
  139OSM   H16G15266   2.142   1.217   5.952 -1.7313 -0.7778 -0.5668
  139OSM   C17F15267   2.184   1.433   5.907 -0.5883  0.2154  0.4254
  139OSM   H17F15268   2.287   1.432   5.950 -0.9120 -1.0836  1.2384
  139OSM   H17G15269   2.127   1.527   5.923 -0.2873  0.3961  0.4444
  139OSM   C18F15270   2.188   1.413   5.758 -0.2551  0.3710 -0.2808
  139OSM   H18F15271   2.230   1.311   5.740 -1.3790 -0.3955  1.1791
  139OSM   H18G15272   2.250   1.495   5.719 -0.6914  3.2574  4.3397
  139OSM   H18H15273   2.088   1.416   5.711 -0.2780  1.6060 -0.1643
  140OSM      N15274   0.893   5.935   7.684  0.1090 -0.0709 -0.7182
  140OSM    C1515275   0.931   5.998   7.811 -0.3391 -0.2114  0.8048
  140OSM   H15A15276   0.946   6.104   7.797  2.7580 -0.4172  1.7957
  140OSM   H15B15277   1.029   5.954   7.826 -0.1090 -0.3398 -0.8552
  140OSM   H15C15278   0.856   5.985   7.887 -0.5244  3.4290  1.4226
  140OSM    C1415279   0.831   5.803   7.690  0.4211  0.4740 -0.6050
  140OSM   H14A15280   0.816   5.760   7.592  0.5135 -0.4532 -0.2271
  140OSM   H14B15281   0.731   5.797   7.731 -0.5700 -1.0066 -2.9869
  140OSM   H14C15282   0.898   5.737   7.743 -0.2264  0.0926 -0.2398
  140OSM    C1315283   0.788   6.031   7.616 -0.7911  0.0395 -0.1342
  140OSM   H13A15284   0.805   6.137   7.612 -0.2248 -0.0358  0.1966
  140OSM   H13B15285   0.696   6.028   7.672 -0.7302 -0.1068 -0.0397
  140OSM   H13C15286   0.766   6.007   7.513 -2.6068 -0.4078  0.3136
  140OSM    C1215287   1.017   5.925   7.591  0.0352  0.6898 -0.0002
  140OSM   H12A15288   1.054   6.026   7.580 -0.4600  0.8060 -0.6794
  140OSM   H12B15289   0.990   5.887   7.494  1.0109 -0.6688  0.2414
  140OSM    C1115290   1.136   5.844   7.642 -0.1572  0.1138 -0.2974
  140OSM   H11A15291   1.215   5.838   7.565  0.0778 -0.2071 -0.0352
  140OSM   H11B15292   1.101   5.738   7.647 -0.5279  0.2911  1.5180
  140OSM      P15293   1.273   6.027   7.765  0.4943  0.2474 -0.2325
  140OSM    O1315294   1.221   6.107   7.877 -0.5230 -0.4016 -0.1005
  140OSM    O1415295   1.419   6.008   7.772 -0.0441 -0.0642  0.2439
  140OSM    O1115296   1.228   6.109   7.634  0.4165  0.4701 -0.5027
  140OSM    O1215297   1.199   5.892   7.765  0.9416 -0.3972  0.6095
  140OSM    C1S15298   1.325   6.131   7.530 -0.7620  0.3879 -0.3429
  140OSM    H1S15299   1.320   6.043   7.463 -3.7966  0.9619 -1.0007
  140OSM    H1T15300   1.425   6.151   7.573 -0.9060 -0.3830  0.3831
  140OSM     NF15301   1.376   6.237   7.318 -0.2870 -0.0610  0.7154
  140OSM    HNF15302   1.458   6.293   7.320  1.0230 -1.9275  1.2190
  140OSM    C2S15303   1.298   6.250   7.432  0.1090  0.1168 -1.1701
  140OSM    H2S15304   1.192   6.229   7.406 -0.5560  2.1072 -0.2971
  140OSM    C3S15305   1.296   6.386   7.504 -0.4090  0.0841 -0.0249
  140OSM    H3S15306   1.398   6.425   7.522  0.7911 -2.2056 -1.3997
  140OSM     O315307   1.235   6.383   7.633  0.6707  0.2585 -0.3031
  140OSM    HO315308   1.211   6.291   7.645  2.6514 -0.1571  0.8654
  140OSM    C4S15309   1.236   6.479   7.408  0.4244  0.9237  0.3649
  140OSM    H4S15310   1.313   6.510   7.336 -0.0069  0.9072 -0.1096
  140OSM    C5S15311   1.110   6.520   7.391  1.3628 -0.3376  0.3644
  140OSM    H5S15312   1.029   6.487   7.458  2.4678 -0.7707  1.5135
  140OSM    C6S15313   1.064   6.608   7.279 -0.3030  0.7807 -0.5799
  140OSM    H6S15314   1.150   6.670   7.247  2.1284 -0.3859  2.9853
  140OSM    H6T15315   0.984   6.673   7.319  0.8141  2.5488 -1.0838
  140OSM    C7S15316   1.025   6.537   7.150  0.2752  0.4347  0.5406
  140OSM    H7S15317   0.960   6.447   7.160 -2.2099  2.0458 -0.2855
  140OSM    H7T15318   1.122   6.504   7.106  0.3559 -1.4944  1.9982
  140OSM    C8S15319   0.974   6.636   7.036  0.4426  0.1788  0.5017
  140OSM    H8S15320   1.032   6.730   7.026 -0.1189  0.6299  1.3669
  140OSM    H8T15321   0.870   6.663   7.064 -0.1515 -2.5195  1.1769
  140OSM    C9S15322   0.979   6.571   6.893  0.7894  0.3709 -0.5108
  140OSM    H9S15323   0.896   6.498   6.898  1.7401 -0.8351 -1.5858
  140OSM    H9T15324   1.075   6.515   6.887 -0.1694 -1.1684 -2.8424
  140OSM   C10S15325   0.966   6.663   6.774 -0.1009  0.4078  0.6966
  140OSM   H10S15326   1.036   6.749   6.780 -2.8379  2.7637  0.9761
  140OSM   H10T15327   0.864   6.707   6.776 -0.1596  0.2402  1.9943
  140OSM   C11S15328   0.995   6.593   6.635  0.1000 -0.0332  0.6189
  140OSM   H11S15329   0.939   6.498   6.628 -0.0463  0.0678  0.3985
  140OSM   H11T15330   1.103   6.571   6.626 -0.2190 -0.8160 -2.5100
  140OSM   C12S15331   0.950   6.685   6.519  0.4036 -0.5211  0.0176
  140OSM   H12S15332   1.037   6.752   6.501  2.7834 -2.3852  3.3552
  140OSM   H12T15333   0.864   6.749   6.546  1.0768  0.8816 -1.0610
  140OSM   C13S15334   0.908   6.608   6.394 -0.3010 -0.6729  0.2084
  140OSM   H13S15335   0.809   6.565   6.419 -2.1328  2.4672 -1.0048
  140OSM   H13T15336   0.989   6.534   6.376  1.9032  1.3184  1.2474
  140OSM   C14S15337   0.890   6.701   6.275  0.6052 -0.3240  0.3788
  140OSM   H14S15338   0.988   6.751   6.256  0.0259  0.4207 -0.7028
  140OSM   H14T15339   0.821   6.787   6.287 -0.9344 -0.9778 -2.7217
  140OSM   C15S15340   0.850   6.635   6.147 -0.9466 -0.5469  0.0582
  140OSM   H15S15341   0.749   6.589   6.157  0.3794 -4.2049 -1.6746
  140OSM   H15T15342   0.926   6.559   6.120  0.0637 -0.6375  2.8457
  140OSM   C16S15343   0.849   6.743   6.047  0.5510  0.5725 -0.3205
  140OSM   H16S15344   0.938   6.809   6.039  3.2089 -2.7133 -0.0289
  140OSM   H16T15345   0.761   6.810   6.062 -1.0244 -1.2845 -0.8009
  140OSM   C17S15346   0.835   6.679   5.910  0.3285 -0.2758 -0.3811
  140OSM   H17S15347   0.730   6.651   5.889  0.6645  0.0426 -2.7403
  140OSM   H17T15348   0.898   6.587   5.905  0.7342  0.0531 -2.0279
  140OSM   C18S15349   0.893   6.769   5.808 -0.3361 -0.9438  0.7960
  140OSM   H18S15350   0.899   6.728   5.705 -1.5102 -0.1111  0.3638
  140OSM   H18T15351   0.998   6.796   5.834 -0.5691  0.3761  0.4776
  140OSM   H18U15352   0.839   6.866   5.813  1.2558  0.0959 -0.8344
  140OSM    C1F15353   1.360   6.140   7.226  0.5093  0.7689  0.1893
  140OSM     OF15354   1.278   6.047   7.240  0.6095  0.5741 -0.1420
  140OSM    C2F15355   1.457   6.147   7.104  0.4131 -0.1924 -0.4968
  140OSM    H2F15356   1.554   6.104   7.137  0.9043 -0.3600 -2.0806
  140OSM    H2G15357   1.481   6.255   7.097  0.1545 -0.1442 -0.6593
  140OSM    C3F15358   1.414   6.077   6.975  0.1470  0.3259  0.5197
  140OSM    H3F15359   1.311   6.107   6.946  0.6985 -0.6532 -2.8007
  140OSM    H3G15360   1.410   5.968   6.993  2.2905 -0.1767 -1.6087
  140OSM    C4F15361   1.522   6.106   6.861 -0.1116  0.2529  0.0299
  140OSM    H4F15362   1.626   6.104   6.902  0.0092 -0.3221 -0.2996
  140OSM    H4G15363   1.505   6.214   6.840 -3.9673 -0.6115 -2.1386
  140OSM    C5F15364   1.512   6.016   6.742  0.0158 -0.1324  0.8213
  140OSM    H5F15365   1.415   6.049   6.699  0.3271  0.6750  0.7336
  140OSM    H5G15366   1.509   5.905   6.750  1.0345 -0.2702 -0.3505
  140OSM    C6F15367   1.611   6.068   6.629  0.4783 -0.2774  0.1260
  140OSM    H6F15368   1.718   6.043   6.644  0.6476 -2.3353 -3.4501
  140OSM    H6G15369   1.603   6.179   6.628 -0.7567 -0.3437  0.7893
  140OSM    C7F15370   1.592   6.022   6.489 -0.5638 -0.0058  0.4090
  140OSM    H7F15371   1.504   6.070   6.441 -1.4570 -3.2140 -1.5006
  140OSM    H7G15372   1.570   5.913   6.501 -1.5280  0.2199  0.7901
  140OSM    C8F15373   1.723   6.033   6.400  0.2913 -0.5825 -0.6550
  140OSM    H8F15374   1.700   5.991   6.300  0.9953 -1.2347 -0.5520
  140OSM    H8G15375   1.803   5.972   6.448  1.1961  1.4729  0.5800
  140OSM    C9F15376   1.774   6.172   6.396 -0.0319  0.1555 -0.7141
  140OSM    H9F15377   1.787   6.227   6.490  1.3244  0.0088 -0.7917
  140OSM   C10F15378   1.782   6.242   6.281  0.0048  0.1285 -0.1673
  140OSM   H10F15379   1.810   6.348   6.287  2.5028 -0.4568 -0.0140
  140OSM   C11F15380   1.768   6.191   6.133 -0.6630 -0.9530  0.2904
  140OSM   H11F15381   1.790   6.082   6.137  2.7317 -0.3341  2.3319
  140OSM   H11G15382   1.844   6.235   6.065 -1.2543 -1.6777 -0.8790
  140OSM   C12F15383   1.636   6.220   6.059 -0.0281 -0.4580  0.1537
  140OSM   H12F15384   1.625   6.327   6.030  1.4790 -0.5052 -0.6920
  140OSM   H12G15385   1.546   6.202   6.122 -1.5496  0.5664 -1.6180
  140OSM   C13F15386   1.609   6.137   5.927 -0.2188  0.1164  0.5844
  140OSM   H13F15387   1.499   6.124   5.921 -0.1502 -1.4592  1.7203
  140OSM   H13G15388   1.667   6.042   5.930 -0.5975 -0.1148  0.6252
  140OSM   C14F15389   1.649   6.213   5.802  0.4849  0.0841 -0.2489
  140OSM   H14F15390   1.759   6.222   5.806  0.3606  1.6609  0.5139
  140OSM   H14G15391   1.608   6.316   5.814  0.0354 -0.2139  0.8414
  140OSM   C15F15392   1.593   6.152   5.670 -0.2286 -0.1973 -0.0381
  140OSM   H15F15393   1.482   6.156   5.678 -0.2704 -0.7728 -0.2482
  140OSM   H15G15394   1.629   6.047   5.669  1.2116  0.2549  1.0863
  140OSM   C16F15395   1.649   6.217   5.552 -0.5251  0.4491  0.4134
  140OSM   H16F15396   1.620   6.324   5.546 -0.3254  0.4815 -0.0125
  140OSM   H16G15397   1.607   6.175   5.458 -0.0560  0.7082  0.0827
  140OSM   C17F15398   1.804   6.218   5.522  0.2156  0.5660  0.0809
  140OSM   H17F15399   1.835   6.113   5.506 -4.4487 -1.5260  2.7784
  140OSM   H17G15400   1.861   6.253   5.610  0.7508 -0.3330  0.1067
  140OSM   C18F15401   1.842   6.311   5.405  0.6545 -0.2856  0.5947
  140OSM   H18F15402   1.948   6.291   5.378  0.2443 -1.1742 -0.4254
  140OSM   H18G15403   1.830   6.417   5.436  1.5909 -0.2841  0.9824
  140OSM   H18H15404   1.789   6.287   5.310  0.8833  0.1754  0.3449
  141OSM      N15405   5.882   5.144   8.427 -0.3467  0.5122 -0.5376
  141OSM    C1515406   5.744   5.176   8.376  0.0200 -0.3299  0.3186
  141OSM   H15A15407   5.746   5.181   8.268  0.1864  0.5784  0.3561
  141OSM   H15B15408   5.726   5.275   8.416 -0.0687  0.2462 -1.1090
  141OSM   H15C15409   5.666   5.107   8.404 -1.7736  1.4546 -0.0397
  141OSM    C1415410   5.964   5.267   8.416  0.3862 -0.1568  0.0529
  141OSM   H14A15411   5.995   5.283   8.314 -0.2090  1.3754  0.0871
  141OSM   H14B15412   6.052   5.262   8.480  0.5291  0.4555 -0.0805
  141OSM   H14C15413   5.910   5.355   8.450  0.6351 -0.0540  0.1911
  141OSM    C1315414   5.880   5.098   8.571  0.1712 -0.0165  0.4086
  141OSM   H13A15415   5.984   5.091   8.598  0.8358  0.5253 -1.8038
  141OSM   H13B15416   5.832   5.002   8.582 -1.6524  0.9859  1.6702
  141OSM   H13C15417   5.822   5.164   8.634 -0.5589 -2.5395  2.5426
  141OSM    C1215418   5.936   5.039   8.335 -0.0687  0.2651 -0.4494
  141OSM   H12A15419   5.896   4.939   8.342  0.0386  0.1321 -1.5313
  141OSM   H12B15420   6.038   5.020   8.365 -0.8031  0.0225  2.1421
  141OSM    C1115421   5.932   5.056   8.181 -0.1837  0.1681  0.0133
  141OSM   H11A15422   5.829   5.032   8.147  0.4927 -1.8497 -0.7619
  141OSM   H11B15423   6.001   4.979   8.140 -0.3165  1.0081 -1.8414
  141OSM      P15424   6.125   5.203   8.087 -0.0815  0.5495  0.1413
  141OSM    O1315425   6.160   5.340   8.051 -1.0216 -0.1244 -0.0344
  141OSM    O1415426   6.209   5.142   8.194  0.4591 -0.0109 -0.2441
  141OSM    O1115427   6.123   5.102   7.966  0.2134  0.1215 -0.4159
  141OSM    O1215428   5.978   5.187   8.128  0.1749 -0.2434  0.0383
  141OSM    C1S15429   6.025   5.123   7.861 -0.2065 -0.1682  0.3466
  141OSM    H1S15430   5.988   5.228   7.852 -0.8971 -0.4884 -0.9154
  141OSM    H1T15431   5.941   5.059   7.896  0.7769  0.1750  3.6075
  141OSM     NF15432   5.986   5.124   7.624 -0.1612  0.1374 -0.4215
  141OSM    HNF15433   5.914   5.065   7.589 -0.6627 -0.2854  1.2475
  141OSM    C2S15434   6.072   5.078   7.728  0.0063  0.4983 -0.2290
  141OSM    H2S15435   6.170   5.126   7.704 -0.8205  1.4660 -1.9048
  141OSM    C3S15436   6.089   4.917   7.719  0.4214 -0.1377  0.1486
  141OSM    H3S15437   5.982   4.884   7.720  0.3670  0.0315  1.2368
  141OSM     O315438   6.154   4.849   7.829  0.0517  0.2425 -0.6578
  141OSM    HO315439   6.181   4.923   7.884 -2.3376  0.4949  0.2740
  141OSM    C4S15440   6.140   4.871   7.583 -0.8608  0.2088 -0.3509
  141OSM    H4S15441   6.061   4.876   7.506  0.5223  1.4560 -1.7612
  141OSM    C5S15442   6.268   4.871   7.536 -0.1892  0.0367  0.0880
  141OSM    H5S15443   6.344   4.932   7.587 -0.0114  0.5123 -0.7244
  141OSM    C6S15444   6.317   4.842   7.398 -0.1606 -0.2556 -0.2461
  141OSM    H6S15445   6.318   4.732   7.388  1.3205 -0.2403 -0.4191
  141OSM    H6T15446   6.426   4.864   7.398 -0.0234 -0.6892  1.8596
  141OSM    C7S15447   6.253   4.924   7.286  0.7095  0.3814 -0.3848
  141OSM    H7S15448   6.273   5.033   7.300 -1.0307  0.6779 -0.0183
  141OSM    H7T15449   6.145   4.901   7.291  0.5986  1.0270  0.4505
  141OSM    C8S15450   6.317   4.880   7.152 -0.0627  0.2962  0.1443
  141OSM    H8S15451   6.275   4.779   7.135  0.1687 -0.0130  1.3070
  141OSM    H8T15452   6.427   4.872   7.154 -0.0795  0.1565  0.4860
  141OSM    C9S15453   6.284   4.961   7.022  0.2371  0.3602  0.9304
  141OSM    H9S15454   6.336   5.059   7.025  0.8963 -0.0062  1.8909
  141OSM    H9T15455   6.176   4.986   7.024  0.0353 -0.3938  0.0559
  141OSM   C10S15456   6.318   4.889   6.891 -0.2753  0.5372 -0.1453
  141OSM   H10S15457   6.254   4.798   6.886 -2.0876  1.7450  0.0966
  141OSM   H10T15458   6.424   4.857   6.889 -0.2429  0.6488 -0.2444
  141OSM   C11S15459   6.290   4.971   6.766  0.5344  0.0503 -0.2708
  141OSM   H11S15460   6.337   5.072   6.767 -1.9203  1.2660  0.6879
  141OSM   H11T15461   6.180   4.988   6.765  0.6148  0.6792  0.8184
  141OSM   C12S15462   6.325   4.902   6.640 -0.0316  0.3765 -0.0193
  141OSM   H12S15463   6.277   4.802   6.640 -0.2269  0.4455  1.3659
  141OSM   H12T15464   6.435   4.889   6.635 -0.1202 -0.4374  0.1310
  141OSM   C13S15465   6.284   4.985   6.522 -0.6459 -0.1332 -0.2677
  141OSM   H13S15466   6.345   5.078   6.521  0.6189 -0.7060  3.7097
  141OSM   H13T15467   6.185   5.030   6.546  0.6647  2.3784  0.7890
  141OSM   C14S15468   6.284   4.918   6.382 -0.1030 -0.4183 -0.0933
  141OSM   H14S15469   6.231   4.820   6.385  1.4005 -1.3130 -1.1884
  141OSM   H14T15470   6.385   4.877   6.356 -0.1053 -1.4157  1.3291
  141OSM   C15S15471   6.260   5.020   6.272  0.4074 -0.6441 -0.7423
  141OSM   H15S15472   6.330   5.106   6.277 -1.7338  1.2806 -1.8965
  141OSM   H15T15473   6.163   5.068   6.296  0.0597 -0.8703 -1.6359
  141OSM   C16S15474   6.260   4.960   6.134  0.0547  0.3351  0.0696
  141OSM   H16S15475   6.193   5.024   6.073 -4.1850 -0.6693  3.2474
  141OSM   H16T15476   6.196   4.870   6.141  1.8118 -1.0152 -0.3568
  141OSM   C17S15477   6.388   4.915   6.070 -0.0221  0.0504  0.0209
  141OSM   H17S15478   6.437   4.850   6.146 -0.5419  1.5066  1.6623
  141OSM   H17T15479   6.439   5.013   6.056  2.0828 -0.8438  0.8781
  141OSM   C18S15480   6.373   4.829   5.943  0.1578 -0.0782  0.6543
  141OSM   H18S15481   6.288   4.758   5.950  1.7388 -1.9415  2.0586
  141OSM   H18T15482   6.468   4.779   5.914  0.5092 -0.0765  1.7496
  141OSM   H18U15483   6.352   4.898   5.858  0.3515  0.2498  0.8673
  141OSM    C1F15484   5.974   5.253   7.598  0.2678 -0.4587  0.0931
  141OSM     OF15485   6.030   5.345   7.660 -0.2723  0.2145  0.3030
  141OSM    C2F15486   5.890   5.283   7.478 -0.0861 -0.0832 -0.1667
  141OSM    H2F15487   5.782   5.296   7.501  0.2832  1.4474  0.7869
  141OSM    H2G15488   5.889   5.194   7.411 -0.6833 -0.6114  0.5321
  141OSM    C3F15489   5.941   5.392   7.381 -0.4288  0.0680 -0.1083
  141OSM    H3F15490   5.981   5.469   7.451  1.8361 -0.6230 -0.5448
  141OSM    H3G15491   5.860   5.439   7.322 -0.2619 -0.8665 -1.1210
  141OSM    C4F15492   6.052   5.353   7.291 -0.7817 -0.2572  0.1685
  141OSM    H4F15493   6.135   5.321   7.358 -1.3766 -0.8174  0.6564
  141OSM    H4G15494   6.087   5.440   7.231  1.8690 -1.7578 -0.6193
  141OSM    C5F15495   6.027   5.236   7.193  0.2466 -0.0711 -0.4392
  141OSM    H5F15496   5.992   5.146   7.247  0.5133  0.2164  0.2283
  141OSM    H5G15497   6.117   5.204   7.136  0.2094 -3.4479  1.1554
  141OSM    C6F15498   5.909   5.258   7.088  0.3516  0.4556  0.3918
  141OSM    H6F15499   5.824   5.282   7.156 -0.5302  0.2078 -0.5769
  141OSM    H6G15500   5.886   5.158   7.044  1.9994  0.5384 -0.7363
  141OSM    C7F15501   5.921   5.379   6.992 -0.3181 -0.3227  0.2613
  141OSM    H7F15502   5.935   5.466   7.060  2.5325 -0.1107 -0.4660
  141OSM    H7G15503   5.824   5.388   6.940  0.1623  1.0902 -0.4398
  141OSM    C8F15504   6.056   5.380   6.912  0.0514  0.7637 -0.2734
  141OSM    H8F15505   6.143   5.362   6.978 -0.6808  0.9068  0.7690
  141OSM    H8G15506   6.063   5.480   6.864 -0.1073  1.1490  0.4812
  141OSM    C9F15507   6.054   5.266   6.812  0.1835  0.6811 -0.2853
  141OSM    H9F15508   6.056   5.162   6.848  1.3480 -0.1189 -2.4525
  141OSM   C10F15509   6.062   5.278   6.677  0.1064  0.3509 -0.3844
  141OSM   H10F15510   6.057   5.189   6.612 -1.0070  0.0166  0.1395
  141OSM   C11F15511   6.075   5.411   6.602 -0.4230 -0.5271 -0.0139
  141OSM   H11F15512   6.113   5.497   6.661  2.1280  1.6135 -4.2599
  141OSM   H11G15513   5.977   5.454   6.573  1.8210  3.9987 -1.7723
  141OSM   C12F15514   6.161   5.410   6.476 -1.0597  0.1411  0.3736
  141OSM   H12F15515   6.240   5.332   6.468  0.5427  1.7207  0.1909
  141OSM   H12G15516   6.219   5.504   6.466  0.1589 -0.7687 -2.1309
  141OSM   C13F15517   6.064   5.390   6.356  0.1543  0.8482  0.7342
  141OSM   H13F15518   5.995   5.477   6.361 -2.3000 -1.0104  1.1359
  141OSM   H13G15519   6.003   5.298   6.367  0.2756  0.8241  1.2656
  141OSM   C14F15520   6.135   5.396   6.218 -0.8281  0.0819 -0.2710
  141OSM   H14F15521   6.200   5.306   6.220  3.6723  2.9539 -1.5414
  141OSM   H14G15522   6.202   5.485   6.222 -0.2955 -0.3363  0.1691
  141OSM   C15F15523   6.046   5.408   6.097 -0.5352  0.2675 -0.0085
  141OSM   H15F15524   6.082   5.496   6.039  2.6660 -1.3617 -0.7212
  141OSM   H15G15525   5.942   5.412   6.136 -0.4548 -1.6276  0.5138
  141OSM   C16F15526   6.052   5.293   5.997 -0.2652 -0.0950 -0.9336
  141OSM   H16F15527   5.958   5.268   5.943 -0.8914 -0.7766  0.4180
  141OSM   H16G15528   6.082   5.202   6.054  0.0610  1.0161  0.7565
  141OSM   C17F15529   6.157   5.319   5.889  0.1693 -0.0179 -0.0019
  141OSM   H17F15530   6.253   5.329   5.943  0.3893  0.2332 -0.4334
  141OSM   H17G15531   6.137   5.417   5.839 -0.5062  1.2095  2.4831
  141OSM   C18F15532   6.168   5.198   5.794  0.2733 -0.1483 -0.0012
  141OSM   H18F15533   6.204   5.108   5.848  2.4050  1.7400  1.9085
  141OSM   H18G15534   6.232   5.219   5.705 -0.4358  1.6594 -0.1353
  141OSM   H18H15535   6.065   5.193   5.753 -0.0260  1.3390  0.5311
  142OSM      N15536   0.507   5.394   7.872 -0.0376  0.7770 -0.2848
  142OSM    C1515537   0.538   5.293   7.979  0.2781  0.3042 -0.6393
  142OSM   H15A15538   0.603   5.346   8.047 -2.0163 -1.3910  3.1884
  142OSM   H15B15539   0.573   5.202   7.933  1.0388  0.2726 -0.0115
  142OSM   H15C15540   0.451   5.260   8.035 -0.4306  1.3642 -1.0794
  142OSM    C1415541   0.426   5.332   7.766 -0.3002  0.0734 -0.3584
  142OSM   H14A15542   0.387   5.408   7.700  2.0376  1.5359 -0.1834
  142OSM   H14B15543   0.349   5.270   7.809 -0.0369 -1.0063 -1.3870
  142OSM   H14C15544   0.490   5.263   7.714  0.9197  0.7200  0.2498
  142OSM    C1315545   0.410   5.502   7.929 -0.9532 -0.0895 -0.1026
  142OSM   H13A15546   0.373   5.565   7.849 -0.5576  2.6783  1.7622
  142OSM   H13B15547   0.464   5.560   8.002  2.2634  0.6243 -2.8147
  142OSM   H13C15548   0.316   5.466   7.969 -1.4021  1.8409  0.6590
  142OSM    C1215549   0.626   5.454   7.816  0.4061  0.3791  0.2247
  142OSM   H12A15550   0.606   5.538   7.751 -0.8181 -1.3550 -1.7988
  142OSM   H12B15551   0.666   5.379   7.749 -0.6962  0.6675 -0.8058
  142OSM    C1115552   0.743   5.494   7.915  0.8748 -0.2318  1.0607
  142OSM   H11A15553   0.689   5.554   7.992 -0.8460 -0.6814  0.2606
  142OSM   H11B15554   0.820   5.558   7.865  1.8668 -0.7979  1.8451
  142OSM      P15555   0.905   5.287   7.874 -0.6125 -0.2549 -0.2300
  142OSM    O1315556   1.039   5.341   7.898  0.1874  0.0985  0.1566
  142OSM    O1415557   0.873   5.144   7.905  0.0071  0.5532  0.3093
  142OSM    O1115558   0.875   5.324   7.719 -0.2975  0.3401  0.5472
  142OSM    O1215559   0.798   5.374   7.962 -0.3189 -0.2233  0.5210
  142OSM    C1S15560   0.992   5.348   7.633 -0.0644 -0.3090  0.1523
  142OSM    H1S15561   1.069   5.269   7.633  0.9253  0.6312 -0.8633
  142OSM    H1T15562   1.040   5.447   7.650  1.1253 -0.8798  0.1774
  142OSM     NF15563   1.073   5.330   7.395  0.4858 -0.1047 -0.0311
  142OSM    HNF15564   1.100   5.409   7.341  1.8175  0.9886  2.0873
  142OSM    C2S15565   0.952   5.348   7.484 -0.5044  0.3441 -0.3003
  142OSM    H2S15566   0.881   5.266   7.461 -0.4202  0.6319 -1.7048
  142OSM    C3S15567   0.860   5.474   7.450 -0.2965  0.0824  0.2309
  142OSM    H3S15568   0.930   5.561   7.445 -0.0513 -0.1315 -0.1010
  142OSM     O315569   0.765   5.506   7.551 -0.1125  0.5283 -0.5237
  142OSM    HO315570   0.790   5.447   7.622 -0.0564  1.5696  0.3374
  142OSM    C4S15571   0.806   5.464   7.305 -0.3184  0.1906  0.3006
  142OSM    H4S15572   0.886   5.506   7.242  1.2856  1.5235  3.0524
  142OSM    C5S15573   0.696   5.401   7.259  0.3578  0.3380 -0.3023
  142OSM    H5S15574   0.624   5.362   7.333  0.9209 -1.1938 -0.5135
  142OSM    C6S15575   0.645   5.393   7.119 -0.1362  0.6637 -0.4942
  142OSM    H6S15576   0.543   5.438   7.115 -1.1917 -1.6316 -0.8622
  142OSM    H6T15577   0.641   5.283   7.111  0.6206  0.6043 -0.1796
  142OSM    C7S15578   0.732   5.438   7.000 -0.5939  0.0641 -0.2884
  142OSM    H7S15579   0.831   5.388   7.005 -1.6400 -2.0023  0.8688
  142OSM    H7T15580   0.750   5.548   7.006 -1.3878  0.1182  2.2924
  142OSM    C8S15581   0.650   5.427   6.872  0.6376  0.8919  0.0445
  142OSM    H8S15582   0.556   5.485   6.885 -0.5721 -0.7932 -0.7437
  142OSM    H8T15583   0.627   5.319   6.857  1.2415  0.9660 -1.6018
  142OSM    C9S15584   0.735   5.459   6.750  0.6209 -0.2650 -0.0979
  142OSM    H9S15585   0.831   5.405   6.763  1.4539  0.9595 -0.9410
  142OSM    H9T15586   0.773   5.563   6.747  0.8949 -0.3219  0.9268
  142OSM   C10S15587   0.659   5.424   6.622  0.1213 -0.1921 -0.1990
  142OSM   H10S15588   0.565   5.484   6.616  0.5670  0.4193 -3.3069
  142OSM   H10T15589   0.643   5.315   6.609 -2.1703  0.3188 -2.8107
  142OSM   C11S15590   0.749   5.450   6.498 -0.1732 -0.1854 -0.8361
  142OSM   H11S15591   0.843   5.393   6.516 -0.4412  0.2000  2.2525
  142OSM   H11T15592   0.766   5.559   6.484 -0.5509 -0.0769 -0.4437
  142OSM   C12S15593   0.682   5.414   6.363 -0.0459 -0.4130  0.4348
  142OSM   H12S15594   0.583   5.460   6.344  0.3867 -1.1816 -6.4761
  142OSM   H12T15595   0.665   5.305   6.358 -0.5702 -0.3927  1.6224
  142OSM   C13S15596   0.772   5.453   6.247  0.5663  0.1913  0.1157
  142OSM   H13S15597   0.878   5.434   6.272  0.7646 -2.1620 -2.1819
  142OSM   H13T15598   0.757   5.561   6.226  0.3399  0.6609  2.4062
  142OSM   C14S15599   0.738   5.363   6.129 -0.3508 -0.1103 -0.4051
  142OSM   H14S15600   0.630   5.385   6.112 -0.1111  2.1869  0.5688
  142OSM   H14T15601   0.768   5.261   6.159 -0.2367  0.3474  1.1234
  142OSM   C15S15602   0.820   5.398   6.003 -0.3243 -0.0546  0.1996
  142OSM   H15S15603   0.925   5.409   6.037  0.3775 -1.0889 -1.5145
  142OSM   H15T15604   0.791   5.498   5.964  1.0858  0.8031  1.2815
  142OSM   C16S15605   0.806   5.305   5.879  0.2490 -0.8517  0.2090
  142OSM   H16S15606   0.705   5.312   5.834  0.5437  0.0475 -0.3432
  142OSM   H16T15607   0.820   5.198   5.903  0.4222 -1.0015 -0.5383
  142OSM   C17S15608   0.917   5.324   5.773  0.4141  0.9150  0.0557
  142OSM   H17S15609   0.916   5.425   5.728  0.4230  0.8136 -0.1747
  142OSM   H17T15610   0.910   5.243   5.698  2.8920  1.1028 -0.4577
  142OSM   C18S15611   1.061   5.315   5.824  0.2028  0.5364 -0.0777
  142OSM   H18S15612   1.090   5.376   5.912  0.1949 -1.2854  1.2506
  142OSM   H18T15613   1.130   5.336   5.740  0.2605 -0.6357 -0.3427
  142OSM   H18U15614   1.087   5.210   5.853  1.6171  0.9788  0.3522
  142OSM    C1F15615   1.142   5.217   7.396 -0.0779 -0.1654  0.9923
  142OSM     OF15616   1.105   5.114   7.451  0.1628  0.3783  0.4087
  142OSM    C2F15617   1.275   5.226   7.320  0.5299  0.8695  0.8706
  142OSM    H2F15618   1.347   5.228   7.404  0.8794 -1.8069  0.7278
  142OSM    H2G15619   1.282   5.318   7.259 -0.7692 -0.3590 -1.2908
  142OSM    C3F15620   1.288   5.101   7.229 -0.6016 -0.6349 -0.3775
  142OSM    H3F15621   1.227   5.105   7.136  0.7928 -1.6309 -1.3802
  142OSM    H3G15622   1.266   5.008   7.284  0.5779 -0.3802  0.5819
  142OSM    C4F15623   1.434   5.101   7.180 -0.0648 -0.5960 -0.7876
  142OSM    H4F15624   1.494   5.112   7.273 -0.0065 -0.3479 -0.8544
  142OSM    H4G15625   1.462   5.179   7.107 -0.5958 -0.1014 -0.4769
  142OSM    C5F15626   1.468   4.961   7.119 -0.3652 -0.0377  0.8599
  142OSM    H5F15627   1.417   4.886   7.183 -2.5432 -1.3266 -2.1057
  142OSM    H5G15628   1.579   4.957   7.125 -0.0378  0.1676 -2.7261
  142OSM    C6F15629   1.415   4.940   6.972 -0.0459 -0.3684 -0.3887
  142OSM    H6F15630   1.306   4.928   6.987  0.0025 -1.8588 -1.0156
  142OSM    H6G15631   1.447   4.842   6.931 -1.5800 -0.8082 -0.5795
  142OSM    C7F15632   1.440   5.060   6.881 -0.2411  0.1214 -0.3180
  142OSM    H7F15633   1.549   5.082   6.872 -0.3521  0.7648 -0.1578
  142OSM    H7G15634   1.393   5.151   6.924  1.3184  0.2911  1.1281
  142OSM    C8F15635   1.375   5.037   6.740 -0.4201 -0.1926  0.1054
  142OSM    H8F15636   1.348   5.133   6.691  1.5935  0.3679  0.0371
  142OSM    H8G15637   1.281   4.980   6.760  1.3870 -2.3981  3.2954
  142OSM    C9F15638   1.466   4.941   6.656 -0.6566 -0.1308 -0.7292
  142OSM    H9F15639   1.560   4.894   6.689  0.9220  1.1135 -3.1379
  142OSM   C10F15640   1.457   4.937   6.522 -0.4955  0.0117  0.5009
  142OSM   H10F15641   1.518   4.865   6.465 -0.9807  0.5537 -0.7365
  142OSM   C11F15642   1.354   5.012   6.445  0.4643 -0.4167 -0.1625
  142OSM   H11F15643   1.276   5.067   6.501 -1.4846 -1.7820 -1.3789
  142OSM   H11G15644   1.297   4.934   6.390  0.8912  0.6801 -2.2477
  142OSM   C12F15645   1.396   5.113   6.332  0.7766 -0.5958  0.2008
  142OSM   H12F15646   1.445   5.202   6.376 -1.0270 -0.6192  2.4071
  142OSM   H12G15647   1.302   5.145   6.280  2.1106 -0.9050 -2.6260
  142OSM   C13F15648   1.492   5.061   6.226  0.4423 -0.3179 -0.0188
  142OSM   H13F15649   1.457   4.963   6.187  0.2355 -0.8651  1.4881
  142OSM   H13G15650   1.596   5.057   6.267  0.6257 -2.6374 -0.5264
  142OSM   C14F15651   1.486   5.158   6.110  0.7890  0.0873 -0.2294
  142OSM   H14F15652   1.518   5.253   6.158  0.6356 -0.1338  0.3149
  142OSM   H14G15653   1.379   5.172   6.082  0.2293 -2.5010  0.3433
  142OSM   C15F15654   1.572   5.139   5.984 -0.3020  0.0181  0.0857
  142OSM   H15F15655   1.677   5.137   6.021  0.4360  1.5430 -1.7763
  142OSM   H15G15656   1.553   5.221   5.912  0.8996  2.2811  2.1932
  142OSM   C16F15657   1.547   5.003   5.912  0.2623 -0.7587  0.7659
  142OSM   H16F15658   1.573   4.920   5.982 -0.6578 -1.4035  0.3664
  142OSM   H16G15659   1.615   5.004   5.824 -1.0035  0.2299 -0.2284
  142OSM   C17F15660   1.393   4.982   5.858 -0.4958  0.0869 -0.1562
  142OSM   H17F15661   1.317   5.017   5.930 -1.2864  1.6190 -1.6471
  142OSM   H17G15662   1.385   4.877   5.824  1.1841 -0.3380  0.6477
  142OSM   C18F15663   1.376   5.081   5.735  0.6583 -0.5217  0.5214
  142OSM   H18F15664   1.464   5.076   5.668  2.4723 -1.0206  2.7918
  142OSM   H18G15665   1.386   5.185   5.775  4.2584  0.2121 -1.8355
  142OSM   H18H15666   1.280   5.074   5.679  1.7584 -1.4235 -1.3375
  143OSM      N15667   2.634   1.299   7.749  0.1282  0.1459  0.2366
  143OSM    C1515668   2.649   1.150   7.775 -0.1954  0.3860 -0.3178
  143OSM   H15A15669   2.558   1.110   7.815 -0.5163 -0.2466 -1.6067
  143OSM   H15B15670   2.732   1.142   7.843  0.3063  2.5547 -0.6001
  143OSM   H15C15671   2.663   1.100   7.679  1.6074 -1.4496  0.8145
  143OSM    C1415672   2.554   1.312   7.621  0.3024 -0.2615 -1.0144
  143OSM   H14A15673   2.554   1.416   7.592  0.8152  1.0972  3.1526
  143OSM   H14B15674   2.451   1.279   7.628  0.2776  0.2636  2.4555
  143OSM   H14C15675   2.597   1.267   7.532  0.0469  0.3309 -1.4441
  143OSM    C1315676   2.572   1.363   7.865 -0.4422  0.2632 -0.4334
  143OSM   H13A15677   2.470   1.340   7.893 -0.7924  3.3934  1.3517
  143OSM   H13B15678   2.556   1.470   7.867 -1.5949  0.0892  1.4318
  143OSM   H13C15679   2.634   1.349   7.952 -1.5922 -3.6160 -0.0292
  143OSM    C1215680   2.763   1.367   7.729 -0.2750 -0.4222  0.4599
  143OSM   H12A15681   2.747   1.473   7.715  2.2518 -0.1062 -0.6234
  143OSM   H12B15682   2.814   1.334   7.639  0.3209 -0.8796  0.9539
  143OSM    C1115683   2.871   1.366   7.838 -0.3821  0.5637 -0.3504
  143OSM   H11A15684   2.815   1.389   7.932 -0.9613 -0.0348 -0.5446
  143OSM   H11B15685   2.943   1.447   7.816 -1.2335  1.1899 -0.9059
  143OSM      P15686   3.040   1.187   7.741 -0.0023 -0.0288 -0.0344
  143OSM    O1315687   3.141   1.293   7.740  0.3485 -0.6564 -0.3760
  143OSM    O1415688   3.076   1.044   7.775  0.3977 -0.0343 -0.2432
  143OSM    O1115689   2.954   1.190   7.605 -0.3819  0.7299 -0.5688
  143OSM    O1215690   2.932   1.237   7.841  0.0416  0.1438 -0.5904
  143OSM    C1S15691   3.007   1.241   7.477 -0.0390  0.2796 -0.4226
  143OSM    H1S15692   3.118   1.239   7.482 -0.0746 -0.9874  0.5505
  143OSM    H1T15693   2.980   1.348   7.465  0.6179  0.5373  0.2610
  143OSM     NF15694   3.078   1.195   7.240  0.1013  0.0679  0.4603
  143OSM    HNF15695   3.044   1.274   7.189 -0.4607  0.1622  0.9733
  143OSM    C2S15696   2.985   1.161   7.346  0.3247  0.3655  0.1905
  143OSM    H2S15697   3.001   1.054   7.370 -0.3794 -0.1481 -1.4879
  143OSM    C3S15698   2.843   1.185   7.298 -0.0912  0.0854 -0.7820
  143OSM    H3S15699   2.830   1.296   7.291 -0.1363  0.0799 -0.7886
  143OSM     O315700   2.739   1.146   7.390 -0.1370  0.2404  0.2682
  143OSM    HO315701   2.790   1.118   7.466 -0.0468 -2.0684 -0.5710
  143OSM    C4S15702   2.812   1.117   7.165  0.0825 -0.9835 -0.1207
  143OSM    H4S15703   2.782   1.177   7.077  0.2405 -1.7471 -0.7086
  143OSM    C5S15704   2.802   0.984   7.154  0.5165 -0.2459  0.1824
  143OSM    H5S15705   2.799   0.921   7.244  0.0831 -1.2528 -0.5222
  143OSM    C6S15706   2.764   0.913   7.027 -0.0148  0.1691 -0.0190
  143OSM    H6S15707   2.654   0.895   7.019  0.2140 -2.2363  1.2728
  143OSM    H6T15708   2.816   0.815   7.023  0.6057  0.5079 -0.2907
  143OSM    C7S15709   2.818   0.980   6.900 -0.0703 -0.1263  0.4673
  143OSM    H7S15710   2.911   1.039   6.917  0.4911 -0.3825 -1.4764
  143OSM    H7T15711   2.744   1.052   6.859  0.9291 -1.6829 -4.9049
  143OSM    C8S15712   2.850   0.882   6.787 -0.0859  0.4325 -0.0412
  143OSM    H8S15713   2.779   0.797   6.786  0.5854 -0.1409  0.0479
  143OSM    H8T15714   2.948   0.831   6.804 -1.7690 -3.2652 -0.4703
  143OSM    C9S15715   2.857   0.952   6.654  0.1252 -0.5881 -0.2352
  143OSM    H9S15716   2.934   1.032   6.664  0.3573 -0.9296  0.8569
  143OSM    H9T15717   2.764   1.009   6.633  1.1227  0.9823 -0.6241
  143OSM   C10S15718   2.886   0.872   6.527  0.6513  1.0248  0.3943
  143OSM   H10S15719   2.797   0.807   6.516  1.3110  0.4659 -2.1886
  143OSM   H10T15720   2.970   0.800   6.541  0.8626  1.1064 -0.4524
  143OSM   C11S15721   2.915   0.946   6.399 -0.1190 -0.3310  0.7509
  143OSM   H11S15722   3.007   1.008   6.398  0.2265 -0.8400  0.7693
  143OSM   H11T15723   2.830   1.018   6.398 -1.3578 -1.6448  3.0576
  143OSM   C12S15724   2.938   0.853   6.274  0.6505 -0.3903  0.2159
  143OSM   H12S15725   2.854   0.780   6.277  2.1587 -2.1730  0.2932
  143OSM   H12T15726   3.034   0.800   6.288  0.7045 -0.5427 -0.6913
  143OSM   C13S15727   2.942   0.918   6.136  0.2860  0.8933 -0.3566
  143OSM   H13S15728   3.028   0.989   6.137 -0.2761  1.5829  0.1769
  143OSM   H13T15729   2.846   0.974   6.132 -0.5823 -0.5646 -0.4318
  143OSM   C14S15730   2.972   0.819   6.017  0.1763 -0.3522 -1.0158
  143OSM   H14S15731   2.927   0.718   6.031  1.0741 -0.6619 -0.2673
  143OSM   H14T15732   3.077   0.786   6.032 -0.3094 -1.5503 -0.0171
  143OSM   C15S15733   2.956   0.881   5.875 -0.6734 -0.3845  0.8712
  143OSM   H15S15734   2.992   0.984   5.891  1.3863 -0.9034 -0.1636
  143OSM   H15T15735   2.847   0.887   5.855 -0.8201  0.3065  1.8065
  143OSM   C16S15736   3.026   0.820   5.756 -0.5480  0.4785  0.5205
  143OSM   H16S15737   3.113   0.770   5.803 -0.1343  2.4310  1.9563
  143OSM   H16T15738   3.056   0.892   5.677  2.9541 -2.0223 -0.7207
  143OSM   C17S15739   2.950   0.704   5.696  0.2476  0.3921 -0.2789
  143OSM   H17S15740   2.867   0.668   5.760  0.3236  1.5971  0.5366
  143OSM   H17T15741   3.021   0.619   5.699 -0.8260 -0.5644  3.4222
  143OSM   C18S15742   2.890   0.740   5.561 -0.0558  0.6712  0.1646
  143OSM   H18S15743   2.968   0.732   5.482 -0.7328 -0.2126 -0.4314
  143OSM   H18T15744   2.844   0.841   5.570  0.3843  0.8070  1.0578
  143OSM   H18U15745   2.801   0.677   5.544 -0.9926  1.6841  1.0859
  143OSM    C1F15746   3.201   1.156   7.225  0.1104  0.5591  0.0165
  143OSM     OF15747   3.264   1.098   7.314  0.1378  0.1949  0.2477
  143OSM    C2F15748   3.267   1.191   7.100 -0.3331  0.4083  0.6252
  143OSM    H2F15749   3.377   1.177   7.092  0.1482  3.7326 -0.1478
  143OSM    H2G15750   3.228   1.287   7.061 -2.6553 -1.4553 -1.9983
  143OSM    C3F15751   3.216   1.081   6.996 -0.2338 -0.2407 -0.7581
  143OSM    H3F15752   3.106   1.077   7.004 -0.0994 -0.7227  3.8391
  143OSM    H3G15753   3.262   0.984   7.025  2.1777  0.5489 -1.7047
  143OSM    C4F15754   3.249   1.118   6.851 -1.2011 -0.1518 -0.3331
  143OSM    H4F15755   3.359   1.135   6.844 -1.2919  0.7385  0.2067
  143OSM    H4G15756   3.201   1.213   6.821 -3.0695 -1.3669 -1.4133
  143OSM    C5F15757   3.211   1.007   6.754 -0.5882  0.0656 -0.3226
  143OSM    H5F15758   3.109   0.964   6.762 -0.0103 -1.0586  1.7403
  143OSM    H5G15759   3.281   0.923   6.774 -0.2671  0.2299 -0.7547
  143OSM    C6F15760   3.227   1.038   6.605  0.7326 -0.2593 -0.3304
  143OSM    H6F15761   3.168   1.124   6.570  2.4894  0.9574 -0.4518
  143OSM    H6G15762   3.207   0.946   6.546 -2.1319  0.0594  0.0293
  143OSM    C7F15763   3.375   1.065   6.560 -0.3413 -0.7658  0.4306
  143OSM    H7F15764   3.430   0.982   6.608  0.4983  0.5896  1.9085
  143OSM    H7G15765   3.408   1.161   6.606 -1.1308 -0.3358  0.1231
  143OSM    C8F15766   3.395   1.046   6.413 -0.7599  0.4611  0.4529
  143OSM    H8F15767   3.352   0.946   6.393  1.0545 -0.5168  1.1564
  143OSM    H8G15768   3.505   1.027   6.404 -0.3180  2.6555  0.6926
  143OSM    C9F15769   3.344   1.162   6.336 -0.3888 -0.8186 -0.1923
  143OSM    H9F15770   3.324   1.254   6.393 -2.4523 -0.7071 -1.0097
  143OSM   C10F15771   3.363   1.181   6.203 -0.0017 -0.4681 -0.5364
  143OSM   H10F15772   3.313   1.267   6.155  0.5943 -0.0904 -0.4889
  143OSM   C11F15773   3.420   1.088   6.103  0.4588 -0.9735 -0.5066
  143OSM   H11F15774   3.413   0.985   6.143 -0.2155 -1.7248 -2.4571
  143OSM   H11G15775   3.529   1.107   6.104  0.0847  2.0829  2.9509
  143OSM   C12F15776   3.367   1.083   5.958 -0.0446  0.4415  0.2421
  143OSM   H12F15777   3.367   1.183   5.909  1.9295  0.4062  0.1007
  143OSM   H12G15778   3.260   1.053   5.947 -0.0484 -0.4652  2.2747
  143OSM   C13F15779   3.454   0.987   5.867  0.1708 -0.4565 -0.1551
  143OSM   H13F15780   3.421   0.881   5.876 -2.8735  0.4350  0.2277
  143OSM   H13G15781   3.559   1.007   5.897 -0.0679 -0.1575  0.4843
  143OSM   C14F15782   3.436   1.005   5.717  0.3617  0.3534 -0.7099
  143OSM   H14F15783   3.454   1.104   5.670  0.2279 -0.3480 -2.3026
  143OSM   H14G15784   3.326   0.996   5.702  0.3014  0.5366 -0.3828
  143OSM   C15F15785   3.502   0.896   5.633 -0.0524 -0.0571 -0.6011
  143OSM   H15F15786   3.468   0.799   5.673  0.8370 -0.1591 -0.0792
  143OSM   H15G15787   3.612   0.894   5.640 -0.0302 -3.0592 -0.7806
  143OSM   C16F15788   3.452   0.905   5.483  0.2054 -0.0031 -0.1371
  143OSM   H16F15789   3.521   0.872   5.403 -0.2531  0.4887 -0.7402
  143OSM   H16G15790   3.422   1.009   5.458 -0.3627 -0.0763  0.2054
  143OSM   C17F15791   3.330   0.811   5.453 -0.0792 -0.0852  0.4854
  143OSM   H17F15792   3.257   0.828   5.535  1.1497 -0.8616  1.7729
  143OSM   H17G15793   3.381   0.713   5.465 -0.2073  0.1426  3.7653
  143OSM   C18F15794   3.267   0.830   5.312  0.1355  0.3620  0.0312
  143OSM   H18F15795   3.219   0.929   5.297 -2.8144 -1.0342 -0.4814
  143OSM   H18G15796   3.192   0.749   5.301 -0.2403  0.6152  0.6944
  143OSM   H18H15797   3.348   0.810   5.239  1.9974  0.4180  1.9787
  144OSM      N15798   2.574   0.328   7.957 -0.0193  0.2694 -0.1552
  144OSM    C1515799   2.445   0.251   7.949  0.3101 -0.5366  0.5524
  144OSM   H15A15800   2.448   0.177   7.871 -0.9371  0.1781 -0.2107
  144OSM   H15B15801   2.367   0.323   7.930 -0.3763 -0.8826  1.9104
  144OSM   H15C15802   2.408   0.210   8.042 -0.0736  0.9193  1.0614
  144OSM    C1415803   2.553   0.436   8.051  0.2379  0.7914 -0.6399
  144OSM   H14A15804   2.622   0.519   8.040  0.9338  0.1618 -1.0961
  144OSM   H14B15805   2.554   0.399   8.152 -1.4290  1.2588 -0.4173
  144OSM   H14C15806   2.456   0.482   8.037  0.3833  1.0406 -0.8513
  144OSM    C1315807   2.691   0.252   8.011 -1.2442 -0.0102 -0.3209
  144OSM   H13A15808   2.777   0.316   8.027 -1.3288 -0.1316  0.6927
  144OSM   H13B15809   2.717   0.172   7.942 -0.1482  1.0414 -1.1630
  144OSM   H13C15810   2.674   0.213   8.110  0.0008 -0.9087 -0.4299
  144OSM    C1215811   2.602   0.377   7.817 -0.3376  0.1274 -0.3289
  144OSM   H12A15812   2.695   0.432   7.825  0.5232 -1.3049 -0.0634
  144OSM   H12B15813   2.519   0.443   7.795 -0.4520 -0.2875 -1.2099
  144OSM    C1115814   2.608   0.278   7.697  0.4164 -0.4948  0.3260
  144OSM   H11A15815   2.670   0.193   7.735  1.2157  0.4245  1.1309
  144OSM   H11B15816   2.657   0.331   7.613 -1.1057  1.6283  0.6851
  144OSM      P15817   2.368   0.306   7.590  0.1964  0.2030 -0.3484
  144OSM    O1315818   2.256   0.221   7.537 -0.1657  0.2430  0.6428
  144OSM    O1415819   2.322   0.411   7.682  0.1916  0.0701  0.5291
  144OSM    O1115820   2.440   0.369   7.465 -0.1694 -0.9574  0.1510
  144OSM    O1215821   2.483   0.223   7.661  0.3782  0.5209 -0.7791
  144OSM    C1S15822   2.496   0.276   7.370  0.1009  0.2392  0.5319
  144OSM    H1S15823   2.446   0.177   7.360 -0.6904  0.7305 -0.4863
  144OSM    H1T15824   2.600   0.251   7.402 -0.0434 -0.6195  0.3766
  144OSM     NF15825   2.545   0.220   7.140  0.8316  0.3083  0.9436
  144OSM    HNF15826   2.644   0.210   7.130  0.7370  1.4747 -2.2506
  144OSM    C2S15827   2.506   0.329   7.226  0.0627  0.0482 -0.4830
  144OSM    H2S15828   2.408   0.370   7.193  0.2136  1.1968  0.4376
  144OSM    C3S15829   2.605   0.452   7.215  0.8746 -0.4578 -0.0576
  144OSM    H3S15830   2.710   0.417   7.224  0.6620 -0.7011  2.1347
  144OSM     O315831   2.594   0.553   7.315 -0.5089 -0.1463 -0.3123
  144OSM    HO315832   2.539   0.508   7.379 -0.4578  0.0151 -0.1540
  144OSM    C4S15833   2.598   0.507   7.069  0.4090  1.0845 -0.0320
  144OSM    H4S15834   2.664   0.450   7.003  0.2685  1.2790 -0.3402
  144OSM    C5S15835   2.513   0.597   7.020  1.3845  0.0407  0.3008
  144OSM    H5S15836   2.433   0.626   7.089  1.0258 -1.8914  0.7645
  144OSM    C6S15837   2.484   0.645   6.882  0.3333 -0.2240 -1.4464
  144OSM    H6S15838   2.517   0.750   6.866  1.0660 -0.0957  0.7199
  144OSM    H6T15839   2.374   0.631   6.873  0.1958  1.0113 -1.9767
  144OSM    C7S15840   2.549   0.557   6.777  0.2820 -0.3730 -0.4584
  144OSM    H7S15841   2.500   0.457   6.784 -1.1208  0.2891 -0.4968
  144OSM    H7T15842   2.659   0.549   6.783  0.5309  1.4996 -1.7128
  144OSM    C8S15843   2.532   0.630   6.643  0.3452 -0.0962  0.1229
  144OSM    H8S15844   2.573   0.733   6.639 -0.5646  0.2559 -0.6219
  144OSM    H8T15845   2.423   0.641   6.625  0.8064  0.9965 -2.4275
  144OSM    C9S15846   2.579   0.558   6.512  0.2793  0.0174  0.3512
  144OSM    H9S15847   2.526   0.464   6.487  0.0196  0.3297 -0.3106
  144OSM    H9T15848   2.686   0.535   6.524  0.1763 -0.6483  0.0144
  144OSM   C10S15849   2.550   0.660   6.394  0.2098  0.7983 -0.5311
  144OSM   H10S15850   2.620   0.743   6.417  0.0006  0.8494 -0.0706
  144OSM   H10T15851   2.441   0.682   6.390 -0.1078 -0.4615  0.5434
  144OSM   C11S15852   2.600   0.600   6.264  0.1715  0.2267 -0.5722
  144OSM   H11S15853   2.554   0.503   6.232  3.8838 -0.9625 -2.8404
  144OSM   H11T15854   2.707   0.573   6.269  0.5346  1.6156 -0.4383
  144OSM   C12S15855   2.590   0.695   6.148  0.2125 -0.6840  0.0224
  144OSM   H12S15856   2.649   0.786   6.171 -0.7055 -0.5886  2.3021
  144OSM   H12T15857   2.481   0.718   6.144  0.0135 -0.4758  3.4938
  144OSM   C13S15858   2.638   0.650   6.009  0.6095 -0.7630 -1.1711
  144OSM   H13S15859   2.729   0.587   6.021  1.4688  0.5411 -0.6621
  144OSM   H13T15860   2.663   0.743   5.954  1.1287  0.8980  1.6567
  144OSM   C14S15861   2.522   0.574   5.940  0.1033  0.2659  0.5427
  144OSM   H14S15862   2.421   0.618   5.960 -0.3221 -1.4480  2.4958
  144OSM   H14T15863   2.532   0.474   5.986 -0.6768  0.5577  1.3709
  144OSM   C15S15864   2.539   0.583   5.789 -0.7873  0.2185  0.0070
  144OSM   H15S15865   2.645   0.585   5.756 -0.2793  0.0043  1.5198
  144OSM   H15T15866   2.491   0.676   5.751  2.7472  1.4232 -1.9889
  144OSM   C16S15867   2.464   0.463   5.725  0.4792 -0.2864  0.1608
  144OSM   H16S15868   2.359   0.459   5.761  0.6294 -3.4600  0.5256
  144OSM   H16T15869   2.510   0.367   5.755  0.3086 -0.6344 -0.6575
  144OSM   C17S15870   2.458   0.460   5.570 -0.0754 -0.1429 -0.1525
  144OSM   H17S15871   2.561   0.454   5.527  0.8711 -0.7448  2.0618
  144OSM   H17T15872   2.407   0.554   5.541 -0.0745 -0.1881 -0.3005
  144OSM   C18S15873   2.372   0.345   5.516 -0.0410  0.7976  0.5074
  144OSM   H18S15874   2.397   0.240   5.542 -4.1362 -0.3755  0.4560
  144OSM   H18T15875   2.369   0.348   5.405  1.0167 -1.4551  0.3681
  144OSM   H18U15876   2.269   0.355   5.556 -0.6617 -0.5694 -0.6906
  144OSM    C1F15877   2.459   0.126   7.103 -0.4411  0.2243  0.2615
  144OSM     OF15878   2.349   0.115   7.160 -0.2447 -0.0488 -0.2921
  144OSM    C2F15879   2.493   0.047   6.985  0.4183  0.2656 -0.9916
  144OSM    H2F15880   2.441  -0.050   6.999 -0.3142  0.6974 -0.6772
  144OSM    H2G15881   2.604   0.043   6.973  0.5053 -0.2774 -0.0917
  144OSM    C3F15882   2.438   0.107   6.850 -0.4539 -0.3608 -0.0567
  144OSM    H3F15883   2.481   0.209   6.837  0.3460 -0.3547  2.2148
  144OSM    H3G15884   2.329   0.122   6.866 -0.5989 -1.0527 -0.3591
  144OSM    C4F15885   2.484   0.029   6.730  0.5770 -0.1952  0.0403
  144OSM    H4F15886   2.428  -0.066   6.723  0.5537 -0.0402 -2.8028
  144OSM    H4G15887   2.589  -0.003   6.745  1.5018  2.8072  0.7662
  144OSM    C5F15888   2.449   0.105   6.599 -0.0841  0.5561 -0.1975
  144OSM    H5F15889   2.494   0.207   6.598  0.2989  0.3983 -1.9944
  144OSM    H5G15890   2.341   0.123   6.580  0.5961  1.6353 -3.7407
  144OSM    C6F15891   2.490   0.025   6.470  0.3224  0.0382 -0.3814
  144OSM    H6F15892   2.465  -0.083   6.470  2.6586 -0.5461 -0.3674
  144OSM    H6G15893   2.600   0.023   6.484  0.2419  1.2974  0.6054
  144OSM    C7F15894   2.450   0.107   6.344 -0.3174  0.6899  0.8336
  144OSM    H7F15895   2.461   0.216   6.365 -0.9103  0.5697  1.8333
  144OSM    H7G15896   2.342   0.096   6.320 -1.0491 -0.0716  4.0549
  144OSM    C8F15897   2.525   0.062   6.219 -0.3889  0.8949  0.1273
  144OSM    H8F15898   2.468  -0.028   6.187  0.2695  0.4688  0.1382
  144OSM    H8G15899   2.625   0.023   6.247 -0.3394  1.2154  0.4047
  144OSM    C9F15900   2.538   0.164   6.114  0.0935 -0.2906  0.3519
  144OSM    H9F15901   2.565   0.262   6.156 -2.2520  0.7932 -0.4824
  144OSM   C10F15902   2.514   0.148   5.981 -0.1393  0.0648 -0.3300
  144OSM   H10F15903   2.532   0.227   5.906  0.2363  0.3065  0.0090
  144OSM   C11F15904   2.453   0.013   5.924  0.3777 -0.2784  0.9030
  144OSM   H11F15905   2.403   0.038   5.829 -0.2485 -4.4177 -0.0194
  144OSM   H11G15906   2.376  -0.029   5.993 -0.8132 -0.3184 -0.4103
  144OSM   C12F15907   2.551  -0.099   5.889 -0.6389 -0.3014  0.3880
  144OSM   H12F15908   2.485  -0.177   5.845  1.7265 -2.3542  0.2672
  144OSM   H12G15909   2.603  -0.148   5.975 -0.3421 -1.4596 -0.4367
  144OSM   C13F15910   2.651  -0.041   5.785  0.1332 -0.0005 -0.4413
  144OSM   H13F15911   2.733   0.006   5.845  0.0427 -0.8365  0.3550
  144OSM   H13G15912   2.611   0.046   5.729 -1.5490  0.4739  1.3795
  144OSM   C14F15913   2.708  -0.132   5.676  0.1461  0.1081 -1.3405
  144OSM   H14F15914   2.624  -0.162   5.609  0.4877 -0.2964 -1.5982
  144OSM   H14G15915   2.738  -0.228   5.723 -0.5987  0.4271 -0.1798
  144OSM   C15F15916   2.836  -0.088   5.603  0.8097 -0.0131  0.5884
  144OSM   H15F15917   2.912  -0.061   5.679  1.1987 -0.0570  0.2161
  144OSM   H15G15918   2.816   0.007   5.548  2.3221  0.2681  0.4860
  144OSM   C16F15919   2.875  -0.198   5.503 -0.4942 -0.1633  0.2471
  144OSM   H16F15920   2.799  -0.221   5.425 -1.2975 -2.2747  1.5704
  144OSM   H16G15921   2.894  -0.292   5.558  0.2133  0.0119  0.3060
  144OSM   C17F15922   3.010  -0.162   5.432  0.7663 -0.8729 -0.7594
  144OSM   H17F15923   3.088  -0.181   5.510  0.1793 -4.0765 -0.7940
  144OSM   H17G15924   3.013  -0.056   5.401  1.7268 -1.3616 -2.4900
  144OSM   C18F15925   3.056  -0.243   5.314  0.0651 -0.4816  1.0256
  144OSM   H18F15926   3.053  -0.351   5.339  1.4182 -1.2053 -1.5521
  144OSM   H18G15927   3.152  -0.212   5.267 -0.6614  1.2495  0.5972
  144OSM   H18H15928   2.989  -0.235   5.226  3.0266  1.0122 -1.2776
  145OSM      N15929   5.474   2.063   7.731  0.1699  0.1277  0.1129
  145OSM    C1515930   5.584   2.058   7.632 -0.3536 -0.1036  0.2862
  145OSM   H15A15931   5.677   2.073   7.685 -0.3382  1.9354 -0.2252
  145OSM   H15B15932   5.577   2.139   7.560 -1.6035 -0.5077 -0.0654
  145OSM   H15C15933   5.570   1.971   7.570 -2.6878  0.7102 -0.4356
  145OSM    C1415934   5.345   2.045   7.658  0.2912  0.7016  0.1491
  145OSM   H14A15935   5.344   1.946   7.614 -0.1044  0.6794  0.2010
  145OSM   H14B15936   5.337   2.112   7.574  1.2716 -0.4599 -0.9028
  145OSM   H14C15937   5.264   2.059   7.728  0.8875 -1.3608  1.3434
  145OSM    C1315938   5.487   1.961   7.832 -0.2720  0.1453 -0.1845
  145OSM   H13A15939   5.577   1.975   7.889 -1.1507  2.1756  0.8025
  145OSM   H13B15940   5.489   1.864   7.783  2.2407 -1.0784  2.1295
  145OSM   H13C15941   5.407   1.968   7.904  1.2553  0.5176  1.5346
  145OSM    C1215942   5.481   2.203   7.798 -0.1604 -0.0049 -0.2161
  145OSM   H12A15943   5.568   2.210   7.861  1.5310 -0.5522 -2.3704
  145OSM   H12B15944   5.400   2.217   7.868 -0.1887  4.6314 -0.8309
  145OSM    C1115945   5.479   2.331   7.711 -0.3386  0.2963  0.4453
  145OSM   H11A15946   5.569   2.327   7.646 -0.7335 -1.5829 -0.0592
  145OSM   H11B15947   5.490   2.416   7.782 -1.7103  0.2581  0.7324
  145OSM      P15948   5.226   2.408   7.676 -0.3657  0.2564  0.4410
  145OSM    O1315949   5.103   2.353   7.609  0.2063 -0.1838 -0.2501
  145OSM    O1415950   5.241   2.411   7.822 -0.0961 -0.5060  0.2139
  145OSM    O1115951   5.261   2.551   7.630 -0.2090  0.7041 -0.0779
  145OSM    O1215952   5.361   2.333   7.630 -0.4769 -0.4039 -0.0342
  145OSM    C1S15953   5.280   2.582   7.491 -0.1132 -0.1272  0.7251
  145OSM    H1S15954   5.329   2.499   7.436  0.3443  0.9439 -0.5263
  145OSM    H1T15955   5.348   2.668   7.473 -0.7423  0.4950  1.2211
  145OSM     NF15956   5.167   2.628   7.280 -0.2172  0.6828  0.4525
  145OSM    HNF15957   5.154   2.719   7.241  2.9988  1.6614  1.4183
  145OSM    C2S15958   5.143   2.624   7.418  0.1648 -0.4998  0.3628
  145OSM    H2S15959   5.065   2.549   7.441  0.4637 -0.6306  0.9825
  145OSM    C3S15960   5.080   2.753   7.475 -0.2422 -0.0916 -0.4999
  145OSM    H3S15961   5.139   2.840   7.440 -0.7348  0.2845 -0.4030
  145OSM     O315962   5.102   2.760   7.617 -0.0634 -0.7288  0.1734
  145OSM    HO315963   5.173   2.696   7.624 -0.3425 -1.1617 -0.8098
  145OSM    C4S15964   4.932   2.772   7.434 -0.7019 -0.1645  1.0036
  145OSM    H4S15965   4.870   2.685   7.460  0.2465 -0.8110  1.1304
  145OSM    C5S15966   4.873   2.884   7.386 -0.3351 -0.2882  0.4755
  145OSM    H5S15967   4.915   2.984   7.397 -1.3601  0.0447  1.4970
  145OSM    C6S15968   4.727   2.879   7.354  0.8894  0.2487 -0.5168
  145OSM    H6S15969   4.690   2.983   7.342 -1.0085 -0.3168  0.0540
  145OSM    H6T15970   4.676   2.843   7.446  0.4582  1.8484 -0.1131
  145OSM    C7S15971   4.687   2.795   7.229  0.0689 -0.0467  0.5782
  145OSM    H7S15972   4.576   2.802   7.219 -0.4187 -0.3720  4.3475
  145OSM    H7T15973   4.710   2.687   7.244 -0.6085 -0.6366 -1.9948
  145OSM    C8S15974   4.748   2.840   7.092  0.0459  0.0377 -0.9318
  145OSM    H8S15975   4.858   2.848   7.106 -0.2359  1.0710  1.1500
  145OSM    H8T15976   4.719   2.943   7.065 -1.6677 -0.1602 -0.0511
  145OSM    C9S15977   4.724   2.738   6.976 -0.6534 -0.6375  0.4238
  145OSM    H9S15978   4.617   2.751   6.952 -0.2782  0.3430 -0.7744
  145OSM    H9T15979   4.730   2.635   7.018 -1.1698 -0.1586  1.7266
  145OSM   C10S15980   4.816   2.768   6.853  0.4832 -0.1485 -0.4618
  145OSM   H10S15981   4.788   2.681   6.791 -1.8527  0.5275 -0.4628
  145OSM   H10T15982   4.925   2.767   6.875  0.2757  1.7420  0.9743
  145OSM   C11S15983   4.775   2.898   6.766  0.8235  0.1362 -0.3773
  145OSM   H11S15984   4.804   2.987   6.826  0.0864  0.2029 -0.1123
  145OSM   H11T15985   4.664   2.908   6.757  0.7511 -1.3661 -1.4402
  145OSM   C12S15986   4.835   2.905   6.624  0.2556  0.5496  0.0276
  145OSM   H12S15987   4.813   2.815   6.562 -0.8851  2.2242 -2.1316
  145OSM   H12T15988   4.945   2.915   6.638  0.9205 -1.9767 -2.5119
  145OSM   C13S15989   4.775   3.022   6.531  0.0707  0.2667  0.4028
  145OSM   H13S15990   4.796   3.115   6.587  0.3900  0.1009  0.5650
  145OSM   H13T15991   4.666   3.010   6.515 -0.0973  1.0172  0.9273
  145OSM   C14S15992   4.850   3.020   6.393  0.1221  0.0556 -0.0401
  145OSM   H14S15993   4.835   2.929   6.331 -0.1688  1.3711 -1.9758
  145OSM   H14T15994   4.958   3.030   6.415  0.1736  1.2011 -0.7237
  145OSM   C15S15995   4.802   3.133   6.300 -0.3117  0.0390 -0.4780
  145OSM   H15S15996   4.820   3.232   6.348  1.6653 -1.1315  1.4066
  145OSM   H15T15997   4.692   3.127   6.286 -0.3786  1.8461 -1.0568
  145OSM   C16S15998   4.879   3.139   6.164  0.5355 -0.3621 -0.4194
  145OSM   H16S15999   4.846   3.052   6.104  1.8934 -0.5139 -0.9779
  145OSM   H16T16000   4.985   3.119   6.189  0.9696 -1.3537 -2.8474
  145OSM   C17S16001   4.854   3.271   6.090  0.6097 -0.8739  0.2913
  145OSM   H17S16002   4.744   3.288   6.084  1.1209  3.0336 -0.9964
  145OSM   H17T16003   4.895   3.255   5.988  5.4168  2.5269  1.3653
  145OSM   C18S16004   4.928   3.394   6.155 -1.1247  0.3689  0.1556
  145OSM   H18S16005   5.022   3.364   6.205 -2.3313  0.7435  2.8389
  145OSM   H18T16006   4.873   3.459   6.226  1.5541  1.6741  1.1722
  145OSM   H18U16007   4.960   3.470   6.079  0.3415  1.7554  2.0692
  145OSM    C1F16008   5.189   2.518   7.204 -0.4517 -0.2928 -0.2623
  145OSM     OF16009   5.174   2.402   7.245  0.5918  0.0814 -0.0673
  145OSM    C2F16010   5.233   2.550   7.061 -0.4489  0.3109  0.2673
  145OSM    H2F16011   5.326   2.610   7.068 -0.6939  0.5661  1.5669
  145OSM    H2G16012   5.162   2.619   7.011  0.7967 -1.9559 -5.3651
  145OSM    C3F16013   5.257   2.425   6.983  0.1692  0.3482 -0.4139
  145OSM    H3F16014   5.169   2.363   6.958  0.4811 -0.4091  0.3336
  145OSM    H3G16015   5.319   2.362   7.050  0.1117  1.7352  1.0135
  145OSM    C4F16016   5.337   2.461   6.853  0.1461  0.0215 -0.2143
  145OSM    H4F16017   5.414   2.383   6.830  3.2992  2.2294  2.0931
  145OSM    H4G16018   5.386   2.554   6.887  0.1068 -0.1980  0.4604
  145OSM    C5F16019   5.252   2.505   6.739  0.8289 -0.1248  0.1536
  145OSM    H5F16020   5.211   2.607   6.756 -0.0934 -0.3685 -0.5125
  145OSM    H5G16021   5.167   2.434   6.732  1.7668 -1.0846 -3.6293
  145OSM    C6F16022   5.327   2.504   6.600  0.0790 -0.0322 -0.0545
  145OSM    H6F16023   5.266   2.571   6.536  2.5762  2.9659  0.4284
  145OSM    H6G16024   5.318   2.403   6.555  1.7013  0.2008 -0.9959
  145OSM    C7F16025   5.464   2.565   6.586 -0.5156  0.3959  0.3733
  145OSM    H7F16026   5.544   2.491   6.606  1.0575  1.9101 -0.0198
  145OSM    H7G16027   5.484   2.643   6.663 -1.4454 -1.6762  2.8537
  145OSM    C8F16028   5.481   2.629   6.444  0.0650 -0.0547 -0.0644
  145OSM    H8F16029   5.575   2.688   6.437 -0.0547  0.6777  3.0450
  145OSM    H8G16030   5.400   2.704   6.428 -1.5886 -1.6458  0.5958
  145OSM    C9F16031   5.480   2.531   6.331  0.2432  0.2368 -0.1291
  145OSM    H9F16032   5.476   2.427   6.364 -0.7453 -0.0770 -1.1619
  145OSM   C10F16033   5.511   2.559   6.201  0.6760 -0.6854  0.4048
  145OSM   H10F16034   5.510   2.484   6.120 -0.3378  1.8178 -2.0920
  145OSM   C11F16035   5.539   2.703   6.155  0.2684 -0.9275 -0.6575
  145OSM   H11F16036   5.642   2.702   6.114  1.4549 -0.3006  2.0740
  145OSM   H11G16037   5.551   2.773   6.241 -1.7691 -1.3701  0.0384
  145OSM   C12F16038   5.427   2.762   6.069 -0.0340 -0.0924 -0.5110
  145OSM   H12F16039   5.436   2.708   5.972  0.0069  2.2027 -1.8656
  145OSM   H12G16040   5.456   2.867   6.045 -0.0081 -0.0256 -0.1900
  145OSM   C13F16041   5.284   2.770   6.136 -0.3799 -0.5684 -0.3352
  145OSM   H13F16042   5.280   2.837   6.225  0.3114  0.2361 -0.8978
  145OSM   H13G16043   5.267   2.667   6.175 -0.3734 -0.0045  1.2659
  145OSM   C14F16044   5.172   2.795   6.029  0.7130 -0.3016 -0.0648
  145OSM   H14F16045   5.077   2.787   6.086  0.8344 -0.3528  0.1310
  145OSM   H14G16046   5.166   2.716   5.950  0.2706  0.4272 -0.7786
  145OSM   C15F16047   5.159   2.931   5.976 -0.2801 -0.2783 -0.3280
  145OSM   H15F16048   5.253   2.953   5.921 -0.7815 -0.7210 -1.3931
  145OSM   H15G16049   5.153   3.010   6.053  1.1354  0.5940 -1.0611
  145OSM   C16F16050   5.050   2.948   5.867  0.4229  0.4620  0.2992
  145OSM   H16F16051   4.953   2.935   5.920  0.0901  0.1488 -0.3789
  145OSM   H16G16052   5.055   2.865   5.794  0.4277  0.8323 -0.1207
  145OSM   C17F16053   5.051   3.082   5.797  0.1409 -0.0417  0.2743
  145OSM   H17F16054   5.141   3.095   5.734  0.2321  0.6788  0.5418
  145OSM   H17G16055   5.046   3.160   5.876  0.3788  0.3440 -0.0870
  145OSM   C18F16056   4.927   3.091   5.710  0.6468  0.5551 -0.4531
  145OSM   H18F16057   4.922   3.190   5.659 -1.2648  1.1067  0.6971
  145OSM   H18G16058   4.829   3.087   5.762 -0.1514  2.4783 -1.6698
  145OSM   H18H16059   4.915   3.001   5.645 -3.8956 -0.0936  0.9198
  146OSM      N16060   0.771   4.036   8.432  0.0009  0.2028 -0.8840
  146OSM    C1516061   0.775   3.926   8.538  0.3808 -1.0604  0.5579
  146OSM   H15A16062   0.875   3.923   8.579  0.1480 -0.2676  1.2171
  146OSM   H15B16063   0.745   3.832   8.495  1.6286 -2.7764  3.1971
  146OSM   H15C16064   0.696   3.929   8.612 -0.9430  0.0800 -0.8417
  146OSM    C1416065   0.842   4.159   8.493 -0.3851  1.1095 -0.0966
  146OSM   H14A16066   0.855   4.228   8.411  0.5082  1.2157  0.1253
  146OSM   H14B16067   0.946   4.140   8.514  0.0435  0.4067 -2.4875
  146OSM   H14C16068   0.788   4.204   8.574 -0.0340  1.1071  0.1393
  146OSM    C1316069   0.838   3.982   8.313 -0.2959 -1.0048 -0.0537
  146OSM   H13A16070   0.936   3.940   8.331 -0.6852 -1.1615  1.9415
  146OSM   H13B16071   0.852   4.054   8.233 -0.1268  1.0439  1.7075
  146OSM   H13C16072   0.776   3.900   8.282 -0.3475 -0.9018 -0.2221
  146OSM    C1216073   0.628   4.075   8.407  0.3461  0.2895  0.3527
  146OSM   H12A16074   0.630   4.150   8.328  0.6801  0.9681  0.9944
  146OSM   H12B16075   0.591   4.139   8.486 -2.7879  0.3184 -1.0088
  146OSM    C1116076   0.519   3.981   8.353 -0.3105  0.9635 -0.1432
  146OSM   H11A16077   0.416   4.021   8.365 -1.5678 -2.3554  1.3715
  146OSM   H11B16078   0.521   3.891   8.418 -1.2127  1.5249  0.6872
  146OSM      P16079   0.495   3.823   8.142  0.0264 -0.2081 -0.1693
  146OSM    O1316080   0.540   3.829   8.002 -0.6257  0.0085 -0.2944
  146OSM    O1416081   0.524   3.703   8.223  0.0570  0.6767 -0.0916
  146OSM    O1116082   0.341   3.847   8.140 -0.4245  0.1685  0.5803
  146OSM    O1216083   0.546   3.947   8.217  0.0744 -0.1651  0.0318
  146OSM    C1S16084   0.283   3.949   8.059  0.0312 -0.4074  0.1414
  146OSM    H1S16085   0.356   4.033   8.056  1.6300 -1.4101  3.8970
  146OSM    H1T16086   0.189   3.981   8.108  1.4266 -0.8180  3.3611
  146OSM     NF16087   0.185   4.018   7.837 -0.0597 -0.1973  0.3420
  146OSM    HNF16088   0.089   4.044   7.845 -0.6770 -1.0539 -3.0352
  146OSM    C2S16089   0.239   3.906   7.911  0.5787  0.2235 -0.2913
  146OSM    H2S16090   0.335   3.881   7.861  1.7583 -0.5468  2.1960
  146OSM    C3S16091   0.139   3.788   7.921 -0.0442 -0.5077 -0.7156
  146OSM    H3S16092   0.039   3.830   7.944  0.4600  0.2187  0.2301
  146OSM     O316093   0.175   3.690   8.017  0.0478  0.2217  0.4601
  146OSM    HO316094   0.232   3.738   8.078  1.6903 -0.8468 -0.1488
  146OSM    C4S16095   0.122   3.719   7.790 -0.0617 -0.5591 -0.3513
  146OSM    H4S16096   0.029   3.760   7.748 -1.7714 -3.2809  0.4761
  146OSM    C5S16097   0.206   3.635   7.726  0.3168  0.4003  0.3604
  146OSM    H5S16098   0.299   3.607   7.777  1.8412  1.9604 -1.4223
  146OSM    C6S16099   0.184   3.591   7.581  0.3346 -0.9365 -0.1204
  146OSM    H6S16100   0.194   3.481   7.590  0.1271 -0.8888  0.8209
  146OSM    H6T16101   0.263   3.625   7.510 -1.2113  0.7196 -1.1287
  146OSM    C7S16102   0.047   3.620   7.522  0.6195 -0.3163  0.6312
  146OSM    H7S16103   0.014   3.726   7.533 -0.2258 -0.4342 -0.5998
  146OSM    H7T16104  -0.037   3.574   7.578  0.8296 -1.1350  0.2847
  146OSM    C8S16105   0.029   3.579   7.374 -0.3285  0.8533 -0.1250
  146OSM    H8S16106  -0.074   3.599   7.337  0.2203 -0.6017 -2.7043
  146OSM    H8T16107   0.039   3.469   7.360 -0.7295  0.9863 -1.6649
  146OSM    C9S16108   0.130   3.662   7.286 -0.7819  0.5140 -0.3217
  146OSM    H9S16109   0.236   3.628   7.288 -0.7363  0.5854 -1.1432
  146OSM    H9T16110   0.131   3.765   7.326  1.2991  0.1636  0.6787
  146OSM   C10S16111   0.096   3.661   7.134 -0.3944 -0.3565 -1.1663
  146OSM   H10S16112   0.171   3.725   7.083 -0.1800 -0.2151 -0.6811
  146OSM   H10T16113  -0.007   3.691   7.109 -0.8153 -1.6124 -1.0077
  146OSM   C11S16114   0.106   3.514   7.074  0.0955 -0.5941  0.1611
  146OSM   H11S16115   0.034   3.452   7.132 -0.0970 -0.1537  0.4004
  146OSM   H11T16116   0.205   3.466   7.092  1.2619  1.6398  0.1402
  146OSM   C12S16117   0.067   3.518   6.928  0.5138  0.2728 -0.0887
  146OSM   H12S16118  -0.038   3.540   6.897  0.6633  0.5080 -0.4394
  146OSM   H12T16119   0.084   3.414   6.893 -0.3201  0.5390 -1.3638
  146OSM   C13S16120   0.167   3.608   6.845 -0.1737  0.4316  0.0176
  146OSM   H13S16121   0.274   3.585   6.862 -0.7612 -2.0319  0.6593
  146OSM   H13T16122   0.142   3.716   6.860 -0.7701  0.4098 -0.7221
  146OSM   C14S16123   0.143   3.586   6.694  0.0659  0.1996  0.1084
  146OSM   H14S16124   0.037   3.582   6.662  0.6921 -0.8487 -1.9914
  146OSM   H14T16125   0.203   3.496   6.669 -0.2692  0.4332 -1.6275
  146OSM   C15S16126   0.211   3.698   6.624 -0.5466 -1.3012 -0.3114
  146OSM   H15S16127   0.318   3.702   6.652 -0.5332 -1.7944 -0.2749
  146OSM   H15T16128   0.163   3.794   6.652  2.6680  1.1332 -2.5272
  146OSM   C16S16129   0.227   3.678   6.472  0.2186  0.3176  0.5895
  146OSM   H16S16130   0.267   3.775   6.434 -1.6258  0.6822 -0.5490
  146OSM   H16T16131   0.125   3.670   6.430  0.9428 -0.1325 -1.1626
  146OSM   C17S16132   0.307   3.557   6.426  0.2306  0.0641  0.1316
  146OSM   H17S16133   0.264   3.463   6.466  2.1288 -0.4361  1.1005
  146OSM   H17T16134   0.398   3.549   6.490  1.3560 -0.1431 -1.4343
  146OSM   C18S16135   0.348   3.568   6.280  0.0148  0.1526 -0.0328
  146OSM   H18S16136   0.388   3.669   6.254  1.5183 -0.9980 -2.5610
  146OSM   H18T16137   0.267   3.538   6.210 -1.4168 -1.1303  2.0850
  146OSM   H18U16138   0.439   3.505   6.274  0.5495  0.7439  1.3384
  146OSM    C1F16139   0.261   4.120   7.796 -0.2407  0.1885 -0.1017
  146OSM     OF16140   0.208   4.226   7.770  1.0907 -1.1514 -0.2000
  146OSM    C2F16141   0.404   4.095   7.762 -0.8246 -0.2027  0.0625
  146OSM    H2F16142   0.421   3.993   7.721  0.3809  0.2078 -0.5208
  146OSM    H2G16143   0.465   4.080   7.853  0.6591  0.0316 -0.8519
  146OSM    C3F16144   0.466   4.218   7.681  0.1410 -0.2373  0.0815
  146OSM    H3F16145   0.577   4.215   7.688  0.0591 -2.0196  1.7353
  146OSM    H3G16146   0.439   4.314   7.729  0.9967  0.6352 -1.1473
  146OSM    C4F16147   0.423   4.217   7.532  0.1343  0.1890  0.0197
  146OSM    H4F16148   0.315   4.241   7.533  0.1398  0.2082  0.1171
  146OSM    H4G16149   0.425   4.111   7.498 -1.2321 -0.0055  0.4878
  146OSM    C5F16150   0.494   4.321   7.442 -0.1449  1.1858  0.2269
  146OSM    H5F16151   0.603   4.300   7.447  0.2051  3.0143  1.3662
  146OSM    H5G16152   0.477   4.421   7.489  0.7203  0.3687  2.4038
  146OSM    C6F16153   0.430   4.324   7.298 -0.1478 -0.7027  0.6055
  146OSM    H6F16154   0.320   4.339   7.298 -0.0458  0.2817 -0.7771
  146OSM    H6G16155   0.441   4.222   7.255  1.2520 -0.6332  0.7542
  146OSM    C7F16156   0.497   4.423   7.200 -0.2122  0.1272  0.4145
  146OSM    H7F16157   0.602   4.392   7.180 -1.1879 -1.8540 -2.3466
  146OSM    H7G16158   0.494   4.524   7.244  0.6072  0.5172 -0.3874
  146OSM    C8F16159   0.421   4.428   7.065  0.4658  0.6243  0.1793
  146OSM    H8F16160   0.313   4.449   7.078 -0.6397 -2.6015 -2.3349
  146OSM    H8G16161   0.428   4.324   7.026  1.9039  1.1129 -0.9429
  146OSM    C9F16162   0.484   4.527   6.969  0.4309  0.3392  0.2313
  146OSM    H9F16163   0.479   4.633   6.996  1.5943  0.8489 -1.3397
  146OSM   C10F16164   0.562   4.505   6.859  0.0475 -0.5050 -0.7104
  146OSM   H10F16165   0.614   4.590   6.812 -0.8902  0.4800 -0.0133
  146OSM   C11F16166   0.595   4.378   6.794 -0.5294  0.0688 -0.7879
  146OSM   H11F16167   0.582   4.295   6.867 -0.2214  1.2045  0.5955
  146OSM   H11G16168   0.704   4.370   6.775 -0.0208 -1.7366  2.2550
  146OSM   C12F16169   0.530   4.352   6.667 -0.9341 -0.6284  0.4199
  146OSM   H12F16170   0.423   4.324   6.674 -0.8398 -1.0455  0.1860
  146OSM   H12G16171   0.583   4.268   6.617 -0.7835  0.8676 -2.1127
  146OSM   C13F16172   0.534   4.475   6.577  0.5021  0.1068  0.7281
  146OSM   H13F16173   0.637   4.514   6.589  0.6242 -0.3408  1.1589
  146OSM   H13G16174   0.458   4.553   6.598  0.1405  0.0463 -0.3223
  146OSM   C14F16175   0.522   4.444   6.427 -0.2292  0.1246 -0.7455
  146OSM   H14F16176   0.614   4.391   6.393  1.1475 -0.2264  2.9419
  146OSM   H14G16177   0.432   4.382   6.411 -0.3384  0.0716  0.0364
  146OSM   C15F16178   0.513   4.572   6.347 -0.0651  0.0829 -0.1770
  146OSM   H15F16179   0.588   4.649   6.376 -3.3196  2.9016  1.4517
  146OSM   H15G16180   0.418   4.626   6.365  0.3080  0.3614  1.0491
  146OSM   C16F16181   0.531   4.540   6.195 -0.1169 -1.0410  0.8342
  146OSM   H16F16182   0.438   4.486   6.167 -0.6211  1.2588 -2.6202
  146OSM   H16G16183   0.625   4.485   6.172  1.0396  1.1328  0.0508
  146OSM   C17F16184   0.527   4.671   6.104 -0.1346  0.3706 -0.2140
  146OSM   H17F16185   0.619   4.733   6.112  0.0077  0.0497  0.7812
  146OSM   H17G16186   0.438   4.729   6.137 -1.7380 -2.2423  0.3263
  146OSM   C18F16187   0.521   4.643   5.953  0.9435 -0.1802 -0.4994
  146OSM   H18F16188   0.420   4.607   5.924  0.4378 -0.4332  1.4403
  146OSM   H18G16189   0.600   4.573   5.918  1.9553 -0.8696  2.8396
  146OSM   H18H16190   0.543   4.739   5.901  2.8159  0.1332  0.7960
  147OSM      N16191   3.318   4.582   3.107  0.3315  0.3182 -0.2820
  147OSM    C1516192   3.330   4.731   3.090 -0.2506  0.3386  0.5450
  147OSM   H15A16193   3.366   4.772   3.183  0.8486  0.1176  0.2342
  147OSM   H15B16194   3.231   4.768   3.064  0.0355  0.9355  0.2850
  147OSM   H15C16195   3.398   4.742   3.006 -0.7362  0.7148  0.1922
  147OSM    C1416196   3.213   4.547   3.208 -0.3756 -0.4119 -0.2888
  147OSM   H14A16197   3.232   4.615   3.290  5.5461 -1.5425 -0.2366
  147OSM   H14B16198   3.222   4.445   3.241  0.5625 -0.4478 -0.6168
  147OSM   H14C16199   3.111   4.564   3.179 -1.4997 -2.4817  2.1027
  147OSM    C1316200   3.285   4.514   2.975  0.2550 -0.5651  0.3155
  147OSM   H13A16201   3.286   4.408   2.995 -2.3795 -0.3950  2.0013
  147OSM   H13B16202   3.358   4.540   2.901  0.4225  1.3427  1.0876
  147OSM   H13C16203   3.190   4.555   2.945 -0.6173 -1.6489  1.4581
  147OSM    C1216204   3.451   4.521   3.158  0.1709 -0.1669 -0.2023
  147OSM   H12A16205   3.429   4.419   3.185 -0.8339  0.2541  0.6277
  147OSM   H12B16206   3.469   4.577   3.248  1.1051  2.7843 -2.0565
  147OSM    C1116207   3.575   4.517   3.062  0.1211  0.0287  0.1524
  147OSM   H11A16208   3.562   4.450   2.974  1.6083  1.0252 -0.8655
  147OSM   H11B16209   3.666   4.486   3.117  0.9607  1.9234 -0.1228
  147OSM      P16210   3.683   4.761   3.061  0.2493  0.1278  0.0119
  147OSM    O1316211   3.820   4.735   3.010 -0.1524  0.3041 -0.9876
  147OSM    O1416212   3.619   4.894   3.037 -0.6311 -0.3651  0.1734
  147OSM    O1116213   3.674   4.731   3.218  0.4880 -0.1457  0.0776
  147OSM    O1216214   3.593   4.646   3.003  0.6214 -0.3122 -0.1137
  147OSM    C1S16215   3.628   4.834   3.306  0.1272 -0.2567  0.2472
  147OSM    H1S16216   3.523   4.859   3.279  0.8687  2.6798 -0.2860
  147OSM    H1T16217   3.674   4.935   3.298 -2.4237  0.9061 -0.8587
  147OSM     NF16218   3.531   4.888   3.523 -0.4608  0.0898 -0.4352
  147OSM    HNF16219   3.572   4.969   3.563 -0.0711 -0.9010  1.2734
  147OSM    C2S16220   3.619   4.797   3.460  0.1017 -0.4116 -0.2005
  147OSM    H2S16221   3.566   4.700   3.454  2.2548 -1.6972  0.5362
  147OSM    C3S16222   3.756   4.787   3.527  0.0330 -0.3572 -0.5580
  147OSM    H3S16223   3.804   4.887   3.536  3.7732 -1.7503 -2.7469
  147OSM     O316224   3.848   4.702   3.453  0.4143 -0.0953  0.2305
  147OSM    HO316225   3.801   4.697   3.369  1.3273 -0.5595 -0.2624
  147OSM    C4S16226   3.736   4.721   3.661  0.1894 -1.4934  0.3270
  147OSM    H4S16227   3.732   4.612   3.652 -0.7796 -1.3415 -1.9532
  147OSM    C5S16228   3.718   4.774   3.786  0.4618  0.0726  0.8423
  147OSM    H5S16229   3.695   4.881   3.802  0.4178  0.0717  0.7889
  147OSM    C6S16230   3.682   4.687   3.903  0.1705 -0.3021  0.6734
  147OSM    H6S16231   3.774   4.663   3.961  0.6208 -0.3788 -0.0599
  147OSM    H6T16232   3.660   4.581   3.876  0.9456 -0.4394  0.5486
  147OSM    C7S16233   3.580   4.740   4.001 -0.9383  0.1580 -0.1610
  147OSM    H7S16234   3.479   4.761   3.959 -0.5360  1.3539 -0.5486
  147OSM    H7T16235   3.621   4.834   4.044  1.3615 -0.1504 -1.5480
  147OSM    C8S16236   3.540   4.651   4.124  0.1227 -0.3625  0.4955
  147OSM    H8S16237   3.629   4.659   4.192 -0.6523 -0.1400  1.5113
  147OSM    H8T16238   3.525   4.550   4.080  0.5571 -0.6300  0.9457
  147OSM    C9S16239   3.429   4.704   4.218  0.1845 -0.6104  0.1246
  147OSM    H9S16240   3.344   4.722   4.149  2.0307  2.1146 -1.6498
  147OSM    H9T16241   3.460   4.797   4.269  0.2567 -0.9704  0.7481
  147OSM   C10S16242   3.395   4.600   4.322 -0.2752  0.2646 -0.3715
  147OSM   H10S16243   3.464   4.599   4.409  2.8739 -1.6287 -2.6920
  147OSM   H10T16244   3.403   4.503   4.270 -0.2155  0.8070 -1.3943
  147OSM   C11S16245   3.250   4.629   4.370  0.2195 -0.3435 -0.4076
  147OSM   H11S16246   3.222   4.535   4.421 -1.3425  0.5537  0.4706
  147OSM   H11T16247   3.181   4.645   4.284  0.0993  1.4074 -0.0361
  147OSM   C12S16248   3.227   4.743   4.474 -0.1475 -0.4212  0.7839
  147OSM   H12S16249   3.255   4.837   4.421 -0.4745 -0.9821 -0.4142
  147OSM   H12T16250   3.308   4.741   4.550  0.6425  1.4949  0.0727
  147OSM   C13S16251   3.085   4.748   4.530 -0.7576  0.1003 -0.8287
  147OSM   H13S16252   3.039   4.647   4.536 -1.2319  0.3648  0.1966
  147OSM   H13T16253   3.025   4.806   4.457 -0.0474  3.4540  1.0918
  147OSM   C14S16254   3.070   4.819   4.665  0.0892  0.0495  0.1711
  147OSM   H14S16255   2.964   4.844   4.683 -0.8727 -1.3786 -2.8384
  147OSM   H14T16256   3.110   4.922   4.659 -0.2870  0.1248 -1.5394
  147OSM   C15S16257   3.128   4.750   4.795  0.0266 -0.5326 -0.2354
  147OSM   H15S16258   3.087   4.810   4.879 -0.6225  1.7780 -2.1060
  147OSM   H15T16259   3.237   4.772   4.784 -0.4799  1.7515 -1.2661
  147OSM   C16S16260   3.119   4.602   4.815 -0.3866 -0.3926  0.1165
  147OSM   H16S16261   3.198   4.544   4.763 -0.0562  0.5229 -0.4382
  147OSM   H16T16262   3.024   4.574   4.764  0.3911 -3.8614  0.3551
  147OSM   C17S16263   3.136   4.567   4.958 -0.2922  0.4148 -0.1688
  147OSM   H17S16264   3.128   4.457   4.972  0.0823  0.3790 -0.2234
  147OSM   H17T16265   3.059   4.615   5.021 -0.9353  1.6874 -1.8595
  147OSM   C18S16266   3.274   4.612   5.027 -0.5279  0.1751  0.4251
  147OSM   H18S16267   3.360   4.579   4.966 -1.2237  0.6073 -0.8298
  147OSM   H18T16268   3.283   4.581   5.133 -1.4272 -0.3999  0.3434
  147OSM   H18U16269   3.288   4.722   5.028  0.1718  0.1534 -1.7672
  147OSM    C1F16270   3.401   4.888   3.510 -0.0799 -0.1700  0.7934
  147OSM     OF16271   3.347   4.791   3.451  0.0055 -0.5126  0.2867
  147OSM    C2F16272   3.325   5.003   3.571 -0.6154 -0.1047 -0.5475
  147OSM    H2F16273   3.233   5.016   3.510 -1.0140  2.7097  0.4876
  147OSM    H2G16274   3.383   5.098   3.572 -0.8927  0.0667 -0.6522
  147OSM    C3F16275   3.288   4.965   3.717  0.0632  0.8189 -0.8858
  147OSM    H3F16276   3.385   4.939   3.765  0.3514 -0.2852 -2.0367
  147OSM    H3G16277   3.222   4.877   3.732 -1.1234  2.0167  1.4340
  147OSM    C4F16278   3.206   5.076   3.796 -0.4799 -0.5659 -0.0818
  147OSM    H4F16279   3.109   5.093   3.745  0.2150  0.1290 -1.2350
  147OSM    H4G16280   3.261   5.172   3.803 -2.2461  0.4296  0.6055
  147OSM    C5F16281   3.187   5.046   3.945 -0.1495 -0.3223  0.0719
  147OSM    H5F16282   3.280   5.019   4.000 -0.8278  0.1852  1.4980
  147OSM    H5G16283   3.118   4.959   3.947  0.3564 -0.7938 -1.3367
  147OSM    C6F16284   3.116   5.159   4.027  0.1086  0.0408  0.5348
  147OSM    H6F16285   3.027   5.178   3.963 -0.4740  2.7800  1.9795
  147OSM    H6G16286   3.164   5.258   4.046 -0.2448  0.2485  0.3563
  147OSM    C7F16287   3.062   5.101   4.155 -0.3789  0.5522 -0.4500
  147OSM    H7F16288   3.148   5.094   4.225 -1.5279  2.5155  1.2691
  147OSM    H7G16289   3.020   4.998   4.145 -1.3201  0.7660  0.9593
  147OSM    C8F16290   2.940   5.188   4.216 -0.0955  0.1321 -0.4331
  147OSM    H8F16291   2.882   5.123   4.284 -0.3211  1.5555  0.7979
  147OSM    H8G16292   2.870   5.214   4.133 -1.4159  3.4277  1.4954
  147OSM    C9F16293   2.969   5.318   4.279 -0.2816 -0.4178  0.2235
  147OSM    H9F16294   3.019   5.391   4.212  1.1307 -1.3758  0.1797
  147OSM   C10F16295   2.941   5.351   4.402  0.0957  0.7655 -0.0558
  147OSM   H10F16296   2.979   5.445   4.445 -0.5845  0.5546  1.0444
  147OSM   C11F16297   2.883   5.261   4.508 -0.5993 -0.4251  0.3388
  147OSM   H11F16298   2.886   5.153   4.483 -1.6503 -0.3491 -0.2101
  147OSM   H11G16299   2.776   5.292   4.514 -0.9785 -0.9458 -2.4091
  147OSM   C12F16300   2.954   5.268   4.643  0.0328  0.4523 -0.6451
  147OSM   H12F16301   3.052   5.218   4.626 -0.5615 -0.7779 -0.5712
  147OSM   H12G16302   2.898   5.196   4.707 -0.1179  1.7388  0.7271
  147OSM   C13F16303   2.968   5.401   4.719  0.4453  0.3126 -0.0883
  147OSM   H13F16304   2.866   5.445   4.712  0.1045 -0.4416  0.0422
  147OSM   H13G16305   3.035   5.475   4.671  2.6467 -1.2598  0.3961
  147OSM   C14F16306   3.016   5.377   4.859 -0.0980 -0.3193 -0.3415
  147OSM   H14F16307   3.114   5.325   4.865 -0.7935 -1.6012  0.4197
  147OSM   H14G16308   2.938   5.313   4.905 -0.9862  2.2507  2.0166
  147OSM   C15F16309   3.021   5.514   4.945  0.4867 -0.7999 -0.6072
  147OSM   H15F16310   3.098   5.583   4.904 -0.5730  1.4009  0.9755
  147OSM   H15G16311   3.056   5.475   5.044  0.4689  1.6407  0.4152
  147OSM   C16F16312   2.882   5.587   4.955 -0.2015  0.5011  0.7641
  147OSM   H16F16313   2.800   5.517   4.980 -2.1386  1.9004 -1.3540
  147OSM   H16G16314   2.866   5.628   4.853 -0.0102  2.8381  1.6137
  147OSM   C17F16315   2.885   5.709   5.047  0.2764  0.1014  0.4215
  147OSM   H17F16316   2.780   5.739   5.067  0.7421  1.6802  0.6183
  147OSM   H17G16317   2.928   5.788   4.981 -0.0223  1.1591  1.4586
  147OSM   C18F16318   2.958   5.704   5.182  0.0709  0.3071 -0.2804
  147OSM   H18F16319   3.063   5.729   5.159  0.7093  0.2626  2.3084
  147OSM   H18G16320   2.956   5.602   5.227  0.2511  0.8136  0.9128
  147OSM   H18H16321   2.926   5.776   5.260  1.8359 -1.2224  1.9860
  148OSM      N16322   4.039   3.641   3.254  0.1464 -0.0363  0.0197
  148OSM    C1516323   4.164   3.604   3.179  0.3362  0.3610 -0.2831
  148OSM   H15A16324   4.188   3.676   3.102  1.6688  0.1834 -0.0635
  148OSM   H15B16325   4.157   3.500   3.152 -1.5339 -0.1388  1.7847
  148OSM   H15C16326   4.255   3.605   3.238 -1.1989 -0.5051  2.2737
  148OSM    C1416327   3.977   3.509   3.310  0.5290 -0.2824  0.5024
  148OSM   H14A16328   4.043   3.453   3.374 -0.7877 -1.1201  1.1765
  148OSM   H14B16329   3.942   3.447   3.229 -0.5469  2.4844 -1.2964
  148OSM   H14C16330   3.887   3.524   3.369  0.2277 -4.4829  1.4298
  148OSM    C1316331   4.081   3.726   3.369 -0.9331  0.3881 -0.5377
  148OSM   H13A16332   4.108   3.822   3.330  0.8201 -0.1658 -0.7782
  148OSM   H13B16333   4.159   3.679   3.427 -1.4235  0.3869  0.1434
  148OSM   H13C16334   4.001   3.732   3.442  0.1656  1.7148  0.6223
  148OSM    C1216335   3.932   3.703   3.161 -0.5357  0.2515  0.7840
  148OSM   H12A16336   3.847   3.722   3.225  0.4097 -0.1543  2.2073
  148OSM   H12B16337   3.898   3.628   3.090 -1.2631 -0.2265  1.6241
  148OSM    C1116338   3.966   3.850   3.101 -0.2813  0.3200  0.2884
  148OSM   H11A16339   3.889   3.874   3.024  1.7945 -0.3748 -2.1697
  148OSM   H11B16340   4.059   3.858   3.040 -0.9113  2.3796 -0.4756
  148OSM      P16341   3.861   4.009   3.284 -0.0340 -0.0709  0.0364
  148OSM    O1316342   3.831   4.147   3.229  0.5586  0.3127  0.8311
  148OSM    O1416343   3.754   3.909   3.292  1.0002 -0.1880  0.1159
  148OSM    O1116344   3.928   4.032   3.423  0.1845 -0.1498 -0.1892
  148OSM    O1216345   3.982   3.951   3.208 -0.1455  0.4575  0.0855
  148OSM    C1S16346   4.047   4.102   3.448 -0.2806  0.3220  0.1943
  148OSM    H1S16347   4.041   4.204   3.404  0.3617 -0.4447 -1.7738
  148OSM    H1T16348   4.137   4.045   3.418  0.1357  0.4710  1.1102
  148OSM     NF16349   4.201   4.182   3.636 -0.2169  0.0419 -0.1620
  148OSM    HNF16350   4.268   4.114   3.664  0.4396  1.7112  2.7651
  148OSM    C2S16351   4.078   4.111   3.602  0.3902 -0.8145 -0.1284
  148OSM    H2S16352   3.996   4.167   3.652  1.4150  1.2468 -0.6338
  148OSM    C3S16353   4.076   3.961   3.656 -0.3611 -0.2478 -0.2255
  148OSM    H3S16354   4.165   3.909   3.613 -0.1249 -0.2196  0.2216
  148OSM     O316355   3.962   3.877   3.624  0.0136  0.0535 -0.1854
  148OSM    HO316356   3.927   3.940   3.561 -2.0133 -0.5208  0.2939
  148OSM    C4S16357   4.091   3.948   3.810  0.3964 -0.2093  0.2252
  148OSM    H4S16358   4.191   3.915   3.842  1.9956  2.8504 -1.2718
  148OSM    C5S16359   4.006   3.983   3.909 -0.9374 -0.6615  0.4113
  148OSM    H5S16360   3.909   4.032   3.891 -0.0337  0.9008 -0.4036
  148OSM    C6S16361   4.040   3.988   4.060  0.5163 -0.2578  0.0759
  148OSM    H6S16362   4.086   4.082   4.097 -0.5764  0.4640 -0.3375
  148OSM    H6T16363   4.110   3.908   4.092  0.5295 -0.6323 -0.8641
  148OSM    C7S16364   3.912   3.973   4.140 -1.5380 -0.5351 -0.2200
  148OSM    H7S16365   3.886   3.867   4.122 -0.2085 -1.1410  1.2555
  148OSM    H7T16366   3.829   4.038   4.104 -1.4340  0.1818  0.7890
  148OSM    C8S16367   3.945   3.992   4.295 -0.3181 -0.2923  0.3516
  148OSM    H8S16368   3.948   4.101   4.317 -0.5734 -0.4417  1.1584
  148OSM    H8T16369   4.049   3.955   4.308  0.2045  1.2608  0.7939
  148OSM    C9S16370   3.860   3.903   4.384 -0.2237 -0.7329  0.5406
  148OSM    H9S16371   3.880   3.797   4.357  0.6468 -0.3684 -0.3217
  148OSM    H9T16372   3.752   3.925   4.368  0.0160  1.1164  1.2024
  148OSM   C10S16373   3.894   3.936   4.527 -0.6130 -0.3761  0.0635
  148OSM   H10S16374   3.903   4.046   4.545 -0.7662 -0.2162 -0.8098
  148OSM   H10T16375   4.001   3.908   4.539 -0.2513  0.6238 -0.6358
  148OSM   C11S16376   3.800   3.883   4.633  0.4593  0.0813 -0.3804
  148OSM   H11S16377   3.710   3.947   4.645  0.6052  0.7736 -2.5309
  148OSM   H11T16378   3.843   3.899   4.734  0.4647 -1.0238 -0.1988
  148OSM   C12S16379   3.766   3.735   4.621 -0.3266  0.1165  0.1529
  148OSM   H12S16380   3.864   3.682   4.621 -1.2616 -1.7196 -1.0672
  148OSM   H12T16381   3.713   3.695   4.532  2.8200 -2.1940 -0.8609
  148OSM   C13S16382   3.689   3.679   4.744 -0.2801 -0.1904  0.4475
  148OSM   H13S16383   3.711   3.740   4.834  1.1615 -1.9703  1.3786
  148OSM   H13T16384   3.719   3.574   4.768  2.0318  0.6418  1.4269
  148OSM   C14S16385   3.538   3.671   4.718 -0.4226 -0.1579 -0.7287
  148OSM   H14S16386   3.518   3.618   4.623  0.8052 -0.5670 -0.7723
  148OSM   H14T16387   3.504   3.776   4.704  1.2124  0.6487  0.8017
  148OSM   C15S16388   3.448   3.613   4.843  0.2923  0.7107  0.2066
  148OSM   H15S16389   3.480   3.509   4.864 -0.7441  0.5771  1.2203
  148OSM   H15T16390   3.343   3.600   4.811  0.7741  0.2139 -1.2412
  148OSM   C16S16391   3.447   3.714   4.967  0.1752  0.2248  0.2362
  148OSM   H16S16392   3.400   3.798   4.911  0.9045 -0.6224 -1.7656
  148OSM   H16T16393   3.549   3.754   4.984  0.6432 -0.3779 -0.9989
  148OSM   C17S16394   3.372   3.669   5.091 -0.5210 -0.3608 -0.0354
  148OSM   H17S16395   3.431   3.584   5.131  1.5392  1.0058 -0.0496
  148OSM   H17T16396   3.275   3.638   5.046 -0.1297 -0.2671 -0.9736
  148OSM   C18S16397   3.358   3.781   5.197 -0.1176  0.4169 -0.3958
  148OSM   H18S16398   3.456   3.811   5.241 -1.4893  0.2713  3.0660
  148OSM   H18T16399   3.298   3.745   5.284 -0.9486  0.1966 -1.0517
  148OSM   H18U16400   3.309   3.870   5.153 -2.3561 -0.8747 -0.6843
  148OSM    C1F16401   4.224   4.306   3.623  0.1285 -0.3311 -0.3147
  148OSM     OF16402   4.134   4.385   3.595  0.4351 -0.2541  0.2968
  148OSM    C2F16403   4.362   4.356   3.663  0.6135  0.0264 -0.2676
  148OSM    H2F16404   4.402   4.392   3.566  1.1263 -0.6557 -0.3155
  148OSM    H2G16405   4.422   4.275   3.712 -1.4434 -1.8816 -0.7601
  148OSM    C3F16406   4.362   4.470   3.765 -0.3880 -0.8666 -0.8660
  148OSM    H3F16407   4.322   4.560   3.714  1.3424  0.8107  0.5801
  148OSM    H3G16408   4.462   4.508   3.795 -0.7263  0.1665 -0.9919
  148OSM    C4F16409   4.266   4.449   3.891 -0.1828  0.4154 -0.2094
  148OSM    H4F16410   4.165   4.429   3.849 -0.1550 -1.2158  0.4328
  148OSM    H4G16411   4.256   4.536   3.959 -1.8407  0.8000 -0.8734
  148OSM    C5F16412   4.294   4.330   3.983 -0.4865  0.7087  1.2720
  148OSM    H5F16413   4.321   4.241   3.921 -1.4587  0.8693  0.5927
  148OSM    H5G16414   4.210   4.301   4.051  1.8196 -3.0726  2.8334
  148OSM    C6F16415   4.409   4.365   4.076 -0.2586  0.5399 -0.1356
  148OSM    H6F16416   4.489   4.434   4.042 -0.2298  0.2433 -0.6722
  148OSM    H6G16417   4.459   4.272   4.107  0.1822  0.8490  0.0839
  148OSM    C7F16418   4.354   4.422   4.203  0.3935 -0.2272  0.0357
  148OSM    H7F16419   4.304   4.350   4.271  2.7191  0.2528  2.4364
  148OSM    H7G16420   4.277   4.488   4.158  1.7337 -0.5478 -2.9399
  148OSM    C8F16421   4.456   4.497   4.285  0.4637  0.6043  0.8299
  148OSM    H8F16422   4.413   4.564   4.363 -1.2929 -0.2036  0.6071
  148OSM    H8G16423   4.520   4.566   4.227  1.5538 -0.4058  0.7788
  148OSM    C9F16424   4.559   4.400   4.337 -1.3719  0.6883 -0.1090
  148OSM    H9F16425   4.580   4.307   4.282  1.3296 -1.0500  3.3789
  148OSM   C10F16426   4.645   4.433   4.440  0.1089 -0.5337  0.9896
  148OSM   H10F16427   4.704   4.346   4.473  0.3444 -1.3230 -1.3138
  148OSM   C11F16428   4.631   4.557   4.526  0.1817 -0.2342 -0.3990
  148OSM   H11F16429   4.559   4.631   4.485  1.5852  1.2100 -0.3268
  148OSM   H11G16430   4.724   4.615   4.541 -0.0667  0.9885 -2.9761
  148OSM   C12F16431   4.567   4.523   4.660  0.7869 -0.2512 -0.4558
  148OSM   H12F16432   4.503   4.433   4.656 -0.5061  0.5691  1.0623
  148OSM   H12G16433   4.512   4.612   4.695  1.9452  0.0556  0.6803
  148OSM   C13F16434   4.676   4.512   4.771 -0.0967 -0.0655  0.0421
  148OSM   H13F16435   4.722   4.612   4.783 -3.0060  1.6014 -1.5112
  148OSM   H13G16436   4.749   4.431   4.750 -2.0118 -2.4462  1.8813
  148OSM   C14F16437   4.615   4.473   4.913  0.0969  0.2012  0.9750
  148OSM   H14F16438   4.583   4.368   4.900  1.2893 -0.1599  0.8370
  148OSM   H14G16439   4.537   4.551   4.926  0.6173  1.0693 -0.8107
  148OSM   C15F16440   4.716   4.482   5.024  0.2250 -0.1773 -0.1463
  148OSM   H15F16441   4.755   4.586   5.035  0.7109 -0.3654 -0.0903
  148OSM   H15G16442   4.794   4.407   4.999 -0.8580 -0.8443 -1.6879
  148OSM   C16F16443   4.653   4.453   5.166 -0.0072 -0.2076  0.9406
  148OSM   H16F16444   4.617   4.349   5.149 -0.0895 -0.4312  2.3887
  148OSM   H16G16445   4.572   4.528   5.174 -0.0321 -0.2962  1.5195
  148OSM   C17F16446   4.743   4.459   5.283 -0.0499 -0.8933  0.3479
  148OSM   H17F16447   4.803   4.552   5.291  0.5685 -1.4290  3.3951
  148OSM   H17G16448   4.820   4.379   5.289  0.1749 -0.6546  0.6917
  148OSM   C18F16449   4.662   4.447   5.413 -0.0806 -0.1678  0.1435
  148OSM   H18F16450   4.581   4.523   5.423 -1.9507 -1.4650 -3.4654
  148OSM   H18G16451   4.730   4.453   5.500  1.1364  2.7569 -0.9062
  148OSM   H18H16452   4.617   4.346   5.406  1.5835 -0.9044 -0.3675
  149OSM      N16453   4.312   2.189   2.919 -0.0237  0.0982 -0.9210
  149OSM    C1516454   4.379   2.271   3.022 -0.4687 -0.2172 -0.2026
  149OSM   H15A16455   4.371   2.228   3.121  1.9085  1.8804  1.0074
  149OSM   H15B16456   4.339   2.371   3.030  0.5513  0.1316  0.8594
  149OSM   H15C16457   4.485   2.281   3.005 -0.5057  1.1536  0.2590
  149OSM    C1416458   4.340   2.249   2.779  0.0727  0.5764  0.1275
  149OSM   H14A16459   4.308   2.187   2.697  1.1547  0.1466  0.0149
  149OSM   H14B16460   4.445   2.262   2.761  0.0781  0.7348  0.2682
  149OSM   H14C16461   4.300   2.349   2.772 -0.9887  0.2015  0.5655
  149OSM    C1316462   4.372   2.053   2.922  0.2306 -0.3375 -0.5496
  149OSM   H13A16463   4.480   2.061   2.922  0.2491 -0.5868 -0.6613
  149OSM   H13B16464   4.348   1.986   2.841 -1.0232 -0.6989  0.1064
  149OSM   H13C16465   4.353   2.013   3.020 -1.0193 -0.6538 -0.9070
  149OSM    C1216466   4.165   2.180   2.946 -0.1622  0.3856  0.0249
  149OSM   H12A16467   4.148   2.159   3.050  1.0894  1.5687  0.4966
  149OSM   H12B16468   4.120   2.098   2.891 -1.1118  0.1362  1.1486
  149OSM    C1116469   4.085   2.314   2.912 -0.8721  1.0317 -0.3478
  149OSM   H11A16470   3.985   2.302   2.959 -0.7452 -1.6988 -0.5972
  149OSM   H11B16471   4.064   2.299   2.803 -0.1839 -2.6548 -0.0840
  149OSM      P16472   4.065   2.563   2.980 -0.6419  0.3396  0.4229
  149OSM    O1316473   4.156   2.678   2.990  0.2577 -0.7417 -0.4455
  149OSM    O1416474   3.958   2.570   2.880 -0.7266 -0.0106 -0.2645
  149OSM    O1116475   4.007   2.526   3.118 -0.2862  0.0515 -0.2708
  149OSM    O1216476   4.158   2.434   2.948  0.6511  0.3049  0.0387
  149OSM    C1S16477   4.087   2.462   3.220 -0.4640 -0.3378 -0.0934
  149OSM    H1S16478   4.183   2.517   3.230 -1.1967  0.7189  1.5266
  149OSM    H1T16479   4.109   2.356   3.196  0.9850 -0.0511 -0.1020
  149OSM     NF16480   4.091   2.373   3.453 -0.0621  0.1301  0.0420
  149OSM    HNF16481   4.044   2.285   3.453  1.7996 -0.9138 -1.0281
  149OSM    C2S16482   4.024   2.466   3.361  0.2185 -0.3931 -0.0879
  149OSM    H2S16483   4.017   2.567   3.407  0.5559 -0.2446 -0.3600
  149OSM    C3S16484   3.873   2.426   3.340 -0.0786 -0.6257  0.0515
  149OSM    H3S16485   3.874   2.333   3.280  1.9495 -0.2401 -0.6176
  149OSM     O316486   3.800   2.529   3.272 -0.0103 -0.5585  0.0712
  149OSM    HO316487   3.857   2.574   3.210  0.1884  0.1927  0.7873
  149OSM    C4S16488   3.803   2.402   3.470 -0.7115 -0.5315 -0.2870
  149OSM    H4S16489   3.765   2.492   3.521  0.6734  0.5250 -1.0699
  149OSM    C5S16490   3.770   2.277   3.514 -0.0811  0.7165  0.8306
  149OSM    H5S16491   3.793   2.189   3.452 -1.4197  1.6184 -1.0634
  149OSM    C6S16492   3.694   2.246   3.638  0.3013 -0.6215  0.7542
  149OSM    H6S16493   3.615   2.168   3.626  0.3689 -0.4204 -1.1679
  149OSM    H6T16494   3.624   2.330   3.658 -0.1758 -0.8898  0.2383
  149OSM    C7S16495   3.789   2.247   3.757 -0.6486  0.2786 -0.0429
  149OSM    H7S16496   3.853   2.338   3.764  1.7422 -1.3401  0.4758
  149OSM    H7T16497   3.868   2.169   3.749 -2.0818 -1.2277 -0.0780
  149OSM    C8S16498   3.703   2.234   3.882  0.2996 -0.4110  0.3053
  149OSM    H8S16499   3.665   2.130   3.874  1.1521 -0.7042 -0.1335
  149OSM    H8T16500   3.623   2.311   3.886 -1.0737 -1.7931 -0.0772
  149OSM    C9S16501   3.803   2.240   4.003  0.4527 -0.4965  0.1863
  149OSM    H9S16502   3.895   2.300   3.989 -0.9265  1.2439 -1.9300
  149OSM    H9T16503   3.837   2.134   4.011  0.3129 -0.5888 -0.4354
  149OSM   C10S16504   3.729   2.283   4.128  1.1353 -0.5408  0.0567
  149OSM   H10S16505   3.699   2.390   4.122  0.9842 -0.5236  0.8972
  149OSM   H10T16506   3.791   2.274   4.220 -1.5378 -0.5690  1.9696
  149OSM   C11S16507   3.595   2.213   4.161 -0.4707  0.4912 -0.1383
  149OSM   H11S16508   3.614   2.104   4.167 -1.2827  0.3752  0.5733
  149OSM   H11T16509   3.526   2.219   4.074 -2.3937  1.0454  1.3550
  149OSM   C12S16510   3.527   2.249   4.299  0.6650 -0.9519 -0.3198
  149OSM   H12S16511   3.430   2.196   4.310 -0.8462  1.9374  1.6483
  149OSM   H12T16512   3.499   2.357   4.303  0.8805 -0.9449  1.5598
  149OSM   C13S16513   3.614   2.209   4.421 -0.1972  0.8711 -0.2896
  149OSM   H13S16514   3.714   2.257   4.410  0.3780 -0.6582 -2.2811
  149OSM   H13T16515   3.633   2.100   4.405  0.4434  0.9668 -0.2058
  149OSM   C14S16516   3.540   2.227   4.558 -0.2885 -0.1722  0.1988
  149OSM   H14S16517   3.438   2.184   4.549  0.1475 -1.8735  2.4982
  149OSM   H14T16518   3.529   2.337   4.569 -1.4143 -0.4205  1.9753
  149OSM   C15S16519   3.612   2.169   4.676 -0.4653 -0.1319 -0.3168
  149OSM   H15S16520   3.722   2.165   4.663 -0.3243 -0.0384  0.7611
  149OSM   H15T16521   3.572   2.066   4.690  1.3402 -0.9336 -0.7303
  149OSM   C16S16522   3.579   2.244   4.811 -0.1163  0.7624 -0.4115
  149OSM   H16S16523   3.582   2.354   4.801 -0.5926  0.5910 -3.0924
  149OSM   H16T16524   3.651   2.225   4.893 -0.2560  0.2450 -0.4011
  149OSM   C17S16525   3.438   2.207   4.850  1.0592  0.5488 -0.2481
  149OSM   H17S16526   3.453   2.100   4.873 -1.5351  0.0002 -0.7355
  149OSM   H17T16527   3.364   2.207   4.766 -0.8661 -2.5167  1.2382
  149OSM   C18S16528   3.384   2.270   4.979 -0.2695 -0.5520 -0.7402
  149OSM   H18S16529   3.321   2.360   4.962 -1.0552 -1.1723 -1.2145
  149OSM   H18T16530   3.470   2.285   5.047  0.0927 -2.5855 -0.6923
  149OSM   H18U16531   3.327   2.194   5.037  1.6079 -1.6194 -0.2161
  149OSM    C1F16532   4.204   2.406   3.509 -0.4404 -0.0485 -0.4656
  149OSM     OF16533   4.241   2.519   3.498 -0.1926  0.6393 -0.0488
  149OSM    C2F16534   4.286   2.307   3.586  0.2929 -0.0039  0.2134
  149OSM    H2F16535   4.389   2.287   3.547  0.2724  0.2227  0.0444
  149OSM    H2G16536   4.238   2.207   3.597 -0.8000  0.6379  1.5918
  149OSM    C3F16537   4.298   2.371   3.721  0.4129 -0.2478 -0.6550
  149OSM    H3F16538   4.197   2.371   3.768  0.2905  0.8527 -0.9028
  149OSM    H3G16539   4.342   2.472   3.712 -0.5540  0.2996  0.4305
  149OSM    C4F16540   4.399   2.309   3.810 -0.0877  0.6953  0.0087
  149OSM    H4F16541   4.503   2.315   3.771  0.5439 -2.9194  0.8206
  149OSM    H4G16542   4.378   2.200   3.811 -0.5891  0.7784  1.9446
  149OSM    C5F16543   4.390   2.363   3.960 -0.2148  0.7327 -0.0381
  149OSM    H5F16544   4.286   2.346   3.997  0.3880  1.2362  2.0023
  149OSM    H5G16545   4.421   2.469   3.969  3.4906 -0.1732 -0.5724
  149OSM    C6F16546   4.498   2.282   4.044  0.4616 -0.3841  0.4551
  149OSM    H6F16547   4.594   2.270   3.990 -0.0958 -2.8670 -0.1138
  149OSM    H6G16548   4.454   2.183   4.067 -5.2572  1.7080  0.2722
  149OSM    C7F16549   4.519   2.371   4.173  0.3322 -0.6302  0.8305
  149OSM    H7F16550   4.530   2.479   4.147 -3.0778 -0.4976 -0.5374
  149OSM    H7G16551   4.618   2.342   4.214  0.9404  1.0587  0.6570
  149OSM    C8F16552   4.402   2.373   4.273  0.1804 -0.3554 -0.0903
  149OSM    H8F16553   4.313   2.368   4.206 -0.5998  2.4562  0.6093
  149OSM    H8G16554   4.389   2.467   4.330  0.0542  0.5876 -1.6141
  149OSM    C9F16555   4.420   2.255   4.367  0.9649  0.3766 -0.6833
  149OSM    H9F16556   4.432   2.157   4.318  0.2330  0.2335 -0.5936
  149OSM   C10F16557   4.431   2.258   4.505 -0.1296 -0.4794  0.0472
  149OSM   H10F16558   4.441   2.161   4.555 -1.1406 -0.4868  0.2586
  149OSM   C11F16559   4.429   2.381   4.595  0.0813  0.2985  0.3063
  149OSM   H11F16560   4.339   2.446   4.597 -0.8338 -0.8915 -0.3719
  149OSM   H11G16561   4.516   2.446   4.574  0.2486  0.5112  1.5828
  149OSM   C12F16562   4.445   2.324   4.733 -0.2321 -0.4292  0.2782
  149OSM   H12F16563   4.552   2.306   4.755 -0.3799 -1.3589  0.2851
  149OSM   H12G16564   4.387   2.230   4.746 -0.1197 -0.3025  1.9222
  149OSM   C13F16565   4.388   2.409   4.843  0.6701 -0.5370  0.6458
  149OSM   H13F16566   4.279   2.420   4.823  1.0484  0.1449 -1.3503
  149OSM   H13G16567   4.428   2.512   4.841 -2.5806  0.8699 -1.1152
  149OSM   C14F16568   4.411   2.359   4.979 -0.3185  0.2249  0.4830
  149OSM   H14F16569   4.367   2.257   4.983 -0.9322  0.5340  3.4109
  149OSM   H14G16570   4.366   2.421   5.059 -2.0699 -1.3834  0.7952
  149OSM   C15F16571   4.556   2.372   5.021  1.0392 -0.1504 -0.7365
  149OSM   H15F16572   4.588   2.478   5.014  0.1678  0.1579 -0.1864
  149OSM   H15G16573   4.614   2.311   4.948 -0.8734 -2.0858 -0.7026
  149OSM   C16F16574   4.575   2.314   5.162 -0.4453 -0.8149 -0.5212
  149OSM   H16F16575   4.668   2.253   5.167  3.1375  3.9802 -0.7538
  149OSM   H16G16576   4.499   2.243   5.200 -0.6413 -1.6261 -2.3385
  149OSM   C17F16577   4.587   2.434   5.263  0.2504  1.0646 -0.1560
  149OSM   H17F16578   4.565   2.400   5.366 -2.8787 -0.0568 -1.0763
  149OSM   H17G16579   4.507   2.503   5.229  0.0287  0.5273 -0.7382
  149OSM   C18F16580   4.710   2.506   5.250 -0.9260 -0.0968  0.4253
  149OSM   H18F16581   4.717   2.547   5.147 -0.1879 -0.5401  0.2938
  149OSM   H18G16582   4.793   2.434   5.267  0.4824  1.0239 -1.3288
  149OSM   H18H16583   4.713   2.589   5.324  0.1319  0.1550  0.1137
  150OSM      N16584   0.831   6.435   2.854 -0.1739  0.1209  0.3849
  150OSM    C1516585   0.755   6.562   2.855 -0.3539 -0.3167  0.8383
  150OSM   H15A16586   0.711   6.580   2.953 -1.6434  1.0882  0.0524
  150OSM   H15B16587   0.668   6.551   2.792  0.3540  0.2206 -0.2462
  150OSM   H15C16588   0.819   6.642   2.822 -0.3135 -1.1638 -1.2878
  150OSM    C1416589   0.734   6.328   2.886 -0.3759 -0.2386  0.0106
  150OSM   H14A16590   0.657   6.337   2.811  0.1234  3.7446 -0.2611
  150OSM   H14B16591   0.691   6.342   2.984 -0.8139 -2.7596  0.2265
  150OSM   H14C16592   0.789   6.235   2.893  4.1639  2.2303  1.6955
  150OSM    C1316593   0.887   6.410   2.720 -0.2454 -0.3882  0.6747
  150OSM   H13A16594   0.924   6.308   2.716 -0.5055 -0.5788  2.3786
  150OSM   H13B16595   0.962   6.482   2.692 -2.3176  0.9509 -1.7727
  150OSM   H13C16596   0.817   6.439   2.644  1.9709 -0.6114 -1.6038
  150OSM    C1216597   0.950   6.439   2.952  0.1932 -0.3938  0.2194
  150OSM   H12A16598   1.009   6.516   2.905  0.5577  0.9004  2.6594
  150OSM   H12B16599   1.007   6.347   2.942 -1.5708 -1.3233 -2.5544
  150OSM    C1116600   0.924   6.476   3.096  0.4058 -0.0563 -0.7788
  150OSM   H11A16601   0.863   6.569   3.100  1.9556  0.9806 -0.6467
  150OSM   H11B16602   1.020   6.510   3.140  1.2035 -1.9238 -0.9676
  150OSM      P16603   0.910   6.282   3.264  0.1079 -0.5240 -0.0362
  150OSM    O1316604   0.803   6.195   3.312 -0.2084 -0.0532 -0.2549
  150OSM    O1416605   1.028   6.220   3.201 -0.0582 -0.1287 -0.4322
  150OSM    O1116606   0.961   6.378   3.375  0.4757 -0.2980  0.1475
  150OSM    O1216607   0.842   6.376   3.160  0.1041  0.8352  0.1007
  150OSM    C1S16608   0.873   6.424   3.483  0.4437  0.2015  0.6462
  150OSM    H1S16609   0.838   6.337   3.543 -0.1946 -0.4002 -0.5485
  150OSM    H1T16610   0.792   6.495   3.455 -2.3558 -3.0131 -0.1490
  150OSM     NF16611   0.864   6.565   3.693  0.6249  0.0242  0.1317
  150OSM    HNF16612   0.840   6.662   3.689 -2.7516 -0.6119  1.5542
  150OSM    C2S16613   0.958   6.512   3.592 -0.0967 -0.2207 -0.0637
  150OSM    H2S16614   1.040   6.449   3.633 -0.7896 -0.3179  1.2031
  150OSM    C3S16615   1.026   6.632   3.522  0.0240 -0.1417 -0.2765
  150OSM    H3S16616   0.949   6.701   3.480 -0.3818  0.2878  1.1151
  150OSM     O316617   1.113   6.592   3.414  0.4728 -0.1997  0.0894
  150OSM    HO316618   1.096   6.497   3.420  1.3668 -0.3308  0.7236
  150OSM    C4S16619   1.097   6.712   3.623  0.1809  0.0673  0.8763
  150OSM    H4S16620   1.029   6.789   3.664 -0.9492 -0.5902  0.2731
  150OSM    C5S16621   1.221   6.694   3.669 -0.3422 -0.7557  0.1034
  150OSM    H5S16622   1.277   6.604   3.639 -0.4789 -0.3661 -1.3917
  150OSM    C6S16623   1.278   6.778   3.778  0.2451 -0.0354 -0.4817
  150OSM    H6S16624   1.326   6.868   3.734 -0.5760  0.4651 -0.3868
  150OSM    H6T16625   1.368   6.724   3.813 -0.6024 -0.3475  1.3237
  150OSM    C7S16626   1.188   6.814   3.903 -0.0045 -0.4075  0.3073
  150OSM    H7S16627   1.090   6.853   3.867  1.2532  1.4991 -1.3071
  150OSM    H7T16628   1.244   6.896   3.953  0.2435  0.9871 -2.0665
  150OSM    C8S16629   1.169   6.690   3.995  0.6037  0.4489 -1.0322
  150OSM    H8S16630   1.262   6.630   3.991 -0.9357 -2.0817 -1.0194
  150OSM    H8T16631   1.086   6.631   3.950 -1.0670  1.6695  0.3146
  150OSM    C9S16632   1.145   6.732   4.140  0.2496  0.1634  0.5117
  150OSM    H9S16633   1.054   6.795   4.147 -0.0712 -0.3609  1.1173
  150OSM    H9T16634   1.229   6.795   4.178  0.0909  1.5599 -1.3110
  150OSM   C10S16635   1.147   6.631   4.249 -0.0846 -1.1020  0.2929
  150OSM   H10S16636   1.249   6.595   4.274  0.6241  1.3913  1.3762
  150OSM   H10T16637   1.074   6.549   4.233 -0.7500 -0.9185  2.1912
  150OSM   C11S16638   1.093   6.687   4.376 -0.0492  0.1339 -0.0913
  150OSM   H11S16639   0.984   6.699   4.360  0.1987  2.8263 -0.3121
  150OSM   H11T16640   1.142   6.785   4.395 -0.7079  0.5599 -0.5344
  150OSM   C12S16641   1.147   6.598   4.494  0.0491 -0.2988 -0.2075
  150OSM   H12S16642   1.256   6.581   4.487 -0.2152 -2.4180  0.2527
  150OSM   H12T16643   1.084   6.507   4.489 -0.1461 -0.1707 -0.1187
  150OSM   C13S16644   1.112   6.667   4.629  0.1845 -0.1984  0.3573
  150OSM   H13S16645   1.009   6.703   4.611  0.5143  1.2810  1.2676
  150OSM   H13T16646   1.176   6.753   4.657  0.7935 -1.6949  4.1272
  150OSM   C14S16647   1.115   6.585   4.754  0.3340  1.0017  0.1830
  150OSM   H14S16648   1.217   6.560   4.790 -0.4207 -1.9839  0.5817
  150OSM   H14T16649   1.059   6.493   4.724  0.2258  1.4454 -1.0147
  150OSM   C15S16650   1.027   6.650   4.868 -0.6694 -0.0713 -0.4961
  150OSM   H15S16651   0.919   6.654   4.842 -0.9105 -2.3118 -0.0408
  150OSM   H15T16652   1.074   6.748   4.890 -2.6858  0.5219  1.5974
  150OSM   C16S16653   1.040   6.559   4.985 -0.0751  0.0252  0.9821
  150OSM   H16S16654   1.144   6.556   5.024 -0.5947 -0.8136  2.3848
  150OSM   H16T16655   1.006   6.457   4.956 -2.4224  0.2626  2.5984
  150OSM   C17S16656   0.957   6.606   5.099 -0.0704  0.8167  0.5695
  150OSM   H17S16657   0.852   6.623   5.065 -0.3824  1.5946  1.8808
  150OSM   H17T16658   0.992   6.707   5.129  0.6964  0.2282  1.6869
  150OSM   C18S16659   0.965   6.519   5.220 -0.3878  0.8491 -0.5441
  150OSM   H18S16660   0.918   6.561   5.311 -1.6793  0.4756 -1.0152
  150OSM   H18T16661   1.072   6.494   5.239 -1.1857 -3.0731 -0.4001
  150OSM   H18U16662   0.927   6.420   5.189  1.3515  0.6017 -2.0547
  150OSM    C1F16663   0.814   6.484   3.793  0.4407  0.2670  0.2351
  150OSM     OF16664   0.785   6.364   3.770 -0.9004 -0.2956 -0.5909
  150OSM    C2F16665   0.784   6.555   3.923  0.1974 -0.0845  0.3267
  150OSM    H2F16666   0.777   6.665   3.906  0.9502 -0.0909 -0.0882
  150OSM    H2G16667   0.853   6.532   4.007 -0.0846 -2.7547 -0.0778
  150OSM    C3F16668   0.636   6.516   3.978 -0.3070  0.2774  0.3699
  150OSM    H3F16669   0.622   6.406   3.983  1.6175 -0.0312 -0.0721
  150OSM    H3G16670   0.563   6.560   3.906 -0.4517 -0.5682 -0.0123
  150OSM    C4F16671   0.608   6.570   4.121  0.3887 -0.5415  0.5748
  150OSM    H4F16672   0.498   6.582   4.126  0.5437  1.2304  0.4792
  150OSM    H4G16673   0.641   6.675   4.137 -2.3090  0.5685 -0.5436
  150OSM    C5F16674   0.666   6.482   4.237  0.2191 -0.8101  0.0451
  150OSM    H5F16675   0.776   6.471   4.228  0.5121  0.1913  1.8025
  150OSM    H5G16676   0.619   6.382   4.235 -1.3501 -0.1607  1.5428
  150OSM    C6F16677   0.622   6.525   4.377 -0.3667 -0.0831  0.2773
  150OSM    H6F16678   0.512   6.539   4.375 -0.1580  1.9228 -1.5378
  150OSM    H6G16679   0.647   6.630   4.407  1.0301  0.6965 -3.1863
  150OSM    C7F16680   0.687   6.438   4.485  0.6192 -0.5431  0.5403
  150OSM    H7F16681   0.797   6.440   4.464  0.1961  1.8859 -2.0528
  150OSM    H7G16682   0.651   6.334   4.468  3.5701 -1.5324 -0.5003
  150OSM    C8F16683   0.670   6.488   4.632  0.2763  0.5736 -0.2079
  150OSM    H8F16684   0.739   6.572   4.651 -0.1984  0.3555  3.0196
  150OSM    H8G16685   0.697   6.403   4.699 -0.4255  0.7184  0.2662
  150OSM    C9F16686   0.535   6.534   4.668  0.2075  0.1846 -0.6943
  150OSM    H9F16687   0.470   6.550   4.580 -0.3502  0.0076 -0.3212
  150OSM   C10F16688   0.483   6.558   4.791 -0.5694  0.3051  0.4355
  150OSM   H10F16689   0.379   6.595   4.796 -1.4761 -2.2228  2.1607
  150OSM   C11F16690   0.538   6.539   4.927  0.6824  0.2607  0.1230
  150OSM   H11F16691   0.647   6.518   4.926  0.4317 -1.1090 -0.2525
  150OSM   H11G16692   0.491   6.447   4.969 -1.9692  0.5497 -1.9833
  150OSM   C12F16693   0.504   6.665   5.015 -0.4502  0.8300 -0.0096
  150OSM   H12F16694   0.527   6.645   5.122  2.7679 -1.0268 -0.8907
  150OSM   H12G16695   0.401   6.695   4.990 -0.2270  1.3441 -0.3218
  150OSM   C13F16696   0.585   6.783   4.973  0.1636  0.5130 -0.2914
  150OSM   H13F16697   0.556   6.818   4.872 -0.0331 -0.3564 -0.5444
  150OSM   H13G16698   0.685   6.736   4.962  0.0401  0.3146 -0.5613
  150OSM   C14F16699   0.602   6.893   5.085  0.3840  1.2288  0.6316
  150OSM   H14F16700   0.498   6.927   5.108 -0.8990 -2.8633  1.7206
  150OSM   H14G16701   0.655   6.972   5.028  2.3761  0.1462  0.9190
  150OSM   C15F16702   0.678   6.845   5.211  0.3702 -0.4842  0.1283
  150OSM   H15F16703   0.777   6.815   5.171  1.1875  2.8495 -0.6289
  150OSM   H15G16704   0.638   6.765   5.276  1.3483 -1.0003  0.1148
  150OSM   C16F16705   0.726   6.967   5.299  0.7984  0.0592 -0.4221
  150OSM   H16F16706   0.642   6.999   5.364 -0.4150  0.0033 -1.8886
  150OSM   H16G16707   0.740   7.055   5.232 -0.3002  0.1500 -0.5633
  150OSM   C17F16708   0.853   6.940   5.391 -0.0282 -0.2514 -0.0766
  150OSM   H17F16709   0.942   6.953   5.326  0.3372  1.7872  0.7528
  150OSM   H17G16710   0.845   6.832   5.413 -1.7070 -0.5902 -2.0195
  150OSM   C18F16711   0.862   7.025   5.518 -0.1502  0.0764  0.1922
  150OSM   H18F16712   0.756   7.032   5.551 -0.9570  0.0056 -2.2016
  150OSM   H18G16713   0.917   7.117   5.493 -0.7459 -0.1988 -2.4348
  150OSM   H18H16714   0.913   6.974   5.603 -0.0109 -0.8508 -0.4255
  151OSM      N16715   2.485   6.284   3.151  0.4630  0.0691  1.0592
  151OSM    C1516716   2.542   6.359   3.264  0.2990  0.2486  0.1141
  151OSM   H15A16717   2.649   6.369   3.264  0.2856  0.8049 -1.8679
  151OSM   H15B16718   2.500   6.324   3.358 -0.6006  0.8122 -0.0606
  151OSM   H15C16719   2.500   6.459   3.265  1.2749  0.6661  0.6015
  151OSM    C1416720   2.525   6.350   3.022 -0.1539 -0.1838 -0.3315
  151OSM   H14A16721   2.626   6.388   3.029 -0.5072  0.7467 -0.0519
  151OSM   H14B16722   2.464   6.429   2.982  1.6794  0.9121 -1.0869
  151OSM   H14C16723   2.525   6.283   2.938  1.5630  0.9462 -1.2996
  151OSM    C1316724   2.537   6.144   3.157  0.3515  0.0790  0.4417
  151OSM   H13A16725   2.498   6.095   3.245  0.2401  0.6751  0.7276
  151OSM   H13B16726   2.645   6.148   3.164  0.4961 -0.2732 -1.0777
  151OSM   H13C16727   2.514   6.084   3.070 -0.1966  1.3982 -0.3580
  151OSM    C1216728   2.328   6.281   3.152 -0.1559 -0.0947  0.1170
  151OSM   H12A16729   2.297   6.380   3.180  0.7967  0.3751 -0.4539
  151OSM   H12B16730   2.294   6.228   3.240 -3.0178  1.6962  0.1947
  151OSM    C1116731   2.258   6.217   3.029 -0.0018  0.0114 -0.3376
  151OSM   H11A16732   2.272   6.281   2.939 -0.5502  1.0319  0.2687
  151OSM   H11B16733   2.147   6.215   3.036  0.0480  0.8741  1.2873
  151OSM      P16734   2.232   5.947   3.044 -0.4073  0.3105 -0.3594
  151OSM    O1316735   2.160   5.886   2.932  0.3486 -0.0007 -0.4314
  151OSM    O1416736   2.339   5.863   3.109 -0.2954 -0.3241  0.2417
  151OSM    O1116737   2.126   5.996   3.154 -0.6237 -0.4405  0.5732
  151OSM    O1216738   2.300   6.084   2.990  0.3696  0.4661 -0.2093
  151OSM    C1S16739   2.070   5.912   3.253  0.2976 -0.2379  0.1856
  151OSM    H1S16740   2.134   5.823   3.269  0.9306  0.4395  1.5725
  151OSM    H1T16741   1.968   5.883   3.221  0.6277  0.9276 -2.0958
  151OSM     NF16742   2.041   5.905   3.499 -0.0583 -0.2088 -0.2360
  151OSM    HNF16743   1.975   5.937   3.567  0.1933 -0.1752 -0.0079
  151OSM    C2S16744   2.058   5.994   3.380 -0.6900  0.4744 -0.1272
  151OSM    H2S16745   2.157   6.043   3.393 -0.0750 -0.7720  0.0178
  151OSM    C3S16746   1.963   6.119   3.366  0.9545  0.2641  0.5888
  151OSM    H3S16747   1.865   6.071   3.345  1.9373 -1.1234 -1.1034
  151OSM     O316748   1.987   6.197   3.252 -0.0125 -0.2060 -0.2683
  151OSM    HO316749   2.044   6.144   3.195  1.6746  3.2468 -2.1493
  151OSM    C4S16750   1.955   6.207   3.485  0.3988 -0.7395  0.5377
  151OSM    H4S16751   1.865   6.176   3.540  0.2160  0.0570  0.6963
  151OSM    C5S16752   2.026   6.306   3.535  0.0095 -0.2094  0.2508
  151OSM    H5S16753   2.116   6.338   3.481 -0.2692 -0.7043 -0.5415
  151OSM    C6S16754   1.983   6.382   3.653 -0.7108 -0.0195  0.3161
  151OSM    H6S16755   1.889   6.347   3.701 -0.8368 -0.7027 -0.4135
  151OSM    H6T16756   1.951   6.483   3.619  0.3735 -0.0489 -0.8895
  151OSM    C7S16757   2.082   6.379   3.774 -0.1212 -0.6400  0.8034
  151OSM    H7S16758   2.056   6.458   3.847 -0.7988 -0.4166  0.3325
  151OSM    H7T16759   2.185   6.409   3.743 -0.9776  1.8388  0.1288
  151OSM    C8S16760   2.084   6.237   3.828 -0.3033  0.6225 -0.5625
  151OSM    H8S16761   2.150   6.164   3.776 -0.0866  0.5364 -0.1713
  151OSM    H8T16762   1.982   6.194   3.833  0.0264 -0.0937  0.6808
  151OSM    C9S16763   2.144   6.241   3.972  0.1769 -0.0298 -0.4753
  151OSM    H9S16764   2.082   6.317   4.024 -0.1602 -0.8173  0.2982
  151OSM    H9T16765   2.248   6.279   3.961 -0.1901  0.5771 -2.1212
  151OSM   C10S16766   2.146   6.106   4.038 -0.4872 -0.4399  0.3193
  151OSM   H10S16767   2.222   6.045   3.985  1.5175  0.2354  2.2389
  151OSM   H10T16768   2.046   6.062   4.057 -0.4374 -0.2742  1.0106
  151OSM   C11S16769   2.210   6.126   4.186 -0.6325 -0.6281  0.0653
  151OSM   H11S16770   2.131   6.164   4.254 -3.7881 -0.8094 -3.2317
  151OSM   H11T16771   2.300   6.191   4.181 -1.1163  0.3171  2.2121
  151OSM   C12S16772   2.259   5.993   4.252 -0.1982 -0.8794  0.4861
  151OSM   H12S16773   2.320   5.938   4.177 -1.5158 -1.6590 -0.0363
  151OSM   H12T16774   2.172   5.927   4.270 -0.7621 -0.3803 -0.3604
  151OSM   C13S16775   2.331   6.006   4.385 -0.9141 -0.1508 -0.2066
  151OSM   H13S16776   2.392   6.099   4.380  1.4769 -1.6127  0.3035
  151OSM   H13T16777   2.395   5.920   4.413  0.2460  1.0292  0.9713
  151OSM   C14S16778   2.226   6.019   4.495 -0.5042  0.2325 -0.4072
  151OSM   H14S16779   2.171   5.923   4.500 -0.6704  0.3720  0.4634
  151OSM   H14T16780   2.150   6.097   4.472 -0.7273 -0.3553 -1.7845
  151OSM   C15S16781   2.288   6.042   4.636 -0.9169  0.2381  0.0199
  151OSM   H15S16782   2.210   6.034   4.715 -1.3424  0.5306 -0.3631
  151OSM   H15T16783   2.341   6.139   4.639  0.4987 -0.5245  1.6225
  151OSM   C16S16784   2.395   5.938   4.679 -0.6072 -0.0759 -0.6857
  151OSM   H16S16785   2.477   5.953   4.605  2.0254 -0.1639  2.0438
  151OSM   H16T16786   2.350   5.838   4.659 -1.3307 -0.2054  1.3706
  151OSM   C17S16787   2.453   5.943   4.823  0.6227  0.0347 -0.1994
  151OSM   H17S16788   2.378   5.900   4.892  1.0464 -0.2704  0.0734
  151OSM   H17T16789   2.463   6.052   4.840 -1.9800  0.1883  0.6586
  151OSM   C18S16790   2.585   5.885   4.836 -0.6722  0.0166  0.4383
  151OSM   H18S16791   2.664   5.919   4.766 -0.9683  2.0449  1.0472
  151OSM   H18T16792   2.581   5.774   4.833  3.1005 -0.2373 -0.5487
  151OSM   H18U16793   2.636   5.916   4.929  1.8973 -1.9317 -0.2123
  151OSM    C1F16794   2.128   5.809   3.532  0.0465  0.0064 -0.0758
  151OSM     OF16795   2.228   5.789   3.469  0.0824 -0.3019 -0.1095
  151OSM    C2F16796   2.092   5.726   3.653  0.1580  0.5682  0.0546
  151OSM    H2F16797   1.982   5.740   3.654  0.1177  0.4626 -1.0976
  151OSM    H2G16798   2.133   5.780   3.741 -0.8373  0.1933  0.7627
  151OSM    C3F16799   2.119   5.570   3.648  0.3199  1.0277 -0.3278
  151OSM    H3F16800   2.229   5.552   3.643  0.3400  0.8413  0.6018
  151OSM    H3G16801   2.071   5.528   3.556  0.9521  1.6112 -0.9330
  151OSM    C4F16802   2.056   5.502   3.767 -0.1844 -0.5493 -0.5474
  151OSM    H4F16803   2.053   5.392   3.761 -0.1622 -0.8591  2.8449
  151OSM    H4G16804   1.949   5.530   3.775 -0.1351 -0.3323 -0.6235
  151OSM    C5F16805   2.129   5.562   3.893  0.0863 -0.1598 -0.4381
  151OSM    H5F16806   2.089   5.665   3.911 -0.1875 -0.3325 -0.0482
  151OSM    H5G16807   2.239   5.555   3.888  0.2007 -0.1717  1.4371
  151OSM    C6F16808   2.086   5.485   4.017  0.0246  0.2839 -0.4693
  151OSM    H6F16809   2.120   5.380   4.027 -2.1658 -0.6017 -1.6332
  151OSM    H6G16810   1.975   5.475   4.020 -0.2771  2.5773 -1.4551
  151OSM    C7F16811   2.137   5.570   4.135 -0.4453  0.1191  0.7301
  151OSM    H7F16812   2.112   5.679   4.138 -0.9686  0.0048  0.6499
  151OSM    H7G16813   2.247   5.559   4.145 -0.4313  0.5531  1.0815
  151OSM    C8F16814   2.084   5.503   4.257 -0.1069  0.1943 -0.5227
  151OSM    H8F16815   2.125   5.400   4.259 -1.5917 -0.4290 -1.0026
  151OSM    H8G16816   1.974   5.505   4.238 -0.4120 -0.0810  1.1004
  151OSM    C9F16817   2.117   5.570   4.392  0.8718  1.0029 -0.0941
  151OSM    H9F16818   2.160   5.671   4.397 -0.4543  1.7745 -2.5078
  151OSM   C10F16819   2.065   5.515   4.502 -0.3001 -0.1654  0.7228
  151OSM   H10F16820   2.084   5.564   4.599  0.4035  0.5481  0.2334
  151OSM   C11F16821   1.991   5.389   4.526  0.5751  0.1153 -0.2539
  151OSM   H11F16822   2.052   5.310   4.576 -1.0796 -2.5280 -2.1459
  151OSM   H11G16823   1.963   5.348   4.427  3.2329 -1.2588 -0.5460
  151OSM   C12F16824   1.865   5.410   4.611 -0.6011 -0.6764 -0.5084
  151OSM   H12F16825   1.799   5.325   4.582  0.5950 -1.8762  0.1966
  151OSM   H12G16826   1.812   5.505   4.588  2.0277  1.2876  0.9781
  151OSM   C13F16827   1.900   5.413   4.761  0.4726  0.2637  0.4500
  151OSM   H13F16828   1.930   5.519   4.780  0.0484  0.3863  0.4564
  151OSM   H13G16829   1.979   5.338   4.783  1.0489  0.4503 -0.9039
  151OSM   C14F16830   1.785   5.382   4.856  0.5539  0.4912  0.0800
  151OSM   H14F16831   1.761   5.273   4.853  2.5920 -0.0932  2.3766
  151OSM   H14G16832   1.698   5.433   4.810  0.3513 -0.4362 -0.6042
  151OSM   C15F16833   1.793   5.435   5.002  0.7026  0.0685 -0.1346
  151OSM   H15F16834   1.753   5.538   5.007 -2.3232 -0.9280 -1.3736
  151OSM   H15G16835   1.894   5.427   5.048  0.0537  2.2010  1.8652
  151OSM   C16F16836   1.701   5.357   5.095 -0.2182  0.1522  0.1225
  151OSM   H16F16837   1.738   5.253   5.101 -1.1331 -0.1310  1.4521
  151OSM   H16G16838   1.602   5.348   5.045 -0.7898  1.6085  0.9280
  151OSM   C17F16839   1.682   5.408   5.237 -0.1303 -1.2061 -0.0449
  151OSM   H17F16840   1.625   5.331   5.294 -0.8141 -1.7787 -1.4554
  151OSM   H17G16841   1.623   5.502   5.238  2.6233  0.7599  4.2930
  151OSM   C18F16842   1.822   5.421   5.302  0.1892  0.1392 -0.2047
  151OSM   H18F16843   1.810   5.443   5.411 -0.8735  1.0970 -0.4843
  151OSM   H18G16844   1.878   5.504   5.255  1.3367 -0.0724  0.7569
  151OSM   H18H16845   1.866   5.321   5.285 -1.4305 -0.5209 -0.6623
  152OSM      N16846   2.966   1.583   3.208  0.0459  0.0809  0.4820
  152OSM    C1516847   2.885   1.595   3.083  0.2321 -0.0364 -0.3186
  152OSM   H15A16848   2.947   1.629   3.002 -0.6126  0.2987 -0.8386
  152OSM   H15B16849   2.808   1.669   3.098 -2.5843 -2.7091 -0.5563
  152OSM   H15C16850   2.846   1.503   3.043 -0.3452  0.1578 -0.2207
  152OSM    C1416851   3.050   1.461   3.185 -0.0157  0.2211  0.1997
  152OSM   H14A16852   3.102   1.428   3.273 -1.0210 -1.0895  0.3218
  152OSM   H14B16853   3.121   1.472   3.104  0.5301 -0.0667  0.6322
  152OSM   H14C16854   2.992   1.373   3.165  0.8169 -0.3972  0.4395
  152OSM    C1316855   3.059   1.700   3.223  0.2384  0.0608  0.6157
  152OSM   H13A16856   3.126   1.706   3.139 -0.8973 -1.9178 -0.5188
  152OSM   H13B16857   3.126   1.686   3.307  1.2691 -0.4925 -0.2733
  152OSM   H13C16858   3.009   1.792   3.250 -0.8432 -0.6470  1.0808
  152OSM    C1216859   2.868   1.562   3.316  0.0776 -0.6158 -0.8283
  152OSM   H12A16860   2.788   1.634   3.314 -0.3089 -0.4402  4.5261
  152OSM   H12B16861   2.921   1.593   3.405 -0.0724 -0.8213 -0.6654
  152OSM    C1116862   2.814   1.417   3.357 -0.4159 -0.8649 -0.0280
  152OSM   H11A16863   2.747   1.438   3.443 -0.4824 -0.9271 -0.0647
  152OSM   H11B16864   2.896   1.354   3.398 -1.3848 -0.9558  1.8561
  152OSM      P16865   2.599   1.382   3.223  0.2807  0.2921  0.2537
  152OSM    O1316866   2.571   1.514   3.274  0.3976 -0.5148  0.1781
  152OSM    O1416867   2.557   1.351   3.084 -0.6696 -0.1726 -0.7553
  152OSM    O1116868   2.548   1.273   3.321 -0.2109  0.4610  0.0654
  152OSM    O1216869   2.754   1.355   3.247 -0.3668  0.6999  0.3572
  152OSM    C1S16870   2.593   1.134   3.322  0.0334 -0.7516  0.0114
  152OSM    H1S16871   2.670   1.108   3.246  0.2007  2.2765 -0.9899
  152OSM    H1T16872   2.508   1.065   3.305 -0.0540 -0.0465 -2.7974
  152OSM     NF16873   2.741   0.970   3.444  0.1998 -0.8168 -0.1204
  152OSM    HNF16874   2.693   0.892   3.484  0.7383 -1.3980 -0.5955
  152OSM    C2S16875   2.660   1.092   3.456 -0.1331 -0.1160 -0.2930
  152OSM    H2S16876   2.730   1.169   3.496  0.5849 -0.3414 -1.0800
  152OSM    C3S16877   2.549   1.087   3.566 -0.0858  0.0237  0.2158
  152OSM    H3S16878   2.484   1.005   3.528  0.7157 -0.0600 -1.0464
  152OSM     O316879   2.478   1.206   3.577 -0.5406 -0.3199 -0.1098
  152OSM    HO316880   2.497   1.247   3.492 -0.4393 -0.1118  0.0124
  152OSM    C4S16881   2.611   1.040   3.697  0.6151 -0.1879  0.4951
  152OSM    H4S16882   2.575   0.939   3.725 -2.0365 -0.3535 -2.7948
  152OSM    C5S16883   2.684   1.115   3.771 -0.0152 -0.3713 -0.3655
  152OSM    H5S16884   2.695   1.222   3.745 -0.8320 -0.1239  0.2358
  152OSM    C6S16885   2.756   1.078   3.899 -0.0526  0.8515  0.1362
  152OSM    H6S16886   2.853   1.131   3.888  1.9581 -2.7382 -1.3414
  152OSM    H6T16887   2.782   0.970   3.905  1.9025  1.0864 -2.3005
  152OSM    C7S16888   2.695   1.121   4.028  0.1645  0.1827 -0.1458
  152OSM    H7S16889   2.605   1.058   4.047  0.9580 -0.8465  0.3394
  152OSM    H7T16890   2.682   1.230   4.018 -0.3574  0.0654 -0.8597
  152OSM    C8S16891   2.799   1.106   4.137  0.1060  0.1278 -0.4319
  152OSM    H8S16892   2.879   1.181   4.119  0.1925 -0.1271 -1.1646
  152OSM    H8T16893   2.854   1.010   4.128  0.6014  0.4994 -1.6248
  152OSM    C9S16894   2.742   1.121   4.278  0.4063  0.0573 -0.6071
  152OSM    H9S16895   2.666   1.043   4.299  1.7816 -1.1358  0.1457
  152OSM    H9T16896   2.701   1.222   4.296  0.5734  0.3530 -1.7783
  152OSM   C10S16897   2.851   1.074   4.382  0.5398 -0.6942 -0.3870
  152OSM   H10S16898   2.944   1.124   4.346  0.8636 -0.0568  1.2777
  152OSM   H10T16899   2.854   0.963   4.375 -2.0635 -0.8474 -0.2021
  152OSM   C11S16900   2.829   1.118   4.535 -0.3451 -0.2809  0.6600
  152OSM   H11S16901   2.730   1.077   4.562  0.1338 -1.3619  0.8327
  152OSM   H11T16902   2.818   1.228   4.534  0.1913 -0.1543 -2.2041
  152OSM   C12S16903   2.944   1.056   4.621  0.5653  0.2135 -0.2318
  152OSM   H12S16904   3.039   1.077   4.568  0.3282 -0.2935 -0.8698
  152OSM   H12T16905   2.936   0.946   4.634 -0.6807  0.2194 -0.7881
  152OSM   C13S16906   2.950   1.108   4.762  0.7048 -1.0073  0.4612
  152OSM   H13S16907   2.868   1.094   4.835 -1.7759  0.5338 -1.8440
  152OSM   H13T16908   2.965   1.218   4.757  2.2846 -1.2152 -0.0753
  152OSM   C14S16909   3.072   1.056   4.835 -0.2201  0.7524  0.0410
  152OSM   H14S16910   3.162   1.078   4.774 -0.9218  1.2012 -0.8677
  152OSM   H14T16911   3.065   0.946   4.849  0.4524  0.5100 -1.3700
  152OSM   C15S16912   3.081   1.121   4.978  0.5411  0.0797 -0.4369
  152OSM   H15S16913   2.996   1.064   5.022 -0.9113  0.1386 -2.9591
  152OSM   H15T16914   3.056   1.228   4.965  1.6613  0.3489 -0.4660
  152OSM   C16S16915   3.220   1.114   5.049 -0.5960 -0.2212 -0.2711
  152OSM   H16S16916   3.314   1.135   4.994 -0.4148 -2.6535 -1.0007
  152OSM   H16T16917   3.245   1.007   5.066 -0.1488  0.1962  2.0836
  152OSM   C17S16918   3.221   1.179   5.185 -0.2756 -0.7465  0.3024
  152OSM   H17S16919   3.297   1.136   5.253 -0.4479 -2.0631 -0.3001
  152OSM   H17T16920   3.128   1.151   5.239  0.0561 -0.1413  1.2032
  152OSM   C18S16921   3.215   1.335   5.180 -0.9566  0.0666 -0.6257
  152OSM   H18S16922   3.316   1.375   5.201 -1.3268  0.2659  0.8926
  152OSM   H18T16923   3.153   1.379   5.261  0.3424 -2.4028  1.8542
  152OSM   H18U16924   3.182   1.380   5.084  0.1116 -2.5033 -2.3189
  152OSM    C1F16925   2.855   0.961   3.385  0.8242  0.3795 -0.3642
  152OSM     OF16926   2.917   1.064   3.351  0.3621 -0.4205  0.4065
  152OSM    C2F16927   2.886   0.820   3.341 -0.0463 -0.1221  0.5939
  152OSM    H2F16928   2.921   0.829   3.236 -0.0239 -0.6289  0.5561
  152OSM    H2G16929   2.789   0.768   3.328  0.1838 -0.3763 -0.1466
  152OSM    C3F16930   2.976   0.731   3.427 -0.4971  0.0655 -0.3511
  152OSM    H3F16931   3.073   0.785   3.434 -0.8012  0.4107  2.2362
  152OSM    H3G16932   2.991   0.629   3.386 -0.9741  0.0782 -0.5583
  152OSM    C4F16933   2.922   0.712   3.564  0.0788  0.1184  0.0737
  152OSM    H4F16934   2.825   0.662   3.541 -0.1545 -0.0275  1.3106
  152OSM    H4G16935   2.893   0.810   3.609  0.9088  0.0242  0.8436
  152OSM    C5F16936   3.006   0.631   3.665 -0.2734 -0.2196 -0.1576
  152OSM    H5F16937   3.089   0.578   3.613  1.7851  0.2737  2.4047
  152OSM    H5G16938   2.941   0.548   3.702  0.2096 -0.1272  0.9238
  152OSM    C6F16939   3.054   0.706   3.783 -0.1904  0.9745 -0.3361
  152OSM    H6F16940   2.971   0.773   3.815 -0.2197  0.3280  0.9839
  152OSM    H6G16941   3.140   0.772   3.759  1.0686 -0.3802  0.3539
  152OSM    C7F16942   3.093   0.624   3.906 -0.1867 -0.9410  0.3747
  152OSM    H7F16943   3.139   0.693   3.979  1.4419 -0.4463 -1.0432
  152OSM    H7G16944   3.169   0.548   3.879 -2.0196 -2.4398 -0.8611
  152OSM    C8F16945   2.975   0.547   3.960  0.2117  0.1544  0.2755
  152OSM    H8F16946   2.933   0.472   3.889  0.9443 -0.2029  0.2111
  152OSM    H8G16947   2.900   0.627   3.979  2.3841  2.7765 -1.4907
  152OSM    C9F16948   3.030   0.474   4.089  0.1010 -0.5640  0.8658
  152OSM    H9F16949   3.091   0.383   4.073 -0.8272 -1.3432  1.6574
  152OSM   C10F16950   3.025   0.516   4.211 -0.3878  0.0130 -0.0585
  152OSM   H10F16951   3.058   0.456   4.297 -0.1925  1.7811  1.1801
  152OSM   C11F16952   2.965   0.646   4.258  0.0435 -0.4503 -0.3831
  152OSM   H11F16953   2.878   0.676   4.196 -3.0099 -1.1831  3.2001
  152OSM   H11G16954   3.036   0.730   4.269 -3.1444  2.5111 -0.8469
  152OSM   C12F16955   2.907   0.622   4.393 -0.0455 -0.1405 -0.6813
  152OSM   H12F16956   2.849   0.527   4.400  1.3114 -0.8573  1.6810
  152OSM   H12G16957   2.836   0.705   4.410 -2.6917 -2.0761 -1.4756
  152OSM   C13F16958   3.011   0.631   4.502 -0.3235 -0.6257 -0.1666
  152OSM   H13F16959   3.070   0.725   4.502  0.1683 -0.9316  0.0285
  152OSM   H13G16960   3.074   0.540   4.496 -0.3760 -0.8275  1.7420
  152OSM   C14F16961   2.956   0.627   4.647 -0.0937  0.9649  0.5257
  152OSM   H14F16962   2.912   0.525   4.649 -0.1392  0.7591 -3.2960
  152OSM   H14G16963   2.890   0.713   4.671  1.3305  1.5722  2.5994
  152OSM   C15F16964   3.062   0.628   4.753 -0.6395  0.0502 -0.9858
  152OSM   H15F16965   3.136   0.710   4.739 -1.3112  0.8171 -0.1939
  152OSM   H15G16966   3.135   0.545   4.742  2.2819  2.4259 -0.8512
  152OSM   C16F16967   3.005   0.634   4.896  1.0474  0.3743  0.4654
  152OSM   H16F16968   2.955   0.536   4.915 -1.9303  2.1502  2.6805
  152OSM   H16G16969   2.913   0.696   4.904  1.3406  1.0746 -1.1494
  152OSM   C17F16970   3.104   0.657   5.012  0.2215 -0.0648 -0.0848
  152OSM   H17F16971   3.047   0.633   5.103  0.0384  0.1935 -0.1312
  152OSM   H17G16972   3.143   0.761   5.025  2.9487 -1.0920  0.7119
  152OSM   C18F16973   3.226   0.570   4.996  0.0795  0.5676 -0.2803
  152OSM   H18F16974   3.201   0.463   4.981  0.8207  0.0750  1.6471
  152OSM   H18G16975   3.287   0.582   5.088 -0.3096 -0.5345  0.1316
  152OSM   H18H16976   3.284   0.613   4.911  0.8063  1.9886  0.8710
  153OSM      N16977   2.347   1.101   2.753  0.3417 -0.6537 -0.1025
  153OSM    C1516978   2.468   1.040   2.684 -0.8049 -0.3698 -0.2436
  153OSM   H15A16979   2.515   1.104   2.611  1.4387 -2.5285 -0.8562
  153OSM   H15B16980   2.457   0.941   2.643 -1.5132 -1.0671  1.5522
  153OSM   H15C16981   2.544   1.031   2.760 -0.2952  0.5875 -0.6205
  153OSM    C1416982   2.379   1.246   2.778  0.0192 -0.2074  0.3914
  153OSM   H14A16983   2.290   1.287   2.824  0.4796  1.5083 -0.1562
  153OSM   H14B16984   2.405   1.302   2.689 -2.9802  2.8215  1.2088
  153OSM   H14C16985   2.463   1.257   2.844 -0.1002  0.8429  0.3934
  153OSM    C1316986   2.225   1.094   2.654  0.0826  0.2894 -1.3123
  153OSM   H13A16987   2.245   1.124   2.552  1.8006  0.5176 -0.9501
  153OSM   H13B16988   2.148   1.157   2.697 -1.2230 -0.2333 -2.8091
  153OSM   H13C16989   2.186   0.994   2.650 -2.2481  0.9576  1.4129
  153OSM    C1216990   2.309   1.038   2.878 -0.4703  0.6966  0.1042
  153OSM   H12A16991   2.316   0.932   2.863 -0.3499  1.0437 -2.7629
  153OSM   H12B16992   2.211   1.067   2.914  0.0309  1.1444  1.1681
  153OSM    C1116993   2.399   1.049   3.007 -0.1786 -0.4296 -0.0711
  153OSM   H11A16994   2.342   1.003   3.091  0.1273  1.2975  1.1339
  153OSM   H11B16995   2.401   1.157   3.033 -2.0349 -0.7968  1.9524
  153OSM      P16996   2.541   0.840   3.018 -0.4646  0.0916  0.0263
  153OSM    O1316997   2.484   0.761   2.906 -0.5285  0.4999 -0.7131
  153OSM    O1416998   2.685   0.807   3.053 -0.0497 -0.0400 -0.2156
  153OSM    O1116999   2.455   0.808   3.144  0.4919  0.4388 -0.4839
  153OSM    O1217000   2.530   0.985   2.981  0.3656 -0.5622 -0.3725
  153OSM    C1S17001   2.498   0.711   3.246  0.9645  0.0630 -0.8141
  153OSM    H1S17002   2.586   0.751   3.302  0.1504 -2.3383  2.5561
  153OSM    H1T17003   2.528   0.618   3.194 -0.7954  0.1016 -1.9745
  153OSM     NF17004   2.442   0.595   3.446 -0.2404 -0.2143  0.0450
  153OSM    HNF17005   2.425   0.500   3.422 -0.9113  0.3697 -2.0054
  153OSM    C2S17006   2.397   0.688   3.349 -0.3346  0.3153 -1.0050
  153OSM    H2S17007   2.399   0.785   3.403  1.3638 -0.3182  0.1820
  153OSM    C3S17008   2.260   0.658   3.285  0.0869 -0.4617  0.5160
  153OSM    H3S17009   2.261   0.574   3.212 -1.5450  1.3925 -1.7790
  153OSM     O317010   2.205   0.759   3.201  0.2580 -0.1716  0.7107
  153OSM    HO317011   2.276   0.810   3.163  1.5836 -1.6339  1.1221
  153OSM    C4S17012   2.156   0.636   3.398  0.0106  0.1108 -0.3077
  153OSM    H4S17013   2.129   0.729   3.450 -2.0905 -0.4521 -0.2957
  153OSM    C5S17014   2.094   0.518   3.420 -0.2224 -0.0595 -0.6547
  153OSM    H5S17015   2.119   0.429   3.361 -1.4400 -0.1514 -1.0749
  153OSM    C6S17016   1.997   0.488   3.530 -0.2711  0.1332 -0.2862
  153OSM    H6S17017   2.055   0.417   3.594 -0.8457 -0.3320 -0.2692
  153OSM    H6T17018   1.903   0.436   3.503 -1.2521  1.8189 -0.2108
  153OSM    C7S17019   1.963   0.615   3.609 -0.3849  0.2235 -0.1614
  153OSM    H7S17020   1.902   0.672   3.536 -1.5210 -1.8763 -0.9237
  153OSM    H7T17021   2.054   0.669   3.645  0.7310 -2.3445  1.1486
  153OSM    C8S17022   1.873   0.570   3.726 -0.3380 -1.4836 -0.7059
  153OSM    H8S17023   1.800   0.491   3.697 -1.1276 -0.8299 -0.5165
  153OSM    H8T17024   1.812   0.655   3.761  0.1121 -1.6019  0.4098
  153OSM    C9S17025   1.952   0.536   3.853  0.7107  0.6095 -0.2915
  153OSM    H9S17026   2.014   0.625   3.875  2.6662 -1.1278  1.7996
  153OSM    H9T17027   2.019   0.451   3.826  1.6194  1.5607 -1.1177
  153OSM   C10S17028   1.855   0.485   3.969  0.0733  0.4054  0.5920
  153OSM   H10S17029   1.835   0.378   3.948 -0.0532  0.2937  1.2356
  153OSM   H10T17030   1.762   0.546   3.967  1.0738  1.9697  0.3614
  153OSM   C11S17031   1.919   0.500   4.106  0.5277  0.0328  0.4506
  153OSM   H11S17032   1.944   0.608   4.118 -0.4490  0.2087  0.9499
  153OSM   H11T17033   2.010   0.437   4.117 -1.4172 -2.9807  0.2352
  153OSM   C12S17034   1.814   0.466   4.216 -1.0383  0.4798  0.3688
  153OSM   H12S17035   1.768   0.365   4.203  1.8922 -0.9803  0.5175
  153OSM   H12T17036   1.729   0.536   4.201 -2.1098 -0.7441  0.5559
  153OSM   C13S17037   1.879   0.483   4.351 -0.3543 -0.4649 -0.2148
  153OSM   H13S17038   1.905   0.591   4.356 -0.7936 -0.3968  0.8485
  153OSM   H13T17039   1.971   0.428   4.379  2.1105  3.0754 -0.6221
  153OSM   C14S17040   1.772   0.459   4.455 -0.2445 -0.7176 -0.3988
  153OSM   H14S17041   1.733   0.356   4.445 -0.0257 -0.9235  0.7366
  153OSM   H14T17042   1.684   0.526   4.441 -0.9562 -0.7334  3.0038
  153OSM   C15S17043   1.812   0.510   4.593 -0.0745 -0.5914 -0.3184
  153OSM   H15S17044   1.881   0.597   4.585 -0.1495 -0.3882  1.0122
  153OSM   H15T17045   1.870   0.429   4.641  0.5036  0.6110  1.0831
  153OSM   C16S17046   1.685   0.535   4.681  0.0295  0.1137  0.1807
  153OSM   H16S17047   1.618   0.448   4.664 -1.6276  1.5134 -0.7713
  153OSM   H16T17048   1.628   0.622   4.642 -0.0056 -0.4704 -1.1130
  153OSM   C17S17049   1.713   0.563   4.827  0.0086 -0.9201  0.8171
  153OSM   H17S17050   1.784   0.486   4.867  1.6113  1.1666  2.2112
  153OSM   H17T17051   1.622   0.570   4.890 -0.3881 -0.2944  0.1857
  153OSM   C18S17052   1.788   0.692   4.839 -0.3793 -0.1420 -0.1217
  153OSM   H18S17053   1.879   0.677   4.776 -1.6188 -1.4928 -1.6532
  153OSM   H18T17054   1.820   0.717   4.943  0.2825  0.4423 -0.4607
  153OSM   H18U17055   1.726   0.774   4.797 -0.6013  0.2102  0.8705
  153OSM    C1F17056   2.539   0.618   3.533 -0.3648  0.2727  0.5794
  153OSM     OF17057   2.595   0.729   3.531  0.1083 -0.0476 -0.5045
  153OSM    C2F17058   2.582   0.504   3.622 -0.0270  0.0226 -0.0530
  153OSM    H2F17059   2.679   0.468   3.580  1.2723  1.5319  1.5017
  153OSM    H2G17060   2.504   0.426   3.604  1.4572 -1.3352 -0.8615
  153OSM    C3F17061   2.588   0.534   3.774  0.0058  0.3538  0.6708
  153OSM    H3F17062   2.645   0.628   3.788  0.8771  0.1813 -1.4362
  153OSM    H3G17063   2.639   0.447   3.821  0.7761  0.8722  0.8114
  153OSM    C4F17064   2.449   0.562   3.841 -0.0223 -0.1174  0.5113
  153OSM    H4F17065   2.382   0.479   3.810  2.6320 -2.1710 -0.0395
  153OSM    H4G17066   2.412   0.658   3.798 -0.4703 -1.3390 -2.0126
  153OSM    C5F17067   2.449   0.558   3.993 -0.1246 -0.4283 -0.2272
  153OSM    H5F17068   2.525   0.630   4.031  3.1754 -2.3557 -2.6278
  153OSM    H5G17069   2.483   0.459   4.029 -2.9551 -0.7578  1.8230
  153OSM    C6F17070   2.301   0.572   4.040 -0.1674 -0.2150 -0.0799
  153OSM    H6F17071   2.230   0.498   3.998 -2.2258  1.2840  0.6213
  153OSM    H6G17072   2.263   0.673   4.016 -0.9329 -0.6225 -0.6046
  153OSM    C7F17073   2.305   0.542   4.193 -0.0018  0.2456  0.9389
  153OSM    H7F17074   2.309   0.433   4.213 -0.1929 -0.2737 -1.4711
  153OSM    H7G17075   2.208   0.581   4.232  0.4692 -0.9320  3.4719
  153OSM    C8F17076   2.409   0.614   4.277  0.2913  0.1705 -0.5306
  153OSM    H8F17077   2.411   0.718   4.240 -0.6259  0.3471 -0.1002
  153OSM    H8G17078   2.501   0.553   4.260  0.7362 -0.2696  2.6993
  153OSM    C9F17079   2.370   0.613   4.429 -0.2163 -0.8148 -0.1660
  153OSM    H9F17080   2.289   0.548   4.464 -1.5297  0.9740  0.2738
  153OSM   C10F17081   2.420   0.693   4.522  0.8852 -0.2646  0.5516
  153OSM   H10F17082   2.387   0.671   4.625  3.2201 -1.2420  1.1371
  153OSM   C11F17083   2.520   0.801   4.518 -0.0008 -0.0271  0.4056
  153OSM   H11F17084   2.479   0.903   4.532 -0.3454 -0.5625  4.6355
  153OSM   H11G17085   2.587   0.799   4.429 -0.5209 -1.2929  0.0219
  153OSM   C12F17086   2.614   0.790   4.643 -0.2658  0.2989 -0.4081
  153OSM   H12F17087   2.708   0.848   4.629 -1.8262  2.7280 -1.4530
  153OSM   H12G17088   2.649   0.687   4.662  1.1869  1.3426  3.6714
  153OSM   C13F17089   2.552   0.839   4.779  0.2329 -0.2026  0.5470
  153OSM   H13F17090   2.453   0.789   4.792  0.5164 -1.7007 -2.2531
  153OSM   H13G17091   2.532   0.945   4.752  0.1471 -0.8509 -2.2901
  153OSM   C14F17092   2.642   0.839   4.901 -0.7286  0.1028  0.0992
  153OSM   H14F17093   2.748   0.846   4.867 -0.8775  2.2103 -0.0973
  153OSM   H14G17094   2.635   0.744   4.957  0.9954 -0.6070 -0.8147
  153OSM   C15F17095   2.618   0.969   4.986  0.3206  0.3197  0.0677
  153OSM   H15F17096   2.508   0.960   5.003  0.1484  2.2472  0.1998
  153OSM   H15G17097   2.647   1.065   4.939 -2.1105  0.3167 -1.6208
  153OSM   C16F17098   2.684   0.952   5.123  0.9433  0.6064  0.1089
  153OSM   H16F17099   2.697   1.054   5.165 -2.9787  1.5380 -0.5506
  153OSM   H16G17100   2.787   0.911   5.119 -0.1786 -2.3845 -0.8358
  153OSM   C17F17101   2.597   0.869   5.219  0.6898 -0.6935 -0.2923
  153OSM   H17F17102   2.605   0.768   5.172 -2.3173 -2.2516  2.1715
  153OSM   H17G17103   2.493   0.909   5.214  0.2461 -1.4447  1.9587
  153OSM   C18F17104   2.642   0.866   5.364 -0.2357 -0.1582 -0.2007
  153OSM   H18F17105   2.631   0.969   5.402 -1.0124 -0.5734  0.7517
  153OSM   H18G17106   2.744   0.823   5.364  0.3278  1.1655  0.1040
  153OSM   H18H17107   2.569   0.814   5.430  0.2762  0.4729  0.8762
  154OSM      N17108   1.879   5.272   3.331  0.1945  0.6744  0.1605
  154OSM    C1517109   1.947   5.154   3.270 -0.7191 -0.1275 -0.3002
  154OSM   H15A17110   1.945   5.156   3.162  1.1606 -1.1005 -0.3982
  154OSM   H15B17111   1.902   5.059   3.294 -0.5334 -1.0841 -3.2897
  154OSM   H15C17112   2.051   5.155   3.302 -0.9151  1.7966  0.4433
  154OSM    C1417113   1.725   5.259   3.300 -0.2072 -0.2617  0.3429
  154OSM   H14A17114   1.679   5.346   3.345  0.4293 -0.4848  1.4658
  154OSM   H14B17115   1.687   5.173   3.352 -0.3490 -0.2901  0.1925
  154OSM   H14C17116   1.712   5.243   3.194  2.2374 -1.1926  0.1164
  154OSM    C1317117   1.904   5.274   3.476  0.0918  0.1297  0.0642
  154OSM   H13A17118   1.878   5.189   3.537 -1.0571 -1.4313 -2.3993
  154OSM   H13B17119   1.863   5.358   3.529 -2.0833 -1.2855  0.7403
  154OSM   H13C17120   2.012   5.277   3.478  0.1050 -0.0208  2.6631
  154OSM    C1217121   1.933   5.402   3.271 -0.4515 -0.0268  0.0172
  154OSM   H12A17122   1.907   5.407   3.166  0.1576  0.0171 -0.1384
  154OSM   H12B17123   2.040   5.396   3.283 -0.4126  0.5974 -0.0023
  154OSM    C1117124   1.888   5.538   3.327  1.0600 -0.2431 -0.5816
  154OSM   H11A17125   1.954   5.614   3.281  0.8974 -0.7438 -1.6777
  154OSM   H11B17126   1.901   5.540   3.438 -0.8715 -4.0553 -0.1160
  154OSM      P17127   1.701   5.673   3.198  0.4623  0.2627 -0.0015
  154OSM    O1317128   1.788   5.691   3.080  0.7075 -0.3121  0.3049
  154OSM    O1417129   1.557   5.648   3.167  0.1226 -0.1556 -0.0067
  154OSM    O1117130   1.700   5.810   3.277  0.1143 -0.7196  0.2062
  154OSM    O1217131   1.749   5.554   3.296  0.2810  0.1911  0.2692
  154OSM    C1S17132   1.689   5.807   3.422  0.4376  1.0916 -0.9389
  154OSM    H1S17133   1.792   5.797   3.462  0.0552  1.6234  0.2088
  154OSM    H1T17134   1.630   5.722   3.461  2.2565 -0.6600 -1.8215
  154OSM     NF17135   1.602   5.921   3.611 -0.2998 -0.0204 -0.1840
  154OSM    HNF17136   1.510   5.896   3.641 -0.3371 -0.5602 -0.7236
  154OSM    C2S17137   1.620   5.930   3.470 -0.3518  0.3756 -0.1202
  154OSM    H2S17138   1.678   6.022   3.445 -0.2829  0.4207  0.1993
  154OSM    C3S17139   1.483   5.953   3.393 -0.1149  0.2359  0.0421
  154OSM    H3S17140   1.425   5.860   3.415  1.5235 -0.8611 -0.0779
  154OSM     O317141   1.497   5.959   3.252 -0.2718  0.2324  0.4519
  154OSM    HO317142   1.582   5.917   3.236 -0.0438  0.9106 -0.1852
  154OSM    C4S17143   1.401   6.067   3.442  0.1363 -0.1249  0.1106
  154OSM    H4S17144   1.326   6.044   3.519  0.1756 -1.9141 -0.3365
  154OSM    C5S17145   1.410   6.192   3.404  0.4079  0.3422  0.5265
  154OSM    H5S17146   1.486   6.231   3.335  1.1396  0.4658  1.3763
  154OSM    C6S17147   1.320   6.306   3.460  0.1781 -0.0251  0.0764
  154OSM    H6S17148   1.215   6.283   3.487 -0.2136  1.1795 -0.3265
  154OSM    H6T17149   1.312   6.398   3.398  1.1285 -0.4738 -0.7506
  154OSM    C7S17150   1.380   6.332   3.600  0.9471 -0.1044 -0.7363
  154OSM    H7S17151   1.386   6.240   3.662  0.5294  1.9163  2.5596
  154OSM    H7T17152   1.307   6.401   3.649  1.0510 -0.2352 -0.3969
  154OSM    C8S17153   1.503   6.402   3.610  0.3193 -0.9329 -0.1496
  154OSM    H8S17154   1.489   6.496   3.552 -0.9198 -0.0523  1.4889
  154OSM    H8T17155   1.586   6.351   3.556 -0.6221 -1.4976 -1.1004
  154OSM    C9S17156   1.543   6.448   3.746 -0.2484  0.0592 -0.0336
  154OSM    H9S17157   1.455   6.503   3.786 -1.2856  0.3598 -2.5307
  154OSM    H9T17158   1.620   6.527   3.736 -0.5731  0.2932 -0.7956
  154OSM   C10S17159   1.599   6.350   3.844  0.2817  0.3099 -0.4477
  154OSM   H10S17160   1.685   6.315   3.784  0.8360 -0.7163  0.8914
  154OSM   H10T17161   1.535   6.264   3.872 -0.9665  1.7419  1.3375
  154OSM   C11S17162   1.645   6.412   3.979 -0.2296 -0.2557 -0.2425
  154OSM   H11S17163   1.564   6.468   4.030 -0.1694 -0.8507  0.5196
  154OSM   H11T17164   1.728   6.479   3.951  1.2994 -1.6297  0.8029
  154OSM   C12S17165   1.683   6.296   4.073  0.0088 -0.0949 -0.0829
  154OSM   H12S17166   1.745   6.221   4.019 -0.5135 -0.5943  0.0048
  154OSM   H12T17167   1.585   6.248   4.090 -1.5914  2.5494 -1.1429
  154OSM   C13S17168   1.750   6.336   4.198 -0.3326  0.5911 -0.9442
  154OSM   H13S17169   1.681   6.410   4.244 -1.9106  0.2218 -2.6153
  154OSM   H13T17170   1.851   6.379   4.178 -0.8674  2.1570 -0.3889
  154OSM   C14S17171   1.759   6.223   4.305 -0.4945 -0.1357  0.1999
  154OSM   H14S17172   1.838   6.147   4.286 -0.3566 -0.5251  2.1463
  154OSM   H14T17173   1.664   6.165   4.294 -1.0019  0.7000  0.1066
  154OSM   C15S17174   1.781   6.278   4.449  0.6305  0.4593  0.4476
  154OSM   H15S17175   1.779   6.191   4.518  1.3759  0.0167 -0.0783
  154OSM   H15T17176   1.697   6.345   4.478  0.7021  0.7313  0.0315
  154OSM   C16S17177   1.918   6.343   4.457  0.0171 -0.5776  0.8582
  154OSM   H16S17178   1.901   6.433   4.393 -1.4666 -2.4597 -1.5688
  154OSM   H16T17179   2.002   6.288   4.409  2.4540  4.4586 -1.4453
  154OSM   C17S17180   1.959   6.395   4.592 -0.7970  0.5827  0.0799
  154OSM   H17S17181   1.962   6.311   4.665  2.4297  1.0509  0.6282
  154OSM   H17T17182   1.895   6.473   4.638 -1.2038 -0.5245  1.4472
  154OSM   C18S17183   2.111   6.431   4.581  0.3885 -0.5165 -0.2486
  154OSM   H18S17184   2.162   6.359   4.513  2.0136  1.3290 -1.0557
  154OSM   H18T17185   2.160   6.429   4.680 -1.4561  1.8556  0.8105
  154OSM   H18U17186   2.120   6.534   4.540  0.3777 -1.0960 -1.7907
  154OSM    C1F17187   1.710   5.943   3.693  1.0980  0.0238 -0.2732
  154OSM     OF17188   1.819   5.962   3.653 -0.3900  0.2158  0.4436
  154OSM    C2F17189   1.677   5.952   3.835  0.7321  0.5365 -0.3500
  154OSM    H2F17190   1.569   5.941   3.861  0.7598  0.9814 -0.0246
  154OSM    H2G17191   1.705   6.056   3.864  0.0720  0.6115  0.0514
  154OSM    C3F17192   1.761   5.855   3.923  0.1386  0.3166 -0.5244
  154OSM    H3F17193   1.869   5.873   3.902  0.1990 -0.0934 -0.5832
  154OSM    H3G17194   1.731   5.755   3.884  1.1231 -0.2064  0.0268
  154OSM    C4F17195   1.743   5.863   4.074  0.1778  0.2715 -0.3395
  154OSM    H4F17196   1.641   5.828   4.101  0.6280 -0.5624  0.3324
  154OSM    H4G17197   1.757   5.966   4.113 -2.0866  0.1942  0.8618
  154OSM    C5F17198   1.854   5.791   4.154 -0.1232 -0.0376  0.8246
  154OSM    H5F17199   1.956   5.826   4.129  0.1360 -1.2951  0.0011
  154OSM    H5G17200   1.837   5.685   4.127 -0.9741  0.7434 -1.9628
  154OSM    C6F17201   1.844   5.829   4.308  0.0271  0.4755 -0.2208
  154OSM    H6F17202   1.844   5.940   4.320  0.9098  0.5386 -0.7215
  154OSM    H6G17203   1.923   5.783   4.371  0.1870  0.1978 -0.6204
  154OSM    C7F17204   1.709   5.777   4.376  0.3189 -0.1035 -0.0798
  154OSM    H7F17205   1.709   5.666   4.377 -0.4164 -0.1150  2.0354
  154OSM    H7G17206   1.627   5.822   4.317 -0.9590 -0.4964  1.3516
  154OSM    C8F17207   1.685   5.845   4.516  1.1683 -0.2562 -0.8654
  154OSM    H8F17208   1.575   5.859   4.525  1.1983  0.3287 -1.2961
  154OSM    H8G17209   1.729   5.947   4.518  1.6554 -0.4647  0.9671
  154OSM    C9F17210   1.735   5.776   4.642  0.1354 -0.3119 -0.2114
  154OSM    H9F17211   1.710   5.669   4.647  1.2711 -0.6122 -0.7673
  154OSM   C10F17212   1.830   5.820   4.727  0.9219  0.0769  0.4291
  154OSM   H10F17213   1.875   5.748   4.797  1.9331 -0.2380 -0.5052
  154OSM   C11F17214   1.892   5.956   4.736 -0.5672 -0.1487  0.5870
  154OSM   H11F17215   1.817   6.037   4.721  0.5172  0.4483 -2.2967
  154OSM   H11G17216   1.972   5.969   4.660  1.3171  0.7475  2.6417
  154OSM   C12F17217   1.956   5.989   4.871 -0.4495 -0.3209 -0.7123
  154OSM   H12F17218   2.052   5.934   4.881 -0.6632 -0.7642 -1.0914
  154OSM   H12G17219   1.895   5.951   4.955 -2.5001 -0.8749 -2.3712
  154OSM   C13F17220   1.992   6.137   4.895  0.0789 -0.9110 -0.0712
  154OSM   H13F17221   1.895   6.192   4.887 -0.2139 -1.5798 -1.3520
  154OSM   H13G17222   2.056   6.175   4.813  0.7807 -1.1180  0.3799
  154OSM   C14F17223   2.047   6.153   5.033 -0.5892  0.3303  0.0091
  154OSM   H14F17224   2.151   6.112   5.036 -1.7213 -2.7882  0.1610
  154OSM   H14G17225   1.987   6.093   5.104 -1.2332 -0.1906 -0.9512
  154OSM   C15F17226   2.059   6.299   5.078  0.2972 -0.1413 -0.0431
  154OSM   H15F17227   2.149   6.343   5.028 -0.3255 -0.6860 -1.7209
  154OSM   H15G17228   2.077   6.293   5.187 -1.8989  1.6692  0.4906
  154OSM   C16F17229   1.944   6.403   5.044 -0.2949  0.3244  0.5595
  154OSM   H16F17230   1.853   6.342   5.066  0.4987 -1.2473 -0.3282
  154OSM   H16G17231   1.936   6.443   4.941 -1.9981 -0.6317  0.2759
  154OSM   C17F17232   1.965   6.527   5.120 -0.2825 -0.9257 -0.3074
  154OSM   H17F17233   2.002   6.511   5.224 -2.0638 -0.9553  0.3690
  154OSM   H17G17234   1.865   6.574   5.136  0.5243  0.3998  1.1100
  154OSM   C18F17235   2.058   6.626   5.056  0.2297 -0.1796  0.2724
  154OSM   H18F17236   2.033   6.639   4.948  0.5416  1.2705  0.3569
  154OSM   H18G17237   2.161   6.584   5.066  1.6605  3.1328  0.8120
  154OSM   H18H17238   2.056   6.719   5.116  0.6898  1.1554 -1.6607
  155OSM      N17239   3.773   0.987   3.041 -0.2317  0.2301  0.2418
  155OSM    C1517240   3.857   1.103   2.994 -1.0234  0.7724 -0.2760
  155OSM   H15A17241   3.917   1.146   3.073 -4.3697  1.5252  2.0481
  155OSM   H15B17242   3.785   1.176   2.961 -0.0243  1.9335  0.0589
  155OSM   H15C17243   3.914   1.075   2.906 -1.2160 -0.8017  0.0644
  155OSM    C1417244   3.683   0.943   2.931 -0.4278 -0.1394  0.2900
  155OSM   H14A17245   3.744   0.916   2.845  2.1416  1.0369  1.6236
  155OSM   H14B17246   3.616   1.024   2.907  0.9228  0.6258 -1.1487
  155OSM   H14C17247   3.628   0.858   2.970 -0.6008  0.1249  0.6166
  155OSM    C1317248   3.867   0.876   3.067 -0.3857  0.3461 -0.0932
  155OSM   H13A17249   3.813   0.789   3.104 -0.2661  0.2773 -0.0826
  155OSM   H13B17250   3.935   0.908   3.145  2.0974 -0.8144 -1.6644
  155OSM   H13C17251   3.924   0.855   2.978  0.6470  1.0197  0.3889
  155OSM    C1217252   3.683   1.025   3.157 -0.3371  0.1649  0.6748
  155OSM   H12A17253   3.636   0.933   3.188  1.2901 -1.3672 -1.0764
  155OSM   H12B17254   3.608   1.094   3.121 -0.7086 -1.0944 -1.0956
  155OSM    C1117255   3.744   1.098   3.279 -0.4598  0.1306  0.6213
  155OSM   H11A17256   3.830   1.031   3.300 -0.6379  0.4334  2.4775
  155OSM   H11B17257   3.669   1.085   3.361 -0.2155 -3.1684  0.4570
  155OSM      P17258   3.660   1.334   3.235 -0.5533 -0.2309  0.5814
  155OSM    O1317259   3.720   1.467   3.210 -0.2909 -0.3540 -0.1738
  155OSM    O1417260   3.567   1.288   3.131 -0.5348  0.0036  0.8245
  155OSM    O1117261   3.582   1.343   3.370 -0.3482 -0.3585 -0.1250
  155OSM    O1217262   3.776   1.233   3.270 -0.3165 -0.1507  0.3741
  155OSM    C1S17263   3.656   1.351   3.492 -0.2199  0.1830 -0.1519
  155OSM    H1S17264   3.724   1.438   3.494  0.7146 -0.4895  2.6692
  155OSM    H1T17265   3.715   1.258   3.509  1.4225  1.0669 -0.8208
  155OSM     NF17266   3.649   1.443   3.721  0.0846 -0.4316 -0.0422
  155OSM    HNF17267   3.678   1.389   3.800 -1.7867 -1.4673 -0.0164
  155OSM    C2S17268   3.572   1.368   3.623 -0.5286  1.1409 -0.5469
  155OSM    H2S17269   3.482   1.428   3.599 -2.3487 -1.6267 -1.0584
  155OSM    C3S17270   3.509   1.231   3.679  0.0928  0.4046  0.1663
  155OSM    H3S17271   3.586   1.164   3.725 -0.3390  0.2733  0.7066
  155OSM     O317272   3.443   1.147   3.584  0.2795  0.1606 -0.2755
  155OSM    HO317273   3.446   1.190   3.499 -0.3323 -0.6830 -0.7378
  155OSM    C4S17274   3.418   1.278   3.790 -0.2520  0.0968  1.0045
  155OSM    H4S17275   3.470   1.279   3.886  1.0817 -2.7714  0.4210
  155OSM    C5S17276   3.287   1.309   3.783 -0.1102 -0.5388 -0.8345
  155OSM    H5S17277   3.241   1.303   3.684  1.8379  2.0642 -2.0108
  155OSM    C6S17278   3.192   1.340   3.896  0.8701 -0.0412 -0.2215
  155OSM    H6S17279   3.112   1.263   3.890  0.9783 -0.0735 -1.5310
  155OSM    H6T17280   3.132   1.429   3.868 -0.5631 -1.1965 -1.0279
  155OSM    C7S17281   3.245   1.370   4.035  0.6600  0.3129  0.2437
  155OSM    H7S17282   3.311   1.459   4.041 -0.4151  1.2402 -1.2961
  155OSM    H7T17283   3.306   1.288   4.079 -1.9688 -1.8522  0.0678
  155OSM    C8S17284   3.124   1.401   4.134 -0.9513 -0.3625 -0.1598
  155OSM    H8S17285   3.057   1.313   4.138 -0.9529 -0.5171 -2.4225
  155OSM    H8T17286   3.067   1.480   4.081 -0.9748  0.0558  0.4831
  155OSM    C9S17287   3.163   1.432   4.281  0.0131 -0.0852 -0.6719
  155OSM    H9S17288   3.193   1.538   4.278 -0.1894 -0.0183 -0.3372
  155OSM    H9T17289   3.256   1.377   4.305 -0.2225  0.6970  2.3173
  155OSM   C10S17290   3.039   1.413   4.370 -0.0831  0.0172 -0.3686
  155OSM   H10S17291   3.041   1.305   4.395  0.7721  0.5091  1.9864
  155OSM   H10T17292   2.945   1.439   4.317 -1.5262 -0.6059  1.7397
  155OSM   C11S17293   3.038   1.491   4.500  0.1073  0.4101  0.2813
  155OSM   H11S17294   2.940   1.457   4.540 -0.3900  1.6376  0.1727
  155OSM   H11T17295   3.025   1.601   4.484 -1.4820  0.3667  1.0471
  155OSM   C12S17296   3.151   1.463   4.595 -1.1597  0.5548  0.2775
  155OSM   H12S17297   3.242   1.506   4.548 -0.6118 -1.9762 -1.1287
  155OSM   H12T17298   3.174   1.355   4.602  3.0751  1.1591 -1.0497
  155OSM   C13S17299   3.130   1.528   4.733  0.8466  0.2626  0.4685
  155OSM   H13S17300   3.045   1.475   4.781  0.5665  0.8957  0.6742
  155OSM   H13T17301   3.111   1.637   4.726  0.0458  0.1407  0.5987
  155OSM   C14S17302   3.251   1.515   4.817 -0.2070  0.3295  0.2550
  155OSM   H14S17303   3.339   1.543   4.755 -1.1205  1.0070 -0.7735
  155OSM   H14T17304   3.277   1.419   4.865 -0.3082  1.0536  1.8382
  155OSM   C15S17305   3.250   1.615   4.930  0.1419 -0.1918 -0.4906
  155OSM   H15S17306   3.181   1.585   5.012 -2.6886  4.2225 -0.9410
  155OSM   H15T17307   3.202   1.708   4.893  2.1561  0.7108 -0.9614
  155OSM   C16S17308   3.387   1.656   4.992  0.6550 -0.1412 -0.0088
  155OSM   H16S17309   3.443   1.700   4.907 -0.1917 -0.2055 -0.5969
  155OSM   H16T17310   3.446   1.564   5.013 -0.5613 -0.8922  0.2045
  155OSM   C17S17311   3.391   1.756   5.110 -0.1612  0.5593 -0.3124
  155OSM   H17S17312   3.484   1.742   5.168  0.2615  0.4123 -1.0134
  155OSM   H17T17313   3.300   1.733   5.169  0.6052  3.0425  2.0059
  155OSM   C18S17314   3.383   1.899   5.061  0.6679 -0.0198  0.2313
  155OSM   H18S17315   3.470   1.922   4.996  0.3838 -1.0279 -0.5311
  155OSM   H18T17316   3.392   1.970   5.146  1.5644  0.6713 -0.4273
  155OSM   H18U17317   3.292   1.930   5.006  0.2648 -0.2600  0.7467
  155OSM    C1F17318   3.667   1.575   3.711  0.7625  0.4485 -0.1171
  155OSM     OF17319   3.649   1.635   3.606  0.7158  0.3388  0.6047
  155OSM    C2F17320   3.723   1.647   3.831  0.5803 -0.1581  0.7222
  155OSM    H2F17321   3.827   1.681   3.815 -0.0075  2.2599  1.5415
  155OSM    H2G17322   3.719   1.580   3.920  1.0678  0.4319  1.1922
  155OSM    C3F17323   3.651   1.777   3.872 -0.1092 -0.0684  0.5377
  155OSM    H3F17324   3.550   1.757   3.915 -0.4809 -1.4118 -0.8838
  155OSM    H3G17325   3.630   1.847   3.788  2.7041  2.8566  2.0401
  155OSM    C4F17326   3.722   1.866   3.970 -0.6460 -0.0605 -0.9532
  155OSM    H4F17327   3.644   1.938   4.004 -0.8398 -1.5179  2.0682
  155OSM    H4G17328   3.809   1.913   3.921 -0.9494 -0.5977 -2.0331
  155OSM    C5F17329   3.779   1.790   4.091 -0.2210 -0.4846  0.1744
  155OSM    H5F17330   3.860   1.841   4.148  0.4549 -1.8148  0.4554
  155OSM    H5G17331   3.821   1.691   4.063  1.5906  0.4354 -0.5065
  155OSM    C6F17332   3.667   1.755   4.190  0.4061  0.2004  0.0496
  155OSM    H6F17333   3.583   1.706   4.136 -0.2190  1.5647 -0.2622
  155OSM    H6G17334   3.627   1.846   4.239  0.9154 -0.9645  2.7920
  155OSM    C7F17335   3.717   1.659   4.301  0.3210 -0.2484 -0.4099
  155OSM    H7F17336   3.776   1.726   4.368  0.8183  1.3028 -2.3135
  155OSM    H7G17337   3.772   1.571   4.261  0.4371 -0.0320 -0.7264
  155OSM    C8F17338   3.592   1.591   4.372 -1.0180 -0.3801  0.0579
  155OSM    H8F17339   3.643   1.529   4.449 -1.0102 -1.7536 -1.0087
  155OSM    H8G17340   3.550   1.522   4.295  1.8860 -0.7952 -1.2924
  155OSM    C9F17341   3.496   1.692   4.435 -0.6227  0.1222  0.0695
  155OSM    H9F17342   3.418   1.732   4.369  1.9885  0.8008 -2.8464
  155OSM   C10F17343   3.510   1.730   4.568 -0.4734 -0.4986 -0.3701
  155OSM   H10F17344   3.441   1.808   4.602  1.7223  1.1383  0.5881
  155OSM   C11F17345   3.606   1.680   4.671 -0.4716 -0.0973  0.6188
  155OSM   H11F17346   3.696   1.632   4.627  1.4060  4.0148 -0.5849
  155OSM   H11G17347   3.555   1.607   4.736  0.0988  0.8762  2.2172
  155OSM   C12F17348   3.644   1.799   4.762 -0.1224 -0.6081  0.0976
  155OSM   H12F17349   3.552   1.850   4.796  1.0228  2.0554 -0.5796
  155OSM   H12G17350   3.709   1.861   4.697  0.8883 -1.0170  0.6886
  155OSM   C13F17351   3.721   1.769   4.887 -0.0267  0.8821 -0.3142
  155OSM   H13F17352   3.814   1.712   4.867 -0.6286 -0.1921 -0.0921
  155OSM   H13G17353   3.653   1.711   4.952 -0.2812  3.0589  1.5014
  155OSM   C14F17354   3.767   1.903   4.962 -0.0805 -0.4448 -0.6606
  155OSM   H14F17355   3.674   1.958   4.988  0.1521 -0.1114 -0.5343
  155OSM   H14G17356   3.831   1.962   4.893 -0.2952 -0.6634 -1.0491
  155OSM   C15F17357   3.855   1.877   5.083  0.8753 -0.4692 -0.0091
  155OSM   H15F17358   3.874   1.976   5.129 -0.7004 -1.1699  2.2953
  155OSM   H15G17359   3.945   1.827   5.042 -0.0966 -1.5000 -0.9898
  155OSM   C16F17360   3.785   1.801   5.191 -0.7530 -0.4171 -0.9051
  155OSM   H16F17361   3.759   1.698   5.157  2.2690 -1.4578 -0.4025
  155OSM   H16G17362   3.684   1.844   5.207  0.0560  0.7811  1.2553
  155OSM   C17F17363   3.867   1.788   5.321  0.1899 -0.4945 -0.1781
  155OSM   H17F17364   3.882   1.894   5.351 -0.2797  0.1695 -2.0866
  155OSM   H17G17365   3.962   1.731   5.311 -0.0136 -0.9067  0.2452
  155OSM   C18F17366   3.788   1.709   5.424  0.9997 -0.1963 -0.3777
  155OSM   H18F17367   3.684   1.749   5.425  0.8642 -0.5420  0.4775
  155OSM   H18G17368   3.829   1.729   5.525  1.6227  3.9787 -1.2571
  155OSM   H18H17369   3.786   1.601   5.400  0.7245 -0.0379 -1.0837
  156OSM      N17370   5.592   0.527   3.035  0.4470 -0.4605 -0.1968
  156OSM    C1517371   5.554   0.635   2.943 -0.4847 -0.0155  0.0774
  156OSM   H15A17372   5.518   0.715   3.006  1.7128  0.1432  1.2388
  156OSM   H15B17373   5.479   0.605   2.872  0.2418 -0.7828 -0.3938
  156OSM   H15C17374   5.639   0.665   2.884 -1.5396  0.1193 -1.4165
  156OSM    C1417375   5.486   0.521   3.142 -0.8218  0.8581 -0.0267
  156OSM   H14A17376   5.391   0.503   3.093 -0.2405 -0.1677 -0.7882
  156OSM   H14B17377   5.477   0.617   3.190 -0.2936  0.6323  0.5351
  156OSM   H14C17378   5.493   0.432   3.202 -0.9220 -0.5606 -2.0195
  156OSM    C1317379   5.586   0.406   2.955  0.2029 -0.1878 -0.7592
  156OSM   H13A17380   5.487   0.378   2.924 -0.6762  1.3904  0.4868
  156OSM   H13B17381   5.624   0.321   3.011  0.3712  1.3702  1.6643
  156OSM   H13C17382   5.656   0.405   2.873  0.7547 -1.4253 -0.3125
  156OSM    C1217383   5.729   0.542   3.101  0.1534  0.4017 -0.3416
  156OSM   H12A17384   5.803   0.537   3.022  0.1079 -2.6162 -0.3074
  156OSM   H12B17385   5.753   0.448   3.150  0.9763  1.1294  0.6984
  156OSM    C1117386   5.748   0.649   3.208  0.3684  0.2695  0.2824
  156OSM   H11A17387   5.836   0.626   3.271  0.2710  0.4271  0.4782
  156OSM   H11B17388   5.668   0.624   3.281  0.0512 -1.2329 -0.5332
  156OSM      P17389   5.865   0.849   3.102 -0.1705 -0.4055 -0.1218
  156OSM    O1317390   5.957   0.751   3.034  0.3464  0.2989  0.5027
  156OSM    O1417391   5.827   0.966   3.025 -0.2132 -0.0033 -0.1647
  156OSM    O1117392   5.919   0.889   3.242 -0.0765  0.1674  0.5387
  156OSM    O1217393   5.732   0.781   3.155 -0.1473 -0.2267 -0.4793
  156OSM    C1S17394   5.878   0.984   3.331 -0.5687  0.2741 -0.3309
  156OSM    H1S17395   5.771   0.962   3.348 -0.8604  1.4587 -0.5479
  156OSM    H1T17396   5.889   1.086   3.287 -0.7448 -0.1548 -1.3980
  156OSM     NF17397   5.888   1.058   3.570 -0.3461  0.4681  0.7137
  156OSM    HNF17398   5.939   1.127   3.621  0.6735  2.1008 -2.2640
  156OSM    C2S17399   5.954   0.976   3.469  0.2828  0.2222 -1.0566
  156OSM    H2S17400   5.931   0.872   3.499 -1.5089  0.3831 -1.7697
  156OSM    C3S17401   6.113   0.985   3.462  0.1315 -0.2169  0.5805
  156OSM    H3S17402   6.129   1.091   3.433  0.8368 -1.0413 -2.3290
  156OSM     O317403   6.172   0.899   3.360  0.0283  0.4227 -0.1633
  156OSM    HO317404   6.096   0.862   3.315 -0.5122  0.8344  0.4077
  156OSM    C4S17405   6.169   0.963   3.599 -0.3453 -0.3023 -0.8796
  156OSM    H4S17406   6.180   1.062   3.648 -0.3736 -0.3155 -0.8465
  156OSM    C5S17407   6.194   0.851   3.663 -0.2128 -0.1680 -0.4344
  156OSM    H5S17408   6.194   0.768   3.591 -1.0124  1.3912 -2.3344
  156OSM    C6S17409   6.244   0.825   3.804  0.4487  0.3595 -0.5794
  156OSM    H6S17410   6.332   0.757   3.811  0.8669  0.9652  0.1945
  156OSM    H6T17411   6.166   0.774   3.865  0.2148  2.3568  0.8780
  156OSM    C7S17412   6.286   0.953   3.869  0.2793  0.2320  0.0741
  156OSM    H7S17413   6.202   1.026   3.861  2.2865  2.4828 -2.1779
  156OSM    H7T17414   6.360   0.997   3.799 -1.1917  0.4539 -1.3989
  156OSM    C8S17415   6.345   0.946   4.012  0.1185 -0.2816 -0.3437
  156OSM    H8S17416   6.384   1.046   4.039 -2.5988  0.9653 -0.6341
  156OSM    H8T17417   6.430   0.875   4.009 -1.1174 -1.7983 -0.9172
  156OSM    C9S17418   6.238   0.914   4.118 -0.2140 -0.1696  0.1042
  156OSM    H9S17419   6.199   0.811   4.103 -1.4772  0.2229  0.5923
  156OSM    H9T17420   6.155   0.987   4.107  2.1585  2.4696 -1.7292
  156OSM   C10S17421   6.296   0.920   4.262 -0.8308 -0.5368  0.5119
  156OSM   H10S17422   6.315   1.027   4.285 -1.7975  0.1256 -1.4956
  156OSM   H10T17423   6.392   0.863   4.259 -0.2381  0.4483 -0.1615
  156OSM   C11S17424   6.212   0.859   4.374  0.1435 -0.8333 -0.3386
  156OSM   H11S17425   6.189   0.757   4.337  0.5807 -0.2333 -2.4502
  156OSM   H11T17426   6.113   0.909   4.372  0.4274 -0.2738 -1.2094
  156OSM   C12S17427   6.274   0.866   4.514 -0.0062 -0.2423  0.5305
  156OSM   H12S17428   6.323   0.963   4.538 -0.5653 -0.2420  1.7596
  156OSM   H12T17429   6.337   0.779   4.543  0.0473 -1.7529 -3.5195
  156OSM   C13S17430   6.163   0.846   4.616  0.0265  0.5010  0.1332
  156OSM   H13S17431   6.125   0.742   4.619 -1.0464  0.8232 -1.0168
  156OSM   H13T17432   6.073   0.907   4.594  0.4735  0.9416 -0.5085
  156OSM   C14S17433   6.210   0.910   4.751 -0.2583  0.4549 -0.2604
  156OSM   H14S17434   6.221   1.019   4.731 -0.6836  0.3840 -0.9367
  156OSM   H14T17435   6.305   0.863   4.784 -0.3786 -0.2828 -0.9201
  156OSM   C15S17436   6.102   0.882   4.865  0.5039  0.0368  1.1104
  156OSM   H15S17437   6.091   0.773   4.883  2.3869 -0.1212  1.5671
  156OSM   H15T17438   6.004   0.921   4.831  0.8216  0.3277  0.5041
  156OSM   C16S17439   6.139   0.951   4.993 -0.3139  0.0469  0.3098
  156OSM   H16S17440   6.135   1.059   4.964 -0.4555 -0.2514 -0.8512
  156OSM   H16T17441   6.242   0.937   5.032  0.1146  0.4545 -0.6425
  156OSM   C17S17442   6.043   0.913   5.105  0.2100  0.5736 -0.3574
  156OSM   H17S17443   6.034   0.803   5.121 -0.9823  0.7570  0.3367
  156OSM   H17T17444   5.946   0.961   5.083 -1.8178 -2.7208  0.7175
  156OSM   C18S17445   6.085   0.972   5.238  0.2540  0.4159 -0.5272
  156OSM   H18S17446   6.017   0.947   5.321 -0.4660 -0.5209 -1.3716
  156OSM   H18T17447   6.093   1.082   5.235  0.1320  0.4093 -1.7176
  156OSM   H18U17448   6.188   0.942   5.269 -0.4455 -0.4237  1.0901
  156OSM    C1F17449   5.756   1.048   3.611  0.4789  0.3172 -0.1191
  156OSM     OF17450   5.668   0.977   3.562 -0.5795  0.5268 -0.1213
  156OSM    C2F17451   5.739   1.138   3.724  0.4829 -0.1831  0.4883
  156OSM    H2F17452   5.635   1.126   3.761  0.6527  0.4049  1.1786
  156OSM    H2G17453   5.751   1.246   3.699 -1.3659  0.1990  1.1143
  156OSM    C3F17454   5.830   1.121   3.841 -0.1747 -0.3703 -0.2404
  156OSM    H3F17455   5.931   1.156   3.810  0.3096 -1.0602  0.4914
  156OSM    H3G17456   5.848   1.014   3.863  0.0931  0.1364  2.3557
  156OSM    C4F17457   5.787   1.192   3.967 -0.0337 -0.1727  0.2945
  156OSM    H4F17458   5.684   1.153   3.983 -0.7797  0.7000 -1.8737
  156OSM    H4G17459   5.782   1.301   3.946  0.4135 -0.3448 -0.7768
  156OSM    C5F17460   5.864   1.165   4.097 -0.1871 -0.0480 -0.2767
  156OSM    H5F17461   5.972   1.181   4.075  0.4005 -1.0299  1.6817
  156OSM    H5G17462   5.851   1.058   4.126  2.1338  0.0564  1.4029
  156OSM    C6F17463   5.834   1.278   4.205 -0.1100  0.3453  0.6062
  156OSM    H6F17464   5.731   1.266   4.247 -1.0377 -0.1462 -1.6871
  156OSM    H6G17465   5.836   1.374   4.150 -1.4308  0.8303  1.3503
  156OSM    C7F17466   5.934   1.271   4.324  0.0392 -0.5439  0.4266
  156OSM    H7F17467   5.952   1.375   4.358 -0.0513 -0.8736  1.5195
  156OSM    H7G17468   6.025   1.236   4.270 -1.2275  1.6272 -3.4255
  156OSM    C8F17469   5.892   1.184   4.436 -1.1037 -0.6876  0.3528
  156OSM    H8F17470   5.901   1.081   4.396  2.4154 -0.8112  1.0927
  156OSM    H8G17471   5.786   1.197   4.467 -0.7078  1.2903  1.0702
  156OSM    C9F17472   5.985   1.187   4.559  0.1571 -0.3313  0.5874
  156OSM    H9F17473   6.064   1.110   4.557 -0.5075 -1.0013 -0.0153
  156OSM   C10F17474   5.952   1.244   4.674 -0.2747  0.1329  0.3297
  156OSM   H10F17475   6.018   1.252   4.762  2.5590 -1.2558 -1.5243
  156OSM   C11F17476   5.836   1.337   4.678 -0.1296 -0.4666 -0.0714
  156OSM   H11F17477   5.793   1.382   4.586 -0.5632 -0.1021  0.2988
  156OSM   H11G17478   5.878   1.423   4.735 -0.5827 -0.9268  0.9782
  156OSM   C12F17479   5.715   1.280   4.755 -0.9971 -0.6173 -0.1127
  156OSM   H12F17480   5.690   1.189   4.697  1.4752  0.4839 -3.2490
  156OSM   H12G17481   5.632   1.354   4.758  0.9021  1.7296 -1.2966
  156OSM   C13F17482   5.746   1.230   4.896 -0.8234  0.2068 -0.5515
  156OSM   H13F17483   5.829   1.157   4.884 -0.8589 -0.1573  1.1560
  156OSM   H13G17484   5.657   1.177   4.935  1.2994 -2.5362  0.8752
  156OSM   C14F17485   5.790   1.338   4.999 -0.0699 -0.0925  0.3258
  156OSM   H14F17486   5.695   1.394   5.013  0.9362  1.3032  1.9482
  156OSM   H14G17487   5.878   1.393   4.959  1.2128 -2.0529  0.2883
  156OSM   C15F17488   5.825   1.276   5.130 -0.5316  0.3531  0.1887
  156OSM   H15F17489   5.930   1.244   5.111 -1.1410 -1.1835 -0.8155
  156OSM   H15G17490   5.769   1.180   5.136  1.6118 -1.0077 -0.0697
  156OSM   C16F17491   5.812   1.367   5.256 -0.0113  0.1588  0.4152
  156OSM   H16F17492   5.708   1.404   5.246 -0.4368 -1.2211 -0.4964
  156OSM   H16G17493   5.873   1.460   5.252 -1.0133  0.8183  0.1508
  156OSM   C17F17494   5.843   1.280   5.379  0.2410 -0.1107  1.1779
  156OSM   H17F17495   5.952   1.267   5.395  0.0725 -1.8754  1.1196
  156OSM   H17G17496   5.796   1.180   5.364 -0.1420 -0.0177  1.6896
  156OSM   C18F17497   5.781   1.345   5.508  0.3141 -0.3307 -0.4214
  156OSM   H18F17498   5.671   1.328   5.513  0.2861 -0.1287 -0.3383
  156OSM   H18G17499   5.805   1.453   5.512  0.8651 -0.4440 -0.5857
  156OSM   H18H17500   5.813   1.311   5.608 -2.1947  1.0721  0.9723
  157OSM      N17501   5.190   6.718   2.995  0.0366  0.4958  0.3061
  157OSM    C1517502   5.303   6.681   2.891  0.4154  0.3625 -0.2609
  157OSM   H15A17503   5.265   6.600   2.829  0.2459 -1.8769  2.5619
  157OSM   H15B17504   5.396   6.657   2.940  0.8829  1.5182 -0.5553
  157OSM   H15C17505   5.324   6.766   2.828 -2.5026 -0.3837 -2.4844
  157OSM    C1417506   5.069   6.760   2.920 -0.6890  0.1788  0.2758
  157OSM   H14A17507   5.084   6.861   2.884  1.6649  0.1824  1.1204
  157OSM   H14B17508   4.979   6.752   2.980 -1.6900 -1.1977 -1.3079
  157OSM   H14C17509   5.051   6.705   2.829  1.3177 -0.4295  0.2064
  157OSM    C1317510   5.147   6.585   3.057  0.2645  0.4341  0.3188
  157OSM   H13A17511   5.234   6.540   3.103  0.7677  0.9325 -0.1284
  157OSM   H13B17512   5.119   6.512   2.982  0.9795  1.2653 -0.7865
  157OSM   H13C17513   5.072   6.590   3.134  1.2699 -0.2605  1.3740
  157OSM    C1217514   5.227   6.823   3.105  0.4468 -0.4261  0.3626
  157OSM   H12A17515   5.298   6.777   3.172  1.9815 -0.6010 -1.2969
  157OSM   H12B17516   5.129   6.834   3.148  0.1321 -3.3543  0.5701
  157OSM    C1117517   5.293   6.956   3.055  0.8667  0.3895  0.1327
  157OSM   H11A17518   5.361   6.923   2.973 -1.8163 -1.3807 -1.5755
  157OSM   H11B17519   5.350   7.011   3.133  3.2035  0.9056 -1.8382
  157OSM      P17520   5.081   7.120   3.066 -0.0298 -0.1669 -0.3570
  157OSM    O1317521   5.002   7.206   2.980  0.4202  0.0512 -0.0022
  157OSM    O1417522   5.001   7.022   3.144 -1.0600 -0.6876 -0.4269
  157OSM    O1117523   5.166   7.206   3.167  0.0723  0.8620  0.2538
  157OSM    O1217524   5.205   7.046   2.989  0.6371 -0.2290 -0.9310
  157OSM    C1S17525   5.121   7.331   3.221 -0.1387  0.4358 -0.6719
  157OSM    H1S17526   5.037   7.377   3.165 -1.3469 -0.6686  0.1955
  157OSM    H1T17527   5.199   7.410   3.210 -0.1914  0.4537 -0.9302
  157OSM     NF17528   5.037   7.439   3.423 -0.4654 -0.2254 -0.8259
  157OSM    HNF17529   5.111   7.491   3.466 -0.6030 -0.5741 -0.1552
  157OSM    C2S17530   5.090   7.318   3.377  0.0565  0.4842  0.7582
  157OSM    H2S17531   5.014   7.238   3.388  1.3063 -0.9199 -0.2600
  157OSM    C3S17532   5.223   7.289   3.452  0.3936  0.3741  0.1769
  157OSM    H3S17533   5.281   7.384   3.455 -0.6325  1.0009  2.0895
  157OSM     O317534   5.297   7.182   3.390  0.0744 -0.2682  0.4246
  157OSM    HO317535   5.259   7.186   3.303  0.9947 -0.2193  0.0110
  157OSM    C4S17536   5.210   7.256   3.604 -0.4680  0.4820 -0.0635
  157OSM    H4S17537   5.201   7.339   3.676 -1.0826  0.4897 -0.1407
  157OSM    C5S17538   5.227   7.133   3.653  0.1497 -0.4625  0.0317
  157OSM    H5S17539   5.247   7.056   3.578  0.2444  0.7628 -1.2452
  157OSM    C6S17540   5.229   7.093   3.800  0.4649  0.2746 -0.0076
  157OSM    H6S17541   5.319   7.035   3.831 -0.8984 -0.6207  2.6746
  157OSM    H6T17542   5.146   7.018   3.804 -0.7480  1.6156  1.1541
  157OSM    C7S17543   5.198   7.204   3.907  0.5882  0.4609 -0.7006
  157OSM    H7S17544   5.104   7.259   3.887 -0.4363 -0.6491  0.8450
  157OSM    H7T17545   5.280   7.277   3.887 -1.0558  1.9862 -2.2837
  157OSM    C8S17546   5.180   7.141   4.048  0.4508  0.0446  0.2328
  157OSM    H8S17547   5.256   7.063   4.071 -0.0474 -0.1133  1.3578
  157OSM    H8T17548   5.087   7.081   4.041 -0.6623  1.8710 -1.7513
  157OSM    C9S17549   5.177   7.244   4.161  0.3579 -0.4851  1.0016
  157OSM    H9S17550   5.111   7.330   4.136 -1.3003 -1.9692  0.0695
  157OSM    H9T17551   5.278   7.290   4.165 -0.9304  2.9692 -1.4449
  157OSM   C10S17552   5.135   7.177   4.289  0.6362  0.2295  0.6585
  157OSM   H10S17553   5.176   7.074   4.299  0.9976  0.4536  1.5808
  157OSM   H10T17554   5.025   7.164   4.283  0.7364 -0.4534  0.2183
  157OSM   C11S17555   5.191   7.258   4.412 -0.2161 -0.0987  0.0919
  157OSM   H11S17556   5.145   7.360   4.409 -0.0311 -0.0138  0.1166
  157OSM   H11T17557   5.302   7.257   4.406 -0.1646 -1.4171  0.9395
  157OSM   C12S17558   5.150   7.187   4.547  0.2683 -0.8229 -0.9014
  157OSM   H12S17559   5.210   7.093   4.555 -0.5466 -1.1956  1.4154
  157OSM   H12T17560   5.052   7.136   4.545  0.1830 -0.6526 -1.1209
  157OSM   C13S17561   5.184   7.269   4.675  0.0483  0.8830 -0.9878
  157OSM   H13S17562   5.089   7.325   4.687 -0.9999 -1.0821  0.4876
  157OSM   H13T17563   5.271   7.338   4.664  0.7221 -0.1817 -2.7857
  157OSM   C14S17564   5.205   7.176   4.794 -0.5430  0.9874  0.0900
  157OSM   H14S17565   5.312   7.152   4.807 -1.0186 -1.8209 -0.6545
  157OSM   H14T17566   5.156   7.079   4.772 -2.6716  1.8821  0.6227
  157OSM   C15S17567   5.153   7.223   4.927 -0.2666  0.6285 -0.0546
  157OSM   H15S17568   5.207   7.158   5.001  1.5341  0.1403 -1.7119
  157OSM   H15T17569   5.043   7.212   4.930 -0.5052  1.9632 -2.3148
  157OSM   C16S17570   5.187   7.366   4.960 -0.4515 -0.9038  0.1998
  157OSM   H16S17571   5.134   7.437   4.894  0.5072 -1.8514 -1.6939
  157OSM   H16T17572   5.292   7.382   4.928 -1.5137  1.9331 -2.3360
  157OSM   C17S17573   5.182   7.396   5.105 -0.1772  0.2251  0.3100
  157OSM   H17S17574   5.083   7.368   5.148 -0.4790  0.8460  0.0282
  157OSM   H17T17575   5.202   7.505   5.114  1.8683 -0.0137 -0.7960
  157OSM   C18S17576   5.293   7.325   5.185  0.8621 -0.0767 -0.0592
  157OSM   H18S17577   5.395   7.345   5.147 -0.0946  1.7744 -1.8138
  157OSM   H18T17578   5.279   7.216   5.203  0.2345 -0.1221 -0.7995
  157OSM   H18U17579   5.297   7.359   5.291 -1.8992 -1.1696  0.4685
  157OSM    C1F17580   4.910   7.472   3.396 -0.4507  0.0206 -0.2249
  157OSM     OF17581   4.840   7.401   3.329 -0.0308  0.1145  0.1853
  157OSM    C2F17582   4.865   7.615   3.442 -0.1881 -0.0620  0.5844
  157OSM    H2F17583   4.863   7.682   3.354 -0.2731 -0.6214  0.1586
  157OSM    H2G17584   4.944   7.656   3.509  0.1092  1.1918 -0.4947
  157OSM    C3F17585   4.737   7.612   3.529  0.6263 -0.3385  0.1112
  157OSM    H3F17586   4.649   7.596   3.463 -0.9668  1.0488  1.7749
  157OSM    H3G17587   4.719   7.716   3.564  1.6940  0.2645 -1.0355
  157OSM    C4F17588   4.733   7.521   3.657 -0.7202  0.1030  0.3091
  157OSM    H4F17589   4.779   7.421   3.642 -0.3181  0.3825 -0.3830
  157OSM    H4G17590   4.624   7.510   3.672 -0.4540 -0.4984  2.0447
  157OSM    C5F17591   4.786   7.594   3.783 -0.5776  0.7562  0.2762
  157OSM    H5F17592   4.722   7.684   3.794  0.4588  1.3763  1.3543
  157OSM    H5G17593   4.891   7.619   3.759 -0.1216 -1.8401 -0.7107
  157OSM    C6F17594   4.783   7.508   3.911 -0.1703 -0.1712 -0.5045
  157OSM    H6F17595   4.827   7.408   3.891 -1.4754 -1.1256  1.1295
  157OSM    H6G17596   4.674   7.501   3.928 -0.5707 -0.4165 -2.7683
  157OSM    C7F17597   4.844   7.589   4.028 -0.7702  0.1355 -0.5795
  157OSM    H7F17598   4.787   7.684   4.035 -1.2492 -0.1689 -0.3150
  157OSM    H7G17599   4.946   7.619   3.993  0.1723 -1.5634  0.5894
  157OSM    C8F17600   4.851   7.505   4.161  0.1367 -0.3615 -0.4715
  157OSM    H8F17601   4.904   7.409   4.145 -1.7215 -1.2734 -1.4710
  157OSM    H8G17602   4.745   7.488   4.188  1.0929 -1.5266  3.0906
  157OSM    C9F17603   4.911   7.597   4.270 -0.0904 -0.0632 -0.3758
  157OSM    H9F17604   4.978   7.675   4.231  1.0695 -1.5092 -1.4265
  157OSM   C10F17605   4.884   7.583   4.401  0.0058 -0.2206 -0.1431
  157OSM   H10F17606   4.942   7.641   4.475 -0.8498 -1.0554  1.2147
  157OSM   C11F17607   4.791   7.487   4.461 -0.8206 -0.4285  0.0539
  157OSM   H11F17608   4.843   7.448   4.551  1.1648  2.4774  0.2908
  157OSM   H11G17609   4.759   7.404   4.393  0.2525 -1.5204  0.8425
  157OSM   C12F17610   4.669   7.564   4.518 -0.2187  0.5515  0.0336
  157OSM   H12F17611   4.599   7.590   4.436  0.5088 -1.1546 -1.1897
  157OSM   H12G17612   4.704   7.659   4.563  1.6353  0.4925 -1.1583
  157OSM   C13F17613   4.590   7.482   4.620  0.6755 -0.0806 -0.4504
  157OSM   H13F17614   4.575   7.380   4.577 -1.0440 -1.0858  2.2678
  157OSM   H13G17615   4.486   7.521   4.622  1.5326  2.6340 -2.5542
  157OSM   C14F17616   4.656   7.448   4.752  0.8003  0.3540 -0.3095
  157OSM   H14F17617   4.671   7.539   4.814  1.6894 -0.5789  0.8907
  157OSM   H14G17618   4.754   7.397   4.738  0.4655 -1.9054  3.9492
  157OSM   C15F17619   4.572   7.345   4.829  0.3895 -0.1409 -0.0221
  157OSM   H15F17620   4.617   7.354   4.930  2.7497  0.6592 -1.0695
  157OSM   H15G17621   4.596   7.246   4.786 -0.0926  0.1278 -0.9528
  157OSM   C16F17622   4.418   7.373   4.847  0.7473  0.1322 -0.0108
  157OSM   H16F17623   4.374   7.404   4.749 -1.2369  2.2168  1.4423
  157OSM   H16G17624   4.403   7.467   4.903 -0.8912 -0.2993  0.3308
  157OSM   C17F17625   4.342   7.249   4.896  0.2304 -0.9327  0.3421
  157OSM   H17F17626   4.386   7.223   4.995  1.2098 -0.0709  0.1549
  157OSM   H17G17627   4.356   7.164   4.827 -2.1289 -0.8927 -0.2763
  157OSM   C18F17628   4.193   7.288   4.914 -0.2548 -0.0062 -0.2218
  157OSM   H18F17629   4.186   7.363   4.996 -1.1030  0.9511 -1.1424
  157OSM   H18G17630   4.137   7.197   4.946 -1.6165  1.0292  0.4582
  157OSM   H18H17631   4.146   7.334   4.825 -1.6225 -0.2126  0.3621
  158OSM      N17632   1.730   1.606   2.898  0.3595 -0.3056 -0.2975
  158OSM    C1517633   1.580   1.617   2.875  0.2006 -0.1420 -0.2458
  158OSM   H15A17634   1.527   1.682   2.943 -1.9958 -1.7771 -0.2584
  158OSM   H15B17635   1.544   1.517   2.896  2.4613 -1.1501 -0.8461
  158OSM   H15C17636   1.563   1.661   2.778 -0.3661  1.0244  0.3688
  158OSM    C1417637   1.791   1.519   2.787  0.1555 -0.5578  0.0175
  158OSM   H14A17638   1.731   1.429   2.781  0.0609 -0.5493  0.7553
  158OSM   H14B17639   1.892   1.497   2.819 -0.6767 -1.4521  2.1941
  158OSM   H14C17640   1.799   1.565   2.689  0.1857 -0.6461 -0.0219
  158OSM    C1317641   1.799   1.743   2.878 -0.3474 -0.0408  0.1832
  158OSM   H13A17642   1.770   1.801   2.791  0.7860 -0.4175 -0.4718
  158OSM   H13B17643   1.906   1.735   2.889 -0.2471 -1.2850 -1.3173
  158OSM   H13C17644   1.751   1.807   2.950  1.6811  1.2894  0.4499
  158OSM    C1217645   1.766   1.552   3.035 -0.3966 -0.7203 -0.3718
  158OSM   H12A17646   1.717   1.609   3.113  0.0652 -0.8603  0.0238
  158OSM   H12B17647   1.871   1.568   3.051 -0.1347 -4.3718  3.2034
  158OSM    C1117648   1.746   1.401   3.061  0.5924 -0.5093 -0.2689
  158OSM   H11A17649   1.636   1.390   3.045  0.4787  1.2922 -1.0642
  158OSM   H11B17650   1.761   1.376   3.168  1.3756 -1.8187 -0.6591
  158OSM      P17651   1.980   1.302   2.988  0.4055  0.5116  0.0236
  158OSM    O1317652   2.012   1.177   2.915 -0.2802  0.7114 -0.2067
  158OSM    O1417653   2.046   1.429   2.953 -0.2006  0.5916 -1.0154
  158OSM    O1117654   2.008   1.274   3.141  0.1713  0.1289 -0.9323
  158OSM    O1217655   1.825   1.317   2.979  0.2131  0.1083  0.5250
  158OSM    C1S17656   2.114   1.329   3.210 -0.0629 -0.1806  0.4382
  158OSM    H1S17657   2.109   1.440   3.219  0.1040 -0.2028  0.8589
  158OSM    H1T17658   2.214   1.317   3.164 -0.9288  1.7820 -2.2241
  158OSM     NF17659   2.211   1.349   3.433  0.3302 -0.0842 -0.8023
  158OSM    HNF17660   2.306   1.322   3.440  0.6340  1.2744  0.8851
  158OSM    C2S17661   2.117   1.268   3.356 -0.4030 -1.3006 -0.2706
  158OSM    H2S17662   2.013   1.277   3.395 -0.4440 -0.8887 -0.4701
  158OSM    C3S17663   2.156   1.121   3.347  0.1623  0.2977 -0.5051
  158OSM    H3S17664   2.258   1.104   3.306  0.5407 -0.9782  0.8673
  158OSM     O317665   2.086   1.044   3.254  0.1078 -0.1352  0.8779
  158OSM    HO317666   2.041   1.115   3.207 -0.6103 -1.4892 -0.5717
  158OSM    C4S17667   2.154   1.058   3.486  0.1226  0.3615 -0.3447
  158OSM    H4S17668   2.252   1.064   3.534  0.5334  0.8769 -1.2321
  158OSM    C5S17669   2.058   0.993   3.562 -0.4012  0.2966 -0.2989
  158OSM    H5S17670   1.964   0.961   3.515  0.4048 -2.1632 -0.3635
  158OSM    C6S17671   2.072   0.958   3.709 -0.3839 -0.4988 -0.3073
  158OSM    H6S17672   2.076   0.848   3.717 -0.6354 -0.5018 -0.2291
  158OSM    H6T17673   1.986   0.992   3.770  1.4067 -1.9431  3.3040
  158OSM    C7S17674   2.193   1.030   3.786  0.4563 -0.1432  0.3922
  158OSM    H7S17675   2.176   1.139   3.802  0.6857 -0.3169  1.9760
  158OSM    H7T17676   2.284   1.022   3.723 -0.8330  1.0266 -1.7023
  158OSM    C8S17677   2.224   0.966   3.927 -0.1081 -0.4130  0.3863
  158OSM    H8S17678   2.325   0.995   3.966  0.1723 -1.3338  0.3594
  158OSM    H8T17679   2.240   0.859   3.901  1.4062 -0.2405  0.5073
  158OSM    C9S17680   2.123   0.992   4.042  0.2565  0.0695  0.1049
  158OSM    H9S17681   2.016   0.992   4.009  0.3010  1.5344 -0.0924
  158OSM    H9T17682   2.134   1.090   4.093 -0.6582  1.0572 -1.4833
  158OSM   C10S17683   2.133   0.886   4.157  0.3253  0.2532  0.1915
  158OSM   H10S17684   2.243   0.882   4.171  0.3234  0.7192  0.3719
  158OSM   H10T17685   2.095   0.786   4.128 -0.1271  1.0990 -2.4188
  158OSM   C11S17686   2.057   0.940   4.283 -0.8113 -0.4086  0.1846
  158OSM   H11S17687   1.946   0.941   4.285 -0.8084 -0.4007  0.9292
  158OSM   H11T17688   2.079   1.049   4.296 -0.6348 -0.6394  2.1714
  158OSM   C12S17689   2.105   0.863   4.412 -0.4189  0.3187  0.2830
  158OSM   H12S17690   2.215   0.875   4.421 -0.3249  0.3005 -0.7508
  158OSM   H12T17691   2.083   0.754   4.406  0.0882  0.1479  1.2258
  158OSM   C13S17692   2.049   0.918   4.543  0.7049  0.8105  0.1405
  158OSM   H13S17693   1.943   0.890   4.560  0.9542  1.1102  2.4453
  158OSM   H13T17694   2.059   1.028   4.527 -0.2346  0.7034 -1.3816
  158OSM   C14S17695   2.128   0.882   4.668  0.1256  0.0568  0.2776
  158OSM   H14S17696   2.233   0.893   4.634 -0.4485  0.9007 -1.3129
  158OSM   H14T17697   2.098   0.783   4.708  0.8461  0.6097  2.3135
  158OSM   C15S17698   2.108   0.976   4.786  0.3615 -0.5129 -0.2493
  158OSM   H15S17699   1.998   0.981   4.796  0.6022  0.1722  3.6055
  158OSM   H15T17700   2.151   1.075   4.759 -1.4283  0.0211 -1.2644
  158OSM   C16S17701   2.174   0.930   4.920 -0.5025  0.3066 -0.4814
  158OSM   H16S17702   2.282   0.919   4.899 -1.1608 -2.1571 -3.1988
  158OSM   H16T17703   2.127   0.833   4.946 -0.8015  0.2047 -1.3410
  158OSM   C17S17704   2.148   1.026   5.045 -0.1710 -0.0206  0.7835
  158OSM   H17S17705   2.189   1.129   5.033  1.7620 -0.7481  0.7109
  158OSM   H17T17706   2.208   0.989   5.131 -0.1895 -0.7445  0.4985
  158OSM   C18S17707   1.996   1.032   5.080 -0.1180 -0.1745  0.1563
  158OSM   H18S17708   1.954   0.929   5.069 -2.4935  0.8979 -1.8311
  158OSM   H18T17709   1.948   1.108   5.015  0.4361 -0.7094 -0.8874
  158OSM   H18U17710   1.999   1.068   5.185  1.6926  0.9834 -0.2477
  158OSM    C1F17711   2.183   1.466   3.473  0.7143 -0.2279 -0.3827
  158OSM     OF17712   2.071   1.518   3.459  0.0545  0.7065 -0.2730
  158OSM    C2F17713   2.293   1.543   3.542  0.6787  0.7248 -0.2681
  158OSM    H2F17714   2.296   1.634   3.479 -0.5943 -0.2130 -1.7741
  158OSM    H2G17715   2.388   1.485   3.537 -0.0986 -0.5979 -0.2214
  158OSM    C3F17716   2.259   1.572   3.690  0.7468  0.4915  0.6122
  158OSM    H3F17717   2.153   1.605   3.691 -0.0395 -1.7283 -1.4469
  158OSM    H3G17718   2.330   1.651   3.722  1.1519  0.5174 -0.3325
  158OSM    C4F17719   2.269   1.449   3.785  0.0267  0.5116  0.4204
  158OSM    H4F17720   2.371   1.411   3.761 -0.0509 -0.1159  1.0548
  158OSM    H4G17721   2.195   1.368   3.766  1.4312 -0.1927 -2.7596
  158OSM    C5F17722   2.258   1.486   3.929  0.6116  0.3830  0.4595
  158OSM    H5F17723   2.149   1.486   3.948  0.4057 -4.0070  0.2656
  158OSM    H5G17724   2.303   1.588   3.939 -0.0603  1.0738 -2.6278
  158OSM    C6F17725   2.347   1.401   4.021 -0.2954  0.5995  0.2143
  158OSM    H6F17726   2.452   1.405   3.985  0.3199  0.8936  1.9432
  158OSM    H6G17727   2.315   1.295   4.010 -3.0839  1.1302  2.1133
  158OSM    C7F17728   2.345   1.442   4.169 -0.4628 -0.9155  0.4822
  158OSM    H7F17729   2.240   1.456   4.203  0.5011  4.1413  2.1496
  158OSM    H7G17730   2.377   1.548   4.171  0.9038 -1.2444 -1.5730
  158OSM    C8F17731   2.435   1.366   4.263 -0.2730 -0.2187  0.6031
  158OSM    H8F17732   2.442   1.429   4.354  2.2928 -0.7390  0.8527
  158OSM    H8G17733   2.537   1.377   4.220 -1.1722  1.9554 -1.1857
  158OSM    C9F17734   2.407   1.219   4.281  0.0073  0.6096 -0.5037
  158OSM    H9F17735   2.433   1.145   4.205  0.4557  0.2794 -0.0344
  158OSM   C10F17736   2.365   1.171   4.396  0.6274  0.2090  0.2608
  158OSM   H10F17737   2.352   1.063   4.411  1.0813  0.0827 -0.2145
  158OSM   C11F17738   2.342   1.253   4.515  0.5244  0.3137  0.3786
  158OSM   H11F17739   2.276   1.190   4.578  0.4126 -2.1598 -2.0399
  158OSM   H11G17740   2.289   1.345   4.482  0.5946  0.0975 -0.3588
  158OSM   C12F17741   2.469   1.275   4.598 -0.4166 -0.1647  0.4258
  158OSM   H12F17742   2.546   1.335   4.544 -0.7149 -0.2166 -0.0681
  158OSM   H12G17743   2.510   1.174   4.617 -3.0278 -1.5245 -0.7058
  158OSM   C13F17744   2.427   1.356   4.718 -0.6871  0.1138 -0.1936
  158OSM   H13F17745   2.333   1.312   4.757 -0.0708  1.9214  3.8425
  158OSM   H13G17746   2.395   1.460   4.695 -0.6400 -0.4010 -2.9636
  158OSM   C14F17747   2.528   1.358   4.832  0.0772  0.4556 -0.5707
  158OSM   H14F17748   2.523   1.253   4.869 -1.3169  1.7520  3.5163
  158OSM   H14G17749   2.491   1.417   4.919  0.6766  0.8885 -0.6058
  158OSM   C15F17750   2.675   1.403   4.800 -0.5262  0.1631  0.4886
  158OSM   H15F17751   2.682   1.512   4.784 -0.9064  0.1761  0.4129
  158OSM   H15G17752   2.710   1.354   4.706 -1.4264  1.4241 -0.5333
  158OSM   C16F17753   2.778   1.366   4.912  0.0010 -0.0032 -0.1141
  158OSM   H16F17754   2.886   1.364   4.886 -0.3799 -3.1710 -2.0140
  158OSM   H16G17755   2.756   1.261   4.942 -2.4012  0.9789  1.8414
  158OSM   C17F17756   2.772   1.459   5.031 -0.1817 -0.4173 -0.2300
  158OSM   H17F17757   2.680   1.434   5.087 -0.5504  2.2812  0.5447
  158OSM   H17G17758   2.776   1.563   4.992  0.7866 -0.1606  0.5103
  158OSM   C18F17759   2.890   1.438   5.121  0.0633 -0.4924  0.5244
  158OSM   H18F17760   2.985   1.459   5.067  0.3641  1.2139  1.6349
  158OSM   H18G17761   2.893   1.329   5.142  1.8097 -0.7999 -1.0674
  158OSM   H18H17762   2.878   1.482   5.222 -0.6037 -2.3216  1.2856
  159OSM      N17763   5.927   3.118   2.730  0.0633 -0.0594 -0.1866
  159OSM    C1517764   6.074   3.134   2.693  0.2377  0.3133 -0.1911
  159OSM   H15A17765   6.067   3.198   2.607  0.3653  1.8409  0.8916
  159OSM   H15B17766   6.114   3.037   2.668 -0.6559 -0.1492  0.0920
  159OSM   H15C17767   6.135   3.180   2.769 -1.3132  2.2067 -0.0098
  159OSM    C1417768   5.877   3.256   2.767 -0.7435  0.4269 -0.2449
  159OSM   H14A17769   5.770   3.254   2.782 -0.6355  1.0164  0.7032
  159OSM   H14B17770   5.902   3.327   2.690  3.3572 -0.5660 -0.0957
  159OSM   H14C17771   5.926   3.290   2.857 -1.3958  1.3692 -0.2288
  159OSM    C1317772   5.841   3.063   2.621 -0.2662 -0.1756 -0.5503
  159OSM   H13A17773   5.736   3.062   2.644 -0.2858 -1.8664 -0.6205
  159OSM   H13B17774   5.865   2.960   2.599  0.3448 -0.2275  0.3399
  159OSM   H13C17775   5.838   3.123   2.531 -2.0718 -0.1276 -0.5001
  159OSM    C1217776   5.918   3.034   2.856 -0.0560 -0.4337  0.3089
  159OSM   H12A17777   5.987   3.080   2.925  0.7595 -0.7121 -0.3091
  159OSM   H12B17778   5.955   2.934   2.841  4.0859  0.9242  0.2704
  159OSM    C1117779   5.779   3.026   2.928  0.6361  0.0566 -0.4969
  159OSM   H11A17780   5.790   2.939   2.995 -1.2613  1.5024  1.8327
  159OSM   H11B17781   5.694   3.001   2.861  0.9015 -1.4186 -0.3154
  159OSM      P17782   5.819   3.202   3.118 -0.5571  0.1415 -0.2931
  159OSM    O1317783   5.950   3.131   3.134  0.1815  0.0710 -0.2036
  159OSM    O1417784   5.828   3.355   3.103 -0.4040 -0.0036  0.8492
  159OSM    O1117785   5.724   3.173   3.242  0.3769  0.1589 -0.1525
  159OSM    O1217786   5.737   3.136   3.006 -0.2004  0.0590 -0.4855
  159OSM    C1S17787   5.787   3.175   3.374 -0.1785  0.3354 -0.1620
  159OSM    H1S17788   5.813   3.277   3.407  1.7618  0.7317 -2.6360
  159OSM    H1T17789   5.878   3.111   3.368  1.1725  2.2502 -1.1719
  159OSM     NF17790   5.723   3.137   3.615  0.2916 -0.4066 -0.3423
  159OSM    HNF17791   5.778   3.068   3.663 -0.0442 -0.8051 -0.5271
  159OSM    C2S17792   5.684   3.107   3.480  0.2464 -0.1968  0.1318
  159OSM    H2S17793   5.586   3.156   3.462  0.2404  0.2981  1.3920
  159OSM    C3S17794   5.676   2.950   3.456  0.6156 -0.6445  0.2770
  159OSM    H3S17795   5.767   2.905   3.499  1.0921 -0.1399 -0.1885
  159OSM     O317796   5.674   2.906   3.321  0.4356  0.3988 -0.6204
  159OSM    HO317797   5.685   2.987   3.270  2.3578  0.2619 -0.5153
  159OSM    C4S17798   5.545   2.906   3.520 -0.0778 -0.3067 -0.5426
  159OSM    H4S17799   5.456   2.963   3.490 -0.7508 -1.3213 -0.5238
  159OSM    C5S17800   5.527   2.813   3.616 -0.4712  0.2070 -0.1388
  159OSM    H5S17801   5.600   2.762   3.681 -0.2261  1.7445  0.8410
  159OSM    C6S17802   5.392   2.793   3.670 -0.2122 -0.1164 -0.9492
  159OSM    H6S17803   5.349   2.709   3.610 -0.1946 -1.0156  0.2393
  159OSM    H6T17804   5.343   2.892   3.662 -0.0199  0.5860  3.8883
  159OSM    C7S17805   5.391   2.753   3.818  0.0184 -0.2451 -0.4324
  159OSM    H7S17806   5.462   2.817   3.875 -1.0709  0.6857 -0.0819
  159OSM    H7T17807   5.423   2.647   3.816 -1.1851 -0.6189 -1.8921
  159OSM    C8S17808   5.257   2.765   3.889 -0.1026 -0.2619  0.7956
  159OSM    H8S17809   5.183   2.697   3.841 -0.0001  0.9138 -1.1556
  159OSM    H8T17810   5.223   2.867   3.863  2.5820  1.1667  2.4321
  159OSM    C9S17811   5.243   2.739   4.045 -0.2819 -0.7172  0.1277
  159OSM    H9S17812   5.238   2.631   4.070  2.1957 -1.2911 -1.4429
  159OSM    H9T17813   5.149   2.776   4.091  0.5090  0.5735  0.7869
  159OSM   C10S17814   5.341   2.836   4.121  0.2183  0.2862  0.3632
  159OSM   H10S17815   5.315   2.944   4.111 -1.3605  0.0244  1.3458
  159OSM   H10T17816   5.447   2.816   4.095  0.3407 -1.1695  1.8443
  159OSM   C11S17817   5.310   2.818   4.266  0.8780 -0.0122  0.8310
  159OSM   H11S17818   5.324   2.710   4.286  1.3076 -0.3663 -1.2259
  159OSM   H11T17819   5.216   2.860   4.306  1.9973  1.6973  1.8284
  159OSM   C12S17820   5.411   2.904   4.348 -0.1329 -0.0425 -0.2360
  159OSM   H12S17821   5.413   3.011   4.319  0.9505  0.0609  0.1451
  159OSM   H12T17822   5.514   2.871   4.322 -0.5890 -0.8253 -1.0949
  159OSM   C13S17823   5.386   2.901   4.502 -0.6932 -0.0321 -0.2887
  159OSM   H13S17824   5.390   2.797   4.542  0.3268  0.0770 -0.0537
  159OSM   H13T17825   5.289   2.949   4.525 -1.9940 -1.9223 -1.6134
  159OSM   C14S17826   5.480   2.996   4.577 -0.6834  0.3799  0.0200
  159OSM   H14S17827   5.475   3.101   4.540  0.5282  0.5418  0.2805
  159OSM   H14T17828   5.580   2.952   4.559 -1.5422 -1.1852 -1.1493
  159OSM   C15S17829   5.444   2.993   4.729  0.3949  0.4407 -0.5678
  159OSM   H15S17830   5.401   2.893   4.752 -2.7590  2.1424  1.6011
  159OSM   H15T17831   5.359   3.062   4.742 -1.6949 -1.7798 -1.6270
  159OSM   C16S17832   5.568   3.023   4.819  0.4278 -0.2514 -0.4901
  159OSM   H16S17833   5.610   3.120   4.783 -0.2631 -0.5856 -2.3400
  159OSM   H16T17834   5.630   2.931   4.807  0.0538 -0.6734  0.7541
  159OSM   C17S17835   5.522   3.037   4.964 -0.0428 -0.2050 -0.2702
  159OSM   H17S17836   5.476   2.945   5.006 -0.3871  0.5200  0.9802
  159OSM   H17T17837   5.450   3.119   4.982 -1.3395 -1.6013  1.1981
  159OSM   C18S17838   5.652   3.059   5.042  0.1182  0.1034 -0.5906
  159OSM   H18S17839   5.628   3.054   5.150  0.5850 -0.7129 -0.5200
  159OSM   H18T17840   5.696   3.159   5.022 -0.6612  1.0605  2.0774
  159OSM   H18U17841   5.729   2.984   5.016 -0.3298 -0.3679 -0.5895
  159OSM    C1F17842   5.722   3.265   3.656  0.6106  0.7541  0.4290
  159OSM     OF17843   5.657   3.348   3.590 -0.2739 -0.2122 -0.3122
  159OSM    C2F17844   5.791   3.296   3.777  0.2216  0.4864  0.0183
  159OSM    H2F17845   5.809   3.206   3.840  0.5636 -0.2475 -1.1014
  159OSM    H2G17846   5.715   3.352   3.836  0.1029 -0.0146  0.3454
  159OSM    C3F17847   5.911   3.386   3.760  0.0125  0.1693 -0.3436
  159OSM    H3F17848   5.893   3.479   3.702  0.5929  1.0217  0.7858
  159OSM    H3G17849   5.985   3.319   3.711 -0.8203 -1.6043  0.7312
  159OSM    C4F17850   5.971   3.428   3.891  0.1172 -0.7952  0.6301
  159OSM    H4F17851   5.917   3.380   3.975 -2.6894  0.5582 -0.2840
  159OSM    H4G17852   5.950   3.536   3.905 -2.4677 -1.3122  1.2495
  159OSM    C5F17853   6.118   3.404   3.909  0.0096  0.2177  1.1318
  159OSM    H5F17854   6.174   3.477   3.848 -0.7878 -0.2259 -0.1804
  159OSM    H5G17855   6.147   3.304   3.872 -0.3299  0.9276 -1.2389
  159OSM    C6F17856   6.157   3.439   4.057 -0.0111 -0.1104  0.7674
  159OSM    H6F17857   6.126   3.365   4.134  0.4619 -0.9287  0.1893
  159OSM    H6G17858   6.106   3.537   4.069 -0.8190 -0.2155 -1.3459
  159OSM    C7F17859   6.312   3.461   4.076 -0.0288  0.2041  0.3660
  159OSM    H7F17860   6.341   3.551   4.017 -1.0743 -0.7787 -1.7596
  159OSM    H7G17861   6.365   3.375   4.029 -1.2812  0.6892 -2.0818
  159OSM    C8F17862   6.368   3.496   4.215 -0.1664 -0.1796 -0.0546
  159OSM    H8F17863   6.291   3.560   4.262 -0.6583  0.3504 -1.5412
  159OSM    H8G17864   6.458   3.560   4.216  0.5172 -1.1109  1.2006
  159OSM    C9F17865   6.401   3.367   4.295  0.4227 -0.0600  0.4707
  159OSM    H9F17866   6.499   3.325   4.267  0.0337 -0.6537 -0.0235
  159OSM   C10F17867   6.346   3.320   4.407 -0.2530  0.2075 -0.2273
  159OSM   H10F17868   6.361   3.216   4.439 -0.3619  0.7787  1.8062
  159OSM   C11F17869   6.220   3.383   4.467 -0.3570 -0.1610  0.7278
  159OSM   H11F17870   6.142   3.312   4.434  0.2425 -1.0320  1.1572
  159OSM   H11G17871   6.208   3.482   4.418  2.3438 -0.8339 -1.5949
  159OSM   C12F17872   6.218   3.389   4.625 -0.5689 -0.2419  0.5859
  159OSM   H12F17873   6.232   3.286   4.664 -0.4258 -0.2909  0.4021
  159OSM   H12G17874   6.118   3.426   4.656 -0.3390  1.4951 -0.6061
  159OSM   C13F17875   6.332   3.480   4.678 -0.3268  0.5094  0.5913
  159OSM   H13F17876   6.314   3.586   4.649 -2.1877  1.1155  3.5380
  159OSM   H13G17877   6.429   3.443   4.641 -1.3957 -0.7685 -1.0499
  159OSM   C14F17878   6.351   3.488   4.835 -0.2259 -0.3194 -0.3284
  159OSM   H14F17879   6.265   3.538   4.884  1.4228  1.5460  0.8117
  159OSM   H14G17880   6.429   3.564   4.855 -1.0623 -0.2372  3.1887
  159OSM   C15F17881   6.391   3.353   4.902  0.2000 -0.0869 -0.0299
  159OSM   H15F17882   6.483   3.320   4.849  0.3544  0.1402  0.0919
  159OSM   H15G17883   6.324   3.269   4.875 -0.2740  0.3680 -0.2961
  159OSM   C16F17884   6.413   3.381   5.050  0.0975 -0.4318 -0.7575
  159OSM   H16F17885   6.447   3.486   5.054 -1.2356  0.0083 -0.5193
  159OSM   H16G17886   6.493   3.318   5.093 -0.6937 -1.5824 -0.9065
  159OSM   C17F17887   6.287   3.361   5.125  0.1632  0.1725 -0.9458
  159OSM   H17F17888   6.247   3.257   5.113  0.1256 -0.2398  1.9635
  159OSM   H17G17889   6.212   3.435   5.091 -0.4315 -0.8055 -1.8281
  159OSM   C18F17890   6.317   3.377   5.272 -0.1035  0.4020 -0.0969
  159OSM   H18F17891   6.225   3.408   5.326 -0.5241  2.5270 -1.8772
  159OSM   H18G17892   6.394   3.456   5.286  1.2914 -0.7108 -1.1613
  159OSM   H18H17893   6.343   3.277   5.313 -0.2649  0.6334  0.5733
  160OSM      N17894   2.258   3.584   3.119  0.6991  0.1987  0.0004
  160OSM    C1517895   2.350   3.576   3.000 -0.0944  0.6063  0.5164
  160OSM   H15A17896   2.394   3.478   2.995  1.5315  1.2295  1.6172
  160OSM   H15B17897   2.436   3.637   3.024  0.5104  0.0610 -0.2306
  160OSM   H15C17898   2.316   3.620   2.908  1.7640  0.6868 -0.1776
  160OSM    C1417899   2.178   3.709   3.118 -0.0850 -0.3100  0.5955
  160OSM   H14A17900   2.249   3.789   3.131  0.7564 -0.8451 -0.5010
  160OSM   H14B17901   2.104   3.713   3.196 -0.2186  0.4629  0.4373
  160OSM   H14C17902   2.128   3.704   3.022  0.8084  0.3507  0.0790
  160OSM    C1317903   2.153   3.475   3.111  0.6370  0.2767 -0.2631
  160OSM   H13A17904   2.197   3.377   3.120  0.3710 -0.0729 -2.4475
  160OSM   H13B17905   2.104   3.468   3.016  4.3175 -1.6182 -2.2346
  160OSM   H13C17906   2.090   3.473   3.199  1.2680  2.7447  0.3431
  160OSM    C1217907   2.337   3.568   3.247 -0.4047 -0.0927 -0.2870
  160OSM   H12A17908   2.263   3.573   3.326 -1.6800 -0.7763 -1.3854
  160OSM   H12B17909   2.399   3.654   3.265  1.6529 -1.5635 -0.0276
  160OSM    C1117910   2.438   3.454   3.271  0.6210 -0.8318 -0.1708
  160OSM   H11A17911   2.387   3.364   3.230 -0.6094  0.1774 -0.9227
  160OSM   H11B17912   2.452   3.447   3.381  2.4372 -1.5262 -0.4181
  160OSM      P17913   2.649   3.368   3.142 -0.8201  0.0726  0.0531
  160OSM    O1317914   2.576   3.281   3.050 -0.3681 -0.0465 -0.0148
  160OSM    O1417915   2.776   3.432   3.088  0.5301 -0.3094  0.2193
  160OSM    O1117916   2.679   3.276   3.270 -0.3875 -0.7699  0.2585
  160OSM    O1217917   2.560   3.481   3.199  0.5971 -0.4419  0.0919
  160OSM    C1S17918   2.716   3.328   3.389  0.5335 -0.0801 -0.4528
  160OSM    H1S17919   2.612   3.342   3.425 -0.1539  1.3402 -2.7877
  160OSM    H1T17920   2.767   3.426   3.382  1.8961 -0.7020  0.3277
  160OSM     NF17921   2.836   3.256   3.602 -0.1613 -0.3503 -0.5580
  160OSM    HNF17922   2.926   3.291   3.626 -1.0391 -0.5293  3.8863
  160OSM    C2S17923   2.797   3.217   3.465  0.3804 -0.7768  0.2620
  160OSM    H2S17924   2.736   3.125   3.478 -1.0924  0.3565  1.8107
  160OSM    C3S17925   2.925   3.177   3.380  0.1563 -0.4863 -0.3296
  160OSM    H3S17926   2.978   3.271   3.354  0.1971 -0.0743  1.1510
  160OSM     O317927   2.893   3.110   3.256  0.3974 -0.6121 -0.1182
  160OSM    HO317928   2.797   3.120   3.252  0.6141  1.7353 -0.6425
  160OSM    C4S17929   3.010   3.083   3.453  0.7960  0.3954 -0.1769
  160OSM    H4S17930   2.968   2.981   3.461  2.3866 -0.3609 -0.9756
  160OSM    C5S17931   3.113   3.104   3.533 -0.9649  0.0875 -0.2822
  160OSM    H5S17932   3.150   3.208   3.531 -0.6107 -0.0439 -1.4674
  160OSM    C6S17933   3.188   2.995   3.605 -0.8842 -0.1225  0.3103
  160OSM    H6S17934   3.297   2.999   3.582 -0.9955  0.7836 -0.0856
  160OSM    H6T17935   3.150   2.892   3.587  0.3990 -1.0111  2.2708
  160OSM    C7S17936   3.189   3.018   3.759  0.1096 -0.0600  0.5170
  160OSM    H7S17937   3.224   3.123   3.775  1.2935 -0.4972  0.8850
  160OSM    H7T17938   3.270   2.958   3.805  0.0602 -0.0903  0.5644
  160OSM    C8S17939   3.057   2.985   3.830 -0.1568 -0.1386  0.4723
  160OSM    H8S17940   3.048   2.875   3.840  1.0940 -0.3907 -0.7262
  160OSM    H8T17941   2.976   3.028   3.767  1.8777  0.5058 -1.8998
  160OSM    C9S17942   3.040   3.042   3.974 -0.2164 -0.5085 -0.1368
  160OSM    H9S17943   2.934   3.011   3.990  0.1328 -1.6707  0.0454
  160OSM    H9T17944   3.057   3.150   3.955  0.7627 -0.9289 -1.9358
  160OSM   C10S17945   3.141   2.984   4.074  0.6958  0.0712 -0.1027
  160OSM   H10S17946   3.237   3.028   4.040  1.3577 -0.9836  0.3963
  160OSM   H10T17947   3.132   2.875   4.055 -0.1361  0.4867 -2.4919
  160OSM   C11S17948   3.127   3.016   4.227 -0.6869  0.0057  0.2137
  160OSM   H11S17949   3.163   3.121   4.231 -2.5488  0.6777  0.5908
  160OSM   H11T17950   3.202   2.959   4.286 -0.7970 -0.8674 -0.4590
  160OSM   C12S17951   2.986   3.002   4.295  0.4258  0.2867 -0.7340
  160OSM   H12S17952   2.965   2.893   4.297 -0.0836  0.3935 -0.1337
  160OSM   H12T17953   2.906   3.048   4.233  0.9826  0.6795 -1.1790
  160OSM   C13S17954   2.993   3.047   4.442  0.3369  0.1490  0.2351
  160OSM   H13S17955   2.886   3.058   4.470  0.7513 -1.6782  2.9803
  160OSM   H13T17956   3.046   3.145   4.446  0.9666 -0.2077  0.9277
  160OSM   C14S17957   3.071   2.953   4.532  0.7347 -0.8454  0.3742
  160OSM   H14S17958   3.175   2.932   4.499  0.5243 -1.1805 -0.0899
  160OSM   H14T17959   3.013   2.862   4.559 -0.7024 -0.5759 -1.5681
  160OSM   C15S17960   3.091   3.014   4.672 -0.1624  0.0477 -0.5362
  160OSM   H15S17961   3.144   3.111   4.666 -0.2438  0.0284 -1.9486
  160OSM   H15T17962   3.158   2.956   4.739  2.2251  2.5303 -0.6086
  160OSM   C16S17963   2.958   3.047   4.745  0.0287  0.2859  0.1905
  160OSM   H16S17964   2.898   2.954   4.745 -0.6281  0.6926 -0.7419
  160OSM   H16T17965   2.904   3.131   4.695  1.3023  0.6769 -0.5730
  160OSM   C17S17966   2.978   3.102   4.884  0.2691  0.0139  0.0114
  160OSM   H17S17967   2.889   3.164   4.909 -0.4868  0.0712 -2.5453
  160OSM   H17T17968   3.065   3.172   4.878 -0.3592  0.7842 -0.3077
  160OSM   C18S17969   2.978   2.987   4.986 -0.1936  0.3107 -0.2778
  160OSM   H18S17970   3.014   2.892   4.941 -1.4380  0.1468 -0.9844
  160OSM   H18T17971   2.873   2.964   5.013  0.1256  1.4577  2.2081
  160OSM   H18U17972   3.040   2.997   5.077  0.7829 -0.9800 -0.7652
  160OSM    C1F17973   2.742   3.269   3.696  0.0883  0.6260  0.8596
  160OSM     OF17974   2.621   3.270   3.673 -0.3587 -0.0683  0.0954
  160OSM    C2F17975   2.792   3.290   3.837  0.2453 -0.5742 -0.4330
  160OSM    H2F17976   2.811   3.399   3.849 -3.8722  0.4585 -1.5303
  160OSM    H2G17977   2.894   3.247   3.847  0.4239  0.3246  2.6094
  160OSM    C3F17978   2.691   3.230   3.941 -0.1063 -0.5137  0.0942
  160OSM    H3F17979   2.678   3.119   3.935 -0.5803 -0.5460  1.4831
  160OSM    H3G17980   2.588   3.264   3.918 -0.1017 -1.1072 -0.8953
  160OSM    C4F17981   2.734   3.277   4.080  0.6184  0.5077 -0.0461
  160OSM    H4F17982   2.745   3.385   4.104  3.8194  0.7304 -1.9185
  160OSM    H4G17983   2.840   3.243   4.083  0.6795  0.7172  0.3637
  160OSM    C5F17984   2.651   3.213   4.191  0.0885 -0.3344 -0.2609
  160OSM    H5F17985   2.639   3.104   4.171 -4.5785 -0.1034  0.2134
  160OSM    H5G17986   2.548   3.252   4.177 -0.3084 -1.1347  0.3328
  160OSM    C6F17987   2.688   3.254   4.332  0.1072 -0.5804 -0.6020
  160OSM    H6F17988   2.655   3.359   4.349  0.2468 -0.4550 -1.0918
  160OSM    H6G17989   2.799   3.259   4.333  0.0767  0.2219 -0.4911
  160OSM    C7F17990   2.636   3.164   4.444  0.7600 -0.3482 -0.4130
  160OSM    H7F17991   2.676   3.060   4.449 -1.8964 -1.4257  0.1711
  160OSM    H7G17992   2.527   3.144   4.430  0.8831 -1.3592  0.0255
  160OSM    C8F17993   2.649   3.233   4.583 -0.4676 -0.2784  0.4159
  160OSM    H8F17994   2.572   3.313   4.577  0.3938  0.5110 -0.3796
  160OSM    H8G17995   2.744   3.290   4.591 -0.7902  0.4317 -0.6012
  160OSM    C9F17996   2.625   3.144   4.706  0.5661  0.0108  0.3903
  160OSM    H9F17997   2.650   3.037   4.700 -1.0313 -0.4870  1.8476
  160OSM   C10F17998   2.541   3.176   4.807  0.1649 -0.4246  0.2610
  160OSM   H10F17999   2.525   3.102   4.886  1.3170 -0.7560  0.2073
  160OSM   C11F18000   2.496   3.320   4.842 -0.2768 -0.5011  0.1933
  160OSM   H11F18001   2.394   3.339   4.801 -0.1869  3.3657  1.3650
  160OSM   H11G18002   2.562   3.391   4.787  0.7346 -0.1947  1.7456
  160OSM   C12F18003   2.511   3.357   4.995 -0.5275  0.4612 -0.4226
  160OSM   H12F18004   2.616   3.352   5.031 -1.3834 -1.3977  2.0855
  160OSM   H12G18005   2.451   3.281   5.050  1.1636 -1.2475 -0.8127
  160OSM   C13F18006   2.464   3.497   5.028  0.3595  0.4824 -0.3155
  160OSM   H13F18007   2.438   3.550   4.934  0.6135  2.2833  0.5675
  160OSM   H13G18008   2.545   3.565   5.063 -0.9489  1.4195  1.0386
  160OSM   C14F18009   2.340   3.510   5.128 -0.0856  0.5437 -0.2307
  160OSM   H14F18010   2.375   3.475   5.228  1.7409 -0.5913 -1.1933
  160OSM   H14G18011   2.265   3.435   5.094  1.3748 -1.3788  0.5550
  160OSM   C15F18012   2.280   3.649   5.114 -0.6730  0.1295  0.6632
  160OSM   H15F18013   2.187   3.643   5.174 -1.1779  1.4736  0.0465
  160OSM   H15G18014   2.256   3.671   5.007 -0.7557  1.0888  0.8698
  160OSM   C16F18015   2.375   3.766   5.161  0.0867 -0.4472 -0.0418
  160OSM   H16F18016   2.454   3.784   5.085  1.7375 -3.5872  0.7517
  160OSM   H16G18017   2.439   3.749   5.250  2.3263  1.1673 -1.2288
  160OSM   C17F18018   2.299   3.896   5.193 -0.9597  0.2281  0.0652
  160OSM   H17F18019   2.208   3.900   5.129 -1.5779  1.1369  0.9793
  160OSM   H17G18020   2.369   3.981   5.180 -1.4080  0.3029 -2.4576
  160OSM   C18F18021   2.261   3.900   5.338 -0.0629  0.2610 -0.3916
  160OSM   H18F18022   2.348   3.901   5.407 -1.3187 -0.1721  1.2730
  160OSM   H18G18023   2.220   3.802   5.373  3.0505 -1.4866 -1.3162
  160OSM   H18H18024   2.195   3.984   5.368  2.8568  2.1930  1.0263
  161OSM      N18025   6.215   1.106   2.982  0.2054  0.0646  0.1182
  161OSM    C1518026   6.296   1.201   2.895  0.8122  0.2971 -0.4034
  161OSM   H15A18027   6.262   1.193   2.793 -1.2683 -0.0522  0.2734
  161OSM   H15B18028   6.402   1.182   2.898  1.3317  2.8855  0.1094
  161OSM   H15C18029   6.291   1.302   2.935  0.6978  0.0863  0.1154
  161OSM    C1418030   6.074   1.116   2.946  0.2103  0.8339 -0.1344
  161OSM   H14A18031   6.016   1.040   2.996 -0.4934 -0.1818 -2.3893
  161OSM   H14B18032   6.057   1.107   2.840 -0.3975  0.6340 -0.0245
  161OSM   H14C18033   6.031   1.206   2.987  0.7839  1.3631 -0.6620
  161OSM    C1318034   6.259   0.972   2.950  0.4548 -0.3051 -0.1255
  161OSM   H13A18035   6.275   0.958   2.844  3.3185  1.8299 -0.0968
  161OSM   H13B18036   6.193   0.899   2.994  1.5737 -0.9085  0.6173
  161OSM   H13C18037   6.358   0.959   2.992  0.9869  1.3229 -0.7979
  161OSM    C1218038   6.235   1.142   3.129  0.0171  0.0005 -0.0737
  161OSM   H12A18039   6.156   1.091   3.182 -1.4270 -0.6710 -2.6807
  161OSM   H12B18040   6.211   1.247   3.137  1.5432  0.5355 -1.8591
  161OSM    C1118041   6.376   1.109   3.200  0.5365  0.5216 -0.4943
  161OSM   H11A18042   6.378   1.001   3.172 -0.7039  0.1548  0.7495
  161OSM   H11B18043   6.367   1.121   3.310 -0.4060  1.3324 -0.6506
  161OSM      P18044   6.487   1.340   3.196  0.0545 -0.0508 -0.1408
  161OSM    O1318045   6.625   1.387   3.175 -0.8099  0.1421  0.1340
  161OSM    O1418046   6.380   1.413   3.117 -0.2070 -0.1662 -0.0251
  161OSM    O1118047   6.453   1.349   3.348  0.3144 -0.2871 -0.1528
  161OSM    O1218048   6.487   1.188   3.159  0.4809 -0.5372  0.8566
  161OSM    C1S18049   6.552   1.329   3.449  0.4235 -0.2863  0.2548
  161OSM    H1S18050   6.644   1.386   3.427  1.2019 -1.8695 -0.7254
  161OSM    H1T18051   6.587   1.224   3.455  2.2068  0.3464  1.5697
  161OSM     NF18052   6.605   1.370   3.681 -0.2418  0.6248 -0.2366
  161OSM    HNF18053   6.612   1.293   3.744 -2.7883 -0.7597 -1.5180
  161OSM    C2S18054   6.496   1.368   3.584  0.0256  0.7045 -0.2206
  161OSM    H2S18055   6.456   1.471   3.577  0.4512  0.7993 -1.5254
  161OSM    C3S18056   6.382   1.265   3.620 -0.8017 -0.5856 -0.3212
  161OSM    H3S18057   6.428   1.164   3.620  0.9287  0.1629 -0.7535
  161OSM     O318058   6.284   1.268   3.519 -0.1153 -0.0742 -0.0849
  161OSM    HO318059   6.327   1.288   3.436  0.5576 -1.9350 -0.2165
  161OSM    C4S18060   6.330   1.290   3.754 -0.1080 -0.1418 -0.0119
  161OSM    H4S18061   6.370   1.210   3.818  1.1683 -1.6437 -2.4948
  161OSM    C5S18062   6.262   1.400   3.795 -0.3851 -0.1572 -0.3450
  161OSM    H5S18063   6.232   1.475   3.721  0.3721 -0.1599 -0.6649
  161OSM    C6S18064   6.206   1.412   3.934 -0.5091 -0.5546  0.1057
  161OSM    H6S18065   6.105   1.366   3.935 -0.2678 -1.0935  0.5795
  161OSM    H6T18066   6.195   1.520   3.955 -1.5649 -0.3724 -1.2248
  161OSM    C7S18067   6.314   1.356   4.028  0.3993 -0.0711 -0.0824
  161OSM    H7S18068   6.418   1.390   4.006 -0.3478  0.4906 -3.1835
  161OSM    H7T18069   6.316   1.247   4.006  1.0808  0.0427 -0.6278
  161OSM    C8S18070   6.304   1.378   4.179  0.3591 -0.0392 -0.6869
  161OSM    H8S18071   6.210   1.325   4.205  1.1285 -1.3543 -0.4544
  161OSM    H8T18072   6.294   1.485   4.205  0.2701 -0.3016  0.3981
  161OSM    C9S18073   6.413   1.323   4.265 -0.2420  0.7015  0.5734
  161OSM    H9S18074   6.511   1.375   4.256  0.7445 -1.3131 -1.3369
  161OSM    H9T18075   6.434   1.221   4.225 -2.2340  1.2206 -2.0709
  161OSM   C10S18076   6.377   1.327   4.418  0.0410  0.3354 -0.1766
  161OSM   H10S18077   6.280   1.278   4.440  0.7487 -0.0420  2.3965
  161OSM   H10T18078   6.372   1.431   4.458 -3.4953 -0.2941  1.4331
  161OSM   C11S18079   6.477   1.235   4.495  0.1607 -0.5433 -0.6681
  161OSM   H11S18080   6.576   1.281   4.479  0.9994 -1.9418  0.2927
  161OSM   H11T18081   6.474   1.135   4.447 -1.1348 -0.3089 -1.1277
  161OSM   C12S18082   6.454   1.223   4.642  0.4453 -0.0135  0.6436
  161OSM   H12S18083   6.540   1.170   4.687  0.4738  0.5583  1.2827
  161OSM   H12T18084   6.371   1.151   4.658 -0.2954  0.4021 -1.1273
  161OSM   C13S18085   6.417   1.357   4.711 -0.2004  0.2137  1.1476
  161OSM   H13S18086   6.308   1.366   4.687  0.2250 -1.2532 -1.8929
  161OSM   H13T18087   6.467   1.436   4.651 -1.4816  0.3960  0.2575
  161OSM   C14S18088   6.433   1.370   4.858  0.0112  0.2587 -0.5103
  161OSM   H14S18089   6.403   1.465   4.908  1.8418 -0.9142  3.1199
  161OSM   H14T18090   6.542   1.373   4.876 -0.4555  3.1156  3.1718
  161OSM   C15S18091   6.368   1.253   4.924  0.2990  0.3404 -0.8130
  161OSM   H15S18092   6.423   1.162   4.889  0.8321 -0.1997  1.2742
  161OSM   H15T18093   6.263   1.241   4.892  0.2894  0.9426 -1.0080
  161OSM   C16S18094   6.363   1.260   5.079 -0.2358  0.0059 -0.1656
  161OSM   H16S18095   6.465   1.297   5.104  0.3163 -0.5203 -1.5767
  161OSM   H16T18096   6.350   1.157   5.118  2.0595  0.0921  0.9993
  161OSM   C17S18097   6.248   1.353   5.121 -0.9292 -0.0078  0.1031
  161OSM   H17S18098   6.153   1.308   5.084 -0.9412 -1.1988  1.5028
  161OSM   H17T18099   6.265   1.451   5.072 -0.5546  0.2634  0.7699
  161OSM   C18S18100   6.242   1.368   5.271  0.0179  0.3654 -0.0277
  161OSM   H18S18101   6.150   1.424   5.298  0.4740  2.3723 -2.2170
  161OSM   H18T18102   6.333   1.420   5.309  1.4044 -0.8949 -1.4687
  161OSM   H18U18103   6.249   1.266   5.313 -0.2031  1.0518  1.7502
  161OSM    C1F18104   6.698   1.460   3.676  0.1841  0.0593  0.5281
  161OSM     OF18105   6.679   1.550   3.595 -0.3524  0.2590 -0.0315
  161OSM    C2F18106   6.821   1.445   3.768  0.4704  0.9488 -0.0324
  161OSM    H2F18107   6.912   1.419   3.710 -0.3875 -2.0854 -0.1979
  161OSM    H2G18108   6.802   1.360   3.837 -1.9078  0.8618 -0.6864
  161OSM    C3F18109   6.853   1.579   3.850 -0.1144  0.9368  0.6679
  161OSM    H3F18110   6.875   1.659   3.776  0.7989 -0.2953 -0.4460
  161OSM    H3G18111   6.945   1.557   3.908  0.0772  0.6814  0.2726
  161OSM    C4F18112   6.757   1.611   3.964 -0.1012 -0.4379  0.4186
  161OSM    H4F18113   6.721   1.511   3.995  2.3083 -1.8035 -0.8622
  161OSM    H4G18114   6.664   1.658   3.925 -0.5396 -2.0333 -0.5870
  161OSM    C5F18115   6.814   1.702   4.071  0.7461 -0.7803 -0.6796
  161OSM    H5F18116   6.827   1.805   4.031  0.1902  0.3044  1.7730
  161OSM    H5G18117   6.914   1.677   4.111  0.7623  0.6762  0.2486
  161OSM    C6F18118   6.713   1.717   4.184  0.3083 -0.4294 -0.2009
  161OSM    H6F18119   6.697   1.626   4.246 -0.4197 -0.2167 -0.0669
  161OSM    H6G18120   6.617   1.752   4.141  0.9431 -0.2518 -1.5203
  161OSM    C7F18121   6.746   1.828   4.283 -0.1733  0.2559 -0.1423
  161OSM    H7F18122   6.771   1.923   4.230  1.4905  0.5398  1.0763
  161OSM    H7G18123   6.837   1.803   4.342 -1.4506  0.2994  1.9458
  161OSM    C8F18124   6.638   1.852   4.386 -0.4776 -0.1824 -0.1543
  161OSM    H8F18125   6.598   1.753   4.415 -3.3101  0.7434 -0.6045
  161OSM    H8G18126   6.545   1.896   4.343 -0.9587 -0.7963  0.2460
  161OSM    C9F18127   6.686   1.944   4.500  0.3244 -0.0369 -1.3312
  161OSM    H9F18128   6.762   2.018   4.471  0.5204  0.9418  1.4390
  161OSM   C10F18129   6.659   1.932   4.632  0.1069  1.2137 -0.2242
  161OSM   H10F18130   6.692   2.014   4.698 -0.7244 -0.1527  1.9910
  161OSM   C11F18131   6.568   1.830   4.699 -0.4431 -0.7772  0.1637
  161OSM   H11F18132   6.525   1.754   4.630  0.5427 -0.9631 -0.2553
  161OSM   H11G18133   6.479   1.885   4.736  1.3903  2.5536 -0.0253
  161OSM   C12F18134   6.631   1.752   4.819  0.2424 -0.4632  0.0652
  161OSM   H12F18135   6.725   1.707   4.780  0.7434  1.9416 -1.8066
  161OSM   H12G18136   6.578   1.658   4.845 -0.5555 -0.5825 -1.8222
  161OSM   C13F18137   6.654   1.850   4.933 -0.3147  0.5507 -0.4752
  161OSM   H13F18138   6.556   1.900   4.949 -0.1136  1.1472 -1.0622
  161OSM   H13G18139   6.739   1.916   4.907 -1.7761  2.3273 -0.9482
  161OSM   C14F18140   6.685   1.781   5.064  0.1537 -0.6521  0.5080
  161OSM   H14F18141   6.795   1.769   5.074  0.2149 -1.8145 -1.0800
  161OSM   H14G18142   6.652   1.675   5.069 -1.3079 -0.1851  1.3785
  161OSM   C15F18143   6.621   1.855   5.186 -0.2102  0.1794  0.3462
  161OSM   H15F18144   6.531   1.912   5.156 -0.6480 -0.6185  0.1192
  161OSM   H15G18145   6.696   1.923   5.233  0.5402 -0.2596 -0.2120
  161OSM   C16F18146   6.564   1.755   5.292  0.0983  0.2683  0.2126
  161OSM   H16F18147   6.481   1.696   5.249 -0.1308  0.8347 -0.1321
  161OSM   H16G18148   6.510   1.818   5.366 -0.2247  0.7842 -0.4513
  161OSM   C17F18149   6.666   1.670   5.365  0.0479 -0.5579 -0.8118
  161OSM   H17F18150   6.754   1.722   5.409 -0.2656 -0.8129  0.1450
  161OSM   H17G18151   6.711   1.602   5.290 -0.0210  0.0012 -1.3607
  161OSM   C18F18152   6.615   1.595   5.487 -0.2024  0.1271  0.0711
  161OSM   H18F18153   6.704   1.563   5.546  0.9419  1.7490 -0.7097
  161OSM   H18G18154   6.542   1.514   5.467  0.2529 -0.6863  1.5081
  161OSM   H18H18155   6.562   1.667   5.554  1.6420  2.6769 -1.0378
  162OSM      N18156   0.526   0.860   3.188  0.6700  0.3985 -0.4297
  162OSM    C1518157   0.499   0.764   3.078 -0.5697 -0.0222  0.4105
  162OSM   H15A18158   0.410   0.706   3.095 -0.1626 -0.7590  0.0636
  162OSM   H15B18159   0.584   0.699   3.065  0.6206  1.6402 -0.5094
  162OSM   H15C18160   0.484   0.810   2.982  0.7316 -0.7092 -0.1535
  162OSM    C1418161   0.397   0.933   3.205 -0.4425  0.0611  0.5363
  162OSM   H14A18162   0.391   0.973   3.305 -0.7953 -0.2412  0.6361
  162OSM   H14B18163   0.313   0.869   3.188  0.2774 -0.8296  0.2355
  162OSM   H14C18164   0.384   1.003   3.123  1.4846 -0.1692 -0.0362
  162OSM    C1318165   0.545   0.762   3.298  0.4218 -0.0804  0.6423
  162OSM   H13A18166   0.525   0.799   3.398  1.4047  0.0238  0.8143
  162OSM   H13B18167   0.645   0.721   3.304  0.9730  0.8910 -1.2073
  162OSM   H13C18168   0.482   0.676   3.283  0.3483 -0.1691  1.4102
  162OSM    C1218169   0.644   0.949   3.166  0.4080  0.7698  0.6156
  162OSM   H12A18170   0.737   0.899   3.144 -0.4722 -0.7717  0.2800
  162OSM   H12B18171   0.662   1.008   3.255  0.5433  1.6908 -0.0041
  162OSM    C1118172   0.626   1.046   3.052  0.5432 -0.6351  0.2971
  162OSM   H11A18173   0.525   1.093   3.056  0.4167 -1.0128  1.8377
  162OSM   H11B18174   0.618   0.992   2.955 -2.4892 -0.2897  0.2611
  162OSM      P18175   0.714   1.294   3.025 -0.1105 -0.2796  0.1097
  162OSM    O1318176   0.843   1.366   3.069  0.1672 -0.2080 -0.0749
  162OSM    O1418177   0.683   1.313   2.882  0.1205 -0.5823  0.3667
  162OSM    O1118178   0.589   1.342   3.123  0.1240 -0.3106  0.2279
  162OSM    O1218179   0.732   1.137   3.044  0.5061 -1.0360  0.3595
  162OSM    C1S18180   0.552   1.271   3.240  0.4966  0.6427  0.4813
  162OSM    H1S18181   0.626   1.194   3.270  0.6624  0.8011  0.4735
  162OSM    H1T18182   0.450   1.228   3.227  0.5927  0.5531 -0.0124
  162OSM     NF18183   0.527   1.313   3.476 -0.2878 -0.1973  0.0926
  162OSM    HNF18184   0.442   1.274   3.512 -0.0297 -0.6112  0.2755
  162OSM    C2S18185   0.525   1.380   3.350 -0.0077 -0.2891 -0.2968
  162OSM    H2S18186   0.605   1.457   3.341  0.7426 -0.8425  1.2562
  162OSM    C3S18187   0.398   1.448   3.319  0.0528 -0.7561  0.2716
  162OSM    H3S18188   0.316   1.374   3.315  0.2485 -1.0294  1.1627
  162OSM     O318189   0.393   1.519   3.193  0.1033  0.3181 -0.2296
  162OSM    HO318190   0.446   1.469   3.131  1.8655 -2.1508  2.9873
  162OSM    C4S18191   0.369   1.555   3.429 -0.3369  0.3257  0.1280
  162OSM    H4S18192   0.347   1.493   3.518  0.2279 -1.5101 -0.9484
  162OSM    C5S18193   0.401   1.684   3.440  0.0690  0.3548  0.1990
  162OSM    H5S18194   0.445   1.731   3.352  0.4199 -0.0985  0.1304
  162OSM    C6S18195   0.380   1.761   3.568  0.3018  0.0268 -0.1650
  162OSM    H6S18196   0.275   1.799   3.569  0.1231 -0.4226 -0.8615
  162OSM    H6T18197   0.451   1.846   3.568 -1.1519  1.3080  0.8534
  162OSM    C7S18198   0.412   1.688   3.704 -0.2760 -0.4974  0.2415
  162OSM    H7S18199   0.511   1.637   3.698 -0.4983 -0.8559 -0.5957
  162OSM    H7T18200   0.335   1.612   3.731  0.9011 -1.0588  2.2603
  162OSM    C8S18201   0.419   1.781   3.827 -0.0722 -0.3043 -0.5418
  162OSM    H8S18202   0.312   1.801   3.848 -0.2297 -1.4416 -0.1700
  162OSM    H8T18203   0.464   1.877   3.795  0.1407  0.0741  0.8338
  162OSM    C9S18204   0.473   1.714   3.957 -0.6930 -0.1634  0.6250
  162OSM    H9S18205   0.567   1.659   3.934 -1.5643 -1.4934  0.1453
  162OSM    H9T18206   0.407   1.631   3.989 -1.1018  1.1568  3.5531
  162OSM   C10S18207   0.488   1.811   4.073  0.5383  0.5965  0.7267
  162OSM   H10S18208   0.398   1.876   4.081  1.2904  1.6831  0.6009
  162OSM   H10T18209   0.572   1.883   4.069 -0.9029  2.4739  1.9315
  162OSM   C11S18210   0.509   1.734   4.211  0.7674  0.1091 -0.3480
  162OSM   H11S18211   0.604   1.680   4.233  1.3073  1.3632  0.4850
  162OSM   H11T18212   0.423   1.663   4.210 -0.3251  1.3972 -0.5662
  162OSM   C12S18213   0.473   1.832   4.331  0.2296  0.4316  0.4032
  162OSM   H12S18214   0.391   1.899   4.295  0.7208 -0.2774 -2.2437
  162OSM   H12T18215   0.565   1.891   4.351 -0.9511  1.9929  1.6159
  162OSM   C13S18216   0.445   1.759   4.466 -0.1439  0.0680  0.0300
  162OSM   H13S18217   0.513   1.672   4.481 -1.5092 -0.6119  3.3303
  162OSM   H13T18218   0.346   1.711   4.453 -0.2244  0.3795 -0.5225
  162OSM   C14S18219   0.463   1.844   4.591  0.5311 -0.4845 -0.5727
  162OSM   H14S18220   0.398   1.934   4.582  0.1105 -0.7434 -0.2259
  162OSM   H14T18221   0.567   1.882   4.595  2.0605 -4.0857 -1.7495
  162OSM   C15S18222   0.435   1.768   4.719  0.0118  0.0662 -0.3038
  162OSM   H15S18223   0.520   1.696   4.726  1.0177  1.2581  0.1460
  162OSM   H15T18224   0.340   1.712   4.707 -2.3676  3.8240 -0.5354
  162OSM   C16S18225   0.435   1.869   4.834 -0.2494 -0.1659  0.1483
  162OSM   H16S18226   0.372   1.955   4.802 -0.1592 -0.3747 -0.6101
  162OSM   H16T18227   0.537   1.911   4.849  0.3017 -2.0480  2.1683
  162OSM   C17S18228   0.392   1.802   4.970  0.1130  0.7533 -0.0377
  162OSM   H17S18229   0.295   1.752   4.952 -0.0702  1.2770 -0.5550
  162OSM   H17T18230   0.378   1.888   5.039 -1.4337 -1.7830  3.0615
  162OSM   C18S18231   0.491   1.705   5.018  1.0379  0.0429 -0.5128
  162OSM   H18S18232   0.525   1.636   4.938  2.3299 -0.1218  0.1561
  162OSM   H18T18233   0.438   1.642   5.093  0.3477  0.6635 -0.4678
  162OSM   H18U18234   0.576   1.756   5.068  2.0828 -2.4614  0.4255
  162OSM    C1F18235   0.647   1.296   3.538 -0.1165  0.3844  0.1968
  162OSM     OF18236   0.739   1.367   3.510 -0.7170  0.6111 -0.3194
  162OSM    C2F18237   0.646   1.199   3.659  0.1719 -0.4540  0.6160
  162OSM    H2F18238   0.722   1.121   3.635 -0.2790 -0.9091  0.6613
  162OSM    H2G18239   0.541   1.163   3.657 -0.8747  1.9942  3.5467
  162OSM    C3F18240   0.678   1.244   3.807 -0.5424  0.6127  1.0506
  162OSM    H3F18241   0.756   1.323   3.793  1.9748 -1.1819  3.7174
  162OSM    H3G18242   0.724   1.163   3.868 -3.4982 -0.4950  1.9711
  162OSM    C4F18243   0.552   1.305   3.864  0.1183  0.8050 -0.0546
  162OSM    H4F18244   0.489   1.215   3.882  1.0075  0.2974  0.5503
  162OSM    H4G18245   0.504   1.380   3.797 -1.4899  0.4870  0.6888
  162OSM    C5F18246   0.560   1.367   4.003  0.2333 -0.0600 -0.3485
  162OSM    H5F18247   0.572   1.477   4.006  1.4253 -0.1802  2.3242
  162OSM    H5G18248   0.656   1.331   4.047 -0.6592 -1.6433  0.3655
  162OSM    C6F18249   0.453   1.314   4.094  0.3601 -0.0060 -0.5289
  162OSM    H6F18250   0.457   1.204   4.113  0.2626  0.1132  0.2348
  162OSM    H6G18251   0.357   1.346   4.049  0.2003  0.0761 -0.1301
  162OSM    C7F18252   0.465   1.373   4.242  0.4938  0.2168 -0.1509
  162OSM    H7F18253   0.373   1.354   4.301 -0.7882  3.4159 -0.9175
  162OSM    H7G18254   0.474   1.483   4.240 -0.1589  0.5512  4.7881
  162OSM    C8F18255   0.583   1.305   4.324  0.2332  0.1896  0.9372
  162OSM    H8F18256   0.669   1.295   4.254  0.8753  1.2814  1.5446
  162OSM    H8G18257   0.556   1.198   4.336 -0.9292  0.5691  1.9126
  162OSM    C9F18258   0.601   1.386   4.450 -0.8336 -0.4554  0.1905
  162OSM    H9F18259   0.563   1.488   4.433  0.8334  0.3153  0.8909
  162OSM   C10F18260   0.656   1.345   4.570  0.2415  0.1403  0.5738
  162OSM   H10F18261   0.690   1.407   4.654 -2.3615  0.6740  1.3229
  162OSM   C11F18262   0.706   1.207   4.592 -1.2698  0.5181  0.7735
  162OSM   H11F18263   0.814   1.197   4.567 -1.5544  3.1397 -2.0789
  162OSM   H11G18264   0.665   1.139   4.514  0.6898 -1.8717  1.6961
  162OSM   C12F18265   0.672   1.146   4.731  0.5726  0.2709  0.1775
  162OSM   H12F18266   0.699   1.039   4.723 -2.9084 -0.9300  2.2343
  162OSM   H12G18267   0.562   1.150   4.747  0.6138 -2.4372  1.7235
  162OSM   C13F18268   0.765   1.195   4.838 -0.0636 -0.0426 -0.1421
  162OSM   H13F18269   0.752   1.305   4.853 -1.8576 -0.0759 -1.2688
  162OSM   H13G18270   0.863   1.168   4.793  0.4195 -0.7173  1.2492
  162OSM   C14F18271   0.759   1.122   4.970 -0.1097  0.5530  0.2366
  162OSM   H14F18272   0.861   1.113   5.013  1.3685 -0.0431 -3.0692
  162OSM   H14G18273   0.711   1.023   4.954 -0.1983  0.8910 -1.9650
  162OSM   C15F18274   0.660   1.191   5.063 -0.0041  0.3581 -0.1105
  162OSM   H15F18275   0.552   1.183   5.041  0.1265 -2.1608 -0.0716
  162OSM   H15G18276   0.683   1.300   5.054  0.4808  0.3101  0.4706
  162OSM   C16F18277   0.674   1.150   5.208  0.2359  0.4665 -0.5692
  162OSM   H16F18278   0.663   1.040   5.215  1.3614  0.1492 -2.9900
  162OSM   H16G18279   0.596   1.206   5.264 -1.1599 -1.3705 -0.5779
  162OSM   C17F18280   0.806   1.182   5.283 -0.3319  0.0668  0.5931
  162OSM   H17F18281   0.839   1.284   5.253 -0.7423 -0.0155 -0.1840
  162OSM   H17G18282   0.877   1.106   5.243  0.2683  1.0030 -0.1612
  162OSM   C18F18283   0.791   1.151   5.435  0.0154 -0.1798 -0.1375
  162OSM   H18F18284   0.881   1.181   5.492 -2.0046  1.1352  2.6020
  162OSM   H18G18285   0.791   1.040   5.444  1.5165 -0.1889 -0.0565
  162OSM   H18H18286   0.701   1.198   5.481  0.1727  0.1709 -0.1881
  163OSM      N18287   5.172   1.875   3.056  0.1528  0.4203 -0.1704
  163OSM    C1518288   5.209   1.873   2.909  0.2239 -0.7261  0.4256
  163OSM   H15A18289   5.301   1.821   2.887 -0.5329 -1.6640 -0.6396
  163OSM   H15B18290   5.212   1.972   2.866  2.0451 -0.3720  1.2386
  163OSM   H15C18291   5.138   1.815   2.852  0.2260  0.3382 -0.6747
  163OSM    C1418292   5.287   1.927   3.128  0.7397  0.6940  0.5442
  163OSM   H14A18293   5.270   1.938   3.234 -0.4629  0.1905  0.4274
  163OSM   H14B18294   5.305   2.026   3.091 -1.5641  1.6563  1.7418
  163OSM   H14C18295   5.370   1.860   3.111 -0.0196  0.0384 -0.6804
  163OSM    C1318296   5.053   1.955   3.085 -0.0498 -0.6611  0.1901
  163OSM   H13A18297   4.969   1.934   3.020 -2.1827  2.4806  1.6633
  163OSM   H13B18298   5.071   2.061   3.071 -3.8954  0.4988  2.2706
  163OSM   H13C18299   5.008   1.945   3.183 -0.4423  1.3661  0.2570
  163OSM    C1218300   5.146   1.728   3.099 -0.2364  0.0482  0.8449
  163OSM   H12A18301   5.049   1.691   3.068 -1.2399  1.7801  1.7468
  163OSM   H12B18302   5.142   1.748   3.205  0.1277  3.3193  0.3209
  163OSM    C1118303   5.238   1.610   3.056 -0.5066  0.0264  0.1672
  163OSM   H11A18304   5.218   1.578   2.951 -1.8967 -0.6416  0.6153
  163OSM   H11B18305   5.201   1.523   3.114  0.1020  0.3852  1.1157
  163OSM      P18306   5.439   1.596   3.224  0.4160  0.0433 -0.4829
  163OSM    O1318307   5.379   1.465   3.270  0.4863 -0.1909  0.4668
  163OSM    O1418308   5.584   1.591   3.214 -0.0678 -0.2003 -0.3167
  163OSM    O1118309   5.415   1.712   3.323  0.0916  0.0318  0.3587
  163OSM    O1218310   5.376   1.649   3.090  0.2231 -0.3838  0.3329
  163OSM    C1S18311   5.317   1.723   3.420  0.2448  0.4317 -0.0331
  163OSM    H1S18312   5.250   1.635   3.427 -0.6412  1.1006  0.0311
  163OSM    H1T18313   5.266   1.820   3.404  1.1930  0.6887 -1.6926
  163OSM     NF18314   5.296   1.733   3.660 -0.2400 -0.4043 -0.1276
  163OSM    HNF18315   5.242   1.809   3.697 -1.2392 -1.5794  0.9300
  163OSM    C2S18316   5.393   1.747   3.555 -0.1314  0.3928  0.1630
  163OSM    H2S18317   5.480   1.680   3.572  1.7090  3.0435  2.0305
  163OSM    C3S18318   5.463   1.890   3.542  0.1001  0.1062 -0.3079
  163OSM    H3S18319   5.377   1.959   3.525 -0.2065  0.2402  1.5459
  163OSM     O318320   5.548   1.910   3.433  0.1253 -0.4542 -0.2043
  163OSM    HO318321   5.523   1.836   3.377 -0.6483 -1.7393  1.7066
  163OSM    C4S18322   5.533   1.921   3.672 -0.0913  0.4260  0.4268
  163OSM    H4S18323   5.619   1.854   3.680  0.1121  0.2095 -2.4156
  163OSM    C5S18324   5.495   2.013   3.757  0.3352  0.5449 -0.0126
  163OSM    H5S18325   5.409   2.073   3.727  0.2074 -0.1817 -1.1532
  163OSM    C6S18326   5.551   2.029   3.895  0.1666  0.1563  0.0318
  163OSM    H6S18327   5.587   2.133   3.905  1.3264 -0.2374  0.1039
  163OSM    H6T18328   5.649   1.981   3.914  0.5748  1.3939  1.1699
  163OSM    C7S18329   5.442   2.009   3.994 -0.3956 -0.5977 -0.0171
  163OSM    H7S18330   5.408   1.904   3.988 -0.6305 -0.4926 -0.5818
  163OSM    H7T18331   5.352   2.070   3.968 -0.0579 -0.2588 -0.4045
  163OSM    C8S18332   5.493   2.037   4.135 -0.4451  0.1565 -0.3728
  163OSM    H8S18333   5.544   2.135   4.137  1.0580 -0.5934  1.1099
  163OSM    H8T18334   5.571   1.958   4.149 -1.3539 -0.5870  0.6771
  163OSM    C9S18335   5.392   2.030   4.247  0.4038  0.2408  0.5162
  163OSM    H9S18336   5.329   1.938   4.258  2.0564 -0.9216  0.6224
  163OSM    H9T18337   5.318   2.109   4.222 -0.7274 -0.9846 -0.2086
  163OSM   C10S18338   5.446   2.072   4.384 -0.3278 -0.3819 -0.6085
  163OSM   H10S18339   5.494   2.169   4.361  0.6248  0.0610  2.6606
  163OSM   H10T18340   5.522   1.995   4.411  0.1922  0.0633 -0.7921
  163OSM   C11S18341   5.352   2.085   4.502  0.0085 -0.2797 -0.7932
  163OSM   H11S18342   5.297   1.989   4.513  1.0381 -0.7719  0.1988
  163OSM   H11T18343   5.273   2.160   4.477 -1.0127 -1.6695 -1.8825
  163OSM   C12S18344   5.417   2.116   4.635 -0.3498 -1.0945 -0.2620
  163OSM   H12S18345   5.458   2.218   4.651 -0.5344 -1.1848  0.8585
  163OSM   H12T18346   5.511   2.057   4.644 -0.2000 -0.7749  0.3701
  163OSM   C13S18347   5.330   2.081   4.758  0.0398  0.3486  0.3479
  163OSM   H13S18348   5.321   1.970   4.756  2.0991  0.1368  0.5772
  163OSM   H13T18349   5.232   2.132   4.749  0.7612  1.4653 -2.4359
  163OSM   C14S18350   5.399   2.112   4.896  0.4366  0.2546 -0.4347
  163OSM   H14S18351   5.412   2.222   4.905  2.2491  0.0530 -0.3514
  163OSM   H14T18352   5.497   2.062   4.885  0.1294 -0.1363 -1.4550
  163OSM   C15S18353   5.314   2.058   5.014  0.4407 -0.2239  0.8289
  163OSM   H15S18354   5.290   1.950   5.001 -2.0308 -0.1195  3.3846
  163OSM   H15T18355   5.214   2.103   5.032 -0.0434 -1.0525  0.2698
  163OSM   C16S18356   5.362   2.073   5.159 -0.2515 -0.3337  0.9194
  163OSM   H16S18357   5.462   2.025   5.154 -0.6021 -1.2852  2.4130
  163OSM   H16T18358   5.299   2.018   5.232  1.3374  0.5659  3.0641
  163OSM   C17S18359   5.375   2.213   5.221 -0.2080  0.8198  0.7252
  163OSM   H17S18360   5.275   2.261   5.213 -0.4717  0.2066  0.2685
  163OSM   H17T18361   5.453   2.274   5.171  0.7690 -0.7615  0.2281
  163OSM   C18S18362   5.416   2.218   5.369  0.3629 -0.8671 -0.2953
  163OSM   H18S18363   5.402   2.322   5.407  0.2620 -0.8473 -0.3880
  163OSM   H18T18364   5.521   2.185   5.382 -0.4614 -2.4720  3.8371
  163OSM   H18U18365   5.358   2.150   5.434  0.3484  0.1421  0.7896
  163OSM    C1F18366   5.244   1.612   3.703 -0.3865 -0.4916  0.2426
  163OSM     OF18367   5.292   1.515   3.651 -0.0622 -0.0358  0.1165
  163OSM    C2F18368   5.136   1.608   3.813  0.2878  0.2031 -0.4115
  163OSM    H2F18369   5.053   1.543   3.777  0.7898 -1.7464  1.7529
  163OSM    H2G18370   5.107   1.713   3.835  3.7497  0.8075  1.9625
  163OSM    C3F18371   5.181   1.554   3.950 -0.1618 -0.1029 -0.2887
  163OSM    H3F18372   5.288   1.579   3.971 -0.1266 -1.3544  1.1375
  163OSM    H3G18373   5.180   1.443   3.951  0.7640 -0.1163  0.3400
  163OSM    C4F18374   5.089   1.583   4.073  0.0835 -0.3120  0.0882
  163OSM    H4F18375   5.113   1.504   4.148 -3.3070  0.0145  1.7267
  163OSM    H4G18376   4.985   1.552   4.047  0.6919  0.0529 -3.0449
  163OSM    C5F18377   5.110   1.720   4.141 -0.0750 -0.1269  0.1693
  163OSM    H5F18378   5.088   1.794   4.061  1.2335 -1.1382 -1.1944
  163OSM    H5G18379   5.211   1.732   4.185 -0.5469  0.3215  1.1691
  163OSM    C6F18380   5.027   1.749   4.258  0.2773 -0.6219 -0.1182
  163OSM    H6F18381   4.925   1.734   4.218  0.3607 -2.2096  0.1888
  163OSM    H6G18382   5.027   1.852   4.300 -1.6015 -0.7090  0.1638
  163OSM    C7F18383   5.023   1.641   4.377  0.0375 -0.3033 -0.2745
  163OSM    H7F18384   4.994   1.540   4.341  0.0464  0.2181 -1.8244
  163OSM    H7G18385   4.941   1.670   4.446 -1.9953 -2.2611 -1.7305
  163OSM    C8F18386   5.161   1.621   4.446  0.6108  0.6419 -0.2245
  163OSM    H8F18387   5.230   1.600   4.363 -0.4927 -3.6999 -0.2798
  163OSM    H8G18388   5.165   1.534   4.515  1.2439  0.0329 -1.0114
  163OSM    C9F18389   5.181   1.751   4.513  0.0212  0.3540 -0.5540
  163OSM    H9F18390   5.262   1.811   4.470  0.8205 -0.1045  0.2584
  163OSM   C10F18391   5.144   1.779   4.639  0.3932  0.2550  0.6702
  163OSM   H10F18392   5.158   1.884   4.668 -0.0065  1.1780 -2.1421
  163OSM   C11F18393   5.067   1.688   4.724  0.5902 -0.2211  0.2104
  163OSM   H11F18394   5.062   1.583   4.688 -2.0087  0.7419 -2.7345
  163OSM   H11G18395   4.961   1.723   4.718 -0.1607 -2.2812  0.5614
  163OSM   C12F18396   5.111   1.697   4.872  0.2250  0.7495 -0.2479
  163OSM   H12F18397   5.035   1.649   4.937 -0.6522  0.2408 -1.5981
  163OSM   H12G18398   5.128   1.803   4.900  0.5681  0.5160  0.4424
  163OSM   C13F18399   5.239   1.618   4.894  0.0707 -0.2474 -0.5543
  163OSM   H13F18400   5.321   1.689   4.871 -2.0306  2.3763 -0.4080
  163OSM   H13G18401   5.251   1.537   4.819 -1.7436 -0.5864 -0.5326
  163OSM   C14F18402   5.263   1.569   5.043 -0.0006  0.1339 -0.1930
  163OSM   H14F18403   5.367   1.531   5.056  0.2912  1.2904  1.1084
  163OSM   H14G18404   5.189   1.486   5.052  1.3098 -1.1339 -0.7428
  163OSM   C15F18405   5.253   1.687   5.147 -0.4133  0.2782  0.7228
  163OSM   H15F18406   5.165   1.752   5.126 -0.6668  0.2326  1.5847
  163OSM   H15G18407   5.346   1.746   5.138 -1.0937  1.2352 -0.4078
  163OSM   C16F18408   5.234   1.640   5.295 -0.5493 -0.3954  0.2366
  163OSM   H16F18409   5.219   1.736   5.349 -0.1841 -0.2183  0.0254
  163OSM   H16G18410   5.336   1.599   5.315  0.9699  2.8461 -0.3055
  163OSM   C17F18411   5.143   1.521   5.314  0.2741  0.0250  0.2274
  163OSM   H17F18412   5.163   1.441   5.239  0.6768  1.7306 -1.5837
  163OSM   H17G18413   5.037   1.551   5.304  0.1722 -0.4085 -0.0070
  163OSM   C18F18414   5.160   1.457   5.451  0.4281  0.5083 -0.7918
  163OSM   H18F18415   5.264   1.419   5.450  0.8930  1.6368  0.8595
  163OSM   H18G18416   5.088   1.372   5.456 -0.9497  1.6089 -1.0404
  163OSM   H18H18417   5.153   1.532   5.533  1.4569  1.4562 -1.5401
  164OSM      N18418   1.821   2.860   3.220  0.4465  0.1735 -0.0859
  164OSM    C1518419   1.723   2.928   3.311  0.1051 -0.2793 -0.3788
  164OSM   H15A18420   1.760   3.020   3.355 -1.0284 -0.1262  0.2878
  164OSM   H15B18421   1.702   2.864   3.396  0.0194 -0.1031 -0.2665
  164OSM   H15C18422   1.634   2.956   3.257 -0.6635  0.3141  1.1320
  164OSM    C1418423   1.758   2.734   3.180 -0.0228  0.9602 -0.2232
  164OSM   H14A18424   1.737   2.673   3.267 -1.1896  1.3101 -0.2432
  164OSM   H14B18425   1.815   2.675   3.110 -0.7081  1.4296 -1.1867
  164OSM   H14C18426   1.659   2.737   3.138 -0.9309 -0.8802  1.6098
  164OSM    C1318427   1.857   2.948   3.106 -0.4243  0.4628 -0.3295
  164OSM   H13A18428   1.917   2.908   3.026 -0.7117 -0.6188 -0.0235
  164OSM   H13B18429   1.926   3.019   3.148  1.3838 -1.0515 -0.5768
  164OSM   H13C18430   1.766   2.997   3.076 -1.7670 -2.7299 -2.0368
  164OSM    C1218431   1.938   2.826   3.295 -0.0167 -0.2049 -0.4367
  164OSM   H12A18432   1.994   2.762   3.229  0.9183  1.1924 -1.0457
  164OSM   H12B18433   1.910   2.758   3.374 -0.2278 -1.3169 -1.4441
  164OSM    C1118434   2.027   2.939   3.347  0.0248 -0.4765 -1.2525
  164OSM   H11A18435   2.091   2.887   3.422  0.5292  0.1523 -1.2332
  164OSM   H11B18436   1.971   3.014   3.408  1.2551  0.6407 -1.4374
  164OSM      P18437   2.224   2.929   3.176  0.0665  0.0683 -0.7230
  164OSM    O1318438   2.190   2.789   3.169 -0.3363  0.7278  0.2203
  164OSM    O1418439   2.260   2.998   3.053  0.7009 -0.2675 -0.4564
  164OSM    O1118440   2.338   2.934   3.294  0.3093 -0.1545  0.4148
  164OSM    O1218441   2.104   3.001   3.240 -0.3272  0.3617  0.6695
  164OSM    C1S18442   2.358   3.054   3.373  0.1384  0.0654  0.0063
  164OSM    H1S18443   2.277   3.130   3.371 -0.3493 -0.2762  2.5240
  164OSM    H1T18444   2.446   3.114   3.340  0.0789 -0.5968 -1.4096
  164OSM     NF18445   2.393   3.159   3.594 -0.4359 -0.2718 -0.7734
  164OSM    HNF18446   2.482   3.179   3.635 -1.0071 -1.4230  1.1149
  164OSM    C2S18447   2.384   3.034   3.525  0.8096  0.5403 -0.0385
  164OSM    H2S18448   2.290   2.996   3.570  0.2333  1.2180 -0.6505
  164OSM    C3S18449   2.499   2.931   3.556 -0.4173  0.1008  0.4849
  164OSM    H3S18450   2.595   2.983   3.531 -0.7743  0.8336  0.6193
  164OSM     O318451   2.499   2.825   3.467  0.1863  0.0933 -0.1141
  164OSM    HO318452   2.441   2.859   3.399  0.8204 -1.4791 -1.4917
  164OSM    C4S18453   2.495   2.882   3.693  1.0173 -0.1604 -0.0427
  164OSM    H4S18454   2.405   2.820   3.705 -0.3792  1.8634  0.4409
  164OSM    C5S18455   2.593   2.878   3.792  0.3071  0.7064 -0.0878
  164OSM    H5S18456   2.692   2.924   3.780  0.4651  0.6956  1.0636
  164OSM    C6S18457   2.582   2.785   3.908  0.4806  0.8527  0.2866
  164OSM    H6S18458   2.655   2.701   3.915 -0.1418  0.1996 -0.7949
  164OSM    H6T18459   2.486   2.729   3.909  1.9690 -1.8950 -1.1069
  164OSM    C7S18460   2.594   2.856   4.044 -0.1459  0.2598 -0.7664
  164OSM    H7S18461   2.512   2.930   4.056 -2.6891 -2.2074 -1.8893
  164OSM    H7T18462   2.693   2.907   4.048  0.0556 -0.2131  1.5313
  164OSM    C8S18463   2.585   2.757   4.162 -0.3807 -0.5926 -0.2761
  164OSM    H8S18464   2.681   2.702   4.168 -0.7447 -1.3245 -0.9806
  164OSM    H8T18465   2.509   2.680   4.139 -2.0898  0.6661  0.8934
  164OSM    C9S18466   2.588   2.824   4.298  0.3122 -0.6149 -0.3894
  164OSM    H9S18467   2.513   2.906   4.298 -0.1633 -1.0298 -1.3098
  164OSM    H9T18468   2.685   2.878   4.305 -0.0278 -0.1123  0.6431
  164OSM   C10S18469   2.546   2.731   4.414 -0.5748  0.0433  1.1277
  164OSM   H10S18470   2.624   2.653   4.409  0.6573  1.2388  0.9268
  164OSM   H10T18471   2.445   2.687   4.400 -1.4574  1.6123  2.1528
  164OSM   C11S18472   2.563   2.807   4.550 -0.2689 -0.0289 -0.0598
  164OSM   H11S18473   2.491   2.890   4.567  0.2779  0.4637 -0.1119
  164OSM   H11T18474   2.661   2.860   4.552  0.3740 -1.1791  0.0728
  164OSM   C12S18475   2.570   2.706   4.666 -1.0078 -0.1306 -0.8583
  164OSM   H12S18476   2.656   2.640   4.645  0.1096  0.9742  0.0615
  164OSM   H12T18477   2.472   2.653   4.673 -1.2439  0.3617 -0.3348
  164OSM   C13S18478   2.610   2.768   4.797 -0.6287  0.2708  0.0959
  164OSM   H13S18479   2.676   2.857   4.787 -0.8599  0.2213 -2.2620
  164OSM   H13T18480   2.671   2.698   4.859  0.3943  1.0070 -0.0615
  164OSM   C14S18481   2.492   2.795   4.898  0.1017 -1.1889  0.4303
  164OSM   H14S18482   2.422   2.711   4.918  1.0904 -1.7740  1.5900
  164OSM   H14T18483   2.434   2.870   4.840  0.7448 -0.4283  0.7506
  164OSM   C15S18484   2.550   2.852   5.033 -0.5307 -0.3330  0.1174
  164OSM   H15S18485   2.628   2.928   5.011  0.0292 -1.0489 -0.4593
  164OSM   H15T18486   2.602   2.764   5.076  0.0431 -0.0384  0.0401
  164OSM   C16S18487   2.456   2.904   5.131  0.1656  0.4021  0.2287
  164OSM   H16S18488   2.390   2.816   5.148  1.9895 -0.9477  0.7626
  164OSM   H16T18489   2.404   2.993   5.091  3.3285  2.6762  0.7970
  164OSM   C17S18490   2.527   2.933   5.264  0.8212 -0.1860 -0.6540
  164OSM   H17S18491   2.548   2.832   5.305  0.0467 -0.6412 -1.3635
  164OSM   H17T18492   2.458   2.984   5.334  2.0289 -0.0007  0.4368
  164OSM   C18S18493   2.660   3.004   5.248 -0.0987  0.2164  0.4456
  164OSM   H18S18494   2.640   3.080   5.170  2.9514 -1.3627 -2.1022
  164OSM   H18T18495   2.733   2.932   5.206 -0.2556 -0.2382  0.9420
  164OSM   H18U18496   2.694   3.052   5.343  0.2253  0.6432  0.1142
  164OSM    C1F18497   2.295   3.249   3.602 -0.3006  0.1060 -0.5712
  164OSM     OF18498   2.183   3.220   3.563 -0.2501  0.5132 -0.6854
  164OSM    C2F18499   2.313   3.377   3.677 -0.4511  0.7991 -0.8152
  164OSM    H2F18500   2.241   3.449   3.634  0.1484 -0.8802 -5.1790
  164OSM    H2G18501   2.416   3.419   3.667  1.0978 -1.6064  2.9359
  164OSM    C3F18502   2.293   3.352   3.827 -0.3971 -0.2789 -0.5772
  164OSM    H3F18503   2.353   3.266   3.863 -0.7585 -0.9098 -1.4583
  164OSM    H3G18504   2.191   3.312   3.841 -0.1221 -0.8462 -0.1591
  164OSM    C4F18505   2.320   3.480   3.914 -0.0434  0.8289  0.2031
  164OSM    H4F18506   2.263   3.562   3.865  0.1675  1.9274  1.7290
  164OSM    H4G18507   2.429   3.492   3.897 -0.0804 -1.2259 -1.9593
  164OSM    C5F18508   2.288   3.480   4.061  1.0627  0.4705 -0.0983
  164OSM    H5F18509   2.366   3.416   4.108  0.3402 -0.5581 -0.2807
  164OSM    H5G18510   2.194   3.428   4.087  0.2489  1.1136 -1.6364
  164OSM    C6F18511   2.273   3.620   4.117  0.2165  0.3758  0.1948
  164OSM    H6F18512   2.186   3.669   4.069 -1.1195 -1.1816  0.9551
  164OSM    H6G18513   2.359   3.680   4.080 -2.6206  3.3763 -2.1046
  164OSM    C7F18514   2.270   3.629   4.276  0.1919  0.3439  0.6187
  164OSM    H7F18515   2.366   3.580   4.305 -0.1107 -0.4428  0.3234
  164OSM    H7G18516   2.180   3.573   4.310 -1.0200  1.9433  0.1782
  164OSM    C8F18517   2.247   3.771   4.331  0.2514 -0.2740 -0.6179
  164OSM    H8F18518   2.156   3.805   4.278 -0.6393 -0.7757  0.5443
  164OSM    H8G18519   2.339   3.827   4.305 -0.9195  1.0172 -2.1916
  164OSM    C9F18520   2.228   3.774   4.479 -0.5021 -0.2796  0.6706
  164OSM    H9F18521   2.244   3.678   4.532  1.3906 -1.3725 -1.6395
  164OSM   C10F18522   2.195   3.883   4.553  0.1453  0.0605  0.6685
  164OSM   H10F18523   2.194   3.880   4.663 -1.3823 -2.0902  0.6545
  164OSM   C11F18524   2.163   4.024   4.492  0.6476 -0.7615  0.5923
  164OSM   H11F18525   2.225   4.050   4.404 -1.9619 -1.2404 -1.5172
  164OSM   H11G18526   2.190   4.107   4.561  0.0822  0.2650 -0.3842
  164OSM   C12F18527   2.015   4.050   4.440  0.4260 -0.7208 -0.4075
  164OSM   H12F18528   1.980   3.970   4.371  3.7481 -2.2766 -0.5035
  164OSM   H12G18529   2.009   4.138   4.372 -2.4377  0.0521  0.7404
  164OSM   C13F18530   1.918   4.070   4.561  0.7355  0.4392  1.2589
  164OSM   H13F18531   1.971   4.150   4.618  0.2101  1.3663  0.4904
  164OSM   H13G18532   1.917   3.971   4.611 -0.4519 -0.9213 -1.2469
  164OSM   C14F18533   1.776   4.125   4.527 -0.2350 -0.4933 -0.2882
  164OSM   H14F18534   1.714   4.039   4.494 -1.0363 -0.8808  2.0442
  164OSM   H14G18535   1.786   4.197   4.443  0.0436 -2.0613 -1.6472
  164OSM   C15F18536   1.705   4.191   4.645  0.9111  1.0988 -0.1140
  164OSM   H15F18537   1.619   4.250   4.608 -1.6527 -1.8158  0.7971
  164OSM   H15G18538   1.784   4.264   4.674  2.6990 -0.2569 -1.3446
  164OSM   C16F18539   1.677   4.098   4.762  0.3645  0.8322  0.1747
  164OSM   H16F18540   1.765   4.032   4.781  0.2652  0.8937  0.8894
  164OSM   H16G18541   1.598   4.026   4.731  0.3790  0.8054  0.1996
  164OSM   C17F18542   1.641   4.169   4.896 -0.0089 -0.5063 -0.2421
  164OSM   H17F18543   1.729   4.228   4.929 -0.0987 -1.2884  1.5374
  164OSM   H17G18544   1.618   4.092   4.973  1.2109 -1.9031 -1.2161
  164OSM   C18F18545   1.520   4.262   4.882 -1.0704  0.0055 -0.0695
  164OSM   H18F18546   1.543   4.333   4.800  0.2883 -0.0570  0.2304
  164OSM   H18G18547   1.514   4.323   4.974  2.6530  2.2449 -1.1076
  164OSM   H18H18548   1.431   4.198   4.859 -1.2713 -0.9298  2.9190
  165SAPS     N18549   5.401   5.370   7.903 -0.1899  0.0815 -0.2071
  165SAPS   HN118550   5.427   5.271   7.922 -0.9737  0.2105  1.8127
  165SAPS   HN218551   5.464   5.410   7.831 -0.5917  1.1169  0.0038
  165SAPS   HN318552   5.422   5.426   7.988  2.2954  0.4620 -0.9740
  165SAPS   C1218553   5.256   5.382   7.870  0.3220  0.1063  0.3321
  165SAPS  H12A18554   5.223   5.317   7.791 -1.1161  0.4512  0.6258
  165SAPS   C1318555   5.156   5.338   7.986 -0.6570  0.3246  0.3013
  165SAPS  O13A18556   5.204   5.352   8.102  0.3890  0.0486  0.2404
  165SAPS  O13B18557   5.034   5.324   7.971 -0.2848  0.5186  0.2409
  165SAPS   C1118558   5.216   5.519   7.814 -0.3406 -0.0804 -0.0462
  165SAPS  H11A18559   5.245   5.593   7.891  1.1240 -0.2317 -0.4256
  165SAPS  H11B18560   5.107   5.514   7.794 -0.4410 -1.8510  0.7583
  165SAPS     P18561   5.418   5.609   7.664 -0.0133 -0.0592  0.5429
  165SAPS   O1318562   5.417   5.747   7.727 -0.6015  0.0665  0.4346
  165SAPS   O1418563   5.518   5.513   7.706 -1.2572  0.0680  0.1174
  165SAPS   O1218564   5.277   5.539   7.687 -0.2281 -0.5097  0.4490
  165SAPS   O1118565   5.404   5.616   7.501 -0.0657 -0.1684  0.0121
  165SAPS    C118566   5.522   5.596   7.420 -0.5501 -0.0394 -0.4343
  165SAPS    HA18567   5.594   5.522   7.460  0.9839 -0.1613 -3.1374
  165SAPS    HB18568   5.501   5.557   7.318  0.5126  1.0643 -1.1163
  165SAPS    C218569   5.572   5.740   7.387 -0.2200  0.4801  0.4546
  165SAPS    HS18570   5.588   5.787   7.486  0.6237  1.9639 -0.3565
  165SAPS   O2118571   5.475   5.826   7.327  0.1684 -0.7138 -0.1334
  165SAPS   C2118572   5.510   5.949   7.315  0.4086  0.6463  0.1006
  165SAPS   O2218573   5.593   6.004   7.382  0.1484 -0.4183  0.6587
  165SAPS   C2218574   5.426   6.023   7.209 -0.1674 -0.1316 -0.7883
  165SAPS   H2R18575   5.489   6.108   7.176  2.5212 -2.5143 -2.2452
  165SAPS   H2S18576   5.416   5.953   7.123  0.3050 -2.9125  1.2888
  165SAPS    C318577   5.705   5.730   7.307 -1.0732 -0.2430 -0.1579
  165SAPS    HX18578   5.753   5.650   7.366 -0.4777  1.0218  1.1350
  165SAPS    HY18579   5.766   5.823   7.304 -2.9846  1.1080  0.5623
  165SAPS   O3118580   5.682   5.669   7.179  0.3782 -0.2659 -0.0801
  165SAPS   C3118581   5.667   5.764   7.090 -0.5944  0.1538  0.4112
  165SAPS   O3218582   5.703   5.879   7.094  0.3169  0.2378 -0.1667
  165SAPS   C3218583   5.592   5.715   6.969  0.0891 -0.0509  0.1025
  165SAPS   H2X18584   5.527   5.804   6.953  2.3562  1.8409  0.8092
  165SAPS   H2Y18585   5.520   5.632   6.986  3.1923 -2.9050  0.2754
  165SAPS   C2318586   5.280   6.063   7.254  0.0711 -0.4085  0.2877
  165SAPS   H3R18587   5.288   6.138   7.336  2.7351 -1.6313  1.2516
  165SAPS   H3S18588   5.237   5.977   7.309  1.2613  0.0688  2.0720
  165SAPS   C2418589   5.197   6.112   7.137  0.4660 -0.0522  0.5829
  165SAPS   H4R18590   5.091   6.134   7.164 -0.0538 -1.2808 -0.3734
  165SAPS   H4S18591   5.190   6.027   7.065 -0.2576  2.3428 -2.4100
  165SAPS   C2518592   5.251   6.240   7.073  0.1198  0.1634  0.5731
  165SAPS   H5R18593   5.281   6.319   7.144  0.2554  0.2652  0.4046
  165SAPS   C2618594   5.264   6.269   6.942  0.8936 -0.3455  0.7964
  165SAPS   H6R18595   5.294   6.370   6.912  0.8026 -0.9497 -1.4708
  165SAPS   C2718596   5.220   6.194   6.824  0.4038 -0.2662  0.0281
  165SAPS   H7R18597   5.209   6.262   6.737  3.7789 -1.6265 -1.6336
  165SAPS   H7S18598   5.122   6.148   6.850  0.7230  0.5292  3.0159
  165SAPS   C2818599   5.311   6.078   6.786  0.1001 -0.1893 -0.7329
  165SAPS   H8R18600   5.343   6.016   6.871  1.3843 -1.3416 -2.0163
  165SAPS   C2918601   5.362   6.040   6.669  0.4046 -0.2130  0.5025
  165SAPS   H9R18602   5.413   5.943   6.659 -3.7923 -2.6218  0.1019
  165SAPS  C21018603   5.331   6.110   6.532 -0.5595 -0.1012 -0.9224
  165SAPS  H10R18604   5.418   6.104   6.463  0.6190 -0.2266  0.5274
  165SAPS  H10S18605   5.308   6.218   6.549  0.0400 -0.0589 -0.3497
  165SAPS  C21118606   5.210   6.051   6.473 -0.5322 -0.2570  0.2887
  165SAPS  H11R18607   5.131   6.009   6.537  1.5519 -1.6211  2.1161
  165SAPS  C21218608   5.194   6.052   6.340  0.2884  0.5758  0.1464
  165SAPS  H12R18609   5.101   6.007   6.302  1.0605 -0.7156 -0.3012
  165SAPS  C21318610   5.288   6.100   6.233  0.7110 -0.6246 -0.2455
  165SAPS  H13R18611   5.341   6.008   6.202 -0.8305 -1.0216 -1.8750
  165SAPS  H13S18612   5.363   6.168   6.279 -0.7351  0.0307  1.2318
  165SAPS  C21418613   5.212   6.167   6.122  0.6878  0.0153  0.1130
  165SAPS  H14R18614   5.164   6.264   6.144 -0.6899  0.1031 -2.8419
  165SAPS  C21518615   5.201   6.125   5.997  0.2774 -0.4671 -0.2310
  165SAPS  H15R18616   5.144   6.183   5.924  3.0098  1.5892 -0.8932
  165SAPS  C21618617   5.254   6.001   5.934  0.6135  0.0086  0.6128
  165SAPS  H16R18618   5.187   5.914   5.950 -2.2960  2.1232  0.8442
  165SAPS  H16S18619   5.360   5.976   5.954  0.4118 -2.6891 -1.1068
  165SAPS  C21718620   5.281   6.009   5.779 -0.1660  0.3540 -0.0336
  165SAPS  H17R18621   5.188   6.031   5.723  0.3508  1.0221 -0.6468
  165SAPS  H17S18622   5.304   5.904   5.750 -2.4798  0.1120 -1.1932
  165SAPS  C21818623   5.388   6.111   5.735 -0.0585  0.1821 -0.1955
  165SAPS  H18R18624   5.478   6.100   5.799 -1.3948  0.0996  1.7630
  165SAPS  H18S18625   5.352   6.211   5.768 -1.3059 -0.4838  0.5703
  165SAPS  C21918626   5.424   6.115   5.584 -0.1997 -0.5881 -0.2352
  165SAPS  H19R18627   5.494   6.200   5.588  0.5427 -1.2279  0.7659
  165SAPS  H19S18628   5.331   6.135   5.527 -0.4568  2.2753  1.0404
  165SAPS  C22018629   5.493   5.983   5.538  0.3410 -0.5895 -0.1860
  165SAPS  H20R18630   5.548   5.989   5.442 -3.4790  0.4603 -2.5355
  165SAPS  H20S18631   5.431   5.891   5.534  0.1051 -0.4130 -0.5865
  165SAPS  H20T18632   5.568   5.960   5.617 -0.7300 -0.0977  1.0152
  165SAPS   C3318633   5.679   5.689   6.846 -0.1039  0.6428 -0.6142
  165SAPS   H3X18634   5.744   5.601   6.865 -0.8875 -0.2037 -1.7483
  165SAPS   H3Y18635   5.760   5.763   6.829  0.7442 -0.4720 -1.5625
  165SAPS   C3418636   5.596   5.682   6.721  0.0808 -0.0322  0.4150
  165SAPS   H4X18637   5.516   5.758   6.734 -0.5137 -0.7399  1.0043
  165SAPS   H4Y18638   5.542   5.586   6.707  1.2031 -0.8352  1.3937
  165SAPS   C3518639   5.674   5.707   6.593 -0.1884 -0.1081  0.9641
  165SAPS   H5X18640   5.730   5.614   6.566  0.4231  0.4867  0.1208
  165SAPS   H5Y18641   5.743   5.792   6.610  0.1430 -0.3406  0.7934
  165SAPS   C3618642   5.587   5.726   6.474  0.3502 -0.3756  0.4394
  165SAPS   H6X18643   5.555   5.832   6.471  0.6321 -0.3200 -2.1993
  165SAPS   H6Y18644   5.500   5.657   6.468 -0.5296  0.7818 -0.5903
  165SAPS   C3718645   5.658   5.715   6.342  0.6421  0.1493 -0.0730
  165SAPS   H7X18646   5.707   5.616   6.328 -2.7485 -1.9503  1.7340
  165SAPS   H7Y18647   5.731   5.798   6.347 -0.2562  0.8622  2.7840
  165SAPS   C3818648   5.559   5.743   6.231 -0.2578  0.7355 -0.7202
  165SAPS   H8X18649   5.527   5.846   6.258  2.8072  1.8962 -1.1504
  165SAPS   H8Y18650   5.473   5.672   6.234 -0.4457  0.9941  0.2411
  165SAPS   C3918651   5.632   5.743   6.098  0.0146  0.7157 -0.1069
  165SAPS   H9X18652   5.722   5.806   6.089  0.4834  0.3155  1.4397
  165SAPS   H9Y18653   5.565   5.787   6.021 -1.0603  2.3527  1.6674
  165SAPS  C31018654   5.663   5.603   6.041  0.0743 -0.0513  0.2075
  165SAPS  H10X18655   5.586   5.530   6.074 -0.3343  0.0720 -0.4630
  165SAPS  H10Y18656   5.753   5.564   6.092 -0.6127  0.5102  1.9450
  165SAPS  C31118657   5.669   5.589   5.891  0.4998  0.6073 -0.3690
  165SAPS  H11X18658   5.745   5.662   5.853 -0.9076  2.2088 -0.2304
  165SAPS  H11Y18659   5.571   5.610   5.844  1.0445 -0.3018 -1.9876
  165SAPS  C31218660   5.699   5.444   5.851  0.2201 -0.8160 -0.0417
  165SAPS  H12X18661   5.626   5.380   5.905  0.1086  1.1664  2.3456
  165SAPS  H12Y18662   5.806   5.418   5.868  0.4822  0.4780  0.3663
  165SAPS  C31318663   5.660   5.424   5.706 -0.8918  0.0706 -0.1414
  165SAPS  H13X18664   5.557   5.462   5.691 -0.3397  1.5810 -0.2683
  165SAPS  H13Y18665   5.662   5.314   5.689 -0.1359  0.0970 -0.2499
  165SAPS  C31418666   5.757   5.490   5.604 -0.4206 -0.3655  0.4309
  165SAPS  H14X18667   5.860   5.456   5.629 -0.8325 -0.3948  2.2726
  165SAPS  H14Y18668   5.751   5.599   5.627 -1.7671 -0.4218  0.3894
  165SAPS  C31518669   5.732   5.463   5.457  0.1577 -0.2598  0.0377
  165SAPS  H15X18670   5.636   5.518   5.444 -0.9965 -1.4933  2.6419
  165SAPS  H15Y18671   5.721   5.356   5.428 -1.2178 -0.3996  1.0186
  165SAPS  C31618672   5.850   5.523   5.375  1.2053  0.0274 -0.2820
  165SAPS  H16X18673   5.942   5.460   5.373 -0.1732 -2.0781 -1.8374
  165SAPS  H16Y18674   5.879   5.617   5.427  1.1760 -0.4586  0.6273
  165SAPS  C31718675   5.802   5.551   5.238  0.0396  0.3523  0.3701
  165SAPS  H17X18676   5.891   5.576   5.175  0.3146  1.3574  1.1285
  165SAPS  H17Y18677   5.732   5.637   5.239  0.9979  1.1534  0.9388
  165SAPS  C31818678   5.728   5.434   5.171 -0.4102  0.1186  0.1625
  165SAPS  H18X18679   5.727   5.441   5.060 -0.5728  0.1693  0.1665
  165SAPS  H18Y18680   5.625   5.420   5.211 -0.6950 -2.4783 -1.2278
  165SAPS  H18Z18681   5.778   5.342   5.207  2.3183  1.4566  0.0735
  166SAPS     N18682   3.310   0.922   7.808 -0.2042  0.1160  0.6356
  166SAPS   HN118683   3.383   0.989   7.839  0.0548 -0.4494  1.2743
  166SAPS   HN218684   3.333   0.898   7.710  0.5704  2.5929  0.1470
  166SAPS   HN318685   3.219   0.972   7.802  0.1166  0.5735 -0.6634
  166SAPS   C1218686   3.304   0.815   7.917  0.1866  0.8176  0.4658
  166SAPS  H12A18687   3.399   0.765   7.923 -0.4525 -1.2524 -3.6637
  166SAPS   C1318688   3.254   0.886   8.056  1.1128  0.4191  0.0288
  166SAPS  O13A18689   3.221   1.007   8.054 -0.0869  0.7173  0.5940
  166SAPS  O13B18690   3.289   0.827   8.158  0.3992  0.0605  0.0187
  166SAPS   C1118691   3.211   0.702   7.862 -0.2237  0.4643  0.0146
  166SAPS  H11A18692   3.113   0.752   7.851  0.6340  2.6790  1.6095
  166SAPS  H11B18693   3.204   0.617   7.933  0.6841 -0.8722 -1.4480
  166SAPS     P18694   3.333   0.529   7.695 -0.0320 -0.1408 -0.2570
  166SAPS   O1318695   3.461   0.533   7.772  0.4602  0.1424  0.6788
  166SAPS   O1418696   3.248   0.411   7.715 -0.7762 -0.4501 -0.4918
  166SAPS   O1218697   3.258   0.654   7.732  0.1797 -0.3447 -0.1738
  166SAPS   O1118698   3.353   0.538   7.539  0.9348 -0.5522  0.3376
  166SAPS    C118699   3.364   0.418   7.462 -0.4215  0.2976  0.4609
  166SAPS    HA18700   3.273   0.355   7.470  0.7429 -1.9333 -2.2369
  166SAPS    HB18701   3.377   0.458   7.359  0.4093 -0.7030  0.1606
  166SAPS    C218702   3.493   0.332   7.492 -0.4677  0.0715 -0.0579
  166SAPS    HS18703   3.487   0.292   7.595 -1.4557  0.4937  0.0597
  166SAPS   O2118704   3.604   0.424   7.476  0.0254  0.4713  0.2030
  166SAPS   C2118705   3.720   0.393   7.546 -0.2004 -0.2004  0.3822
  166SAPS   O2218706   3.724   0.322   7.643 -0.4107 -0.1162 -0.3477
  166SAPS   C2218707   3.828   0.463   7.461 -0.0458 -0.1865 -0.0853
  166SAPS   H2R18708   3.801   0.451   7.354 -0.0902  0.4139 -0.1427
  166SAPS   H2S18709   3.819   0.572   7.478  0.2849 -0.0668 -0.6625
  166SAPS    C318710   3.511   0.206   7.405  1.2646  0.6381  0.4879
  166SAPS    HX18711   3.451   0.116   7.428  0.1001  0.5647 -2.4755
  166SAPS    HY18712   3.610   0.157   7.416 -0.0889 -2.0221  1.6704
  166SAPS   O3118713   3.504   0.243   7.263  0.2258  0.6761 -0.3207
  166SAPS   C3118714   3.394   0.203   7.197  0.2322 -0.2337  0.0135
  166SAPS   O3218715   3.301   0.141   7.245 -0.0599  0.0644 -0.4500
  166SAPS   C3218716   3.390   0.259   7.056 -0.2704 -0.0231  0.1839
  166SAPS   H2X18717   3.357   0.365   7.065  2.3916  0.9214 -0.2433
  166SAPS   H2Y18718   3.317   0.192   7.006  0.9086 -0.7380 -0.6280
  166SAPS   C2318719   3.974   0.418   7.481 -0.4440  0.3364  0.1890
  166SAPS   H3R18720   3.984   0.308   7.490 -1.3557  0.2528  0.2408
  166SAPS   H3S18721   4.024   0.446   7.577  0.4967 -4.6376  1.4274
  166SAPS   C2418722   4.057   0.468   7.362  0.0007  0.6274 -1.0985
  166SAPS   H4R18723   4.013   0.434   7.265 -1.5186  0.1739 -0.2777
  166SAPS   H4S18724   4.154   0.414   7.365 -0.2672  0.1957  0.0401
  166SAPS   C2518725   4.074   0.613   7.350  0.2859  0.4439 -0.0461
  166SAPS   H5R18726   4.009   0.666   7.421 -0.9768  0.2139 -0.9972
  166SAPS   C2618727   4.143   0.691   7.265 -0.6081 -0.4519 -0.1824
  166SAPS   H6R18728   4.143   0.800   7.284  3.9928 -0.2515 -0.2699
  166SAPS   C2718729   4.237   0.639   7.161  0.0568  0.2616 -0.2105
  166SAPS   H7R18730   4.169   0.595   7.085 -1.2097 -1.5253  1.8430
  166SAPS   H7S18731   4.290   0.552   7.204 -1.0493 -0.2875  0.0753
  166SAPS   C2818732   4.330   0.739   7.097  0.3484  0.8871 -0.7867
  166SAPS   H8R18733   4.431   0.716   7.133 -0.0935 -2.7750 -1.4900
  166SAPS   C2918734   4.315   0.815   6.989  0.0563  0.1468  0.2635
  166SAPS   H9R18735   4.407   0.872   6.968 -1.8802  3.6577  0.5989
  166SAPS  C21018736   4.193   0.845   6.906  0.1057  0.0539  0.3868
  166SAPS  H10R18737   4.111   0.831   6.979  1.7216 -4.6344  1.6350
  166SAPS  H10S18738   4.203   0.764   6.831  3.4109  0.6093  0.0681
  166SAPS  C21118739   4.207   0.979   6.838 -0.3130  0.2267 -0.5736
  166SAPS  H11R18740   4.183   1.065   6.903 -1.5131 -1.2163  1.0098
  166SAPS  C21218741   4.274   1.013   6.720  0.2506  0.7290  0.2611
  166SAPS  H12R18742   4.270   1.107   6.663  0.6893 -0.1710 -1.3359
  166SAPS  C21318743   4.323   0.903   6.624 -0.1858 -0.0504 -0.3362
  166SAPS  H13R18744   4.320   0.804   6.673 -0.4592  0.6123  1.0477
  166SAPS  H13S18745   4.430   0.917   6.599 -0.4095  0.6052 -0.9972
  166SAPS  C21418746   4.233   0.895   6.506  0.6148  0.2686 -0.3667
  166SAPS  H14R18747   4.128   0.913   6.531  0.5952 -1.1397  0.6928
  166SAPS  C21518748   4.259   0.855   6.384  0.0476  0.6229 -0.1754
  166SAPS  H15R18749   4.178   0.818   6.319 -0.7758 -1.3401  1.8107
  166SAPS  C21618750   4.395   0.828   6.330 -0.1225  0.3272 -0.1206
  166SAPS  H16R18751   4.411   0.719   6.339 -1.2748  0.2014  0.6132
  166SAPS  H16S18752   4.479   0.876   6.385  2.5533 -3.5835 -0.3707
  166SAPS  C21718753   4.390   0.873   6.183  0.4230 -0.2229  0.3799
  166SAPS  H17R18754   4.335   0.794   6.127  0.0844 -0.2402  0.7381
  166SAPS  H17S18755   4.494   0.860   6.145  1.0645  0.8282  1.6937
  166SAPS  C21818756   4.342   1.015   6.155  0.6045 -1.1546 -0.3725
  166SAPS  H18R18757   4.406   1.083   6.215 -0.6758  0.6123 -0.9344
  166SAPS  H18S18758   4.240   1.025   6.197  1.1257  1.0459  0.4997
  166SAPS  C21918759   4.350   1.054   6.007  0.6347 -0.3906 -0.4931
  166SAPS  H19R18760   4.306   0.969   5.950 -1.9280  1.2217 -1.0913
  166SAPS  H19S18761   4.457   1.078   5.989  0.7544  2.9029  3.2687
  166SAPS  C22018762   4.277   1.180   5.962  0.0495 -0.3412  0.2776
  166SAPS  H20R18763   4.180   1.186   6.017 -0.7269 -0.8703 -0.9863
  166SAPS  H20S18764   4.268   1.172   5.852 -0.2297 -1.2036  0.3524
  166SAPS  H20T18765   4.335   1.272   5.984 -0.2363  0.0174 -0.4311
  166SAPS   C3318766   3.530   0.246   6.983 -1.0020 -0.5955  0.1303
  166SAPS   H3X18767   3.546   0.136   6.980 -1.2263 -0.6809  1.2845
  166SAPS   H3Y18768   3.601   0.297   7.052 -1.3933  1.5811 -0.9951
  166SAPS   C3418769   3.545   0.303   6.840 -0.5501 -0.7363 -1.4098
  166SAPS   H4X18770   3.652   0.323   6.820  0.2603 -3.1565  0.1538
  166SAPS   H4Y18771   3.481   0.394   6.843  1.0239  0.3786  0.5127
  166SAPS   C3518772   3.512   0.218   6.717 -0.2462 -0.0476  0.1405
  166SAPS   H5X18773   3.412   0.171   6.730  0.0451 -0.7676 -0.2233
  166SAPS   H5Y18774   3.591   0.141   6.705  1.6743  1.8849 -0.3562
  166SAPS   C3618775   3.512   0.308   6.588 -0.3692 -0.4413 -0.0738
  166SAPS   H6X18776   3.613   0.353   6.581 -0.7831  0.3802 -0.9324
  166SAPS   H6Y18777   3.437   0.389   6.579  0.6975  0.4639 -1.1344
  166SAPS   C3718778   3.501   0.240   6.450 -0.7086  0.9879  0.5566
  166SAPS   H7X18779   3.405   0.187   6.432  0.4870 -0.6987 -1.4051
  166SAPS   H7Y18780   3.578   0.160   6.448 -0.1468  1.5072  1.0500
  166SAPS   C3818781   3.523   0.328   6.325 -0.0689  0.2286  0.3952
  166SAPS   H8X18782   3.623   0.375   6.324 -0.0793  0.3237 -2.3777
  166SAPS   H8Y18783   3.457   0.415   6.306  2.1942  1.6125 -1.7435
  166SAPS   C3918784   3.544   0.247   6.197  0.3619  1.0577  0.0887
  166SAPS   H9X18785   3.450   0.192   6.173  1.6435 -1.3401  0.2539
  166SAPS   H9Y18786   3.618   0.165   6.212  0.3674  0.9768 -0.3566
  166SAPS  C31018787   3.591   0.344   6.085 -0.1642  0.5167 -0.6146
  166SAPS  H10X18788   3.701   0.353   6.096 -0.2526  1.4161 -0.3834
  166SAPS  H10Y18789   3.556   0.448   6.101  0.8204  0.8731 -0.6922
  166SAPS  C31118790   3.555   0.289   5.944 -0.6406 -0.1037  1.2467
  166SAPS  H11X18791   3.448   0.293   5.914 -0.8141  0.6300  1.9548
  166SAPS  H11Y18792   3.585   0.182   5.938  1.5044  0.4483  1.5226
  166SAPS  C31218793   3.635   0.365   5.843 -0.4729 -0.4351 -0.1641
  166SAPS  H12X18794   3.740   0.343   5.872 -0.2001 -0.6732 -1.2872
  166SAPS  H12Y18795   3.617   0.474   5.857  1.8707 -0.0209 -0.0066
  166SAPS  C31318796   3.619   0.339   5.696  0.2745  0.0849  0.0474
  166SAPS  H13X18797   3.701   0.374   5.630  1.3385 -0.1440  1.2239
  166SAPS  H13Y18798   3.522   0.385   5.668 -0.3954 -1.2508  0.0687
  166SAPS  C31418799   3.603   0.187   5.667 -0.3754 -0.3945 -0.0661
  166SAPS  H14X18800   3.522   0.136   5.725  0.2902 -0.7064  0.6050
  166SAPS  H14Y18801   3.691   0.128   5.698 -0.0150 -0.7724 -1.7529
  166SAPS  C31518802   3.575   0.154   5.523 -0.1939 -0.7386  0.3799
  166SAPS  H15X18803   3.622   0.229   5.457 -1.7872 -1.1769 -1.3396
  166SAPS  H15Y18804   3.467   0.163   5.499  0.1841  1.0553 -0.8025
  166SAPS  C31618805   3.614   0.003   5.480 -0.0855 -0.7088 -1.4025
  166SAPS  H16X18806   3.722  -0.018   5.497  0.2978  2.1181  0.3205
  166SAPS  H16Y18807   3.582  -0.016   5.375 -0.4279 -0.2037 -1.3923
  166SAPS  C31718808   3.534  -0.105   5.557 -0.2922  0.1332 -0.1596
  166SAPS  H17X18809   3.552  -0.097   5.666 -2.8083 -2.6636  0.5962
  166SAPS  H17Y18810   3.565  -0.205   5.519 -0.2750  0.4034 -0.8918
  166SAPS  C31818811   3.388  -0.099   5.530 -0.4342  0.0691  0.4612
  166SAPS  H18X18812   3.361  -0.102   5.422 -0.0360 -1.4012  0.3789
  166SAPS  H18Y18813   3.352  -0.001   5.569  1.2990  1.2823 -0.8211
  166SAPS  H18Z18814   3.323  -0.174   5.580 -0.1629 -0.4966 -0.0328
  167SAPS     N18815   1.376   3.503   8.140 -0.7943 -0.0731 -0.0548
  167SAPS   HN118816   1.409   3.499   8.042  2.4385  0.0627  0.9136
  167SAPS   HN218817   1.326   3.591   8.165  0.0927  1.6801 -3.7701
  167SAPS   HN318818   1.455   3.480   8.204  0.4617 -0.5406 -1.7026
  167SAPS   C1218819   1.259   3.398   8.152  0.0316  0.0383 -0.0905
  167SAPS  H12A18820   1.285   3.299   8.119  1.6713  0.0204  1.1398
  167SAPS   C1318821   1.213   3.371   8.300  0.3499  0.3121 -0.0533
  167SAPS  O13A18822   1.256   3.444   8.388 -0.3306  0.2076 -0.2822
  167SAPS  O13B18823   1.127   3.284   8.320 -0.3704 -0.1733 -0.9183
  167SAPS   C1118824   1.142   3.451   8.061 -0.1339  0.6630  0.0727
  167SAPS  H11A18825   1.064   3.372   8.062  0.1189  0.3971  1.6939
  167SAPS  H11B18826   1.185   3.463   7.960 -0.6626 -1.4740 -0.4568
  167SAPS     P18827   0.957   3.631   8.048  0.5083  0.0384 -0.0153
  167SAPS   O1318828   0.858   3.546   8.119 -0.4965  0.2303  0.5487
  167SAPS   O1418829   0.952   3.774   8.073 -0.4464 -0.1912  0.5856
  167SAPS   O1218830   1.093   3.577   8.100  0.2119  0.0168  0.0014
  167SAPS   O1118831   0.947   3.601   7.899 -0.4454  0.1931  0.0624
  167SAPS    C118832   1.029   3.666   7.795  0.0299 -0.0044 -0.1165
  167SAPS    HA18833   1.072   3.762   7.832 -1.4125  0.7947 -0.4248
  167SAPS    HB18834   1.120   3.610   7.764  1.7240  1.4848  1.8670
  167SAPS    C218835   0.944   3.690   7.666 -0.0521 -0.3134 -0.2186
  167SAPS    HS18836   1.021   3.718   7.591  1.4456  0.8736  1.6709
  167SAPS   O2118837   0.838   3.792   7.677  0.3198  0.5051  0.0277
  167SAPS   C2118838   0.880   3.919   7.674 -0.6386 -0.1359  0.3679
  167SAPS   O2218839   0.998   3.944   7.680  0.2231 -0.2785 -0.2168
  167SAPS   C2218840   0.770   4.019   7.651 -0.1993  0.9821  0.2650
  167SAPS   H2R18841   0.670   3.979   7.675  0.3148 -0.1708  0.5330
  167SAPS   H2S18842   0.794   4.110   7.710  2.3491  0.6326 -0.1337
  167SAPS    C318843   0.885   3.552   7.623 -0.7418 -0.4483  0.8590
  167SAPS    HX18844   0.818   3.519   7.706  1.5796 -1.8419  2.3151
  167SAPS    HY18845   0.973   3.485   7.616 -1.6972 -1.7390  0.7536
  167SAPS   O3118846   0.831   3.558   7.487 -0.7995  0.9773 -0.2980
  167SAPS   C3118847   0.781   3.441   7.460  0.0497 -0.3102  0.6851
  167SAPS   O3218848   0.779   3.338   7.527 -0.6628 -0.3694 -0.3104
  167SAPS   C3218849   0.722   3.430   7.317  0.1085 -0.0171 -0.5684
  167SAPS   H2X18850   0.800   3.384   7.253 -0.1619 -3.3499  1.2774
  167SAPS   H2Y18851   0.723   3.532   7.273  1.3898  0.0856 -0.3413
  167SAPS   C2318852   0.772   4.059   7.500  0.6486 -0.3015  0.7723
  167SAPS   H3R18853   0.860   4.124   7.479 -1.1121  1.7993 -0.4082
  167SAPS   H3S18854   0.672   4.107   7.495  0.6372 -0.3208  0.8152
  167SAPS   C2418855   0.770   3.960   7.377  0.7413  0.4114  0.5968
  167SAPS   H4R18856   0.876   3.925   7.373  0.5162 -0.2277 -0.0014
  167SAPS   H4S18857   0.751   4.017   7.284 -5.0999 -0.4801  0.8948
  167SAPS   C2518858   0.674   3.849   7.406 -0.1872 -0.1028 -0.6792
  167SAPS   H5R18859   0.715   3.769   7.469  2.5278  1.9917  0.4256
  167SAPS   C2618860   0.551   3.836   7.352 -0.0750 -0.6063 -0.1728
  167SAPS   H6R18861   0.488   3.752   7.386 -2.1398  0.4071 -1.2948
  167SAPS   C2718862   0.486   3.934   7.261 -0.3807 -0.1474 -0.4476
  167SAPS   H7R18863   0.550   4.024   7.248  3.0585 -1.8294  3.0068
  167SAPS   H7S18864   0.397   3.979   7.310  0.3708  1.2794 -0.3353
  167SAPS   C2818865   0.447   3.866   7.138  0.1143 -0.2705  0.6531
  167SAPS   H8R18866   0.366   3.795   7.158 -0.8135  0.3349 -0.7851
  167SAPS   C2918867   0.475   3.892   7.008 -0.2492  0.4564 -0.3497
  167SAPS   H9R18868   0.434   3.821   6.934 -0.7350 -1.2505  1.4600
  167SAPS  C21018869   0.569   3.996   6.945  1.0789 -0.3445  0.0976
  167SAPS  H10R18870   0.614   4.062   7.023  1.0781 -1.9571  1.5258
  167SAPS  H10S18871   0.504   4.062   6.885 -0.7063 -2.4153 -0.3688
  167SAPS  C21118872   0.674   3.943   6.860 -0.1229  0.7969  0.6909
  167SAPS  H11R18873   0.771   3.937   6.912  0.0128  1.5064  0.5306
  167SAPS  C21218874   0.670   3.920   6.727  0.0044 -0.1437 -0.8053
  167SAPS  H12R18875   0.761   3.877   6.682 -0.2575  0.1840 -1.6650
  167SAPS  C21318876   0.550   3.930   6.641  0.5104  0.0510  0.7672
  167SAPS  H13R18877   0.544   4.034   6.603  0.9351 -1.0440 -2.6044
  167SAPS  H13S18878   0.455   3.910   6.694 -0.5644  1.6082 -0.5009
  167SAPS  C21418879   0.561   3.850   6.512  0.3208 -0.2945  0.3158
  167SAPS  H14R18880   0.515   3.750   6.514 -3.4331  1.2808  1.0809
  167SAPS  C21518881   0.629   3.885   6.404 -0.0613  0.5085  0.2736
  167SAPS  H15R18882   0.623   3.827   6.311 -2.0538  0.4560  0.3935
  167SAPS  C21618883   0.714   4.005   6.380  0.5981 -0.9882 -0.9940
  167SAPS  H16R18884   0.818   3.984   6.345  1.1391 -0.7031  0.3780
  167SAPS  H16S18885   0.732   4.050   6.480  0.8159 -1.5655 -0.7663
  167SAPS  C21718886   0.678   4.120   6.278  0.0256 -0.2268  0.1393
  167SAPS  H17R18887   0.748   4.206   6.280 -2.0920  1.6361 -1.3032
  167SAPS  H17S18888   0.581   4.163   6.310 -0.5425 -2.0352  0.9914
  167SAPS  C21818889   0.658   4.066   6.135  0.3180  0.4267  0.3501
  167SAPS  H18R18890   0.572   3.996   6.129  0.6624  0.1289 -1.8938
  167SAPS  H18S18891   0.748   4.008   6.103 -0.2684  0.0319 -0.6212
  167SAPS  C21918892   0.647   4.189   6.045 -0.0344  0.0094  0.5721
  167SAPS  H19R18893   0.746   4.239   6.035 -0.2611  0.3465 -0.0535
  167SAPS  H19S18894   0.569   4.256   6.085 -0.9577 -0.6410 -0.0884
  167SAPS  C22018895   0.607   4.152   5.902 -0.0069  0.1865 -0.2126
  167SAPS  H20R18896   0.515   4.090   5.901 -0.3708  0.7228 -1.0104
  167SAPS  H20S18897   0.693   4.096   5.859 -1.0687 -0.5382 -1.4996
  167SAPS  H20T18898   0.595   4.243   5.839  0.6958  0.4169 -0.0277
  167SAPS   C3318899   0.583   3.358   7.309  0.2224 -0.0973 -0.1290
  167SAPS   H3X18900   0.503   3.415   7.362 -0.0430  0.3790 -1.0392
  167SAPS   H3Y18901   0.595   3.263   7.366  0.4416  0.5063  0.8699
  167SAPS   C3418902   0.530   3.344   7.167 -0.3033  0.3644  0.0400
  167SAPS   H4X18903   0.437   3.283   7.173 -0.2125  0.2681  0.5014
  167SAPS   H4Y18904   0.609   3.293   7.109  0.6645  1.8210  0.0442
  167SAPS   C3518905   0.487   3.482   7.110 -0.1819  0.5901  0.3063
  167SAPS   H5X18906   0.461   3.547   7.196  1.4278 -1.3681  2.4093
  167SAPS   H5Y18907   0.395   3.472   7.048 -1.4370 -0.5346  2.2472
  167SAPS   C3618908   0.596   3.532   7.017  0.3856  0.1635  0.0616
  167SAPS   H6X18909   0.691   3.530   7.074  2.2606 -1.1747 -2.8803
  167SAPS   H6Y18910   0.563   3.637   7.001  0.1379  0.0416 -0.2259
  167SAPS   C3718911   0.591   3.467   6.873 -0.0524 -0.8550  0.1942
  167SAPS   H7X18912   0.494   3.493   6.826  0.9252  0.6515 -1.1345
  167SAPS   H7Y18913   0.607   3.357   6.878  1.8997 -0.6301 -0.1012
  167SAPS   C3818914   0.704   3.528   6.784 -0.1301 -0.1217  0.8214
  167SAPS   H8X18915   0.802   3.532   6.834  0.6042  3.1238 -0.5936
  167SAPS   H8Y18916   0.672   3.631   6.757 -0.0067 -0.8990 -2.8294
  167SAPS   C3918917   0.704   3.448   6.651 -0.2860 -0.1333  0.2394
  167SAPS   H9X18918   0.602   3.462   6.608 -0.5560  0.8929  1.1778
  167SAPS   H9Y18919   0.710   3.339   6.670  2.1699 -0.1932 -0.5912
  167SAPS  C31018920   0.813   3.493   6.547  0.4377 -0.1798  0.3340
  167SAPS  H10X18921   0.912   3.453   6.574 -0.0802 -0.9382  1.1736
  167SAPS  H10Y18922   0.815   3.603   6.532 -2.4425  0.0769  1.0662
  167SAPS  C31118923   0.789   3.433   6.406  0.6923  0.3048 -0.2947
  167SAPS  H11X18924   0.686   3.453   6.370  0.5599  1.6920  0.7601
  167SAPS  H11Y18925   0.792   3.322   6.414  1.6765  0.0354 -3.2829
  167SAPS  C31218926   0.878   3.493   6.294  0.5113  0.3278 -0.4651
  167SAPS  H12X18927   0.978   3.519   6.336  0.1521 -1.3820  1.6415
  167SAPS  H12Y18928   0.842   3.596   6.271  1.0557  0.6794  0.1842
  167SAPS  C31318929   0.901   3.394   6.181 -0.9452  0.3918  0.5260
  167SAPS  H13X18930   0.801   3.362   6.144  1.0865 -3.5246 -2.3243
  167SAPS  H13Y18931   0.942   3.303   6.229 -1.0392  0.7764  1.3518
  167SAPS  C31418932   0.979   3.454   6.061  0.5174  0.1357  0.8598
  167SAPS  H14X18933   1.059   3.525   6.091 -0.0505  0.9456  0.4620
  167SAPS  H14Y18934   0.910   3.511   5.996  0.3735 -0.6525  0.3038
  167SAPS  C31518935   1.049   3.336   5.977 -0.5157 -0.5559  0.4050
  167SAPS  H15X18936   0.965   3.290   5.921 -0.1480  0.8908 -1.4279
  167SAPS  H15Y18937   1.108   3.275   6.049  2.4832  0.4451 -1.0343
  167SAPS  C31618938   1.143   3.392   5.864 -0.3986  0.2660 -0.2124
  167SAPS  H16X18939   1.218   3.457   5.913 -1.5608  1.5642 -0.0597
  167SAPS  H16Y18940   1.079   3.454   5.796 -2.9077 -0.9992  0.8699
  167SAPS  C31718941   1.209   3.277   5.787 -0.8255  0.2692  0.1428
  167SAPS  H17X18942   1.130   3.207   5.753  0.1215 -1.6297  1.6531
  167SAPS  H17Y18943   1.262   3.210   5.858 -2.6387 -0.9200  0.4580
  167SAPS  C31818944   1.296   3.321   5.661 -0.4993  0.2390 -0.0624
  167SAPS  H18X18945   1.346   3.415   5.693 -0.2065 -0.5615  1.9729
  167SAPS  H18Y18946   1.223   3.343   5.580 -0.4042  1.2591  0.1098
  167SAPS  H18Z18947   1.366   3.241   5.629 -1.8978 -0.6184 -1.0912
  168SAPS     N18948   6.028   1.581   8.051 -0.5550 -0.6111  0.4210
  168SAPS   HN118949   6.077   1.600   7.962 -1.7085  0.1051 -0.0886
  168SAPS   HN218950   6.054   1.655   8.120  0.1520 -2.9671  2.8800
  168SAPS   HN318951   6.063   1.491   8.089  2.5550  0.9059  1.4796
  168SAPS   C1218952   5.876   1.567   8.042 -0.6448 -0.0624  0.0587
  168SAPS  H12A18953   5.858   1.502   7.958  0.1601 -0.5349  0.2432
  168SAPS   C1318954   5.807   1.515   8.171 -0.1954 -0.2529 -0.2292
  168SAPS  O13A18955   5.878   1.492   8.267 -0.1016  0.7372 -0.2549
  168SAPS  O13B18956   5.683   1.488   8.170  0.0172 -0.5576  0.1103
  168SAPS   C1118957   5.806   1.707   8.010 -0.3435  0.4399 -0.1022
  168SAPS  H11A18958   5.859   1.773   8.082  1.5823  1.5614 -2.3955
  168SAPS  H11B18959   5.699   1.716   8.036 -0.2185  2.3218 -0.1303
  168SAPS     P18960   5.745   1.692   7.746  0.2331 -0.1634  0.0197
  168SAPS   O1318961   5.604   1.669   7.797  0.6264 -0.4673  0.3000
  168SAPS   O1418962   5.780   1.786   7.636  0.4419  0.3512  0.5199
  168SAPS   O1218963   5.832   1.736   7.874  0.0004  0.7178  0.4554
  168SAPS   O1118964   5.798   1.550   7.726 -0.4268 -0.2453  0.0686
  168SAPS    C118965   5.916   1.517   7.659  0.6960 -0.0491  0.7417
  168SAPS    HA18966   5.970   1.608   7.625 -0.7520  0.0823 -1.4496
  168SAPS    HB18967   5.980   1.476   7.740 -2.3060 -1.1740  2.6860
  168SAPS    C218968   5.905   1.441   7.527 -0.5026  1.0185 -0.3765
  168SAPS    HS18969   6.008   1.421   7.491 -0.5486  0.3430 -0.1612
  168SAPS   O2118970   5.828   1.511   7.431 -0.1495 -1.0824 -0.1128
  168SAPS   C2118971   5.890   1.600   7.364 -0.3100  0.4370 -0.5098
  168SAPS   O2218972   6.009   1.626   7.370 -0.9376  0.3431 -0.3431
  168SAPS   C2218973   5.792   1.662   7.262  0.0752  0.2254  0.7874
  168SAPS   H2R18974   5.682   1.660   7.279  0.0317 -0.2851  0.4664
  168SAPS   H2S18975   5.808   1.772   7.256 -0.2983  0.2001 -2.5040
  168SAPS    C318976   5.834   1.303   7.555  0.2644 -0.6496 -0.4340
  168SAPS    HX18977   5.729   1.331   7.579  1.2435  2.6148  0.6429
  168SAPS    HY18978   5.872   1.256   7.648  3.0044  0.5642 -0.8334
  168SAPS   O3118979   5.833   1.213   7.442  0.2088  0.1546 -0.3792
  168SAPS   C3118980   5.946   1.137   7.426  0.3245 -0.2414  0.1832
  168SAPS   O3218981   6.042   1.141   7.498  0.0342  0.1595  0.3022
  168SAPS   C3218982   5.951   1.074   7.284 -0.3825  0.2216 -0.7249
  168SAPS   H2X18983   5.850   1.034   7.265 -0.7819 -1.0373  3.1885
  168SAPS   H2Y18984   6.021   0.988   7.292 -1.4260 -0.4751  1.8988
  168SAPS   C2318985   5.814   1.616   7.118 -0.1013 -0.2395 -0.8643
  168SAPS   H3R18986   5.741   1.536   7.092 -2.4645  1.2610  0.7653
  168SAPS   H3S18987   5.914   1.568   7.107 -0.0780 -0.5539  0.5671
  168SAPS   C2418988   5.781   1.727   7.024  0.3498 -0.2279  0.2502
  168SAPS   H4R18989   5.820   1.698   6.924 -1.0005  0.6245 -0.5501
  168SAPS   H4S18990   5.848   1.813   7.049  1.5084 -1.4353  1.5250
  168SAPS   C2518991   5.639   1.776   7.008 -0.9798  0.5601  0.4914
  168SAPS   H5R18992   5.611   1.853   7.082  1.0687 -0.4422  2.4206
  168SAPS   C2618993   5.556   1.733   6.903  0.4925  0.1240 -0.6276
  168SAPS   H6R18994   5.455   1.778   6.904  1.0027  1.3423  0.9975
  168SAPS   C2718995   5.581   1.632   6.793  0.4965 -0.1755 -0.9753
  168SAPS   H7R18996   5.515   1.543   6.796  0.7171 -0.3748 -1.8209
  168SAPS   H7S18997   5.679   1.586   6.816 -0.8579 -2.5560  0.5180
  168SAPS   C2818998   5.566   1.697   6.657  0.5252 -0.1398 -0.6467
  168SAPS   H8R18999   5.469   1.744   6.636  0.3741 -0.1915 -0.0803
  168SAPS   C2919000   5.645   1.696   6.554 -0.0357  0.3212  1.1038
  168SAPS   H9R19001   5.614   1.761   6.471 -0.2094 -0.5075  0.5127
  168SAPS  C21019002   5.780   1.637   6.537 -0.5896  0.5112 -0.0034
  168SAPS  H10R19003   5.777   1.555   6.462 -0.8516  0.6328 -0.1271
  168SAPS  H10S19004   5.821   1.596   6.631 -0.6003  0.0022 -0.2191
  168SAPS  C21119005   5.879   1.744   6.483 -0.0379  0.4805 -0.5787
  168SAPS  H11R19006   5.915   1.812   6.562 -0.1709 -2.0575  1.8294
  168SAPS  C21219007   5.931   1.745   6.363  0.5083  0.0997 -0.4083
  168SAPS  H12R19008   5.992   1.833   6.339 -2.6072  2.4819 -0.1740
  168SAPS  C21319009   5.896   1.664   6.246 -0.1230  0.2164 -0.2658
  168SAPS  H13R19010   5.798   1.616   6.269 -0.4570  1.1261  0.2764
  168SAPS  H13S19011   5.971   1.585   6.226 -0.7521 -0.3030 -0.6433
  168SAPS  C21419012   5.884   1.748   6.115 -0.1607 -0.5352 -0.9803
  168SAPS  H14R19013   5.783   1.784   6.094 -1.4115 -2.7136  0.8079
  168SAPS  C21519014   5.970   1.754   6.021 -0.5187  0.0327  0.6034
  168SAPS  H15R19015   5.966   1.834   5.946  0.3739 -0.1961  0.2968
  168SAPS  C21619016   6.109   1.686   6.042 -0.2168 -0.2886  0.5876
  168SAPS  H16R19017   6.108   1.578   6.068  0.0846 -0.4424 -0.0146
  168SAPS  H16S19018   6.163   1.739   6.124 -1.5503 -2.8340  3.3183
  168SAPS  C21719019   6.191   1.704   5.915  0.1561 -0.2454  0.3255
  168SAPS  H17R19020   6.294   1.672   5.944  0.4842 -0.4235 -0.9706
  168SAPS  H17S19021   6.194   1.810   5.881 -3.6581 -0.1438 -0.1127
  168SAPS  C21819022   6.130   1.623   5.807 -0.3480  0.1311 -0.8178
  168SAPS  H18R19023   6.039   1.678   5.774  1.5088  2.9047 -1.6338
  168SAPS  H18S19024   6.090   1.528   5.848 -0.6485  1.8686  3.4151
  168SAPS  C21919025   6.217   1.587   5.680  0.3859  0.2928 -0.6988
  168SAPS  H19R19026   6.148   1.537   5.608 -0.6447 -2.8657  2.2116
  168SAPS  H19S19027   6.296   1.512   5.703  0.5595  0.1860 -1.5824
  168SAPS  C22019028   6.279   1.707   5.601  0.4400 -0.0322  0.1479
  168SAPS  H20R19029   6.361   1.765   5.648  1.0415  1.1059 -2.1756
  168SAPS  H20S19030   6.200   1.780   5.573  1.6634  0.7835 -1.3243
  168SAPS  H20T19031   6.308   1.686   5.497  0.3975  0.5630  0.0094
  168SAPS   C3319032   6.014   1.167   7.183 -0.1535  0.3619  0.5176
  168SAPS   H3X19033   6.077   1.109   7.113  0.4337 -0.7069  1.8819
  168SAPS   H3Y19034   6.093   1.233   7.225 -0.3380  2.1005 -1.6575
  168SAPS   C3419035   5.911   1.250   7.111 -0.4396 -0.2899  0.1164
  168SAPS   H4X19036   5.962   1.344   7.080 -0.7486 -0.1639 -0.0147
  168SAPS   H4Y19037   5.827   1.281   7.177  0.7261  2.8501  0.2909
  168SAPS   C3519038   5.838   1.180   6.997  1.0365 -0.1087  0.2481
  168SAPS   H5X19039   5.776   1.098   7.038 -0.6485  1.1051  0.2346
  168SAPS   H5Y19040   5.908   1.130   6.926 -0.3830  0.1303 -1.3953
  168SAPS   C3619041   5.753   1.280   6.913 -0.1740 -0.4491 -0.1504
  168SAPS   H6X19042   5.818   1.352   6.861  0.0294 -0.4016  0.1650
  168SAPS   H6Y19043   5.692   1.348   6.976 -0.3606  1.3640 -2.1795
  168SAPS   C3719044   5.681   1.217   6.802  0.4611 -0.0931  0.2422
  168SAPS   H7X19045   5.611   1.149   6.854 -1.1586  0.4774 -1.0845
  168SAPS   H7Y19046   5.754   1.150   6.752  0.7857  0.7264 -0.4178
  168SAPS   C3819047   5.614   1.304   6.696  0.8468 -0.9594  0.4590
  168SAPS   H8X19048   5.678   1.379   6.644  0.0532 -0.3273  0.3819
  168SAPS   H8Y19049   5.533   1.347   6.758  1.0296 -0.8197  0.6013
  168SAPS   C3919050   5.539   1.227   6.588 -0.2247 -0.1242  0.1837
  168SAPS   H9X19051   5.599   1.143   6.547 -1.0352 -1.4076  1.5405
  168SAPS   H9Y19052   5.529   1.294   6.500 -0.3647 -1.4945 -0.8786
  168SAPS  C31019053   5.409   1.158   6.628  0.6750  0.6871  0.1253
  168SAPS  H10X19054   5.332   1.226   6.671  0.1612 -0.4515  1.0478
  168SAPS  H10Y19055   5.428   1.071   6.694  0.7406 -0.0703 -0.8814
  168SAPS  C31119056   5.349   1.100   6.499 -0.7967  0.3501  0.2716
  168SAPS  H11X19057   5.283   1.014   6.523 -1.5947  0.7563 -0.3738
  168SAPS  H11Y19058   5.430   1.061   6.435  1.2846  3.2598  0.9316
  168SAPS  C31219059   5.273   1.198   6.410  0.8205 -0.4636 -0.7370
  168SAPS  H12X19060   5.348   1.276   6.385  0.9052 -0.6476 -1.0580
  168SAPS  H12Y19061   5.198   1.246   6.477  2.3254 -1.6295  1.9518
  168SAPS  C31319062   5.216   1.124   6.285 -0.5466  0.3874  0.0762
  168SAPS  H13X19063   5.118   1.174   6.272 -0.2826  1.3716  1.5636
  168SAPS  H13Y19064   5.205   1.015   6.304 -1.7769  0.3436 -0.7756
  168SAPS  C31419065   5.307   1.136   6.159  0.1983  0.0748  0.2209
  168SAPS  H14X19066   5.410   1.097   6.177 -0.3910 -0.6617  2.2736
  168SAPS  H14Y19067   5.333   1.243   6.147  0.9676  0.0250  1.2821
  168SAPS  C31519068   5.246   1.076   6.034 -0.4078  0.6767 -0.5935
  168SAPS  H15X19069   5.138   1.101   6.033 -0.8325 -0.8552  0.7556
  168SAPS  H15Y19070   5.254   0.965   6.034 -1.2607  0.5988 -1.4470
  168SAPS  C31619071   5.292   1.136   5.906 -0.0078  0.5015  0.0268
  168SAPS  H16X19072   5.401   1.154   5.912 -0.3379  2.3582  1.9401
  168SAPS  H16Y19073   5.245   1.237   5.908  0.6057  0.7907 -0.0027
  168SAPS  C31719074   5.255   1.052   5.782  0.0186 -0.2302  0.0880
  168SAPS  H17X19075   5.147   1.027   5.770  0.1054  0.3202 -2.3891
  168SAPS  H17Y19076   5.295   0.949   5.795 -1.9398 -0.9566  0.7727
  168SAPS  C31819077   5.300   1.119   5.657  0.5851 -0.5359 -0.3392
  168SAPS  H18X19078   5.396   1.170   5.680 -0.5892  1.8952 -0.6222
  168SAPS  H18Y19079   5.228   1.197   5.625  0.1312  0.3241  2.5689
  168SAPS  H18Z19080   5.324   1.037   5.585  1.7664 -0.9670  0.5026
  169SAPS     N19081   0.375   4.972   8.347  0.3080 -0.1140  0.3516
  169SAPS   HN119082   0.411   4.924   8.263 -1.1270  0.4825 -0.6368
  169SAPS   HN219083   0.408   4.936   8.439  0.5389 -0.2268  0.2223
  169SAPS   HN319084   0.272   4.957   8.337  0.0711  1.4000  0.1836
  169SAPS   C1219085   0.412   5.116   8.330 -0.3381 -0.0878  0.4551
  169SAPS  H12A19086   0.408   5.160   8.429 -1.6836  2.1265 -0.5074
  169SAPS   C1319087   0.549   5.148   8.279  0.8024 -0.0162 -0.3534
  169SAPS  O13A19088   0.631   5.057   8.246 -0.1933 -0.1576  0.7566
  169SAPS  O13B19089   0.599   5.264   8.293 -0.8082 -0.0420  0.3135
  169SAPS   C1119090   0.302   5.193   8.246 -0.3215  0.1604  0.0852
  169SAPS  H11A19091   0.344   5.296   8.252  2.7485 -0.9750  0.1209
  169SAPS  H11B19092   0.210   5.172   8.304  0.9753 -1.1754  1.7658
  169SAPS     P19093   0.149   5.210   8.049 -0.0418 -0.1236  0.1429
  169SAPS   O1319094   0.036   5.135   8.105  0.5057  0.7851 -0.5467
  169SAPS   O1419095   0.156   5.356   8.071 -0.5513 -0.1565  0.2133
  169SAPS   O1219096   0.284   5.148   8.111 -1.0036 -0.1799  0.1457
  169SAPS   O1119097   0.168   5.172   7.897  0.2432  0.2775 -0.2549
  169SAPS    C119098   0.209   5.030   7.863  0.1221  0.1559 -0.2151
  169SAPS    HA19099   0.310   5.011   7.903  0.4932 -1.4664 -1.7805
  169SAPS    HB19100   0.146   4.950   7.907  0.0414  1.6550  2.6343
  169SAPS    C219101   0.211   4.989   7.715 -0.5108  0.0936 -0.4007
  169SAPS    HS19102   0.286   5.057   7.667 -0.1939  0.2613  0.3184
  169SAPS   O2119103   0.080   4.997   7.655 -0.2808 -0.2372 -0.3792
  169SAPS   C2119104   0.074   5.015   7.525 -0.6501  0.3481 -0.1341
  169SAPS   O2219105   0.163   5.031   7.442  0.3233  0.2758 -0.1270
  169SAPS   C2219106  -0.078   5.016   7.496 -0.3765  0.2652  0.2130
  169SAPS   H2R19107  -0.114   4.914   7.523 -0.7790 -0.0882 -1.5240
  169SAPS   H2S19108  -0.130   5.089   7.562  1.0642 -1.6356  3.7562
  169SAPS    C319109   0.261   4.845   7.693 -0.1931 -0.1745 -0.7496
  169SAPS    HX19110   0.178   4.781   7.728 -0.3106  1.3175  2.0339
  169SAPS    HY19111   0.349   4.830   7.760  0.2582  0.4411 -1.1886
  169SAPS   O3119112   0.291   4.809   7.561 -0.5468 -0.0397 -0.2833
  169SAPS   C3119113   0.407   4.852   7.507  0.0895 -0.9500 -0.1449
  169SAPS   O3219114   0.487   4.922   7.570  0.2755  0.0200  0.5438
  169SAPS   C3219115   0.409   4.808   7.360 -0.3096 -0.1801  0.8675
  169SAPS   H2X19116   0.325   4.863   7.312  0.3344  0.2803  0.2561
  169SAPS   H2Y19117   0.399   4.699   7.345 -1.6950  0.0982 -0.6219
  169SAPS   C2319118  -0.103   5.045   7.349 -0.0329  0.0409  0.2132
  169SAPS   H3R19119  -0.209   5.022   7.323  0.7979 -4.2882 -0.1540
  169SAPS   H3S19120  -0.050   4.973   7.283  0.6115  1.5626 -1.0059
  169SAPS   C2419121  -0.088   5.190   7.306  0.3449 -0.0621 -0.1255
  169SAPS   H4R19122  -0.119   5.190   7.199 -0.9048 -0.1471  0.2197
  169SAPS   H4S19123   0.021   5.213   7.309  0.2909  0.3007 -0.8299
  169SAPS   C2519124  -0.172   5.295   7.374  0.9236  0.4025  0.1554
  169SAPS   H5R19125  -0.155   5.308   7.482  2.3530 -1.9810  0.2951
  169SAPS   C2619126  -0.266   5.374   7.322 -0.3181 -0.0626  0.2867
  169SAPS   H6R19127  -0.306   5.454   7.385 -0.6473 -0.0081  0.0124
  169SAPS   C2719128  -0.321   5.366   7.181  0.0030  0.4720  0.0262
  169SAPS   H7R19129  -0.409   5.299   7.172  1.4000 -1.3650 -0.3757
  169SAPS   H7S19130  -0.245   5.308   7.124  0.3638 -1.4005  2.2796
  169SAPS   C2819131  -0.345   5.506   7.121 -1.2541 -0.0137  0.5848
  169SAPS   H8R19132  -0.344   5.591   7.192  0.8458 -0.3957  1.0891
  169SAPS   C2919133  -0.341   5.540   6.987  0.0921  0.0452  0.3218
  169SAPS   H9R19134  -0.355   5.645   6.957  0.1821  0.0610  0.3342
  169SAPS  C21019135  -0.330   5.452   6.870  0.1214  0.3857  0.2307
  169SAPS  H10R19136  -0.409   5.480   6.797  0.8469 -0.9401 -1.1047
  169SAPS  H10S19137  -0.352   5.345   6.890  1.1271  0.4959  2.1846
  169SAPS  C21119138  -0.202   5.477   6.792  0.2302 -0.1268 -0.0693
  169SAPS  H11R19139  -0.187   5.580   6.758 -0.1923  0.4035  1.2982
  169SAPS  C21219140  -0.100   5.390   6.784  0.6121 -0.1151 -0.4038
  169SAPS  H12R19141  -0.020   5.421   6.716  0.6034  0.4340 -0.1713
  169SAPS  C21319142  -0.097   5.246   6.833  0.2313  0.6394  0.6404
  169SAPS  H13R19143  -0.192   5.194   6.811 -0.2856  0.5847  2.8327
  169SAPS  H13S19144  -0.079   5.245   6.942  1.1927  0.4261  0.4905
  169SAPS  C21419145   0.011   5.156   6.772 -0.0913  0.6394 -0.5631
  169SAPS  H14R19146   0.095   5.126   6.836 -0.5574  0.5275  0.0015
  169SAPS  C21519147   0.006   5.095   6.650  0.2175  0.4781  0.1072
  169SAPS  H15R19148   0.088   5.025   6.630  0.6532  0.8382  0.6305
  169SAPS  C21619149  -0.095   5.130   6.543  0.3861 -0.2149 -0.5180
  169SAPS  H16R19150  -0.159   5.216   6.572  4.7966  2.7643  1.3848
  169SAPS  H16S19151  -0.146   5.033   6.522  0.6094 -0.3637 -0.3769
  169SAPS  C21719152  -0.037   5.185   6.411 -0.3613  1.3734 -0.9758
  169SAPS  H17R19153   0.058   5.134   6.386 -0.2670  1.4278 -0.7360
  169SAPS  H17S19154  -0.005   5.292   6.414  1.4416  0.9193 -2.1230
  169SAPS  C21819155  -0.133   5.169   6.297  0.5483  0.0360 -0.4166
  169SAPS  H18R19156  -0.222   5.227   6.330  2.2006  1.3120  2.0466
  169SAPS  H18S19157  -0.159   5.067   6.262  2.3032 -0.3928 -0.5521
  169SAPS  C21919158  -0.093   5.252   6.175  0.4102 -0.2656 -0.2993
  169SAPS  H19R19159  -0.087   5.358   6.209 -0.3030 -0.5320  0.7191
  169SAPS  H19S19160  -0.183   5.242   6.111 -1.7444  2.1711  2.1241
  169SAPS  C22019161   0.022   5.192   6.104  0.0384  0.3245 -0.5659
  169SAPS  H20R19162   0.003   5.086   6.074  0.4764  0.0379  0.1492
  169SAPS  H20S19163   0.107   5.187   6.175  0.3485 -0.1139 -0.9565
  169SAPS  H20T19164   0.052   5.245   6.011 -0.5736  0.8899 -0.4473
  169SAPS   C3319165   0.541   4.852   7.284  0.3664 -0.2003  0.1148
  169SAPS   H3X19166   0.593   4.772   7.227  2.8379  1.8797 -0.7291
  169SAPS   H3Y19167   0.620   4.887   7.353  0.9376 -0.6263 -0.3179
  169SAPS   C3419168   0.498   4.968   7.193  0.2379  0.2594 -0.0433
  169SAPS   H4X19169   0.583   5.036   7.173 -0.4406  0.9431 -0.6646
  169SAPS   H4Y19170   0.424   5.030   7.249 -0.1321  0.6418 -0.9276
  169SAPS   C3519171   0.438   4.921   7.057  0.4729 -1.1861 -0.3805
  169SAPS   H5X19172   0.328   4.917   7.068  0.5763 -0.7193  1.1442
  169SAPS   H5Y19173   0.477   4.817   7.052  1.6323 -0.8534  0.9292
  169SAPS   C3619174   0.488   5.001   6.940 -0.0744  0.0696  0.1985
  169SAPS   H6X19175   0.596   4.988   6.917 -0.0668  0.8701 -0.2473
  169SAPS   H6Y19176   0.482   5.110   6.963 -1.0089 -0.0200  0.4201
  169SAPS   C3719177   0.399   4.973   6.812  0.1124 -0.4811  0.1164
  169SAPS   H7X19178   0.299   5.018   6.832 -0.1302 -0.9560 -0.0148
  169SAPS   H7Y19179   0.389   4.863   6.801  0.3237 -0.3974 -1.0172
  169SAPS   C3819180   0.460   5.045   6.681  0.2629 -0.0519  0.3206
  169SAPS   H8X19181   0.564   5.008   6.670  0.4147  1.0290 -2.8618
  169SAPS   H8Y19182   0.472   5.154   6.700  1.2788 -0.0444 -0.2945
  169SAPS   C3919183   0.386   5.016   6.550  0.2669 -0.0767  0.3076
  169SAPS   H9X19184   0.283   5.054   6.565  0.0250 -0.9812  1.0362
  169SAPS   H9Y19185   0.384   4.906   6.540 -0.2886 -0.1902  1.4469
  169SAPS  C31019186   0.447   5.088   6.428 -0.4339  0.1439  0.2702
  169SAPS  H10X19187   0.553   5.116   6.446  0.3274 -3.6997  3.1145
  169SAPS  H10Y19188   0.394   5.185   6.422 -0.5224  0.3372  2.9323
  169SAPS  C31119189   0.402   5.026   6.285 -0.1774  0.1574  0.2150
  169SAPS  H11X19190   0.291   5.020   6.277 -0.2948  1.4397  0.6625
  169SAPS  H11Y19191   0.436   4.921   6.271  2.5955  1.2159 -1.7567
  169SAPS  C31219192   0.463   5.097   6.165  0.3401 -0.1156 -0.5795
  169SAPS  H12X19193   0.570   5.069   6.154  0.8485  1.1911  0.6678
  169SAPS  H12Y19194   0.449   5.207   6.175 -0.1986 -0.0308 -2.0184
  169SAPS  C31319195   0.392   5.054   6.040 -0.4970 -0.4809  0.8403
  169SAPS  H13X19196   0.281   5.056   6.047 -0.7991 -2.1387 -1.8960
  169SAPS  H13Y19197   0.416   4.949   6.011  0.1545 -0.3659  0.9539
  169SAPS  C31419198   0.439   5.139   5.922 -0.5671 -0.5059 -0.7925
  169SAPS  H14X19199   0.549   5.150   5.926 -0.5134 -1.2542  1.6742
  169SAPS  H14Y19200   0.387   5.236   5.937 -2.7512 -1.6137 -0.7577
  169SAPS  C31519201   0.397   5.076   5.784 -0.4739 -0.2956 -0.9667
  169SAPS  H15X19202   0.287   5.057   5.782 -0.1916 -2.2757 -0.2606
  169SAPS  H15Y19203   0.446   4.977   5.772  1.3598  0.3950  0.4728
  169SAPS  C31619204   0.456   5.158   5.676  0.4813 -0.2484  0.4436
  169SAPS  H16X19205   0.566   5.158   5.662  0.3434 -2.8454 -1.3557
  169SAPS  H16Y19206   0.415   5.260   5.695  0.2211 -0.2963  0.1536
  169SAPS  C31719207   0.393   5.126   5.540 -0.1531  0.3913 -0.1735
  169SAPS  H17X19208   0.423   5.205   5.467  0.9393  0.5802  0.4546
  169SAPS  H17Y19209   0.285   5.136   5.564  0.0484  2.7779  0.0109
  169SAPS  C31819210   0.423   4.989   5.471  0.3394  0.1144 -0.2520
  169SAPS  H18X19211   0.531   4.976   5.451  0.1947 -0.8785 -0.4007
  169SAPS  H18Y19212   0.387   5.002   5.367  0.0989 -0.1660 -0.2051
  169SAPS  H18Z19213   0.383   4.895   5.513  0.6232 -1.1768 -2.6986
  170SAPS     N19214   1.896   1.373   8.081  0.2630  0.2350  0.2737
  170SAPS   HN119215   1.817   1.404   8.021  0.9727 -2.1347 -2.1082
  170SAPS   HN219216   1.879   1.368   8.183  0.2494  1.6198  0.3493
  170SAPS   HN319217   1.983   1.430   8.070 -1.0245  2.1968 -0.1995
  170SAPS   C1219218   1.932   1.237   8.038  0.4558  0.7175  0.5864
  170SAPS  H12A19219   2.024   1.208   8.086  1.8652  1.5649 -1.4407
  170SAPS   C1319220   1.824   1.134   8.082 -0.1976 -0.3464  0.3248
  170SAPS  O13A19221   1.744   1.164   8.168  0.3502 -0.3558  0.3520
  170SAPS  O13B19222   1.858   1.013   8.061  0.1880 -0.3471  0.6841
  170SAPS   C1119223   1.950   1.245   7.874  0.1386  0.5169 -0.2787
  170SAPS  H11A19224   1.851   1.247   7.823  0.1059  0.4118 -0.2216
  170SAPS  H11B19225   1.993   1.149   7.839 -0.0504 -0.3012  1.5867
  170SAPS     P19226   2.184   1.381   7.864  0.1553  0.4124  0.4228
  170SAPS   O1319227   2.221   1.527   7.872  0.6410  0.0263  0.1910
  170SAPS   O1419228   2.227   1.292   7.971  0.0444 -0.2644  0.2526
  170SAPS   O1219229   2.027   1.360   7.837  0.4189  0.0212 -0.6246
  170SAPS   O1119230   2.255   1.325   7.735  0.2570  0.5731 -0.5732
  170SAPS    C119231   2.238   1.387   7.598  0.6791  0.1768  0.3496
  170SAPS    HA19232   2.244   1.498   7.594  1.3987  0.2098  1.8343
  170SAPS    HB19233   2.312   1.344   7.527  1.6723 -0.6687  1.8455
  170SAPS    C219234   2.104   1.349   7.522 -0.3781  0.1383 -0.3504
  170SAPS    HS19235   2.010   1.381   7.571 -0.7622 -1.7811  0.2630
  170SAPS   O2119236   2.102   1.208   7.506  0.1905  0.3782 -0.1343
  170SAPS   C2119237   1.976   1.150   7.502  0.0549  0.3008  0.1871
  170SAPS   O2219238   1.874   1.207   7.529 -0.1545 -0.4855 -0.4032
  170SAPS   C2219239   1.984   1.010   7.457  0.8912  0.2545  0.3866
  170SAPS   H2R19240   2.003   1.010   7.348 -1.3397  1.5793 -0.0415
  170SAPS   H2S19241   2.062   0.947   7.505 -0.7621 -2.0021  0.2749
  170SAPS    C319242   2.119   1.423   7.385 -0.2275  0.3536 -0.0420
  170SAPS    HX19243   2.208   1.378   7.336  0.3656 -0.7881  1.9771
  170SAPS    HY19244   2.146   1.530   7.400 -0.8490  0.5271 -0.1036
  170SAPS   O3119245   2.001   1.419   7.310  0.5290 -0.2330  0.7406
  170SAPS   C3119246   2.001   1.353   7.196 -0.5749  0.8818  0.1126
  170SAPS   O3219247   2.103   1.316   7.139  0.1193  0.0694  0.3557
  170SAPS   C3219248   1.858   1.323   7.155 -0.0538  0.5044 -0.6292
  170SAPS   H2X19249   1.806   1.421   7.168 -0.8093 -0.0699  0.9719
  170SAPS   H2Y19250   1.815   1.245   7.221  2.7321  0.4461  1.2880
  170SAPS   C2319251   1.840   0.937   7.465 -0.1854 -0.5905 -0.2644
  170SAPS   H3R19252   1.754   0.997   7.428  1.3699  1.2662 -1.0540
  170SAPS   H3S19253   1.826   0.924   7.574  1.9291 -1.6063 -0.0592
  170SAPS   C2419254   1.839   0.797   7.405 -0.3692  0.1168  0.2700
  170SAPS   H4R19255   1.759   0.736   7.452 -0.5749  0.1814  0.0040
  170SAPS   H4S19256   1.940   0.754   7.422  0.1202  1.4155  0.7726
  170SAPS   C2519257   1.835   0.814   7.256  0.2352  0.8928  0.5858
  170SAPS   H5R19258   1.760   0.889   7.225  1.5260  1.1920 -2.1923
  170SAPS   C2619259   1.902   0.748   7.158  0.4483 -0.5708 -0.6079
  170SAPS   H6R19260   1.876   0.782   7.057 -0.4378 -2.1436 -0.9427
  170SAPS   C2719261   1.996   0.632   7.159 -0.4529 -0.0968 -0.0971
  170SAPS   H7R19262   2.026   0.603   7.262  0.2174  0.2073 -0.2036
  170SAPS   H7S19263   2.093   0.644   7.107  0.4684 -0.0270  1.5537
  170SAPS   C2819264   1.917   0.509   7.113 -0.0871 -0.2678  0.2395
  170SAPS   H8R19265   1.816   0.491   7.152  0.3933  0.0298  1.6751
  170SAPS   C2919266   1.956   0.418   7.020  0.1988  0.0834  0.1450
  170SAPS   H9R19267   1.885   0.344   6.980  0.7784  1.3408 -3.6391
  170SAPS  C21019268   2.088   0.396   6.953 -0.0762  0.3958 -0.4799
  170SAPS  H10R19269   2.155   0.353   7.030 -0.7188  1.3566  0.6461
  170SAPS  H10S19270   2.130   0.495   6.923 -1.7021  0.3707 -3.2089
  170SAPS  C21119271   2.069   0.296   6.837 -0.4564 -0.1442  0.6467
  170SAPS  H11R19272   2.043   0.192   6.859 -0.3277 -0.2554  0.2751
  170SAPS  C21219273   2.064   0.320   6.701 -0.0999 -0.4653 -0.4216
  170SAPS  H12R19274   2.046   0.238   6.629 -3.0732 -1.0912  0.8560
  170SAPS  C21319275   2.084   0.457   6.631  0.3123  0.5971  0.2618
  170SAPS  H13R19276   2.193   0.482   6.625  0.1714  1.4189  0.9732
  170SAPS  H13S19277   2.050   0.530   6.707  0.9845 -1.8160  3.0797
  170SAPS  C21419278   2.006   0.484   6.508 -0.5279 -0.5046  0.1368
  170SAPS  H14R19279   1.904   0.443   6.513 -0.8767  0.4454  1.2985
  170SAPS  C21519280   2.035   0.542   6.389 -0.9703 -0.3195  0.7554
  170SAPS  H15R19281   1.960   0.550   6.310  0.1272  1.0704 -0.2023
  170SAPS  C21619282   2.165   0.608   6.364  0.0726  0.5953 -0.1397
  170SAPS  H16R19283   2.228   0.528   6.320 -0.5579  0.6700 -1.2100
  170SAPS  H16S19284   2.214   0.636   6.459 -2.0339 -0.7767  1.4382
  170SAPS  C21719285   2.157   0.736   6.289 -0.7477 -0.0033  0.1871
  170SAPS  H17R19286   2.262   0.774   6.291 -1.6012  2.5054  1.7383
  170SAPS  H17S19287   2.091   0.808   6.342 -1.0234  1.6205 -2.2049
  170SAPS  C21819288   2.125   0.725   6.140  0.2633  0.2487 -0.6294
  170SAPS  H18R19289   2.034   0.665   6.120 -0.1900  0.6286  0.2687
  170SAPS  H18S19290   2.208   0.672   6.088  1.8051  0.7722  1.1838
  170SAPS  C21919291   2.106   0.853   6.056 -0.4963  0.0594 -0.2582
  170SAPS  H19R19292   2.189   0.921   6.085 -0.6093  0.0704  0.0445
  170SAPS  H19S19293   2.014   0.907   6.084 -1.2089 -0.6688 -1.1388
  170SAPS  C22019294   2.116   0.829   5.902 -0.4617 -0.0968 -0.2140
  170SAPS  H20R19295   2.108   0.924   5.845 -2.9311 -0.4931 -0.6374
  170SAPS  H20S19296   2.040   0.761   5.858  1.9114 -2.2076 -1.3410
  170SAPS  H20T19297   2.213   0.780   5.880  0.3507  0.9023  0.9936
  170SAPS   C3319298   1.858   1.283   7.005  0.3815 -0.5863  0.7670
  170SAPS   H3X19299   1.897   1.181   6.987  1.5681 -0.0222  0.0379
  170SAPS   H3Y19300   1.920   1.354   6.946  0.5610 -2.0670 -0.9214
  170SAPS   C3419301   1.714   1.289   6.946 -0.0695 -0.4053 -0.0733
  170SAPS   H4X19302   1.684   1.394   6.968 -1.7010 -0.8452 -0.0888
  170SAPS   H4Y19303   1.649   1.214   6.994 -0.8747  0.0595 -0.4183
  170SAPS   C3519304   1.714   1.261   6.801 -0.2146 -0.6060  0.4457
  170SAPS   H5X19305   1.723   1.151   6.788  0.4917 -0.4306 -0.7595
  170SAPS   H5Y19306   1.802   1.306   6.750 -0.6157  1.5810  1.5718
  170SAPS   C3619307   1.593   1.299   6.718  0.0191 -0.0010 -0.4087
  170SAPS   H6X19308   1.560   1.403   6.739 -0.8612 -0.3185 -0.2253
  170SAPS   H6Y19309   1.501   1.237   6.726  1.2529 -1.6946  1.5725
  170SAPS   C3719310   1.628   1.286   6.566 -0.4521 -0.3099 -0.5937
  170SAPS   H7X19311   1.674   1.186   6.549  1.9685  1.0366 -2.7119
  170SAPS   H7Y19312   1.707   1.362   6.550  0.0110 -1.2359 -3.1409
  170SAPS   C3819313   1.507   1.314   6.474 -0.1380 -0.0252 -0.6027
  170SAPS   H8X19314   1.469   1.419   6.479 -0.8048 -0.1993 -1.7026
  170SAPS   H8Y19315   1.428   1.245   6.511  1.1589 -0.9410  0.5465
  170SAPS   C3919316   1.543   1.283   6.330  0.1703 -0.0735  0.1037
  170SAPS   H9X19317   1.565   1.175   6.317  0.5659 -0.3876  2.8280
  170SAPS   H9Y19318   1.635   1.340   6.303  1.7815 -1.9817  1.2298
  170SAPS  C31019319   1.442   1.336   6.233 -0.3788  0.0331  0.1082
  170SAPS  H10X19320   1.442   1.446   6.249 -0.9163  0.1433 -0.6158
  170SAPS  H10Y19321   1.339   1.302   6.258 -0.0525 -1.4935 -0.5316
  170SAPS  C31119322   1.483   1.300   6.083  0.4097 -0.9195  0.1053
  170SAPS  H11X19323   1.483   1.189   6.074 -0.6239 -0.8803 -0.6296
  170SAPS  H11Y19324   1.587   1.336   6.071  0.3486  0.6535  3.3166
  170SAPS  C31219325   1.384   1.360   5.989  0.7190  0.4318  0.6008
  170SAPS  H12X19326   1.367   1.468   6.008  0.6404  0.4302  0.5411
  170SAPS  H12Y19327   1.285   1.309   5.998  0.8257  0.1532  0.2008
  170SAPS  C31319328   1.418   1.331   5.834 -0.2270 -0.9932  0.4954
  170SAPS  H13X19329   1.408   1.226   5.800  1.2088 -1.1974  0.6586
  170SAPS  H13Y19330   1.527   1.340   5.816 -0.2071 -2.2545 -0.1305
  170SAPS  C31419331   1.348   1.430   5.741  0.2264  0.4254 -0.0476
  170SAPS  H14X19332   1.391   1.528   5.770 -1.3084  0.5082  2.2072
  170SAPS  H14Y19333   1.239   1.431   5.762 -0.1383 -0.4834 -1.6954
  170SAPS  C31519334   1.377   1.412   5.588  0.3810 -0.0413  0.1339
  170SAPS  H15X19335   1.336   1.313   5.559 -1.2000  0.0939  1.7494
  170SAPS  H15Y19336   1.485   1.404   5.563  0.1461  0.0281 -0.9450
  170SAPS  C31619337   1.321   1.519   5.500 -0.0850 -0.6254 -0.1055
  170SAPS  H16X19338   1.374   1.611   5.533 -0.0180 -0.6790 -0.0653
  170SAPS  H16Y19339   1.212   1.533   5.520  0.0874 -1.3040  1.4137
  170SAPS  C31719340   1.340   1.502   5.352  0.5954  0.5555 -0.0675
  170SAPS  H17X19341   1.298   1.401   5.337  1.8206 -0.3240  1.9697
  170SAPS  H17Y19342   1.447   1.496   5.321  0.2123 -0.7699 -1.2169
  170SAPS  C31819343   1.280   1.612   5.257 -0.2116 -1.0951  0.2370
  170SAPS  H18X19344   1.170   1.618   5.264 -0.1308  0.0003  0.6207
  170SAPS  H18Y19345   1.304   1.596   5.149  0.5677 -0.5113  0.3122
  170SAPS  H18Z19346   1.309   1.713   5.293  1.5830 -1.0643 -1.1367
  171SAPS     N19347   3.024   2.043   7.579 -1.2538  0.2931  0.3342
  171SAPS   HN119348   3.107   1.992   7.543 -2.2062 -1.2650  0.2828
  171SAPS   HN219349   2.947   1.976   7.598 -0.2210 -0.3491  2.6462
  171SAPS   HN319350   2.992   2.111   7.507 -0.9431  0.9950  0.8352
  171SAPS   C1219351   3.054   2.118   7.703 -0.5587  0.3022  0.0387
  171SAPS  H12A19352   2.979   2.196   7.706  2.0961  3.0574  0.8962
  171SAPS   C1319353   3.029   2.054   7.843  0.0731 -0.5388  0.6877
  171SAPS  O13A19354   3.005   1.931   7.862  0.0542 -0.5019 -0.3688
  171SAPS  O13B19355   3.061   2.128   7.940  0.1073 -0.2217 -0.8237
  171SAPS   C1119356   3.207   2.166   7.693  0.1382  0.5420  0.4741
  171SAPS  H11A19357   3.281   2.085   7.714 -1.1852 -0.7377  0.3387
  171SAPS  H11B19358   3.221   2.244   7.770 -0.4030  0.0644  1.0606
  171SAPS     P19359   3.247   2.364   7.517 -0.3467 -0.1218 -0.2402
  171SAPS   O1319360   3.145   2.440   7.590 -0.5718 -0.1879 -0.6913
  171SAPS   O1419361   3.384   2.406   7.531 -0.5374 -0.1272  0.0304
  171SAPS   O1219362   3.234   2.213   7.561 -0.1294 -0.1389  0.2567
  171SAPS   O1119363   3.215   2.355   7.363  0.3564 -0.0593 -0.0010
  171SAPS    C119364   3.154   2.465   7.300  0.2177  0.0489 -0.5310
  171SAPS    HA19365   3.216   2.555   7.323  0.1317  0.5463 -2.1384
  171SAPS    HB19366   3.172   2.448   7.191  1.7963 -0.9584 -0.1530
  171SAPS    C219367   3.006   2.490   7.325  0.4748  0.0108 -0.4070
  171SAPS    HS19368   2.980   2.490   7.433  1.6169 -0.7989 -0.1143
  171SAPS   O2119369   2.919   2.395   7.257  0.8127 -0.2812  0.2109
  171SAPS   C2119370   2.891   2.278   7.310  0.4126  0.4042 -0.0051
  171SAPS   O2219371   2.927   2.243   7.422  0.3414  0.4930  0.5533
  171SAPS   C2219372   2.815   2.200   7.200  0.6046  0.3930  0.0929
  171SAPS   H2R19373   2.738   2.130   7.239  1.4358 -0.1756  0.7396
  171SAPS   H2S19374   2.762   2.274   7.137 -2.4572 -1.1319  0.6651
  171SAPS    C319375   2.972   2.635   7.276 -0.3977  0.1435  0.3808
  171SAPS    HX19376   3.032   2.705   7.339  0.6646 -1.0008  0.6929
  171SAPS    HY19377   2.867   2.657   7.304 -0.9425  0.6575 -1.8456
  171SAPS   O3119378   2.999   2.653   7.134  0.6238 -0.0815 -0.4012
  171SAPS   C3119379   2.895   2.635   7.055  0.3990  0.9609  0.2495
  171SAPS   O3219380   2.781   2.610   7.088  0.2087 -0.5343  0.0688
  171SAPS   C3219381   2.937   2.648   6.906  0.5827  0.1623 -0.2804
  171SAPS   H2X19382   3.014   2.568   6.895 -0.9271 -1.5244  0.9388
  171SAPS   H2Y19383   2.982   2.749   6.901 -1.8049  1.6084  3.4621
  171SAPS   C2319384   2.904   2.106   7.105 -0.4262  0.3414 -0.9183
  171SAPS   H3R19385   2.965   2.061   7.187 -4.1115 -1.5845  1.0425
  171SAPS   H3S19386   2.968   2.167   7.038 -1.0006  2.4198  0.3591
  171SAPS   C2419387   2.828   2.006   7.023  0.0598  0.4142 -0.4587
  171SAPS   H4R19388   2.754   2.060   6.959  0.5707 -2.2405 -3.5610
  171SAPS   H4S19389   2.768   1.930   7.078  0.7809  1.7865  2.3695
  171SAPS   C2519390   2.916   1.922   6.943  0.0536 -0.5789 -0.8217
  171SAPS   H5R19391   2.991   1.863   6.996 -1.6003 -1.6989  0.3399
  171SAPS   C2619392   2.910   1.901   6.805 -0.4552 -0.2904 -0.0375
  171SAPS   H6R19393   2.988   1.836   6.765  2.2364  0.7141  3.0753
  171SAPS   C2719394   2.804   1.951   6.714 -0.6360 -0.2825  0.0463
  171SAPS   H7R19395   2.727   2.010   6.769  0.4416  2.2770 -1.0325
  171SAPS   H7S19396   2.760   1.862   6.663  1.1008 -1.5018  0.5995
  171SAPS   C2819397   2.854   2.041   6.605 -0.3267  0.0417 -0.1963
  171SAPS   H8R19398   2.870   2.144   6.639  0.2283 -0.9480  2.8774
  171SAPS   C2919399   2.882   2.010   6.479 -0.0430  0.5572 -0.1805
  171SAPS   H9R19400   2.919   2.088   6.411 -1.0721 -0.9272 -2.5996
  171SAPS  C21019401   2.871   1.869   6.422 -0.5965  0.3740  0.4732
  171SAPS  H10R19402   2.783   1.853   6.357  1.3522  0.4982 -2.3721
  171SAPS  H10S19403   2.852   1.800   6.507  0.1026 -0.5793 -0.1319
  171SAPS  C21119404   2.994   1.827   6.355 -0.2733  0.3429  0.5578
  171SAPS  H11R19405   3.076   1.776   6.407 -0.7068  0.3796  1.2786
  171SAPS  C21219406   3.005   1.824   6.217  0.8734  0.1763 -1.2437
  171SAPS  H12R19407   3.097   1.784   6.173  1.2816 -1.4042  0.8982
  171SAPS  C21319408   2.910   1.871   6.108 -0.6882 -0.9264 -0.8417
  171SAPS  H13R19409   2.815   1.817   6.126 -1.8694  1.2183 -0.2870
  171SAPS  H13S19410   2.961   1.836   6.015  0.8224 -2.4868  0.5154
  171SAPS  C21419411   2.883   2.018   6.106 -0.6392 -0.2774  0.0186
  171SAPS  H14R19412   2.876   2.058   6.208  0.5808  0.6878 -0.2354
  171SAPS  C21519413   2.840   2.089   5.999  0.7298  0.1506  0.0021
  171SAPS  H15R19414   2.828   2.198   6.012 -0.5723  0.3043 -2.0199
  171SAPS  C21619415   2.817   2.042   5.861 -0.1657 -0.0427  0.1577
  171SAPS  H16R19416   2.820   1.931   5.858 -0.1856 -0.0299 -0.4063
  171SAPS  H16S19417   2.906   2.080   5.806  0.1092 -2.3464 -1.0880
  171SAPS  C21719418   2.683   2.103   5.812 -0.0977  0.4372  0.2276
  171SAPS  H17R19419   2.680   2.212   5.834  0.3252  0.3489  0.7524
  171SAPS  H17S19420   2.589   2.063   5.855 -0.9682  0.1362 -1.8050
  171SAPS  C21819421   2.664   2.079   5.660 -0.0129  0.2441 -0.6129
  171SAPS  H18R19422   2.664   1.969   5.649  0.1998  0.1296  0.4129
  171SAPS  H18S19423   2.747   2.117   5.596 -0.9566 -1.4344 -2.9574
  171SAPS  C21919424   2.536   2.135   5.610 -0.1688 -0.1500  0.5060
  171SAPS  H19R19425   2.511   2.222   5.674 -1.7801 -0.5845  0.5138
  171SAPS  H19S19426   2.449   2.066   5.617  0.1656 -0.6190  0.1724
  171SAPS  C22019427   2.530   2.183   5.467  0.3866 -0.6935  0.0349
  171SAPS  H20R19428   2.429   2.225   5.445 -0.1668 -2.0297 -0.0495
  171SAPS  H20S19429   2.552   2.110   5.387 -1.7723  0.0715 -1.3653
  171SAPS  H20T19430   2.613   2.257   5.473  1.0833 -1.4200 -0.5288
  171SAPS   C3319431   2.824   2.609   6.802 -0.2600 -0.0691  0.2879
  171SAPS   H3X19432   2.732   2.663   6.834  0.5240  1.2601  0.4030
  171SAPS   H3Y19433   2.813   2.499   6.793  1.4050 -0.3580  1.4001
  171SAPS   C3419434   2.853   2.661   6.662  0.5612 -0.0378 -0.8486
  171SAPS   H4X19435   2.850   2.772   6.661  0.5067 -0.0234 -0.0929
  171SAPS   H4Y19436   2.782   2.631   6.583  1.6363  1.1538 -2.3413
  171SAPS   C3519437   2.999   2.622   6.612  0.1655  0.5811 -0.1992
  171SAPS   H5X19438   3.039   2.527   6.652  0.6606  0.5790 -0.7009
  171SAPS   H5Y19439   3.071   2.703   6.637  1.0542 -0.3681  0.3543
  171SAPS   C3619440   2.995   2.624   6.460 -0.0843 -0.5744 -1.0251
  171SAPS   H6X19441   3.098   2.643   6.423 -0.4414 -1.4423 -2.6182
  171SAPS   H6Y19442   2.952   2.716   6.416  2.1747  1.0318 -0.0157
  171SAPS   C3719443   2.960   2.493   6.387  0.4754 -0.1408  0.2648
  171SAPS   H7X19444   2.855   2.471   6.416  0.1399  1.1385  0.0589
  171SAPS   H7Y19445   3.028   2.408   6.411 -0.8528 -0.9522  1.3057
  171SAPS   C3819446   2.955   2.496   6.235 -0.0523 -0.0342  0.7333
  171SAPS   H8X19447   2.912   2.398   6.205  0.6954 -0.4849  1.1321
  171SAPS   H8Y19448   3.058   2.504   6.195 -0.0863 -0.8845  0.4688
  171SAPS   C3919449   2.860   2.590   6.159 -0.5703  0.0952  0.6176
  171SAPS   H9X19450   2.851   2.689   6.208  0.9069  0.1114  0.8885
  171SAPS   H9Y19451   2.757   2.549   6.168 -0.9683  0.1413 -2.5762
  171SAPS  C31019452   2.897   2.606   6.015  0.2165 -0.1828 -0.4762
  171SAPS  H10X19453   2.819   2.662   5.959 -2.0403 -1.0426  1.5832
  171SAPS  H10Y19454   2.899   2.504   5.971  2.4272 -0.5892  0.4273
  171SAPS  C31119455   3.034   2.667   5.996 -0.4909  0.1615  0.4448
  171SAPS  H11X19456   3.110   2.586   5.997 -2.8144 -2.2860 -1.9551
  171SAPS  H11Y19457   3.057   2.738   6.078 -0.8602  0.3972  0.3446
  171SAPS  C31219458   3.037   2.731   5.857 -0.5997  0.1221  0.2498
  171SAPS  H12X19459   2.956   2.804   5.834 -2.3973 -2.0342 -0.6397
  171SAPS  H12Y19460   3.018   2.648   5.785 -0.5215  1.6256 -1.5979
  171SAPS  C31319461   3.176   2.793   5.824  0.9796 -0.1624 -0.2199
  171SAPS  H13X19462   3.246   2.709   5.843 -0.4207 -0.9995  1.5373
  171SAPS  H13Y19463   3.205   2.876   5.892  0.1574  0.0559 -0.1228
  171SAPS  C31419464   3.179   2.835   5.674 -0.2031  0.6166 -0.1556
  171SAPS  H14X19465   3.138   2.748   5.619 -0.6468 -0.9542  2.4813
  171SAPS  H14Y19466   3.288   2.852   5.662  0.4067 -0.4373  3.0675
  171SAPS  C31519467   3.113   2.971   5.649 -0.2013  0.3382  0.3485
  171SAPS  H15X19468   3.186   3.038   5.699 -0.1726  1.0940 -0.6841
  171SAPS  H15Y19469   3.013   2.976   5.695  0.3819 -0.4031  1.7543
  171SAPS  C31619470   3.086   2.996   5.498 -0.1612 -1.2198  0.4238
  171SAPS  H16X19471   3.012   2.918   5.473 -0.0566 -0.7752 -1.4175
  171SAPS  H16Y19472   3.175   2.986   5.431 -1.3424 -1.4322 -1.1637
  171SAPS  C31719473   3.039   3.137   5.466  0.1281  0.0214 -0.0060
  171SAPS  H17X19474   3.123   3.200   5.502 -1.2938  0.1039  3.5702
  171SAPS  H17Y19475   2.951   3.155   5.531 -1.6158 -1.9486 -1.6901
  171SAPS  C31819476   2.983   3.151   5.325  0.6876  0.4571 -0.2894
  171SAPS  H18X19477   3.065   3.186   5.259 -1.6412 -0.0111 -3.6875
  171SAPS  H18Y19478   2.912   3.236   5.323 -1.0199 -0.9137 -0.2275
  171SAPS  H18Z19479   2.931   3.063   5.281 -0.8863  1.0649  0.2910
  172SAPS     N19480   1.643   2.318   8.203 -0.5217  0.0005  0.0244
  172SAPS   HN119481   1.697   2.239   8.163 -1.8308  0.1450 -2.2080
  172SAPS   HN219482   1.592   2.290   8.289 -1.5111 -0.7426 -0.7819
  172SAPS   HN319483   1.562   2.333   8.140 -1.2746  0.3757  1.0534
  172SAPS   C1219484   1.717   2.443   8.217 -0.2347 -0.3382 -0.8170
  172SAPS  H12A19485   1.651   2.511   8.269 -0.9430  0.2689 -2.4511
  172SAPS   C1319486   1.852   2.416   8.289  0.4850  0.0861  0.0080
  172SAPS  O13A19487   1.881   2.302   8.325 -0.5894 -0.3220  0.1793
  172SAPS  O13B19488   1.937   2.505   8.313  0.2501 -0.2124  0.0495
  172SAPS   C1119489   1.747   2.523   8.085 -0.3054 -0.5810  0.1598
  172SAPS  H11A19490   1.792   2.448   8.015  0.9898 -1.6805  2.0948
  172SAPS  H11B19491   1.813   2.605   8.120 -3.0051  1.2177  1.3637
  172SAPS     P19492   1.529   2.500   7.940  0.2104  0.0900  0.1602
  172SAPS   O1319493   1.491   2.376   8.007  0.7006 -0.8242  0.2625
  172SAPS   O1419494   1.420   2.580   7.873  0.3911  0.4951 -0.2819
  172SAPS   O1219495   1.633   2.585   8.026  0.4017 -0.9209  0.0762
  172SAPS   O1119496   1.629   2.465   7.820  0.2276  0.4225 -0.5687
  172SAPS    C119497   1.649   2.547   7.706 -0.1160  0.1814 -0.1175
  172SAPS    HA19498   1.653   2.479   7.619  0.3130  1.1095 -0.8421
  172SAPS    HB19499   1.560   2.609   7.684  0.6594  1.1912 -0.5089
  172SAPS    C219500   1.785   2.621   7.719 -0.6014  0.0874 -0.6372
  172SAPS    HS19501   1.801   2.644   7.827 -1.1548 -3.2040  0.2619
  172SAPS   O2119502   1.778   2.738   7.631 -0.1493  0.3937  0.3041
  172SAPS   C2119503   1.738   2.851   7.681 -0.3315  0.4047  0.1753
  172SAPS   O2219504   1.703   2.873   7.796  0.1151  0.6575 -0.5243
  172SAPS   C2219505   1.742   2.949   7.564 -0.7533 -0.5339 -0.1985
  172SAPS   H2R19506   1.712   2.903   7.467  1.3108 -0.5136 -0.8991
  172SAPS   H2S19507   1.679   3.037   7.591  0.6378  0.1840  0.8595
  172SAPS    C319508   1.909   2.525   7.693 -0.0230  0.1238  0.4267
  172SAPS    HX19509   1.883   2.426   7.735 -0.2628 -0.2318 -0.5237
  172SAPS    HY19510   2.000   2.556   7.747  1.0741  2.8394 -2.6552
  172SAPS   O3119511   1.937   2.498   7.551 -0.0991 -0.3743  0.3960
  172SAPS   C3119512   2.021   2.590   7.500  0.0243 -0.0962  0.6369
  172SAPS   O3219513   2.090   2.673   7.555 -0.2143 -1.0660 -0.3024
  172SAPS   C3219514   2.044   2.554   7.354  0.5556 -0.2800  0.5749
  172SAPS   H2X19515   1.966   2.480   7.324 -1.6353  1.7172  1.0420
  172SAPS   H2Y19516   2.134   2.489   7.348  0.0238 -0.9063 -2.2004
  172SAPS   C2319517   1.890   3.005   7.523 -0.1052  0.7814  0.3808
  172SAPS   H3R19518   1.951   2.918   7.489 -0.5551 -0.3314  2.2532
  172SAPS   H3S19519   1.940   3.035   7.617  1.0062  0.1690  0.0055
  172SAPS   C2419520   1.890   3.121   7.424  0.3519 -0.3970 -0.0636
  172SAPS   H4R19521   1.992   3.162   7.410 -1.5194  4.6542 -0.9163
  172SAPS   H4S19522   1.834   3.204   7.472  1.5453 -0.4500  1.5151
  172SAPS   C2519523   1.823   3.081   7.294  0.7256 -0.1151 -0.6318
  172SAPS   H5R19524   1.714   3.069   7.299  0.5307  1.4196 -0.6706
  172SAPS   C2619525   1.877   3.051   7.173 -0.1072 -0.1298  0.4118
  172SAPS   H6R19526   1.813   3.030   7.086  0.9920  1.6399 -0.8914
  172SAPS   C2719527   2.023   3.079   7.154 -0.1335 -0.5476 -0.6615
  172SAPS   H7R19528   2.074   2.991   7.199  0.1931  1.1219  2.5754
  172SAPS   H7S19529   2.061   3.163   7.217 -1.8198 -0.3972  0.2167
  172SAPS   C2819530   2.073   3.095   7.013 -0.1947 -0.2445 -0.1496
  172SAPS   H8R19531   2.160   3.031   6.991  1.5716  0.5057  3.7206
  172SAPS   C2919532   2.034   3.181   6.915 -0.8503 -0.8940 -0.6515
  172SAPS   H9R19533   2.078   3.170   6.815 -0.0905 -0.5928 -0.3576
  172SAPS  C21019534   1.937   3.297   6.926 -0.3475  1.0052  0.2908
  172SAPS  H10R19535   1.987   3.376   6.867  0.5621  0.5802  0.4885
  172SAPS  H10S19536   1.943   3.333   7.031  1.3606 -0.3948  0.7145
  172SAPS  C21119537   1.802   3.256   6.868 -0.3442 -0.2143 -0.1668
  172SAPS  H11R19538   1.741   3.194   6.935 -0.8363  1.4885  1.0258
  172SAPS  C21219539   1.767   3.261   6.735  0.0447 -0.1759  0.1492
  172SAPS  H12R19540   1.666   3.224   6.714 -0.2372  1.0381 -0.7440
  172SAPS  C21319541   1.847   3.334   6.628  0.2640 -0.3996  0.3314
  172SAPS  H13R19542   1.956   3.325   6.649  0.2670  1.4242  1.2839
  172SAPS  H13S19543   1.820   3.441   6.622  1.9393 -0.0313 -2.6953
  172SAPS  C21419544   1.827   3.283   6.486 -1.0287 -0.0937 -0.2009
  172SAPS  H14R19545   1.730   3.233   6.472 -0.8439 -0.2084 -1.1189
  172SAPS  C21519546   1.926   3.297   6.394  0.0024  0.1770 -0.3856
  172SAPS  H15R19547   1.916   3.257   6.292  1.3078  2.4135 -1.4521
  172SAPS  C21619548   2.065   3.351   6.430  0.0381  0.0376  0.1507
  172SAPS  H16R19549   2.073   3.419   6.518  0.8302 -0.1474  0.2293
  172SAPS  H16S19550   2.103   3.395   6.336 -0.5723  1.2861  0.4682
  172SAPS  C21719551   2.156   3.237   6.476 -0.2679  0.0740  0.0531
  172SAPS  H17R19552   2.146   3.154   6.402  0.8648 -0.2867  0.2876
  172SAPS  H17S19553   2.126   3.192   6.574  0.5875 -1.0084 -0.1625
  172SAPS  C21819554   2.303   3.276   6.472  0.3011 -0.6528  0.1573
  172SAPS  H18R19555   2.318   3.328   6.569 -0.2636 -1.6038  0.7668
  172SAPS  H18S19556   2.327   3.340   6.384 -0.4233  0.3379  0.6671
  172SAPS  C21919557   2.401   3.164   6.475 -0.1212  0.4447 -0.0020
  172SAPS  H19R19558   2.398   3.110   6.377  1.7990  1.2095 -0.5158
  172SAPS  H19S19559   2.371   3.096   6.558  0.2949  1.5472  1.0670
  172SAPS  C22019560   2.546   3.203   6.503  0.0832 -0.0569  0.4334
  172SAPS  H20R19561   2.548   3.247   6.605 -2.1071 -0.6763  0.7871
  172SAPS  H20S19562   2.583   3.264   6.418 -2.1510  2.2489  1.0052
  172SAPS  H20T19563   2.616   3.116   6.511  0.5979  0.1318 -1.6075
  172SAPS   C3319564   2.059   2.670   7.245 -0.5698  0.0818 -0.8606
  172SAPS   H3X19565   2.152   2.725   7.271  0.3194 -1.3313 -0.9272
  172SAPS   H3Y19566   1.978   2.744   7.262 -0.4758 -0.1321  0.6408
  172SAPS   C3419567   2.055   2.604   7.110  0.4165 -0.0296 -0.0531
  172SAPS   H4X19568   1.973   2.531   7.093  0.1974  0.2495 -0.2110
  172SAPS   H4Y19569   2.152   2.554   7.088 -0.9252 -2.5910 -0.5550
  172SAPS   C3519570   2.046   2.706   6.993  0.1512 -0.1974  0.0750
  172SAPS   H5X19571   2.136   2.769   7.012  0.9746 -1.0662 -0.8283
  172SAPS   H5Y19572   1.952   2.765   7.002  0.1608 -0.0437 -0.7579
  172SAPS   C3619573   2.045   2.639   6.852 -0.7794  0.3749  0.0698
  172SAPS   H6X19574   1.963   2.565   6.839 -0.3353  0.1110 -1.3201
  172SAPS   H6Y19575   2.143   2.586   6.855 -0.5027  0.8728 -0.0205
  172SAPS   C3719576   2.033   2.750   6.753  0.3716  0.0876  0.6656
  172SAPS   H7X19577   2.059   2.700   6.658 -0.8508 -1.1877  0.9708
  172SAPS   H7Y19578   2.119   2.817   6.773  1.7407 -1.0509 -1.0790
  172SAPS   C3819579   1.897   2.813   6.727 -0.4273 -1.1936  0.3407
  172SAPS   H8X19580   1.858   2.867   6.816  2.7409  2.4299 -0.2413
  172SAPS   H8Y19581   1.831   2.724   6.714 -1.8723 -0.3336  1.4416
  172SAPS   C3919582   1.886   2.913   6.604 -0.1609 -0.2868  0.0160
  172SAPS   H9X19583   1.937   3.008   6.628 -0.6767  0.6859 -2.4580
  172SAPS   H9Y19584   1.779   2.943   6.604 -0.7909 -2.3490  0.5709
  172SAPS  C31019585   1.929   2.857   6.476 -0.0639 -0.5507 -0.4036
  172SAPS  H10X19586   1.888   2.755   6.462  0.2943 -0.5562 -1.5149
  172SAPS  H10Y19587   2.040   2.849   6.465 -0.0329 -1.8599  0.5268
  172SAPS  C31119588   1.872   2.930   6.357 -0.0184 -0.6769  0.5782
  172SAPS  H11X19589   1.935   2.891   6.273 -0.1659 -1.2780  0.7385
  172SAPS  H11Y19590   1.888   3.036   6.384 -2.9907 -0.4729  1.9746
  172SAPS  C31219591   1.719   2.909   6.326  0.2986 -0.1168  0.4251
  172SAPS  H12X19592   1.665   2.917   6.423  0.6244  0.2347  0.5813
  172SAPS  H12Y19593   1.691   2.808   6.289  0.7288  0.6812 -2.2914
  172SAPS  C31319594   1.665   3.019   6.226 -0.4387  0.8863  1.0093
  172SAPS  H13X19595   1.690   3.116   6.273  1.8936 -0.3361  2.4595
  172SAPS  H13Y19596   1.556   2.997   6.221 -0.5682  1.5062  0.9979
  172SAPS  C31419597   1.740   3.009   6.087 -0.2695 -0.1052  0.1390
  172SAPS  H14X19598   1.723   2.914   6.034 -1.6520  0.3740 -0.3117
  172SAPS  H14Y19599   1.850   3.002   6.097 -0.4253 -1.7710  1.0988
  172SAPS  C31519600   1.685   3.120   5.989 -0.3995 -0.4623 -0.7520
  172SAPS  H15X19601   1.684   3.208   6.058  0.7065 -0.1180 -1.1438
  172SAPS  H15Y19602   1.586   3.086   5.952 -0.6710 -0.5429  0.0257
  172SAPS  C31619603   1.771   3.154   5.872  0.3144 -0.0016 -0.0157
  172SAPS  H16X19604   1.877   3.170   5.898  0.5176 -0.4837 -0.5337
  172SAPS  H16Y19605   1.763   3.065   5.806 -0.4816  1.1300 -1.5312
  172SAPS  C31719606   1.732   3.277   5.784 -0.3323  0.6472  0.0430
  172SAPS  H17X19607   1.744   3.370   5.843  0.3607  0.5447  0.0675
  172SAPS  H17Y19608   1.625   3.259   5.760  0.0659 -0.8501 -0.7882
  172SAPS  C31819609   1.814   3.278   5.654  0.1736 -0.6251 -0.6427
  172SAPS  H18X19610   1.792   3.181   5.603 -0.2255 -2.0172  1.9785
  172SAPS  H18Y19611   1.921   3.274   5.681  0.2485 -0.7699 -0.9521
  172SAPS  H18Z19612   1.788   3.367   5.593 -2.2339 -1.0963 -0.4025
  173SAPS     N19613   4.155   0.393   3.338  0.4663  0.1635 -0.6299
  173SAPS   HN119614   4.098   0.347   3.264  1.4031 -1.3576 -0.4626
  173SAPS   HN219615   4.122   0.346   3.425 -0.4090  0.2711 -0.8895
  173SAPS   HN319616   4.119   0.490   3.342 -3.5711 -1.1748  0.9195
  173SAPS   C1219617   4.302   0.365   3.304  0.1460 -0.1965 -0.5457
  173SAPS  H12A19618   4.285   0.294   3.224 -0.6709  0.9068 -1.3888
  173SAPS   C1319619   4.365   0.493   3.239 -0.6279  0.4642  0.5550
  173SAPS  O13A19620   4.291   0.600   3.228  0.7457 -0.3334  0.1084
  173SAPS  O13B19621   4.481   0.488   3.189  0.0062 -0.5674 -0.7907
  173SAPS   C1119622   4.381   0.312   3.428 -0.3389  0.4672  0.1471
  173SAPS  H11A19623   4.386   0.396   3.500  0.4195 -0.0280  0.6935
  173SAPS  H11B19624   4.486   0.285   3.406 -0.0350  0.4162  1.5656
  173SAPS     P19625   4.307   0.058   3.413 -0.7058  0.5984  0.2795
  173SAPS   O1319626   4.212   0.064   3.299 -0.0467 -0.7874  0.1167
  173SAPS   O1419627   4.444   0.005   3.379 -0.4545  0.2989  0.0020
  173SAPS   O1219628   4.320   0.193   3.482  0.1497 -0.8867  0.1335
  173SAPS   O1119629   4.242  -0.043   3.526  0.7283 -0.3914  0.1791
  173SAPS    C119630   4.123  -0.011   3.594  0.5651 -0.8733  0.0293
  173SAPS    HA19631   4.157   0.015   3.697 -0.0646  1.8628 -0.3868
  173SAPS    HB19632   4.064   0.080   3.569  0.8577 -0.5334  0.5481
  173SAPS    C219633   4.030  -0.131   3.608 -0.0159  0.0160 -0.3302
  173SAPS    HS19634   3.957  -0.140   3.525 -1.0313 -2.3735  0.7176
  173SAPS   O2119635   3.955  -0.109   3.733  0.1156  0.5974  0.7659
  173SAPS   C2119636   3.859  -0.192   3.759  1.1594  0.2788  0.6810
  173SAPS   O2219637   3.814  -0.274   3.678  0.1645  0.2203  0.3192
  173SAPS   C2219638   3.800  -0.163   3.898  0.1858 -0.3094  0.5420
  173SAPS   H2R19639   3.848  -0.230   3.973 -3.1941 -0.7139  2.5124
  173SAPS   H2S19640   3.826  -0.059   3.927  1.9171 -1.0424  1.8407
  173SAPS    C319641   4.116  -0.260   3.631  0.0906  0.1680 -0.1763
  173SAPS    HX19642   4.162  -0.281   3.532 -2.8530  0.0147 -1.6281
  173SAPS    HY19643   4.047  -0.347   3.644 -0.8819  0.5031 -2.5867
  173SAPS   O3119644   4.207  -0.247   3.747 -0.4551 -0.0307  0.3363
  173SAPS   C3119645   4.332  -0.252   3.721  0.0268 -0.3709  0.2694
  173SAPS   O3219646   4.383  -0.282   3.617 -0.2589 -0.1201 -0.0473
  173SAPS   C3219647   4.407  -0.211   3.851  0.0367 -0.3645  0.5053
  173SAPS   H2X19648   4.370  -0.110   3.881  0.2154  0.0036 -0.4595
  173SAPS   H2Y19649   4.512  -0.195   3.817 -0.9091  2.0307 -1.6514
  173SAPS   C2319650   3.648  -0.184   3.904 -0.0132  0.7506 -0.1339
  173SAPS   H3R19651   3.627  -0.288   3.870  0.7844  0.3183  0.6676
  173SAPS   H3S19652   3.591  -0.117   3.836 -0.7913 -0.3556 -0.5964
  173SAPS   C2419653   3.587  -0.158   4.045 -0.2472 -0.1483  0.1564
  173SAPS   H4R19654   3.485  -0.199   4.034 -1.2236  2.4665 -1.2100
  173SAPS   H4S19655   3.579  -0.053   4.080 -0.5889 -0.0110 -0.3261
  173SAPS   C2519656   3.658  -0.246   4.144  0.2635 -0.2012 -0.1016
  173SAPS   H5R19657   3.723  -0.329   4.111  1.0592  0.3457  0.0675
  173SAPS   C2619658   3.651  -0.235   4.280  0.1205 -0.1920  0.1680
  173SAPS   H6R19659   3.721  -0.301   4.333 -0.2175 -1.2607 -0.6793
  173SAPS   C2719660   3.566  -0.151   4.370  0.4421 -0.1497 -0.4476
  173SAPS   H7R19661   3.533  -0.210   4.458 -0.9432 -1.6671 -1.9073
  173SAPS   H7S19662   3.476  -0.138   4.306 -0.6806 -0.4001  1.0273
  173SAPS   C2819663   3.642  -0.019   4.389 -0.4152  0.5420 -0.7292
  173SAPS   H8R19664   3.706   0.018   4.307  1.7086 -2.4259 -0.5663
  173SAPS   C2919665   3.664   0.041   4.504  0.1915  0.1898 -0.0308
  173SAPS   H9R19666   3.722   0.135   4.510 -0.0547  0.3710 -0.4300
  173SAPS  C21019667   3.609   0.005   4.640 -0.0782 -0.0218  0.2954
  173SAPS  H10R19668   3.526  -0.068   4.635  0.3590 -0.6445  1.5407
  173SAPS  H10S19669   3.548   0.085   4.687  0.4344 -0.5487  1.9410
  173SAPS  C21119670   3.711  -0.049   4.734 -0.1160  0.2366 -0.0578
  173SAPS  H11R19671   3.757  -0.137   4.686 -1.0020 -0.1080 -0.3038
  173SAPS  C21219672   3.738  -0.005   4.855  0.4833  0.6360  0.1175
  173SAPS  H12R19673   3.809  -0.059   4.920 -1.0884 -2.4761 -0.5594
  173SAPS  C21319674   3.674   0.108   4.923 -0.1790  0.0193 -0.6685
  173SAPS  H13R19675   3.639   0.076   5.023  1.3086  3.6054  1.1791
  173SAPS  H13S19676   3.593   0.150   4.860  0.6146  1.8983 -0.4918
  173SAPS  C21419677   3.786   0.212   4.937 -0.1470  0.2096  0.5013
  173SAPS  H14R19678   3.828   0.259   4.847  2.4981  0.8352  1.9559
  173SAPS  C21519679   3.833   0.262   5.050 -0.1866  0.3863 -0.3399
  173SAPS  H15R19680   3.917   0.332   5.047 -0.3043  0.5259 -0.3823
  173SAPS  C21619681   3.791   0.224   5.181 -0.7387  1.1015  0.4808
  173SAPS  H16R19682   3.688   0.183   5.182 -0.3857  0.1937  0.1454
  173SAPS  H16S19683   3.786   0.311   5.251  0.3243  0.9579  0.7474
  173SAPS  C21719684   3.894   0.123   5.247 -0.1823 -0.7140 -0.3767
  173SAPS  H17R19685   3.908   0.034   5.182  3.1718 -0.1824 -0.5196
  173SAPS  H17S19686   3.848   0.092   5.344  0.4621 -1.4917 -0.3135
  173SAPS  C21819687   4.037   0.189   5.279  0.6593  0.2707 -0.2696
  173SAPS  H18R19688   4.088   0.183   5.180  1.1795  0.2746 -0.0040
  173SAPS  H18S19689   4.093   0.129   5.354  0.2531 -0.4079 -0.5113
  173SAPS  C21919690   4.041   0.338   5.329 -0.1140 -0.3601 -0.3534
  173SAPS  H19R19691   3.969   0.358   5.412  0.2630 -1.6159  0.2912
  173SAPS  H19S19692   4.014   0.405   5.245 -1.8393 -1.7417 -0.9519
  173SAPS  C22019693   4.181   0.377   5.387 -0.6752  0.2724  0.4884
  173SAPS  H20R19694   4.183   0.330   5.487 -0.0240 -0.1525  0.2834
  173SAPS  H20S19695   4.193   0.487   5.387  0.4026  0.2011 -1.3500
  173SAPS  H20T19696   4.264   0.327   5.333  0.8632  0.1706  2.8134
  173SAPS   C3319697   4.380  -0.314   3.964 -0.3069 -0.2740  0.1647
  173SAPS   H3X19698   4.445  -0.400   3.937 -3.0836 -1.7746 -2.3038
  173SAPS   H3Y19699   4.274  -0.346   3.957  0.1953 -1.6235 -3.2996
  173SAPS   C3419700   4.418  -0.275   4.103 -0.1315  0.2048  1.1796
  173SAPS   H4X19701   4.334  -0.209   4.133  0.2813  2.4179 -2.0692
  173SAPS   H4Y19702   4.507  -0.210   4.113  0.5760 -0.0507 -2.2472
  173SAPS   C3519703   4.438  -0.400   4.196  0.3138  0.1995  0.5596
  173SAPS   H5X19704   4.541  -0.441   4.181  0.7950  1.5765  0.0217
  173SAPS   H5Y19705   4.366  -0.481   4.169 -0.8776  0.9030  1.5288
  173SAPS   C3619706   4.412  -0.376   4.346 -0.2831  0.6498 -0.5505
  173SAPS   H6X19707   4.304  -0.367   4.370 -0.8067 -2.4091 -1.2874
  173SAPS   H6Y19708   4.467  -0.282   4.369  2.2118 -0.8644  0.0253
  173SAPS   C3719709   4.478  -0.475   4.445  0.1962  0.1575  0.2878
  173SAPS   H7X19710   4.586  -0.491   4.425  0.3169 -0.2198  1.1775
  173SAPS   H7Y19711   4.434  -0.577   4.443 -0.4605  0.4508 -0.9821
  173SAPS   C3819712   4.463  -0.423   4.592  0.3492 -0.2359  0.1841
  173SAPS   H8X19713   4.353  -0.414   4.606  0.4998  0.0638  1.2569
  173SAPS   H8Y19714   4.519  -0.328   4.601  1.7955 -1.0685  0.2920
  173SAPS   C3919715   4.528  -0.521   4.690  0.2891  0.5263  0.0263
  173SAPS   H9X19716   4.631  -0.552   4.662 -0.6743 -3.4091  0.3705
  173SAPS   H9Y19717   4.470  -0.615   4.695 -0.0609  0.7516  0.2548
  173SAPS  C31019718   4.567  -0.448   4.821  0.6147 -0.3628  0.4729
  173SAPS  H10X19719   4.479  -0.389   4.855  0.6343  0.0204 -0.1257
  173SAPS  H10Y19720   4.642  -0.372   4.792  0.2822 -0.0040  0.5432
  173SAPS  C31119721   4.603  -0.532   4.941  0.1887  0.2068 -0.0079
  173SAPS  H11X19722   4.711  -0.554   4.929  0.2133  0.4953 -0.3305
  173SAPS  H11Y19723   4.532  -0.617   4.948 -0.0735  0.5040  1.1422
  173SAPS  C31219724   4.591  -0.466   5.086 -0.0429  0.3893 -0.0057
  173SAPS  H12X19725   4.490  -0.425   5.105 -0.2659  0.3424 -1.0428
  173SAPS  H12Y19726   4.666  -0.384   5.090 -0.4008  0.7329 -0.3155
  173SAPS  C31319727   4.627  -0.564   5.198  0.0509 -0.3087 -0.6369
  173SAPS  H13X19728   4.727  -0.608   5.180  0.5526  0.9338 -0.9193
  173SAPS  H13Y19729   4.554  -0.648   5.202  1.6763 -1.8659 -1.8249
  173SAPS  C31419730   4.643  -0.484   5.332 -0.3259  0.2736 -0.3147
  173SAPS  H14X19731   4.733  -0.422   5.317  0.4565  0.1706  3.0600
  173SAPS  H14Y19732   4.660  -0.563   5.408  3.3547  0.1782 -1.0847
  173SAPS  C31519733   4.516  -0.414   5.371 -0.8542  0.3160 -0.2550
  173SAPS  H15X19734   4.507  -0.318   5.316  2.9410 -0.2785 -2.2525
  173SAPS  H15Y19735   4.518  -0.392   5.480 -2.4566  0.1028 -0.1552
  173SAPS  C31619736   4.394  -0.502   5.356  0.7244  0.0049  0.1762
  173SAPS  H16X19737   4.412  -0.595   5.415  0.4750 -0.9992 -1.2675
  173SAPS  H16Y19738   4.364  -0.537   5.255  1.5472 -0.1534 -0.0170
  173SAPS  C31719739   4.276  -0.436   5.420  0.8627  0.3207 -0.1634
  173SAPS  H17X19740   4.296  -0.429   5.529 -0.9393  2.0075  0.1216
  173SAPS  H17Y19741   4.190  -0.506   5.410 -0.0515  1.1891  1.2795
  173SAPS  C31819742   4.245  -0.292   5.392  0.8770 -0.6016  0.9083
  173SAPS  H18X19743   4.233  -0.264   5.285 -0.4091 -0.0792  1.1755
  173SAPS  H18Y19744   4.316  -0.221   5.440  0.8846  0.6918 -0.9169
  173SAPS  H18Z19745   4.152  -0.260   5.444  2.5490  1.8007  2.6702
  174SAPS     N19746   2.676   4.251   2.997 -0.4747  0.1994 -0.4245
  174SAPS   HN119747   2.745   4.329   2.993 -2.1727  1.7205 -1.7243
  174SAPS   HN219748   2.715   4.165   3.041 -3.1958 -1.7225 -1.4859
  174SAPS   HN319749   2.661   4.223   2.897 -1.5385 -0.7212 -0.0317
  174SAPS   C1219750   2.548   4.295   3.074  0.3649 -0.2403 -0.1683
  174SAPS  H12A19751   2.519   4.389   3.031 -0.3659  0.3318  1.5102
  174SAPS   C1319752   2.430   4.206   3.053 -0.0481 -0.1196 -0.6013
  174SAPS  O13A19753   2.442   4.100   2.987  0.8219  0.1553  0.5876
  174SAPS  O13B19754   2.314   4.248   3.096  0.7259  0.2640  0.7150
  174SAPS   C1119755   2.584   4.308   3.227 -0.7517  0.8927  0.1676
  174SAPS  H11A19756   2.634   4.216   3.264 -1.5537  0.4472  0.1645
  174SAPS  H11B19757   2.487   4.314   3.281 -1.4113  0.2316 -0.9037
  174SAPS     P19758   2.621   4.554   3.289 -0.4280 -0.0941 -0.5195
  174SAPS   O1319759   2.725   4.664   3.270  0.9009  0.1286  0.4465
  174SAPS   O1419760   2.491   4.574   3.218 -0.2814  0.3128  0.7966
  174SAPS   O1219761   2.671   4.413   3.247 -0.4341 -0.1029 -0.0913
  174SAPS   O1119762   2.597   4.538   3.443  0.6666  0.4912 -0.5391
  174SAPS    C119763   2.710   4.528   3.532 -0.2874 -0.1473 -0.0179
  174SAPS    HA19764   2.796   4.474   3.488  0.3459 -0.0005  0.9867
  174SAPS    HB19765   2.749   4.632   3.546  2.4616 -0.9152 -1.2536
  174SAPS    C219766   2.683   4.461   3.670  0.4816 -0.4980  0.3164
  174SAPS    HS19767   2.664   4.354   3.650  1.3317 -1.1389  2.6086
  174SAPS   O2119768   2.567   4.528   3.741 -0.5352 -0.1965  0.0838
  174SAPS   C2119769   2.448   4.461   3.736  0.0375  0.6286 -0.2636
  174SAPS   O2219770   2.428   4.355   3.685  0.1799  0.0894  0.3153
  174SAPS   C2219771   2.337   4.545   3.794 -0.9337  0.5868 -0.2049
  174SAPS   H2R19772   2.375   4.630   3.856 -2.4078 -0.9812  3.1542
  174SAPS   H2S19773   2.287   4.577   3.700  0.5722 -1.5603 -1.8235
  174SAPS    C319774   2.814   4.456   3.756 -0.2812 -0.0384  0.5433
  174SAPS    HX19775   2.858   4.557   3.739 -0.1820  0.2615  2.3936
  174SAPS    HY19776   2.881   4.381   3.709  0.7416  0.2242  1.5281
  174SAPS   O3119777   2.785   4.429   3.896 -0.0763 -0.6941 -0.0325
  174SAPS   C3119778   2.725   4.317   3.927  0.2029 -0.2347  0.3786
  174SAPS   O3219779   2.726   4.221   3.846  0.5813 -0.0089  0.7210
  174SAPS   C3219780   2.660   4.317   4.065 -0.5878  0.1622  0.0442
  174SAPS   H2X19781   2.607   4.412   4.088  2.3169  1.6583  1.1499
  174SAPS   H2Y19782   2.750   4.319   4.131 -0.3490 -2.4738 -0.1240
  174SAPS   C2319783   2.241   4.461   3.889 -1.2749  0.3407  0.2702
  174SAPS   H3R19784   2.234   4.356   3.856  1.6291 -0.4180  1.7049
  174SAPS   H3S19785   2.139   4.505   3.891 -1.3948  0.0729  0.0432
  174SAPS   C2419786   2.296   4.446   4.034 -0.0670  0.7981 -0.7915
  174SAPS   H4R19787   2.395   4.399   4.017 -0.0513 -0.4565  2.2530
  174SAPS   H4S19788   2.239   4.375   4.098 -1.0457  1.6752 -0.6414
  174SAPS   C2519789   2.334   4.569   4.117  0.4719  0.1418  0.0885
  174SAPS   H5R19790   2.396   4.646   4.069  0.0124 -0.3476 -1.3509
  174SAPS   C2619791   2.279   4.595   4.235 -0.2414 -0.4228  0.6362
  174SAPS   H6R19792   2.309   4.689   4.284 -0.8114 -0.6886  1.5230
  174SAPS   C2719793   2.182   4.510   4.315 -0.0707  0.7721 -0.1969
  174SAPS   H7R19794   2.183   4.550   4.419  1.1813 -0.0646  0.1407
  174SAPS   H7S19795   2.223   4.407   4.321 -1.5722  0.0959 -0.8358
  174SAPS   C2819796   2.038   4.512   4.270  0.3545  1.0416 -0.1916
  174SAPS   H8R19797   2.042   4.515   4.160 -3.5227  2.7054 -0.4411
  174SAPS   C2919798   1.926   4.510   4.346 -0.6105 -0.2654  0.1077
  174SAPS   H9R19799   1.828   4.523   4.296 -1.0582  1.4383  1.3445
  174SAPS  C21019800   1.927   4.498   4.497  0.7473  0.0777 -0.0600
  174SAPS  H10R19801   2.025   4.509   4.548  1.5236  1.9573 -1.8161
  174SAPS  H10S19802   1.890   4.397   4.525  0.2408 -0.5227 -2.6101
  174SAPS  C21119803   1.816   4.585   4.559  0.0094  1.1732 -0.1837
  174SAPS  H11R19804   1.755   4.646   4.491 -0.8562 -0.0222 -0.5179
  174SAPS  C21219805   1.789   4.612   4.689  0.0968  0.6081  0.6142
  174SAPS  H12R19806   1.703   4.675   4.713  0.5073  0.7634  1.7598
  174SAPS  C21319807   1.860   4.555   4.804 -0.0262  0.8307 -0.3796
  174SAPS  H13R19808   1.878   4.447   4.789  0.4877  1.0922 -1.8095
  174SAPS  H13S19809   1.798   4.550   4.896  0.1756  3.1983 -0.0471
  174SAPS  C21419810   1.984   4.630   4.837 -0.5361  0.2815 -0.0930
  174SAPS  H14R19811   2.035   4.684   4.756 -0.5003  0.9126  0.3428
  174SAPS  C21519812   2.057   4.621   4.951 -0.1005  0.4261 -0.0948
  174SAPS  H15R19813   2.157   4.667   4.948 -0.5109  1.4037  0.6347
  174SAPS  C21619814   2.019   4.538   5.067  0.3187  0.0061 -0.7589
  174SAPS  H16R19815   1.934   4.475   5.035 -0.4495  0.2761  0.6984
  174SAPS  H16S19816   1.992   4.608   5.148 -1.3264 -0.4790 -0.8546
  174SAPS  C21719817   2.120   4.428   5.115 -0.2574 -0.5817 -0.5603
  174SAPS  H17R19818   2.081   4.357   5.191 -2.5473 -2.2786 -3.1264
  174SAPS  H17S19819   2.209   4.480   5.155  1.7674 -1.6710 -3.2835
  174SAPS  C21819820   2.177   4.338   5.000 -0.0317 -0.7043  0.0410
  174SAPS  H18R19821   2.280   4.307   5.027  0.6837  1.2802 -0.2010
  174SAPS  H18S19822   2.177   4.401   4.908 -1.6054  1.3159  1.3134
  174SAPS  C21919823   2.100   4.208   4.985  0.4016 -0.5163 -0.5186
  174SAPS  H19R19824   1.989   4.216   4.988  0.5411  3.1121 -0.5675
  174SAPS  H19S19825   2.130   4.160   5.081 -0.4452  0.8647  0.4746
  174SAPS  C22019826   2.136   4.124   4.864 -0.6854  0.4118 -0.7810
  174SAPS  H20R19827   2.246   4.107   4.859 -0.5866  0.3359  0.9872
  174SAPS  H20S19828   2.124   4.188   4.774  2.0975 -0.7466 -2.0949
  174SAPS  H20T19829   2.075   4.032   4.873  0.6683 -0.4307  0.2371
  174SAPS   C3319830   2.565   4.190   4.086  0.1789 -0.2745  0.2939
  174SAPS   H3X19831   2.489   4.186   4.004  0.3293 -0.7246  0.1791
  174SAPS   H3Y19832   2.504   4.226   4.172  1.4949  0.8889  0.7729
  174SAPS   C3419833   2.648   4.065   4.098  0.1245  0.1165 -0.2159
  174SAPS   H4X19834   2.734   4.086   4.164 -0.0123 -0.5537  0.1927
  174SAPS   H4Y19835   2.685   4.024   4.002 -0.4134  1.1965 -0.9030
  174SAPS   C3519836   2.579   3.950   4.174 -0.0967  0.1813 -0.4282
  174SAPS   H5X19837   2.508   3.896   4.108 -1.9042  0.3872  1.2409
  174SAPS   H5Y19838   2.520   4.001   4.253  0.9460 -2.0113  1.9320
  174SAPS   C3619839   2.682   3.855   4.241  0.1872  0.1802 -0.5612
  174SAPS   H6X19840   2.722   3.905   4.332  0.5047 -0.9960 -0.0458
  174SAPS   H6Y19841   2.767   3.835   4.173  0.3039 -0.8118 -0.1370
  174SAPS   C3719842   2.622   3.717   4.275 -0.0023  0.4729 -0.4227
  174SAPS   H7X19843   2.581   3.652   4.195  0.4652  2.0839 -2.0240
  174SAPS   H7Y19844   2.528   3.737   4.330  0.1503  0.1565 -0.0394
  174SAPS   C3819845   2.716   3.636   4.358 -0.7397 -0.3018  0.1272
  174SAPS   H8X19846   2.811   3.692   4.369 -0.2098 -0.9068 -1.1576
  174SAPS   H8Y19847   2.736   3.548   4.293  1.5312  1.9038 -2.4099
  174SAPS   C3919848   2.660   3.604   4.497 -0.4890 -0.4474 -0.6197
  174SAPS   H9X19849   2.720   3.521   4.540  1.6492 -0.3911 -3.2228
  174SAPS   H9Y19850   2.553   3.575   4.495 -0.3941 -0.8390 -0.0255
  174SAPS  C31019851   2.678   3.723   4.594 -0.6608  0.4653 -0.1047
  174SAPS  H10X19852   2.632   3.812   4.546  0.9946  0.3895 -1.9327
  174SAPS  H10Y19853   2.782   3.761   4.598 -1.5279  3.1991 -0.8676
  174SAPS  C31119854   2.612   3.705   4.732 -0.0688  0.0214  0.3372
  174SAPS  H11X19855   2.662   3.611   4.766 -1.8318 -0.6424  1.2261
  174SAPS  H11Y19856   2.506   3.672   4.722 -0.4542  0.4649  2.4511
  174SAPS  C31219857   2.637   3.818   4.826  0.7448 -1.1930  1.0359
  174SAPS  H12X19858   2.747   3.829   4.835  0.7552 -0.8038  0.4905
  174SAPS  H12Y19859   2.589   3.796   4.924 -1.1957 -0.4814  0.2766
  174SAPS  C31319860   2.579   3.959   4.781  0.5193 -0.7212  0.0967
  174SAPS  H13X19861   2.476   3.936   4.746  0.3476 -0.7617  0.6130
  174SAPS  H13Y19862   2.642   3.997   4.698 -0.7715 -0.1835 -0.6498
  174SAPS  C31419863   2.566   4.065   4.891  0.5315 -0.4048  0.0860
  174SAPS  H14X19864   2.477   4.042   4.954 -0.4871  1.4830 -0.5805
  174SAPS  H14Y19865   2.542   4.165   4.848 -2.4293 -0.9523  0.2674
  174SAPS  C31519866   2.686   4.081   4.985  0.6199  0.0249  0.1838
  174SAPS  H15X19867   2.768   4.115   4.919 -0.2240  1.1156 -0.3331
  174SAPS  H15Y19868   2.720   3.985   5.029  0.0861 -0.0652  0.4044
  174SAPS  C31619869   2.684   4.179   5.106  0.1028  0.2604  0.3757
  174SAPS  H16X19870   2.593   4.149   5.162 -0.6710 -0.8963 -1.4083
  174SAPS  H16Y19871   2.669   4.285   5.077 -1.9538 -0.6391 -2.2700
  174SAPS  C31719872   2.786   4.145   5.214  0.6533 -0.0555  0.5379
  174SAPS  H17X19873   2.887   4.158   5.170  1.6909 -2.7306  1.9017
  174SAPS  H17Y19874   2.776   4.037   5.234 -3.9254  0.0398 -0.2271
  174SAPS  C31819875   2.771   4.233   5.344  0.8103  0.7503 -0.3766
  174SAPS  H18X19876   2.831   4.172   5.415 -0.8316 -1.5186 -0.8043
  174SAPS  H18Y19877   2.668   4.228   5.385  1.4032  1.5763  1.2961
  174SAPS  H18Z19878   2.795   4.340   5.335  0.7619  0.9027  1.0796
  175SAPS     N19879   5.649   4.493   3.343  0.0510 -0.0026  0.2385
  175SAPS   HN119880   5.583   4.482   3.422  1.3135  0.9418  1.4783
  175SAPS   HN219881   5.610   4.558   3.271 -2.0952  0.7916  2.0141
  175SAPS   HN319882   5.682   4.406   3.297  0.5112  2.0418 -3.7528
  175SAPS   C1219883   5.767   4.575   3.400  0.2079 -0.1395 -0.0695
  175SAPS  H12A19884   5.790   4.539   3.499  2.2889  0.5192 -0.2744
  175SAPS   C1319885   5.898   4.569   3.312 -0.1740 -0.1429  0.3324
  175SAPS  O13A19886   5.900   4.517   3.197 -0.1865  0.3252  0.0163
  175SAPS  O13B19887   6.006   4.580   3.377  0.3050 -0.1559 -0.1798
  175SAPS   C1119888   5.722   4.718   3.419 -0.0421 -0.3511  0.2282
  175SAPS  H11A19889   5.804   4.785   3.449  0.8070 -1.3816  0.2711
  175SAPS  H11B19890   5.647   4.714   3.501  0.1782 -1.0544  0.3992
  175SAPS     P19891   5.688   4.901   3.236 -0.3413  0.4611  0.3237
  175SAPS   O1319892   5.822   4.958   3.268  0.0033  0.4295  0.1384
  175SAPS   O1419893   5.649   4.885   3.091  0.8257  0.0364 -0.5360
  175SAPS   O1219894   5.660   4.764   3.297 -0.2198  0.6253  0.0512
  175SAPS   O1119895   5.583   4.989   3.311 -0.2670  0.4352  0.5715
  175SAPS    C119896   5.443   4.979   3.298  0.2080 -0.1935  0.4189
  175SAPS    HA19897   5.399   5.080   3.292  0.2452 -0.2161 -0.2985
  175SAPS    HB19898   5.401   4.917   3.217 -0.7602 -0.9979  1.5021
  175SAPS    C219899   5.381   4.914   3.425  0.3947  0.2286 -0.1837
  175SAPS    HS19900   5.411   4.807   3.418 -1.7791 -0.9020  4.0760
  175SAPS   O2119901   5.236   4.942   3.422  0.1156 -0.4506  0.2316
  175SAPS   C2119902   5.167   4.867   3.499  0.2667  0.1474 -1.1489
  175SAPS   O2219903   5.206   4.759   3.544  0.3510  0.2354 -0.3528
  175SAPS   C2219904   5.035   4.930   3.543 -0.6582 -0.3144  0.6858
  175SAPS   H2R19905   5.069   5.035   3.555 -2.7367  0.5393 -0.3803
  175SAPS   H2S19906   4.971   4.929   3.452  0.7406  1.7164 -0.3893
  175SAPS    C319907   5.431   4.963   3.565  0.0500 -0.9522 -0.5633
  175SAPS    HX19908   5.538   4.936   3.580  0.5980  1.6858  0.7932
  175SAPS    HY19909   5.381   4.901   3.643  0.1059  0.4757  0.6602
  175SAPS   O3119910   5.415   5.106   3.582 -0.4110  0.0108 -0.1726
  175SAPS   C3119911   5.450   5.154   3.699  0.2332 -0.2274  0.2484
  175SAPS   O3219912   5.491   5.091   3.794  0.1115  0.3201 -0.8299
  175SAPS   C3219913   5.442   5.308   3.690  0.3360 -0.1587  0.3047
  175SAPS   H2X19914   5.346   5.332   3.638 -0.7746 -2.2548  1.2721
  175SAPS   H2Y19915   5.531   5.339   3.630 -1.4757  3.9378 -0.6620
  175SAPS   C2319916   4.966   4.872   3.670 -0.0113  0.4469  0.1757
  175SAPS   H3R19917   4.947   4.763   3.658  1.7072 -0.4391  3.9661
  175SAPS   H3S19918   4.869   4.926   3.672  0.7104  1.7721  2.8459
  175SAPS   C2419919   5.047   4.902   3.804 -0.1000 -0.5968 -0.5386
  175SAPS   H4R19920   5.156   4.879   3.798  0.0003 -0.1456 -0.5281
  175SAPS   H4S19921   5.006   4.843   3.889 -0.6053  0.6253  0.0952
  175SAPS   C2519922   5.028   5.046   3.832 -0.2105 -0.8679  0.3063
  175SAPS   H5R19923   4.992   5.104   3.746 -1.1015  0.7231  1.6775
  175SAPS   C2619924   5.011   5.106   3.952 -0.7412  0.6218  0.2275
  175SAPS   H6R19925   4.979   5.212   3.955 -1.5303  0.4131 -0.5217
  175SAPS   C2719926   5.044   5.035   4.083 -0.1210  0.5470  0.2895
  175SAPS   H7R19927   4.989   4.940   4.070 -0.5758  0.9435 -0.7866
  175SAPS   H7S19928   4.992   5.085   4.168 -3.1267  0.3451 -1.2863
  175SAPS   C2819929   5.193   5.015   4.116 -0.4732  0.4685  0.6462
  175SAPS   H8R19930   5.260   5.016   4.029  1.7754 -0.6756  2.2575
  175SAPS   C2919931   5.259   5.001   4.230 -0.4975  0.0129 -0.0732
  175SAPS   H9R19932   5.364   4.966   4.220 -0.6843 -0.4512 -0.4738
  175SAPS  C21019933   5.189   4.987   4.359  0.0316 -0.6481 -0.1906
  175SAPS  H10R19934   5.226   4.891   4.402  0.1236 -0.5253  0.0047
  175SAPS  H10S19935   5.079   4.990   4.350 -0.1003  1.4455  1.3691
  175SAPS  C21119936   5.226   5.108   4.447  0.0389 -1.4061  0.1738
  175SAPS  H11R19937   5.199   5.202   4.397  2.0584 -1.3965 -0.9975
  175SAPS  C21219938   5.293   5.111   4.567  0.5585  0.1975 -0.1009
  175SAPS  H12R19939   5.309   5.208   4.616 -0.2055  0.3202 -0.0854
  175SAPS  C21319940   5.339   4.990   4.647  0.1269 -0.4497  0.2880
  175SAPS  H13R19941   5.449   4.992   4.630 -0.3614  1.0231 -3.9021
  175SAPS  H13S19942   5.306   4.896   4.599 -0.2746  0.5824 -1.5756
  175SAPS  C21419943   5.288   5.003   4.789  0.0389  0.0980  0.2071
  175SAPS  H14R19944   5.179   5.012   4.798  0.0839  0.0832  0.7978
  175SAPS  C21519945   5.364   5.004   4.902 -0.2510 -0.4324  0.4030
  175SAPS  H15R19946   5.310   5.006   4.998  0.5154 -0.8194  0.8473
  175SAPS  C21619947   5.513   4.993   4.907  0.5848 -0.5543  0.3575
  175SAPS  H16R19948   5.554   5.028   4.810  2.3881  1.6045  1.8010
  175SAPS  H16S19949   5.542   4.886   4.914  3.0151  0.0713  0.8499
  175SAPS  C21719950   5.568   5.065   5.030 -0.4851  0.9550 -0.2316
  175SAPS  H17R19951   5.546   5.173   5.013  0.4747  1.4918  1.6466
  175SAPS  H17S19952   5.679   5.054   5.021 -0.4434 -0.6151  1.7437
  175SAPS  C21819953   5.527   5.003   5.166  0.3997  0.0385 -0.5100
  175SAPS  H18R19954   5.575   4.903   5.174 -1.3512 -0.7831  0.4060
  175SAPS  H18S19955   5.416   5.005   5.156  0.3438  1.4151  0.1684
  175SAPS  C21919956   5.560   5.089   5.292 -0.3477 -0.3408  0.7453
  175SAPS  H19R19957   5.520   5.192   5.286  0.7644  0.0693  0.1108
  175SAPS  H19S19958   5.670   5.078   5.302 -0.4902 -0.4251  2.4808
  175SAPS  C22019959   5.516   5.029   5.427  0.6430  1.0638 -0.1757
  175SAPS  H20R19960   5.538   4.920   5.424  0.7693  1.0531  0.8252
  175SAPS  H20S19961   5.408   5.043   5.444  0.3591  0.3614 -1.2989
  175SAPS  H20T19962   5.574   5.058   5.517 -0.2318 -0.7329  1.0247
  175SAPS   C3319963   5.439   5.377   3.832 -0.3905  0.7419  0.1915
  175SAPS   H3X19964   5.475   5.481   3.818 -0.8901  0.8508 -0.3085
  175SAPS   H3Y19965   5.509   5.309   3.886  0.7316  0.0752 -1.9759
  175SAPS   C3419966   5.304   5.362   3.905  0.0443  0.7814  0.7339
  175SAPS   H4X19967   5.279   5.255   3.916 -1.8773  1.2694  1.6499
  175SAPS   H4Y19968   5.220   5.407   3.847  0.1559 -0.9474 -0.8762
  175SAPS   C3519969   5.320   5.414   4.052  0.2631 -0.5142 -0.2071
  175SAPS   H5X19970   5.405   5.362   4.101 -0.2302 -0.7886  0.3828
  175SAPS   H5Y19971   5.230   5.382   4.110  0.5823 -0.4890  0.3071
  175SAPS   C3619972   5.357   5.561   4.061  0.1187  0.4529 -0.1759
  175SAPS   H6X19973   5.291   5.630   4.004  1.8366  0.5978 -2.1073
  175SAPS   H6Y19974   5.458   5.572   4.016  0.1204  0.3440 -0.1996
  175SAPS   C3719975   5.365   5.601   4.202 -0.6119  0.2032 -0.0893
  175SAPS   H7X19976   5.394   5.708   4.198 -0.0863  0.0810 -4.2728
  175SAPS   H7Y19977   5.441   5.539   4.254  1.9539  0.6668 -2.9532
  175SAPS   C3819978   5.232   5.597   4.275 -0.3317 -0.3632 -0.5710
  175SAPS   H8X19979   5.188   5.495   4.271 -1.5515  0.1917 -1.7701
  175SAPS   H8Y19980   5.159   5.670   4.235 -0.6983  0.1919  1.0369
  175SAPS   C3919981   5.254   5.651   4.421  0.0351  0.4415 -0.0383
  175SAPS   H9X19982   5.151   5.655   4.463  0.4320  0.4835  0.9507
  175SAPS   H9Y19983   5.301   5.751   4.413 -0.1098  0.5011 -0.1573
  175SAPS  C31019984   5.345   5.560   4.503  0.3486 -0.0611 -0.5317
  175SAPS  H10X19985   5.454   5.577   4.486  0.5049  0.2973  0.7111
  175SAPS  H10Y19986   5.340   5.452   4.481 -1.0259 -0.1346  0.0600
  175SAPS  C31119987   5.327   5.584   4.654 -0.2708  0.2415  0.2006
  175SAPS  H11X19988   5.220   5.592   4.684 -0.1344  1.3361  0.4487
  175SAPS  H11Y19989   5.384   5.676   4.678  2.5052 -1.7830  1.9045
  175SAPS  C31219990   5.385   5.480   4.756  0.7809  0.5254  0.2002
  175SAPS  H12X19991   5.496   5.483   4.747  0.8725 -0.1482  1.0838
  175SAPS  H12Y19992   5.357   5.378   4.724  1.1971  0.1777  0.9370
  175SAPS  C31319993   5.339   5.514   4.894 -0.0600  0.2436 -0.1731
  175SAPS  H13X19994   5.228   5.516   4.898 -0.0138  1.2152  1.5490
  175SAPS  H13Y19995   5.371   5.618   4.916 -2.2213  0.2789  3.5408
  175SAPS  C31419996   5.390   5.417   5.002  0.0779  0.6965  0.4535
  175SAPS  H14X19997   5.487   5.438   5.052 -0.2659 -1.2866  2.0808
  175SAPS  H14Y19998   5.409   5.321   4.949  0.7258  0.1785  1.5849
  175SAPS  C31519999   5.281   5.395   5.109  0.2924 -0.2354  0.1784
  175SAPS  H15X20000   5.320   5.329   5.188 -1.7707  1.0595  2.4193
  175SAPS  H15Y20001   5.194   5.349   5.056  0.4480  0.5701 -0.8124
  175SAPS  C31620002   5.230   5.525   5.163  0.4576 -0.0943  0.9428
  175SAPS  H16X20003   5.150   5.494   5.234 -1.9274  0.0487 -1.4715
  175SAPS  H16Y20004   5.165   5.569   5.084 -0.9550 -2.8334  0.4428
  175SAPS  C31720005   5.344   5.611   5.220  0.6557  0.4899 -0.8017
  175SAPS  H17X20006   5.371   5.675   5.133 -0.1290  1.0743 -0.6326
  175SAPS  H17Y20007   5.434   5.556   5.252  0.0267 -0.1509 -0.0937
  175SAPS  C31820008   5.290   5.702   5.336  0.1698  0.8781  0.5342
  175SAPS  H18X20009   5.357   5.788   5.358  0.4137  0.0341  3.4363
  175SAPS  H18Y20010   5.283   5.635   5.424  0.7494  0.0427 -0.0367
  175SAPS  H18Z20011   5.190   5.744   5.316  0.5799  2.1450  1.0242
  176SAPS     N20012   6.560   3.519   3.308  0.1544  0.3216  0.4089
  176SAPS   HN120013   6.573   3.609   3.359  0.0025  0.2553  0.5639
  176SAPS   HN220014   6.531   3.439   3.368 -1.8551  0.1017 -0.7515
  176SAPS   HN320015   6.648   3.488   3.262 -0.9223 -0.0023 -1.5950
  176SAPS   C1220016   6.460   3.528   3.200 -0.0716  0.8222 -0.5288
  176SAPS  H12A20017   6.378   3.592   3.230 -0.0575  0.6272 -0.0607
  176SAPS   C1320018   6.520   3.604   3.074 -0.0998 -0.3161  0.2037
  176SAPS  O13A20019   6.639   3.617   3.053 -0.0958  0.1583  0.1289
  176SAPS  O13B20020   6.436   3.658   2.996 -0.1339  0.1340  0.5901
  176SAPS   C1120021   6.405   3.389   3.145 -0.1696 -0.4695  0.4226
  176SAPS  H11A20022   6.489   3.318   3.127  0.7869  0.4772  1.0531
  176SAPS  H11B20023   6.367   3.406   3.042  0.9658 -2.7691 -0.4691
  176SAPS     P20024   6.337   3.195   3.308 -0.3563 -0.1123  0.1483
  176SAPS   O1320025   6.234   3.158   3.409  0.1160  0.0273  0.4318
  176SAPS   O1420026   6.367   3.100   3.196 -0.1214 -0.2516 -0.8241
  176SAPS   O1220027   6.307   3.338   3.241  0.1963  0.1403  0.4022
  176SAPS   O1120028   6.477   3.228   3.379 -0.2102 -0.1857 -0.0413
  176SAPS    C120029   6.566   3.129   3.416  0.0974  0.1410  0.0584
  176SAPS    HA20030   6.518   3.029   3.409 -0.1227  0.1086  1.6011
  176SAPS    HB20031   6.649   3.129   3.343 -0.4958 -0.9673 -0.6390
  176SAPS    C220032   6.628   3.136   3.556 -0.3801 -0.3419 -0.2821
  176SAPS    HS20033   6.688   3.043   3.561 -0.3486 -0.2394  2.6935
  176SAPS   O2120034   6.521   3.137   3.651  0.4616 -1.1916 -0.1614
  176SAPS   C2120035   6.449   3.025   3.662 -0.7742 -0.2659 -0.1943
  176SAPS   O2220036   6.486   2.912   3.633  0.6545  0.3281 -0.9489
  176SAPS   C2220037   6.329   3.060   3.754  0.3642  0.3640 -0.7097
  176SAPS   H2R20038   6.280   3.144   3.699 -1.1345 -0.2321 -0.3557
  176SAPS   H2S20039   6.263   2.971   3.756  2.3669 -1.1925 -1.1386
  176SAPS    C320040   6.734   3.249   3.584  0.6875  0.0931 -0.4218
  176SAPS    HX20041   6.686   3.349   3.585  0.8276  0.2435  2.5465
  176SAPS    HY20042   6.807   3.244   3.501  0.7306 -2.3369 -0.3093
  176SAPS   O3120043   6.810   3.224   3.706  0.4162 -0.0771  0.2390
  176SAPS   C3120044   6.747   3.275   3.814 -0.7266  0.1973  0.8066
  176SAPS   O3220045   6.653   3.348   3.811  0.8420 -0.0255 -0.6345
  176SAPS   C3220046   6.826   3.216   3.937 -0.1186  0.4821  0.7634
  176SAPS   H2X20047   6.935   3.216   3.916 -0.3260  0.9611 -0.3837
  176SAPS   H2Y20048   6.792   3.111   3.949  0.7741 -0.2301 -2.2503
  176SAPS   C2320049   6.364   3.108   3.896  0.5658  0.0258  0.2558
  176SAPS   H3R20050   6.270   3.133   3.949  0.0032  0.5986 -0.9675
  176SAPS   H3S20051   6.430   3.197   3.889 -0.5427  0.7892 -0.9689
  176SAPS   C2420052   6.430   2.993   3.980  0.8992  0.5445  0.0473
  176SAPS   H4R20053   6.513   2.960   3.914  1.9215  1.1498  0.9860
  176SAPS   H4S20054   6.352   2.917   3.999 -0.7887  2.3613  0.7208
  176SAPS   C2520055   6.496   3.051   4.103 -0.7096 -0.1376 -0.8414
  176SAPS   H5R20056   6.524   3.155   4.082 -1.2768 -0.1856 -1.9074
  176SAPS   C2620057   6.526   2.996   4.226  0.7986  0.6432 -0.2860
  176SAPS   H6R20058   6.592   3.053   4.293  2.5830  0.7734 -2.0586
  176SAPS   C2720059   6.475   2.855   4.273 -0.3536 -0.0746  0.0020
  176SAPS   H7R20060   6.403   2.820   4.195 -1.5814 -0.5987  1.3296
  176SAPS   H7S20061   6.401   2.853   4.356 -0.9854 -1.4153 -0.5595
  176SAPS   C2820062   6.587   2.753   4.275  0.8467 -0.2654 -0.4267
  176SAPS   H8R20063   6.623   2.733   4.173 -1.5745 -3.1650 -0.8512
  176SAPS   C2920064   6.644   2.687   4.380 -0.3108  0.9850  0.5236
  176SAPS   H9R20065   6.720   2.612   4.353 -0.7448  0.6112  0.3231
  176SAPS  C21020066   6.617   2.691   4.528 -0.2796 -1.0065 -0.0241
  176SAPS  H10R20067   6.702   2.639   4.577  0.9630 -0.5237 -1.5897
  176SAPS  H10S20068   6.525   2.630   4.546 -0.5326 -0.4975  0.4514
  176SAPS  C21120069   6.613   2.825   4.591  0.0681  0.0799 -0.8105
  176SAPS  H11R20070   6.644   2.903   4.521 -0.6551 -0.2753 -1.5482
  176SAPS  C21220071   6.571   2.860   4.714  0.4501  0.1813  0.1297
  176SAPS  H12R20072   6.572   2.969   4.731  1.8824  0.5499 -1.8994
  176SAPS  C21320073   6.522   2.773   4.833  0.0856 -0.0251  0.8422
  176SAPS  H13R20074   6.500   2.670   4.800  0.3111 -0.1331  1.0284
  176SAPS  H13S20075   6.421   2.803   4.871 -1.0878 -1.9675 -0.5660
  176SAPS  C21420076   6.637   2.785   4.933 -0.0137  0.0953 -0.2952
  176SAPS  H14R20077   6.734   2.808   4.886 -0.7779  0.3905 -1.7967
  176SAPS  C21520078   6.623   2.782   5.064  0.8453 -0.5764 -0.1249
  176SAPS  H15R20079   6.715   2.793   5.124  0.4341 -0.0846  0.4263
  176SAPS  C21620080   6.490   2.774   5.137 -0.3855 -0.4310  0.0560
  176SAPS  H16R20081   6.400   2.757   5.074  0.7077  0.0015 -1.6948
  176SAPS  H16S20082   6.472   2.875   5.177  2.2052  2.1435 -4.4127
  176SAPS  C21720083   6.493   2.652   5.224 -0.1732 -0.5618 -0.7804
  176SAPS  H17R20084   6.563   2.665   5.309 -1.2474 -1.3134  0.2492
  176SAPS  H17S20085   6.518   2.559   5.169  2.6623 -1.5493  1.8796
  176SAPS  C21820086   6.357   2.638   5.283  0.4209  0.0460  0.1877
  176SAPS  H18R20087   6.286   2.607   5.204 -0.9768 -1.1495  1.8310
  176SAPS  H18S20088   6.317   2.730   5.331 -0.8788 -1.2528  1.7422
  176SAPS  C21920089   6.352   2.524   5.391  0.0040 -0.6725  0.3795
  176SAPS  H19R20090   6.442   2.538   5.455  1.0300 -0.1456 -1.0952
  176SAPS  H19S20091   6.349   2.423   5.346 -1.4562 -1.4730  2.1859
  176SAPS  C22020092   6.217   2.525   5.460  0.1494  0.4556 -1.2057
  176SAPS  H20R20093   6.220   2.452   5.544  0.4082  1.3971 -0.3657
  176SAPS  H20S20094   6.126   2.506   5.400 -0.8141 -0.7195  0.5370
  176SAPS  H20T20095   6.200   2.622   5.512  2.2226  0.3526 -0.2566
  176SAPS   C3320096   6.801   3.295   4.068  0.3385 -0.0002 -0.0056
  176SAPS   H3X20097   6.692   3.305   4.088  0.3476  0.3498 -0.1231
  176SAPS   H3Y20098   6.845   3.396   4.053 -2.9386  1.2674 -2.1833
  176SAPS   C3420099   6.876   3.224   4.184 -0.4043 -0.1426  0.5309
  176SAPS   H4X20100   6.984   3.215   4.161 -0.0997 -2.4935  2.5052
  176SAPS   H4Y20101   6.831   3.123   4.181 -2.5607  0.7015  1.6117
  176SAPS   C3520102   6.840   3.294   4.312  0.2448  0.1811  0.2155
  176SAPS   H5X20103   6.729   3.296   4.313  0.2441  1.3994 -0.3364
  176SAPS   H5Y20104   6.879   3.398   4.317  0.8355 -0.0771  1.1219
  176SAPS   C3620105   6.862   3.218   4.442 -0.3396 -0.4086 -0.0756
  176SAPS   H6X20106   6.964   3.174   4.445  0.8090  2.1638  1.1170
  176SAPS   H6Y20107   6.791   3.132   4.442 -2.0626  0.9561  0.3280
  176SAPS   C3720108   6.818   3.291   4.569  0.7665  0.0284 -0.0964
  176SAPS   H7X20109   6.716   3.333   4.562  1.1426  0.8227 -1.0083
  176SAPS   H7Y20110   6.884   3.378   4.589  0.0344  0.4981  0.3020
  176SAPS   C3820111   6.844   3.194   4.693 -0.2015 -0.0517  0.2170
  176SAPS   H8X20112   6.952   3.169   4.691  0.2239  1.5203  1.2897
  176SAPS   H8Y20113   6.782   3.104   4.675 -0.5140  0.2432 -0.1893
  176SAPS   C3920114   6.811   3.234   4.840  0.4925  0.3350  0.0506
  176SAPS   H9X20115   6.709   3.278   4.839  1.4641  2.7576  0.2725
  176SAPS   H9Y20116   6.882   3.315   4.868 -0.0399  1.3446 -1.4010
  176SAPS  C31020117   6.820   3.117   4.931 -0.6047  0.0348  0.5437
  176SAPS  H10X20118   6.918   3.064   4.927 -0.1788  0.7328 -3.8037
  176SAPS  H10Y20119   6.752   3.031   4.907  0.2787 -0.8397  1.1070
  176SAPS  C31120120   6.785   3.149   5.079  0.0306 -0.2764  1.3413
  176SAPS  H11X20121   6.813   3.067   5.149 -1.8435 -1.4797  0.7516
  176SAPS  H11Y20122   6.675   3.157   5.091 -0.9931 -2.8134 -3.5893
  176SAPS  C31220123   6.845   3.283   5.122 -0.1063  0.1520 -0.1460
  176SAPS  H12X20124   6.795   3.373   5.081 -1.0266 -0.3237 -0.1005
  176SAPS  H12Y20125   6.954   3.275   5.102  0.2300  3.0879  0.0623
  176SAPS  C31320126   6.842   3.294   5.273  0.7047 -0.1363  0.0573
  176SAPS  H13X20127   6.921   3.369   5.300 -0.2718  1.1571 -0.5706
  176SAPS  H13Y20128   6.862   3.197   5.323 -3.6656 -0.4806  1.5610
  176SAPS  C31420129   6.703   3.341   5.331  0.4747  0.4250  0.2778
  176SAPS  H14X20130   6.641   3.249   5.333  1.9669 -0.6516 -0.5316
  176SAPS  H14Y20131   6.664   3.427   5.273 -0.5457  1.0658  1.8658
  176SAPS  C31520132   6.702   3.389   5.477 -0.2636  0.8063 -0.9487
  176SAPS  H15X20133   6.766   3.478   5.494 -1.4039  1.2722  1.4077
  176SAPS  H15Y20134   6.745   3.312   5.545  0.0683  0.2555 -1.7658
  176SAPS  C31620135   6.564   3.427   5.532  0.3981 -0.0482  0.8284
  176SAPS  H16X20136   6.496   3.344   5.501  1.6621 -0.6514 -0.4281
  176SAPS  H16Y20137   6.535   3.521   5.482  1.1275 -0.1157  0.2675
  176SAPS  C31720138   6.554   3.443   5.681  0.1046 -0.7866 -0.0920
  176SAPS  H17X20139   6.576   3.341   5.720 -0.5924 -0.5904  0.8573
  176SAPS  H17Y20140   6.450   3.477   5.702 -0.0945 -0.1466 -1.9267
  176SAPS  C31820141   6.652   3.541   5.747 -0.5857 -0.0803  0.1971
  176SAPS  H18X20142   6.754   3.497   5.750 -0.1344  0.9807  0.8028
  176SAPS  H18Y20143   6.628   3.567   5.852 -1.2099  0.3254 -0.0413
  176SAPS  H18Z20144   6.662   3.640   5.697 -1.0593 -0.6480 -1.0732
  177SAPS     N20145   6.188   5.001   2.909 -0.6784  0.5377 -0.1810
  177SAPS   HN120146   6.285   5.025   2.936  0.1216 -3.5205  1.2642
  177SAPS   HN220147   6.120   5.008   2.988 -2.2411  2.9747 -1.5928
  177SAPS   HN320148   6.188   4.901   2.879  2.3208  0.7250 -1.0654
  177SAPS   C1220149   6.141   5.076   2.790 -0.3023  0.1151 -0.2290
  177SAPS  H12A20150   6.214   5.082   2.711 -0.2674  0.3529 -0.1812
  177SAPS   C1320151   6.008   5.012   2.731 -0.5304  1.0270  0.0957
  177SAPS  O13A20152   5.969   4.900   2.780  0.0595 -0.4792  0.7354
  177SAPS  O13B20153   5.947   5.072   2.639 -0.0646 -0.0393 -0.0180
  177SAPS   C1120154   6.119   5.219   2.852  0.1317  0.7392 -0.2503
  177SAPS  H11A20155   6.057   5.207   2.943 -0.2612  0.6761 -0.5224
  177SAPS  H11B20156   6.057   5.278   2.781 -1.4553 -0.5123  0.0429
  177SAPS     P20157   6.280   5.336   3.035  0.1929  0.1883 -0.5750
  177SAPS   O1320158   6.424   5.376   3.033  0.1984  0.2614  0.0845
  177SAPS   O1420159   6.188   5.452   3.057 -0.4955  0.6630  0.7236
  177SAPS   O1220160   6.247   5.289   2.882  0.6983  0.1560 -0.6559
  177SAPS   O1120161   6.253   5.224   3.143  0.6136  0.4782 -0.9436
  177SAPS    C120162   6.121   5.224   3.207  0.3011  0.3291  0.9362
  177SAPS    HA20163   6.044   5.263   3.137  0.8618  0.2869  0.2894
  177SAPS    HB20164   6.100   5.118   3.234 -2.0077  0.5223  0.1723
  177SAPS    C220165   6.117   5.272   3.350  0.5499 -0.4636 -1.1556
  177SAPS    HS20166   6.107   5.383   3.348 -1.4920 -0.5982 -0.7374
  177SAPS   O2120167   6.218   5.221   3.441  0.5214 -0.6716 -0.1330
  177SAPS   C2120168   6.324   5.299   3.452 -0.4676 -0.5621  0.7783
  177SAPS   O2220169   6.342   5.405   3.392 -0.6173  0.2915  0.0119
  177SAPS   C2220170   6.420   5.237   3.549 -0.8343 -0.0772  0.5084
  177SAPS   H2R20171   6.352   5.191   3.623 -2.9424  1.0368 -0.6448
  177SAPS   H2S20172   6.492   5.164   3.506 -0.1562 -0.1576  1.7329
  177SAPS    C320173   5.991   5.239   3.434  0.5199 -0.2187 -0.6195
  177SAPS    HX20174   5.986   5.132   3.465 -3.0892  1.0652  4.4406
  177SAPS    HY20175   5.898   5.264   3.379 -0.1721  0.0456  0.6486
  177SAPS   O3120176   5.994   5.318   3.556 -0.3977 -0.1274 -0.0629
  177SAPS   C3120177   5.916   5.271   3.655  0.6382  0.4006  0.3164
  177SAPS   O3220178   5.843   5.174   3.641  0.1103  0.0494 -0.1716
  177SAPS   C3220179   5.921   5.355   3.786  0.4418  0.3335 -0.6537
  177SAPS   H2X20180   5.882   5.457   3.769  0.6485  0.6485  0.6146
  177SAPS   H2Y20181   6.027   5.359   3.820 -0.2089  0.2394  1.5986
  177SAPS   C2320182   6.504   5.344   3.633  0.7779 -0.4483  0.0655
  177SAPS   H3R20183   6.571   5.395   3.561  0.6381 -1.7820 -1.0587
  177SAPS   H3S20184   6.568   5.292   3.707  0.2462  0.9231  1.5499
  177SAPS   C2420185   6.424   5.449   3.714 -0.6746  0.6134  0.3952
  177SAPS   H4R20186   6.365   5.389   3.787  0.6059  0.9718  1.7747
  177SAPS   H4S20187   6.357   5.510   3.649  2.4004  2.9219 -0.8507
  177SAPS   C2520188   6.505   5.547   3.794  0.5525 -0.4110 -0.4108
  177SAPS   H5R20189   6.560   5.621   3.735 -2.0795  1.2090 -0.9773
  177SAPS   C2620190   6.521   5.546   3.929  0.5340 -0.0185  0.4353
  177SAPS   H6R20191   6.594   5.607   3.984  1.2518 -0.2913 -0.1877
  177SAPS   C2720192   6.442   5.461   4.020 -0.4043 -0.2971 -0.3561
  177SAPS   H7R20193   6.489   5.361   4.013  1.3926  0.1886  2.9220
  177SAPS   H7S20194   6.338   5.440   3.986  0.1414 -0.5421 -2.0099
  177SAPS   C2820195   6.459   5.491   4.170 -0.0375  0.0523 -0.4069
  177SAPS   H8R20196   6.525   5.419   4.220 -1.6955  0.5232  2.7691
  177SAPS   C2920197   6.395   5.581   4.247  0.4949  0.0134 -0.1786
  177SAPS   H9R20198   6.410   5.582   4.356 -0.2403  1.7242 -0.0497
  177SAPS  C21020199   6.295   5.681   4.196  0.3356  0.4440 -0.4536
  177SAPS  H10R20200   6.320   5.700   4.089 -0.9128 -1.0773 -1.0470
  177SAPS  H10S20201   6.310   5.778   4.249 -2.5260  0.7553 -0.0397
  177SAPS  C21120202   6.150   5.652   4.204  1.2241  0.2495  0.0734
  177SAPS  H11R20203   6.112   5.624   4.105 -1.1250 -0.8731  1.2233
  177SAPS  C21220204   6.065   5.645   4.315 -0.3235  0.3325  0.5284
  177SAPS  H12R20205   5.964   5.603   4.305  0.1062 -0.6559  0.2172
  177SAPS  C21320206   6.109   5.670   4.460  0.0238  0.4495 -0.1816
  177SAPS  H13R20207   6.218   5.654   4.470  0.4847  2.0461 -1.9520
  177SAPS  H13S20208   6.058   5.593   4.522  0.3272  1.3777  1.2674
  177SAPS  C21420209   6.072   5.808   4.500  0.7848  0.2843 -0.2851
  177SAPS  H14R20210   5.968   5.836   4.476 -0.7961 -2.8959  2.0455
  177SAPS  C21520211   6.151   5.910   4.554  0.2923  0.7376  1.0070
  177SAPS  H15R20212   6.101   6.008   4.556 -1.6383 -0.0823 -1.4415
  177SAPS  C21620213   6.294   5.895   4.603  0.2663  0.6971  0.5877
  177SAPS  H16R20214   6.346   5.969   4.538 -1.2499  1.2385 -0.0442
  177SAPS  H16S20215   6.339   5.796   4.581  0.1154  0.8932 -0.7287
  177SAPS  C21720216   6.306   5.936   4.752 -0.1121 -0.1516 -0.6676
  177SAPS  H17R20217   6.291   6.046   4.750  0.1261 -0.1186 -2.5443
  177SAPS  H17S20218   6.409   5.920   4.792 -0.4198  0.4443  0.4062
  177SAPS  C21820219   6.199   5.879   4.845 -0.1711 -0.5711  0.2625
  177SAPS  H18R20220   6.206   5.768   4.842  0.7692 -0.5054 -0.6663
  177SAPS  H18S20221   6.096   5.902   4.811 -0.3458 -1.6307  0.0314
  177SAPS  C21920222   6.214   5.915   4.994  0.1100  0.3382  0.0279
  177SAPS  H19R20223   6.210   6.026   4.992  1.8563  0.4324 -0.7860
  177SAPS  H19S20224   6.316   5.895   5.032 -0.4826  0.0112  1.4831
  177SAPS  C22020225   6.105   5.860   5.086 -0.0555 -0.2213  0.3397
  177SAPS  H20R20226   6.113   5.880   5.195  2.0133  1.7050 -0.0750
  177SAPS  H20S20227   6.103   5.750   5.078  0.2052 -0.2177  0.1998
  177SAPS  H20T20228   6.009   5.903   5.050  0.7394  1.0287 -0.3904
  177SAPS   C3320229   5.831   5.288   3.891 -0.0834 -0.4164  0.3467
  177SAPS   H3X20230   5.846   5.180   3.913  0.6228 -0.2168  0.8755
  177SAPS   H3Y20231   5.724   5.304   3.867  0.2337  2.4808  0.5858
  177SAPS   C3420232   5.841   5.368   4.026 -0.0463 -0.3071  0.6825
  177SAPS   H4X20233   5.811   5.473   4.005 -0.7460 -0.9613 -2.0981
  177SAPS   H4Y20234   5.946   5.377   4.059  1.4766  1.9232 -3.9471
  177SAPS   C3520235   5.749   5.297   4.135  0.1408 -0.4879  0.1638
  177SAPS   H5X20236   5.781   5.191   4.135 -1.7610 -1.1547  2.4602
  177SAPS   H5Y20237   5.641   5.286   4.109  0.5663 -4.7472 -0.4946
  177SAPS   C3620238   5.758   5.369   4.269  0.4329  0.6505  0.1903
  177SAPS   H6X20239   5.709   5.468   4.265 -0.0768  0.3907 -0.1762
  177SAPS   H6Y20240   5.861   5.395   4.298  0.2205 -1.7360  3.7102
  177SAPS   C3720241   5.699   5.281   4.385  0.2977  0.1797  0.5076
  177SAPS   H7X20242   5.750   5.182   4.385 -2.2014 -1.3265  3.9930
  177SAPS   H7Y20243   5.591   5.257   4.378  0.2782  0.5760 -0.7553
  177SAPS   C3820244   5.735   5.342   4.525 -1.4762 -0.0240  0.0975
  177SAPS   H8X20245   5.718   5.452   4.522  0.7200  0.3901 -3.6231
  177SAPS   H8Y20246   5.846   5.338   4.529 -1.5541 -1.5167  1.8404
  177SAPS   C3920247   5.684   5.269   4.648 -0.0970  0.4062  0.4286
  177SAPS   H9X20248   5.706   5.162   4.625  0.5955  0.5701  0.2811
  177SAPS   H9Y20249   5.576   5.280   4.667 -0.4511 -0.8023 -0.7141
  177SAPS  C31020250   5.770   5.310   4.778  0.6921  0.2197  0.3708
  177SAPS  H10X20251   5.703   5.284   4.863  0.5934 -2.1803 -0.3763
  177SAPS  H10Y20252   5.794   5.418   4.766 -0.7790  0.4780 -0.5888
  177SAPS  C31120253   5.897   5.229   4.800  0.5478 -0.0889  0.5517
  177SAPS  H11X20254   5.978   5.251   4.727 -0.3208 -1.0191 -0.7216
  177SAPS  H11Y20255   5.883   5.121   4.778  1.1885 -0.0759  0.0469
  177SAPS  C31220256   5.945   5.256   4.944  0.0476  0.3112 -0.0986
  177SAPS  H12X20257   5.866   5.224   5.015 -2.2387 -2.0474 -3.3556
  177SAPS  H12Y20258   5.972   5.361   4.967 -0.5958  0.9878 -2.1804
  177SAPS  C31320259   6.061   5.163   4.984 -0.5696  0.5498  0.1221
  177SAPS  H13X20260   6.152   5.174   4.922  0.4449 -1.2114  1.1916
  177SAPS  H13Y20261   6.027   5.057   4.973 -1.4128  1.0117 -2.2198
  177SAPS  C31420262   6.103   5.171   5.130 -0.2694  0.0234  1.2252
  177SAPS  H14X20263   6.166   5.084   5.158  1.0084 -0.1059 -1.6757
  177SAPS  H14Y20264   6.021   5.156   5.203  0.7474  0.0005  2.4099
  177SAPS  C31520265   6.175   5.307   5.154  0.6936  0.0770  0.3380
  177SAPS  H15X20266   6.114   5.394   5.123  1.2594 -0.4074 -2.3296
  177SAPS  H15Y20267   6.262   5.301   5.085  1.5256 -0.6873  1.3965
  177SAPS  C31620268   6.220   5.314   5.302 -0.0717 -0.7631 -0.1709
  177SAPS  H16X20269   6.264   5.218   5.335  0.0461 -1.2470 -1.6672
  177SAPS  H16Y20270   6.129   5.318   5.365  0.3291 -1.6790  0.4799
  177SAPS  C31720271   6.307   5.437   5.329  0.2762  1.0124  0.2412
  177SAPS  H17X20272   6.317   5.442   5.440 -1.2853  1.9206  0.3614
  177SAPS  H17Y20273   6.253   5.524   5.286 -0.4647 -0.0017 -0.9168
  177SAPS  C31820274   6.444   5.414   5.261 -0.7226 -0.2362  0.2772
  177SAPS  H18X20275   6.512   5.493   5.298 -1.6966  0.9055 -0.2840
  177SAPS  H18Y20276   6.434   5.439   5.153 -0.4245  3.1143  0.8987
  177SAPS  H18Z20277   6.492   5.315   5.270 -0.6262 -0.3035 -0.8534
  178SAPS     N20278   3.913   6.566   2.989  0.3610 -0.1076  0.2634
  178SAPS   HN120279   3.940   6.625   3.071  1.4814 -0.1523 -0.0596
  178SAPS   HN220280   3.871   6.481   3.032 -0.4442 -0.1205 -0.5374
  178SAPS   HN320281   3.998   6.528   2.942 -1.0968 -2.4906 -0.6375
  178SAPS   C1220282   3.825   6.646   2.890 -0.3145 -0.3922 -0.1894
  178SAPS  H12A20283   3.884   6.731   2.862 -0.3487  0.6000  2.5166
  178SAPS   C1320284   3.813   6.566   2.765 -0.6073 -0.4678  0.2562
  178SAPS  O13A20285   3.865   6.447   2.753 -0.0887  0.0035 -0.2226
  178SAPS  O13B20286   3.753   6.615   2.663 -0.0405  0.5395  0.2037
  178SAPS   C1120287   3.679   6.666   2.937 -0.2473  0.1734 -0.6381
  178SAPS  H11A20288   3.637   6.567   2.966  2.5959 -1.3286 -1.3264
  178SAPS  H11B20289   3.619   6.715   2.857 -0.9929  0.6300  0.1780
  178SAPS     P20290   3.575   6.818   3.129 -0.0240 -0.0798  0.4530
  178SAPS   O1320291   3.633   6.903   3.231 -0.0538 -0.3339 -0.5007
  178SAPS   O1420292   3.480   6.885   3.032 -0.1841  0.2466  0.1065
  178SAPS   O1220293   3.689   6.748   3.053 -0.2507  0.3750  0.1163
  178SAPS   O1120294   3.502   6.693   3.201 -0.4453 -1.0550  0.1225
  178SAPS    C120295   3.576   6.607   3.285 -0.0241 -0.1172 -0.1567
  178SAPS    HA20296   3.560   6.500   3.262  0.4592 -0.7167  2.0073
  178SAPS    HB20297   3.685   6.622   3.269 -0.2755  1.7653 -0.4040
  178SAPS    C220298   3.560   6.625   3.441  0.2433  0.7139 -0.9899
  178SAPS    HS20299   3.617   6.543   3.490  0.2480  0.9015 -0.6791
  178SAPS   O2120300   3.415   6.632   3.472 -0.3648 -0.2881  0.1607
  178SAPS   C2120301   3.349   6.521   3.451  0.3329 -0.1016 -0.2243
  178SAPS   O2220302   3.390   6.410   3.424 -0.7539 -0.0210  0.3635
  178SAPS   C2220303   3.208   6.539   3.511 -0.0625  0.1721  0.4136
  178SAPS   H2R20304   3.208   6.558   3.620  0.2775  0.5181  0.3525
  178SAPS   H2S20305   3.165   6.632   3.467  0.9828 -0.2035 -1.5339
  178SAPS    C320306   3.619   6.760   3.499  0.7283  0.2175 -0.2221
  178SAPS    HX20307   3.558   6.837   3.448 -1.3659 -0.3768  1.2716
  178SAPS    HY20308   3.723   6.755   3.459  1.9094  0.2276  2.6002
  178SAPS   O3120309   3.600   6.784   3.641  0.0011 -0.1674  0.0772
  178SAPS   C3120310   3.666   6.890   3.677 -0.2897  0.3876 -0.4857
  178SAPS   O3220311   3.748   6.953   3.607  0.6973 -1.3808 -0.1988
  178SAPS   C3220312   3.614   6.923   3.822  0.0969 -0.1064  0.3442
  178SAPS   H2X20313   3.663   7.018   3.853  0.5978 -0.3626  0.3457
  178SAPS   H2Y20314   3.643   6.841   3.892  0.1542 -0.1447  0.2766
  178SAPS   C2320315   3.103   6.427   3.477  0.0084  0.6323 -0.1258
  178SAPS   H3R20316   3.128   6.396   3.373 -1.3479  2.5080 -1.0756
  178SAPS   H3S20317   3.005   6.478   3.489 -0.7565 -1.1070  1.5493
  178SAPS   C2420318   3.095   6.318   3.582  0.1025 -0.2199  0.7256
  178SAPS   H4R20319   3.193   6.266   3.587  0.5812  0.7314  2.5705
  178SAPS   H4S20320   3.024   6.244   3.541 -1.1172  0.2780  1.8455
  178SAPS   C2520321   3.047   6.361   3.717  0.1660 -0.3939 -0.2902
  178SAPS   H5R20322   2.938   6.367   3.713  0.0874 -1.1846  0.5203
  178SAPS   C2620323   3.109   6.366   3.833  0.4639  0.0349  0.1244
  178SAPS   H6R20324   3.055   6.415   3.916 -0.4038 -0.2223 -0.2816
  178SAPS   C2720325   3.256   6.344   3.853 -0.6456 -0.2036  0.7891
  178SAPS   H7R20326   3.305   6.428   3.907  1.9708 -0.5798 -0.8316
  178SAPS   H7S20327   3.298   6.364   3.753 -2.8477 -0.3177 -0.2241
  178SAPS   C2820328   3.299   6.211   3.919  0.4323 -0.5301 -0.2593
  178SAPS   H8R20329   3.297   6.126   3.849 -0.0645  0.2229 -1.1833
  178SAPS   C2920330   3.322   6.186   4.048  0.1039 -0.4847  0.0058
  178SAPS   H9R20331   3.355   6.085   4.080  0.2924 -1.0481 -1.8552
  178SAPS  C21020332   3.329   6.284   4.168  0.2540  0.0931 -0.2379
  178SAPS  H10R20333   3.410   6.356   4.142  3.1579 -2.3866  1.2394
  178SAPS  H10S20334   3.364   6.219   4.251  1.8915 -0.2743 -1.1658
  178SAPS  C21120335   3.197   6.351   4.194 -0.8382 -0.3900  0.1001
  178SAPS  H11R20336   3.135   6.375   4.106  1.0599 -1.8238 -1.7186
  178SAPS  C21220337   3.152   6.384   4.313  0.1516 -0.3269  0.0979
  178SAPS  H12R20338   3.048   6.419   4.308 -0.4120 -1.7436  1.1748
  178SAPS  C21320339   3.213   6.362   4.451  0.3432 -0.3070  0.2372
  178SAPS  H13R20340   3.321   6.387   4.445  0.6851 -1.6315  0.5775
  178SAPS  H13S20341   3.203   6.252   4.468 -0.2147 -0.3058 -0.0617
  178SAPS  C21420342   3.143   6.424   4.566 -0.3616 -0.0648 -0.6211
  178SAPS  H14R20343   3.040   6.452   4.541  0.3749  1.7774 -1.8691
  178SAPS  C21520344   3.199   6.449   4.682  0.4671 -0.4039  0.2608
  178SAPS  H15R20345   3.133   6.501   4.753 -0.1643  0.5211 -0.9882
  178SAPS  C21620346   3.335   6.408   4.734  0.4504  0.6806 -0.0142
  178SAPS  H16R20347   3.418   6.409   4.660 -0.2457 -0.6839 -0.8405
  178SAPS  H16S20348   3.337   6.306   4.777  1.6135  0.4146 -0.6563
  178SAPS  C21720349   3.384   6.509   4.832  0.6022 -0.7048  0.0762
  178SAPS  H17R20350   3.351   6.607   4.792 -2.0799 -1.3287  0.5040
  178SAPS  H17S20351   3.493   6.504   4.853  0.3004  0.0516  2.1425
  178SAPS  C21820352   3.320   6.493   4.972  0.1495 -0.1780 -0.6534
  178SAPS  H18R20353   3.335   6.386   4.999  0.2484 -0.0065 -0.0112
  178SAPS  H18S20354   3.210   6.507   4.975  0.2897  0.9848 -0.6212
  178SAPS  C21920355   3.392   6.573   5.079 -0.0059  0.0884  0.4437
  178SAPS  H19R20356   3.501   6.551   5.071  0.4953  2.2457  0.7242
  178SAPS  H19S20357   3.336   6.555   5.173 -2.3209  1.8905 -0.4942
  178SAPS  C22020358   3.367   6.724   5.054 -0.0184  0.0453 -0.1072
  178SAPS  H20R20359   3.259   6.748   5.053  0.1305  0.8685  1.2184
  178SAPS  H20S20360   3.421   6.767   4.966 -1.2739  2.2984  0.1614
  178SAPS  H20T20361   3.420   6.784   5.132 -0.3659  2.7294 -1.7978
  178SAPS   C3320362   3.463   6.935   3.830  0.1549  0.6236 -0.1466
  178SAPS   H3X20363   3.424   6.848   3.774  2.5979  0.3319 -1.5637
  178SAPS   H3Y20364   3.426   7.032   3.791 -1.5154  0.6732  1.4046
  178SAPS   C3420365   3.417   6.933   3.975 -0.2939 -0.3551 -0.2324
  178SAPS   H4X20366   3.435   6.832   4.018  0.9846 -0.1776 -0.3284
  178SAPS   H4Y20367   3.313   6.972   3.972 -0.0618  0.2788 -3.4123
  178SAPS   C3520368   3.481   7.041   4.067  0.7747  0.6293  0.0450
  178SAPS   H5X20369   3.472   7.137   4.011 -0.3777 -0.0639 -1.0072
  178SAPS   H5Y20370   3.586   7.005   4.074  0.4302 -0.3559  0.3285
  178SAPS   C3620371   3.419   7.061   4.206  0.0056 -0.2007 -0.1435
  178SAPS   H6X20372   3.428   6.966   4.262 -0.8604 -0.0163  0.3234
  178SAPS   H6Y20373   3.314   7.071   4.171  0.2676  1.1321 -0.6015
  178SAPS   C3720374   3.463   7.189   4.285 -0.5748  0.1603 -0.7714
  178SAPS   H7X20375   3.473   7.266   4.205  0.4008 -1.4143 -2.2624
  178SAPS   H7Y20376   3.565   7.162   4.318  0.0409 -0.8621 -3.2240
  178SAPS   C3820377   3.374   7.218   4.409 -0.4260 -0.1159  0.1393
  178SAPS   H8X20378   3.356   7.123   4.464 -0.2782 -1.6984 -2.4112
  178SAPS   H8Y20379   3.284   7.264   4.364 -1.6644 -2.7547 -0.2931
  178SAPS   C3920380   3.441   7.312   4.513  0.3522 -0.0365  0.8839
  178SAPS   H9X20381   3.360   7.346   4.582 -0.1190  1.2839 -0.2899
  178SAPS   H9Y20382   3.492   7.399   4.467 -0.3554 -0.2796 -0.4136
  178SAPS  C31020383   3.542   7.248   4.617  0.3520 -0.1558  0.2034
  178SAPS  H10X20384   3.637   7.213   4.572  1.2955  0.4260  1.6751
  178SAPS  H10Y20385   3.490   7.165   4.670 -1.2126  0.7036  0.0654
  178SAPS  C31120386   3.574   7.356   4.718  0.2741 -0.6161 -0.0330
  178SAPS  H11X20387   3.485   7.377   4.781  0.7404  1.7784 -0.1003
  178SAPS  H11Y20388   3.606   7.445   4.659 -2.5246  0.1294 -0.5869
  178SAPS  C31220389   3.686   7.310   4.807  0.2119  0.2719 -0.5305
  178SAPS  H12X20390   3.787   7.304   4.760  1.1699 -0.3458  1.4800
  178SAPS  H12Y20391   3.651   7.210   4.841 -0.2726  0.2811 -1.0029
  178SAPS  C31320392   3.708   7.398   4.935  0.3473 -0.4946  0.0705
  178SAPS  H13X20393   3.703   7.506   4.912  0.9652 -0.9054 -2.1663
  178SAPS  H13Y20394   3.813   7.387   4.970  0.0035 -0.1174  1.2715
  178SAPS  C31420395   3.617   7.355   5.053 -0.1776 -0.2401  0.5710
  178SAPS  H14X20396   3.640   7.249   5.076  2.0322  0.3716  1.5476
  178SAPS  H14Y20397   3.514   7.351   5.013 -0.2435  3.3463  0.0276
  178SAPS  C31520398   3.630   7.468   5.161  0.6793  0.0644 -0.4017
  178SAPS  H15X20399   3.542   7.457   5.228  1.7442 -2.0041  0.7761
  178SAPS  H15Y20400   3.610   7.566   5.113 -0.5601 -0.5586 -1.2174
  178SAPS  C31620401   3.762   7.472   5.232  0.1022  0.0260 -0.0513
  178SAPS  H16X20402   3.774   7.546   5.314  0.0160  1.7996 -1.6008
  178SAPS  H16Y20403   3.840   7.497   5.158 -1.0630 -0.3829 -1.4630
  178SAPS  C31720404   3.791   7.341   5.307 -0.5132  0.4924 -0.4073
  178SAPS  H17X20405   3.894   7.351   5.348 -1.6868  0.8550  2.7568
  178SAPS  H17Y20406   3.790   7.255   5.237 -3.1517 -0.1124  0.2512
  178SAPS  C31820407   3.690   7.323   5.422  0.4627 -0.5981  0.4714
  178SAPS  H18X20408   3.714   7.226   5.469 -1.9539 -2.3933 -1.7098
  178SAPS  H18Y20409   3.586   7.326   5.383  1.1772  1.7143 -1.4791
  178SAPS  H18Z20410   3.697   7.409   5.493 -0.5861 -0.1991  0.1205
  179SAPS     N20411   0.113   1.551   3.091 -0.4136  0.3147  0.0547
  179SAPS   HN120412   0.038   1.480   3.077 -1.7248  1.2027  2.0341
  179SAPS   HN220413   0.194   1.522   3.148  0.1184  0.1092 -0.7939
  179SAPS   HN320414   0.064   1.622   3.150 -0.8669  0.7262 -0.7953
  179SAPS   C1220415   0.152   1.628   2.969 -0.5806  0.2079 -0.8214
  179SAPS  H12A20416   0.218   1.710   2.992 -1.2817  1.3803 -2.7762
  179SAPS   C1320417   0.224   1.550   2.857  0.0457 -0.5182 -0.7138
  179SAPS  O13A20418   0.275   1.435   2.883 -0.0634  0.2695 -0.0392
  179SAPS  O13B20419   0.259   1.597   2.746  0.0587  0.4015 -0.2813
  179SAPS   C1120420   0.028   1.710   2.909 -0.4391 -0.0082 -0.4558
  179SAPS  H11A20421  -0.033   1.629   2.863 -0.8293 -0.4890  0.8607
  179SAPS  H11B20422   0.069   1.784   2.837 -0.0196 -2.0132 -2.3898
  179SAPS     P20423  -0.169   1.869   2.976  0.4870  0.2303 -0.0315
  179SAPS   O1320424  -0.123   1.998   2.913  0.0033  0.3576  0.1350
  179SAPS   O1420425  -0.263   1.791   2.893  0.3948 -0.5736  0.1133
  179SAPS   O1220426  -0.047   1.777   3.012 -0.0141  0.5914 -0.2830
  179SAPS   O1120427  -0.239   1.900   3.119  0.1127 -0.1449  0.2343
  179SAPS    C120428  -0.277   1.791   3.198 -0.1242 -0.4145  0.3856
  179SAPS    HA20429  -0.334   1.714   3.141 -2.0021  0.5953  0.8204
  179SAPS    HB20430  -0.192   1.747   3.254  0.7931  1.0108  0.1696
  179SAPS    C220431  -0.381   1.832   3.300 -0.5331 -0.3105  0.0776
  179SAPS    HS20432  -0.469   1.862   3.239  0.2824  0.4102 -0.7822
  179SAPS   O2120433  -0.343   1.946   3.382 -0.0139 -0.1498  0.5550
  179SAPS   C2120434  -0.391   2.067   3.347  0.9165 -0.6899 -0.3071
  179SAPS   O2220435  -0.474   2.088   3.261  0.2881  0.1939 -0.1504
  179SAPS   C2220436  -0.352   2.171   3.459  0.2836 -0.0932  1.0842
  179SAPS   H2R20437  -0.381   2.142   3.562 -0.7514 -0.9180  0.5841
  179SAPS   H2S20438  -0.241   2.171   3.460  0.3523  0.9269 -0.9789
  179SAPS    C320439  -0.408   1.718   3.397  0.4245 -0.3040 -0.3225
  179SAPS    HX20440  -0.329   1.696   3.471 -1.5495  1.5523  2.5740
  179SAPS    HY20441  -0.413   1.626   3.335 -0.2626 -0.7621  0.3926
  179SAPS   O3120442  -0.546   1.735   3.454 -1.0927  0.0206  0.0701
  179SAPS   C3120443  -0.551   1.770   3.579 -0.2638 -0.2369 -0.5879
  179SAPS   O3220444  -0.454   1.794   3.649  0.3135  0.0604 -0.4429
  179SAPS   C3220445  -0.697   1.785   3.613  0.2006  0.3400  0.3273
  179SAPS   H2X20446  -0.756   1.763   3.522  1.5044 -0.2294 -0.3982
  179SAPS   H2Y20447  -0.707   1.887   3.656 -2.2280 -0.4915  1.9401
  179SAPS   C2320448  -0.400   2.315   3.426  0.0878 -0.3399 -0.6212
  179SAPS   H3R20449  -0.509   2.316   3.446  0.4378 -1.9964  1.7498
  179SAPS   H3S20450  -0.393   2.354   3.323 -0.3950  0.7907 -0.2511
  179SAPS   C2420451  -0.335   2.417   3.524  0.2144 -0.2481 -0.2527
  179SAPS   H4R20452  -0.316   2.369   3.622  1.6358  0.5356 -0.1184
  179SAPS   H4S20453  -0.412   2.497   3.520  0.7447  0.2552 -3.6348
  179SAPS   C2520454  -0.201   2.458   3.470  0.0134  0.3664  1.1422
  179SAPS   H5R20455  -0.178   2.451   3.362 -2.7590 -0.2658  0.4843
  179SAPS   C2620456  -0.097   2.507   3.545  0.0096  0.5446 -0.1331
  179SAPS   H6R20457  -0.010   2.542   3.487  1.3155 -3.1830 -0.7512
  179SAPS   C2720458  -0.107   2.541   3.692 -0.3854  0.5497  0.1892
  179SAPS   H7R20459  -0.203   2.592   3.711 -0.6119  0.7045 -1.3053
  179SAPS   H7S20460  -0.037   2.621   3.726 -1.9416  0.9083  2.8535
  179SAPS   C2820461  -0.075   2.422   3.779 -0.0124  0.0472  0.6919
  179SAPS   H8R20462  -0.019   2.342   3.727  1.2290  0.5632  1.1837
  179SAPS   C2920463  -0.120   2.401   3.905 -0.5393  0.8731  0.0067
  179SAPS   H9R20464  -0.093   2.303   3.947  0.7823 -0.1366 -2.9097
  179SAPS  C21020465  -0.190   2.497   3.997 -0.0120 -1.3740 -0.0763
  179SAPS  H10R20466  -0.177   2.603   3.970 -2.0240 -0.5941  1.6764
  179SAPS  H10S20467  -0.132   2.485   4.092 -0.8361 -0.6473  0.5358
  179SAPS  C21120468  -0.333   2.462   4.009  0.6745  0.3872 -1.3798
  179SAPS  H11R20469  -0.390   2.468   3.914 -2.1220 -0.9912  0.0790
  179SAPS  C21220470  -0.405   2.419   4.117 -0.2405 -0.1831  0.2861
  179SAPS  H12R20471  -0.512   2.400   4.099 -0.7227  2.1687  0.2852
  179SAPS  C21320472  -0.344   2.390   4.254  0.1000 -0.5828  0.4505
  179SAPS  H13R20473  -0.395   2.455   4.328  1.7682  1.3514 -0.0020
  179SAPS  H13S20474  -0.240   2.429   4.255 -0.2209  0.4398  3.4658
  179SAPS  C21420475  -0.345   2.251   4.300 -0.1227  0.3190 -0.0964
  179SAPS  H14R20476  -0.305   2.185   4.222  0.3057  1.3130 -0.7391
  179SAPS  C21520477  -0.373   2.202   4.422 -0.7031 -0.3364 -0.3060
  179SAPS  H15R20478  -0.362   2.095   4.446  1.2286  0.5291  3.3243
  179SAPS  C21620479  -0.426   2.282   4.533 -0.5529  0.8659 -0.0904
  179SAPS  H16R20480  -0.527   2.240   4.546 -0.8027  1.5091  0.0810
  179SAPS  H16S20481  -0.422   2.392   4.517 -0.1369  0.5803 -2.2284
  179SAPS  C21720482  -0.349   2.254   4.665 -0.3006 -0.4297 -0.1640
  179SAPS  H17R20483  -0.240   2.275   4.655 -0.0721 -1.9695 -1.3138
  179SAPS  H17S20484  -0.346   2.145   4.685 -0.3446 -0.5844 -0.9556
  179SAPS  C21820485  -0.399   2.319   4.796  0.2968 -0.5081 -0.1395
  179SAPS  H18R20486  -0.503   2.287   4.820  0.8798 -0.8370  2.1814
  179SAPS  H18S20487  -0.405   2.429   4.782 -2.5883 -0.4929  0.6012
  179SAPS  C21920488  -0.305   2.275   4.907  0.3166 -0.2024  0.1706
  179SAPS  H19R20489  -0.200   2.302   4.884  0.3756 -0.7236 -0.1972
  179SAPS  H19S20490  -0.304   2.165   4.925  0.7082 -0.2011  0.1626
  179SAPS  C22020491  -0.348   2.338   5.043  1.0337  0.1540  0.3407
  179SAPS  H20R20492  -0.289   2.312   5.133 -1.0342 -0.0002  1.7353
  179SAPS  H20S20493  -0.453   2.304   5.058  0.5690  1.5464  0.4101
  179SAPS  H20T20494  -0.350   2.449   5.033  1.8294  0.1810  0.4337
  179SAPS   C3320495  -0.728   1.696   3.732  0.1795  0.0903 -0.0355
  179SAPS   H3X20496  -0.641   1.698   3.801 -0.1956  2.1744  0.4566
  179SAPS   H3Y20497  -0.760   1.594   3.700 -1.8029  0.2034  1.3651
  179SAPS   C3420498  -0.855   1.753   3.803  0.1785 -0.0705 -0.1531
  179SAPS   H4X20499  -0.938   1.740   3.730 -0.5323  2.1000  0.2000
  179SAPS   H4Y20500  -0.825   1.858   3.824  3.4295 -0.7902 -0.7117
  179SAPS   C3520501  -0.873   1.666   3.924 -0.3438  0.0982  0.5528
  179SAPS   H5X20502  -0.787   1.637   3.986 -0.1191 -1.2012 -0.3185
  179SAPS   H5Y20503  -0.919   1.571   3.889 -0.8964  0.0603  1.3435
  179SAPS   C3620504  -0.964   1.735   4.028  0.4743  0.7121  0.4221
  179SAPS   H6X20505  -1.061   1.756   3.980  0.6798  0.5897 -0.0550
  179SAPS   H6Y20506  -0.928   1.835   4.059  0.7023  0.5735  0.6110
  179SAPS   C3720507  -0.984   1.637   4.144  0.5045 -0.4768 -0.2346
  179SAPS   H7X20508  -0.895   1.593   4.194  1.0780  0.4712 -0.3779
  179SAPS   H7Y20509  -1.029   1.545   4.102  0.4124 -0.2663 -0.6060
  179SAPS   C3820510  -1.095   1.695   4.242  0.6110  0.3751 -0.0594
  179SAPS   H8X20511  -1.185   1.724   4.184 -1.4647  2.3400  3.7510
  179SAPS   H8Y20512  -1.052   1.775   4.306  0.9877  0.2517 -0.1530
  179SAPS   C3920513  -1.131   1.585   4.337  0.5151  0.6980 -0.1331
  179SAPS   H9X20514  -1.038   1.527   4.356  0.3657  0.5535  0.1563
  179SAPS   H9Y20515  -1.200   1.512   4.290  2.5048  0.6900 -3.3234
  179SAPS  C31020516  -1.176   1.632   4.482 -0.0751  0.6062  1.0564
  179SAPS  H10X20517  -1.213   1.541   4.534  1.5536 -0.0804  1.0777
  179SAPS  H10Y20518  -1.265   1.699   4.478 -1.2916 -0.8889  1.9559
  179SAPS  C31120519  -1.075   1.697   4.574  0.2783 -0.5146 -0.3728
  179SAPS  H11X20520  -1.043   1.792   4.527 -3.4555  0.9902 -0.1706
  179SAPS  H11Y20521  -0.986   1.632   4.590 -0.5512 -2.0979 -1.8329
  179SAPS  C31220522  -1.139   1.741   4.706 -0.1043 -0.6218 -0.1916
  179SAPS  H12X20523  -1.213   1.662   4.731 -2.5312  1.1124 -1.5266
  179SAPS  H12Y20524  -1.198   1.835   4.696  0.3588 -0.1505  1.2215
  179SAPS  C31320525  -1.031   1.755   4.807  0.6132 -0.1808 -0.0866
  179SAPS  H13X20526  -0.973   1.850   4.801  2.6865 -1.3567  0.6378
  179SAPS  H13Y20527  -0.970   1.663   4.803 -0.0065 -0.7891  2.5787
  179SAPS  C31420528  -1.083   1.763   4.952 -0.4680  0.4804  0.5098
  179SAPS  H14X20529  -1.155   1.680   4.966 -0.4780  0.5161  0.6678
  179SAPS  H14Y20530  -1.140   1.858   4.960 -0.5111  0.7452 -1.9768
  179SAPS  C31520531  -0.972   1.769   5.054 -0.0063  0.7459  0.3396
  179SAPS  H15X20532  -0.923   1.862   5.017 -0.7813  0.4518 -1.5316
  179SAPS  H15Y20533  -0.901   1.683   5.048 -0.4827  0.3970 -0.3863
  179SAPS  C31620534  -1.020   1.791   5.200  0.4008 -0.7364  0.1387
  179SAPS  H16X20535  -1.077   1.701   5.233 -0.4163 -0.7418 -1.2347
  179SAPS  H16Y20536  -1.092   1.873   5.182  1.5228 -0.6275 -5.6425
  179SAPS  C31720537  -0.903   1.826   5.291  0.2748 -0.0636 -0.3837
  179SAPS  H17X20538  -0.841   1.899   5.235 -1.3610  1.5438 -0.1876
  179SAPS  H17Y20539  -0.839   1.737   5.309 -1.6342 -1.1324  1.5025
  179SAPS  C31820540  -0.942   1.871   5.433 -0.2934 -0.0320  1.0413
  179SAPS  H18X20541  -0.997   1.967   5.435 -0.4477 -0.1309  1.7389
  179SAPS  H18Y20542  -0.857   1.871   5.505  0.1997  1.1626  0.4909
  179SAPS  H18Z20543  -1.008   1.788   5.467  0.3979 -0.4319  1.4377
  180SAPS     N20544   0.429   1.979   2.526 -0.0537  0.8843 -0.1764
  180SAPS   HN120545   0.425   1.981   2.422 -2.2218  0.9233 -0.1216
  180SAPS   HN220546   0.526   2.004   2.554  0.3093  0.9405 -1.4168
  180SAPS   HN320547   0.423   1.880   2.557 -1.2212  0.0593 -2.7200
  180SAPS   C1220548   0.324   2.064   2.587  0.8395  0.1895  0.0967
  180SAPS  H12A20549   0.360   2.166   2.579  2.7584 -0.4821 -0.2877
  180SAPS   C1320550   0.184   2.057   2.521 -0.2595 -0.2396  0.4173
  180SAPS  O13A20551   0.185   1.999   2.409  0.8289 -0.4478  0.7817
  180SAPS  O13B20552   0.104   2.150   2.545  0.1143 -0.0300  0.2683
  180SAPS   C1120553   0.304   2.007   2.726 -0.8810 -0.4698  0.0898
  180SAPS  H11A20554   0.283   1.898   2.726 -2.0992 -0.2827  1.9054
  180SAPS  H11B20555   0.219   2.062   2.773 -0.8499  0.5511 -0.9876
  180SAPS     P20556   0.466   1.963   2.935  0.3534  0.0546  0.3794
  180SAPS   O1320557   0.513   1.834   2.883 -0.1368 -0.5247  0.2035
  180SAPS   O1420558   0.560   2.061   2.989 -0.7278 -0.2365  0.6637
  180SAPS   O1220559   0.414   2.039   2.804  0.4319 -0.3376 -0.6568
  180SAPS   O1120560   0.333   1.956   3.017 -1.2883 -0.2318  0.1040
  180SAPS    C120561   0.257   2.066   3.049 -0.6300 -0.2703 -0.3015
  180SAPS    HA20562   0.304   2.161   3.017  1.0337 -1.1694 -0.6528
  180SAPS    HB20563   0.157   2.063   3.002  0.1714 -2.4099 -2.0130
  180SAPS    C220564   0.240   2.062   3.203  0.3958 -0.7140 -0.3850
  180SAPS    HS20565   0.162   2.134   3.236 -0.1943 -0.7715 -1.5850
  180SAPS   O2120566   0.372   2.082   3.258  0.1057 -0.1978 -0.2095
  180SAPS   C2120567   0.375   2.177   3.349  0.1044 -0.0709 -0.9538
  180SAPS   O2220568   0.275   2.240   3.385  0.1578  0.0549  0.3640
  180SAPS   C2220569   0.508   2.170   3.422  0.4564 -0.3276 -0.3997
  180SAPS   H2R20570   0.532   2.063   3.437 -0.2742 -0.8745 -2.7868
  180SAPS   H2S20571   0.579   2.207   3.345 -0.7935 -1.6396 -2.2684
  180SAPS    C320572   0.183   1.931   3.256 -0.0612  0.5435 -1.1570
  180SAPS    HX20573   0.253   1.846   3.239  0.6373  0.4830  1.5672
  180SAPS    HY20574   0.088   1.902   3.206 -1.0712 -0.0404  0.9754
  180SAPS   O3120575   0.159   1.940   3.399  0.1033 -0.2431 -0.1329
  180SAPS   C3120576   0.046   1.999   3.440  0.1211  0.4123  0.1123
  180SAPS   O3220577  -0.032   2.051   3.368  0.5091 -0.9094 -0.0460
  180SAPS   C3220578   0.038   1.969   3.584  0.0559  0.0212 -0.0968
  180SAPS   H2X20579   0.124   2.006   3.643 -1.0862  0.6154  1.2384
  180SAPS   H2Y20580   0.033   1.859   3.601 -1.0544  0.4213  2.8923
  180SAPS   C2320581   0.518   2.239   3.559  0.0244 -0.3913 -0.3984
  180SAPS   H3R20582   0.481   2.343   3.563 -1.2203 -0.8590  1.3532
  180SAPS   H3S20583   0.627   2.239   3.582  0.0326 -1.0131 -0.4236
  180SAPS   C2420584   0.447   2.165   3.678  0.1373  0.5288  0.3292
  180SAPS   H4R20585   0.491   2.066   3.704 -0.5946  0.2214  0.4235
  180SAPS   H4S20586   0.340   2.151   3.652  0.7753 -0.2272 -2.1518
  180SAPS   C2520587   0.468   2.242   3.802  0.4401 -0.3266 -0.1699
  180SAPS   H5R20588   0.573   2.257   3.832  1.0852 -0.3341 -2.2452
  180SAPS   C2620589   0.376   2.283   3.886 -0.5673 -0.4510  0.2157
  180SAPS   H6R20590   0.402   2.335   3.980 -1.9966 -0.4803  0.6553
  180SAPS   C2720591   0.230   2.288   3.857 -0.3512  0.1958  0.1785
  180SAPS   H7R20592   0.200   2.295   3.750  0.8107  1.7407 -0.0830
  180SAPS   H7S20593   0.179   2.378   3.896  1.9678  0.6343  2.4861
  180SAPS   C2820594   0.180   2.148   3.918  0.6201 -0.9297  0.6543
  180SAPS   H8R20595   0.195   2.062   3.852  1.3588  0.4105 -1.0056
  180SAPS   C2920596   0.121   2.134   4.040  0.5719 -1.0504  0.2292
  180SAPS   H9R20597   0.075   2.037   4.065 -0.5726 -0.3614  0.9155
  180SAPS  C21020598   0.129   2.240   4.149 -0.1285 -0.1523 -0.3774
  180SAPS  H10R20599   0.156   2.333   4.095  1.5716 -0.1601  0.3929
  180SAPS  H10S20600   0.225   2.215   4.200  1.2364  0.2540 -2.6263
  180SAPS  C21120601   0.014   2.264   4.240 -1.0416  0.0233  0.3259
  180SAPS  H11R20602  -0.074   2.231   4.182 -0.5268 -0.5744 -0.1309
  180SAPS  C21220603   0.013   2.304   4.369  0.8978  0.3534 -0.2222
  180SAPS  H12R20604  -0.084   2.312   4.420  1.2724  0.2538  0.5205
  180SAPS  C21320605   0.134   2.337   4.455  0.7289 -0.0270 -0.5871
  180SAPS  H13R20606   0.092   2.390   4.543 -1.2736 -1.9711 -0.2690
  180SAPS  H13S20607   0.182   2.416   4.394  0.7484  0.1801 -0.3052
  180SAPS  C21420608   0.222   2.226   4.497 -0.6308  0.3300 -0.1039
  180SAPS  H14R20609   0.286   2.183   4.419 -1.0012  2.8247 -1.9149
  180SAPS  C21520610   0.223   2.179   4.625  0.5791 -0.4785  0.4981
  180SAPS  H15R20611   0.298   2.104   4.656  2.1905  1.1309  0.6796
  180SAPS  C21620612   0.142   2.233   4.740 -0.2659 -0.3283  0.0438
  180SAPS  H16R20613   0.034   2.232   4.715 -0.2816  1.5501 -0.1608
  180SAPS  H16S20614   0.174   2.336   4.768  0.5135  0.1221 -2.2593
  180SAPS  C21720615   0.166   2.147   4.866  0.0983 -0.5210  0.3372
  180SAPS  H17R20616   0.274   2.156   4.892 -0.4404  0.0387  2.6087
  180SAPS  H17S20617   0.145   2.038   4.856 -0.9225 -0.2885 -0.1238
  180SAPS  C21820618   0.079   2.192   4.990 -0.4320 -0.1526 -0.0820
  180SAPS  H18R20619   0.107   2.130   5.078 -0.3766  0.9981  0.7355
  180SAPS  H18S20620  -0.026   2.167   4.965 -0.2329 -0.7746 -0.3115
  180SAPS  C21920621   0.094   2.341   5.024 -0.0926  0.1973  0.4648
  180SAPS  H19R20622   0.047   2.405   4.946  4.5897  2.6721 -0.7158
  180SAPS  H19S20623   0.201   2.369   5.011 -0.3578  0.8824 -0.3503
  180SAPS  C22020624   0.046   2.383   5.163  0.5386  0.4739 -0.0522
  180SAPS  H20R20625  -0.064   2.378   5.178  0.8297 -0.8475  2.1609
  180SAPS  H20S20626   0.074   2.303   5.236 -1.2232  0.3246  0.5013
  180SAPS  H20T20627   0.082   2.485   5.188 -1.6417  0.8965  1.7457
  180SAPS   C3320628  -0.092   2.019   3.659  0.0475 -0.7474 -0.3336
  180SAPS   H3X20629  -0.178   1.986   3.597  0.3079  1.1273 -1.7803
  180SAPS   H3Y20630  -0.092   2.130   3.656 -0.5739 -0.7361 -0.2390
  180SAPS   C3420631  -0.107   1.961   3.801  0.5039  0.0863 -0.5384
  180SAPS   H4X20632  -0.027   1.997   3.870  0.4349 -1.3283  0.3116
  180SAPS   H4Y20633  -0.106   1.850   3.800 -0.8608  0.0513 -1.8886
  180SAPS   C3520634  -0.250   1.997   3.851 -0.7074  0.0624  0.9305
  180SAPS   H5X20635  -0.321   1.943   3.785 -0.0331  0.4587 -0.1510
  180SAPS   H5Y20636  -0.273   2.106   3.854  0.5853  0.3430  2.8911
  180SAPS   C3620637  -0.272   1.924   3.989 -0.2232 -0.0831 -1.5148
  180SAPS   H6X20638  -0.203   1.952   4.071  0.5397 -0.7304 -1.9210
  180SAPS   H6Y20639  -0.251   1.817   3.965  0.0873 -0.4507  0.2391
  180SAPS   C3720640  -0.418   1.948   4.027  0.1054 -0.8711  0.1125
  180SAPS   H7X20641  -0.477   1.917   3.938  0.3649  2.0053 -1.1502
  180SAPS   H7Y20642  -0.435   2.054   4.054  0.6674 -0.8602  0.4492
  180SAPS   C3820643  -0.469   1.852   4.128  0.2166 -0.1711 -1.1150
  180SAPS   H8X20644  -0.411   1.885   4.217  0.2594  0.7149 -1.4546
  180SAPS   H8Y20645  -0.458   1.745   4.101  0.2677 -0.6513  0.6333
  180SAPS   C3920646  -0.618   1.859   4.170  0.4277 -0.6512  0.2984
  180SAPS   H9X20647  -0.673   1.839   4.075  3.1724 -0.2259 -1.5151
  180SAPS   H9Y20648  -0.640   1.964   4.201 -2.3128 -1.2226  0.5413
  180SAPS  C31020649  -0.676   1.757   4.273  0.5981  0.3683 -0.0459
  180SAPS  H10X20650  -0.666   1.657   4.226 -1.0803 -0.1119  0.5176
  180SAPS  H10Y20651  -0.786   1.770   4.288  0.7537 -0.4227  2.2064
  180SAPS  C31120652  -0.611   1.755   4.415  0.0657 -0.3133  0.6682
  180SAPS  H11X20653  -0.576   1.856   4.442  2.5123 -0.7164 -0.6606
  180SAPS  H11Y20654  -0.513   1.701   4.414  0.8531  0.9429 -2.1067
  180SAPS  C31220655  -0.690   1.695   4.526  0.4553  0.1795  0.3603
  180SAPS  H12X20656  -0.676   1.585   4.519  1.0748  0.2663  0.1486
  180SAPS  H12Y20657  -0.799   1.705   4.509  0.0100 -0.4666  2.5576
  180SAPS  C31320658  -0.654   1.740   4.668  0.6455 -0.0058 -0.0883
  180SAPS  H13X20659  -0.727   1.682   4.729  0.4978 -0.3707 -0.6037
  180SAPS  H13Y20660  -0.678   1.845   4.695  1.1182  0.5589 -1.7495
  180SAPS  C31420661  -0.519   1.713   4.721 -0.0737  0.3320 -0.5673
  180SAPS  H14X20662  -0.437   1.749   4.654 -0.0582  2.8781  0.7068
  180SAPS  H14Y20663  -0.510   1.602   4.721  1.8512  0.4523 -1.3016
  180SAPS  C31520664  -0.482   1.769   4.862  1.2667  1.0610  0.0695
  180SAPS  H15X20665  -0.480   1.880   4.861 -0.2113  1.1677 -2.7739
  180SAPS  H15Y20666  -0.383   1.736   4.901  0.6207  2.2639  2.9040
  180SAPS  C31620667  -0.575   1.735   4.977  0.1311 -0.2186 -0.4685
  180SAPS  H16X20668  -0.592   1.626   4.991  0.6283 -0.1801  0.5228
  180SAPS  H16Y20669  -0.668   1.795   4.967  0.6754  1.0226  1.4023
  180SAPS  C31720670  -0.521   1.793   5.119  0.5196  0.3653  0.8933
  180SAPS  H17X20671  -0.433   1.730   5.142 -0.1927 -1.7769 -1.7296
  180SAPS  H17Y20672  -0.606   1.766   5.185 -1.8916  0.0096 -2.1245
  180SAPS  C31820673  -0.499   1.947   5.116  0.3067  0.1609  0.7472
  180SAPS  H18X20674  -0.469   1.980   5.218 -0.0215 -0.7494  1.1519
  180SAPS  H18Y20675  -0.588   1.999   5.076 -0.2699  0.5404  2.4521
  180SAPS  H18Z20676  -0.413   1.970   5.050 -2.1914  1.0077 -2.4639
  181POPC     N20677   3.132   4.493   8.191 -0.6356  0.3582  0.2148
  181POPC   C1220678   3.133   4.497   8.035 -0.3005  0.0304  0.2552
  181POPC  H12A20679   3.234   4.511   7.998  0.0740 -2.0285  0.3727
  181POPC  H12B20680   3.076   4.584   8.008  2.2301  1.2711 -1.4493
  181POPC   C1320681   3.201   4.369   8.245 -0.4642  0.0465 -0.5067
  181POPC  H13A20682   3.148   4.284   8.208 -1.6930  1.0916 -1.2258
  181POPC  H13B20683   3.301   4.371   8.204 -1.0700 -0.8380 -2.0695
  181POPC  H13C20684   3.208   4.365   8.353 -2.5374  1.0819 -0.2856
  181POPC   C1420685   3.214   4.601   8.238 -0.5638  0.0015 -0.5822
  181POPC  H14A20686   3.177   4.696   8.202  0.9939  0.4821 -0.9462
  181POPC  H14B20687   3.213   4.614   8.346 -0.3057 -0.3690 -0.5364
  181POPC  H14C20688   3.316   4.593   8.205  0.0188 -0.2738  1.1587
  181POPC   C1520689   2.990   4.506   8.239  1.1272  0.2971  0.0850
  181POPC  H15A20690   2.977   4.506   8.346 -0.8604 -1.5256 -0.0882
  181POPC  H15B20691   2.935   4.418   8.208  3.3935 -1.4919  0.9135
  181POPC  H15C20692   2.945   4.594   8.193  2.0201  0.5479 -0.3216
  181POPC   C1120693   3.081   4.369   7.960  0.4511 -0.7761 -0.1921
  181POPC  H11A20694   3.025   4.390   7.867 -1.8616 -0.8202  1.1315
  181POPC  H11B20695   3.002   4.322   8.022 -0.1586 -2.1894 -1.9624
  181POPC     P20696   3.296   4.300   7.840 -0.3768  0.6075 -0.1813
  181POPC   O1320697   3.399   4.192   7.855 -0.3714 -0.6513 -0.0289
  181POPC   O1420698   3.347   4.443   7.834 -0.9751 -0.2900  0.0510
  181POPC   O1220699   3.191   4.279   7.951 -0.2571  0.4267  0.0510
  181POPC   O1120700   3.216   4.270   7.707 -0.5525 -1.1279 -0.0569
  181POPC    C120701   3.180   4.138   7.666 -0.3556  0.3478 -0.4156
  181POPC    HA20702   3.072   4.113   7.674 -0.7309  2.3523  1.8415
  181POPC    HB20703   3.235   4.060   7.723 -0.4387  0.8668  0.3866
  181POPC    C220704   3.219   4.099   7.518  0.2613  0.1588 -0.4178
  181POPC    HS20705   3.325   4.064   7.514 -0.1122 -1.2807  1.0471
  181POPC   O2120706   3.215   4.217   7.429  0.1706  0.8998  0.0821
  181POPC   C2120707   3.333   4.281   7.407 -1.0561  0.2782  0.2066
  181POPC   O2220708   3.440   4.257   7.463 -0.6204  0.4606  0.1884
  181POPC   C2220709   3.307   4.401   7.312 -0.3416 -0.6865  0.7250
  181POPC   H2R20710   3.316   4.499   7.363 -1.1986 -0.8864  1.2690
  181POPC   H2S20711   3.209   4.389   7.261 -0.8976  1.9539  1.0241
  181POPC    C320712   3.137   3.978   7.456  0.2054  0.0888  0.4841
  181POPC    HX20713   3.029   4.005   7.455  0.0073 -0.4795 -2.5022
  181POPC    HY20714   3.142   3.893   7.528  0.7799 -1.4449 -1.2727
  181POPC   O3120715   3.187   3.938   7.317 -0.3990  0.4523  0.1629
  181POPC   C3120716   3.217   3.815   7.296  0.2859  0.0029 -0.0154
  181POPC   O3220717   3.207   3.723   7.375 -0.4626 -0.3871  0.0913
  181POPC   C3220718   3.284   3.783   7.154  0.8342 -0.7595 -0.4045
  181POPC   H2X20719   3.241   3.687   7.119 -0.8263 -0.3884  0.5357
  181POPC   H2Y20720   3.391   3.757   7.167  0.7053 -1.5369 -0.8185
  181POPC   C2320721   3.433   4.400   7.217 -0.1374 -0.2902  0.4027
  181POPC   H3R20722   3.527   4.398   7.276  0.3924 -2.4654 -0.4193
  181POPC   H3S20723   3.433   4.503   7.176  1.1298 -0.8002 -0.9665
  181POPC   C2420724   3.429   4.286   7.115 -0.4087  1.0867 -0.0636
  181POPC   H4R20725   3.324   4.271   7.084  0.2947 -0.9199 -1.6866
  181POPC   H4S20726   3.459   4.186   7.152  1.6164  1.1060 -1.4782
  181POPC   C2520727   3.515   4.305   6.986  0.4549  0.9718 -0.3139
  181POPC   H5R20728   3.520   4.204   6.939  0.4019 -0.2532  2.1529
  181POPC   H5S20729   3.616   4.329   7.023 -0.5531  3.1657  1.2132
  181POPC   C2620730   3.460   4.403   6.886 -0.2084 -0.5990 -0.0984
  181POPC   H6R20731   3.463   4.508   6.922 -0.6050 -0.2957 -0.9166
  181POPC   H6S20732   3.359   4.371   6.854  1.6382 -3.6099 -3.7420
  181POPC   C2720733   3.529   4.409   6.746 -0.1586 -0.2553 -0.7453
  181POPC   H7R20734   3.538   4.309   6.698 -0.1657 -0.2134 -0.8350
  181POPC   H7S20735   3.637   4.432   6.762 -0.3187 -0.5714  0.9380
  181POPC   C2820736   3.437   4.498   6.658 -0.0207  0.0720  0.0059
  181POPC   H8R20737   3.394   4.577   6.723  0.2446 -1.1855  1.7829
  181POPC   H8S20738   3.356   4.429   6.626 -1.0685  1.1524  0.2386
  181POPC   C2920739   3.519   4.552   6.543  0.1790  0.0182  0.2009
  181POPC   H9120740   3.599   4.623   6.569  1.8835 -2.1950  1.3454
  181POPC  C21020741   3.496   4.523   6.413 -0.5317 -0.0988  0.0968
  181POPC  H10120742   3.558   4.568   6.334 -0.2867  1.0889  0.9424
  181POPC  C21120743   3.402   4.409   6.367  0.2075 -0.0860 -0.4242
  181POPC  H11R20744   3.308   4.453   6.327  1.3786  1.1542 -1.9709
  181POPC  H11S20745   3.375   4.344   6.453 -0.4728  0.5672 -0.1331
  181POPC  C21220746   3.465   4.321   6.264 -0.0987 -0.1572  0.7541
  181POPC  H12R20747   3.403   4.229   6.265 -1.7729  0.9316  1.4046
  181POPC  H12S20748   3.564   4.276   6.286 -0.3492 -2.5986 -2.3945
  181POPC  C21320749   3.466   4.379   6.122 -0.2360 -0.3286  0.2506
  181POPC  H13R20750   3.511   4.481   6.115  1.1873 -0.9493 -0.0098
  181POPC  H13S20751   3.358   4.382   6.097 -0.3287 -1.6033  0.4640
  181POPC  C21420752   3.540   4.291   6.018 -0.4950 -0.0465  0.3918
  181POPC  H14R20753   3.491   4.191   6.013 -1.0080  0.2225 -0.0961
  181POPC  H14S20754   3.645   4.283   6.054  0.0715 -0.6415 -1.2848
  181POPC  C21520755   3.531   4.361   5.878 -0.1988 -0.2507 -0.0556
  181POPC  H15R20756   3.618   4.330   5.816 -1.3342 -0.7746 -1.4490
  181POPC  H15S20757   3.541   4.470   5.897 -0.1317 -0.3496  0.4891
  181POPC  C21620758   3.399   4.326   5.812  0.0690  0.2856  0.7168
  181POPC  H16R20759   3.320   4.359   5.883 -2.2337  1.9216 -2.3539
  181POPC  H16S20760   3.411   4.216   5.798 -0.8453  0.2664 -0.0324
  181POPC  C21720761   3.399   4.384   5.672  0.3697 -0.7517  0.0042
  181POPC  H17R20762   3.473   4.327   5.612 -0.2110  0.1002 -1.5755
  181POPC  H17S20763   3.422   4.492   5.681 -0.9706 -0.3314 -1.2390
  181POPC  C21820764   3.272   4.378   5.593 -0.3080 -0.0911 -0.1067
  181POPC  H18R20765   3.185   4.431   5.638 -1.1424 -1.4507 -0.0339
  181POPC  H18S20766   3.248   4.271   5.572 -1.2702  0.0302  0.3410
  181POPC  H18T20767   3.297   4.428   5.498  0.0095  0.0311  0.0403
  181POPC   C3320768   3.283   3.898   7.047  0.3253  0.0635 -0.2839
  181POPC   H3X20769   3.345   3.982   7.084 -1.4220  1.7674 -1.0350
  181POPC   H3Y20770   3.174   3.918   7.043  0.2716  0.2973  1.4669
  181POPC   C3420771   3.347   3.847   6.918  0.1656 -0.2667 -0.2569
  181POPC   H4X20772   3.298   3.749   6.901  0.2510 -0.4190  0.3777
  181POPC   H4Y20773   3.457   3.835   6.917  0.3887  1.4709 -1.1910
  181POPC   C3520774   3.303   3.937   6.796  0.1902  0.2195  0.5197
  181POPC   H5X20775   3.335   4.043   6.801 -2.6305  1.1593  0.3173
  181POPC   H5Y20776   3.194   3.953   6.785 -0.0355 -0.0165  2.2348
  181POPC   C3620777   3.371   3.895   6.661 -0.1513 -0.5850  0.3353
  181POPC   H6X20778   3.308   3.823   6.606  1.1058 -0.2226 -1.6627
  181POPC   H6Y20779   3.471   3.848   6.677  0.3541 -0.7578 -2.7239
  181POPC   C3720780   3.407   4.004   6.567  0.0985  0.0629  0.5786
  181POPC   H7X20781   3.502   4.051   6.599  1.1114 -1.1414 -0.5955
  181POPC   H7Y20782   3.325   4.079   6.576  1.1869  1.2767  0.7021
  181POPC   C3820783   3.430   3.952   6.425  0.7097 -1.0171 -0.3501
  181POPC   H8X20784   3.442   4.041   6.359  4.1633 -2.6472 -2.2201
  181POPC   H8Y20785   3.335   3.902   6.398  0.3892 -0.5292 -0.1310
  181POPC   C3920786   3.554   3.867   6.419 -0.1859 -0.1920 -0.8168
  181POPC   H9X20787   3.566   3.802   6.508  1.2726 -0.3160 -1.0866
  181POPC   H9Y20788   3.634   3.943   6.428 -0.1544 -0.0598 -1.9976
  181POPC  C31020789   3.566   3.800   6.283 -0.1879  0.5630  0.2140
  181POPC  H10X20790   3.480   3.732   6.263 -0.6617  1.3800 -0.6226
  181POPC  H10Y20791   3.657   3.736   6.284 -0.1296  0.5576  3.1715
  181POPC  C31120792   3.559   3.890   6.164 -0.3292  0.7465  0.5664
  181POPC  H11X20793   3.632   3.973   6.175 -1.5275  1.8112  0.6477
  181POPC  H11Y20794   3.458   3.930   6.142 -0.4002 -0.0616 -0.6970
  181POPC  C31220795   3.589   3.820   6.030 -0.0824 -0.0090 -0.4917
  181POPC  H12X20796   3.521   3.732   6.030 -0.0306 -0.1024  1.4082
  181POPC  H12Y20797   3.696   3.792   6.020  0.6477  1.9275  1.1446
  181POPC  C31320798   3.562   3.925   5.921  0.8992  0.3439 -0.0966
  181POPC  H13X20799   3.639   4.002   5.944  1.2032 -0.2947  1.1167
  181POPC  H13Y20800   3.462   3.975   5.919  0.8819  0.3899  1.0712
  181POPC  C31420801   3.581   3.859   5.786 -0.0141  0.8189  0.0458
  181POPC  H14X20802   3.537   3.757   5.785 -0.5972  1.0682 -0.4763
  181POPC  H14Y20803   3.690   3.850   5.765  0.1646  2.6157 -0.0049
  181POPC  C31520804   3.524   3.937   5.665  0.1196  0.0865 -0.6036
  181POPC  H15X20805   3.569   4.038   5.680  1.1959 -0.3451 -0.8585
  181POPC  H15Y20806   3.413   3.951   5.671  0.1230  1.0206 -2.1302
  181POPC  C31620807   3.542   3.886   5.522 -0.3858 -0.0520 -0.0812
  181POPC  H16X20808   3.517   3.778   5.521  2.2476 -0.7245 -1.5653
  181POPC  H16Y20809   3.650   3.891   5.496 -0.3552  1.2117  0.2415
  181POPC  H16Z20810   3.484   3.945   5.448  0.0407  0.3231 -0.1182
  182POPC     N20811   1.814   3.192   8.026  0.1786  0.0146 -0.2460
  182POPC   C1220812   1.687   3.143   7.945  0.2948  0.9495  0.0537
  182POPC  H12A20813   1.601   3.148   8.010  1.0193 -0.8046  1.2609
  182POPC  H12B20814   1.703   3.037   7.928  0.9198  1.0079  0.2400
  182POPC   C1320815   1.802   3.134   8.157  0.1823  0.2075 -0.5190
  182POPC  H13A20816   1.704   3.148   8.199  1.2570  3.4088  1.2993
  182POPC  H13B20817   1.797   3.027   8.149 -2.8196  0.3722 -2.7360
  182POPC  H13C20818   1.884   3.163   8.221 -1.0366 -0.0690  1.2563
  182POPC   C1420819   1.936   3.155   7.958 -0.2515  0.1538  0.4645
  182POPC  H14A20820   2.023   3.180   8.017 -0.9076  1.9430  0.7561
  182POPC  H14B20821   1.935   3.049   7.938 -0.6438  0.4020 -0.9383
  182POPC  H14C20822   1.953   3.208   7.866 -0.3355  2.9089  1.9169
  182POPC   C1520823   1.813   3.339   8.037 -0.9675 -0.2990  0.0949
  182POPC  H15A20824   1.763   3.370   8.127 -2.7098 -0.7088 -0.6717
  182POPC  H15B20825   1.770   3.371   7.943  1.1947  0.1588 -0.7867
  182POPC  H15C20826   1.916   3.372   8.037 -1.5711  1.7378 -0.1298
  182POPC   C1120827   1.663   3.215   7.813 -0.0669 -0.2298 -0.1209
  182POPC  H11A20828   1.584   3.153   7.764  0.2973 -0.9686  0.2193
  182POPC  H11B20829   1.752   3.215   7.745 -0.0021  0.1368 -0.0393
  182POPC     P20830   1.476   3.397   7.819 -0.3563 -0.5274 -0.2512
  182POPC   O1320831   1.471   3.524   7.892  0.0141  0.3709  0.5815
  182POPC   O1420832   1.391   3.290   7.866  0.6869  0.4719  0.2071
  182POPC   O1220833   1.628   3.353   7.823  0.0304  0.1134  0.0300
  182POPC   O1120834   1.448   3.429   7.667 -0.0550  0.0460  0.3746
  182POPC    C120835   1.512   3.369   7.554 -0.3426 -0.0077  0.0022
  182POPC    HA20836   1.508   3.258   7.562  0.9400 -0.2313 -1.8571
  182POPC    HB20837   1.619   3.398   7.557  0.1523 -1.6424 -0.4026
  182POPC    C220838   1.440   3.411   7.425  0.1521 -0.1793 -0.4305
  182POPC    HS20839   1.458   3.327   7.355  1.0258 -0.1919 -0.1984
  182POPC   O2120840   1.488   3.533   7.363  0.8229  0.1294  0.2588
  182POPC   C2120841   1.593   3.521   7.280 -0.1552 -0.2172 -0.1487
  182POPC   O2220842   1.644   3.422   7.241  0.5452 -0.3216  0.0938
  182POPC   C2220843   1.624   3.654   7.226  0.1795 -0.7797  0.4423
  182POPC   H2R20844   1.686   3.714   7.296 -1.0757  0.7852  0.2717
  182POPC   H2S20845   1.529   3.707   7.201  0.8623  0.3151  0.1235
  182POPC    C320846   1.291   3.412   7.450 -0.3658  0.5855 -0.4815
  182POPC    HX20847   1.264   3.455   7.549  0.0821 -0.6245  0.1945
  182POPC    HY20848   1.261   3.305   7.459 -1.2180  0.3783 -4.2492
  182POPC   O3120849   1.211   3.461   7.340 -0.2090  0.2106  0.4583
  182POPC   C3120850   1.173   3.592   7.350  0.0834  0.8153 -0.2815
  182POPC   O3220851   1.211   3.665   7.439  0.7782 -0.3956  0.2766
  182POPC   C3220852   1.067   3.637   7.246  0.0393 -1.4028 -0.3629
  182POPC   H2X20853   0.966   3.649   7.290  0.1030  1.0158 -0.7324
  182POPC   H2Y20854   1.068   3.571   7.157  3.7278 -2.0036 -0.0380
  182POPC   C2320855   1.716   3.656   7.107 -0.1933  0.5840 -0.1373
  182POPC   H3R20856   1.681   3.577   7.037  1.7409 -0.4383 -0.0185
  182POPC   H3S20857   1.822   3.635   7.132  0.4464  0.3241 -2.7387
  182POPC   C2420858   1.723   3.788   7.029  0.0033 -0.3981  0.8482
  182POPC   H4R20859   1.800   3.773   6.950 -0.5865 -2.1815  0.5447
  182POPC   H4S20860   1.739   3.867   7.105 -2.7949  1.3370 -0.2200
  182POPC   C2520861   1.594   3.825   6.952 -0.3522 -0.0721  0.8627
  182POPC   H5R20862   1.514   3.857   7.022 -1.7618  0.5023 -0.9296
  182POPC   H5S20863   1.552   3.739   6.896 -1.8152  0.6532  0.8025
  182POPC   C2620864   1.620   3.950   6.868  0.3933 -0.2278  0.2535
  182POPC   H6R20865   1.716   3.942   6.813 -0.4282  3.1010 -1.8904
  182POPC   H6S20866   1.637   4.033   6.940 -1.7268 -2.0431  3.1016
  182POPC   C2720867   1.501   3.998   6.787 -0.4288 -0.3121  0.1958
  182POPC   H7R20868   1.519   4.105   6.765  2.3319 -0.6836  0.3203
  182POPC   H7S20869   1.411   3.994   6.852 -1.1253  0.5049 -0.6934
  182POPC   C2820870   1.467   3.921   6.654 -0.5175 -0.1246 -0.0127
  182POPC   H8R20871   1.375   3.974   6.618 -0.5020 -0.2327 -0.2097
  182POPC   H8S20872   1.450   3.814   6.678  0.3118 -0.1305  0.5777
  182POPC   C2920873   1.581   3.931   6.555  0.0175  0.8538  0.9203
  182POPC   H9120874   1.665   3.869   6.590 -0.9456 -1.2637 -0.2911
  182POPC  C21020875   1.578   3.997   6.438  0.2519 -0.2089 -0.1630
  182POPC  H10120876   1.667   4.000   6.374  0.3889  0.1260  0.0441
  182POPC  C21120877   1.465   4.087   6.393 -0.6132 -0.4097 -0.8910
  182POPC  H11R20878   1.475   4.173   6.462  1.2520  0.5360 -2.2463
  182POPC  H11S20879   1.369   4.036   6.416 -1.1139  1.2647  0.9858
  182POPC  C21220880   1.466   4.156   6.251 -0.1014  0.7481  0.3426
  182POPC  H12R20881   1.556   4.220   6.251  0.0328  0.6930 -2.4293
  182POPC  H12S20882   1.368   4.208   6.239 -2.1658 -3.0806 -1.5014
  182POPC  C21320883   1.467   4.060   6.132  0.5627  0.0412  0.3829
  182POPC  H13R20884   1.383   3.989   6.145  0.7926 -1.7425 -5.1342
  182POPC  H13S20885   1.565   4.008   6.120  0.2942  0.0259 -2.4940
  182POPC  C21420886   1.426   4.128   6.001 -0.0788  0.2866 -0.0614
  182POPC  H14R20887   1.483   4.224   5.992 -0.5701  0.5938  0.0502
  182POPC  H14S20888   1.322   4.166   6.012 -0.4176 -0.1598 -1.5331
  182POPC  C21520889   1.445   4.051   5.874  0.1124 -0.1818 -0.3346
  182POPC  H15R20890   1.357   3.983   5.875 -0.7874  0.9221 -1.2624
  182POPC  H15S20891   1.532   3.983   5.879  1.0663  0.7801 -2.4986
  182POPC  C21620892   1.442   4.136   5.738 -0.7277  0.1177 -0.4220
  182POPC  H16R20893   1.524   4.211   5.735  0.1278 -0.6718  1.5185
  182POPC  H16S20894   1.350   4.196   5.755  0.4303  1.3944  1.9781
  182POPC  C21720895   1.456   4.057   5.611 -0.1058  0.3922 -0.3242
  182POPC  H17R20896   1.385   3.971   5.614 -0.6978  0.8513  3.4402
  182POPC  H17S20897   1.554   4.005   5.611  0.1766  0.9257 -0.0130
  182POPC  C21820898   1.434   4.134   5.482  0.0333 -0.8156  0.5563
  182POPC  H18R20899   1.338   4.189   5.474 -1.0829 -2.8312 -0.9138
  182POPC  H18S20900   1.433   4.062   5.398 -3.0029 -1.4118  0.9829
  182POPC  H18T20901   1.518   4.205   5.466 -2.0481  1.1937 -2.6304
  182POPC   C3320902   1.099   3.786   7.190  0.8088 -0.4065 -0.1031
  182POPC   H3X20903   1.193   3.795   7.132 -0.7822 -3.0417 -3.4914
  182POPC   H3Y20904   1.090   3.863   7.270 -0.1468 -2.4763  1.8703
  182POPC   C3420905   0.983   3.820   7.092  0.4358 -0.3780  0.0702
  182POPC   H4X20906   0.989   3.925   7.058 -4.3190  0.5867  1.4617
  182POPC   H4Y20907   0.883   3.815   7.140 -0.9703  3.7783 -1.9485
  182POPC   C3520908   0.985   3.740   6.960 -0.3521 -0.1637 -0.3789
  182POPC   H5X20909   0.879   3.757   6.931 -1.1472  2.7687  3.4724
  182POPC   H5Y20910   0.998   3.631   6.972 -0.4792 -0.0868  0.5269
  182POPC   C3620911   1.069   3.813   6.850 -0.1858 -0.3513 -0.7211
  182POPC   H6X20912   1.173   3.820   6.889 -0.5727  0.0027  0.2858
  182POPC   H6Y20913   1.033   3.919   6.848  0.1948 -0.2256 -2.3409
  182POPC   C3720914   1.043   3.757   6.709 -0.2958  0.0145  0.2154
  182POPC   H7X20915   0.940   3.716   6.699  0.1661 -1.4330  1.1131
  182POPC   H7Y20916   1.106   3.670   6.680  2.5429  1.8528  0.4328
  182POPC   C3820917   1.069   3.866   6.605 -0.0894 -0.2166 -0.9091
  182POPC   H8X20918   1.166   3.913   6.633 -0.7069  0.6642 -0.2038
  182POPC   H8Y20919   0.997   3.948   6.622  1.2276  0.6657  0.6115
  182POPC   C3920920   1.059   3.808   6.463  0.0318 -0.6072  0.4996
  182POPC   H9X20921   0.957   3.767   6.446  0.4638 -1.1090 -1.0539
  182POPC   H9Y20922   1.134   3.726   6.455  0.2946 -0.4122  0.9250
  182POPC  C31020923   1.072   3.914   6.351 -0.6822 -0.7500  0.4444
  182POPC  H10X20924   1.179   3.942   6.339 -0.7432 -1.2850 -1.6511
  182POPC  H10Y20925   1.011   4.005   6.370  1.5480  0.5994  1.6297
  182POPC  C31120926   1.024   3.857   6.219 -1.1341 -0.0102 -0.5891
  182POPC  H11X20927   0.914   3.843   6.230 -0.8137 -1.6332  1.1218
  182POPC  H11Y20928   1.067   3.755   6.207  2.2903  1.4519 -1.7099
  182POPC  C31220929   1.059   3.940   6.104 -0.0962 -0.0899  0.0297
  182POPC  H12X20930   1.168   3.943   6.080  0.6015 -0.6899  2.7762
  182POPC  H12Y20931   1.033   4.046   6.123 -0.7027 -0.3269  0.5307
  182POPC  C31320932   1.004   3.887   5.970  0.1400  0.2879 -0.7515
  182POPC  H13X20933   0.896   3.872   5.991  0.2955  0.0000 -0.1278
  182POPC  H13Y20934   1.046   3.785   5.961  1.9783  1.0299 -0.9420
  182POPC  C31420935   1.028   3.982   5.853 -0.1278  0.4503 -0.6701
  182POPC  H14X20936   1.129   4.026   5.839 -0.5171  1.6957  0.2819
  182POPC  H14Y20937   0.946   4.056   5.861 -2.4593 -1.8210 -2.0305
  182POPC  C31520938   1.001   3.905   5.727 -0.1758 -0.0039  0.6231
  182POPC  H15X20939   0.892   3.882   5.734 -0.2381 -0.1533 -0.6196
  182POPC  H15Y20940   1.067   3.816   5.731  0.3781  0.3669 -0.0356
  182POPC  C31620941   1.037   3.988   5.600  0.9101  0.2014  0.1428
  182POPC  H16X20942   1.143   4.020   5.607  1.2909 -0.6693 -1.2239
  182POPC  H16Y20943   0.963   4.068   5.579  0.3279 -1.0355 -2.9222
  182POPC  H16Z20944   1.037   3.916   5.516  0.8687 -1.1747  1.2913
  183POPC     N20945   3.325   2.766   7.751  0.3521 -0.5284  0.1042
  183POPC   C1220946   3.471   2.735   7.728 -0.0182  0.0187  0.6802
  183POPC  H12A20947   3.497   2.630   7.722  0.7207  0.2561 -0.5143
  183POPC  H12B20948   3.511   2.763   7.824  0.2726 -0.3442  0.6641
  183POPC   C1320949   3.312   2.909   7.794  0.4642 -0.3678 -0.3103
  183POPC  H13A20950   3.209   2.940   7.798  0.2365 -1.2559  1.8433
  183POPC  H13B20951   3.349   2.930   7.893  0.8214 -2.3830  0.0287
  183POPC  H13C20952   3.364   2.970   7.722  0.9840  1.0903  1.2499
  183POPC   C1420953   3.234   2.746   7.633 -0.6816 -0.2189 -0.2992
  183POPC  H14A20954   3.140   2.788   7.665 -0.5096 -0.5683  0.7055
  183POPC  H14B20955   3.266   2.810   7.553 -0.7217 -1.5474 -1.4124
  183POPC  H14C20956   3.211   2.644   7.606 -2.5214 -0.6349  2.4275
  183POPC   C1520957   3.273   2.678   7.859 -0.1272  0.1757  0.4839
  183POPC  H15A20958   3.165   2.676   7.865 -0.1699 -2.8765  0.5073
  183POPC  H15B20959   3.314   2.710   7.953  2.4921 -0.5407 -0.3317
  183POPC  H15C20960   3.293   2.575   7.832  0.5362  0.4596 -0.1334
  183POPC   C1120961   3.542   2.815   7.624  0.3441 -0.8130  0.2083
  183POPC  H11A20962   3.483   2.802   7.531  1.2796 -1.0074 -0.3747
  183POPC  H11B20963   3.644   2.774   7.608  1.6028  2.0301  0.2261
  183POPC     P20964   3.570   3.068   7.556 -0.2064  0.2633 -0.1800
  183POPC   O1320965   3.576   3.194   7.629 -0.2144 -0.1682 -0.2732
  183POPC   O1420966   3.474   3.049   7.447 -0.0533 -0.2797 -0.2250
  183POPC   O1220967   3.556   2.952   7.659  0.0655 -0.1373 -1.0941
  183POPC   O1120968   3.710   3.042   7.478  1.4119  0.8307 -0.0156
  183POPC    C120969   3.725   2.937   7.385 -0.2687  1.0017 -0.3633
  183POPC    HA20970   3.633   2.925   7.324 -0.3558 -0.4000  0.0129
  183POPC    HB20971   3.761   2.844   7.434 -1.8784  1.3847  1.6882
  183POPC    C220972   3.835   2.986   7.290  0.7617  0.1387 -0.0390
  183POPC    HS20973   3.842   2.905   7.214 -0.9446 -1.0469  0.9867
  183POPC   O2120974   3.957   3.014   7.357 -0.0325 -0.3517  0.4817
  183POPC   C2120975   4.062   3.021   7.273 -0.7824 -1.1257  0.3376
  183POPC   O2220976   4.069   2.971   7.160 -0.0386  0.8878  0.0513
  183POPC   C2220977   4.177   3.107   7.343 -0.9886  0.4979  0.2224
  183POPC   H2R20978   4.204   3.074   7.446  3.0745 -0.5666 -0.9680
  183POPC   H2S20979   4.145   3.210   7.320 -0.5419 -0.0493 -3.4549
  183POPC    C320980   3.780   3.110   7.217  0.3251 -0.0528 -0.4768
  183POPC    HX20981   3.799   3.200   7.279  0.5122 -1.8608  2.2830
  183POPC    HY20982   3.669   3.112   7.213  0.2865  1.9024  0.5704
  183POPC   O3120983   3.827   3.115   7.085 -0.0209  0.6426  0.6814
  183POPC   C3120984   3.857   3.238   7.041  0.6103 -0.4271  1.0362
  183POPC   O3220985   3.829   3.345   7.097  0.0288  0.2597 -0.1516
  183POPC   C3220986   3.949   3.225   6.922  0.3495 -0.2428 -0.6277
  183POPC   H2X20987   4.025   3.149   6.951 -0.2010 -0.0048  1.6694
  183POPC   H2Y20988   4.004   3.321   6.913  2.1897 -1.1424  0.3817
  183POPC   C2320989   4.313   3.070   7.269 -0.2026  0.6126 -0.2038
  183POPC   H3R20990   4.332   2.961   7.265  0.7743  0.7331  0.5870
  183POPC   H3S20991   4.390   3.117   7.335 -0.0236  2.0093 -1.3437
  183POPC   C2420992   4.333   3.122   7.118 -0.1883 -0.4306  0.0305
  183POPC   H4R20993   4.330   3.233   7.126  1.1389 -0.2515 -1.5194
  183POPC   H4S20994   4.250   3.085   7.053  1.7742 -1.8587 -1.7878
  183POPC   C2520995   4.460   3.072   7.051  0.4146  0.6122  0.6830
  183POPC   H5R20996   4.441   2.965   7.030 -0.8693  1.1104 -0.8816
  183POPC   H5S20997   4.549   3.082   7.117  0.5749 -0.7017  0.7002
  183POPC   C2620998   4.488   3.148   6.915  0.0991  0.1190 -0.4627
  183POPC   H6R20999   4.573   3.098   6.864 -0.8446 -1.7534 -0.3031
  183POPC   H6S21000   4.508   3.256   6.934 -2.0623  0.2376  1.6522
  183POPC   C2721001   4.364   3.151   6.828 -0.6332  0.0866  0.3752
  183POPC   H7R21002   4.306   3.243   6.853 -0.0200  0.6289 -0.1701
  183POPC   H7S21003   4.295   3.069   6.855  1.9085 -3.3394 -2.6418
  183POPC   C2821004   4.395   3.146   6.679 -0.5849 -0.8060 -0.2676
  183POPC   H8R21005   4.299   3.131   6.625 -0.5747 -0.1925 -0.4618
  183POPC   H8S21006   4.466   3.060   6.673  0.7311  0.2099  0.2567
  183POPC   C2921007   4.474   3.270   6.641  0.1503 -0.1005 -0.7678
  183POPC   H9121008   4.573   3.270   6.689 -0.0263  2.1520 -0.3237
  183POPC  C21021009   4.444   3.363   6.552  0.0213 -0.0891  0.0583
  183POPC  H10121010   4.501   3.457   6.543 -0.5124  0.1337 -1.2199
  183POPC  C21121011   4.311   3.357   6.467 -0.7135 -0.0912 -1.1599
  183POPC  H11R21012   4.234   3.434   6.492 -0.3555 -0.1793  0.3453
  183POPC  H11S21013   4.278   3.252   6.481  2.0320 -1.0852 -1.5237
  183POPC  C21221014   4.343   3.365   6.321  0.2425  0.3600  0.0190
  183POPC  H12R21015   4.410   3.450   6.295  0.6109 -0.2001 -0.9464
  183POPC  H12S21016   4.246   3.395   6.276 -0.2627  1.4326  1.7226
  183POPC  C21321017   4.398   3.239   6.263  1.1341 -0.0159 -0.3340
  183POPC  H13R21018   4.334   3.151   6.287 -3.3993  2.2140 -2.9026
  183POPC  H13S21019   4.489   3.213   6.320 -0.6323  1.6475  3.7164
  183POPC  C21421020   4.395   3.232   6.107  0.1221 -0.2166 -0.5407
  183POPC  H14R21021   4.444   3.322   6.064  2.4826 -0.8506  0.6307
  183POPC  H14S21022   4.292   3.239   6.066  0.5947  2.5105 -1.4229
  183POPC  C21521023   4.473   3.110   6.049 -0.0316 -0.5509 -0.0785
  183POPC  H15R21024   4.430   3.015   6.088 -0.7204  1.0948  3.6068
  183POPC  H15S21025   4.576   3.109   6.091  0.3641  0.2833 -1.0045
  183POPC  C21621026   4.484   3.120   5.898  0.0986 -0.2595  0.9870
  183POPC  H16R21027   4.524   3.217   5.860  2.1369 -1.1799  0.6734
  183POPC  H16S21028   4.381   3.102   5.861  0.0509 -0.4468  1.2096
  183POPC  C21721029   4.567   3.002   5.839  0.4088 -0.0077  0.8194
  183POPC  H17R21030   4.528   2.911   5.891  1.0944 -0.9933 -0.3315
  183POPC  H17S21031   4.672   2.994   5.875 -0.2495 -1.6229  2.5820
  183POPC  C21821032   4.549   2.990   5.690 -0.7817 -0.4732 -0.1548
  183POPC  H18R21033   4.606   2.903   5.651 -0.0810 -1.0542  2.0172
  183POPC  H18S21034   4.587   3.083   5.643 -1.9106  1.0207  1.7418
  183POPC  H18T21035   4.442   2.964   5.677 -0.4036 -1.6687 -1.0971
  183POPC   C3321036   3.877   3.189   6.793 -0.0706  1.1702 -0.0098
  183POPC   H3X21037   3.775   3.233   6.790 -1.3042 -1.5502 -0.4562
  183POPC   H3Y21038   3.867   3.080   6.809  0.2808  1.3400  1.5917
  183POPC   C3421039   3.962   3.217   6.670  0.3926 -0.0144  0.2470
  183POPC   H4X21040   4.066   3.176   6.668  0.3452 -0.1295  0.1736
  183POPC   H4Y21041   3.984   3.325   6.661  2.1701 -0.3799 -0.3713
  183POPC   C3521042   3.897   3.163   6.545  0.2109  0.2871 -0.4306
  183POPC   H5X21043   3.787   3.172   6.530  0.3136  0.0751 -1.3633
  183POPC   H5Y21044   3.905   3.053   6.539  0.3259  0.3807 -3.0064
  183POPC   C3621045   3.965   3.223   6.422  0.3886  0.2811 -0.2892
  183POPC   H6X21046   4.076   3.219   6.427  0.4173  1.2615  0.2424
  183POPC   H6Y21047   3.951   3.334   6.420 -0.4107  0.1867 -1.6074
  183POPC   C3721048   3.907   3.156   6.296 -0.0492 -0.6265 -0.4211
  183POPC   H7X21049   3.796   3.151   6.293 -0.0015 -4.5577 -2.7656
  183POPC   H7Y21050   3.945   3.052   6.306 -0.6315 -0.8308 -0.2908
  183POPC   C3821051   3.964   3.219   6.165 -0.1272 -0.4022  0.8924
  183POPC   H8X21052   4.072   3.247   6.173 -0.2851  0.6920 -0.4377
  183POPC   H8Y21053   3.914   3.317   6.150  0.3787 -0.4976 -1.9917
  183POPC   C3921054   3.942   3.132   6.041  0.0472  0.5999  0.6147
  183POPC   H9X21055   3.851   3.071   6.059 -1.6872  2.7978 -0.1546
  183POPC   H9Y21056   4.028   3.061   6.043  0.2955  0.9119  1.3221
  183POPC  C31021057   3.922   3.211   5.905  0.1715  0.1591  0.3205
  183POPC  H10X21058   3.998   3.288   5.880 -1.4034  1.4807 -0.5749
  183POPC  H10Y21059   3.819   3.253   5.916 -0.7264 -2.0250  0.7410
  183POPC  C31121060   3.906   3.116   5.781  0.2687 -0.4866  0.9581
  183POPC  H11X21061   3.868   3.015   5.808  0.9701 -1.1364 -0.3695
  183POPC  H11Y21062   4.010   3.105   5.743 -0.4300  1.8605 -2.0598
  183POPC  C31221063   3.828   3.177   5.660 -0.0835  0.8593 -0.4647
  183POPC  H12X21064   3.855   3.279   5.628 -2.6719  0.8307 -3.1463
  183POPC  H12Y21065   3.719   3.183   5.684 -0.7911 -2.6399 -2.2027
  183POPC  C31321066   3.850   3.093   5.539 -0.5627 -0.0414  0.5019
  183POPC  H13X21067   3.859   2.987   5.572 -0.6627 -0.3165 -0.3376
  183POPC  H13Y21068   3.946   3.119   5.489 -0.8570 -0.3628 -0.2431
  183POPC  C31421069   3.736   3.117   5.442 -0.3236 -0.1670 -0.1469
  183POPC  H14X21070   3.718   3.220   5.406 -2.0011 -0.5890 -0.6118
  183POPC  H14Y21071   3.647   3.089   5.503  1.8898 -0.4840  3.1833
  183POPC  C31521072   3.728   3.025   5.317 -0.3934  0.1542 -0.0769
  183POPC  H15X21073   3.653   3.064   5.244  0.3037  0.9105 -0.3973
  183POPC  H15Y21074   3.707   2.918   5.340  2.9568 -0.8503 -1.1537
  183POPC  C31621075   3.852   3.022   5.233 -0.4257 -0.1796 -0.4987
  183POPC  H16X21076   3.921   2.944   5.272  0.6625  0.9671 -0.0794
  183POPC  H16Y21077   3.917   3.110   5.244 -0.7669  0.0218 -0.0285
  183POPC  H16Z21078   3.842   2.998   5.125  0.4181  1.0477 -0.8667
  184POPC     N21079   3.673   3.953   7.704 -0.0304 -0.3141 -0.7910
  184POPC   C1221080   3.743   3.977   7.837 -0.3424  0.1838 -0.1489
  184POPC  H12A21081   3.781   3.889   7.886  0.2454  0.4911 -0.0505
  184POPC  H12B21082   3.675   4.018   7.910 -0.2281  0.2258 -0.0654
  184POPC   C1321083   3.606   4.075   7.653  0.0516 -0.5021  0.8275
  184POPC  H13A21084   3.514   4.101   7.703 -0.9685 -1.2992 -0.5688
  184POPC  H13B21085   3.671   4.160   7.663  0.3445 -0.3726 -1.6424
  184POPC  H13C21086   3.578   4.047   7.553  1.7355 -0.7966  0.4178
  184POPC   C1421087   3.775   3.906   7.610  0.5769  0.3345 -0.8036
  184POPC  H14A21088   3.855   3.977   7.596  1.2640 -0.1412  0.5310
  184POPC  H14B21089   3.828   3.817   7.639 -0.3772  0.3721  1.2318
  184POPC  H14C21090   3.735   3.881   7.513 -0.1423  0.6196 -0.5869
  184POPC   C1521091   3.585   3.832   7.711 -0.3708  0.3647  0.0912
  184POPC  H15A21092   3.500   3.858   7.772 -0.3197 -2.1990  1.3935
  184POPC  H15B21093   3.630   3.746   7.759 -2.2045 -1.4056 -1.2165
  184POPC  H15C21094   3.548   3.805   7.613 -1.1285  0.8034  0.2456
  184POPC   C1121095   3.863   4.083   7.836 -0.1596  0.6917 -0.0019
  184POPC  H11A21096   3.932   4.043   7.759  0.3034 -2.1237  1.7107
  184POPC  H11B21097   3.913   4.070   7.934  2.7002 -1.4856 -1.5981
  184POPC     P21098   3.894   4.315   7.727  0.0155 -0.1016 -0.1221
  184POPC   O1321099   4.019   4.342   7.804 -0.6814  0.3077 -0.5601
  184POPC   O1421100   3.810   4.434   7.694 -0.6193 -0.4276  0.2230
  184POPC   O1221101   3.801   4.214   7.807 -0.0679 -0.4222  0.0422
  184POPC   O1121102   3.925   4.241   7.590 -0.7160  0.1583 -0.1305
  184POPC    C121103   3.858   4.282   7.474  0.8527 -0.0989 -0.9540
  184POPC    HA21104   3.881   4.389   7.452  0.8296  0.2245  0.4911
  184POPC    HB21105   3.749   4.275   7.494  0.9447 -1.8526 -0.9468
  184POPC    C221106   3.901   4.199   7.354 -0.2931  0.1453 -0.3498
  184POPC    HS21107   3.904   4.096   7.394  0.0427  0.5650  0.7682
  184POPC   O2121108   4.031   4.245   7.319  0.0057  0.0999  0.0829
  184POPC   C2121109   4.127   4.154   7.308  0.0597  0.1957 -0.8433
  184POPC   O2221110   4.116   4.036   7.332  0.7123  0.1749  0.0296
  184POPC   C2221111   4.263   4.226   7.276  0.7809 -0.5001  0.5774
  184POPC   H2R21112   4.326   4.153   7.221  1.4866  1.0640 -0.7507
  184POPC   H2S21113   4.311   4.273   7.365  0.5881 -1.3377  1.1423
  184POPC    C321114   3.800   4.212   7.236  0.0732  0.1652  0.3577
  184POPC    HX21115   3.803   4.317   7.200  0.4371 -0.2819 -0.9828
  184POPC    HY21116   3.698   4.196   7.277  0.1241 -0.1525  0.3676
  184POPC   O3121117   3.830   4.126   7.118 -0.6651 -0.0609  0.8634
  184POPC   C3121118   3.785   4.004   7.127 -0.1470  0.5760 -0.1985
  184POPC   O3221119   3.712   3.961   7.217  0.8889  0.2888  0.6295
  184POPC   C3221120   3.854   3.927   7.019  0.2833  0.3716  0.7331
  184POPC   H2X21121   3.878   3.824   7.053  0.0639 -0.1375 -0.5999
  184POPC   H2Y21122   3.955   3.967   6.995  1.2655 -0.4326  3.2096
  184POPC   C2321123   4.223   4.341   7.181  0.3220 -0.2123  0.4228
  184POPC   H3R21124   4.317   4.395   7.158  0.6135 -0.5566  0.7924
  184POPC   H3S21125   4.158   4.420   7.223  0.3902  1.3648 -2.1676
  184POPC   C2421126   4.184   4.287   7.042  0.5179  0.3855 -0.4818
  184POPC   H4R21127   4.129   4.369   6.992 -1.7321 -1.0484 -0.5053
  184POPC   H4S21128   4.113   4.201   7.037 -2.2049  2.5429 -1.4127
  184POPC   C2521129   4.307   4.264   6.943  0.1361 -0.0191  0.6466
  184POPC   H5R21130   4.376   4.204   7.005  1.0751 -0.0339 -0.3874
  184POPC   H5S21131   4.353   4.361   6.919 -0.0952 -0.3758 -1.4213
  184POPC   C2621132   4.280   4.196   6.813  0.1374  0.0156 -0.1447
  184POPC   H6R21133   4.193   4.244   6.765  0.1216 -0.4013 -0.5465
  184POPC   H6S21134   4.268   4.088   6.836  0.3809  0.2688  1.2437
  184POPC   C2721135   4.383   4.213   6.696  0.1591 -0.1133 -0.2483
  184POPC   H7R21136   4.363   4.121   6.637 -0.9300 -0.4397  0.5788
  184POPC   H7S21137   4.483   4.227   6.742 -0.9731  2.3037  1.7617
  184POPC   C2821138   4.342   4.333   6.611 -0.1869  0.5540  0.2888
  184POPC   H8R21139   4.341   4.420   6.679 -2.3242  1.5576 -0.9283
  184POPC   H8S21140   4.243   4.319   6.563  0.0970 -0.6496 -0.0054
  184POPC   C2921141   4.453   4.356   6.508  0.2091 -0.1987  0.0835
  184POPC   H9121142   4.504   4.452   6.527  1.4729 -0.6682 -0.8752
  184POPC  C21021143   4.474   4.308   6.389 -0.2873  0.5277 -0.5652
  184POPC  H10121144   4.553   4.356   6.328  0.3163 -0.9725 -1.0192
  184POPC  C21121145   4.406   4.197   6.318 -0.4463  0.1721 -0.7005
  184POPC  H11R21146   4.333   4.164   6.394  0.7127  0.1396  0.4232
  184POPC  H11S21147   4.481   4.115   6.309  0.1652  0.5344  0.8236
  184POPC  C21221148   4.329   4.234   6.191 -0.3432  0.6459  1.1679
  184POPC  H12R21149   4.253   4.314   6.206 -1.6671 -0.4802  0.6432
  184POPC  H12S21150   4.276   4.139   6.170  0.4267 -0.0730  2.3939
  184POPC  C21321151   4.421   4.263   6.077  0.0970  0.9049  0.6028
  184POPC  H13R21152   4.510   4.197   6.075 -0.4199  0.0422 -3.6370
  184POPC  H13S21153   4.468   4.362   6.096  0.9484  0.4213  1.0509
  184POPC  C21421154   4.361   4.262   5.935  0.7037 -0.3158 -0.0282
  184POPC  H14R21155   4.312   4.169   5.901  0.2288 -1.0684  2.5258
  184POPC  H14S21156   4.447   4.281   5.867  1.2701  1.6788  1.1465
  184POPC  C21521157   4.260   4.375   5.899  0.3060  0.2330 -0.1895
  184POPC  H15R21158   4.284   4.468   5.955 -0.6582  0.7922 -0.6725
  184POPC  H15S21159   4.154   4.349   5.919  0.7145 -1.2968  0.0739
  184POPC  C21621160   4.275   4.412   5.749  0.0777  0.3724 -0.2221
  184POPC  H16R21161   4.275   4.320   5.687  1.9251  0.4524 -0.3704
  184POPC  H16S21162   4.377   4.455   5.737  1.3034 -1.7858  1.7207
  184POPC  C21721163   4.174   4.509   5.693 -0.6660 -0.3379  0.0972
  184POPC  H17R21164   4.079   4.483   5.746  0.6441 -0.0085  2.7539
  184POPC  H17S21165   4.168   4.486   5.584 -2.1627 -1.0241  0.2987
  184POPC  C21821166   4.209   4.655   5.718 -0.6740 -0.3627  0.4965
  184POPC  H18R21167   4.315   4.676   5.695 -0.7551  0.5810  0.9406
  184POPC  H18S21168   4.202   4.680   5.826  2.1615  1.4572  0.3401
  184POPC  H18T21169   4.154   4.730   5.658 -0.0390 -0.2121  0.0949
  184POPC   C3321170   3.758   3.907   6.899 -0.1441  0.1898  0.7068
  184POPC   H3X21171   3.663   3.963   6.909 -0.5915 -0.0942 -1.4206
  184POPC   H3Y21172   3.742   3.798   6.885  1.0638  0.1702 -0.8521
  184POPC   C3421173   3.821   3.962   6.766  0.4891  0.0836  0.2447
  184POPC   H4X21174   3.754   3.927   6.684  0.1171 -1.4151  1.1373
  184POPC   H4Y21175   3.918   3.908   6.758 -0.1697 -1.1510  0.3267
  184POPC   C3521176   3.845   4.119   6.758  0.2771  0.3581 -0.9144
  184POPC   H5X21177   3.953   4.133   6.782 -0.2249  0.5437  1.5271
  184POPC   H5Y21178   3.780   4.167   6.833  0.0339 -0.1447 -0.7984
  184POPC   C3621179   3.829   4.178   6.620 -0.4049 -0.5724 -0.0391
  184POPC   H6X21180   3.872   4.280   6.612  0.9720 -0.9839  1.5255
  184POPC   H6Y21181   3.722   4.187   6.594 -0.0608  0.0706 -1.3273
  184POPC   C3721182   3.896   4.096   6.499  0.1884  0.4344  0.2822
  184POPC   H7X21183   3.850   3.998   6.474  0.6116  0.8657 -2.4611
  184POPC   H7Y21184   4.004   4.083   6.524  0.8268  2.7663 -0.9791
  184POPC   C3821185   3.886   4.170   6.364  0.8849 -0.2358  0.3302
  184POPC   H8X21186   3.960   4.253   6.357  2.2656 -1.4913 -0.4372
  184POPC   H8Y21187   3.782   4.208   6.353  1.4282  0.7780 -1.9028
  184POPC   C3921188   3.919   4.067   6.252 -0.2832  0.0872  0.9824
  184POPC   H9X21189   3.848   3.982   6.258  0.3437 -0.5478 -0.1864
  184POPC   H9Y21190   4.025   4.036   6.271  1.0114  2.6240 -1.4243
  184POPC  C31021191   3.914   4.121   6.104 -0.3784 -1.0714  0.3994
  184POPC  H10X21192   3.975   4.212   6.088 -2.0915 -0.1243 -1.0601
  184POPC  H10Y21193   3.809   4.154   6.087 -0.7343 -3.0333 -1.7929
  184POPC  C31121194   3.940   4.017   5.991  0.2516  0.1523 -0.1584
  184POPC  H11X21195   3.855   3.946   5.985  0.5063 -0.3104  1.2932
  184POPC  H11Y21196   4.026   3.951   6.015 -0.1897 -1.0520 -1.7651
  184POPC  C31221197   3.984   4.066   5.853 -0.5767 -0.3632  0.5130
  184POPC  H12X21198   4.027   3.983   5.793  0.0460 -0.9324  1.7224
  184POPC  H12Y21199   4.062   4.145   5.865 -1.0619  0.2745 -0.3881
  184POPC  C31321200   3.859   4.119   5.777  0.3419  0.5222 -0.8928
  184POPC  H13X21201   3.808   4.189   5.847  0.7474  0.1474 -0.2099
  184POPC  H13Y21202   3.793   4.033   5.756 -0.0879  1.0080 -1.5577
  184POPC  C31421203   3.891   4.189   5.649  0.1888  0.2363  0.4741
  184POPC  H14X21204   3.951   4.276   5.681 -1.0257  1.2586  0.0470
  184POPC  H14Y21205   3.798   4.232   5.607 -1.5070 -2.1886  1.5247
  184POPC  C31521206   3.967   4.124   5.540 -0.1235 -0.5195  0.3490
  184POPC  H15X21207   3.960   4.013   5.547 -2.1449 -0.4580 -0.2428
  184POPC  H15Y21208   4.073   4.156   5.552 -0.5626  1.6528 -1.0047
  184POPC  C31621209   3.934   4.164   5.392  0.4657  0.3087  0.3293
  184POPC  H16X21210   3.986   4.090   5.328 -0.5803  1.3238 -1.7955
  184POPC  H16Y21211   3.970   4.267   5.370 -0.3496  0.8027  1.2097
  184POPC  H16Z21212   3.827   4.142   5.372  0.0693  1.3644  1.2053
  185POPC     N21213   6.438   4.314   3.075  1.2353  0.2906 -0.0621
  185POPC   C1221214   6.558   4.386   3.128  0.6344  0.5171  0.5027
  185POPC  H12A21215   6.538   4.481   3.176  0.2303 -0.5560  2.5362
  185POPC  H12B21216   6.624   4.408   3.045 -0.0449 -2.5707 -0.9978
  185POPC   C1321217   6.377   4.397   2.969 -0.2360 -0.0257  0.8481
  185POPC  H13A21218   6.283   4.348   2.950 -1.4446  1.7546  1.8819
  185POPC  H13B21219   6.348   4.499   2.993  1.0842  0.4071  0.7080
  185POPC  H13C21220   6.435   4.395   2.878 -0.2319 -3.4539  0.8079
  185POPC   C1421221   6.466   4.182   3.022  0.6712  0.3813 -0.6136
  185POPC  H14A21222   6.372   4.129   3.022  0.8261  0.0444  1.3152
  185POPC  H14B21223   6.521   4.184   2.929  2.7033 -2.9000  0.3643
  185POPC  H14C21224   6.537   4.135   3.088  0.0694  0.2603 -0.0435
  185POPC   C1521225   6.329   4.303   3.177 -0.9006 -0.5834 -0.6759
  185POPC  H15A21226   6.237   4.258   3.144 -0.4279 -2.7893  0.8182
  185POPC  H15B21227   6.311   4.398   3.225 -3.9479 -0.3130 -2.1197
  185POPC  H15C21228   6.364   4.248   3.262  0.0980 -0.4147 -0.9602
  185POPC   C1121229   6.643   4.299   3.223 -0.1792  0.3425  0.6367
  185POPC  H11A21230   6.730   4.362   3.248 -0.6381  1.3111 -0.1619
  185POPC  H11B21231   6.680   4.218   3.156  2.2155  3.1279 -1.6465
  185POPC     P21232   6.586   4.100   3.384  0.1437 -0.4099 -0.1079
  185POPC   O1321233   6.554   4.016   3.266  0.1036  0.1803  0.4403
  185POPC   O1421234   6.495   4.094   3.503  0.1327  0.6928  0.4170
  185POPC   O1221235   6.570   4.253   3.342 -0.2092 -0.5347 -0.4601
  185POPC   O1121236   6.739   4.083   3.429 -0.9113 -0.0335  0.0601
  185POPC    C121237   6.804   4.162   3.530  0.6457  1.2389 -0.1311
  185POPC    HA21238   6.754   4.260   3.547  2.4253  2.0644  0.6116
  185POPC    HB21239   6.906   4.181   3.492  1.9388 -2.7649  0.8154
  185POPC    C221240   6.817   4.094   3.665 -0.1750  0.5374  0.9357
  185POPC    HS21241   6.870   3.999   3.645  0.8250  1.4314 -0.8629
  185POPC   O2121242   6.697   4.081   3.741  0.1503  0.0449  0.1846
  185POPC   C2121243   6.624   3.963   3.739  0.0496 -0.6564 -0.0846
  185POPC   O2221244   6.659   3.861   3.678 -0.4486 -0.1526 -0.1033
  185POPC   C2221245   6.507   3.984   3.833 -0.0765 -0.4137 -0.1894
  185POPC   H2R21246   6.448   4.068   3.790  0.2824  0.2075  0.5111
  185POPC   H2S21247   6.548   4.031   3.925 -0.4194 -0.3437 -0.0687
  185POPC    C321248   6.912   4.185   3.755 -0.2336 -0.4097  0.3963
  185POPC    HX21249   6.847   4.268   3.790 -1.4855 -1.3478  0.3932
  185POPC    HY21250   6.982   4.232   3.683 -3.0545  1.3986 -1.3676
  185POPC   O3121251   6.973   4.110   3.864 -0.1462  0.1080  0.0546
  185POPC   C3121252   7.068   4.023   3.835 -0.0144  0.1564 -0.3831
  185POPC   O3221253   7.110   4.003   3.722 -0.9605 -0.4641  0.0288
  185POPC   C3221254   7.129   3.972   3.961 -0.2981 -0.4394  0.1049
  185POPC   H2X21255   7.073   3.877   3.976 -0.3860 -0.3132  0.5587
  185POPC   H2Y21256   7.111   4.040   4.046  3.8655 -0.6073  1.3622
  185POPC   C2321257   6.424   3.858   3.873  0.3201  0.8120  0.5266
  185POPC   H3R21258   6.482   3.781   3.929  1.4605  1.5638  0.4154
  185POPC   H3S21259   6.386   3.801   3.786  0.5777 -0.3187  1.1299
  185POPC   C2421260   6.304   3.903   3.950 -0.8345 -0.7263  0.1818
  185POPC   H4R21261   6.213   3.843   3.929  0.1376 -2.0419 -0.4407
  185POPC   H4S21262   6.290   4.007   3.911  1.9147 -0.4559 -0.2832
  185POPC   C2521263   6.325   3.905   4.106  0.6150 -0.3130 -0.0997
  185POPC   H5R21264   6.392   3.988   4.137 -2.0599  1.7313  0.5856
  185POPC   H5S21265   6.377   3.813   4.141  0.9715 -0.8500 -1.9228
  185POPC   C2621266   6.189   3.919   4.179 -0.0383 -0.0440  0.1900
  185POPC   H6R21267   6.147   3.818   4.163  3.0465 -1.5774  0.9187
  185POPC   H6S21268   6.127   3.988   4.118  1.0594 -0.2618 -1.2406
  185POPC   C2721269   6.193   3.966   4.323  0.2979  0.3007  0.1566
  185POPC   H7R21270   6.221   4.073   4.314  0.4034  0.2918  0.3799
  185POPC   H7S21271   6.279   3.916   4.371  0.4208 -0.6335 -0.9935
  185POPC   C2821272   6.065   3.937   4.411 -0.2822 -0.2014  0.6737
  185POPC   H8R21273   6.065   3.998   4.504 -1.1777 -3.6042  3.1010
  185POPC   H8S21274   6.074   3.828   4.434 -1.4456  0.0241  2.3492
  185POPC   C2921275   5.932   3.963   4.343  0.0817 -0.4886  0.8677
  185POPC   H9121276   5.901   4.065   4.314 -2.1419 -1.5248 -0.7782
  185POPC  C21021277   5.841   3.865   4.310  0.4471 -0.9902  0.4009
  185POPC  H10121278   5.752   3.890   4.251  2.9371 -0.6369 -3.5576
  185POPC  C21121279   5.849   3.718   4.319 -0.1319  0.1641  0.6737
  185POPC  H11R21280   5.769   3.682   4.388  0.3911  0.0547  1.2364
  185POPC  H11S21281   5.950   3.682   4.349  0.5452  1.9298  0.6269
  185POPC  C21221282   5.810   3.665   4.185  0.7766  0.7514  0.3874
  185POPC  H12R21283   5.869   3.571   4.196 -1.3347 -0.5289  1.4473
  185POPC  H12S21284   5.839   3.725   4.096 -2.0619 -2.3015 -2.9321
  185POPC  C21321285   5.660   3.629   4.168 -0.6316  0.2147  0.6747
  185POPC  H13R21286   5.604   3.724   4.178 -2.3115 -0.5415 -0.9474
  185POPC  H13S21287   5.637   3.564   4.255  0.6888 -2.0663 -0.5688
  185POPC  C21421288   5.629   3.570   4.027  0.3254 -0.2754  0.2028
  185POPC  H14R21289   5.720   3.519   3.990  0.0407 -1.6957  1.3585
  185POPC  H14S21290   5.590   3.642   3.952 -2.9366 -0.0577  1.9223
  185POPC  C21521291   5.521   3.453   4.039 -0.7957 -0.5130  0.3767
  185POPC  H15R21292   5.505   3.403   3.941  0.6738  1.4985 -0.9882
  185POPC  H15S21293   5.425   3.497   4.073  0.0785  0.7117  1.3913
  185POPC  C21621294   5.571   3.344   4.142 -0.1178  0.2731  0.3546
  185POPC  H16R21295   5.571   3.387   4.244 -0.8601  2.1842 -0.3959
  185POPC  H16S21296   5.673   3.304   4.122 -0.3331 -0.6853  1.0642
  185POPC  C21721297   5.470   3.224   4.131  0.8698 -0.1238 -0.1066
  185POPC  H17R21298   5.525   3.134   4.166  0.9244  0.4718  1.4155
  185POPC  H17S21299   5.465   3.215   4.020 -1.0474  0.4424 -0.0948
  185POPC  C21821300   5.328   3.239   4.191 -0.0803 -0.4348 -0.5024
  185POPC  H18R21301   5.268   3.302   4.122 -2.5132 -1.2650  0.7086
  185POPC  H18S21302   5.333   3.288   4.291 -1.1957  0.3008 -0.7903
  185POPC  H18T21303   5.280   3.139   4.200 -1.2932  0.0832 -1.0577
  185POPC   C3321304   7.287   3.963   3.941  0.2075 -0.2088  0.0218
  185POPC   H3X21305   7.308   4.068   3.913  0.3093 -0.1243  0.4013
  185POPC   H3Y21306   7.304   3.901   3.850  2.6463  3.5188 -2.3257
  185POPC   C3421307   7.372   3.916   4.063 -0.2420  0.5125  0.1969
  185POPC   H4X21308   7.469   3.968   4.047  0.2099  0.0332  1.2747
  185POPC   H4Y21309   7.398   3.808   4.062  2.7194  1.1465  0.1467
  185POPC   C3521310   7.322   3.954   4.207  0.8230  0.1475  0.6380
  185POPC   H5X21311   7.213   3.934   4.216  0.6259  0.6954 -0.3187
  185POPC   H5Y21312   7.329   4.065   4.212 -2.1648  0.4955 -0.5306
  185POPC   C3621313   7.404   3.907   4.333 -0.2014  0.3602  0.1014
  185POPC   H6X21314   7.514   3.915   4.321 -0.4372  1.5594 -1.6267
  185POPC   H6Y21315   7.372   3.803   4.355 -1.4019  1.0249  1.7173
  185POPC   C3721316   7.366   3.984   4.463  0.3372 -0.0066  0.3121
  185POPC   H7X21317   7.258   4.003   4.480  0.1981 -0.8473  0.4103
  185POPC   H7Y21318   7.415   4.083   4.472 -1.3289  0.8381  0.5266
  185POPC   C3821319   7.409   3.902   4.586  0.0962  0.0371 -0.9300
  185POPC   H8X21320   7.520   3.900   4.598 -0.0014 -0.4584 -0.0241
  185POPC   H8Y21321   7.392   3.792   4.582  1.7808 -0.3066  0.4115
  185POPC   C3921322   7.357   3.939   4.726  0.3513 -1.1371 -0.2299
  185POPC   H9X21323   7.419   3.882   4.798  2.7782  1.7727  0.1695
  185POPC   H9Y21324   7.246   3.931   4.722  0.1783  0.8236 -0.1732
  185POPC  C31021325   7.386   4.089   4.759  0.2513  0.1435 -0.3157
  185POPC  H10X21326   7.332   4.146   4.680 -1.7640 -1.8725 -0.4972
  185POPC  H10Y21327   7.494   4.110   4.742  0.0975  0.8707 -0.4652
  185POPC  C31121328   7.338   4.143   4.899  0.9051 -0.7610  0.0415
  185POPC  H11X21329   7.231   4.115   4.901  0.6099  0.3473  0.2650
  185POPC  H11Y21330   7.360   4.251   4.904  2.8089 -1.1732  1.4910
  185POPC  C31221331   7.414   4.072   5.015  0.2498 -0.0953  0.6715
  185POPC  H12X21332   7.523   4.085   5.001  0.2710 -0.6255  0.3254
  185POPC  H12Y21333   7.380   3.967   5.009 -1.1559  0.4106 -1.6434
  185POPC  C31321334   7.373   4.116   5.152  0.2123  0.0248 -0.0095
  185POPC  H13X21335   7.268   4.079   5.157  0.5687 -1.3134 -1.5481
  185POPC  H13Y21336   7.384   4.227   5.159 -0.7823  0.3487 -2.5153
  185POPC  C31421337   7.445   4.045   5.263 -0.0779  0.4629  0.3135
  185POPC  H14X21338   7.424   3.936   5.250  0.0290  0.3586  0.9623
  185POPC  H14Y21339   7.396   4.073   5.359  0.0945 -2.0998  1.2297
  185POPC  C31521340   7.600   4.063   5.260  0.3541 -0.5011  0.3042
  185POPC  H15X21341   7.638   4.011   5.169  1.2666  0.1890  0.2700
  185POPC  H15Y21342   7.638   4.014   5.352  1.2152  3.5133  2.3055
  185POPC  C31621343   7.654   4.207   5.256  0.0990  0.1353 -0.7228
  185POPC  H16X21344   7.762   4.217   5.281 -0.0971 -0.1885  0.3192
  185POPC  H16Y21345   7.599   4.268   5.331  2.1732  0.3785  0.6726
  185POPC  H16Z21346   7.638   4.242   5.152  0.5854 -1.5119 -1.3869
  186POPC     N21347   6.709   0.932   2.953 -0.4664 -0.2870 -0.2729
  186POPC   C1221348   6.628   0.873   3.061  0.2080 -0.1203  0.0143
  186POPC  H12A21349   6.640   0.766   3.069 -2.8627 -0.5895 -0.7623
  186POPC  H12B21350   6.525   0.885   3.035  0.4603  1.9868 -0.1339
  186POPC   C1321351   6.709   1.081   2.960 -0.0997 -0.1268  0.0807
  186POPC  H13A21352   6.778   1.127   2.891 -0.2044 -2.5105 -1.7224
  186POPC  H13B21353   6.613   1.115   2.926  1.1100  2.2431 -1.2041
  186POPC  H13C21354   6.736   1.118   3.058 -1.5066 -0.4450  0.6193
  186POPC   C1421355   6.852   0.877   2.965  0.6365 -0.1804 -0.5553
  186POPC  H14A21356   6.893   0.915   3.058  1.7369  0.9289 -1.4631
  186POPC  H14B21357   6.857   0.769   2.962  0.9702 -0.1666 -0.4417
  186POPC  H14C21358   6.909   0.912   2.881 -3.0750  0.7016 -2.9626
  186POPC   C1521359   6.651   0.879   2.822  0.6619 -0.0728 -0.0205
  186POPC  H15A21360   6.628   0.774   2.836  0.2420  0.2348  1.8124
  186POPC  H15B21361   6.729   0.882   2.747 -0.0999 -0.1147 -0.8327
  186POPC  H15C21362   6.568   0.937   2.786 -0.0241 -0.9969  0.0417
  186POPC   C1121363   6.655   0.916   3.209 -0.9162 -0.2080  0.6370
  186POPC  H11A21364   6.566   0.883   3.268 -0.7849 -2.4827 -0.3286
  186POPC  H11B21365   6.658   1.027   3.205  2.9964 -0.0589  2.9145
  186POPC     P21366   6.784   0.910   3.412  0.3855 -0.2843  0.0560
  186POPC   O1321367   6.803   1.056   3.405 -0.0564 -1.0343 -0.6506
  186POPC   O1421368   6.886   0.830   3.485 -0.1532 -0.0982 -0.2693
  186POPC   O1221369   6.785   0.867   3.263 -0.0673 -0.2969  0.2381
  186POPC   O1121370   6.647   0.857   3.476  0.2448 -0.3411  0.6620
  186POPC    C121371   6.580   0.937   3.575  0.0021 -0.0140  0.3420
  186POPC    HA21372   6.472   0.931   3.550 -0.2580  0.8599  1.2200
  186POPC    HB21373   6.599   1.046   3.564  2.6407 -0.4179  0.1407
  186POPC    C221374   6.617   0.883   3.716 -0.5869  0.3928 -0.7142
  186POPC    HS21375   6.537   0.917   3.786 -0.1750  0.2091 -0.1491
  186POPC   O2121376   6.742   0.932   3.758  0.1250 -0.2487 -0.1363
  186POPC   C2121377   6.745   1.048   3.792 -0.0685  0.2759  1.0894
  186POPC   O2221378   6.648   1.123   3.806  0.1600  0.3627 -0.0805
  186POPC   C2221379   6.885   1.084   3.824  0.1751  0.6419 -0.4409
  186POPC   H2R21380   6.887   1.195   3.825 -0.4006  0.7251  3.0168
  186POPC   H2S21381   6.948   1.041   3.743  2.6722 -0.8283  2.1085
  186POPC    C321382   6.617   0.729   3.710  0.7271  0.8350 -0.0959
  186POPC    HX21383   6.691   0.697   3.633 -0.4273  1.1512 -1.3703
  186POPC    HY21384   6.526   0.714   3.648  1.9369 -1.7532 -1.3763
  186POPC   O3121385   6.612   0.658   3.837 -0.0158 -0.1627 -0.2682
  186POPC   C3121386   6.720   0.593   3.879  0.3762 -0.2551 -0.0075
  186POPC   O3221387   6.826   0.583   3.824 -0.0688 -0.1162 -0.2343
  186POPC   C3221388   6.685   0.521   4.004  0.0571  0.4342 -0.3514
  186POPC   H2X21389   6.753   0.434   4.017  1.6109  1.7995  1.1467
  186POPC   H2Y21390   6.585   0.476   3.988 -0.4459  1.1149  0.7278
  186POPC   C2321391   6.932   1.032   3.961  0.3441  0.3134 -0.1156
  186POPC   H3R21392   7.035   1.068   3.984 -0.1215  1.1927  0.6680
  186POPC   H3S21393   6.916   0.922   3.961  0.6538  0.2657  0.1507
  186POPC   C2421394   6.861   1.106   4.077 -0.7616  0.0827 -0.1715
  186POPC   H4R21395   6.752   1.084   4.070 -1.2680  2.5799 -1.2059
  186POPC   H4S21396   6.889   1.212   4.094 -0.2767 -0.2493  1.2519
  186POPC   C2521397   6.903   1.032   4.206 -0.3019  0.6097  0.3786
  186POPC   H5R21398   7.014   1.029   4.198 -0.4486  0.1552 -2.7558
  186POPC   H5S21399   6.861   0.929   4.199  2.4344 -0.7234  1.8742
  186POPC   C2621400   6.882   1.112   4.340  0.1610  0.2062  0.3258
  186POPC   H6R21401   6.771   1.117   4.352 -0.0501 -0.7699 -1.0478
  186POPC   H6S21402   6.911   1.220   4.340 -1.5354  0.6924 -0.3413
  186POPC   C2721403   6.950   1.040   4.459  0.5156  0.2654  0.6188
  186POPC   H7R21404   7.051   1.033   4.415 -0.1851  2.5758 -1.6435
  186POPC   H7S21405   6.912   0.936   4.463  0.3245  0.2831 -0.3958
  186POPC   C2821406   6.919   1.111   4.597 -0.1542 -0.3294  0.3918
  186POPC   H8R21407   6.939   1.047   4.686  1.2701  1.2754  1.2826
  186POPC   H8S21408   6.811   1.138   4.598 -0.2484 -0.4804 -1.7235
  186POPC   C2921409   6.991   1.239   4.624 -0.0281 -0.5989  0.5588
  186POPC   H9121410   7.088   1.247   4.573  1.6123  3.7560  3.7134
  186POPC  C21021411   6.944   1.342   4.697  0.1641 -0.6306  0.4357
  186POPC  H10121412   7.001   1.435   4.708 -2.5659  1.1197  0.9813
  186POPC  C21121413   6.808   1.341   4.766 -0.0094 -0.2152 -0.3206
  186POPC  H11R21414   6.768   1.238   4.767  0.9985 -0.6872 -2.4464
  186POPC  H11S21415   6.735   1.394   4.701 -1.6852 -0.7515  1.0452
  186POPC  C21221416   6.825   1.411   4.911  0.0142  0.4266 -0.1142
  186POPC  H12R21417   6.728   1.434   4.960 -1.4829  1.4998 -3.2751
  186POPC  H12S21418   6.877   1.503   4.879  1.5021 -0.2724  0.2337
  186POPC  C21321419   6.916   1.330   5.009 -0.0728  0.4561 -0.0393
  186POPC  H13R21420   6.998   1.285   4.950  0.1723  3.1187 -1.8912
  186POPC  H13S21421   6.849   1.247   5.043  0.4887  0.0783  0.1701
  186POPC  C21421422   6.960   1.408   5.132  0.9705  0.4324 -0.6230
  186POPC  H14R21423   6.871   1.457   5.177  0.2152 -2.0174  0.6731
  186POPC  H14S21424   7.034   1.490   5.114  3.6709 -2.5228 -5.2210
  186POPC  C21521425   7.026   1.310   5.236 -0.4195  0.5146 -0.0010
  186POPC  H15R21426   7.121   1.285   5.183  0.4306 -0.5333  1.9187
  186POPC  H15S21427   6.977   1.214   5.261 -0.5658  0.7259  0.5290
  186POPC  C21621428   7.063   1.380   5.372 -0.1589  0.2036 -0.3106
  186POPC  H16R21429   7.127   1.467   5.349 -0.8800  1.1869  1.2302
  186POPC  H16S21430   7.115   1.302   5.432 -1.2940  0.7985  1.5176
  186POPC  C21721431   6.944   1.427   5.464  0.0961  0.8005  0.2561
  186POPC  H17R21432   6.886   1.337   5.493  2.3664 -0.9166 -0.2727
  186POPC  H17S21433   6.872   1.494   5.413 -2.2622 -0.8356  1.2631
  186POPC  C21821434   6.996   1.495   5.590  0.3350  0.1911  0.1691
  186POPC  H18R21435   7.046   1.412   5.645  1.0165 -1.6471 -2.9660
  186POPC  H18S21436   7.065   1.581   5.578 -0.7815  1.2567  1.0020
  186POPC  H18T21437   6.911   1.541   5.645  0.1243  2.0847 -1.6289
  186POPC   C3321438   6.692   0.618   4.118  0.7165 -0.5607 -0.7625
  186POPC   H3X21439   6.645   0.715   4.090  0.7429  0.2071  1.5800
  186POPC   H3Y21440   6.801   0.635   4.132  0.6848 -1.2894  0.4898
  186POPC   C3421441   6.648   0.570   4.255 -0.1876 -0.4040  1.1292
  186POPC   H4X21442   6.703   0.479   4.288  1.8215  0.2677 -0.2034
  186POPC   H4Y21443   6.546   0.525   4.259  0.0984 -1.4023 -1.2636
  186POPC   C3521444   6.638   0.686   4.359  0.0151 -0.3745 -0.3034
  186POPC   H5X21445   6.537   0.730   4.373  0.8804  1.5436  0.2289
  186POPC   H5Y21446   6.706   0.768   4.328 -0.4729 -0.7522 -2.5123
  186POPC   C3621447   6.692   0.638   4.489 -0.6099  0.7046  0.9295
  186POPC   H6X21448   6.800   0.612   4.493 -0.8412 -0.2070  1.4853
  186POPC   H6Y21449   6.637   0.549   4.528 -0.1774  0.3252  0.6859
  186POPC   C3721450   6.671   0.759   4.588  0.6571  0.5448  0.2331
  186POPC   H7X21451   6.560   0.763   4.592  0.6162  0.9067 -0.8386
  186POPC   H7Y21452   6.711   0.849   4.537 -0.5107  0.4314 -0.9462
  186POPC   C3821453   6.719   0.742   4.731  0.7691  0.7903  0.5144
  186POPC   H8X21454   6.827   0.720   4.746  0.6969 -0.0570 -0.1219
  186POPC   H8Y21455   6.675   0.645   4.760 -0.4719  0.6650 -1.6109
  186POPC   C3921456   6.692   0.861   4.826  0.0838  0.1725 -0.2242
  186POPC   H9X21457   6.582   0.876   4.823  0.3243  2.1470 -1.9683
  186POPC   H9Y21458   6.740   0.950   4.780 -0.1860  1.2883  1.5566
  186POPC  C31021459   6.743   0.834   4.967 -0.4102 -0.0258  0.0674
  186POPC  H10X21460   6.853   0.847   4.971 -0.5375  1.1713  0.0327
  186POPC  H10Y21461   6.728   0.731   5.006  2.0800 -1.2843 -2.0196
  186POPC  C31121462   6.684   0.948   5.062  0.1173 -0.0056  0.1557
  186POPC  H11X21463   6.576   0.924   5.074  0.0473  0.2292  0.0124
  186POPC  H11Y21464   6.699   1.046   5.011  1.3760 -1.5418 -2.6659
  186POPC  C31221465   6.762   0.951   5.188  0.0312  0.1254 -0.2364
  186POPC  H12X21466   6.871   0.954   5.165 -0.1845  2.4707 -1.2008
  186POPC  H12Y21467   6.722   0.875   5.258 -3.2180  0.7635 -1.2188
  186POPC  C31321468   6.737   1.079   5.268  0.5596 -0.7230  0.2716
  186POPC  H13X21469   6.744   1.167   5.200  2.4838  0.2955  1.7017
  186POPC  H13Y21470   6.817   1.088   5.344  0.1236 -2.7360  1.0303
  186POPC  C31421471   6.602   1.086   5.338 -0.3596  0.0963  0.3523
  186POPC  H14X21472   6.616   1.018   5.425  1.6129 -0.7206 -0.5455
  186POPC  H14Y21473   6.526   1.058   5.262 -0.7809 -0.4095  0.9477
  186POPC  C31521474   6.564   1.223   5.398  0.5751 -0.6189  1.1751
  186POPC  H15X21475   6.523   1.282   5.313  0.5038 -2.0398  0.1767
  186POPC  H15Y21476   6.654   1.276   5.435  0.4361  1.0265 -0.6640
  186POPC  C31621477   6.455   1.205   5.504 -0.0743  0.1606 -0.7846
  186POPC  H16X21478   6.395   1.117   5.474 -0.3512  0.6436 -1.6898
  186POPC  H16Y21479   6.392   1.292   5.530 -2.3281 -1.4750 -0.4767
  186POPC  H16Z21480   6.512   1.173   5.594 -2.1831  0.0528  0.5738
  187POPC     N21481   4.177   4.370   3.021  0.4448  0.5256 -0.0471
  187POPC   C1221482   4.237   4.455   3.132 -0.2459  0.7442 -0.1952
  187POPC  H12A21483   4.156   4.481   3.198  0.7063  0.7729  0.9863
  187POPC  H12B21484   4.279   4.549   3.101  0.3841  0.3042 -0.7006
  187POPC   C1321485   4.077   4.438   2.940 -0.0861  0.1460  0.1989
  187POPC  H13A21486   4.062   4.376   2.853  0.1283  1.2379 -0.6404
  187POPC  H13B21487   3.986   4.467   2.991  0.6732 -0.1479  1.7761
  187POPC  H13C21488   4.112   4.518   2.877 -3.3923  0.2753 -1.7493
  187POPC   C1421489   4.293   4.334   2.930 -0.0627 -0.4683  0.1821
  187POPC  H14A21490   4.378   4.303   2.990  0.1486  0.9810  0.6795
  187POPC  H14B21491   4.267   4.260   2.856 -0.3285 -1.9476  1.6853
  187POPC  H14C21492   4.337   4.416   2.877 -1.8193  0.5893  0.2765
  187POPC   C1521493   4.116   4.244   3.072  0.5398 -0.7970 -0.1627
  187POPC  H15A21494   4.035   4.265   3.140  1.4735  2.5160  0.0786
  187POPC  H15B21495   4.191   4.188   3.126  0.7535  0.3531  0.7626
  187POPC  H15C21496   4.070   4.185   2.994  1.3377  0.9413 -2.0485
  187POPC   C1121497   4.352   4.407   3.228 -0.2633  0.0347  0.2781
  187POPC  H11A21498   4.328   4.317   3.288  2.6219 -1.4724 -0.6345
  187POPC  H11B21499   4.360   4.473   3.317 -0.7041  1.6213 -0.7956
  187POPC     P21500   4.585   4.493   3.163 -0.3487  0.4179  0.4624
  187POPC   O1321501   4.536   4.609   3.091  0.1266  0.0942 -0.6654
  187POPC   O1421502   4.712   4.431   3.120  0.3576 -0.0135 -0.2356
  187POPC   O1221503   4.472   4.385   3.160  0.0694  0.1123  0.1927
  187POPC   O1121504   4.599   4.526   3.316  0.4165 -0.3479  0.0271
  187POPC    C121505   4.729   4.557   3.368  0.7638  0.4103 -0.2960
  187POPC    HA21506   4.761   4.651   3.318 -0.7930  1.5148  0.6871
  187POPC    HB21507   4.801   4.474   3.349  0.8312  0.2441  0.6489
  187POPC    C221508   4.726   4.574   3.526 -0.3105  0.8901  0.3265
  187POPC    HS21509   4.824   4.623   3.544  0.3479 -0.3953  0.4295
  187POPC   O2121510   4.713   4.444   3.582 -0.4177  0.1810 -0.4044
  187POPC   C2121511   4.753   4.436   3.711 -0.3472 -0.3273 -0.9050
  187POPC   O2221512   4.801   4.530   3.777 -0.0790  0.7557 -0.3394
  187POPC   C2221513   4.742   4.289   3.762  0.1187 -1.5002  0.0719
  187POPC   H2R21514   4.796   4.231   3.684 -0.4294  0.5984 -1.9843
  187POPC   H2S21515   4.637   4.252   3.771 -0.0146 -1.2936 -0.5533
  187POPC    C321516   4.605   4.666   3.567  0.0452 -0.4474  0.0416
  187POPC    HX21517   4.507   4.662   3.515  0.1381  0.1384 -0.1804
  187POPC    HY21518   4.654   4.757   3.526 -1.6495  0.4535 -0.0604
  187POPC   O3121519   4.586   4.672   3.715  0.1752  0.1426  0.2166
  187POPC   C3121520   4.603   4.787   3.772  0.2198 -0.3018 -0.0243
  187POPC   O3221521   4.615   4.892   3.711  0.6135  0.2592 -0.2927
  187POPC   C3221522   4.583   4.778   3.919  0.1642  0.3618 -0.6773
  187POPC   H2X21523   4.613   4.674   3.942 -0.9413  0.1265 -0.2387
  187POPC   H2Y21524   4.478   4.788   3.955  0.9842  1.1320  1.6533
  187POPC   C2321525   4.807   4.270   3.900  0.2195  0.6380 -0.1723
  187POPC   H3R21526   4.784   4.352   3.971 -3.1934 -0.5975  0.3061
  187POPC   H3S21527   4.919   4.272   3.899  0.5188 -2.8382  3.2359
  187POPC   C2421528   4.765   4.145   3.978  0.3229  0.0553 -0.3095
  187POPC   H4R21529   4.795   4.052   3.925  1.5386  0.4869 -0.4044
  187POPC   H4S21530   4.654   4.152   3.983  0.3946  1.1992  0.0306
  187POPC   C2521531   4.827   4.145   4.122  0.1787  0.6946 -0.3067
  187POPC   H5R21532   4.778   4.229   4.176  1.8643  0.8641  1.0706
  187POPC   H5S21533   4.935   4.173   4.120  0.3236  0.7217  2.7001
  187POPC   C2621534   4.815   4.015   4.202 -0.4567 -0.5909 -0.1066
  187POPC   H6R21535   4.880   3.945   4.145 -2.6564 -1.2956 -1.9115
  187POPC   H6S21536   4.712   3.976   4.189 -0.8101  0.7927 -1.6205
  187POPC   C2721537   4.839   4.059   4.349  0.1216  0.0833  0.4514
  187POPC   H7R21538   4.750   4.114   4.388  1.0298  1.2502  0.9315
  187POPC   H7S21539   4.920   4.134   4.364 -1.4392  2.1313 -0.6883
  187POPC   C2821540   4.844   3.941   4.444 -0.1919 -0.0731  0.4710
  187POPC   H8R21541   4.782   3.852   4.418  0.5218 -1.0590  2.0157
  187POPC   H8S21542   4.814   3.979   4.544 -2.1314  0.7745 -0.3773
  187POPC   C2921543   4.994   3.903   4.443  0.3223  0.3466  0.4576
  187POPC   H9121544   5.025   3.831   4.365 -3.0148  0.7184 -1.4095
  187POPC  C21021545   5.090   3.950   4.522 -0.0181 -0.0210 -0.6410
  187POPC  H10121546   5.194   3.927   4.497  1.1275  2.8984  0.8837
  187POPC  C21121547   5.075   4.055   4.632 -0.4947  0.2437 -0.3993
  187POPC  H11R21548   5.021   4.145   4.596  1.0278  1.4394  0.2149
  187POPC  H11S21549   5.177   4.083   4.666 -0.2900 -1.9208  1.0405
  187POPC  C21221550   5.011   3.998   4.756  1.2819 -0.4761 -0.1500
  187POPC  H12R21551   4.903   3.985   4.734  1.2664 -1.5088  0.4835
  187POPC  H12S21552   5.010   4.087   4.823  0.6800  0.6589 -1.6017
  187POPC  C21321553   5.082   3.884   4.830  0.3540 -0.2919 -0.1962
  187POPC  H13R21554   5.018   3.878   4.921  0.5624  3.5692  0.4022
  187POPC  H13S21555   5.184   3.912   4.866  0.3875 -1.0570  0.3233
  187POPC  C21421556   5.088   3.747   4.762 -1.0408 -0.2116  0.4688
  187POPC  H14R21557   5.171   3.739   4.689  0.8139 -0.2217  2.4880
  187POPC  H14S21558   4.996   3.735   4.700 -1.0630 -0.5080  0.5522
  187POPC  C21521559   5.115   3.626   4.849  1.0597  0.7198  0.3358
  187POPC  H15R21560   5.119   3.541   4.777 -1.1193  1.3396 -0.5792
  187POPC  H15S21561   5.029   3.601   4.914  0.7605  1.9189  0.4184
  187POPC  C21621562   5.241   3.632   4.936  0.1349  0.2317  0.0435
  187POPC  H16R21563   5.238   3.723   4.999  0.2336 -0.2286  0.7194
  187POPC  H16S21564   5.328   3.644   4.868 -0.5091  1.0142 -0.6778
  187POPC  C21721565   5.263   3.508   5.024 -0.2179  0.0676  0.2569
  187POPC  H17R21566   5.283   3.418   4.962  2.0909 -0.5291  1.7745
  187POPC  H17S21567   5.165   3.487   5.072  0.2367 -0.8457  0.8199
  187POPC  C21821568   5.374   3.525   5.124  0.4474  0.0363  0.2339
  187POPC  H18R21569   5.459   3.555   5.059  1.5253 -0.8358  1.1850
  187POPC  H18S21570   5.394   3.430   5.179  0.4608 -0.6910 -0.9897
  187POPC  H18T21571   5.353   3.607   5.195  0.6997  0.4722 -0.1914
  187POPC   C3321572   4.666   4.877   3.998  0.6669 -0.1830  0.6669
  187POPC   H3X21573   4.652   4.978   3.955 -1.2674 -2.0939 -3.8658
  187POPC   H3Y21574   4.770   4.851   3.971 -0.6098 -3.1960 -1.9554
  187POPC   C3421575   4.625   4.859   4.142 -0.2007 -0.3732  0.9665
  187POPC   H4X21576   4.617   4.749   4.157  3.8968 -0.6300  2.7118
  187POPC   H4Y21577   4.528   4.910   4.158 -1.3427 -1.3094 -2.2204
  187POPC   C3521578   4.725   4.905   4.247  0.2738 -0.3865 -0.5051
  187POPC   H5X21579   4.755   5.011   4.237  0.7430 -0.3642  1.0078
  187POPC   H5Y21580   4.823   4.854   4.238  0.8071  0.4946  0.1950
  187POPC   C3621581   4.671   4.879   4.391 -0.5858  0.1342 -0.0841
  187POPC   H6X21582   4.641   4.772   4.381  1.0256 -0.3692  0.1561
  187POPC   H6Y21583   4.580   4.939   4.413 -0.1437  0.3381  1.2698
  187POPC   C3721584   4.779   4.916   4.499 -0.0174  0.7921 -0.9519
  187POPC   H7X21585   4.824   5.014   4.473 -0.4262  1.6113  1.2064
  187POPC   H7Y21586   4.853   4.835   4.482  0.0971  0.7386 -0.2370
  187POPC   C3821587   4.745   4.923   4.646  0.7444  0.0519 -0.3123
  187POPC   H8X21588   4.714   4.820   4.677 -0.2056  0.7475  1.1652
  187POPC   H8Y21589   4.662   4.993   4.667  0.9669  0.3453 -0.3971
  187POPC   C3921590   4.867   4.962   4.730 -0.2337 -0.1004 -1.2197
  187POPC   H9X21591   4.910   5.061   4.703 -2.0376  0.7530 -1.0970
  187POPC   H9Y21592   4.938   4.880   4.709 -0.5253 -0.0380 -2.5171
  187POPC  C31021593   4.841   4.958   4.893 -0.0095 -0.2458  0.0897
  187POPC  H10X21594   4.817   4.853   4.919  1.4447 -0.8113 -0.7015
  187POPC  H10Y21595   4.756   5.028   4.902  0.6093  0.3769  1.2489
  187POPC  C31121596   4.954   5.007   4.974 -0.1593 -0.9917 -0.9779
  187POPC  H11X21597   4.975   5.116   4.966  1.8268 -1.2487  0.0707
  187POPC  H11Y21598   5.047   4.959   4.939 -0.4844 -1.9706 -0.5151
  187POPC  C31221599   4.937   4.970   5.118  0.1532  0.4620 -0.3827
  187POPC  H12X21600   4.915   4.862   5.128 -1.8354  0.9346  0.8078
  187POPC  H12Y21601   4.839   5.013   5.150 -0.1237  2.0060 -2.9901
  187POPC  C31321602   5.053   5.014   5.205 -0.1050  0.9534  0.1827
  187POPC  H13X21603   5.084   5.121   5.198  1.4468  0.4873 -0.6987
  187POPC  H13Y21604   5.143   4.958   5.171 -0.7880 -0.3811  0.5113
  187POPC  C31421605   5.017   4.974   5.348 -0.2231  0.1164  0.4876
  187POPC  H14X21606   4.939   5.048   5.376 -2.7151 -1.6667 -1.3489
  187POPC  H14Y21607   5.105   4.980   5.416 -0.9622  0.3902  1.4498
  187POPC  C31521608   4.981   4.829   5.381 -0.0473 -0.7595 -0.3554
  187POPC  H15X21609   5.051   4.762   5.327  0.9580  0.3996 -0.5362
  187POPC  H15Y21610   4.877   4.819   5.344 -0.0495  2.3601 -1.5083
  187POPC  C31621611   4.997   4.799   5.532  0.4771  0.5357  0.6205
  187POPC  H16X21612   5.104   4.817   5.557  0.1284  3.5529  0.3567
  187POPC  H16Y21613   4.961   4.695   5.548  1.9471  0.1083  1.2805
  187POPC  H16Z21614   4.939   4.871   5.594 -1.4131  0.2865 -0.7796
  188POPC     N21615   4.888   6.021   2.964 -0.4114 -0.2356 -0.6101
  188POPC   C1221616   4.910   6.081   3.105 -0.3101  0.3702 -0.0139
  188POPC  H12A21617   4.906   6.189   3.097 -1.1253  0.2060 -3.8365
  188POPC  H12B21618   5.012   6.064   3.135 -0.6268 -0.7517  0.4857
  188POPC   C1321619   4.747   6.052   2.914  0.3776 -0.2311  0.2842
  188POPC  H13A21620   4.748   6.030   2.808  1.5904 -0.6414  0.3581
  188POPC  H13B21621   4.673   5.994   2.967  1.2209 -1.3662  0.2617
  188POPC  H13C21622   4.722   6.154   2.938  1.2291  0.1542 -0.4035
  188POPC   C1421623   4.972   6.099   2.878 -0.1680 -0.5022 -0.1330
  188POPC  H14A21624   4.938   6.202   2.874 -0.7800 -0.6727  0.4404
  188POPC  H14B21625   5.077   6.103   2.899  0.0232 -1.9001 -0.6806
  188POPC  H14C21626   4.971   6.061   2.777 -2.8004  0.2299 -0.4803
  188POPC   C1521627   4.917   5.877   2.953  0.1500  1.0749 -0.1496
  188POPC  H15A21628   5.013   5.851   2.995 -1.0180 -0.7824  1.5440
  188POPC  H15B21629   4.903   5.855   2.849 -0.0874  2.5167 -0.4458
  188POPC  H15C21630   4.851   5.820   3.016 -0.1541  1.0492 -0.4916
  188POPC   C1121631   4.823   6.027   3.224  0.7531  0.9299  0.6065
  188POPC  H11A21632   4.869   6.078   3.310  1.3671 -0.9533  1.4503
  188POPC  H11B21633   4.842   5.920   3.250  0.5763 -0.3523 -3.7438
  188POPC     P21634   4.568   5.959   3.214 -0.3372  0.1342  0.1806
  188POPC   O1321635   4.617   5.820   3.203  0.2162 -0.0027  0.1604
  188POPC   O1421636   4.461   6.000   3.123 -0.4566  0.1886 -0.2481
  188POPC   O1221637   4.682   6.065   3.203 -0.3651  0.0837  0.5336
  188POPC   O1121638   4.519   5.973   3.363 -0.1745 -0.1653 -0.7116
  188POPC    C121639   4.553   6.103   3.425 -0.2810 -0.1964 -0.6842
  188POPC    HA21640   4.514   6.189   3.368 -0.8481 -0.3486 -0.5331
  188POPC    HB21641   4.661   6.126   3.440 -0.0803 -1.1324 -0.6033
  188POPC    C221642   4.501   6.117   3.569 -0.3036  0.3328  0.0082
  188POPC    HS21643   4.522   6.222   3.599 -4.6291  1.0788  0.9985
  188POPC   O2121644   4.568   6.007   3.640 -0.5087 -0.1150 -0.3446
  188POPC   C2121645   4.616   6.044   3.763 -0.0379 -0.6720  0.5763
  188POPC   O2221646   4.620   6.155   3.809 -0.1195 -0.0871  0.6383
  188POPC   C2221647   4.676   5.929   3.836 -0.4685  0.3519  0.2524
  188POPC   H2R21648   4.774   5.905   3.789 -1.0394 -2.3808  0.2912
  188POPC   H2S21649   4.612   5.840   3.817  1.1962 -1.2527  1.7842
  188POPC    C321650   4.345   6.092   3.578  0.4938 -0.9721  0.1711
  188POPC    HX21651   4.319   5.989   3.545 -1.1784 -0.6053  0.2553
  188POPC    HY21652   4.291   6.164   3.512  0.0366 -1.4813 -0.0257
  188POPC   O3121653   4.297   6.113   3.714 -0.0137 -0.3805 -0.2534
  188POPC   C3121654   4.212   6.031   3.770  1.1204  0.5073 -0.2547
  188POPC   O3221655   4.145   5.948   3.718 -0.3985 -0.6531  0.1311
  188POPC   C3221656   4.197   6.061   3.919 -0.9387 -0.0562 -0.2743
  188POPC   H2X21657   4.153   6.161   3.939 -0.9944  0.1762 -1.4973
  188POPC   H2Y21658   4.300   6.066   3.960 -0.4206  0.8390 -1.6223
  188POPC   C2321659   4.709   5.935   3.990  0.3628  0.2044  0.2005
  188POPC   H3R21660   4.794   6.006   4.001  0.9221 -0.2740 -0.9085
  188POPC   H3S21661   4.753   5.840   4.025 -4.4850 -0.8547  4.6743
  188POPC   C2421662   4.584   5.973   4.077 -0.4218 -0.2153  0.1681
  188POPC   H4R21663   4.511   5.892   4.100 -0.2469 -0.5695 -0.4712
  188POPC   H4S21664   4.531   6.058   4.030  1.4752  1.6718  1.2428
  188POPC   C2521665   4.625   6.025   4.217 -0.1912  0.1355  0.3534
  188POPC   H5R21666   4.533   6.063   4.266  0.4758 -0.2051  1.9534
  188POPC   H5S21667   4.701   6.105   4.215 -0.0195 -0.0101  0.8517
  188POPC   C2621668   4.666   5.903   4.305 -0.3383 -0.1186 -0.7389
  188POPC   H6R21669   4.738   5.840   4.247 -0.2033  0.2936 -1.0188
  188POPC   H6S21670   4.576   5.841   4.326  0.3786 -0.3671  2.0342
  188POPC   C2721671   4.731   5.940   4.450  0.3230  0.5738  0.1256
  188POPC   H7R21672   4.641   5.981   4.502 -0.6273 -0.3828 -0.7077
  188POPC   H7S21673   4.800   6.026   4.439  0.6041  0.6050  1.7913
  188POPC   C2821674   4.811   5.831   4.522  0.1599  0.0376  0.0948
  188POPC   H8R21675   4.827   5.872   4.624  1.4212  2.3232 -0.9448
  188POPC   H8S21676   4.908   5.806   4.473 -1.5198 -2.5399 -2.2328
  188POPC   C2921677   4.727   5.707   4.511  0.0452 -0.5204  0.5983
  188POPC   H9121678   4.737   5.647   4.419 -1.9693 -1.1922  0.7738
  188POPC  C21021679   4.661   5.644   4.616 -0.9963  0.0892 -0.2958
  188POPC  H10121680   4.603   5.554   4.588 -2.8392  1.8021 -2.3665
  188POPC  C21121681   4.661   5.702   4.757  0.3196 -1.0157 -0.9464
  188POPC  H11R21682   4.671   5.812   4.750 -2.9333 -0.5562  0.0643
  188POPC  H11S21683   4.749   5.663   4.812 -0.2175 -1.2255 -0.2142
  188POPC  C21221684   4.522   5.679   4.829  0.4862  0.0088  0.6989
  188POPC  H12R21685   4.510   5.570   4.848  0.1747 -0.4581 -1.7989
  188POPC  H12S21686   4.441   5.719   4.764  1.8347  1.5208 -0.1137
  188POPC  C21321687   4.515   5.752   4.961  0.5636 -0.8416 -0.1042
  188POPC  H13R21688   4.407   5.749   4.986  0.4690 -0.4279 -0.4524
  188POPC  H13S21689   4.537   5.859   4.942  1.9633 -1.4619 -2.3877
  188POPC  C21421690   4.612   5.701   5.064  0.4381  0.1808 -0.5838
  188POPC  H14R21691   4.712   5.681   5.021  0.7920  0.1312  0.2507
  188POPC  H14S21692   4.569   5.602   5.090  1.6224 -0.3046 -0.4006
  188POPC  C21521693   4.639   5.807   5.172  0.1715 -0.2390 -0.5227
  188POPC  H15R21694   4.549   5.870   5.190 -0.3203 -0.1021 -3.1205
  188POPC  H15S21695   4.721   5.874   5.138  2.0834 -1.3719  1.5427
  188POPC  C21621696   4.674   5.738   5.307 -0.2115 -1.1135 -0.5167
  188POPC  H16R21697   4.763   5.677   5.282 -0.2094 -0.6328 -1.7475
  188POPC  H16S21698   4.587   5.673   5.332 -1.7774 -0.3992 -3.5528
  188POPC  C21721699   4.722   5.831   5.415 -0.2757  0.2778  0.2014
  188POPC  H17R21700   4.639   5.900   5.443 -0.9906  0.0154 -1.1491
  188POPC  H17S21701   4.811   5.891   5.386 -0.5305  0.6752  0.2232
  188POPC  C21821702   4.765   5.759   5.544  0.6994 -0.5619  0.4016
  188POPC  H18R21703   4.676   5.707   5.586 -1.5313  1.6301 -1.2758
  188POPC  H18S21704   4.803   5.829   5.622 -0.9750  0.1546  0.6254
  188POPC  H18T21705   4.850   5.693   5.519 -0.2121 -1.9212  0.8085
  188POPC   C3321706   4.127   5.949   4.003 -0.0551  0.1982 -0.0372
  188POPC   H3X21707   4.167   5.849   3.978  0.4654  0.4564 -0.2623
  188POPC   H3Y21708   4.019   5.939   3.980 -0.5447 -3.2340  2.9476
  188POPC   C3421709   4.150   5.975   4.149  0.7922 -0.6802  0.9511
  188POPC   H4X21710   4.109   6.075   4.171  1.0391 -0.5332  0.7448
  188POPC   H4Y21711   4.259   5.991   4.162  0.6210  2.6331 -0.6111
  188POPC   C3521712   4.088   5.876   4.244 -0.6731 -0.3882 -0.0614
  188POPC   H5X21713   4.128   5.777   4.212  1.7818  0.8302 -1.0024
  188POPC   H5Y21714   3.980   5.882   4.215 -0.3205  1.8755 -1.0499
  188POPC   C3621715   4.116   5.899   4.390 -0.0764 -0.0538  0.2537
  188POPC   H6X21716   4.073   5.820   4.455  1.4049 -1.5041 -0.4563
  188POPC   H6Y21717   4.070   5.997   4.417  2.5028  2.0275 -2.2718
  188POPC   C3721718   4.269   5.892   4.412 -0.1165  0.5711  0.0593
  188POPC   H7X21719   4.327   5.982   4.382  2.7942 -0.5741  1.7995
  188POPC   H7Y21720   4.319   5.815   4.349 -1.0947 -0.0958  0.0618
  188POPC   C3821721   4.300   5.875   4.564  0.1495 -0.5324 -0.5631
  188POPC   H8X21722   4.410   5.891   4.568  0.2188 -1.1629  0.8796
  188POPC   H8Y21723   4.291   5.770   4.599 -1.1406 -0.4440 -0.6105
  188POPC   C3921724   4.233   5.979   4.652  0.9534 -0.4416  0.4552
  188POPC   H9X21725   4.123   5.974   4.641  0.8128  0.5827  1.2058
  188POPC   H9Y21726   4.256   6.084   4.622 -0.0796 -0.5858 -0.9400
  188POPC  C31021727   4.264   5.941   4.795  0.4174 -0.0648 -0.8266
  188POPC  H10X21728   4.372   5.930   4.821  0.5996 -1.4063 -2.0417
  188POPC  H10Y21729   4.213   5.844   4.806  0.3572  0.0681  0.2173
  188POPC  C31121730   4.221   6.048   4.897 -0.2009  0.4996 -0.3147
  188POPC  H11X21731   4.120   6.091   4.880 -0.3472  0.9374  1.4790
  188POPC  H11Y21732   4.286   6.138   4.889  0.6104 -0.0656 -0.1875
  188POPC  C31221733   4.232   6.012   5.040  0.1710 -0.1380 -0.3645
  188POPC  H12X21734   4.204   6.107   5.090 -0.0917  0.1764 -1.0994
  188POPC  H12Y21735   4.334   5.985   5.074  0.9865  0.2381 -2.4166
  188POPC  C31321736   4.127   5.903   5.076 -0.2334  0.2109 -0.3181
  188POPC  H13X21737   4.151   5.814   5.013  0.1509 -0.6362  0.9928
  188POPC  H13Y21738   4.023   5.936   5.053  0.2370  1.1399 -1.1979
  188POPC  C31421739   4.140   5.853   5.217  0.0732 -0.1890 -1.0311
  188POPC  H14X21740   4.238   5.811   5.247 -0.1031 -0.9645 -1.5160
  188POPC  H14Y21741   4.065   5.773   5.235 -1.1037  1.2684  1.0640
  188POPC  C31521742   4.095   5.958   5.320 -0.2157 -0.3104  0.3274
  188POPC  H15X21743   3.989   5.984   5.301  0.4064  2.0472 -0.3787
  188POPC  H15Y21744   4.158   6.050   5.313 -0.0594 -0.4308  0.1063
  188POPC  C31621745   4.105   5.923   5.462  0.0521  0.0910 -0.0763
  188POPC  H16X21746   4.037   5.837   5.476 -0.6845  0.2692 -2.1351
  188POPC  H16Y21747   4.068   6.008   5.523 -2.2356 -1.2365  0.4942
  188POPC  H16Z21748   4.208   5.895   5.493 -0.1509 -0.9741 -0.3343
  189SAPI   C1221749   5.055   4.729   8.044 -0.5683  0.3144  0.3168
  189SAPI    H221750   4.998   4.789   7.970  0.7363  0.0493 -0.9374
  189SAPI    O221751   5.183   4.798   8.067  0.3479 -0.7185  0.3798
  189SAPI   HO221752   5.206   4.819   7.976  1.1807  0.8577  0.9104
  189SAPI   C1321753   4.985   4.727   8.175  0.3716 -0.7265 -0.0108
  189SAPI    H321754   4.886   4.676   8.172  1.0096 -2.1182  1.1126
  189SAPI    O321755   4.955   4.860   8.219 -0.2926  0.4215 -0.1749
  189SAPI   HO321756   5.016   4.921   8.176  1.3853  0.6556  2.3491
  189SAPI   C1421757   5.077   4.654   8.278 -0.0557  0.3362 -0.1106
  189SAPI    H421758   5.179   4.698   8.273 -0.9111  2.3305 -1.1983
  189SAPI    O421759   5.029   4.655   8.406  0.2761 -0.3413  0.0757
  189SAPI   HO421760   5.091   4.600   8.454 -1.2398 -1.1741  1.1502
  189SAPI   C1521761   5.097   4.516   8.230 -0.4017 -0.6524  0.2285
  189SAPI    H521762   4.994   4.475   8.241 -0.7668  0.3997  0.8942
  189SAPI    O521763   5.175   4.437   8.317 -0.0150  0.0960  0.0294
  189SAPI   HO521764   5.130   4.353   8.327  1.0696 -0.7892 -1.9586
  189SAPI   C1621765   5.140   4.491   8.084 -0.0309  0.2395  0.9606
  189SAPI    H621766   5.250   4.501   8.089 -0.1324  0.8336  2.4325
  189SAPI    O621767   5.113   4.357   8.040  0.0804 -0.1097 -0.2799
  189SAPI   HO621768   5.191   4.335   7.989  0.6112  3.8215 -1.5257
  189SAPI   C1121769   5.098   4.596   7.976  0.0808  0.0754  0.3511
  189SAPI    H121770   5.005   4.558   7.929  1.2715 -1.6115 -0.8091
  189SAPI     P21771   5.235   4.519   7.759 -0.4141 -0.2850  0.1777
  189SAPI   O1321772   5.302   4.408   7.835 -0.7875 -1.0358 -0.1403
  189SAPI   O1421773   5.329   4.596   7.670 -0.8847 -0.2107  0.3955
  189SAPI   O1221774   5.191   4.626   7.865 -0.2866 -0.0611 -0.4707
  189SAPI   O1121775   5.097   4.478   7.688 -0.9729  0.0776 -0.3973
  189SAPI    C121776   4.996   4.569   7.658  0.1693 -0.2067  0.9464
  189SAPI    HA21777   4.908   4.548   7.724 -0.9420  2.9270  0.6601
  189SAPI    HB21778   5.016   4.677   7.676 -0.6511  1.0622 -4.1991
  189SAPI    C221779   4.963   4.558   7.511 -0.0696  0.0653 -0.4688
  189SAPI    HS21780   4.957   4.453   7.477  0.8580  0.0211 -0.5194
  189SAPI   O2121781   5.066   4.628   7.443 -0.4308  0.3762 -0.6534
  189SAPI   C2121782   5.098   4.583   7.331 -0.2194  0.0697 -0.0164
  189SAPI   O2221783   5.062   4.475   7.277 -0.5063 -0.7388 -0.6736
  189SAPI   C2221784   5.190   4.685   7.259  0.3965  0.1756  0.0209
  189SAPI   H2R21785   5.194   4.776   7.322 -0.7572  0.0329  0.3166
  189SAPI   H2S21786   5.293   4.643   7.254  0.5265  0.5786 -0.8594
  189SAPI    C321787   4.828   4.625   7.476  0.2089 -0.0369 -0.3198
  189SAPI    HX21788   4.835   4.732   7.506  1.9208 -0.6322  1.6864
  189SAPI    HY21789   4.752   4.579   7.543 -0.1476  0.5268 -0.3284
  189SAPI   O3121790   4.796   4.613   7.340  0.1765 -0.3885  0.1691
  189SAPI   C3121791   4.745   4.493   7.302  0.4356 -0.6971 -0.5264
  189SAPI   O3221792   4.755   4.385   7.357 -0.1884 -0.3092 -0.3278
  189SAPI   C3221793   4.678   4.509   7.162  0.0343  0.7612 -0.0555
  189SAPI   H2X21794   4.745   4.582   7.111  1.2177 -0.0036  0.3642
  189SAPI   H2Y21795   4.579   4.558   7.174 -0.6239 -0.1941 -1.2825
  189SAPI   C2321796   5.148   4.731   7.117  0.4740  0.7626  0.5453
  189SAPI   H3R21797   5.044   4.769   7.121  1.1730  3.0402 -0.9885
  189SAPI   H3S21798   5.146   4.637   7.058  2.4323  0.6780  0.5524
  189SAPI   C2421799   5.236   4.839   7.048 -0.6463 -0.3905 -0.0767
  189SAPI   H4R21800   5.208   4.853   6.941 -0.2382  0.3091 -0.0982
  189SAPI   H4S21801   5.344   4.814   7.054 -0.5070 -0.1049 -1.0902
  189SAPI   C2521802   5.206   4.966   7.121  0.4920 -0.3287  0.2994
  189SAPI   H5R21803   5.280   5.003   7.193 -0.2759 -1.0166  1.4610
  189SAPI   C2621804   5.108   5.054   7.097 -0.3783 -0.1654 -0.6177
  189SAPI   H6R21805   5.121   5.151   7.148  0.7087  0.4515 -2.0099
  189SAPI   C2721806   4.998   5.052   6.987 -0.0817  0.4254 -0.2114
  189SAPI   H7R21807   4.925   5.130   7.018 -0.1702 -0.1059  0.9672
  189SAPI   H7S21808   4.953   4.952   7.001  0.0835  0.0511 -2.1658
  189SAPI   C2821809   5.039   5.083   6.847 -0.0454  0.4325  0.4685
  189SAPI   H8R21810   5.127   5.148   6.852 -1.6320  2.7415 -0.2899
  189SAPI   C2921811   4.985   5.045   6.727 -0.4457 -0.0164  0.1731
  189SAPI   H9R21812   5.032   5.069   6.631  0.7704 -0.9967  0.5043
  189SAPI  C21021813   4.880   4.939   6.711  0.5284 -0.7285  0.0931
  189SAPI  H10R21814   4.924   4.838   6.718  1.7637 -0.1907  0.3378
  189SAPI  H10S21815   4.863   4.945   6.601 -0.7829  2.0296  0.3561
  189SAPI  C21121816   4.752   4.936   6.783 -0.2020  0.2659 -0.0485
  189SAPI  H11R21817   4.749   4.977   6.885  1.7700 -0.1542  0.2024
  189SAPI  C21221818   4.645   4.872   6.737  0.0220 -0.2454  0.2739
  189SAPI  H12R21819   4.564   4.872   6.810  1.1593  0.5198  1.5881
  189SAPI  C21321820   4.624   4.804   6.602 -0.2633  0.1162 -0.6465
  189SAPI  H13R21821   4.647   4.875   6.519  3.1526 -0.1917 -0.1232
  189SAPI  H13S21822   4.516   4.781   6.600  0.0719 -1.7109  0.2911
  189SAPI  C21421823   4.701   4.673   6.582 -0.4935  0.2779 -0.0412
  189SAPI  H14R21824   4.716   4.613   6.673  2.1763  1.1446  0.1736
  189SAPI  C21521825   4.760   4.629   6.472 -0.7189  0.2064 -0.1459
  189SAPI  H15R21826   4.810   4.531   6.475  4.0095  2.3017 -0.9803
  189SAPI  C21621827   4.763   4.700   6.335 -0.1944  0.2247 -0.0773
  189SAPI  H16R21828   4.865   4.689   6.292 -0.2417  0.7182 -0.3250
  189SAPI  H16S21829   4.750   4.810   6.343  1.9932  0.7369 -2.1862
  189SAPI  C21721830   4.652   4.631   6.255 -0.0274 -0.7560  0.8476
  189SAPI  H17R21831   4.663   4.520   6.250 -0.9610 -0.8174 -0.1848
  189SAPI  H17S21832   4.662   4.664   6.150 -0.8272 -2.6399  0.1347
  189SAPI  C21821833   4.514   4.666   6.301 -0.0909 -0.0264 -0.5546
  189SAPI  H18R21834   4.511   4.775   6.318  0.2337  0.0741 -1.1167
  189SAPI  H18S21835   4.497   4.611   6.396 -1.1246  1.3836  0.1045
  189SAPI  C21921836   4.401   4.654   6.199  0.0546  0.2266 -0.2858
  189SAPI  H19R21837   4.308   4.669   6.258 -0.7686 -1.2073 -1.1517
  189SAPI  H19S21838   4.412   4.552   6.155 -0.8876  0.1750 -0.4326
  189SAPI  C22021839   4.408   4.765   6.098 -0.4274  0.1213  0.1702
  189SAPI  H20R21840   4.329   4.765   6.019  0.7135  1.5223 -1.0361
  189SAPI  H20S21841   4.501   4.768   6.038 -0.8959 -1.9418 -0.7545
  189SAPI  H20T21842   4.415   4.867   6.141  0.1586  0.6228 -1.0711
  189SAPI   C3321843   4.651   4.372   7.086 -0.4314 -0.1200 -0.7241
  189SAPI   H3X21844   4.559   4.382   7.025  1.5074 -0.2455 -3.8773
  189SAPI   H3Y21845   4.649   4.288   7.159  0.9479  0.5669  0.1383
  189SAPI   C3421846   4.773   4.332   6.994 -0.7251 -0.8614  0.4130
  189SAPI   H4X21847   4.768   4.227   6.959  1.2657 -1.4943  1.8683
  189SAPI   H4Y21848   4.866   4.339   7.055 -0.3573 -0.7482 -0.1477
  189SAPI   C3521849   4.802   4.428   6.873  0.8565 -0.3345 -0.0643
  189SAPI   H5X21850   4.814   4.535   6.899  0.8423 -0.2807 -0.2735
  189SAPI   H5Y21851   4.710   4.423   6.810  0.6919 -0.8256  0.2139
  189SAPI   C3621852   4.921   4.387   6.791 -0.8524  0.0096 -0.0438
  189SAPI   H6X21853   4.912   4.464   6.711 -0.2501 -1.8429 -1.9908
  189SAPI   H6Y21854   4.895   4.289   6.747 -0.9690 -0.6225  1.3684
  189SAPI   C3721855   5.055   4.389   6.877  0.3584  0.2471  0.6601
  189SAPI   H7X21856   5.061   4.307   6.952 -0.1249  0.2834  0.7435
  189SAPI   H7Y21857   5.056   4.475   6.947  2.8147 -1.7778  3.3725
  189SAPI   C3821858   5.185   4.396   6.788  0.0589  0.2415  0.0024
  189SAPI   H8X21859   5.192   4.314   6.713  1.7471  0.7843 -0.4803
  189SAPI   H8Y21860   5.266   4.388   6.864 -1.2295 -1.7150  1.2534
  189SAPI   C3921861   5.194   4.527   6.723 -0.2826 -0.7873 -0.7740
  189SAPI   H9X21862   5.166   4.604   6.797  0.1620 -0.2829 -1.1261
  189SAPI   H9Y21863   5.119   4.532   6.641  0.8255  2.0933 -1.7373
  189SAPI  C31021864   5.330   4.570   6.660  0.3301 -0.9178  0.2427
  189SAPI  H10X21865   5.408   4.532   6.730 -1.7388  0.0168  3.2497
  189SAPI  H10Y21866   5.339   4.681   6.658 -0.9718 -0.8015 -0.4520
  189SAPI  C31121867   5.348   4.512   6.520 -0.2952  0.6157  0.3170
  189SAPI  H11X21868   5.285   4.421   6.514 -0.7815  0.8246  1.9051
  189SAPI  H11Y21869   5.455   4.488   6.501 -0.2172 -0.6214  2.1757
  189SAPI  C31221870   5.307   4.590   6.392  0.1708  0.1247  0.9253
  189SAPI  H12X21871   5.206   4.628   6.418  0.2033 -0.3354  1.7627
  189SAPI  H12Y21872   5.299   4.513   6.313  0.5803 -1.7719  2.6363
  189SAPI  C31321873   5.391   4.705   6.343 -0.0979  0.1385 -0.1162
  189SAPI  H13X21874   5.489   4.681   6.298 -0.0345  0.9662 -0.4291
  189SAPI  H13Y21875   5.404   4.787   6.418 -1.3880  0.6257 -0.4000
  189SAPI  C31421876   5.316   4.763   6.215  0.1941 -0.3484 -0.8838
  189SAPI  H14X21877   5.331   4.692   6.130 -2.5251 -0.7450 -1.1118
  189SAPI  H14Y21878   5.387   4.842   6.183  0.8565 -0.6637 -0.2160
  189SAPI  C31521879   5.182   4.831   6.249  0.5967  0.2606 -0.0175
  189SAPI  H15X21880   5.197   4.917   6.318  3.0727  2.9025 -3.4977
  189SAPI  H15Y21881   5.114   4.752   6.287  0.1556  1.0297  0.8157
  189SAPI  C31621882   5.123   4.904   6.123 -0.8061  0.2122 -0.3528
  189SAPI  H16X21883   5.106   4.824   6.047 -2.0103  0.0918  0.0226
  189SAPI  H16Y21884   5.186   4.985   6.079 -1.3754  1.8707  1.7509
  189SAPI  C31721885   4.991   4.975   6.149  0.2323 -0.0718 -0.0333
  189SAPI  H17X21886   4.984   5.048   6.232 -2.1544  1.0029 -1.1154
  189SAPI  H17Y21887   4.928   4.892   6.187  0.1623 -0.2235 -0.4667
  189SAPI  C31821888   4.938   5.034   6.022  0.0042  0.5593  0.2158
  189SAPI  H18X21889   5.013   5.098   5.970  2.0354  0.3495  2.7038
  189SAPI  H18Y21890   4.847   5.092   6.048  0.4524  1.8912 -1.0336
  189SAPI  H18Z21891   4.902   4.956   5.952 -1.2297 -0.1845  1.6405
  190SAPI   C1221892   4.734   3.452   7.857 -0.0678 -0.1102  0.2532
  190SAPI    H221893   4.649   3.403   7.910 -1.1709  0.1949 -1.1759
  190SAPI    O221894   4.835   3.514   7.945  0.3347 -0.0852  0.0865
  190SAPI   HO221895   4.869   3.441   7.996 -0.1559  0.6185  1.4930
  190SAPI   C1321896   4.798   3.345   7.774 -0.6974  0.3209  0.9042
  190SAPI    H321897   4.726   3.321   7.694  0.7352  1.7700 -0.8998
  190SAPI    O321898   4.813   3.229   7.856  0.5780  0.3279 -0.0577
  190SAPI   HO321899   4.731   3.180   7.858 -0.4656  2.0173  0.6808
  190SAPI   C1421900   4.922   3.389   7.696 -0.2704  0.6725 -0.3382
  190SAPI    H421901   4.995   3.421   7.774  1.7933  0.3416 -2.0283
  190SAPI    O421902   4.984   3.280   7.628 -0.1409  0.7619  0.1238
  190SAPI   HO421903   4.958   3.199   7.672 -1.5978  0.1963 -1.6241
  190SAPI   C1521904   4.891   3.514   7.618 -0.3048 -0.0596 -0.5425
  190SAPI    H521905   4.863   3.478   7.517 -0.7892 -0.5927 -0.2234
  190SAPI    O521906   5.017   3.591   7.591 -0.1602 -0.1169  0.3753
  190SAPI   HO521907   5.069   3.598   7.671  1.6035  0.5343 -0.7604
  190SAPI   C1621908   4.778   3.601   7.674  0.1479  0.0631  0.1088
  190SAPI    H621909   4.835   3.663   7.747 -0.1390 -0.7298  1.0258
  190SAPI    O621910   4.723   3.691   7.569  0.0107  0.0337 -0.4030
  190SAPI   HO621911   4.628   3.699   7.584  0.2149 -0.8689  1.8010
  190SAPI   C1121912   4.672   3.537   7.756 -0.7906 -0.7576 -0.4783
  190SAPI    H121913   4.601   3.484   7.689 -0.3964  0.3501 -1.8274
  190SAPI     P21914   4.446   3.676   7.787 -0.1763 -0.2495 -0.1679
  190SAPI   O1321915   4.401   3.803   7.853  0.1853  0.2649 -0.5145
  190SAPI   O1421916   4.362   3.551   7.801  0.0051  0.3154 -0.3220
  190SAPI   O1221917   4.596   3.637   7.837  0.6487 -0.9385  0.1485
  190SAPI   O1121918   4.474   3.704   7.639  0.4919 -0.8600  0.1169
  190SAPI    C121919   4.361   3.686   7.545 -1.1611 -0.3782  0.0030
  190SAPI    HA21920   4.262   3.675   7.595 -0.1229  0.1600  2.3607
  190SAPI    HB21921   4.350   3.776   7.480  1.4886 -0.6522 -0.9356
  190SAPI    C221922   4.382   3.564   7.457  0.7384  0.0535 -0.0926
  190SAPI    HS21923   4.395   3.477   7.525 -0.1301  0.4351  0.5814
  190SAPI   O2121924   4.498   3.582   7.376  0.0046  0.6952 -0.2750
  190SAPI   C2121925   4.550   3.477   7.313  0.7405  0.9289 -0.2597
  190SAPI   O2221926   4.516   3.364   7.322  0.4470  0.3424 -0.1640
  190SAPI   C2221927   4.662   3.517   7.224 -0.2731  0.1977  0.9151
  190SAPI   H2R21928   4.642   3.621   7.191  1.4797 -0.2009 -1.6887
  190SAPI   H2S21929   4.750   3.518   7.292  0.6381  0.7807 -0.2322
  190SAPI    C321930   4.249   3.534   7.369 -0.5315 -0.4841 -0.4519
  190SAPI    HX21931   4.161   3.537   7.437 -0.7794  2.0155 -0.7801
  190SAPI    HY21932   4.249   3.434   7.320  1.3855 -0.9361  0.3649
  190SAPI   O3121933   4.225   3.642   7.276  0.1791  0.7800 -0.0815
  190SAPI   C3121934   4.279   3.634   7.156  0.1704 -0.9187 -0.0231
  190SAPI   O3221935   4.339   3.541   7.105 -0.3299  0.0268  0.0133
  190SAPI   C3221936   4.250   3.767   7.085 -0.0156 -0.2983 -0.6265
  190SAPI   H2X21937   4.299   3.852   7.139 -1.8008 -0.3400  1.2041
  190SAPI   H2Y21938   4.141   3.789   7.088  0.6300  3.6881  0.3395
  190SAPI   C2321939   4.694   3.422   7.107 -0.2642 -0.4487 -0.2120
  190SAPI   H3R21940   4.617   3.436   7.029 -2.8975  1.4095  2.5116
  190SAPI   H3S21941   4.689   3.316   7.142  0.4789 -0.2786  0.4224
  190SAPI   C2421942   4.844   3.438   7.060  0.6061  0.2180  0.4214
  190SAPI   H4R21943   4.912   3.450   7.147  0.4549  1.5352  0.3734
  190SAPI   H4S21944   4.855   3.544   7.027 -1.1679  1.0153  2.2085
  190SAPI   C2521945   4.885   3.318   6.972  0.2107 -0.0777  0.3601
  190SAPI   H5R21946   4.891   3.224   7.030  1.0344 -0.8497 -0.9202
  190SAPI   C2621947   4.918   3.315   6.837 -0.1339 -1.1005 -1.2413
  190SAPI   H6R21948   4.944   3.220   6.788  1.3570 -1.0336 -0.6200
  190SAPI   C2721949   4.919   3.428   6.737 -0.5296  0.0295  0.2112
  190SAPI   H7R21950   4.845   3.506   6.763 -2.0507 -0.6101 -1.8943
  190SAPI   H7S21951   4.881   3.387   6.641  1.3759 -4.1640  1.0105
  190SAPI   C2821952   5.059   3.479   6.737 -0.0124 -0.0852 -0.6660
  190SAPI   H8R21953   5.092   3.492   6.841  0.1355  1.5529 -0.8915
  190SAPI   C2921954   5.133   3.521   6.628  0.1329  0.4379 -0.2414
  190SAPI   H9R21955   5.232   3.563   6.653  0.6646 -1.1470  0.4140
  190SAPI  C21021956   5.095   3.537   6.488  0.1772  0.1563  0.6690
  190SAPI  H10R21957   4.999   3.483   6.473  0.5810 -0.2065 -0.7915
  190SAPI  H10S21958   5.170   3.477   6.432 -0.8141  0.8073 -1.5086
  190SAPI  C21121959   5.084   3.678   6.429  0.7229 -0.7617 -0.1092
  190SAPI  H11R21960   5.014   3.744   6.483  1.1997  1.0972 -1.6518
  190SAPI  C21221961   5.150   3.732   6.325 -0.3040 -0.0061 -0.0439
  190SAPI  H12R21962   5.123   3.833   6.291 -0.0777  0.3974  0.9386
  190SAPI  C21321963   5.253   3.676   6.234 -0.3657  0.8016  0.0135
  190SAPI  H13R21964   5.299   3.587   6.282 -0.6344  0.4977 -0.2828
  190SAPI  H13S21965   5.335   3.748   6.212  0.5418 -0.0593  0.5079
  190SAPI  C21421966   5.209   3.652   6.090  0.3934  0.0364  0.2059
  190SAPI  H14R21967   5.196   3.546   6.065 -0.7978 -0.3588  2.2929
  190SAPI  C21521968   5.185   3.743   5.990 -0.2110  0.3326 -0.7104
  190SAPI  H15R21969   5.149   3.708   5.892 -1.7753 -1.6434  0.4759
  190SAPI  C21621970   5.211   3.892   5.997  0.1390  0.7924  0.2273
  190SAPI  H16R21971   5.281   3.923   5.917  0.9223  2.3274  1.4462
  190SAPI  H16S21972   5.267   3.909   6.091 -0.1383  0.0563  0.5318
  190SAPI  C21721973   5.086   3.977   6.009  0.2610 -0.8157  0.9346
  190SAPI  H17R21974   5.122   4.081   5.996  0.3337 -0.9923 -0.5353
  190SAPI  H17S21975   5.035   3.975   6.108  0.1198 -1.4018  0.8577
  190SAPI  C21821976   4.988   3.953   5.897  1.2875 -0.2443  0.2796
  190SAPI  H18R21977   4.936   3.855   5.904  1.2960 -0.2966 -0.3321
  190SAPI  H18S21978   5.036   3.967   5.797  1.3849 -1.3074  0.1702
  190SAPI  C21921979   4.869   4.057   5.897 -0.0351 -0.2642 -0.4160
  190SAPI  H19R21980   4.886   4.161   5.862 -2.2323  0.7287  1.2870
  190SAPI  H19S21981   4.841   4.060   6.004  1.0290 -0.0559 -0.1329
  190SAPI  C22021982   4.747   4.003   5.822  0.8960 -0.7499  0.2610
  190SAPI  H20R21983   4.662   4.074   5.828  0.1202 -1.7267  1.3801
  190SAPI  H20S21984   4.711   3.912   5.874 -0.3509 -1.5973 -1.9442
  190SAPI  H20T21985   4.765   3.971   5.717  2.2873 -0.3967  0.3699
  190SAPI   C3321986   4.287   3.764   6.939  0.4169  0.6359  0.7375
  190SAPI   H3X21987   4.382   3.709   6.929 -0.6534 -1.0112 -0.9537
  190SAPI   H3Y21988   4.318   3.866   6.909  0.3716 -0.0197 -1.7331
  190SAPI   C3421989   4.183   3.697   6.844  0.0033 -0.2837 -0.4376
  190SAPI   H4X21990   4.086   3.750   6.859  0.9315  1.7736 -1.2439
  190SAPI   H4Y21991   4.171   3.590   6.869  0.8092 -0.8665 -2.4079
  190SAPI   C3521992   4.220   3.715   6.702  0.4299  0.7160 -0.0446
  190SAPI   H5X21993   4.202   3.618   6.651  0.8773 -0.0933  1.2885
  190SAPI   H5Y21994   4.329   3.727   6.685  0.5728 -1.6868 -1.2253
  190SAPI   C3621995   4.140   3.819   6.626 -0.3093  0.3712  0.3229
  190SAPI   H6X21996   4.146   3.914   6.684  1.0944  0.3393  0.2542
  190SAPI   H6Y21997   4.034   3.786   6.631 -0.6615  1.6162  2.9838
  190SAPI   C3721998   4.189   3.833   6.482  0.0495  0.1394  0.1783
  190SAPI   H7X21999   4.287   3.885   6.478 -1.2499  2.6891 -0.9672
  190SAPI   H7Y22000   4.129   3.921   6.450  0.6087  1.5767  2.8011
  190SAPI   C3822001   4.157   3.721   6.383 -0.4704  0.7831  1.1178
  190SAPI   H8X22002   4.195   3.622   6.416 -2.0003 -0.5207 -0.7929
  190SAPI   H8Y22003   4.204   3.750   6.286 -0.5120  0.2461  0.9325
  190SAPI   C3922004   4.005   3.708   6.357  0.8292  0.1769  0.4418
  190SAPI   H9X22005   3.960   3.806   6.329 -0.1624 -1.1139 -2.9927
  190SAPI   H9Y22006   3.949   3.676   6.447 -0.1130  0.0617 -0.1704
  190SAPI  C31022007   3.968   3.616   6.236  0.3662 -1.1224 -0.2105
  190SAPI  H10X22008   3.860   3.600   6.257  0.9140 -0.9773  3.4513
  190SAPI  H10Y22009   4.008   3.513   6.238 -0.1191 -1.3297  1.7762
  190SAPI  C31122010   3.983   3.686   6.107 -0.5547  0.1143  0.4807
  190SAPI  H11X22011   4.092   3.686   6.085 -0.2962 -1.3764  1.5928
  190SAPI  H11Y22012   3.943   3.789   6.115  1.9526  1.0947  1.5829
  190SAPI  C31222013   3.913   3.612   5.989 -0.0366 -0.4918  0.5109
  190SAPI  H12X22014   3.804   3.603   6.009 -0.3903  2.0667  0.0060
  190SAPI  H12Y22015   3.960   3.512   5.976  0.1289 -0.0544 -3.4157
  190SAPI  C31322016   3.936   3.681   5.853  0.5046 -0.2747 -0.0252
  190SAPI  H13X22017   4.046   3.691   5.837  0.5418 -0.3971  0.1496
  190SAPI  H13Y22018   3.891   3.782   5.841 -1.4128 -1.3257 -2.7517
  190SAPI  C31422019   3.880   3.594   5.738  0.0089 -0.0365  0.4177
  190SAPI  H14X22020   3.770   3.589   5.753  0.1686  0.1830  1.7784
  190SAPI  H14Y22021   3.930   3.495   5.734  0.5004  0.1535  1.4529
  190SAPI  C31522022   3.903   3.655   5.602 -0.0919  0.3804  0.6948
  190SAPI  H15X22023   4.011   3.652   5.577  0.1740  1.1855  1.6915
  190SAPI  H15Y22024   3.878   3.762   5.619 -1.4443  0.2621 -0.3346
  190SAPI  C31622025   3.817   3.597   5.490 -0.1279 -0.5882  0.0697
  190SAPI  H16X22026   3.707   3.613   5.490  0.0592  0.8644  1.5692
  190SAPI  H16Y22027   3.839   3.488   5.498  2.8822 -0.0480  0.0936
  190SAPI  C31722028   3.854   3.659   5.346 -0.0455  0.2080 -0.5235
  190SAPI  H17X22029   3.964   3.667   5.332 -0.1992  4.1808 -0.6455
  190SAPI  H17Y22030   3.813   3.763   5.349 -0.1082  0.2480  3.9297
  190SAPI  C31822031   3.791   3.583   5.234  0.1900  0.1559  0.0447
  190SAPI  H18X22032   3.681   3.594   5.245  0.3546  0.8177  1.2332
  190SAPI  H18Y22033   3.814   3.475   5.246 -1.1888 -0.4896 -2.3825
  190SAPI  H18Z22034   3.828   3.629   5.139  1.1793  1.8055  1.1694
  191SAPI   C1222035   2.111   2.324   2.988 -0.1070  0.2379  0.0917
  191SAPI    H222036   2.069   2.253   3.062 -0.5595 -0.3576 -0.7213
  191SAPI    O222037   2.255   2.312   3.002  0.3104  0.3564  0.3434
  191SAPI   HO222038   2.280   2.293   3.093 -1.9550  0.1799  0.9926
  191SAPI   C1322039   2.076   2.277   2.847  0.1987 -0.5750  0.1969
  191SAPI    H322040   1.965   2.284   2.846  0.2944  1.7128  0.5402
  191SAPI    O322041   2.121   2.143   2.823  0.0353 -0.5566  0.4566
  191SAPI   HO322042   2.216   2.152   2.832  0.3195 -2.4010 -0.1869
  191SAPI   C1422043   2.123   2.380   2.741  0.6369  0.0969 -0.2929
  191SAPI    H422044   2.232   2.364   2.729  0.5992 -1.4105  1.0536
  191SAPI    O422045   2.061   2.350   2.613 -0.1095  0.5842 -0.1536
  191SAPI   HO422046   2.121   2.316   2.547 -1.2512 -1.0382 -0.4171
  191SAPI   C1522047   2.115   2.525   2.781 -0.1427  0.4311 -0.2526
  191SAPI    H522048   2.012   2.556   2.752  0.4738  2.6946 -0.2458
  191SAPI    O522049   2.189   2.613   2.701 -0.0910 -0.1654  0.4340
  191SAPI   HO522050   2.241   2.668   2.761 -1.1108 -0.2305  1.4059
  191SAPI   C1622051   2.130   2.561   2.922 -0.0222  0.2454 -0.6583
  191SAPI    H622052   2.240   2.554   2.936 -0.3013 -2.6731  0.8919
  191SAPI    O622053   2.081   2.691   2.950 -0.6627 -0.0385  0.0079
  191SAPI   HO622054   2.115   2.706   3.039  0.7108 -1.3105 -0.2604
  191SAPI   C1122055   2.065   2.462   3.017 -0.0380 -0.3834  0.2720
  191SAPI    H122056   1.956   2.473   2.998 -0.4036 -1.2693  1.7244
  191SAPI     P22057   1.993   2.458   3.277 -0.3066 -0.2760 -0.2772
  191SAPI   O1322058   1.863   2.437   3.219  0.8762 -0.0382  0.3187
  191SAPI   O1422059   2.018   2.552   3.389 -0.8192  0.1265  0.0728
  191SAPI   O1222060   2.094   2.497   3.154  0.4254  0.2379 -0.4347
  191SAPI   O1122061   2.052   2.316   3.321 -0.4683 -0.7667  0.1064
  191SAPI    C122062   1.960   2.203   3.338 -0.7593  0.2668 -0.6035
  191SAPI    HA22063   1.926   2.166   3.239  1.3118 -2.0175 -0.5504
  191SAPI    HB22064   2.011   2.113   3.378 -1.0436 -0.1182 -1.0982
  191SAPI    C222065   1.845   2.214   3.442 -0.4066 -0.7820  0.3698
  191SAPI    HS22066   1.766   2.280   3.399  1.4118 -0.5589 -2.9483
  191SAPI   O2122067   1.905   2.282   3.544  0.2703 -0.4383  0.5171
  191SAPI   C2122068   1.834   2.308   3.652  0.3618  0.0253 -0.8470
  191SAPI   O2222069   1.708   2.314   3.653  0.1827 -0.2078 -0.4615
  191SAPI   C2222070   1.918   2.365   3.763 -0.6990  0.4473  0.1695
  191SAPI   H2R22071   2.008   2.302   3.774 -0.7517  0.3458  0.0260
  191SAPI   H2S22072   1.943   2.467   3.727  2.7511 -0.1593  0.5331
  191SAPI    C322073   1.777   2.082   3.479  0.2088 -0.1695 -0.3265
  191SAPI    HX22074   1.758   2.027   3.385 -1.2531 -0.3687  0.0616
  191SAPI    HY22075   1.677   2.109   3.521 -0.4379 -1.8191 -0.7234
  191SAPI   O3122076   1.853   2.012   3.592  0.0473  0.0547  0.3959
  191SAPI   C3122077   1.918   1.906   3.546 -0.1926  0.3327 -0.0303
  191SAPI   O3222078   1.946   1.878   3.431  0.3047  0.1798 -0.0541
  191SAPI   C3222079   1.965   1.827   3.666  0.0457  0.4450 -0.1317
  191SAPI   H2X22080   2.039   1.753   3.628  1.5963  0.0978  3.1902
  191SAPI   H2Y22081   1.890   1.768   3.722  0.7107 -1.5144 -1.1745
  191SAPI   C2322082   1.842   2.376   3.895  0.6993 -0.0052 -0.2967
  191SAPI   H3R22083   1.792   2.283   3.929 -0.3905  1.4304  2.3431
  191SAPI   H3S22084   1.761   2.450   3.880  0.3284 -0.3393  0.0483
  191SAPI   C2422085   1.934   2.431   4.007  0.1259  0.4598  0.2089
  191SAPI   H4R22086   1.861   2.457   4.087 -0.9340 -3.0009  0.5291
  191SAPI   H4S22087   1.984   2.526   3.978  0.3601  0.5043  0.7559
  191SAPI   C2522088   2.043   2.338   4.061  0.4287  0.4624  0.8829
  191SAPI   H5R22089   2.117   2.314   3.984 -2.1870  0.7160 -1.9160
  191SAPI   C2622090   2.058   2.299   4.184  0.3854  0.6950 -0.0513
  191SAPI   H6R22091   2.139   2.226   4.204 -0.1256 -0.3582 -1.6575
  191SAPI   C2722092   1.968   2.321   4.303  0.5747  0.1793 -0.2723
  191SAPI   H7R22093   1.864   2.345   4.273 -0.2847  0.2964  2.5826
  191SAPI   H7S22094   2.001   2.409   4.362 -0.7673  0.3450  0.2689
  191SAPI   C2822095   1.939   2.203   4.391 -0.4341  0.8351  0.0283
  191SAPI   H8R22096   1.878   2.129   4.337 -1.8921  2.0492 -0.0612
  191SAPI   C2922097   1.958   2.178   4.521 -0.0848  0.4696  0.2148
  191SAPI   H9R22098   1.921   2.088   4.571 -0.8266  0.9547  0.5444
  191SAPI  C21022099   2.016   2.273   4.616 -0.6214  0.1284  0.0694
  191SAPI  H10R22100   1.966   2.371   4.608  0.6207  0.7927  0.1258
  191SAPI  H10S22101   2.114   2.312   4.580 -1.5649  1.5421 -1.0972
  191SAPI  C21122102   2.033   2.217   4.755  0.2653  0.4261 -0.0305
  191SAPI  H11R22103   2.055   2.110   4.762  1.3955  0.7563  2.1710
  191SAPI  C21222104   2.017   2.276   4.873 -0.4887  0.6240 -0.4516
  191SAPI  H12R22105   2.064   2.222   4.957 -0.0353 -1.2929 -1.8718
  191SAPI  C21322106   1.971   2.416   4.900 -0.6243  0.0206 -0.2863
  191SAPI  H13R22107   1.909   2.413   4.992  0.2034 -4.8078  0.3800
  191SAPI  H13S22108   1.909   2.441   4.812  0.7232 -0.9184 -1.5519
  191SAPI  C21422109   2.083   2.514   4.902  0.0521 -0.2834 -0.3029
  191SAPI  H14R22110   2.114   2.560   4.807  2.2660  0.2343  0.6215
  191SAPI  C21522111   2.154   2.550   5.016  0.8380  0.4158  0.6127
  191SAPI  H15R22112   2.238   2.618   4.995  0.3808  0.2546 -2.2598
  191SAPI  C21622113   2.107   2.518   5.156 -0.1246 -0.8252  0.0982
  191SAPI  H16R22114   2.013   2.461   5.168 -1.3603  1.2579  0.8807
  191SAPI  H16S22115   2.094   2.610   5.217 -0.6650 -1.8962  1.6566
  191SAPI  C21722116   2.227   2.449   5.224  0.7019  0.0154 -0.0688
  191SAPI  H17R22117   2.315   2.517   5.217  0.4352  0.4779  0.9037
  191SAPI  H17S22118   2.248   2.346   5.188 -0.4401  0.4916 -2.2641
  191SAPI  C21822119   2.206   2.445   5.381  0.0675 -0.1798 -0.1616
  191SAPI  H18R22120   2.185   2.540   5.434 -0.8384 -0.1372 -0.5935
  191SAPI  H18S22121   2.303   2.412   5.427  0.1368  0.6049  0.2812
  191SAPI  C21922122   2.095   2.347   5.421  0.4056  0.1971  0.3086
  191SAPI  H19R22123   2.088   2.257   5.357 -0.4068  0.6559 -0.2596
  191SAPI  H19S22124   2.001   2.404   5.408  0.5545 -0.0453 -2.2129
  191SAPI  C22022125   2.108   2.295   5.562  0.2869 -0.0016 -0.4440
  191SAPI  H20R22126   2.028   2.220   5.583  0.6725 -0.4978 -0.7119
  191SAPI  H20S22127   2.112   2.376   5.637 -0.7664  0.0430 -0.4179
  191SAPI  H20T22128   2.193   2.224   5.575 -0.8448 -1.2670  0.3313
  191SAPI   C3322129   2.037   1.914   3.768 -0.2248 -0.4970  0.4158
  191SAPI   H3X22130   1.980   2.008   3.779  0.9987  0.1685  1.3131
  191SAPI   H3Y22131   2.136   1.947   3.728 -0.4168  0.3673  0.6373
  191SAPI   C3422132   2.054   1.845   3.907 -0.3500 -0.5925 -0.2764
  191SAPI   H4X22133   2.113   1.751   3.904  0.7658 -0.0489  2.0285
  191SAPI   H4Y22134   1.954   1.810   3.942 -1.0766  0.9953 -0.6661
  191SAPI   C3522135   2.091   1.939   4.025 -0.0756  0.3644 -0.2003
  191SAPI   H5X22136   2.015   2.020   4.035 -0.4083 -0.2010  2.6956
  191SAPI   H5Y22137   2.184   1.992   3.996  0.0926 -0.9415 -2.1567
  191SAPI   C3622138   2.117   1.860   4.149  0.3068  0.0606  0.5820
  191SAPI   H6X22139   2.163   1.934   4.218 -0.2259  3.2163 -2.1723
  191SAPI   H6Y22140   2.190   1.779   4.127 -2.5823 -2.3555 -0.8822
  191SAPI   C3722141   1.992   1.812   4.230  0.1068 -0.7528  0.5657
  191SAPI   H7X22142   1.950   1.728   4.171 -0.7652  0.5889 -0.8075
  191SAPI   H7Y22143   1.919   1.895   4.230 -0.6616 -1.4115  0.3795
  191SAPI   C3822144   2.017   1.774   4.373 -0.3135  0.0940  0.4177
  191SAPI   H8X22145   1.919   1.745   4.416  0.4445 -1.7838  0.9549
  191SAPI   H8Y22146   2.061   1.860   4.426 -1.1923  1.0396 -0.3366
  191SAPI   C3922147   2.130   1.672   4.398  0.5048  0.0933  0.6799
  191SAPI   H9X22148   2.220   1.715   4.349 -0.5627  0.8408 -0.6832
  191SAPI   H9Y22149   2.092   1.582   4.345 -2.0404  2.6361 -2.2049
  191SAPI  C31022150   2.171   1.663   4.549 -0.3001  0.4223  0.2059
  191SAPI  H10X22151   2.194   1.757   4.605 -0.8730 -0.7548  2.5617
  191SAPI  H10Y22152   2.272   1.617   4.547  1.0108  2.9454  1.9773
  191SAPI  C31122153   2.069   1.577   4.623  0.1710 -0.1755 -0.9706
  191SAPI  H11X22154   2.084   1.470   4.598  0.9875 -0.3326  0.0956
  191SAPI  H11Y22155   1.963   1.603   4.601  0.1816 -2.3143 -4.1426
  191SAPI  C31222156   2.087   1.591   4.773  0.3113  0.2709  0.4417
  191SAPI  H12X22157   2.039   1.685   4.809  0.7753  0.8709 -0.4701
  191SAPI  H12Y22158   2.193   1.623   4.780  0.2815  0.5661 -0.2746
  191SAPI  C31322159   2.040   1.476   4.863 -0.1968 -0.4949  0.0145
  191SAPI  H13X22160   2.068   1.380   4.814 -0.3102 -0.2541 -0.5298
  191SAPI  H13Y22161   1.930   1.480   4.851 -0.2594  0.8305  0.8330
  191SAPI  C31422162   2.087   1.484   5.012 -0.2881 -0.1736  0.7518
  191SAPI  H14X22163   2.079   1.589   5.050 -0.4050 -0.0304  0.3392
  191SAPI  H14Y22164   2.192   1.451   5.005 -0.9218 -1.8174 -3.2917
  191SAPI  C31522165   2.004   1.394   5.103 -0.0201  0.6569  0.4994
  191SAPI  H15X22166   2.006   1.290   5.065  0.9075  1.3121 -1.3372
  191SAPI  H15Y22167   1.903   1.439   5.098  0.5182  1.7337 -2.1628
  191SAPI  C31622168   2.059   1.401   5.243 -0.0073  0.2021 -0.4557
  191SAPI  H16X22169   2.008   1.322   5.303 -1.5484  1.3344 -0.2119
  191SAPI  H16Y22170   2.042   1.505   5.276  0.4093  0.6445 -1.5930
  191SAPI  C31722171   2.211   1.363   5.266 -0.3623 -0.2151 -0.0268
  191SAPI  H17X22172   2.279   1.445   5.233  1.2009 -0.6628  1.9027
  191SAPI  H17Y22173   2.225   1.265   5.215 -0.4042 -0.4122  0.3430
  191SAPI  C31822174   2.241   1.333   5.418 -1.0708  0.9693 -0.4926
  191SAPI  H18X22175   2.228   1.423   5.482 -1.0858  1.2696 -0.9115
  191SAPI  H18Y22176   2.340   1.284   5.431 -2.5366 -2.1280 -0.0032
  191SAPI  H18Z22177   2.167   1.252   5.435 -2.2613  1.3593 -3.2465
  192SAPI   C1222178   5.653   2.011   2.769 -0.1632 -0.2545  0.0993
  192SAPI    H222179   5.655   2.117   2.738 -1.9215  0.1910  1.3709
  192SAPI    O222180   5.527   1.959   2.729 -0.2439  0.2302 -0.6230
  192SAPI   HO222181   5.460   2.023   2.752 -0.8176 -0.6678  0.2829
  192SAPI   C1322182   5.772   1.940   2.711  1.1574  0.0994 -0.4243
  192SAPI    H322183   5.856   2.007   2.742  0.4914  1.8796 -2.2426
  192SAPI    O322184   5.773   1.945   2.569 -0.4447 -0.2536 -0.9648
  192SAPI   HO322185   5.699   1.998   2.540 -0.7124  0.1000  0.2873
  192SAPI   C1422186   5.780   1.796   2.775  0.2433 -0.5720 -0.0351
  192SAPI    H422187   5.697   1.745   2.721 -0.7467  0.9282  0.0409
  192SAPI    O422188   5.905   1.739   2.734  0.0139 -0.0033  0.4649
  192SAPI   HO422189   5.973   1.806   2.740 -0.4471  0.4374  0.9131
  192SAPI   C1522190   5.742   1.778   2.923  0.3416  0.5820  0.3990
  192SAPI    H522191   5.838   1.790   2.979  0.0218  0.0074  1.0966
  192SAPI    O522192   5.702   1.647   2.956 -0.1555 -0.1606 -0.2272
  192SAPI   HO522193   5.662   1.656   3.043  1.4848 -1.1796  0.6978
  192SAPI   C1622194   5.641   1.875   2.979 -0.0896 -0.0879 -0.6505
  192SAPI    H622195   5.541   1.841   2.947 -0.8694  0.8449  0.6859
  192SAPI    O622196   5.653   1.872   3.123 -0.3120 -0.5773  0.7483
  192SAPI   HO622197   5.602   1.950   3.149  1.9402  1.4210 -0.3758
  192SAPI   C1122198   5.657   2.018   2.924  0.1559  0.3219  0.2361
  192SAPI    H122199   5.760   2.049   2.948  0.6369 -0.5634 -0.6151
  192SAPI     P22200   5.566   2.261   2.998 -0.2137 -0.0064 -0.3490
  192SAPI   O1322201   5.435   2.330   3.005  0.4321  0.2382 -0.2952
  192SAPI   O1422202   5.669   2.310   2.912  0.3064 -0.2060 -0.5968
  192SAPI   O1222203   5.555   2.098   2.989 -0.0957  0.2501  0.2354
  192SAPI   O1122204   5.625   2.269   3.134 -0.0444 -0.4387 -0.4386
  192SAPI    C122205   5.560   2.213   3.255 -0.2927  0.4587 -0.2786
  192SAPI    HA22206   5.450   2.208   3.241 -0.5316 -0.2359  1.6166
  192SAPI    HB22207   5.605   2.113   3.270  0.8757  0.3714 -3.5226
  192SAPI    C222208   5.595   2.310   3.383  0.4265  0.2967  0.5691
  192SAPI    HS22209   5.532   2.400   3.369  0.0472 -0.0035  0.3404
  192SAPI   O2122210   5.735   2.345   3.377 -0.0746 -0.3259  0.4431
  192SAPI   C2122211   5.785   2.454   3.443  0.2628  0.3352 -0.4971
  192SAPI   O2222212   5.715   2.536   3.497  0.2734  0.4507 -0.2341
  192SAPI   C2222213   5.937   2.459   3.442 -0.8862 -0.1742  0.4937
  192SAPI   H2R22214   5.965   2.372   3.506 -1.7791 -1.9307 -1.3929
  192SAPI   H2S22215   5.973   2.432   3.340 -1.5016 -0.9352  0.4715
  192SAPI    C322216   5.567   2.233   3.519 -0.4270 -0.9892  0.0840
  192SAPI    HX22217   5.623   2.137   3.509  1.0897 -0.8425  4.7485
  192SAPI    HY22218   5.460   2.204   3.521 -0.8421  0.4043 -0.5903
  192SAPI   O3122219   5.612   2.299   3.639  0.1885  0.1206 -0.4519
  192SAPI   C3122220   5.520   2.370   3.706 -0.3286  0.7471 -0.2349
  192SAPI   O3222221   5.408   2.391   3.662 -0.1302  0.9967 -0.3539
  192SAPI   C3222222   5.591   2.416   3.830  0.2072 -0.2814 -0.3294
  192SAPI   H2X22223   5.637   2.515   3.811  0.0518 -0.2964 -0.7903
  192SAPI   H2Y22224   5.682   2.352   3.840  2.1024  2.1430 -1.1406
  192SAPI   C2322225   5.997   2.601   3.472 -0.3639 -0.6935  0.2110
  192SAPI   H3R22226   5.953   2.679   3.406 -1.5481  0.2341  1.9948
  192SAPI   H3S22227   6.102   2.593   3.437  0.0976 -2.3947  1.8395
  192SAPI   C2422228   5.984   2.637   3.625  0.0659  0.6348 -0.4292
  192SAPI   H4R22229   5.883   2.622   3.669 -0.7739 -0.2903 -2.5379
  192SAPI   H4S22230   6.019   2.742   3.638 -1.5854  1.5463 -2.7080
  192SAPI   C2522231   6.085   2.564   3.712  0.0340  0.4657  0.2693
  192SAPI   H5R22232   6.185   2.609   3.721 -0.3155  0.8755  3.2481
  192SAPI   C2622233   6.061   2.450   3.780  0.0029 -0.5591 -0.3163
  192SAPI   H6R22234   6.144   2.429   3.848  0.2377  1.8436  0.2437
  192SAPI   C2722235   5.934   2.374   3.791 -0.1159  0.0399 -0.1791
  192SAPI   H7R22236   5.872   2.374   3.698  0.3707 -2.0661 -0.5580
  192SAPI   H7S22237   5.865   2.413   3.869 -3.3099 -1.4328 -2.0525
  192SAPI   C2822238   5.974   2.233   3.820 -0.2708 -0.0275 -0.4340
  192SAPI   H8R22239   6.041   2.191   3.744  3.2146  1.2767  1.7086
  192SAPI   C2922240   5.937   2.151   3.924  0.0990  0.1131 -0.5724
  192SAPI   H9R22241   5.992   2.056   3.928 -1.0564 -0.6390 -1.7129
  192SAPI  C21022242   5.854   2.181   4.047 -0.5498  0.4384 -0.0817
  192SAPI  H10R22243   5.835   2.087   4.103  0.7971  0.2980  0.1695
  192SAPI  H10S22244   5.753   2.215   4.015 -1.6469 -1.3721  1.3051
  192SAPI  C21122245   5.895   2.290   4.139 -0.1336  0.2481  0.5522
  192SAPI  H11R22246   5.915   2.386   4.089  1.9476  1.0419  2.6846
  192SAPI  C21222247   5.912   2.291   4.274  0.2636  0.0585  0.9244
  192SAPI  H12R22248   5.952   2.381   4.323 -0.9654  1.4811 -0.5953
  192SAPI  C21322249   5.891   2.177   4.363  0.4276  0.4388 -0.2161
  192SAPI  H13R22250   5.985   2.143   4.411 -0.7393 -2.8685  0.0224
  192SAPI  H13S22251   5.849   2.083   4.320 -0.0822 -0.2191  1.5857
  192SAPI  C21422252   5.797   2.218   4.475  0.3738 -0.1083  0.0489
  192SAPI  H14R22253   5.700   2.247   4.433 -0.6409 -3.0328  0.2039
  192SAPI  C21522254   5.805   2.215   4.605 -0.7592  0.1743  0.4434
  192SAPI  H15R22255   5.718   2.243   4.667 -0.5148  0.8405  0.4872
  192SAPI  C21622256   5.919   2.152   4.678 -0.0492 -0.1000  0.4650
  192SAPI  H16R22257   6.008   2.215   4.660 -0.1018 -0.2135 -0.2096
  192SAPI  H16S22258   5.943   2.050   4.642 -0.3435 -0.2028  0.5552
  192SAPI  C21722259   5.885   2.131   4.838 -0.2391 -0.0203  0.0621
  192SAPI  H17R22260   5.979   2.077   4.865  0.2493  0.2139 -1.0760
  192SAPI  H17S22261   5.794   2.068   4.851  0.1482 -0.8326 -0.9456
  192SAPI  C21822262   5.868   2.257   4.917  0.0183 -0.6161  0.1970
  192SAPI  H18R22263   5.789   2.325   4.879  2.0352  1.1369 -1.0517
  192SAPI  H18S22264   5.955   2.319   4.885 -0.6765 -1.0173 -2.6932
  192SAPI  C21922265   5.859   2.233   5.070  0.2029  0.6208 -0.3651
  192SAPI  H19R22266   5.917   2.144   5.101 -1.5601  0.1113  1.6991
  192SAPI  H19S22267   5.751   2.216   5.091  0.8211 -0.5931  2.1935
  192SAPI  C22022268   5.913   2.354   5.145  0.0660  0.5364 -0.2038
  192SAPI  H20R22269   5.886   2.355   5.253  1.1755  2.4618  0.1207
  192SAPI  H20S22270   5.852   2.440   5.112 -3.1001 -0.5479  2.2915
  192SAPI  H20T22271   6.021   2.372   5.123 -0.8591  4.6026 -2.4374
  192SAPI   C3322272   5.506   2.416   3.956  0.4111  0.2305  0.1190
  192SAPI   H3X22273   5.502   2.309   3.983 -0.2362  0.5870  1.5584
  192SAPI   H3Y22274   5.407   2.464   3.940  0.9516  0.3814 -3.5384
  192SAPI   C3422275   5.565   2.491   4.081 -0.6303 -0.4118 -0.2301
  192SAPI   H4X22276   5.578   2.599   4.057  0.3212 -1.1833 -3.7486
  192SAPI   H4Y22277   5.669   2.452   4.082 -1.0173 -1.5203  1.5317
  192SAPI   C3522278   5.502   2.457   4.213 -1.2077 -0.3518 -0.3488
  192SAPI   H5X22279   5.498   2.347   4.218  1.5027 -0.5009 -0.0357
  192SAPI   H5Y22280   5.399   2.500   4.208 -2.2998 -2.6930  0.6206
  192SAPI   C3622281   5.576   2.512   4.334 -0.6585  0.5856  0.5119
  192SAPI   H6X22282   5.597   2.619   4.313 -3.2761  1.0609 -0.0420
  192SAPI   H6Y22283   5.677   2.467   4.346 -0.4986  0.9743  0.6298
  192SAPI   C3722284   5.500   2.499   4.464  0.8644  0.2438 -0.5171
  192SAPI   H7X22285   5.489   2.391   4.486  0.0077  0.5676  0.7605
  192SAPI   H7Y22286   5.399   2.543   4.449  0.0258 -1.6936 -0.8104
  192SAPI   C3822287   5.564   2.577   4.581 -0.3514 -0.2768  0.1886
  192SAPI   H8X22288   5.556   2.688   4.573  4.3136  0.4555  2.3670
  192SAPI   H8Y22289   5.672   2.555   4.578 -0.6738 -2.7209  2.6894
  192SAPI   C3922290   5.515   2.538   4.721  0.5162  0.1368 -0.0195
  192SAPI   H9X22291   5.527   2.428   4.731 -1.6389 -0.0994  0.5031
  192SAPI   H9Y22292   5.404   2.545   4.723  0.4598 -0.7555  1.3903
  192SAPI  C31022293   5.571   2.618   4.835 -0.3163  0.3454 -0.0566
  192SAPI  H10X22294   5.562   2.728   4.820  2.2082  0.9955  2.2285
  192SAPI  H10Y22295   5.682   2.606   4.837 -0.3846 -0.3701 -0.1607
  192SAPI  C31122296   5.517   2.578   4.973 -0.2629 -0.0638  0.3335
  192SAPI  H11X22297   5.516   2.467   4.975  3.3545 -0.3377 -2.3402
  192SAPI  H11Y22298   5.422   2.634   4.985  0.9065  1.8345  1.2480
  192SAPI  C31222299   5.601   2.623   5.092 -0.3502 -0.3141  0.0609
  192SAPI  H12X22300   5.617   2.732   5.108 -2.0800  0.1431 -1.0036
  192SAPI  H12Y22301   5.700   2.579   5.068  0.0020  0.4118  0.1614
  192SAPI  C31322302   5.565   2.561   5.234 -0.2897  0.1810  0.0364
  192SAPI  H13X22303   5.568   2.453   5.209  1.2505  0.6579 -2.2556
  192SAPI  H13Y22304   5.473   2.602   5.279  0.2921  0.7407  0.7388
  192SAPI  C31422305   5.670   2.602   5.336  0.8740  0.3821 -0.3300
  192SAPI  H14X22306   5.664   2.708   5.368  0.0221  0.3316 -0.3238
  192SAPI  H14Y22307   5.770   2.596   5.288  1.1426  1.1565  0.1239
  192SAPI  C31522308   5.652   2.516   5.469 -0.1533 -0.2743  0.1378
  192SAPI  H15X22309   5.638   2.409   5.440  2.4423 -1.3071  2.2278
  192SAPI  H15Y22310   5.565   2.561   5.521  1.8306  2.5089  1.2966
  192SAPI  C31622311   5.761   2.536   5.584  0.0189  0.8301 -0.2688
  192SAPI  H16X22312   5.863   2.534   5.539  1.7078  0.2084  3.2403
  192SAPI  H16Y22313   5.750   2.449   5.652  0.0803  0.5777 -0.5804
  192SAPI  C31722314   5.740   2.669   5.665 -0.7830  0.4863  0.4037
  192SAPI  H17X22315   5.756   2.754   5.596  1.2532 -0.4529 -0.3507
  192SAPI  H17Y22316   5.826   2.673   5.735 -0.9286 -1.4940  0.7622
  192SAPI  C31822317   5.605   2.688   5.741  0.1670  0.2623  0.0085
  192SAPI  H18X22318   5.560   2.770   5.682 -0.2013  1.3976  1.7767
  192SAPI  H18Y22319   5.620   2.724   5.845  1.0391 -2.1832  0.7919
  192SAPI  H18Z22320   5.533   2.604   5.744  1.2208 -0.6940  3.9528
  193SOD    SOD22321   3.463   2.236   2.588  0.0223  0.1657 -0.4571
  194SOD    SOD22322   2.479   4.514   1.914  0.4328 -0.3932 -0.1357
  195SOD    SOD22323   1.201   2.487   1.466  0.2654 -0.6219 -0.3507
  196SOD    SOD22324   5.004   3.405   3.510  0.3980 -0.4976 -0.5319
  197SOD    SOD22325   1.639   2.934   8.760  0.1527 -0.6755  0.5114
  198SOD    SOD22326   5.357   4.031   1.938 -0.1978  0.4895  0.1194
  199SOD    SOD22327   2.481   2.700   1.119  0.0035 -0.3442  0.2919
  200SOD    SOD22328   2.116   3.922   8.802 -0.3664 -0.2709 -0.0747
  201SOD    SOD22329   0.709   5.276   8.756 -0.1566  0.3727  0.1359
  202SOD    SOD22330   3.603   6.186   8.710 -0.0951 -0.3118 -0.0217
  203SOD    SOD22331   6.049   2.620   2.865  0.6568 -0.0985  0.2016
  204SOD    SOD22332   2.080   6.049   0.473  0.2666 -0.1996  0.4899
  205SOD    SOD22333   4.514   5.175   2.037 -0.5344 -0.0392 -0.1738
  206SOD    SOD22334   4.851   4.070   7.847 -0.0765  0.1439 -0.2488
  207SOD    SOD22335   0.399   1.946   8.037  0.7304 -0.2985 -0.1222
  208SOD    SOD22336   6.714   4.737   3.357 -0.0679  0.0830 -0.1247
  209SOD    SOD22337   2.120   0.059   7.453 -0.4157 -0.0014  0.0387
  210SOD    SOD22338   2.219   0.775   7.908 -0.0621  0.2682 -0.0028
  211SOD    SOD22339   2.214   1.912   1.105 -0.1677 -0.5092 -0.2322
  212SOD    SOD22340   3.337   6.121   3.055 -0.1073  0.0649  0.6400
  213SOD    SOD22341   2.169   6.436   0.026 -0.3886 -0.0009  0.2216
  214SOD    SOD22342   4.024   3.662   8.778 -0.7238  0.0208 -0.3692
  215SOD    SOD22343   4.630   6.088   2.425 -0.3583 -0.7327  0.1986
  216SOD    SOD22344   6.304   5.091   0.070 -0.2290  0.5961 -0.3431
  217SOD    SOD22345   2.915   1.177   2.864  0.6204 -0.7152 -0.6801
  218SOD    SOD22346   4.433   2.011   0.983 -0.0939 -0.0814 -0.5945
  219SOD    SOD22347   5.597   6.101   7.592 -0.0329 -0.5000  0.1457
  220SOD    SOD22348   3.771   6.133   0.777 -0.5230 -0.1697  0.3723
  221SOD    SOD22349   0.957   2.001   2.947  0.1313 -0.1671 -0.4490
  222SOD    SOD22350   3.674   2.003   1.441 -0.0263  0.0903  0.6645
  223SOD    SOD22351   2.205   1.787   3.152 -0.0560  0.1189  0.3081
  224SOD    SOD22352   2.628   6.357   7.568  0.1300  0.0966 -0.0475
  225SOD    SOD22353   5.889   3.293   8.520 -0.5583  0.7229  0.1341
  226SOD    SOD22354   3.102   5.599   0.641 -0.5569  0.1968  0.3680
  227SOD    SOD22355   0.693   2.167   0.972 -0.1652 -0.0337  0.0513
  228SOD    SOD22356   2.176   6.521   8.386 -0.1202  0.1724 -0.1901
  229SOD    SOD22357   2.885   3.774   2.781 -0.6151 -0.3323 -0.4709
  230CLA    CLA22358   5.901   3.123   9.069  0.2547  0.3462  0.6604
  231CLA    CLA22359   2.304   6.343   8.044 -0.0143  0.3004  0.4435
  232CLA    CLA22360   3.708   1.208   1.124 -0.5908  0.1250  0.0162
  233CLA    CLA22361   3.334   0.556   0.410 -0.2082 -0.0381 -0.0739
  234CLA    CLA22362   5.498   3.514   2.481  0.2569  0.0984  0.2666
  235CLA    CLA22363   1.395   1.228   0.880 -0.0560 -0.1552  0.0873
  236CLA    CLA22364   2.550   6.162   8.597 -0.0665 -0.0708 -0.2154
  237CLA    CLA22365   4.961   6.543   0.051  0.0439  0.1285  0.0176
  238CLA    CLA22366   3.063   6.028   0.292  0.3225  0.1644 -0.2628
  239CLA    CLA22367   6.233   1.849   8.856  0.2598 -0.0815  0.1598
  240CLA    CLA22368   1.533   2.251   0.153  0.1929  0.2876  0.2123
  241CLA    CLA22369   4.303   0.469   1.671 -0.1786  0.1257 -0.2206
  242CLA    CLA22370   5.157   3.609   1.340 -0.2847  0.1276 -0.2557
  243CLA    CLA22371   3.138   1.699   2.567  0.1765  0.0490 -0.2282
  244CLA    CLA22372   1.616   5.886   2.570 -0.0477  0.1240 -0.1415
  245CLA    CLA22373   2.628   3.696   0.532 -0.1379  0.2507  0.1220
  246CLA    CLA22374   0.459   4.577   1.717  0.2726  0.0736 -0.2656
  247TIP3   OH222375   4.464   4.815   2.494 -0.3406 -0.5179  0.1006
  247TIP3    H122376   4.404   4.888   2.511  1.0406  0.7211 -0.1859
  247TIP3    H222377   4.533   4.826   2.559  0.7394 -0.5801 -1.0073
  248TIP3   OH222378   4.005   0.559   9.033 -0.0326 -0.2545  0.4875
  248TIP3    H122379   4.060   0.609   9.093 -1.3247  1.7281  0.1293
  248TIP3    H222380   3.915   0.581   9.058 -0.6204  0.0315 -1.6190
  249TIP3   OH222381   3.761   5.622   1.218 -0.1015 -1.0031 -0.2249
  249TIP3    H122382   3.692   5.676   1.180  0.4937  0.3899  0.6424
  249TIP3    H222383   3.841   5.650   1.173 -0.0437 -2.5114 -1.1292
  250TIP3   OH222384   0.149   0.721   9.079 -0.5721  0.4820  0.0756
  250TIP3    H122385   0.163   0.773   9.000 -1.4926  0.4418 -0.1286
  250TIP3    H222386   0.055   0.706   9.081 -0.4555 -0.2213  0.7417
  251TIP3   OH222387   6.084   0.270   1.097  0.1224  0.2210  0.2152
  251TIP3    H122388   6.156   0.257   1.035 -1.2709  0.3962 -1.5542
  251TIP3    H222389   6.008   0.287   1.041 -0.9418  1.8599  2.0352
  252TIP3   OH222390   0.446   2.536   1.359  0.2477  0.5141 -0.0918
  252TIP3    H122391   0.516   2.586   1.318 -0.5709  2.3193  0.6046
  252TIP3    H222392   0.454   2.555   1.452 -0.5720 -0.0290  0.1048
  253TIP3   OH222393   3.665   6.465   1.045 -0.8570  0.1631  0.2957
  253TIP3    H122394   3.739   6.455   1.104 -1.0841  0.9074  0.7081
  253TIP3    H222395   3.652   6.559   1.037 -2.0901  0.0481  0.6475
  254TIP3   OH222396   4.203   4.748   1.047  0.1530  0.0609  0.3240
  254TIP3    H122397   4.295   4.735   1.026  0.0843  0.0195  0.0407
  254TIP3    H222398   4.161   4.762   0.962 -0.2081 -0.5811  0.3962
  255TIP3   OH222399   0.534   1.029   2.280 -0.6557  0.4088  0.0590
  255TIP3    H122400   0.442   1.058   2.278 -0.8018  0.7097  3.8310
  255TIP3    H222401   0.580   1.100   2.323  1.7223  0.7692 -2.7431
  256TIP3   OH222402   1.466   1.416   8.265  0.6639  0.5858  0.4942
  256TIP3    H122403   1.424   1.500   8.246 -0.0661 -0.0226 -0.6149
  256TIP3    H222404   1.560   1.435   8.259  0.4976  1.0766 -0.9008
  257TIP3   OH222405   0.811   1.279   8.407 -0.2590  0.2423 -0.5584
  257TIP3    H122406   0.727   1.234   8.412 -1.1741  1.7537 -1.2795
  257TIP3    H222407   0.789   1.371   8.424  1.2450  0.6658 -0.7920
  258TIP3   OH222408   2.617   2.561   8.741  0.3633 -0.0116 -0.0792
  258TIP3    H122409   2.705   2.554   8.778 -0.2873  0.7510  1.7027
  258TIP3    H222410   2.600   2.655   8.737  0.6143  0.0107 -2.9855
  259TIP3   OH222411   2.849   4.356   1.637  0.1071 -0.1109 -0.0222
  259TIP3    H122412   2.875   4.357   1.545  1.0878 -1.5276  0.1948
  259TIP3    H222413   2.891   4.433   1.675  0.0135  0.2684 -0.6850
  260TIP3   OH222414   4.165   6.544   2.883  0.1677  0.3544 -0.4461
  260TIP3    H122415   4.211   6.562   2.801  1.4600  0.4540  0.2728
  260TIP3    H222416   4.189   6.617   2.940  1.0423 -0.7924  0.7197
  261TIP3   OH222417   0.167   1.350   0.302 -0.2321  0.1537  0.3035
  261TIP3    H122418   0.237   1.285   0.311  0.6136  1.2146  1.9077
  261TIP3    H222419   0.100   1.322   0.364  0.3047  0.9777  1.2872
  262TIP3   OH222420   6.434   5.506   8.697  0.6970  0.0529  0.8218
  262TIP3    H122421   6.348   5.473   8.723  0.6757  0.5368  1.3956
  262TIP3    H222422   6.436   5.595   8.732  1.7002 -0.1907  1.3971
  263TIP3   OH222423   2.720   4.260   7.621  0.5472  0.1011  0.1263
  263TIP3    H122424   2.740   4.280   7.529 -0.3161 -0.2638 -0.1548
  263TIP3    H222425   2.766   4.178   7.638  1.5039  0.6576  0.3288
  264TIP3   OH222426   2.224   5.548   9.084 -0.0877  0.5582 -0.0492
  264TIP3    H122427   2.281   5.520   9.155  0.3626  0.5977 -0.3921
  264TIP3    H222428   2.217   5.470   9.028 -0.1427  0.6383 -0.1530
  265TIP3   OH222429   1.918   3.558   0.776  0.0144 -0.3100  0.1061
  265TIP3    H122430   1.978   3.617   0.730  0.0611  0.7823  1.4890
  265TIP3    H222431   1.909   3.597   0.863 -0.2422 -2.1827  0.9544
  266TIP3   OH222432   1.624   0.515   7.697  0.6998 -0.0921 -0.2417
  266TIP3    H122433   1.583   0.468   7.770 -1.6818  0.6460 -1.0319
  266TIP3    H222434   1.632   0.450   7.628  2.5282 -0.6682  0.4346
  267TIP3   OH222435   2.114   4.377   0.394 -0.0128  0.3645  0.3473
  267TIP3    H122436   2.153   4.386   0.307  0.0418  2.7747  0.5662
  267TIP3    H222437   2.172   4.316   0.439  1.5152  1.1422 -0.4792
  268TIP3   OH222438   1.528   2.441   2.912 -0.1413 -0.8786  0.0479
  268TIP3    H122439   1.604   2.403   2.956 -0.3989 -1.4509  0.0075
  268TIP3    H222440   1.560   2.464   2.825  0.2348 -0.2224  0.3504
  269TIP3   OH222441   5.527   0.906   8.738  0.3105 -0.7293  0.5224
  269TIP3    H122442   5.505   0.985   8.689  1.3136 -1.1233 -0.6093
  269TIP3    H222443   5.482   0.835   8.693  2.9049 -1.3980 -1.2183
  270TIP3   OH222444   3.523   3.244   0.365  0.2745 -0.9186  0.2533
  270TIP3    H122445   3.606   3.197   0.358  0.4051 -0.6021 -0.3945
  270TIP3    H222446   3.540   3.314   0.429  0.3738 -1.1324  0.4607
  271TIP3   OH222447   2.970   3.991   1.016  0.6906  0.1331 -0.4115
  271TIP3    H122448   3.000   4.029   0.934  2.4539  1.6075  0.8488
  271TIP3    H222449   2.889   4.040   1.037  0.8266  0.5038 -0.7453
  272TIP3   OH222450   1.485   3.996   0.711 -0.1349  0.0163 -0.1577
  272TIP3    H122451   1.497   3.983   0.805 -1.5732  0.7480  0.1660
  272TIP3    H222452   1.548   3.937   0.670  2.5865  1.7454  1.2299
  273TIP3   OH222453   1.742   0.932   0.176  0.0692  0.2536 -0.4063
  273TIP3    H122454   1.718   0.871   0.107  0.8754 -0.7286  0.1564
  273TIP3    H222455   1.737   0.880   0.256  0.5023  1.0021  0.1157
  274TIP3   OH222456   5.500   0.326   7.979  0.4829  0.2589 -0.4225
  274TIP3    H122457   5.507   0.374   7.897  0.9942 -0.0502 -0.5604
  274TIP3    H222458   5.411   0.291   7.978  0.9347 -0.9135 -1.5060
  275TIP3   OH222459   2.686   3.634   0.128  0.0837 -0.4055  0.2302
  275TIP3    H122460   2.780   3.628   0.141 -0.0939 -1.7319  1.1001
  275TIP3    H222461   2.648   3.624   0.215 -0.8785 -0.9771 -0.2294
  276TIP3   OH222462   3.841   5.002   0.702 -0.4625 -0.3797 -0.5375
  276TIP3    H122463   3.857   5.078   0.646  1.1260 -0.2136  0.0900
  276TIP3    H222464   3.865   4.927   0.648 -0.2974 -0.3125 -0.5577
  277TIP3   OH222465   3.431   5.906   0.830  0.0001 -0.4033  0.2397
  277TIP3    H122466   3.372   5.853   0.775 -1.5477  0.3298  1.1209
  277TIP3    H222467   3.438   5.990   0.784  1.2034 -0.8129 -0.3676
  278TIP3   OH222468   6.207   0.396   2.823 -0.1742 -0.6465 -0.2076
  278TIP3    H122469   6.198   0.488   2.850  0.1547 -1.1191  1.7242
  278TIP3    H222470   6.294   0.391   2.782  0.0706 -0.2017  0.2413
  279TIP3   OH222471   2.813   4.461   1.376 -0.8628  0.0772  0.6873
  279TIP3    H122472   2.824   4.556   1.388 -0.7388  0.2464 -0.5464
  279TIP3    H222473   2.760   4.454   1.297 -0.0734 -0.8927  0.2225
  280TIP3   OH222474   2.827   4.690   2.733 -0.5454 -0.1493  0.8557
  280TIP3    H122475   2.760   4.754   2.759  0.5756  0.6379  1.9299
  280TIP3    H222476   2.837   4.703   2.638  0.9642  2.6390  1.3034
  281TIP3   OH222477   0.197   0.574   2.729 -0.4460  0.3582  0.7186
  281TIP3    H122478   0.214   0.503   2.667 -1.4524 -0.7692  1.6660
  281TIP3    H222479   0.168   0.647   2.675 -1.3330 -0.6052 -0.1624
  282TIP3   OH222480   5.107   6.053   1.994 -0.0658  0.2031 -0.0630
  282TIP3    H122481   5.184   6.001   2.018 -0.0459  0.1170 -0.3092
  282TIP3    H222482   5.055   5.995   1.938  0.0291  0.4943 -0.4594
  283TIP3   OH222483   4.688   2.045   0.276 -0.6728 -0.4088 -0.4993
  283TIP3    H122484   4.744   2.074   0.348 -1.8621  0.5141  0.0763
  283TIP3    H222485   4.639   1.971   0.312 -1.0929 -0.0977 -0.4176
  284TIP3   OH222486   0.281   4.955   0.636  0.3350 -0.1772 -0.5323
  284TIP3    H122487   0.352   4.905   0.676  0.3396 -0.0971 -0.4391
  284TIP3    H222488   0.324   5.026   0.590  0.2192  1.1537  1.3248
  285TIP3   OH222489   5.459   4.205   0.768  0.5827  0.4019  0.6602
  285TIP3    H122490   5.464   4.119   0.727  0.5150  0.7232 -0.0288
  285TIP3    H222491   5.530   4.205   0.833  0.8542 -0.0148  0.3645
  286TIP3   OH222492   5.770   2.610   0.417  0.0770 -0.1376  0.1457
  286TIP3    H122493   5.850   2.562   0.440  1.0820  1.7758  0.9621
  286TIP3    H222494   5.795   2.702   0.428 -3.0217  0.5455  3.2985
  287TIP3   OH222495   3.357   4.801   0.334  0.5237 -0.1938 -0.0228
  287TIP3    H122496   3.386   4.865   0.400 -3.5421  0.9878  0.9561
  287TIP3    H222497   3.317   4.731   0.385 -0.2133 -0.6599 -1.1992
  288TIP3   OH222498   1.876   0.020   7.116 -0.4274  0.8891 -0.1076
  288TIP3    H122499   1.819   0.044   7.043  0.0173 -1.5641 -1.3440
  288TIP3    H222500   1.834  -0.055   7.156  0.8621  0.3452  0.2803
  289TIP3   OH222501   5.813   5.961   3.535  0.0966  0.8007 -0.6974
  289TIP3    H122502   5.827   6.029   3.601 -2.4649  1.7846 -1.0775
  289TIP3    H222503   5.731   5.985   3.492 -2.0739 -3.4797  0.4777
  290TIP3   OH222504   4.537   2.631   8.466 -0.7569 -0.2840 -0.2580
  290TIP3    H122505   4.585   2.563   8.513 -0.7325 -0.2525 -0.2367
  290TIP3    H222506   4.456   2.643   8.515 -1.4840 -1.4100 -1.1291
  291TIP3   OH222507   5.369   4.537   0.120 -0.2242  0.4439  0.1208
  291TIP3    H122508   5.399   4.450   0.095 -0.0907  1.3983 -3.6940
  291TIP3    H222509   5.335   4.526   0.209  0.6961 -3.2201  0.1930
  292TIP3   OH222510   1.923   0.180   1.041  0.5023 -0.0942  0.0523
  292TIP3    H122511   1.918   0.087   1.064 -0.3577  0.3321  1.7436
  292TIP3    H222512   1.834   0.212   1.052  0.4196  0.6101 -2.1972
  293TIP3   OH222513   6.357   0.527   1.163 -0.0581 -0.3447 -0.5518
  293TIP3    H122514   6.448   0.527   1.193  0.0248 -1.0829 -0.7878
  293TIP3    H222515   6.362   0.507   1.070 -0.4510 -0.1815 -0.6091
  294TIP3   OH222516   3.968   5.664   1.030  0.1273 -0.3878 -0.6994
  294TIP3    H122517   4.004   5.749   1.052  0.0688 -0.4925 -0.1931
  294TIP3    H222518   4.037   5.602   1.051  1.4159 -0.2730 -3.9783
  295TIP3   OH222519   2.226   2.978   9.068  0.2358  0.4771 -0.4080
  295TIP3    H122520   2.149   2.931   9.098  0.4087  0.4104 -0.0629
  295TIP3    H222521   2.191   3.054   9.022 -0.0449 -0.0666 -1.1100
  296TIP3   OH222522   2.637   0.389   2.994  0.2844 -0.3072 -0.6732
  296TIP3    H122523   2.594   0.304   2.995 -1.1471  0.3547 -2.3158
  296TIP3    H222524   2.566   0.452   2.985  0.8182  1.4962  4.2819
  297TIP3   OH222525   0.819   0.828   2.619 -0.1954  0.0865  0.2670
  297TIP3    H122526   0.760   0.752   2.619 -0.0929  0.0039  1.1058
  297TIP3    H222527   0.872   0.818   2.698 -0.1492  1.0182  0.3619
  298TIP3   OH222528   1.860   4.506   7.312  0.4126  0.0754  0.4235
  298TIP3    H122529   1.943   4.526   7.355  0.5669 -0.3406  0.3252
  298TIP3    H222530   1.805   4.470   7.381 -0.3280  2.0204  0.9062
  299TIP3   OH222531   2.594   5.165   1.532 -0.0077  0.8815  0.1467
  299TIP3    H122532   2.565   5.256   1.539 -0.2612  0.9034 -0.9527
  299TIP3    H222533   2.690   5.171   1.534 -0.0082  1.2424 -0.5127
  300TIP3   OH222534   2.746   5.588   2.388 -0.2687 -0.6464  0.4072
  300TIP3    H122535   2.723   5.670   2.345 -0.3892 -0.1934  1.3034
  300TIP3    H222536   2.662   5.550   2.415 -0.3437 -1.8947 -1.4255
  301TIP3   OH222537   5.554   6.438   2.355  1.0984 -0.2762  0.1795
  301TIP3    H122538   5.601   6.407   2.432  1.0583  0.8289  0.6653
  301TIP3    H222539   5.611   6.505   2.318 -0.0757  1.1047  0.7972
  302TIP3   OH222540   3.514   3.613   2.690 -0.1910 -0.1863 -0.1789
  302TIP3    H122541   3.508   3.642   2.599 -0.9265  0.1808 -0.0258
  302TIP3    H222542   3.446   3.664   2.736 -0.4274 -1.0017  0.4002
  303TIP3   OH222543   3.517   3.953   1.398 -0.1518 -0.1848 -0.2151
  303TIP3    H122544   3.550   4.017   1.461 -0.2314 -3.1905  3.1790
  303TIP3    H222545   3.434   3.989   1.368 -0.2891  1.2430  1.7000
  304TIP3   OH222546   2.074   1.574   8.116 -0.2062  0.1520 -0.0648
  304TIP3    H122547   2.155   1.611   8.081 -0.0116  0.1639  0.3882
  304TIP3    H222548   2.022   1.650   8.143 -0.7356  0.1844 -1.1325
  305TIP3   OH222549   1.091   0.961   8.144 -0.4228  0.1393 -0.8152
  305TIP3    H122550   1.057   1.018   8.075 -1.8097 -0.8622 -0.9960
  305TIP3    H222551   1.019   0.952   8.205  1.0516  1.7472  1.3248
  306TIP3   OH222552   6.189   0.818   9.058  0.1259  0.4701  0.3005
  306TIP3    H122553   6.221   0.755   8.993 -1.6092 -0.3458  0.1810
  306TIP3    H222554   6.134   0.766   9.116 -2.8292  2.1124 -0.8255
  307TIP3   OH222555   4.113   3.555   7.898  0.2358 -0.0750 -0.0364
  307TIP3    H122556   4.183   3.533   7.837 -1.2567 -0.8421 -1.5500
  307TIP3    H222557   4.120   3.489   7.967  1.2725  0.1534  0.1045
  308TIP3   OH222558   0.560   1.830   7.858  0.4385 -0.3634 -0.1460
  308TIP3    H122559   0.580   1.767   7.789  3.8115  0.8459 -0.4488
  308TIP3    H222560   0.625   1.900   7.847 -0.5144  1.1459  2.7046
  309TIP3   OH222561   1.980   0.755   0.508 -0.1715 -0.1538  0.5700
  309TIP3    H122562   2.026   0.794   0.582 -2.2290 -0.1599  1.9032
  309TIP3    H222563   1.990   0.661   0.520 -1.1333 -0.1731  1.2766
  310TIP3   OH222564   4.382   1.551   0.961 -0.0266  0.0539  0.0281
  310TIP3    H122565   4.426   1.561   0.877 -0.9475 -1.2578 -0.6330
  310TIP3    H222566   4.409   1.464   0.991  1.2149  0.9374  1.6764
  311TIP3   OH222567   4.623   0.294   8.877  0.4895  0.1880 -0.0499
  311TIP3    H122568   4.591   0.372   8.832  1.7461  0.6676 -0.1554
  311TIP3    H222569   4.574   0.292   8.959  0.0398  0.7717 -0.3008
  312TIP3   OH222570   0.435   5.795   8.197 -0.7050  0.4844 -0.1496
  312TIP3    H122571   0.381   5.717   8.208 -1.3888  0.8283 -0.9621
  312TIP3    H222572   0.392   5.846   8.128  1.7125 -0.1902 -2.3578
  313TIP3   OH222573   3.841   5.026   8.877 -0.2728 -0.0288  0.3738
  313TIP3    H122574   3.799   5.109   8.897  1.6088  1.2821 -0.8255
  313TIP3    H222575   3.770   4.961   8.883 -2.6151  2.0809 -2.0400
  314TIP3   OH222576   6.533   0.402   3.532  0.7512  0.3752  0.3976
  314TIP3    H122577   6.490   0.435   3.611  1.8588  2.1924  0.2946
  314TIP3    H222578   6.517   0.470   3.466  0.6859 -0.6506 -0.6704
  315TIP3   OH222579   4.238   2.957   8.764 -0.2448  0.5624  0.2589
  315TIP3    H122580   4.331   2.935   8.772 -0.1381  0.5894 -0.6965
  315TIP3    H222581   4.196   2.875   8.739 -0.7263  0.2098  2.0832
  316TIP3   OH222582   6.472   3.068   2.066 -0.1738  0.1121  0.0703
  316TIP3    H122583   6.417   3.061   1.988  0.8739  2.6282 -0.9836
  316TIP3    H222584   6.411   3.059   2.139 -2.0137  2.3465 -1.0506
  317TIP3   OH222585   1.299   2.484   1.262 -0.4031  0.0697 -0.0733
  317TIP3    H122586   1.336   2.559   1.215 -0.8590 -0.1424 -0.7850
  317TIP3    H222587   1.321   2.408   1.208 -1.2454 -0.1402 -0.1304
  318TIP3   OH222588   5.308   0.983   2.290  0.7462 -0.1152  0.3441
  318TIP3    H122589   5.227   0.976   2.239  1.4266 -0.2322 -0.7395
  318TIP3    H222590   5.313   1.075   2.315  0.4495 -0.0425  0.1356
  319TIP3   OH222591   4.496   0.773   2.230 -0.3134  0.5828 -0.1700
  319TIP3    H122592   4.533   0.833   2.295 -0.8036  0.8588 -0.1461
  319TIP3    H222593   4.567   0.759   2.168  1.1000 -1.7087  1.7669
  320TIP3   OH222594   0.336   0.690   1.663 -0.1890  0.7238  0.6562
  320TIP3    H122595   0.380   0.738   1.593  0.6122  3.1632  2.6351
  320TIP3    H222596   0.407   0.665   1.723 -0.9649 -0.1102  1.2532
  321TIP3   OH222597   6.412   2.554   2.482  0.0882 -0.3837  0.5015
  321TIP3    H122598   6.470   2.512   2.419  2.1258 -0.4281  2.3228
  321TIP3    H222599   6.400   2.490   2.551 -0.6346  0.3315  1.0664
  322TIP3   OH222600   5.402   0.847   0.604 -0.4441 -0.1663  0.9898
  322TIP3    H122601   5.459   0.771   0.613  0.8307  0.8642  2.2151
  322TIP3    H222602   5.460   0.918   0.577 -1.8285  0.1347 -1.4675
  323TIP3   OH222603   4.342   3.306   0.360 -0.0214 -0.3683 -0.3025
  323TIP3    H122604   4.437   3.301   0.356  0.0296  0.4428 -0.2271
  323TIP3    H222605   4.312   3.251   0.288  0.5378  0.6277 -1.3172
  324TIP3   OH222606   3.811   2.356   8.897  0.0827 -0.4270 -0.1823
  324TIP3    H122607   3.741   2.417   8.919 -0.5475 -0.6554 -1.4974
  324TIP3    H222608   3.820   2.363   8.802  1.0182 -1.2899 -0.1653
  325TIP3   OH222609   2.064   0.593   0.840  0.0624 -0.1281  0.3226
  325TIP3    H122610   2.035   0.511   0.881 -0.5770  0.6143  1.4101
  325TIP3    H222611   2.135   0.567   0.781  1.2121 -1.2424  2.0893
  326TIP3   OH222612   5.542   4.634   3.039  0.3829 -0.1707 -0.2129
  326TIP3    H122613   5.585   4.714   3.068  1.0626 -0.7534  0.4222
  326TIP3    H222614   5.614   4.575   3.018 -0.0747 -1.2603  1.1356
  327TIP3   OH222615   1.147   6.361   1.104 -0.1514  0.0377 -0.5424
  327TIP3    H122616   1.177   6.450   1.121 -0.3873  0.1684 -0.8192
  327TIP3    H222617   1.101   6.335   1.184  0.6286 -0.1366 -0.1398
  328TIP3   OH222618   3.007   1.154   8.545  0.0932 -0.5654 -0.0865
  328TIP3    H122619   2.968   1.230   8.503 -1.4670 -0.9545  0.5923
  328TIP3    H222620   2.990   1.166   8.638 -1.0242 -2.1669 -0.0383
  329TIP3   OH222621   2.984   4.604   1.634 -0.0082  0.4537 -0.1455
  329TIP3    H122622   2.966   4.692   1.600  0.3360  0.6950  0.2806
  329TIP3    H222623   3.079   4.593   1.624 -0.0848  0.0339 -0.4174
  330TIP3   OH222624   0.701   4.654   1.011  0.2083 -0.2356  0.1055
  330TIP3    H122625   0.726   4.648   1.103  0.3360  2.3542  0.3207
  330TIP3    H222626   0.782   4.674   0.965  0.5365 -3.5111 -0.9448
  331TIP3   OH222627   3.520   2.497   7.311  0.5872  0.5178 -0.0028
  331TIP3    H122628   3.600   2.454   7.341 -0.4216 -1.2641  0.2240
  331TIP3    H222629   3.453   2.470   7.373 -0.5929  0.4178 -1.2728
  332TIP3   OH222630   0.951   4.270   1.487  0.3542 -0.1226  0.4527
  332TIP3    H122631   1.016   4.216   1.531  1.9443  0.9015 -0.5584
  332TIP3    H222632   0.998   4.350   1.464 -1.3276  0.7373 -0.1310
  333TIP3   OH222633   6.359   4.955   8.322  0.7431  0.0433  0.1004
  333TIP3    H122634   6.434   4.949   8.262  0.7373  1.4853 -0.1070
  333TIP3    H222635   6.299   5.015   8.277 -1.7914 -3.0281 -0.9941
  334TIP3   OH222636   0.545   2.653   0.514 -0.2922 -0.1589  0.4004
  334TIP3    H122637   0.534   2.562   0.488 -0.7494 -0.9339  3.0347
  334TIP3    H222638   0.636   2.674   0.491 -0.6889 -0.6138 -1.8800
  335TIP3   OH222639   1.055   2.252   8.377 -0.2967 -0.1647  0.0537
  335TIP3    H122640   1.098   2.206   8.306  1.0776 -3.2417  2.6455
  335TIP3    H222641   1.125   2.279   8.436 -1.4755  0.4667  1.2515
  336TIP3   OH222642   1.450   3.227   1.747  0.0557  0.1400 -0.4799
  336TIP3    H122643   1.367   3.231   1.793  0.3748  2.1583 -0.0035
  336TIP3    H222644   1.510   3.280   1.800  1.7720 -1.5497 -0.6071
  337TIP3   OH222645   2.360   0.317   3.084  0.7240 -0.4570  0.0578
  337TIP3    H122646   2.393   0.229   3.067  2.4024 -0.0896  1.1865
  337TIP3    H222647   2.377   0.332   3.177 -0.2100  0.7959  0.0542
  338TIP3   OH222648   1.428   1.656   1.796  0.0242 -0.5528  0.0198
  338TIP3    H122649   1.370   1.599   1.846 -0.1972  0.1485  0.5863
  338TIP3    H222650   1.514   1.643   1.836 -0.2694  0.5053  1.0729
  339TIP3   OH222651   3.152   3.985   1.740  0.0701  0.0358  0.4559
  339TIP3    H122652   3.075   4.021   1.784 -0.4390 -1.1864  0.6219
  339TIP3    H222653   3.146   4.017   1.650 -0.4436  0.2248  0.5555
  340TIP3   OH222654   4.492   3.600   8.808  0.1826  0.2745 -0.0731
  340TIP3    H122655   4.474   3.651   8.887 -0.2283 -0.4366  0.3073
  340TIP3    H222656   4.533   3.662   8.748 -1.8135  1.5259 -0.2597
  341TIP3   OH222657   4.549   3.646   3.033 -0.0463 -0.5772  0.8756
  341TIP3    H122658   4.530   3.688   2.949  0.0598 -0.7744  0.7517
  341TIP3    H222659   4.624   3.590   3.015  0.0834 -0.4933  1.1429
  342TIP3   OH222660   0.947   2.466   0.207 -0.4098  0.3942 -0.4123
  342TIP3    H122661   1.014   2.524   0.244 -1.4160  1.1028  0.3643
  342TIP3    H222662   0.883   2.526   0.168 -0.9190 -0.2431 -0.5665
  343TIP3   OH222663   1.367   5.799   7.243  0.5106 -0.1762 -0.3617
  343TIP3    H122664   1.416   5.794   7.325 -0.6480 -1.9091  0.2826
  343TIP3    H222665   1.333   5.889   7.241  1.1589  0.1123  0.6772
  344TIP3   OH222666   2.950   0.418   7.859  0.0902 -0.2521 -0.7712
  344TIP3    H122667   2.905   0.485   7.809 -0.9836 -0.0696  0.3857
  344TIP3    H222668   3.015   0.466   7.911 -0.6318 -0.0935  0.0054
  345TIP3   OH222669   0.684   4.779   8.696 -0.0338  0.1341  0.8272
  345TIP3    H122670   0.746   4.788   8.768 -0.0301 -0.4753  0.9043
  345TIP3    H222671   0.707   4.849   8.635  0.1112  0.5092  1.3083
  346TIP3   OH222672   4.823   1.918   8.260  0.2007 -0.3716 -0.4173
  346TIP3    H122673   4.862   1.834   8.286 -0.0415 -0.1046  0.8903
  346TIP3    H222674   4.895   1.967   8.221  0.1809 -1.4427 -1.8562
  347TIP3   OH222675   4.361   0.141   8.667 -0.0982  0.2921 -0.1353
  347TIP3    H122676   4.428   0.084   8.705 -0.3471 -0.2490 -0.5087
  347TIP3    H222677   4.342   0.104   8.581 -1.4623 -0.0422  0.2803
  348TIP3   OH222678   6.501   5.348   1.311 -0.2146  0.3727 -0.4610
  348TIP3    H122679   6.442   5.362   1.386 -1.3442 -0.9290 -1.0797
  348TIP3    H222680   6.578   5.306   1.349  0.4008  2.1457  0.3684
  349TIP3   OH222681   5.237   1.991   1.909  0.0102 -0.5753  0.0775
  349TIP3    H122682   5.156   2.020   1.868  0.1492 -1.0080 -0.5288
  349TIP3    H222683   5.269   1.921   1.852  1.8797  0.9502 -0.8367
  350TIP3   OH222684   0.774   0.094   8.866  0.5843 -0.4862 -0.2310
  350TIP3    H122685   0.745   0.146   8.791  2.8208  0.2421 -0.6893
  350TIP3    H222686   0.857   0.055   8.837 -0.2673 -3.1289  0.6537
  351TIP3   OH222687   5.971   1.488   1.094 -0.1081 -0.4322  0.1887
  351TIP3    H122688   5.889   1.535   1.079  0.9283  2.4473  2.7190
  351TIP3    H222689   5.946   1.417   1.154 -0.7984  0.3364  0.8395
  352TIP3   OH222690   2.723   3.444   8.646 -0.1441 -0.6564 -0.0074
  352TIP3    H122691   2.745   3.534   8.670 -0.3425 -0.2426 -1.3149
  352TIP3    H222692   2.804   3.407   8.612 -0.7640  0.0808 -2.4815
  353TIP3   OH222693   4.588   4.531   0.548 -0.1762 -0.0755  0.2806
  353TIP3    H122694   4.605   4.586   0.624 -1.8384  2.5178 -1.0538
  353TIP3    H222695   4.671   4.529   0.500  0.1078  0.7034  0.7202
  354TIP3   OH222696   1.395   1.787   1.576  0.1686  0.2934  0.6080
  354TIP3    H122697   1.404   1.877   1.609 -1.3095  0.4504  0.6411
  354TIP3    H222698   1.418   1.732   1.651  0.4300  0.6402  0.7890
  355TIP3   OH222699   2.147   2.505   1.674  0.3311  0.0289  0.1445
  355TIP3    H122700   2.058   2.493   1.643  0.1057  0.4037  0.6299
  355TIP3    H222701   2.195   2.537   1.598  0.9880 -3.7706 -1.2660
  356TIP3   OH222702   5.778   6.363   8.972  0.4200  0.3452 -0.9490
  356TIP3    H122703   5.842   6.303   9.011  0.4649  1.6734  1.2179
  356TIP3    H222704   5.771   6.335   8.881  4.5872  0.4770 -1.5191
  357TIP3   OH222705   5.056   4.184   8.358 -0.2504 -0.0874  0.0704
  357TIP3    H122706   5.090   4.100   8.387  0.5413 -0.4575 -1.8361
  357TIP3    H222707   4.970   4.164   8.321  0.5473 -0.3579 -1.7489
  358TIP3   OH222708   0.553   0.321   0.701 -0.3578 -0.3543  0.1670
  358TIP3    H122709   0.580   0.327   0.610 -0.3383 -0.4494  0.1661
  358TIP3    H222710   0.616   0.261   0.741  0.1720  0.3893  0.4534
  359TIP3   OH222711   1.485   5.055   1.690  0.3848  0.0247  0.3470
  359TIP3    H122712   1.553   5.086   1.750  0.5860 -0.4283  0.3541
  359TIP3    H222713   1.416   5.021   1.748 -0.2640  1.3169  0.3681
  360TIP3   OH222714   4.202   0.267   0.647  0.1163 -0.2181 -0.8501
  360TIP3    H122715   4.137   0.321   0.693 -0.0544  0.5309 -1.9538
  360TIP3    H222716   4.239   0.212   0.716 -0.0992  0.9078  0.2059
  361TIP3   OH222717   2.600   3.521   8.956  0.4169  0.1027  0.0413
  361TIP3    H122718   2.620   3.565   9.039 -2.4039  0.9004  0.4024
  361TIP3    H222719   2.584   3.430   8.981 -0.4259  0.3406  0.4100
  362TIP3   OH222720   3.232   5.572   3.333  0.5625 -0.1117 -0.4069
  362TIP3    H122721   3.182   5.505   3.379  1.8232 -0.5363  0.3844
  362TIP3    H222722   3.278   5.620   3.402  2.6608 -0.8928 -1.1708
  363TIP3   OH222723   3.622   6.544   8.531 -0.3545 -0.3528 -0.1702
  363TIP3    H122724   3.603   6.599   8.608 -0.4797  0.6178 -0.8733
  363TIP3    H222725   3.558   6.571   8.466 -1.3241 -2.3290 -0.1006
  364TIP3   OH222726   2.581   5.133   8.081  0.2344 -0.4877  0.0895
  364TIP3    H122727   2.488   5.114   8.078 -0.0943  0.7612  1.4222
  364TIP3    H222728   2.604   5.155   7.990 -0.7848 -0.6869 -0.2229
  365TIP3   OH222729   5.276   5.732   1.328  0.2645 -0.1180 -0.0675
  365TIP3    H122730   5.333   5.694   1.395  0.5077  0.1317 -0.1318
  365TIP3    H222731   5.200   5.674   1.325  0.0020  0.1679  0.8084
  366TIP3   OH222732   1.006   4.205   8.127  0.5016 -0.4847 -0.8442
  366TIP3    H122733   1.004   4.297   8.101 -0.7250 -0.0831  0.5511
  366TIP3    H222734   1.071   4.165   8.068  0.7176  1.1542 -1.7828
  367TIP3   OH222735   5.086   0.022   7.863  0.2209  0.3991 -0.2316
  367TIP3    H122736   4.990   0.026   7.865  0.2185  0.1229  1.2759
  367TIP3    H222737   5.106  -0.071   7.853  0.3467  0.4342 -0.3098
  368TIP3   OH222738   3.727   1.881   2.341 -0.5387 -0.0469 -0.5084
  368TIP3    H122739   3.653   1.823   2.362 -0.8240  0.5152  0.0669
  368TIP3    H222740   3.770   1.838   2.266 -0.1464 -1.5162  0.5154
  369TIP3   OH222741   0.877   1.874   1.617  0.3558 -0.0191  0.2466
  369TIP3    H122742   0.875   1.964   1.584  1.3504 -0.2097 -0.3686
  369TIP3    H222743   0.967   1.845   1.604 -0.3619 -1.7556 -1.3015
  370TIP3   OH222744   1.120   3.669   9.080 -0.5570 -0.4371  0.2724
  370TIP3    H122745   1.049   3.721   9.117  0.6304  1.8740 -0.5214
  370TIP3    H222746   1.084   3.633   8.999 -1.2762 -0.5211  0.6218
  371TIP3   OH222747   5.627   3.491   8.910 -0.4303 -0.2663 -0.0636
  371TIP3    H122748   5.723   3.492   8.906 -0.4018  0.0467  0.6367
  371TIP3    H222749   5.602   3.582   8.897 -0.5593 -0.0850  1.3523
  372TIP3   OH222750   6.266   0.872   8.735  0.7029  0.1071  0.5175
  372TIP3    H122751   6.257   0.907   8.824  1.0515 -0.0696  0.6229
  372TIP3    H222752   6.335   0.924   8.696 -0.7858  1.5364 -0.3323
  373TIP3   OH222753   2.224   2.431   2.252  0.0795 -0.2875  0.1137
  373TIP3    H122754   2.176   2.352   2.227 -1.1137  0.1845  0.8633
  373TIP3    H222755   2.282   2.402   2.323 -1.2537 -0.2596  1.2594
  374TIP3   OH222756   1.165   6.679   3.007 -0.1248  0.1414 -0.1784
  374TIP3    H122757   1.153   6.741   3.080 -0.8837  0.6667 -0.7390
  374TIP3    H222758   1.236   6.622   3.037  0.1339  0.8528  0.6379
  375TIP3   OH222759   1.579   4.580   1.866  0.0268 -0.1335 -0.2736
  375TIP3    H122760   1.615   4.666   1.846  1.7129 -0.6091  0.5527
  375TIP3    H222761   1.600   4.527   1.789  1.6229 -0.5308  0.3868
  376TIP3   OH222762   4.810   5.118   8.216  0.2836  0.1658 -0.0987
  376TIP3    H122763   4.884   5.131   8.275  0.4152 -2.6480  0.4757
  376TIP3    H222764   4.849   5.087   8.134 -0.1658  0.3485 -0.3913
  377TIP3   OH222765   1.803   4.285   1.810 -0.0078  0.0771 -0.3863
  377TIP3    H122766   1.708   4.281   1.820 -0.0594  0.1812 -0.8017
  377TIP3    H222767   1.837   4.228   1.878 -0.4262 -1.0539 -1.0880
  378TIP3   OH222768   1.557   1.499   2.063  0.4079 -0.4700  0.0205
  378TIP3    H122769   1.580   1.463   2.148 -1.5478 -1.4550  0.2074
  378TIP3    H222770   1.498   1.572   2.082  1.7756  0.7974 -0.4582
  379TIP3   OH222771   1.924   0.290   0.067 -0.2409  0.0466  0.0958
  379TIP3    H122772   1.944   0.254  -0.019 -0.7119 -0.8711  0.3628
  379TIP3    H222773   1.832   0.269   0.082 -0.2002  0.3201  0.7637
  380TIP3   OH222774   6.272   5.078   2.324  0.0095 -0.4653  0.2743
  380TIP3    H122775   6.177   5.063   2.326  0.1082 -1.2429 -0.3293
  380TIP3    H222776   6.303   5.040   2.406 -0.2164 -0.0735  0.5442
  381TIP3   OH222777   4.685   0.137   3.325 -0.1276 -0.2667 -0.0446
  381TIP3    H122778   4.693   0.189   3.405  1.6595 -1.9559  0.9811
  381TIP3    H222779   4.597   0.099   3.330 -0.7923  1.2323  0.0590
  382TIP3   OH222780   5.248   0.127   0.321  0.1068 -0.0068 -0.3364
  382TIP3    H122781   5.179   0.114   0.256  0.7487 -0.9791 -0.8679
  382TIP3    H222782   5.295   0.043   0.322  0.1660  0.0293  1.3339
  383TIP3   OH222783   4.379   0.285   0.039  0.4376 -0.0514  0.1459
  383TIP3    H122784   4.288   0.305   0.061  0.8676  1.0214  1.0815
  383TIP3    H222785   4.423   0.370   0.040  0.8608 -0.0862 -3.4446
  384TIP3   OH222786   1.450   0.361   0.825  0.2973 -0.1393  0.9737
  384TIP3    H122787   1.435   0.449   0.860  0.0344 -0.1186  0.8137
  384TIP3    H222788   1.482   0.376   0.736  0.7185 -0.1973  1.1109
  385TIP3   OH222789   3.612   2.077   0.002  0.4963  0.3617  0.0520
  385TIP3    H122790   3.560   2.152   0.032  0.0009 -0.1336  0.4652
  385TIP3    H222791   3.591   2.007   0.065 -0.2501 -0.5969 -1.2178
  386TIP3   OH222792   5.924   3.099   0.293 -0.0384 -0.1780  0.2897
  386TIP3    H122793   5.891   3.084   0.205 -0.6628  0.5501  0.3885
  386TIP3    H222794   6.013   3.133   0.281  0.2083 -0.9181 -0.0211
  387TIP3   OH222795   3.865   6.093   8.458 -0.1803  0.0674  0.0044
  387TIP3    H122796   3.942   6.104   8.402  1.1531  0.9682  1.9158
  387TIP3    H222797   3.901   6.074   8.545 -2.1355  0.1445  0.8749
  388TIP3   OH222798   2.071   4.142   1.575  0.6299  0.8965 -0.0258
  388TIP3    H122799   2.051   4.075   1.640  0.4725  1.5214  0.5916
  388TIP3    H222800   1.985   4.175   1.548  0.7218  2.2349  1.1836
  389TIP3   OH222801   2.607   1.429   1.124 -0.1547  0.3562  0.6795
  389TIP3    H122802   2.538   1.440   1.058 -1.7853 -1.2743  2.0097
  389TIP3    H222803   2.654   1.350   1.096  0.4206  0.7632  0.4594
  390TIP3   OH222804   0.713   1.473   0.186  0.4769  0.5480 -0.0053
  390TIP3    H122805   0.620   1.451   0.185  0.2413  1.3715  1.2216
  390TIP3    H222806   0.738   1.478   0.094 -0.6592  0.2143 -0.3493
  391TIP3   OH222807   0.282   1.194   2.973  0.2394  0.3294 -0.0005
  391TIP3    H122808   0.263   1.281   2.940  0.8791  0.5100  0.1029
  391TIP3    H222809   0.257   1.197   3.065  1.7383  0.8930  0.4095
  392TIP3   OH222810   1.834   5.059   8.802  0.0811  0.3483 -0.7481
  392TIP3    H122811   1.802   5.036   8.888  1.9186  0.0885 -0.0790
  392TIP3    H222812   1.834   5.155   8.800  0.8484  0.3677 -0.1121
  393TIP3   OH222813   2.797   0.799   1.481 -0.1833  0.4673  0.4537
  393TIP3    H122814   2.819   0.835   1.567  1.6656 -0.3924  0.3739
  393TIP3    H222815   2.870   0.742   1.459 -0.4117  0.9700 -1.8820
  394TIP3   OH222816   1.370   6.019   3.022  0.1335 -0.2983  0.3625
  394TIP3    H122817   1.440   5.991   2.963  0.4958  1.0659  0.1139
  394TIP3    H222818   1.401   5.993   3.109  2.3848  2.7334  0.6516
  395TIP3   OH222819   0.035   3.351   1.094 -0.1199  0.0983  0.9015
  395TIP3    H122820  -0.010   3.329   1.176 -0.7712 -0.2487  0.4620
  395TIP3    H222821   0.006   3.284   1.033 -0.1140  0.7131  0.2181
  396TIP3   OH222822   6.297   0.884   1.927  0.2189 -0.4172  0.0480
  396TIP3    H122823   6.377   0.831   1.920 -1.2248 -2.6766 -0.5432
  396TIP3    H222824   6.280   0.913   1.838 -0.4140 -1.2209 -0.1000
  397TIP3   OH222825   5.430   2.712   2.735  0.3072 -0.1146 -0.2018
  397TIP3    H122826   5.365   2.646   2.761  0.3381 -0.7131 -1.5984
  397TIP3    H222827   5.514   2.673   2.757  0.3043  1.5362  3.7354
  398TIP3   OH222828   6.648   6.581   1.426 -0.3143 -0.1000  0.0228
  398TIP3    H122829   6.553   6.583   1.419 -0.3063 -1.3264 -0.7220
  398TIP3    H222830   6.675   6.512   1.366  1.2248  1.7988 -1.6450
  399TIP3   OH222831   1.275   2.138   0.030  0.1789  0.2408  0.4219
  399TIP3    H122832   1.236   2.064   0.078  1.1333  0.7595  2.0788
  399TIP3    H222833   1.360   2.151   0.072 -0.1592  2.5797  0.4858
  400TIP3   OH222834   0.287   0.349   0.621  0.5444  0.0154 -0.5255
  400TIP3    H122835   0.323   0.285   0.682  0.8287 -0.2309 -0.9399
  400TIP3    H222836   0.364   0.391   0.582  0.3633  0.3709 -0.5049
  401TIP3   OH222837   3.788   1.087   8.770  0.3698  0.2152 -0.4404
  401TIP3    H122838   3.772   1.148   8.842 -1.0287 -0.3340 -0.2585
  401TIP3    H222839   3.701   1.059   8.743  0.8890  0.0838 -2.0828
  402TIP3   OH222840   5.490   0.494   7.771 -0.1868 -0.5497  0.0956
  402TIP3    H122841   5.413   0.473   7.719 -1.2297  2.5033  0.1836
  402TIP3    H222842   5.556   0.521   7.708 -0.1293 -0.5468  0.1565
  403TIP3   OH222843   1.773   4.556   7.713  0.1532  0.1691 -0.0399
  403TIP3    H122844   1.865   4.569   7.734  0.1221  0.6301 -0.1820
  403TIP3    H222845   1.770   4.472   7.668  0.4203 -0.1337  0.4952
  404TIP3   OH222846   6.285   6.660   8.256 -0.2798 -0.1471  0.3256
  404TIP3    H122847   6.268   6.682   8.164  0.4934  0.4154  0.3053
  404TIP3    H222848   6.235   6.579   8.271 -1.9243  0.7470 -0.0574
  405TIP3   OH222849   0.514   4.112   0.943 -0.0209 -0.3871 -0.2522
  405TIP3    H122850   0.599   4.151   0.919  0.7145 -1.4237  0.5863
  405TIP3    H222851   0.469   4.181   0.992  0.8590 -0.2435  0.3745
  406TIP3   OH222852   0.275   6.276   1.870 -0.2519 -0.1014  0.3073
  406TIP3    H122853   0.302   6.366   1.848 -1.0403 -0.1022 -0.7963
  406TIP3    H222854   0.356   6.229   1.886  0.3348  0.2800 -1.3204
  407TIP3   OH222855   4.783   2.809   2.944 -0.8107  0.1772  0.9876
  407TIP3    H122856   4.694   2.843   2.959 -1.4714 -0.7966 -0.4663
  407TIP3    H222857   4.836   2.887   2.929 -1.9409  0.6954 -0.6072
  408TIP3   OH222858   1.118   0.998   1.807 -0.0171  0.0636 -0.2880
  408TIP3    H122859   1.086   1.071   1.754 -1.5368 -0.4438 -0.1128
  408TIP3    H222860   1.060   0.925   1.785  0.5889 -0.7045  0.5849
  409TIP3   OH222861   3.565   6.392   8.803 -0.4281  0.4669 -0.2840
  409TIP3    H122862   3.560   6.394   8.899  1.8707 -1.1886 -0.0441
  409TIP3    H222863   3.574   6.483   8.777 -0.1195  0.8729  1.1505
  410TIP3   OH222864   5.187   4.634   0.333  0.4457 -0.2296 -0.2599
  410TIP3    H122865   5.173   4.686   0.254  1.7797 -1.2859 -1.2425
  410TIP3    H222866   5.155   4.689   0.404 -1.5819  0.4151 -1.5997
  411TIP3   OH222867   1.293   5.182   8.981  0.0044 -0.3662  0.0069
  411TIP3    H122868   1.205   5.163   8.951 -0.6016  1.6224  0.3479
  411TIP3    H222869   1.324   5.252   8.923  1.4383 -1.1588 -0.2243
  412TIP3   OH222870   1.707   1.705   3.483  0.3656 -0.1388  0.2668
  412TIP3    H122871   1.642   1.702   3.554 -0.7413 -0.4608 -0.7337
  412TIP3    H222872   1.745   1.617   3.482  0.3587 -0.1442  0.4379
  413TIP3   OH222873   5.037   6.534   2.185 -0.4224 -0.1153  0.4001
  413TIP3    H122874   5.010   6.521   2.276 -2.6175  1.0389 -0.0071
  413TIP3    H222875   5.132   6.544   2.189 -0.2604 -1.8290  2.3210
  414TIP3   OH222876   1.564   4.568   0.685  0.3285 -0.0381 -0.0552
  414TIP3    H122877   1.629   4.502   0.664 -0.3184 -0.8095  0.3133
  414TIP3    H222878   1.480   4.526   0.664 -0.0411  1.0525 -0.8576
  415TIP3   OH222879   6.619   2.056   2.655 -0.5539  0.4428  0.2655
  415TIP3    H122880   6.610   2.057   2.750  0.3537 -1.3218  0.4131
  415TIP3    H222881   6.708   2.087   2.639 -0.6833  0.6762 -0.0064
  416TIP3   OH222882   3.685   4.030   8.661  0.1761  0.5052 -0.4586
  416TIP3    H122883   3.595   4.012   8.690 -0.4718 -1.1880 -3.0977
  416TIP3    H222884   3.740   3.975   8.717 -0.6633 -0.1013 -0.2114
  417TIP3   OH222885   0.402   5.420   1.185  0.2305  0.3120  0.1697
  417TIP3    H122886   0.308   5.428   1.200 -0.1626 -3.3297  0.5381
  417TIP3    H222887   0.441   5.426   1.272  0.0614 -0.3420  0.3015
  418TIP3   OH222888   6.508   2.682   3.176  0.1958  0.1327 -0.7431
  418TIP3    H122889   6.534   2.591   3.158 -0.4730  0.0657 -1.4425
  418TIP3    H222890   6.493   2.685   3.270  0.6702 -0.3652 -0.6476
  419TIP3   OH222891   5.397   0.054   1.593  0.2212  0.1346 -0.0568
  419TIP3    H122892   5.456  -0.017   1.620 -2.2181 -1.3027  1.9947
  419TIP3    H222893   5.443   0.134   1.616  1.2639 -0.9437  1.8888
  420TIP3   OH222894   0.741   4.523   1.584 -0.0628 -0.7701  0.0779
  420TIP3    H122895   0.800   4.476   1.643 -0.4256  1.3627  2.2985
  420TIP3    H222896   0.656   4.520   1.627 -0.5295  0.1724 -0.7347
  421TIP3   OH222897   1.189   2.767   2.251  0.2876 -0.0512 -0.6077
  421TIP3    H122898   1.148   2.814   2.179  1.3453 -0.1248 -1.2891
  421TIP3    H222899   1.218   2.684   2.212  0.6441 -0.1987 -0.0423
  422TIP3   OH222900   4.691   1.058   8.276  0.0784 -0.3576  0.2631
  422TIP3    H122901   4.598   1.047   8.259 -0.1483 -0.5102  1.5576
  422TIP3    H222902   4.734   1.007   8.207 -0.8319 -2.6759  1.3306
  423TIP3   OH222903   4.227   0.718   2.178  0.2929 -0.6783  0.3502
  423TIP3    H122904   4.260   0.739   2.090  0.9051 -0.7592  0.5510
  423TIP3    H222905   4.298   0.744   2.237 -0.2588 -0.2815  0.8586
  424TIP3   OH222906   6.289   5.364   1.958  0.3896 -0.6755 -0.0370
  424TIP3    H122907   6.282   5.274   1.928  0.1601 -0.7276  0.1682
  424TIP3    H222908   6.327   5.412   1.884  3.3112 -1.4665  0.7994
  425TIP3   OH222909   4.774   1.119   8.763 -0.2430  0.0073  0.6742
  425TIP3    H122910   4.735   1.037   8.792 -1.3020  0.1760 -0.2011
  425TIP3    H222911   4.847   1.134   8.823  0.7196 -2.1741  0.1645
  426TIP3   OH222912   0.778   4.854   0.387  0.6101 -0.9224 -0.6612
  426TIP3    H122913   0.806   4.788   0.324  0.6218 -2.0455  0.4875
  426TIP3    H222914   0.858   4.901   0.409  0.7455 -1.0511 -0.8721
  427TIP3   OH222915   5.519   0.675   1.953 -0.3959  0.1464 -0.0307
  427TIP3    H122916   5.448   0.684   1.889  0.2972 -1.1337 -1.0275
  427TIP3    H222917   5.502   0.744   2.017 -2.7822 -0.3933  0.0100
  428TIP3   OH222918   5.963   5.231   1.096 -0.4417 -0.7422 -0.3394
  428TIP3    H122919   5.880   5.250   1.140 -2.1654 -2.5077 -2.5740
  428TIP3    H222920   5.943   5.241   1.003  2.1791 -0.2003 -0.9091
  429TIP3   OH222921   2.475   6.457   8.949  0.4747 -0.0159 -0.0671
  429TIP3    H122922   2.478   6.550   8.924  0.8954  0.5657  1.9130
  429TIP3    H222923   2.545   6.416   8.898  0.4361  0.7901 -0.7940
  430TIP3   OH222924   3.937   2.183   8.663 -0.6945  0.1283  0.3944
  430TIP3    H122925   4.016   2.222   8.701 -1.7890  0.0151  2.9950
  430TIP3    H222926   3.889   2.257   8.625  1.1207  0.0461 -2.3274
  431TIP3   OH222927   5.708   4.268   3.201 -0.2181 -0.8743  0.2003
  431TIP3    H122928   5.738   4.296   3.115  1.4813  1.6964  1.4867
  431TIP3    H222929   5.739   4.177   3.209 -0.0679 -1.0323 -1.7016
  432TIP3   OH222930   0.342   2.852   0.755  0.3159 -0.3457  0.0141
  432TIP3    H122931   0.414   2.813   0.705  0.7798 -0.2748  0.6272
  432TIP3    H222932   0.277   2.782   0.762  0.4446 -0.4974 -0.2963
  433TIP3   OH222933   1.524   2.491   0.383 -0.1262 -0.0163  0.3363
  433TIP3    H122934   1.515   2.433   0.309  1.5066 -0.4274  0.4076
  433TIP3    H222935   1.488   2.443   0.457  0.1315 -0.4644  0.1728
  434TIP3   OH222936   2.878   4.068   2.217  0.1829 -0.0852  0.4476
  434TIP3    H122937   2.956   4.057   2.272  1.2376  2.3784 -0.4018
  434TIP3    H222938   2.807   4.028   2.268  1.6954 -0.9013  2.0219
  435TIP3   OH222939   2.728   4.393   0.635  0.3028  0.0984  0.2098
  435TIP3    H122940   2.779   4.428   0.561 -0.3705  0.6201 -0.0243
  435TIP3    H222941   2.655   4.346   0.593 -1.2904  2.1778  0.4915
  436TIP3   OH222942   2.180   5.000   9.054 -0.5025  0.2936 -0.1782
  436TIP3    H122943   2.119   4.951   9.000 -0.0578 -1.5552  0.9092
  436TIP3    H222944   2.264   4.992   9.008 -0.0494 -1.5743  0.8578
  437TIP3   OH222945   2.158   2.681   8.257 -0.0619  0.3658 -0.2005
  437TIP3    H122946   2.112   2.647   8.180 -2.0685  1.8522  0.2535
  437TIP3    H222947   2.131   2.623   8.329 -1.0743  1.0772  0.0142
  438TIP3   OH222948   4.416   6.473   3.358 -0.4360 -0.1023  0.4444
  438TIP3    H122949   4.390   6.456   3.448  0.3672  0.1591  0.7305
  438TIP3    H222950   4.452   6.562   3.359 -1.8333  0.5230 -0.4447
  439TIP3   OH222951   5.069   1.498   2.659  0.0124 -0.4593 -0.0453
  439TIP3    H122952   5.142   1.437   2.648 -0.1277 -1.3811  3.1164
  439TIP3    H222953   5.097   1.556   2.730 -2.3504 -1.0014  1.4494
  440TIP3   OH222954   1.379   0.067   2.519  0.4820  0.3194 -0.1827
  440TIP3    H122955   1.409  -0.023   2.536  1.4596  0.6166 -0.2690
  440TIP3    H222956   1.460   0.117   2.508 -0.0346  1.3724  0.6875
  441TIP3   OH222957   2.163   1.263   1.284 -1.1296 -0.1799  0.4013
  441TIP3    H122958   2.110   1.303   1.352 -0.4613  0.7597  0.3868
  441TIP3    H222959   2.252   1.266   1.318 -1.0356 -1.5092  0.3165
  442TIP3   OH222960   5.586   0.182   1.824 -0.2002  0.4403 -1.1632
  442TIP3    H122961   5.561   0.216   1.738 -1.8000  1.8066 -0.2350
  442TIP3    H222962   5.656   0.240   1.854 -1.2486  1.4830 -0.6158
  443TIP3   OH222963   2.284   0.510   2.391  0.6154 -0.2388  0.0385
  443TIP3    H122964   2.297   0.416   2.376  0.1292 -0.1186 -1.2201
  443TIP3    H222965   2.220   0.514   2.461  0.1137 -0.8594 -0.3753
  444TIP3   OH222966   6.357   5.003   3.285 -0.4718  0.6579 -0.5253
  444TIP3    H122967   6.334   5.088   3.249 -3.6191 -0.2848 -0.9957
  444TIP3    H222968   6.291   4.986   3.352  0.8249 -0.9054  0.4354
  445TIP3   OH222969   1.977   2.153   1.321  0.3148  0.0159  0.3863
  445TIP3    H122970   2.003   2.109   1.240 -0.8075 -0.1497  0.0941
  445TIP3    H222971   1.981   2.085   1.388  1.5658  0.2310  0.5549
  446TIP3   OH222972   4.892   4.367   2.361  0.3392  0.7444  0.1637
  446TIP3    H122973   4.943   4.309   2.304  0.2063  0.6153  0.1746
  446TIP3    H222974   4.863   4.437   2.303 -0.3891  0.2461 -0.0961
  447TIP3   OH222975   0.694   6.097   2.512 -0.3901  0.2512  0.2395
  447TIP3    H122976   0.615   6.127   2.557 -0.3587 -0.7246  0.9788
  447TIP3    H222977   0.764   6.110   2.576 -0.4572 -1.8320  0.8098
  448TIP3   OH222978   4.873   1.399   1.441  0.3099  0.2753 -0.1050
  448TIP3    H122979   4.878   1.398   1.345  0.9108 -1.8228 -0.1012
  448TIP3    H222980   4.827   1.318   1.464 -0.3135  1.0157  1.3800
  449TIP3   OH222981   3.768   2.723   1.890  0.5504  0.0332 -0.2074
  449TIP3    H122982   3.757   2.818   1.894 -1.4737 -0.1919  1.0194
  449TIP3    H222983   3.862   2.711   1.874  1.0567  2.2038  0.6734
  450TIP3   OH222984   1.570   0.434   0.125 -0.4757  0.2746 -0.5385
  450TIP3    H122985   1.614   0.349   0.133 -0.7960  0.2191  1.0292
  450TIP3    H222986   1.539   0.437   0.035  2.0654 -0.0056 -1.4901
  451TIP3   OH222987   1.283   1.249   2.344 -0.2083 -0.2804 -0.1308
  451TIP3    H122988   1.188   1.263   2.339 -0.0669  0.3189 -1.3381
  451TIP3    H222989   1.310   1.233   2.254  0.7285 -1.3047  0.3144
  452TIP3   OH222990   6.130   5.614   0.227 -0.5521 -0.5816 -0.6422
  452TIP3    H122991   6.055   5.555   0.223 -0.5035 -0.5996 -1.3358
  452TIP3    H222992   6.131   5.658   0.142 -2.1184  2.3207  0.6769
  453TIP3   OH222993   0.341   0.207   1.599  0.0031  0.4320  0.1343
  453TIP3    H122994   0.396   0.241   1.528 -0.2806 -1.7124 -1.2181
  453TIP3    H222995   0.379   0.122   1.620 -1.7704 -0.3472  0.3476
  454TIP3   OH222996   3.096   5.356   1.270  0.8541 -0.2983 -0.5278
  454TIP3    H122997   3.041   5.416   1.218  0.0798 -0.1026  0.4943
  454TIP3    H222998   3.151   5.312   1.205  0.7519  0.8099 -1.4024
  455TIP3   OH222999   1.191   0.247   0.869 -0.3891 -0.4989  0.2731
  455TIP3    H123000   1.133   0.318   0.842 -0.2179 -0.9098 -1.2398
  455TIP3    H223001   1.278   0.287   0.869 -0.4217 -0.4260  0.5049
  456TIP3   OH223002   3.173   0.128   7.457 -0.1490 -0.3707 -0.9141
  456TIP3    H123003   3.202   0.132   7.366 -1.6038 -0.0190 -1.3893
  456TIP3    H223004   3.093   0.180   7.460 -0.0027 -0.1627  0.6352
  457TIP3   OH223005   1.381   6.617   2.093 -0.1622 -0.2015 -0.6383
  457TIP3    H123006   1.346   6.664   2.018 -0.7628  1.8914  0.8866
  457TIP3    H223007   1.470   6.652   2.104 -0.4684  0.3264  0.2629
  458TIP3   OH223008   1.101   4.007   8.633  0.2318  0.4699  0.0598
  458TIP3    H123009   1.164   4.075   8.612  1.4562 -0.8103 -0.5536
  458TIP3    H223010   1.143   3.955   8.701 -0.1348 -0.4180 -0.3749
  459TIP3   OH223011   5.405   1.048   8.516 -0.2478 -0.1755 -0.5056
  459TIP3    H123012   5.364   1.132   8.494 -3.0071 -1.2282  0.2223
  459TIP3    H223013   5.360   0.984   8.460 -0.7995 -1.6152  1.4631
  460TIP3   OH223014   4.378   2.125   0.461 -0.9116 -0.6786  0.1439
  460TIP3    H123015   4.302   2.078   0.496 -0.4629 -1.1542  0.5010
  460TIP3    H223016   4.448   2.107   0.524 -0.9769  1.3513  0.8741
  461TIP3   OH223017   1.076   5.675   0.817  0.4838  0.1868  0.1875
  461TIP3    H123018   0.987   5.708   0.830  0.7923  1.2443 -0.2756
  461TIP3    H223019   1.065   5.582   0.801 -0.4897  0.1932  0.7736
  462TIP3   OH223020   0.307   1.418   7.947  0.2204 -0.4991  0.2326
  462TIP3    H123021   0.304   1.331   7.906 -1.1255 -0.0124 -0.7575
  462TIP3    H223022   0.301   1.479   7.874 -1.1683  0.4099  1.0641
  463TIP3   OH223023   0.680   5.759   2.499 -0.8658  0.0782  0.5409
  463TIP3    H123024   0.768   5.771   2.463 -1.0564  0.8927  0.3330
  463TIP3    H223025   0.681   5.807   2.582 -0.6584 -1.1742  1.3040
  464TIP3   OH223026   1.412   4.342   0.400  0.4361  0.4909  0.2630
  464TIP3    H123027   1.481   4.408   0.391  1.2654 -0.4062 -0.1028
  464TIP3    H223028   1.419   4.289   0.321  0.7738 -0.9460  1.2206
  465TIP3   OH223029   6.646   4.273   1.247 -0.0343 -0.1728  0.1479
  465TIP3    H123030   6.666   4.320   1.167 -3.0143  0.4693 -0.3261
  465TIP3    H223031   6.632   4.182   1.219  0.6142 -0.3147  0.2545
  466TIP3   OH223032   5.949   2.498   0.770 -0.2017  0.4815  0.0453
  466TIP3    H123033   5.887   2.550   0.822  2.0116  1.3503  2.0194
  466TIP3    H223034   5.932   2.408   0.795 -0.4890  0.7409  0.8133
  467TIP3   OH223035   5.261   5.994   2.762  0.2317  0.3529 -0.0326
  467TIP3    H123036   5.307   6.075   2.783  0.0723  0.2227  0.8777
  467TIP3    H223037   5.223   5.966   2.845 -0.8954  0.0822 -0.6108
  468TIP3   OH223038   5.664   5.816   7.991 -0.6701 -1.0682  0.2431
  468TIP3    H123039   5.665   5.823   8.087  0.7722 -2.2162  0.3564
  468TIP3    H223040   5.705   5.731   7.973  1.7302  0.2998 -1.4282
  469TIP3   OH223041   4.568   0.488   0.039 -0.0228  0.0297  0.0974
  469TIP3    H123042   4.599   0.467   0.127  0.2604  1.1200  0.2736
  469TIP3    H223043   4.647   0.514  -0.008 -0.3886  1.0373  0.0120
  470TIP3   OH223044   0.665   2.963   8.728 -0.0092  0.4138  0.1991
  470TIP3    H123045   0.759   2.943   8.736 -0.0612  0.1802  0.2473
  470TIP3    H223046   0.629   2.945   8.815  0.0089  1.1042  0.3493
  471TIP3   OH223047   5.336   6.666   8.239 -0.1065 -0.1783 -0.4410
  471TIP3    H123048   5.301   6.755   8.249  1.2063  0.3652 -0.4491
  471TIP3    H223049   5.271   6.610   8.281  0.4059  1.0802  2.2642
  472TIP3   OH223050   1.172   4.153   0.826 -0.3794  0.1548 -0.4334
  472TIP3    H123051   1.257   4.128   0.862 -1.1638 -1.6276  0.3346
  472TIP3    H223052   1.110   4.098   0.873 -1.8881  0.9049 -1.4795
  473TIP3   OH223053   1.452   4.537   3.152  0.1289  0.8203  0.1433
  473TIP3    H123054   1.467   4.467   3.216 -0.2939  0.4487 -0.1537
  473TIP3    H223055   1.502   4.510   3.075 -4.0313 -1.9513 -1.9543
  474TIP3   OH223056   5.375   3.493   8.366 -0.5232  0.6823  0.0634
  474TIP3    H123057   5.408   3.537   8.444  0.2922  0.7317 -0.2934
  474TIP3    H223058   5.334   3.413   8.399 -1.8184  1.5761  0.6969
  475TIP3   OH223059   1.148   3.498   0.533 -0.1782 -1.2472  0.0048
  475TIP3    H123060   1.123   3.407   0.552 -0.4577 -1.1656  0.0349
  475TIP3    H223061   1.168   3.498   0.440 -0.9929 -1.1598 -0.1762
  476TIP3   OH223062   0.248   3.034   1.537 -0.0131 -0.3236  0.1167
  476TIP3    H123063   0.255   2.964   1.601  1.0542 -0.8503 -0.5444
  476TIP3    H223064   0.300   3.105   1.573 -1.1823  0.2062  0.8383
  477TIP3   OH223065   6.649   5.232   2.196 -0.0286 -0.0572  0.5070
  477TIP3    H123066   6.603   5.255   2.277  0.5523 -1.7765  1.3731
  477TIP3    H223067   6.615   5.146   2.172 -1.0748  0.9225 -1.8037
  478TIP3   OH223068   5.979   6.430   2.586 -0.0073  0.3648 -0.3464
  478TIP3    H123069   6.033   6.376   2.528  1.3346  1.2897 -0.0223
  478TIP3    H223070   6.009   6.520   2.568 -1.2041  0.8698  0.1171
  479TIP3   OH223071   5.440   5.030   0.429  0.1344  0.3547 -1.5486
  479TIP3    H123072   5.442   4.936   0.444 -0.5096  0.3865 -1.2365
  479TIP3    H223073   5.529   5.060   0.447 -0.0164  0.0224 -0.2242
  480TIP3   OH223074   6.157   4.786   2.490 -0.2867  0.1670 -0.4033
  480TIP3    H123075   6.090   4.847   2.457 -0.5453 -0.5916 -1.3187
  480TIP3    H223076   6.237   4.838   2.493 -1.0429  1.3480  1.5322
  481TIP3   OH223077   2.706   5.096   0.575  0.1097  0.1246  0.0510
  481TIP3    H123078   2.719   5.044   0.496  0.2336 -0.8209  0.6720
  481TIP3    H223079   2.714   5.187   0.546 -0.1543 -0.1938 -1.0678
  482TIP3   OH223080   6.002   1.588   1.898  0.0673 -0.1253  0.1507
  482TIP3    H123081   5.955   1.517   1.855 -2.0761  0.4363  1.4018
  482TIP3    H223082   6.045   1.547   1.973  1.6935 -0.6484 -1.0200
  483TIP3   OH223083   0.045   3.594   2.207 -0.0942  0.2828 -0.8119
  483TIP3    H123084   0.030   3.660   2.138  1.5092  1.7917  0.1910
  483TIP3    H223085   0.018   3.512   2.168  0.7535  1.0818 -3.2719
  484TIP3   OH223086   1.143   6.545   8.192  0.4087 -0.4418 -0.2750
  484TIP3    H123087   1.224   6.544   8.141 -0.0215 -1.1017 -0.9691
  484TIP3    H223088   1.163   6.490   8.269  1.7516  2.2475  1.4687
  485TIP3   OH223089   3.315   1.359   3.412 -0.4016 -0.0671  0.0696
  485TIP3    H123090   3.305   1.269   3.383 -0.2897 -0.8762  2.3222
  485TIP3    H223091   3.408   1.379   3.399 -0.1780 -0.7054  0.6652
  486TIP3   OH223092   4.587   0.011   2.175  0.3393  0.3706 -0.4737
  486TIP3    H123093   4.645   0.013   2.251  0.9371 -2.6207 -0.7523
  486TIP3    H223094   4.521  -0.055   2.196  0.5298 -0.5537 -2.5195
  487TIP3   OH223095   5.816   3.068   0.879 -0.1884  0.3849 -0.9455
  487TIP3    H123096   5.862   3.137   0.833 -1.1573 -0.0715 -2.6801
  487TIP3    H223097   5.859   2.987   0.852 -0.5632  0.1350 -0.8143
  488TIP3   OH223098   3.230   1.625   1.998 -0.1265  0.1458 -0.0919
  488TIP3    H123099   3.147   1.625   1.951 -0.7083 -1.5579  0.8754
  488TIP3    H223100   3.246   1.718   2.017 -0.7121  0.7039 -2.1299
  489TIP3   OH223101   1.736   3.532   0.145  0.4385 -0.4636  0.1748
  489TIP3    H123102   1.722   3.599   0.212  1.0804 -1.7062  1.6238
  489TIP3    H223103   1.667   3.468   0.161  2.2162 -2.1851  1.5944
  490TIP3   OH223104   0.022   4.216   2.425 -0.3618  0.3274  0.0872
  490TIP3    H123105   0.071   4.251   2.499  0.0289  0.6271 -0.3069
  490TIP3    H223106  -0.043   4.157   2.464 -2.2004  2.7483  0.9474
  491TIP3   OH223107   4.075   2.418   1.523  0.0852 -0.3780 -0.0200
  491TIP3    H123108   4.100   2.408   1.431 -2.2161 -0.1414 -0.7318
  491TIP3    H223109   4.153   2.392   1.572  0.5207 -3.3181 -1.9828
  492TIP3   OH223110   1.554   3.159   8.785  0.0789  0.1477  0.1386
  492TIP3    H123111   1.475   3.154   8.840  0.9326  0.2472  1.4286
  492TIP3    H223112   1.530   3.216   8.713 -0.9370  0.4275  0.6785
  493TIP3   OH223113   1.778   6.526   2.077  0.0889 -0.0943 -0.1553
  493TIP3    H123114   1.778   6.488   2.165  2.6311  1.4576  0.6215
  493TIP3    H223115   1.732   6.609   2.087  0.4823  0.1371 -0.2625
  494TIP3   OH223116   5.150   5.587   8.217 -0.7063 -0.5824 -0.4634
  494TIP3    H123117   5.203   5.521   8.171  0.6014  1.0914 -1.4756
  494TIP3    H223118   5.060   5.554   8.211 -0.5478 -0.7635 -3.7671
  495TIP3   OH223119   6.700   1.526   2.531  0.7460  0.4489 -0.3268
  495TIP3    H123120   6.655   1.606   2.558  0.0798  0.0092 -0.1224
  495TIP3    H223121   6.630   1.467   2.503  1.1855 -0.2684  0.0587
  496TIP3   OH223122   2.808   6.019   9.071  0.1134 -0.6510 -0.1732
  496TIP3    H123123   2.868   6.093   9.058  0.4816 -0.8292  0.4722
  496TIP3    H223124   2.845   5.948   9.018 -0.9108 -0.0330 -1.7870
  497TIP3   OH223125   1.365   4.164   8.818 -0.2870  0.7701 -0.2968
  497TIP3    H123126   1.391   4.147   8.727  2.8670 -4.0636  1.0661
  497TIP3    H223127   1.438   4.214   8.855  1.6554 -2.4492  0.7016
  498TIP3   OH223128   0.863   3.884   2.764  0.8745  0.0895  0.4560
  498TIP3    H123129   0.792   3.875   2.828  0.1255 -2.5035 -0.5768
  498TIP3    H223130   0.837   3.959   2.710 -0.7934 -0.4161  0.4954
  499TIP3   OH223131   2.105   2.204   2.154 -0.2881 -0.1184  0.0743
  499TIP3    H123132   2.084   2.160   2.071  0.4543  0.6461 -0.5358
  499TIP3    H223133   2.139   2.134   2.210  0.9839 -0.3253 -0.9219
  500TIP3   OH223134   1.212   3.583   0.252 -0.9914  0.1243 -0.1999
  500TIP3    H123135   1.159   3.604   0.176 -1.2765 -0.4974 -0.1804
  500TIP3    H223136   1.227   3.667   0.296  0.8214  0.8214 -1.9817
  501TIP3   OH223137   5.046   2.276   0.837  0.1995 -0.1703  0.1185
  501TIP3    H123138   5.137   2.277   0.866  0.1862 -0.4957  0.1748
  501TIP3    H223139   5.032   2.187   0.804  0.5696  0.4895 -2.0237
  502TIP3   OH223140   1.130   1.820   1.515 -0.3792  0.5669  0.3488
  502TIP3    H123141   1.213   1.798   1.558 -0.1319  0.1979 -0.2991
  502TIP3    H223142   1.152   1.893   1.457  0.3467 -1.7508 -2.4806
  503TIP3   OH223143   4.719   4.660   1.435 -0.2957 -0.1437  0.1734
  503TIP3    H123144   4.814   4.664   1.439 -0.3744  1.5506  1.4694
  503TIP3    H223145   4.694   4.732   1.377 -0.8053 -0.2658  0.2325
  504TIP3   OH223146   5.707   3.385   8.372  0.2118 -0.2365  0.1232
  504TIP3    H123147   5.735   3.457   8.314 -0.3323  0.8242  1.1400
  504TIP3    H223148   5.671   3.319   8.312 -2.5337  1.7962 -0.6785
  505TIP3   OH223149   1.817   1.567   8.916 -0.2397  0.2185  0.7227
  505TIP3    H123150   1.732   1.539   8.883  0.4458  0.8750 -1.8311
  505TIP3    H223151   1.823   1.527   9.003 -3.3201  0.5893  1.2148
  506TIP3   OH223152   4.689   0.376   7.650 -0.0805 -0.0880  0.9270
  506TIP3    H123153   4.737   0.397   7.571 -0.2832  0.7319  1.0143
  506TIP3    H223154   4.735   0.423   7.720 -0.9508  0.6540  1.0218
  507TIP3   OH223155   0.294   1.250   8.490 -1.0687 -0.9765  0.3428
  507TIP3    H123156   0.279   1.263   8.396  0.4416 -2.3072 -0.1314
  507TIP3    H223157   0.348   1.324   8.517 -0.9276 -0.9515 -0.0075
  508TIP3   OH223158   2.898   4.685   7.925 -0.0391 -0.4622  0.2843
  508TIP3    H123159   2.961   4.756   7.910 -1.0749  0.5790  0.6606
  508TIP3    H223160   2.824   4.707   7.868 -0.7060 -0.7813  1.0017
  509TIP3   OH223161   0.323   2.345   2.056 -0.7896 -0.1220 -0.2054
  509TIP3    H123162   0.316   2.280   1.986  0.2163 -0.5037  0.0359
  509TIP3    H223163   0.302   2.297   2.136 -1.7622  0.2721 -0.2050
  510TIP3   OH223164   5.727   1.340   7.852  0.3170  0.2287  0.6269
  510TIP3    H123165   5.791   1.270   7.839  0.8099  0.6954  0.4956
  510TIP3    H223166   5.752   1.407   7.788 -0.2055  0.4832  0.6886
  511TIP3   OH223167   3.979   2.473   2.629  1.1534  0.0867 -0.1995
  511TIP3    H123168   4.074   2.470   2.620  1.0137 -0.8023 -1.8900
  511TIP3    H223169   3.963   2.521   2.710  3.0288  0.5729 -0.0889
  512TIP3   OH223170   5.326   0.315   0.906 -0.4895  0.2073 -0.0801
  512TIP3    H123171   5.343   0.234   0.955  1.1530  0.0932 -0.7718
  512TIP3    H223172   5.287   0.286   0.824  1.1059 -0.0269 -0.7995
  513TIP3   OH223173   1.950   1.254   8.955 -0.3543 -0.4615 -0.4996
  513TIP3    H123174   1.890   1.285   8.887 -1.6518  0.6443  1.0397
  513TIP3    H223175   1.920   1.165   8.974 -2.3531  0.4471  1.0124
  514TIP3   OH223176   3.332   4.539   1.887 -0.7705  0.9533 -0.0775
  514TIP3    H123177   3.334   4.564   1.794 -0.8841  0.3952 -0.2363
  514TIP3    H223178   3.276   4.461   1.889 -0.4078  0.6991  0.3948
  515TIP3   OH223179   2.074   5.533   1.701  0.0685  0.7489 -0.7576
  515TIP3    H123180   2.008   5.477   1.660 -0.6137  2.3419 -1.9546
  515TIP3    H223181   2.155   5.482   1.696 -0.6629 -0.4056 -1.1491
  516TIP3   OH223182   0.078   1.522   9.082  0.5073  0.0007 -0.3427
  516TIP3    H123183   0.015   1.593   9.098  0.2547 -0.1715 -0.5579
  516TIP3    H223184   0.143   1.531   9.152  1.1670  1.2129 -1.0694
  517TIP3   OH223185   4.407   3.481   8.508 -0.1726  0.2031 -0.2236
  517TIP3    H123186   4.372   3.396   8.535 -0.3234  0.5276  0.6655
  517TIP3    H223187   4.467   3.504   8.579  0.2939  0.5773 -0.7423
  518TIP3   OH223188   3.744   6.672   8.238 -0.5526 -0.2073  0.1738
  518TIP3    H123189   3.817   6.655   8.297 -0.1485  0.8227 -0.0123
  518TIP3    H223190   3.744   6.767   8.225 -0.9965 -0.3453 -1.0180
  519TIP3   OH223191   0.859   3.416   8.363 -0.3409 -0.7321 -0.1722
  519TIP3    H123192   0.861   3.420   8.268 -2.2343  0.8755 -0.2080
  519TIP3    H223193   0.943   3.377   8.387 -0.5688 -2.9272 -2.5361
  520TIP3   OH223194   0.231   2.030   8.552  0.2425  0.5104 -0.5091
  520TIP3    H123195   0.237   2.120   8.585  1.3894  1.0819 -2.1481
  520TIP3    H223196   0.143   2.025   8.514  0.0786  0.8528 -0.1801
  521TIP3   OH223197   5.111   3.212   7.913 -0.3006  1.3370 -0.1714
  521TIP3    H123198   5.022   3.230   7.944 -0.4137 -2.7900  2.6805
  521TIP3    H223199   5.102   3.136   7.856  1.3020  1.9626 -1.3500
  522TIP3   OH223200   2.361   6.646   7.983  0.4713 -0.1175  0.3619
  522TIP3    H123201   2.351   6.551   7.980 -2.1335  0.0816 -0.5124
  522TIP3    H223202   2.439   6.664   7.931  1.5237 -1.8014  1.2854
  523TIP3   OH223203   5.131   1.951   3.728 -0.8563  0.1298  0.7449
  523TIP3    H123204   5.167   2.015   3.666 -2.5256  0.5166  0.1223
  523TIP3    H223205   5.115   2.001   3.808 -0.5222  0.0847  0.8396
  524TIP3   OH223206   1.900   3.929   2.501 -0.3128 -0.0659  0.7920
  524TIP3    H123207   1.950   3.964   2.427  1.3811  0.7949  2.2600
  524TIP3    H223208   1.854   3.854   2.465  1.0025 -0.1021 -0.9802
  525TIP3   OH223209   1.151   5.217   1.444  0.4209  0.2179 -0.6799
  525TIP3    H123210   1.215   5.153   1.478  1.6480  0.9945 -1.4462
  525TIP3    H223211   1.107   5.171   1.372  1.8263  0.4334 -1.7257
  526TIP3   OH223212   0.678   5.546   2.656  0.4154 -0.2982 -0.2404
  526TIP3    H123213   0.694   5.599   2.578  2.2275  0.9135  0.8670
  526TIP3    H223214   0.590   5.569   2.684  1.1124  2.1395  0.1419
  527TIP3   OH223215   0.838   5.298   3.068 -0.3597 -0.5024 -0.1897
  527TIP3    H123216   0.788   5.340   3.138  1.4007  1.4562 -0.0005
  527TIP3    H223217   0.814   5.347   2.989 -0.3360 -0.9483 -0.4749
  528TIP3   OH223218   5.991   3.420   0.108  0.0695  0.1194 -0.1470
  528TIP3    H123219   5.952   3.335   0.088 -0.4048 -0.0916  1.5359
  528TIP3    H223220   6.074   3.400   0.152  0.6460  0.5522 -1.0047
  529TIP3   OH223221   5.420   6.038   2.346 -0.3325 -0.4779 -0.1511
  529TIP3    H123222   5.409   5.997   2.432  0.6821 -0.9940 -0.2391
  529TIP3    H223223   5.406   6.131   2.361 -0.9839 -0.6612  0.4050
  530TIP3   OH223224   2.905   5.612   1.095  0.3196 -0.2405  0.2372
  530TIP3    H123225   2.925   5.621   1.189  0.7798  0.2730  0.0925
  530TIP3    H223226   2.811   5.632   1.089 -0.2953 -2.6295  0.9124
  531TIP3   OH223227   6.099   0.467   1.295 -0.0730  0.2584  0.1732
  531TIP3    H123228   6.188   0.470   1.260  0.7520 -2.3060  1.7610
  531TIP3    H223229   6.055   0.400   1.242 -1.1517  1.5929 -0.6784
  532TIP3   OH223230   0.290   3.931   0.944  0.3013 -0.1192  0.7698
  532TIP3    H123231   0.244   3.963   0.866  1.5943 -2.8525 -1.2575
  532TIP3    H223232   0.372   3.981   0.945 -0.0697  0.4971  0.8722
  533TIP3   OH223233   2.894   6.298   2.434 -0.1620 -0.4763 -0.6575
  533TIP3    H123234   2.821   6.300   2.371 -1.3182  0.7444  0.6389
  533TIP3    H223235   2.870   6.230   2.496 -1.3544  1.3279  0.9833
  534TIP3   OH223236   5.046   3.987   7.976  0.4009 -0.2163 -0.4762
  534TIP3    H123237   5.033   3.897   7.945  0.3605  0.0316 -1.2021
  534TIP3    H223238   5.116   4.021   7.921  0.7703  0.0313  0.1447
  535TIP3   OH223239   0.217   3.925   9.065 -0.6418  0.3922 -0.0297
  535TIP3    H123240   0.261   3.903   9.146 -0.0458  0.3413 -0.3625
  535TIP3    H223241   0.159   3.850   9.048 -0.1573  0.0266 -0.0761
  536TIP3   OH223242   2.317   4.655   1.271 -0.1913  0.4792 -0.2515
  536TIP3    H123243   2.404   4.624   1.296  0.0004  1.9878  1.1626
  536TIP3    H223244   2.332   4.710   1.194  0.0510  0.4079 -0.2559
  537TIP3   OH223245   6.236   0.957   8.161  0.0056 -0.0534 -0.1455
  537TIP3    H123246   6.151   0.987   8.191  0.0173 -1.1714  1.0736
  537TIP3    H223247   6.238   0.979   8.068 -1.9601 -0.7785 -0.3981
  538TIP3   OH223248   3.055   2.382   1.570  0.0910  0.4910 -1.1860
  538TIP3    H123249   3.103   2.304   1.543  2.8616  1.4710  0.5236
  538TIP3    H223250   3.109   2.421   1.639 -2.0650  2.9821 -0.7622
  539TIP3   OH223251   4.104   0.349   8.876 -0.1050  0.0715  0.1048
  539TIP3    H123252   4.082   0.434   8.914 -1.4488 -0.6312  0.9684
  539TIP3    H223253   4.072   0.285   8.940 -0.6661 -1.1189 -1.2989
  540TIP3   OH223254   5.619   1.222   2.261  0.3604  0.1770  0.5230
  540TIP3    H123255   5.677   1.158   2.301  0.5461  0.1460  0.2148
  540TIP3    H223256   5.654   1.307   2.288  1.2237  0.1919 -0.5343
  541TIP3   OH223257   5.333   5.842   7.982  0.3829 -0.1406  0.4930
  541TIP3    H123258   5.336   5.824   7.888  1.2236  1.0495  0.2686
  541TIP3    H223259   5.424   5.830   8.011  0.3785  0.7459  0.8968
  542TIP3   OH223260   6.133   2.834   2.900 -0.0258  0.0720  0.6412
  542TIP3    H123261   6.201   2.872   2.845 -1.0991  1.3082  0.0916
  542TIP3    H223262   6.160   2.854   2.989  0.3895  0.4576  0.4349
  543TIP3   OH223263   6.099   3.422   1.746  0.4165  0.3860  0.1004
  543TIP3    H123264   6.059   3.478   1.679  0.7471  1.3140  0.6660
  543TIP3    H223265   6.188   3.406   1.713 -0.0121 -0.7002 -0.5773
  544TIP3   OH223266   0.094   6.018   8.593  0.0138  0.0256 -0.9132
  544TIP3    H123267   0.018   6.036   8.539  0.8393 -1.0843 -2.5380
  544TIP3    H223268   0.081   5.928   8.624 -1.0421  1.0379  1.8508
  545TIP3   OH223269   1.362   5.358   8.756  0.4872 -0.0311  0.1922
  545TIP3    H123270   1.431   5.298   8.729  1.2381  1.0413 -0.3812
  545TIP3    H223271   1.328   5.394   8.674 -1.6985 -1.5050  0.3738
  546TIP3   OH223272   3.866   0.700   2.739  0.3177  0.0531  0.1255
  546TIP3    H123273   3.937   0.648   2.702 -0.0195 -0.4339  0.1445
  546TIP3    H223274   3.833   0.647   2.812 -0.8648 -0.3126 -0.6410
  547TIP3   OH223275   4.497   2.899   8.815 -0.0221  1.0987  0.1208
  547TIP3    H123276   4.472   2.895   8.907 -2.5861  1.1267 -0.4912
  547TIP3    H223277   4.551   2.821   8.802  0.2848  1.0315  1.6057
  548TIP3   OH223278   0.129   5.778   0.130 -0.0138  0.1017  0.0425
  548TIP3    H123279   0.124   5.685   0.109  0.9424  0.0865 -0.1486
  548TIP3    H223280   0.211   5.807   0.091 -0.0345  0.9039  0.5766
  549TIP3   OH223281   1.067   3.481   0.837 -0.3144  0.6890 -0.3129
  549TIP3    H123282   1.119   3.428   0.776 -0.4727  1.0941 -0.8041
  549TIP3    H223283   1.048   3.421   0.910  1.2605  0.6764  0.1227
  550TIP3   OH223284   5.940   5.733   3.671 -0.4534 -0.0838  0.1427
  550TIP3    H123285   5.911   5.820   3.699 -0.0798  0.5434 -1.3371
  550TIP3    H223286   5.860   5.687   3.646 -0.5310  0.3516 -0.4295
  551TIP3   OH223287   0.593   2.216   8.991 -0.6610  0.5131 -0.3680
  551TIP3    H123288   0.604   2.262   9.074  0.5665 -2.3230  1.1920
  551TIP3    H223289   0.608   2.283   8.924 -0.2958  2.6048  1.6826
  552TIP3   OH223290   0.434   1.874   0.353 -0.1648  0.2543  0.1187
  552TIP3    H123291   0.506   1.829   0.309 -1.6374  0.0781 -2.3284
  552TIP3    H223292   0.469   1.960   0.376  0.8642  0.1393 -0.9568
  553TIP3   OH223293   5.060   5.379   0.895  0.2928  0.3520 -0.6598
  553TIP3    H123294   5.005   5.356   0.821  0.6953  0.4515 -0.9932
  553TIP3    H223295   5.143   5.406   0.856 -0.2084  2.5819 -0.3002
  554TIP3   OH223296   0.064   2.350   0.013 -0.2819  0.7328 -0.1258
  554TIP3    H123297   0.131   2.326  -0.049  0.0863  0.8464  0.2215
  554TIP3    H223298   0.050   2.444  -0.001  0.7429  1.0541  0.8362
  555TIP3   OH223299   2.991   1.568   0.330 -0.2088 -0.5365 -0.8909
  555TIP3    H123300   3.066   1.556   0.273 -0.6531  0.6275 -1.7623
  555TIP3    H223301   2.915   1.549   0.275 -0.6065 -0.3724 -0.4109
  556TIP3   OH223302   0.625   0.326   2.968  0.1172 -0.7729  0.3953
  556TIP3    H123303   0.661   0.414   2.972 -1.0265 -0.3081  0.8197
  556TIP3    H223304   0.569   0.326   2.891  0.5512 -1.3124  0.0681
  557TIP3   OH223305   1.892   4.539   2.973 -0.2194 -0.0297  0.2973
  557TIP3    H123306   1.885   4.629   2.939 -0.4541  0.1232  0.7504
  557TIP3    H223307   1.942   4.548   3.054  0.9617 -0.4844 -0.3486
  558TIP3   OH223308   6.220   0.095   1.344 -0.3950 -0.1494  0.0922
  558TIP3    H123309   6.312   0.109   1.323 -0.6595 -0.3948 -1.3554
  558TIP3    H223310   6.175   0.168   1.301 -0.8003  0.6422  1.7687
  559TIP3   OH223311   3.100   3.746   1.854  0.1369  0.2955  0.1415
  559TIP3    H123312   3.134   3.676   1.798  0.1799  0.3196  0.1371
  559TIP3    H223313   3.132   3.826   1.812 -0.2426  0.3360 -0.0780
  560TIP3   OH223314   3.435   3.762   1.597 -0.0045  0.9132 -0.7086
  560TIP3    H123315   3.456   3.800   1.512  1.6280  2.9637  0.5097
  560TIP3    H223316   3.409   3.837   1.651 -0.8097 -0.3011  0.6679
  561TIP3   OH223317   2.249   0.614   2.052  0.1487 -0.5585  0.3872
  561TIP3    H123318   2.281   0.525   2.069 -0.9021 -1.1347 -0.5419
  561TIP3    H223319   2.173   0.623   2.109  0.4852 -0.0955  0.7723
  562TIP3   OH223320   3.338   3.669   0.159 -0.7146 -0.1025  0.4536
  562TIP3    H123321   3.266   3.633   0.210 -1.9744  1.0037 -0.4848
  562TIP3    H223322   3.364   3.597   0.102 -2.2161 -0.0432 -0.3628
  563TIP3   OH223323   5.202   0.171   1.402 -0.4095  0.0693 -0.3053
  563TIP3    H123324   5.269   0.126   1.454 -0.9333  0.6092  0.8680
  563TIP3    H223325   5.139   0.102   1.380 -0.1967 -0.1585 -0.2175
  564TIP3   OH223326   4.017   1.204   1.026  0.6096 -0.2260 -0.2506
  564TIP3    H123327   3.932   1.227   1.064  0.9673  2.7418 -0.9434
  564TIP3    H223328   3.997   1.140   0.958 -1.0981  0.4553 -0.4301
  565TIP3   OH223329   4.660   2.338   2.723  0.1872 -0.1500  0.5034
  565TIP3    H123330   4.684   2.428   2.704 -1.1212  0.1982  0.3894
  565TIP3    H223331   4.641   2.299   2.638 -2.7980  0.5587  0.7448
  566TIP3   OH223332   6.240   5.755   0.429 -0.0173  0.0048 -0.4093
  566TIP3    H123333   6.259   5.681   0.487 -0.1170 -1.1905 -1.8334
  566TIP3    H223334   6.187   5.717   0.359 -0.3251  1.5093 -1.0357
  567TIP3   OH223335   5.573   2.994   7.438 -0.1718  0.5122 -0.5466
  567TIP3    H123336   5.599   2.906   7.413 -2.8743 -0.6305  0.3418
  567TIP3    H223337   5.631   3.016   7.511 -0.5058 -1.2153  0.2907
  568TIP3   OH223338   1.423   4.794   3.214  0.1994  0.0278  0.1300
  568TIP3    H123339   1.370   4.820   3.139 -2.1804 -0.1106  1.6719
  568TIP3    H223340   1.418   4.699   3.216 -1.8913  0.0939  1.8151
  569TIP3   OH223341   5.232   2.616   1.350 -0.1372  0.1561  0.8411
  569TIP3    H123342   5.327   2.625   1.355 -0.1367  0.7855 -0.0441
  569TIP3    H223343   5.214   2.600   1.258 -0.8373 -0.8052  1.1251
  570TIP3   OH223344   1.884   4.457   8.599 -0.1503  0.2049 -0.5567
  570TIP3    H123345   1.821   4.487   8.664  1.4059  0.3225  0.9630
  570TIP3    H223346   1.860   4.366   8.581 -0.1257 -0.0794  0.7972
  571TIP3   OH223347   1.533   0.389   8.244 -0.0195  0.5032  0.2500
  571TIP3    H123348   1.506   0.385   8.152 -0.4601 -0.6684  0.4142
  571TIP3    H223349   1.627   0.372   8.242  0.0553  0.9414 -0.0218
  572TIP3   OH223350   6.315   2.957   0.530  0.1265 -0.0260  0.1624
  572TIP3    H123351   6.287   2.979   0.441 -0.3838  3.2594  1.0062
  572TIP3    H223352   6.407   2.931   0.520 -0.1518 -0.5246 -1.3978
  573TIP3   OH223353   4.923   2.482   0.997  0.3491  0.2083 -0.2164
  573TIP3    H123354   4.958   2.550   0.939 -1.0777 -0.1490 -1.5419
  573TIP3    H223355   4.948   2.399   0.955 -0.4832 -0.0544 -0.2130
  574TIP3   OH223356   3.286   4.090   2.075  0.3379  0.4462  0.3226
  574TIP3    H123357   3.261   4.137   2.154 -0.2977 -0.5951  0.7577
  574TIP3    H223358   3.215   4.028   2.060  0.4541  0.6234 -1.0730
  575TIP3   OH223359   2.522   0.240   0.562 -0.0948 -0.3969  0.8349
  575TIP3    H123360   2.443   0.262   0.612  0.5133  0.1211  1.5966
  575TIP3    H223361   2.538   0.318   0.509  0.6877  0.0745  1.7330
  576TIP3   OH223362   5.230   1.556   0.964  0.0021 -0.0044 -0.0558
  576TIP3    H123363   5.295   1.613   0.924 -0.0693 -0.5542 -0.9751
  576TIP3    H223364   5.278   1.508   1.031  0.3289  0.2512 -0.1028
  577TIP3   OH223365   5.960   0.427   0.160  0.2069 -0.5498  0.6709
  577TIP3    H123366   6.011   0.458   0.234  0.7740  0.8815 -0.2746
  577TIP3    H223367   6.009   0.457   0.083 -1.0202 -0.8827 -0.2718
  578TIP3   OH223368   5.332   6.595   2.267  0.0542 -0.1659 -0.3055
  578TIP3    H123369   5.363   6.679   2.234  0.3687 -0.0109  0.3483
  578TIP3    H223370   5.410   6.554   2.305  0.0306 -1.0199 -1.1421
  579TIP3   OH223371   5.639   4.824   9.040  0.2677 -0.2820 -0.1232
  579TIP3    H123372   5.604   4.821   8.951  1.0319 -1.1795 -0.4068
  579TIP3    H223373   5.564   4.846   9.094 -0.3911 -0.5657 -0.8980
  580TIP3   OH223374   6.330   2.930   2.699  0.5158 -0.3099  0.4896
  580TIP3    H123375   6.361   2.996   2.761  0.5420  0.8360 -0.6908
  580TIP3    H223376   6.410   2.893   2.662  0.4992 -0.8621  1.0015
  581TIP3   OH223377   4.160   1.349   1.998  0.1232 -0.0712 -0.0623
  581TIP3    H123378   4.176   1.289   1.925  1.9708 -1.8385  1.6947
  581TIP3    H223379   4.247   1.371   2.031 -0.6165  1.8291  0.7711
  582TIP3   OH223380   1.834   5.115   2.828  0.3650 -0.1055  0.3263
  582TIP3    H123381   1.768   5.158   2.882  0.7033  1.1523 -0.2220
  582TIP3    H223382   1.918   5.143   2.866  0.6061 -1.7891  1.0999
  583TIP3   OH223383   1.745   3.119   0.816 -0.3154 -0.3003 -0.6654
  583TIP3    H123384   1.783   3.054   0.756  0.0993 -0.4403 -0.2601
  583TIP3    H223385   1.767   3.086   0.903  0.4375  0.6988 -0.4562
  584TIP3   OH223386   6.162   5.400   1.153 -0.3134 -0.3825  0.1176
  584TIP3    H123387   6.231   5.357   1.102 -0.5134 -2.2218  1.2912
  584TIP3    H223388   6.086   5.343   1.144 -2.1484  2.1596 -2.0415
  585TIP3   OH223389   0.645   2.138   1.892  0.0291 -0.0295 -0.1012
  585TIP3    H123390   0.561   2.135   1.846 -1.6970  1.5309  2.6939
  585TIP3    H223391   0.688   2.215   1.856 -0.7426  0.4650  0.0022
  586TIP3   OH223392   5.860   2.639   2.217 -0.0828  0.8622 -0.0911
  586TIP3    H123393   5.776   2.596   2.232 -0.0580  0.7797 -0.1858
  586TIP3    H223394   5.871   2.638   2.122 -0.0154  0.9504 -0.0839
  587TIP3   OH223395   5.913   0.541   8.719 -0.1219 -0.4052 -0.7945
  587TIP3    H123396   5.829   0.523   8.676 -0.0475 -0.1475 -1.0493
  587TIP3    H223397   5.966   0.583   8.651  0.2518 -0.6660 -0.6672
  588TIP3   OH223398   5.798   4.400   1.832  1.0011  0.0514  0.4479
  588TIP3    H123399   5.894   4.391   1.833  0.8972 -1.3992  1.3400
  588TIP3    H223400   5.767   4.329   1.890 -0.6778 -0.4438 -0.9712
  589TIP3   OH223401   0.561   4.849   8.109  0.1781 -0.0754 -0.0550
  589TIP3    H123402   0.582   4.929   8.157 -0.6478 -0.3768  0.8618
  589TIP3    H223403   0.598   4.862   8.022  2.3918  0.1787  0.8679
  590TIP3   OH223404   4.756   2.178   8.272  0.3676  0.4807 -0.1422
  590TIP3    H123405   4.757   2.174   8.177 -2.1673  0.2859 -0.2500
  590TIP3    H223406   4.755   2.086   8.300 -1.0133  0.5005 -0.0585
  591TIP3   OH223407   0.500   2.130   0.301  0.0156  0.2547  0.3573
  591TIP3    H123408   0.578   2.168   0.261  1.3641 -0.4162  2.1865
  591TIP3    H223409   0.438   2.120   0.229  1.2670  1.6671 -0.9861
  592TIP3   OH223410   0.348   6.499   0.451  0.7877 -0.2646 -0.1078
  592TIP3    H123411   0.323   6.592   0.459  0.0249 -0.5146  0.6002
  592TIP3    H223412   0.271   6.457   0.413  1.9815 -0.2418 -2.7653
  593TIP3   OH223413   0.233   4.634   8.965  0.0016  0.3262  0.0832
  593TIP3    H123414   0.241   4.695   9.038  0.1261  0.5221 -0.0931
  593TIP3    H223415   0.317   4.588   8.963 -0.3414 -0.3343  0.6448
  594TIP3   OH223416   4.724   1.484   1.648 -0.3195  0.0187 -0.1865
  594TIP3    H123417   4.769   1.459   1.567 -0.3662 -0.9944  0.0877
  594TIP3    H223418   4.781   1.451   1.718 -0.6452  0.2357  0.1793
  595TIP3   OH223419   6.188   3.450   1.189  0.0939  0.2051 -0.2364
  595TIP3    H123420   6.107   3.424   1.146 -0.2894  0.5600  0.2683
  595TIP3    H223421   6.257   3.416   1.132 -0.4019 -0.5610 -0.3947
  596TIP3   OH223422   6.539   6.119   2.100  0.5070  0.4819 -0.5063
  596TIP3    H123423   6.547   6.032   2.140  0.6403  0.1044 -1.3328
  596TIP3    H223424   6.629   6.152   2.098  0.2414  1.5679  1.7558
  597TIP3   OH223425   0.192   1.627   0.208  0.0376 -0.4466 -0.0739
  597TIP3    H123426   0.213   1.558   0.271 -0.2421 -0.0675  0.4492
  597TIP3    H223427   0.113   1.668   0.243 -0.8255 -0.9871 -1.3001
  598TIP3   OH223428   1.656   1.380   2.292 -0.2473 -0.8310 -0.4893
  598TIP3    H123429   1.596   1.365   2.364 -0.0395 -1.9996 -0.5481
  598TIP3    H223430   1.732   1.422   2.332  0.0055 -1.7664  0.0421
  599TIP3   OH223431   1.115   4.471   1.438  0.7514 -0.0298 -0.6691
  599TIP3    H123432   1.203   4.465   1.476  0.7568  0.6425 -0.5672
  599TIP3    H223433   1.096   4.565   1.436 -0.4523 -0.2309  0.4254
  600TIP3   OH223434   4.703   6.020   2.002  0.0277  0.5741 -0.6174
  600TIP3    H123435   4.669   5.931   1.992  0.5861  0.2269  0.3553
  600TIP3    H223436   4.694   6.060   1.916  0.6820 -0.7550 -1.3368
  601TIP3   OH223437   0.739   4.156   1.296  0.1007 -0.3241  0.0469
  601TIP3    H123438   0.756   4.207   1.375 -1.7679 -1.3938  1.2066
  601TIP3    H223439   0.775   4.209   1.225  2.0270  0.5675  1.6010
  602TIP3   OH223440   5.010   1.114   0.579 -0.6276  0.0404  0.1292
  602TIP3    H123441   4.964   1.093   0.660  1.1719 -0.1822  1.1464
  602TIP3    H223442   5.046   1.202   0.592 -1.1449  0.4085 -0.8256
  603TIP3   OH223443   0.526   5.604   2.288  0.6292  0.6611  0.4640
  603TIP3    H123444   0.559   5.515   2.295  0.3544  0.6159  1.2189
  603TIP3    H223445   0.598   5.659   2.319  0.8391  0.7210 -0.1035
  604TIP3   OH223446   4.300   0.740   1.333  0.1340 -0.2335 -0.2398
  604TIP3    H123447   4.219   0.790   1.344  1.2177  2.4584 -2.9944
  604TIP3    H223448   4.274   0.662   1.285 -1.0134 -0.1849  0.2801
  605TIP3   OH223449   3.327   3.903   3.009 -0.3620  0.0605  0.5702
  605TIP3    H123450   3.344   3.990   3.045  0.8658 -0.3800  1.0844
  605TIP3    H223451   3.407   3.853   3.025 -0.5220 -0.7678 -0.9365
  606TIP3   OH223452   1.915   2.051   0.769 -0.4240  0.3925  0.2525
  606TIP3    H123453   1.987   2.110   0.790 -0.5928  1.0633 -0.9838
  606TIP3    H223454   1.947   2.000   0.694  0.2717 -2.1260  2.1425
  607TIP3   OH223455   0.438   3.994   2.539  0.5357  0.0781  0.7480
  607TIP3    H123456   0.478   3.951   2.614  0.4020  0.8479  1.2794
  607TIP3    H223457   0.377   3.930   2.503  1.1135 -0.5452  0.8717
  608TIP3   OH223458   2.763   0.464   2.546  0.3910 -0.7407  0.5542
  608TIP3    H123459   2.670   0.442   2.539 -0.0165  1.3001 -1.8449
  608TIP3    H223460   2.764   0.545   2.598  0.6245  0.0750 -0.6804
  609TIP3   OH223461   6.289   2.701   1.668 -0.1336  0.5967 -0.2043
  609TIP3    H123462   6.345   2.664   1.600  1.3926  3.1042 -0.4596
  609TIP3    H223463   6.350   2.743   1.728 -1.6624  2.0465  0.3972
  610TIP3   OH223464   3.053   0.648   9.073 -0.4178 -0.1355 -0.0295
  610TIP3    H123465   3.042   0.627   9.165 -1.9527 -1.5340 -0.4926
  610TIP3    H223466   2.997   0.586   9.027 -0.9075  1.5496 -1.8334
  611TIP3   OH223467   1.745   5.344   0.613 -0.3346 -0.0589 -0.9022
  611TIP3    H123468   1.751   5.295   0.695 -2.3367  1.0205 -0.0442
  611TIP3    H223469   1.688   5.291   0.557 -2.5341  1.1972  0.0408
  612TIP3   OH223470   2.557   4.634   1.519 -0.1383 -0.1882  0.1288
  612TIP3    H123471   2.649   4.656   1.526 -0.0962 -0.0640 -0.6985
  612TIP3    H223472   2.524   4.690   1.448 -0.8297 -0.2668  0.3787
  613TIP3   OH223473   4.496   5.045   2.929 -0.9290 -0.4265  0.3674
  613TIP3    H123474   4.581   5.041   2.884 -0.3356  1.2812  1.2440
  613TIP3    H223475   4.450   5.117   2.886 -1.1652 -0.1012  1.1556
  614TIP3   OH223476   0.654   6.694   7.341 -0.4557  0.0839 -0.1478
  614TIP3    H123477   0.676   6.783   7.368 -1.3765 -0.4063  2.4850
  614TIP3    H223478   0.707   6.638   7.398 -2.0270 -1.0317  0.2614
  615TIP3   OH223479   0.322   2.300   0.865 -0.1250 -0.4806  0.1470
  615TIP3    H123480   0.355   2.341   0.945  1.4441  0.8238 -1.0794
  615TIP3    H223481   0.331   2.206   0.880  0.9435 -0.2387  1.1824
  616TIP3   OH223482   0.682   5.347   0.749  0.3598  0.1476  0.0155
  616TIP3    H123483   0.682   5.282   0.678 -1.9381 -0.1514  0.2176
  616TIP3    H223484   0.624   5.416   0.718 -1.1219 -0.2397  1.8041
  617TIP3   OH223485   5.386   5.254   8.318  0.1781 -0.4549 -0.0071
  617TIP3    H123486   5.377   5.333   8.265  3.1878  0.2779  0.4084
  617TIP3    H223487   5.378   5.182   8.255 -0.6386  0.2344 -0.7105
  618TIP3   OH223488   4.396   0.253   2.210  0.3544  0.6028  0.2445
  618TIP3    H123489   4.347   0.332   2.231 -2.5935 -1.0287 -0.0274
  618TIP3    H223490   4.451   0.278   2.135 -1.3346  2.1079 -0.5488
  619TIP3   OH223491   4.767   5.361   3.201  0.3315 -0.0576  0.1218
  619TIP3    H123492   4.767   5.435   3.261 -1.1774 -0.8973  1.2024
  619TIP3    H223493   4.713   5.295   3.243  0.4892 -1.2627 -1.4634
  620TIP3   OH223494   3.035   3.705   0.122  0.6884 -0.0440  0.5645
  620TIP3    H123495   3.065   3.626   0.168  1.6058  1.1336  2.0752
  620TIP3    H223496   3.042   3.683   0.029  1.1853 -1.6410  0.9524
  621TIP3   OH223497   6.348   6.083   8.562 -0.5168 -0.1001  0.2112
  621TIP3    H123498   6.254   6.078   8.540 -0.0656  2.1835 -3.0031
  621TIP3    H223499   6.354   6.154   8.624 -0.8435  0.6030 -0.5387
  622TIP3   OH223500   5.646   1.563   8.450  0.5898 -0.2177 -0.5515
  622TIP3    H123501   5.668   1.560   8.357  0.1582  1.8459 -0.7695
  622TIP3    H223502   5.708   1.626   8.486  0.2294 -0.4024  0.4085
  623TIP3   OH223503   5.371   0.407   2.156  0.8062  0.0430  0.1255
  623TIP3    H123504   5.297   0.455   2.119  1.9147  1.6745 -0.1282
  623TIP3    H223505   5.446   0.466   2.143  1.9159 -0.9885  1.5253
  624TIP3   OH223506   6.625   5.145   0.915 -0.4952  0.0646  0.5329
  624TIP3    H123507   6.655   5.081   0.979  1.7631  0.1097 -0.3869
  624TIP3    H223508   6.600   5.094   0.839  1.0330  0.1947 -0.0963
  625TIP3   OH223509   3.425   3.660   2.419  0.3772  0.3119  0.2024
  625TIP3    H123510   3.408   3.752   2.396  3.0105  1.0335  0.8007
  625TIP3    H223511   3.451   3.620   2.336  0.5679  0.4903  0.1720
  626TIP3   OH223512   2.937   6.683   0.838 -0.1406  0.1776  1.0455
  626TIP3    H123513   2.972   6.639   0.916  1.5318  1.6699  1.2083
  626TIP3    H223514   2.958   6.775   0.851  1.4909  0.3230 -1.7907
  627TIP3   OH223515   0.525   5.233   2.841  0.2361  0.3489  0.3351
  627TIP3    H123516   0.556   5.144   2.860  1.0742  0.7422  0.8610
  627TIP3    H223517   0.605   5.283   2.825 -0.3013  0.5985 -1.9043
  628TIP3   OH223518   3.486   2.616   2.809  0.0113  0.1789  0.1484
  628TIP3    H123519   3.421   2.672   2.767  0.6610  1.8801  1.3179
  628TIP3    H223520   3.437   2.538   2.836 -1.1244  0.5913 -0.6419
  629TIP3   OH223521   5.703   5.976   1.028 -0.1693 -0.5584 -0.2064
  629TIP3    H123522   5.746   6.044   1.080 -0.2851 -0.3761 -0.3499
  629TIP3    H223523   5.697   6.013   0.940 -0.7265 -0.5397 -0.1599
  630TIP3   OH223524   4.237   2.161   2.165  0.2063  0.2577 -0.3454
  630TIP3    H123525   4.332   2.153   2.163  0.5190  2.4651  1.1587
  630TIP3    H223526   4.209   2.156   2.074  1.7929 -0.1737 -0.8244
  631TIP3   OH223527   4.563   5.171   8.360  0.0868  0.0171  0.3122
  631TIP3    H123528   4.509   5.250   8.360  0.0433 -0.0122  0.4466
  631TIP3    H223529   4.650   5.201   8.334 -0.5634 -0.3393 -2.6648
  632TIP3   OH223530   3.400   6.061   1.977  0.3431  0.6786  0.3071
  632TIP3    H123531   3.405   6.019   2.063  2.6155  2.4170  1.1059
  632TIP3    H223532   3.320   6.114   1.982 -0.9487 -1.1685  0.3399
  633TIP3   OH223533   4.226   5.361   1.723 -0.5408 -0.7759 -0.2147
  633TIP3    H123534   4.162   5.317   1.666 -0.8540  0.0184 -0.4847
  633TIP3    H223535   4.304   5.371   1.668  0.1057 -2.3931  0.3322
  634TIP3   OH223536   1.245   4.702   1.742 -0.2446  0.1948  0.7065
  634TIP3    H123537   1.311   4.649   1.699 -0.2153  0.6861  0.1415
  634TIP3    H223538   1.167   4.646   1.745 -0.6326  0.5753 -1.1216
  635TIP3   OH223539   4.205   6.057   3.190  0.2030 -0.9700 -0.3187
  635TIP3    H123540   4.241   6.145   3.205  0.0322 -0.9882  0.2294
  635TIP3    H223541   4.282   6.002   3.176  0.3616 -0.8959  0.2337
  636TIP3   OH223542   1.599   3.763   0.570 -0.1481  0.9578  0.0875
  636TIP3    H123543   1.679   3.721   0.538  0.1873  1.3858  0.3487
  636TIP3    H223544   1.535   3.692   0.577  1.1290 -0.0576  3.0016
  637TIP3   OH223545   1.741   5.685   0.214 -0.3236 -0.2966 -0.7570
  637TIP3    H123546   1.646   5.696   0.204 -0.3338  0.2753 -0.1196
  637TIP3    H223547   1.750   5.608   0.270 -0.4771  0.5154  0.4315
  638TIP3   OH223548   3.318   5.753   1.522  0.2859 -0.6044  0.0627
  638TIP3    H123549   3.303   5.845   1.544 -2.7063 -0.3308 -2.4729
  638TIP3    H223550   3.251   5.705   1.572  2.1656 -1.5964  1.7970
  639TIP3   OH223551   6.659   5.656   0.512  0.1703  0.6153  0.1426
  639TIP3    H123552   6.595   5.664   0.582 -0.7439  1.8276 -0.7790
  639TIP3    H223553   6.686   5.564   0.514 -1.2447  0.1908  0.8556
  640TIP3   OH223554   1.587   5.303   1.641  0.1743 -0.6787  0.4632
  640TIP3    H123555   1.509   5.357   1.650 -0.0799  0.0350 -3.6486
  640TIP3    H223556   1.555   5.214   1.627  0.1999 -0.6974  0.5211
  641TIP3   OH223557   0.823   4.372   0.406  0.3754 -0.1350 -0.6215
  641TIP3    H123558   0.822   4.345   0.498 -2.4926 -0.3801 -0.6340
  641TIP3    H223559   0.888   4.315   0.365  1.7041 -0.0269  1.2126
  642TIP3   OH223560   2.187   5.574   1.294  0.4204 -0.2532 -0.1120
  642TIP3    H123561   2.282   5.563   1.287  0.2847 -1.6256 -0.0970
  642TIP3    H223562   2.175   5.638   1.364  1.3875  1.8745 -1.7712
  643TIP3   OH223563   0.224   1.553   2.485  0.6232 -0.2244 -0.6029
  643TIP3    H123564   0.239   1.576   2.577  0.8613  1.4304 -1.0143
  643TIP3    H223565   0.130   1.536   2.480  0.1259  2.1114 -0.4768
  644TIP3   OH223566   4.147   6.616   8.636  0.7680  0.4587  0.4632
  644TIP3    H123567   4.056   6.587   8.643  1.3443 -1.6859 -0.0610
  644TIP3    H223568   4.161   6.670   8.714 -0.8460  0.5665  0.7164
  645TIP3   OH223569   5.703   5.501   0.872  0.0739 -0.3464  0.8875
  645TIP3    H123570   5.687   5.568   0.938  0.4590 -0.5328  1.1680
  645TIP3    H223571   5.619   5.458   0.860 -0.1108  0.0089  0.9003
  646TIP3   OH223572   2.504   5.259   8.596  0.4820 -0.2419 -0.0177
  646TIP3    H123573   2.528   5.352   8.593  0.1433 -0.1356  0.4842
  646TIP3    H223574   2.532   5.230   8.682 -1.5018 -0.0212  0.7475
  647TIP3   OH223575   5.122   2.848   8.210 -0.4729 -0.1452  0.2310
  647TIP3    H123576   5.030   2.861   8.233 -0.5380  0.4939 -0.3750
  647TIP3    H223577   5.135   2.753   8.218 -0.6247 -0.0440  2.3352
  648TIP3   OH223578   5.801   6.525   0.559 -0.4944  0.1243 -0.9081
  648TIP3    H123579   5.895   6.510   0.566 -0.9512 -3.0498  0.2710
  648TIP3    H223580   5.778   6.498   0.470 -0.4571 -0.3434 -0.7770
  649TIP3   OH223581   2.783   2.845   0.966  0.2616  0.1010  0.2298
  649TIP3    H123582   2.852   2.790   1.004  0.1742 -0.3126 -0.1916
  649TIP3    H223583   2.738   2.786   0.905 -0.4797  0.3633  0.5246
  650TIP3   OH223584   3.651   2.126   1.639 -0.6712  0.0938  0.2641
  650TIP3    H123585   3.584   2.127   1.707 -0.9685  1.3241 -0.0271
  650TIP3    H223586   3.718   2.187   1.669 -0.3616 -0.0462 -0.1201
  651TIP3   OH223587   0.903   5.773   1.691 -0.4495  0.0226  0.6363
  651TIP3    H123588   0.836   5.812   1.747  0.2399 -0.8741  2.1374
  651TIP3    H223589   0.954   5.718   1.749 -0.5476 -2.0699 -1.1203
  652TIP3   OH223590   3.392   6.216   0.990 -0.2758 -0.2369  0.1803
  652TIP3    H123591   3.324   6.175   0.936 -3.2610  2.5491  1.4879
  652TIP3    H223592   3.418   6.294   0.940  2.9846 -1.7847 -0.8129
  653TIP3   OH223593   2.229   6.571   8.622  0.1422 -0.0935  0.2179
  653TIP3    H123594   2.308   6.623   8.610  0.7183 -1.0712 -0.3065
  653TIP3    H223595   2.258   6.494   8.671 -0.7581  0.1900  1.2576
  654TIP3   OH223596   2.193   1.761   2.752  0.4681 -0.6962  0.0901
  654TIP3    H123597   2.278   1.799   2.732  0.5829  0.8018  2.9510
  654TIP3    H223598   2.194   1.746   2.846 -2.0309 -1.7481  0.0488
  655TIP3   OH223599   2.339   5.945   7.926 -0.1063  0.6547  0.1741
  655TIP3    H123600   2.389   5.864   7.928 -0.2814  0.4937 -1.1508
  655TIP3    H223601   2.393   6.005   7.875 -0.7764  0.8110 -0.3658
  656TIP3   OH223602   2.792   1.125   2.314  0.7022 -0.0273  0.4473
  656TIP3    H123603   2.699   1.138   2.335  0.7491  0.8357  0.1595
  656TIP3    H223604   2.821   1.209   2.280  0.8092 -1.1045 -2.4189
  657TIP3   OH223605   0.609   1.396   0.957 -1.0993 -0.0079  0.3241
  657TIP3    H123606   0.607   1.301   0.953  1.5079 -0.1436  0.5997
  657TIP3    H223607   0.652   1.423   0.875 -2.0269  0.9755  0.1303
  658TIP3   OH223608   4.978   0.710   2.811 -0.1538 -0.3462 -0.9569
  658TIP3    H123609   5.072   0.701   2.795 -0.3372 -0.5561 -1.9758
  658TIP3    H223610   4.965   0.671   2.898  0.8278  0.5098 -0.4015
  659TIP3   OH223611   1.836   5.803   1.248  0.7471  0.1740  0.0811
  659TIP3    H123612   1.773   5.866   1.214  1.3945  0.9026  0.2040
  659TIP3    H223613   1.845   5.826   1.341 -0.8471 -1.6611  0.7585
  660TIP3   OH223614   3.354   3.091   8.230  0.2571  0.3670  0.4374
  660TIP3    H123615   3.278   3.122   8.182  0.8399 -0.4277 -1.0701
  660TIP3    H223616   3.403   3.039   8.166  0.6355 -1.4877  2.1364
  661TIP3   OH223617   4.004   0.856   2.207  0.3254 -0.3636 -0.5152
  661TIP3    H123618   4.055   0.925   2.166  0.3002  0.0466  0.1242
  661TIP3    H223619   4.067   0.786   2.225  0.8476  0.4518  0.9878
  662TIP3   OH223620   0.617   1.833   1.525 -0.2536 -0.0967  0.1613
  662TIP3    H123621   0.584   1.748   1.554 -1.7444  1.1832  2.4592
  662TIP3    H223622   0.699   1.845   1.573  0.3412 -0.5191 -0.7225
  663TIP3   OH223623   2.591   5.911   2.396  0.5479  0.0355  0.1057
  663TIP3    H123624   2.552   5.996   2.420  0.5840  0.1767 -0.3293
  663TIP3    H223625   2.523   5.868   2.345  0.3969 -0.3470  0.6252
  664TIP3   OH223626   6.418   0.133   7.887  0.1697 -0.7977  0.2589
  664TIP3    H123627   6.405   0.052   7.837 -0.4036 -0.7091  0.2494
  664TIP3    H223628   6.329   0.161   7.910  0.3139  0.1869 -0.3086
  665TIP3   OH223629   1.857   5.194   1.671 -0.3359 -0.5011 -0.0872
  665TIP3    H123630   1.882   5.188   1.763  1.4108  3.3736 -0.1409
  665TIP3    H223631   1.764   5.218   1.674 -1.1523 -3.3460  0.4478
  666TIP3   OH223632   4.944   6.468   2.443 -0.2137 -0.2866 -0.1970
  666TIP3    H123633   4.858   6.479   2.401 -0.8759  0.1485  1.2144
  666TIP3    H223634   4.926   6.473   2.537  0.8237 -3.9704  0.3537
  667TIP3   OH223635   2.252   6.607   3.370  0.1173 -0.4536 -0.2871
  667TIP3    H123636   2.340   6.643   3.374  0.5816 -1.5255 -0.5134
  667TIP3    H223637   2.228   6.611   3.277  0.4201 -1.2789 -0.4089
  668TIP3   OH223638   5.088   4.303   3.008 -0.4968 -0.4944  0.0748
  668TIP3    H123639   5.100   4.302   3.103  0.9849 -3.2462 -0.0198
  668TIP3    H223640   5.153   4.241   2.975 -0.2123  1.1956 -2.8784
  669TIP3   OH223641   4.629   2.858   1.149  0.5370 -0.0496 -0.2217
  669TIP3    H123642   4.673   2.792   1.203 -0.0765 -1.2172 -1.1294
  669TIP3    H223643   4.550   2.815   1.118  0.8896  0.5766 -2.0969
  670TIP3   OH223644   1.881   4.550   1.957  0.0558  0.0925 -0.4701
  670TIP3    H123645   1.802   4.546   1.903  0.6495 -1.9994 -1.3001
  670TIP3    H223646   1.948   4.587   1.900  0.1106  0.1307 -0.3819
  671TIP3   OH223647   6.512   2.774   2.923 -0.4258 -0.1587 -0.0018
  671TIP3    H123648   6.483   2.689   2.888 -1.4250 -0.2826  1.0566
  671TIP3    H223649   6.515   2.761   3.017 -1.4722  1.2187  0.2558
  672TIP3   OH223650   2.647   2.833   8.589 -0.5446 -0.0954  0.3380
  672TIP3    H123651   2.702   2.768   8.544 -0.9611 -0.5384  0.4696
  672TIP3    H223652   2.594   2.871   8.519 -1.0607 -0.6547  0.4155
  673TIP3   OH223653   4.842   3.052   1.112  0.4885  0.2810  0.1625
  673TIP3    H123654   4.771   2.988   1.116 -0.4841  1.3567  0.6544
  673TIP3    H223655   4.878   3.054   1.201  0.1704  0.7928  0.2810
  674TIP3   OH223656   4.357   6.445   0.346 -0.0696  0.5512  0.0887
  674TIP3    H123657   4.421   6.389   0.391  0.2070  0.1747 -0.7449
  674TIP3    H223658   4.385   6.444   0.255 -0.7508  1.1175 -0.1338
  675TIP3   OH223659   4.146   4.638   9.034 -0.3307  0.4368 -0.3209
  675TIP3    H123660   4.137   4.687   8.953 -1.1843  0.0159 -0.4880
  675TIP3    H223661   4.147   4.546   9.007 -1.0708  0.2706  0.1686
  676TIP3   OH223662   6.338   0.981   0.499 -0.2236  0.0781  0.2029
  676TIP3    H123663   6.319   0.905   0.553  2.3578 -0.0816  1.0029
  676TIP3    H223664   6.264   0.986   0.438 -3.1716  0.1380  3.4962
  677TIP3   OH223665   2.340   5.331   2.363  0.4593 -0.6724 -0.1333
  677TIP3    H123666   2.271   5.352   2.300  0.5055  1.1672  0.3956
  677TIP3    H223667   2.293   5.307   2.443  0.4301 -0.6619 -0.1474
  678TIP3   OH223668   5.636   3.533   2.992  0.3621 -0.5635  0.0855
  678TIP3    H123669   5.704   3.473   3.023 -0.1620 -1.3574 -0.2846
  678TIP3    H223670   5.638   3.524   2.897  0.2888  0.0201  0.0290
  679TIP3   OH223671   1.675   1.987   0.279  0.1053  0.5465  0.2138
  679TIP3    H123672   1.653   2.080   0.278 -1.6106  0.2239  1.6700
  679TIP3    H223673   1.627   1.953   0.355  0.3034 -1.6105 -0.5788
  680TIP3   OH223674   1.111   1.985   2.783 -0.1294  0.1903 -0.3838
  680TIP3    H123675   1.070   1.932   2.715 -0.1213 -0.3763  0.0469
  680TIP3    H223676   1.178   2.035   2.737 -0.7426  0.5086 -0.9497
  681TIP3   OH223677   1.241   6.468   1.672  0.0035 -0.5061 -0.0940
  681TIP3    H123678   1.179   6.452   1.743  0.1968 -1.5280 -0.1285
  681TIP3    H223679   1.216   6.552   1.635  0.6076  0.6205  1.9250
  682TIP3   OH223680   5.851   4.017   2.316 -0.0451 -0.0933 -0.0957
  682TIP3    H123681   5.906   4.005   2.239 -0.6081 -0.2973 -0.4748
  682TIP3    H223682   5.770   3.971   2.294 -1.4010  2.3757 -0.6469
  683TIP3   OH223683   2.211   4.779   3.484 -0.5423 -1.1690 -0.4052
  683TIP3    H123684   2.169   4.694   3.497 -1.0217 -0.9270 -0.3595
  683TIP3    H223685   2.305   4.761   3.493 -0.7344 -1.0439  3.4738
  684TIP3   OH223686   4.131   3.536   0.119 -0.1712  0.5317  0.5428
  684TIP3    H123687   4.058   3.594   0.140 -0.0143 -0.0050  2.7622
  684TIP3    H223688   4.090   3.454   0.090 -0.5089  0.0329  2.3288
  685TIP3   OH223689   4.741   4.033   1.938  0.5842  0.1250 -0.0035
  685TIP3    H123690   4.815   4.089   1.964  1.3812 -1.2898  0.8789
  685TIP3    H223691   4.781   3.948   1.918 -0.7285 -0.4442 -0.2877
  686TIP3   OH223692   6.530   4.660   8.863 -0.4434 -0.0828  0.1874
  686TIP3    H123693   6.561   4.573   8.887 -0.8877  0.1208  1.5938
  686TIP3    H223694   6.435   4.652   8.858 -0.4454  0.1856 -0.2555
  687TIP3   OH223695   3.002   3.626   8.930  0.0108 -0.6237  0.6881
  687TIP3    H123696   2.995   3.534   8.957 -3.2875 -0.2435  1.4349
  687TIP3    H223697   2.936   3.636   8.862 -0.5021  1.4488  1.4286
  688TIP3   OH223698   2.448   4.183   8.294  0.4221  1.0338  0.3231
  688TIP3    H123699   2.436   4.217   8.205 -0.8285 -0.6252 -0.1889
  688TIP3    H223700   2.399   4.243   8.349 -1.6340  0.2501 -0.5474
  689TIP3   OH223701   5.045   5.919   1.072  0.0564 -0.7598 -0.0297
  689TIP3    H123702   5.137   5.922   1.046  0.6725 -0.2904  2.0585
  689TIP3    H223703   5.004   5.862   1.007  1.7145 -0.6150 -1.2705
  690TIP3   OH223704   0.617   5.872   2.770  0.2126 -0.0859  0.2933
  690TIP3    H123705   0.569   5.820   2.834 -1.2028  0.2927 -0.4141
  690TIP3    H223706   0.551   5.932   2.734  1.1638  0.2698 -0.9098
  691TIP3   OH223707   0.683   0.360   0.488  0.3917  0.3825  0.2604
  691TIP3    H123708   0.686   0.298   0.415 -1.5636 -0.3553  0.7303
  691TIP3    H223709   0.671   0.446   0.446  1.3451  0.2322 -0.3388
  692TIP3   OH223710   2.329   5.808   8.837  0.4137  0.5415 -0.1589
  692TIP3    H123711   2.363   5.821   8.749  2.3516 -1.7964  0.1334
  692TIP3    H223712   2.406   5.783   8.889 -1.1743 -1.5076  1.3852
  693TIP3   OH223713   3.430   1.988   0.999  0.6288  0.3276 -0.1745
  693TIP3    H123714   3.349   1.991   0.947  0.2610  0.0120  0.3655
  693TIP3    H223715   3.462   2.078   0.998  0.2560  0.4625 -0.3723
  694TIP3   OH223716   4.437   0.490   0.713  1.1112 -0.0669 -0.0394
  694TIP3    H123717   4.395   0.501   0.798 -1.1147 -1.0149 -0.9343
  694TIP3    H223718   4.389   0.417   0.672  1.4861  0.9500 -2.4559
  695TIP3   OH223719   1.343   4.933   7.524  0.0046  0.0159 -0.1107
  695TIP3    H123720   1.253   4.954   7.500 -0.2076  2.4346  2.3097
  695TIP3    H223721   1.381   5.016   7.553  2.4197 -1.2808  0.7798
  696TIP3   OH223722   5.166   3.130   2.127  0.0821 -0.6082  0.6298
  696TIP3    H123723   5.175   3.225   2.129 -0.0968 -0.5786  0.1339
  696TIP3    H223724   5.203   3.104   2.042  0.0131 -0.9654  0.7079
  697TIP3   OH223725   4.574   6.032   0.703  0.4191  0.3408 -0.4049
  697TIP3    H123726   4.648   6.075   0.659  2.2787 -0.0358  2.0952
  697TIP3    H223727   4.554   6.090   0.777 -0.9376 -0.2399 -0.2860
  698TIP3   OH223728   2.085   6.574   1.414  0.3104  0.0832  0.3074
  698TIP3    H123729   2.081   6.656   1.364 -1.2282 -0.5234 -0.6504
  698TIP3    H223730   2.168   6.534   1.389 -0.4215 -0.2133 -1.8619
  699TIP3   OH223731   2.807   5.209   8.346 -0.0525 -0.2462 -0.1827
  699TIP3    H123732   2.872   5.139   8.356 -0.6609 -0.6439  1.2731
  699TIP3    H223733   2.859   5.289   8.339  0.6450 -0.3495  2.7346
  700TIP3   OH223734   3.607   6.143   8.962 -0.0021 -0.0584 -0.1523
  700TIP3    H123735   3.593   6.061   9.009 -4.0746  0.6729  0.3172
  700TIP3    H223736   3.582   6.211   9.025  4.3943  1.8460 -0.0806
  701TIP3   OH223737   6.506   5.310   2.395 -0.1140 -0.3900 -0.0676
  701TIP3    H123738   6.515   5.257   2.474  2.8940  1.4787  1.0033
  701TIP3    H223739   6.412   5.324   2.387 -0.7595 -3.0239  1.4616
  702TIP3   OH223740   3.282   5.497   8.393 -0.2228  0.0973  0.1841
  702TIP3    H123741   3.355   5.517   8.334 -0.4811  1.3934  0.2608
  702TIP3    H223742   3.237   5.581   8.403  0.1862  0.0675  2.7491
  703TIP3   OH223743   2.952   1.199   3.591 -0.0884 -0.2712 -0.2530
  703TIP3    H123744   3.039   1.159   3.592 -0.6002 -1.4261  0.0347
  703TIP3    H223745   2.914   1.172   3.508 -0.6001 -0.7586  0.1316
  704TIP3   OH223746   5.543   0.098   0.554 -0.2587 -0.2580 -0.1743
  704TIP3    H123747   5.550   0.188   0.525 -1.0086 -0.2823 -0.4429
  704TIP3    H223748   5.452   0.088   0.580  0.1312 -0.5398  1.1937
  705TIP3   OH223749   5.186   3.968   2.509 -0.1142 -0.2463  0.1841
  705TIP3    H123750   5.273   4.003   2.489 -0.4157 -0.6486 -2.0944
  705TIP3    H223751   5.202   3.882   2.547  0.5113  0.8163  2.5396
  706TIP3   OH223752   3.196   3.456   2.030  0.3881  0.1731  0.1779
  706TIP3    H123753   3.262   3.474   2.096  0.8130  0.7025 -0.3821
  706TIP3    H223754   3.137   3.531   2.033  0.9116  0.6291 -0.6447
  707TIP3   OH223755   6.519   0.662   0.141  0.7351  0.2432 -0.1939
  707TIP3    H123756   6.526   0.703   0.054  3.6246  0.7805  0.2091
  707TIP3    H223757   6.572   0.717   0.198 -1.2775  0.0373  2.0507
  708TIP3   OH223758   2.007   5.898   1.002 -0.1666  0.3211  0.0595
  708TIP3    H123759   1.948   5.839   1.048  0.6797 -0.0441  0.6978
  708TIP3    H223760   1.961   5.982   1.001 -0.7506  0.0132  0.4196
  709TIP3   OH223761   0.404   2.090   1.725 -0.2561 -0.5726  0.1718
  709TIP3    H123762   0.320   2.077   1.680 -0.0365 -0.2801 -0.3294
  709TIP3    H223763   0.417   2.009   1.774  0.0321 -1.3705 -1.1767
  710TIP3   OH223764   4.385   3.403   2.887 -0.5213 -0.0633  0.2612
  710TIP3    H123765   4.475   3.387   2.915 -0.3156 -0.2674 -0.4837
  710TIP3    H223766   4.332   3.379   2.963  0.0104 -0.7452  0.4307
  711TIP3   OH223767   0.639   1.413   2.358  0.4084  0.0646  0.0083
  711TIP3    H123768   0.673   1.503   2.359  0.6832 -0.0395  1.1302
  711TIP3    H223769   0.544   1.424   2.359  0.4424  0.3514  0.8373
  712TIP3   OH223770   1.329   1.433   2.853  0.3855 -0.1877 -0.2610
  712TIP3    H123771   1.320   1.419   2.947 -0.6058  0.7691 -0.1937
  712TIP3    H223772   1.308   1.348   2.813 -0.4047 -0.2808  0.3290
  713TIP3   OH223773   1.363   3.772   1.132  0.1365 -0.0204 -0.5233
  713TIP3    H123774   1.341   3.861   1.105 -0.1138  0.0316 -0.1546
  713TIP3    H223775   1.387   3.780   1.224  0.6034 -0.2569 -0.6227
  714TIP3   OH223776   6.274   1.336   0.318  0.3735 -0.0049 -0.1621
  714TIP3    H123777   6.302   1.308   0.231 -0.0768  0.3806 -0.4337
  714TIP3    H223778   6.229   1.419   0.304  0.5734  0.2200  0.4794
  715TIP3   OH223779   3.627   3.555   7.795 -0.4596 -0.1893  0.4375
  715TIP3    H123780   3.572   3.487   7.834 -0.3652  0.3045  1.4406
  715TIP3    H223781   3.657   3.516   7.712 -2.1322 -0.5470 -0.0407
  716TIP3   OH223782   2.576   4.893   7.897  0.0533  0.1556 -0.0063
  716TIP3    H123783   2.640   4.944   7.946  0.7202 -2.3674  1.9154
  716TIP3    H223784   2.625   4.855   7.824  0.0529  0.5193 -0.1975
  717TIP3   OH223785   5.999   1.750   3.157  0.2789 -0.2850 -0.5950
  717TIP3    H123786   6.067   1.694   3.119  0.8250  0.4403 -0.6986
  717TIP3    H223787   6.012   1.835   3.116  0.7947  0.4888  1.1182
  718TIP3   OH223788   2.933   5.905   1.566 -0.4043  0.0311 -0.0322
  718TIP3    H123789   2.996   5.870   1.628  0.9241  2.3003  0.0148
  718TIP3    H223790   2.892   5.978   1.612 -0.8379  0.4961 -1.1190
  719TIP3   OH223791   0.468   2.350   1.595  0.1014  0.4003 -0.3020
  719TIP3    H123792   0.409   2.276   1.580  1.4132 -0.7406  0.0105
  719TIP3    H223793   0.431   2.393   1.673 -0.2044 -0.4235  0.0248
  720TIP3   OH223794   1.171   5.823   1.927  0.0018 -0.0342  0.6443
  720TIP3    H123795   1.264   5.817   1.904  0.2541  0.9893  1.3623
  720TIP3    H223796   1.136   5.735   1.910  0.7090  0.0174 -1.2821
  721TIP3   OH223797   1.622   5.470   2.366 -0.3805  0.0536 -0.0898
  721TIP3    H123798   1.591   5.447   2.279 -0.1659  1.5419 -0.5942
  721TIP3    H223799   1.582   5.555   2.384  0.3997  0.2454  0.8227
  722TIP3   OH223800   2.891   6.029   2.571 -0.3929 -0.2699 -0.4646
  722TIP3    H123801   2.809   6.032   2.620 -0.5209 -1.1245 -0.6143
  722TIP3    H223802   2.935   5.950   2.602  0.0062 -0.2487 -0.9580
  723TIP3   OH223803   0.629   0.362   1.133  0.1478  0.1348 -0.1105
  723TIP3    H123804   0.710   0.405   1.107 -0.2032  0.7970 -0.1353
  723TIP3    H223805   0.560   0.420   1.100 -0.3139  0.6123  1.6278
  724TIP3   OH223806   1.904   5.839   2.898 -0.5979  0.0549 -0.2740
  724TIP3    H123807   1.998   5.841   2.919 -0.7024  0.1130  0.2071
  724TIP3    H223808   1.866   5.779   2.962 -1.0875  1.0615  0.4161
  725TIP3   OH223809   0.191   6.015   3.264 -0.1255 -0.1673 -0.8352
  725TIP3    H123810   0.144   6.021   3.348  1.4281 -0.5981  0.0966
  725TIP3    H223811   0.129   6.049   3.200 -1.2980  0.3358  0.5124
  726TIP3   OH223812   0.487   5.331   1.952  0.0629 -0.2944  0.1793
  726TIP3    H123813   0.473   5.423   1.932  2.1005  0.3233  1.3556
  726TIP3    H223814   0.449   5.284   1.877  1.2715  1.5991 -1.7188
  727TIP3   OH223815   0.071   5.097   0.087 -0.0391 -0.2645 -0.2861
  727TIP3    H123816   0.095   5.005   0.079  0.4471 -0.2306  0.7203
  727TIP3    H223817  -0.024   5.097   0.104  0.0347 -0.5931  0.1148
  728TIP3   OH223818   2.569   5.049   8.432  0.1570 -0.1055  0.5859
  728TIP3    H123819   2.569   5.135   8.474 -2.0158  0.7111 -0.9221
  728TIP3    H223820   2.628   5.059   8.357  1.1545 -0.4422  1.3127
  729TIP3   OH223821   0.900   2.189   0.850 -0.3088  0.4194  0.1507
  729TIP3    H123822   0.912   2.226   0.762 -0.0237 -0.2702 -0.1114
  729TIP3    H223823   0.988   2.170   0.880 -0.4058  0.7060  0.6146
  730TIP3   OH223824   2.389   5.794   8.253 -0.1982  0.1622  0.1023
  730TIP3    H123825   2.373   5.879   8.213 -2.1683 -0.1873  0.0146
  730TIP3    H223826   2.476   5.801   8.293  0.8646  1.2866 -2.2133
  731TIP3   OH223827   3.391   1.207   1.895 -0.0504 -0.1788  0.0736
  731TIP3    H123828   3.414   1.210   1.802 -0.0590 -0.9526  0.0379
  731TIP3    H223829   3.401   1.115   1.919  1.3688  0.2375  1.2103
  732TIP3   OH223830   1.700   3.782   7.617 -0.3154 -0.4925  0.3724
  732TIP3    H123831   1.725   3.842   7.546 -0.3068 -2.4131 -1.3593
  732TIP3    H223832   1.608   3.763   7.600 -0.0535 -1.7353  0.2614
  733TIP3   OH223833   4.804   3.225   3.021 -0.0068 -0.6700 -0.2956
  733TIP3    H123834   4.760   3.309   3.013  0.1395 -0.7157 -1.7607
  733TIP3    H223835   4.734   3.160   3.010 -0.2837 -0.7967  1.7123
  734TIP3   OH223836   5.217   5.638   2.471  0.3425  0.0370 -0.2223
  734TIP3    H123837   5.161   5.579   2.422  0.4131 -1.0805  0.9708
  734TIP3    H223838   5.190   5.627   2.562  1.7376  0.2861  0.2568
  735TIP3   OH223839   2.335   2.066   1.207 -0.0950  0.3972 -0.0329
  735TIP3    H123840   2.338   2.064   1.302  0.5266  0.1177 -0.0492
  735TIP3    H223841   2.427   2.059   1.180 -0.2317  0.9020 -0.6445
  736TIP3   OH223842   0.142   5.520   2.454  0.0956 -0.3036 -0.2722
  736TIP3    H123843   0.076   5.519   2.384  1.4613 -0.5865 -1.6117
  736TIP3    H223844   0.206   5.454   2.427  1.3594  0.5356  0.5600
  737TIP3   OH223845   1.714   5.573   8.333 -0.0836 -0.0140  0.1731
  737TIP3    H123846   1.725   5.494   8.280  0.4363 -0.1249  0.4430
  737TIP3    H223847   1.689   5.541   8.419 -0.6094  0.1535  0.0862
  738TIP3   OH223848   1.327   5.058   8.316  0.7545 -0.1792  0.9407
  738TIP3    H123849   1.359   4.971   8.289 -0.1621  0.1673 -1.5328
  738TIP3    H223850   1.404   5.114   8.310  1.1520 -0.6315  1.6657
  739TIP3   OH223851   5.882   1.524   0.419  0.1618 -0.0842  0.1275
  739TIP3    H123852   5.956   1.467   0.439 -0.6220 -1.3686 -0.5084
  739TIP3    H223853   5.816   1.503   0.485 -0.6092 -0.8621 -0.8627
  740TIP3   OH223854   1.802   1.125   8.416 -0.6819  0.1153 -0.0100
  740TIP3    H123855   1.841   1.209   8.438 -0.3654 -0.2039  0.6791
  740TIP3    H223856   1.766   1.137   8.328  2.6205 -0.1252 -1.5625
  741TIP3   OH223857   3.105   2.812   0.330 -0.0963 -0.0361 -0.0650
  741TIP3    H123858   3.136   2.902   0.343 -1.2894  0.3695  0.0752
  741TIP3    H223859   3.149   2.762   0.399 -0.8801  0.8097  1.0970
  742TIP3   OH223860   4.843   5.362   7.801 -0.0490 -0.1350  0.2516
  742TIP3    H123861   4.924   5.347   7.849 -0.1716 -0.0706  0.4809
  742TIP3    H223862   4.775   5.322   7.856 -0.2185  0.1384  0.2440
  743TIP3   OH223863   4.487   1.280   0.949  0.2999 -0.8817  0.1888
  743TIP3    H123864   4.552   1.283   0.879 -0.4750  0.3598 -0.5175
  743TIP3    H223865   4.445   1.195   0.938  0.8076 -1.0800 -0.2756
  744TIP3   OH223866   1.121   3.257   0.655  0.0392 -0.2882 -0.3615
  744TIP3    H123867   1.037   3.215   0.633 -0.3547  0.0617  0.4296
  744TIP3    H223868   1.147   3.215   0.738 -0.1107  0.6693  0.1793
  745TIP3   OH223869   0.124   5.982   8.291 -0.0252 -0.1003  0.8192
  745TIP3    H123870   0.036   6.007   8.262  0.8387 -0.9279 -3.0676
  745TIP3    H223871   0.161   6.064   8.325 -1.4603  0.8678  0.1972
  746TIP3   OH223872   6.614   6.118   8.163  0.1908  0.1041 -0.2851
  746TIP3    H123873   6.582   6.148   8.248 -0.2791 -1.3463  0.0748
  746TIP3    H223874   6.537   6.124   8.105  0.2705  0.2126 -0.3810
  747TIP3   OH223875   4.078   3.130   7.789  0.3726  0.6266 -0.1426
  747TIP3    H123876   4.114   3.065   7.850  1.0684  1.1279 -0.0037
  747TIP3    H223877   4.029   3.078   7.725  1.8005 -0.1532 -0.6479
  748TIP3   OH223878   0.936   3.521   2.093 -0.3692  0.0826 -0.1951
  748TIP3    H123879   0.960   3.476   2.174 -1.2292 -0.5114 -0.2483
  748TIP3    H223880   0.858   3.474   2.063 -0.8827  1.1856 -0.6301
  749TIP3   OH223881   2.323   6.210   3.471  0.0913  0.2457 -0.4569
  749TIP3    H123882   2.385   6.138   3.487 -0.0221  0.1814 -0.2901
  749TIP3    H223883   2.359   6.284   3.520 -0.2312  0.0625  0.0697
  750TIP3   OH223884   3.534   4.238   1.878  0.2558 -0.2659  0.3200
  750TIP3    H123885   3.483   4.316   1.900 -1.0397  0.3587 -3.9983
  750TIP3    H223886   3.622   4.270   1.859 -0.1224  0.1376 -0.8584
  751TIP3   OH223887   5.198   3.953   8.206  0.0216  0.6139 -0.3027
  751TIP3    H123888   5.129   3.976   8.144  0.0936  1.0690 -0.2220
  751TIP3    H223889   5.157   3.894   8.268 -0.5238  1.5232  0.2211
  752TIP3   OH223890   3.724   5.160   1.138  0.5281 -0.1676  1.2256
  752TIP3    H123891   3.660   5.165   1.208 -1.5103 -1.5615 -0.4322
  752TIP3    H223892   3.772   5.079   1.154  0.2392 -0.3544  1.1429
  753TIP3   OH223893   5.543   6.513   1.906  0.0518  0.4488 -0.1421
  753TIP3    H123894   5.597   6.582   1.865  0.3645  0.2443 -0.0765
  753TIP3    H223895   5.468   6.503   1.847  0.9678 -0.5081 -1.1825
  754TIP3   OH223896   1.040   6.710   2.079  0.0728 -0.7000  0.1299
  754TIP3    H123897   1.097   6.703   2.003 -0.0617 -1.7599  0.1142
  754TIP3    H223898   1.025   6.804   2.090  0.9872 -0.4807 -0.4792
  755TIP3   OH223899   1.479   1.460   1.318  0.7341 -0.3585  0.2913
  755TIP3    H123900   1.528   1.402   1.260 -2.0132 -1.2244 -1.3897
  755TIP3    H223901   1.508   1.548   1.294  0.9492 -0.8064 -1.2002
  756TIP3   OH223902   3.602   0.804   1.469 -0.2417 -0.3467  0.2939
  756TIP3    H123903   3.652   0.834   1.394  1.4134  1.5298  2.0235
  756TIP3    H223904   3.617   0.870   1.536 -2.3803 -1.4610  2.0115
  757TIP3   OH223905   3.772   5.513   0.896 -0.2944 -0.2883  0.4942
  757TIP3    H123906   3.839   5.472   0.841 -0.7637 -0.2265 -0.1346
  757TIP3    H223907   3.821   5.573   0.952  0.1138  0.4429 -0.5922
  758TIP3   OH223908   1.401   4.633   7.284 -0.1900 -0.4822  0.5032
  758TIP3    H123909   1.320   4.675   7.312  0.0368  0.6764 -0.4751
  758TIP3    H223910   1.379   4.541   7.275 -1.1407 -0.3342  1.1564
  759TIP3   OH223911   1.287   0.708   0.628  0.4436 -0.5692 -0.2427
  759TIP3    H123912   1.304   0.780   0.567 -0.5739 -1.5760 -1.7803
  759TIP3    H223913   1.365   0.654   0.624  0.3599 -0.6593 -0.7032
  760TIP3   OH223914   1.636   4.067   0.018 -0.0172 -0.1088 -0.2289
  760TIP3    H123915   1.659   4.125   0.091 -1.3625  0.3810 -0.1601
  760TIP3    H223916   1.540   4.070   0.015 -0.0038  1.9257 -3.6162
  761TIP3   OH223917   1.066   5.393   1.091  0.4004 -0.2930  0.1701
  761TIP3    H123918   1.068   5.474   1.142 -0.8403  0.1568 -0.4653
  761TIP3    H223919   1.157   5.381   1.063  0.7253  0.5146  0.8283
  762TIP3   OH223920   2.472   0.058   3.048 -0.5141 -0.3460  0.1443
  762TIP3    H123921   2.544   0.044   2.987  0.1919 -2.1629  1.3283
  762TIP3    H223922   2.422  -0.023   3.045 -2.1494  0.6439 -0.1471
  763TIP3   OH223923   4.893   2.125   0.480 -0.5637  0.0037  0.0284
  763TIP3    H123924   4.968   2.156   0.531 -1.4382 -0.6905  1.8084
  763TIP3    H223925   4.820   2.129   0.541 -1.4448 -1.9507 -0.8180
  764TIP3   OH223926   6.185   4.248   0.411 -0.7507  0.0512 -0.6125
  764TIP3    H123927   6.233   4.168   0.434 -0.8920 -0.6985 -2.6949
  764TIP3    H223928   6.220   4.315   0.469  0.7938 -1.1095 -0.1521
  765TIP3   OH223929   5.048   5.812   1.818  0.0701 -0.0056 -0.1483
  765TIP3    H123930   5.129   5.764   1.800  0.6780  0.6106  0.8390
  765TIP3    H223931   5.018   5.840   1.732  0.5473 -0.8030 -0.5893
  766TIP3   OH223932   4.954   5.483   2.604 -0.3813 -0.4395  0.0507
  766TIP3    H123933   4.921   5.492   2.515 -0.9097 -1.4226  0.1346
  766TIP3    H223934   4.879   5.454   2.656 -0.3939  1.2885  1.0793
  767TIP3   OH223935   5.236   5.051   1.120 -0.4511 -0.1264 -0.4558
  767TIP3    H123936   5.270   4.965   1.095  0.5615 -0.2078  1.0548
  767TIP3    H223937   5.142   5.037   1.131 -0.6603 -0.4722 -2.3803
  768TIP3   OH223938   6.575   4.151   1.636  0.2905 -0.6134  1.0095
  768TIP3    H123939   6.579   4.059   1.609 -2.2169 -0.8466  1.1452
  768TIP3    H223940   6.561   4.148   1.731 -3.9752 -0.3883  0.5738
  769TIP3   OH223941   6.302   5.402   7.733 -0.0994 -0.3954 -0.2321
  769TIP3    H123942   6.280   5.348   7.810  2.5190 -0.0195  0.8901
  769TIP3    H223943   6.239   5.375   7.666 -1.7354 -1.5848  1.6772
  770TIP3   OH223944   3.038   6.266   0.083 -0.2244 -0.2564  0.4395
  770TIP3    H123945   2.978   6.320   0.134  0.2132 -0.2441  0.9577
  770TIP3    H223946   3.061   6.194   0.142 -1.9196 -1.8430 -0.7277
  771TIP3   OH223947   0.947   4.834   1.238  0.1334  0.1140  0.1150
  771TIP3    H123948   0.886   4.869   1.173  1.5999  0.0921 -1.3445
  771TIP3    H223949   1.011   4.785   1.186  1.1608 -0.1958  1.6231
  772TIP3   OH223950   6.356   5.006   8.942  0.1670 -0.0098  0.3851
  772TIP3    H123951   6.424   5.038   8.883  0.3262 -0.2767  0.4238
  772TIP3    H223952   6.286   4.974   8.884  0.2282 -0.0701  0.3463
  773TIP3   OH223953   5.546   5.945   2.127  0.3173  0.1714  0.2747
  773TIP3    H123954   5.588   5.870   2.168 -0.4188 -0.3668  0.0643
  773TIP3    H223955   5.496   5.986   2.197 -0.2073 -0.2160  0.1338
  774TIP3   OH223956   5.163   6.680   0.971  0.4618 -0.8891 -0.1756
  774TIP3    H123957   5.136   6.589   0.955 -3.6411 -0.0112  0.5551
  774TIP3    H223958   5.110   6.732   0.912  3.8258  1.1398 -1.6980
  775TIP3   OH223959   2.212   4.113   2.090  0.1444  0.4433 -0.1813
  775TIP3    H123960   2.132   4.066   2.113  1.0070 -0.1486  1.8526
  775TIP3    H223961   2.230   4.169   2.165  1.0082  1.4605 -1.1116
  776TIP3   OH223962   6.193   0.344   8.489  0.7505  0.0120 -0.1560
  776TIP3    H123963   6.125   0.411   8.488  2.1123  1.4273 -0.6729
  776TIP3    H223964   6.159   0.274   8.433 -2.0580 -1.2509  2.7620
  777TIP3   OH223965   5.030   2.692   2.546 -0.1881  0.1280  0.5789
  777TIP3    H123966   5.028   2.597   2.556 -0.1559  0.0483 -0.1084
  777TIP3    H223967   4.951   2.712   2.496  0.1104  0.3965  0.2116
  778TIP3   OH223968   0.389   3.727   8.848 -0.6560 -0.3295  0.4166
  778TIP3    H123969   0.299   3.751   8.826 -0.6792 -1.4307 -0.8187
  778TIP3    H223970   0.397   3.636   8.820  0.6894 -0.4231  1.0244
  779TIP3   OH223971   4.093   2.662   9.081  0.3405 -0.6577  0.1385
  779TIP3    H123972   4.128   2.650   9.169  1.2935 -1.7761 -0.3556
  779TIP3    H223973   4.072   2.755   9.076  0.6337 -0.5042  1.4182
  780TIP3   OH223974   4.078   0.528   2.640  0.3703  0.3207 -0.4739
  780TIP3    H123975   4.097   0.447   2.593  1.9949  1.0336 -1.1580
  780TIP3    H223976   4.139   0.528   2.714 -0.6838  0.2207  0.4244
  781TIP3   OH223977   5.448   3.896   2.990 -0.0802 -0.1217 -0.3221
  781TIP3    H123978   5.441   3.863   3.079 -1.1278  2.4412  0.6419
  781TIP3    H223979   5.541   3.886   2.967  0.8933  1.9380  2.2634
  782TIP3   OH223980   0.473   6.528   8.422 -0.0272  0.5015 -0.1405
  782TIP3    H123981   0.479   6.434   8.439 -0.8577 -0.0789 -2.6737
  782TIP3    H223982   0.555   6.550   8.378  0.1520  0.9984  0.4141
  783TIP3   OH223983   2.079   1.055   8.360  0.6825 -0.1152  0.3063
  783TIP3    H123984   1.984   1.063   8.369  0.6540  1.5816 -0.9325
  783TIP3    H223985   2.113   1.140   8.387  1.8578 -0.6834  0.6738
  784TIP3   OH223986   3.657   2.123   0.293  0.7729  0.0478 -0.3435
  784TIP3    H123987   3.703   2.065   0.354  0.1635  0.5343  0.6041
  784TIP3    H223988   3.719   2.137   0.221  1.0500 -1.5027 -0.4316
  785TIP3   OH223989   4.538   4.658   8.690 -0.7049 -0.1720 -0.2091
  785TIP3    H123990   4.574   4.577   8.655 -2.2909 -0.7964 -0.4424
  785TIP3    H223991   4.520   4.712   8.613 -1.6416 -0.4616 -0.2036
  786TIP3   OH223992   6.648   1.677   0.316 -0.5174  0.1848  0.2781
  786TIP3    H123993   6.567   1.719   0.347 -0.0410  1.5004 -0.2024
  786TIP3    H223994   6.702   1.668   0.394  0.0184  1.9832  0.1562
  787TIP3   OH223995   1.500   2.566   3.218 -0.0424 -0.0197 -0.4661
  787TIP3    H123996   1.449   2.604   3.146 -0.8936 -0.3822 -0.0676
  787TIP3    H223997   1.536   2.486   3.182 -0.6959 -0.3435 -0.4200
  788TIP3   OH223998   4.011   2.546   7.917 -0.2854 -0.6899  0.2165
  788TIP3    H123999   4.000   2.472   7.857 -0.7629 -2.0459  1.8885
  788TIP3    H224000   4.051   2.508   7.995  0.0056  0.9424  0.8998
  789TIP3   OH224001   1.888   4.809   3.191 -0.1660  0.6471  0.1413
  789TIP3    H124002   1.930   4.723   3.197 -1.3137  0.0508 -0.1402
  789TIP3    H224003   1.850   4.823   3.278 -2.5048 -0.5025 -0.5979
  790TIP3   OH224004   4.125   2.726   8.621  0.4929  0.1493  0.5454
  790TIP3    H124005   4.070   2.704   8.696 -1.7396  1.7276 -0.5213
  790TIP3    H224006   4.145   2.642   8.580 -2.2860 -0.4342  0.2492
  791TIP3   OH224007   6.645   0.856   7.975  0.0495 -0.5273 -0.3988
  791TIP3    H124008   6.585   0.906   7.920 -0.7345 -0.0876  0.7925
  791TIP3    H224009   6.728   0.902   7.968 -0.2790  0.0735 -0.4916
  792TIP3   OH224010   4.399   1.307   2.804 -0.2432  0.4606  0.0025
  792TIP3    H124011   4.317   1.319   2.851 -1.1762 -0.5394 -1.3128
  792TIP3    H224012   4.455   1.260   2.866 -0.1470  2.3283  1.3976
  793TIP3   OH224013   1.893   5.311   2.328 -0.2426 -0.4199  0.1005
  793TIP3    H124014   1.975   5.324   2.279 -0.1122 -1.5851 -0.0142
  793TIP3    H224015   1.868   5.399   2.356  0.8642 -0.0031 -0.1641
  794TIP3   OH224016   6.571   4.889   8.143  0.2353  0.0686 -0.2264
  794TIP3    H124017   6.658   4.858   8.119  0.9117  0.0005  2.1367
  794TIP3    H224018   6.516   4.811   8.140  0.8507 -0.4145  0.8629
  795TIP3   OH224019   4.070   1.731   7.480 -0.2907  0.1767  0.4041
  795TIP3    H124020   4.022   1.801   7.435  0.4190 -0.0946 -0.8405
  795TIP3    H224021   4.127   1.695   7.412  1.2601  0.1183  1.6796
  796TIP3   OH224022   4.497   0.239   1.107 -0.8615 -0.4112  0.0520
  796TIP3    H124023   4.441   0.302   1.153 -0.1277 -0.5643  1.2115
  796TIP3    H224024   4.574   0.231   1.163  0.6775  0.3519 -1.8673
  797TIP3   OH224025   5.249   1.484   0.231 -0.3227  0.5089  0.2660
  797TIP3    H124026   5.274   1.493   0.139 -1.0716  1.2788  0.1266
  797TIP3    H224027   5.258   1.390   0.249  0.6601  0.4725 -0.3411
  798TIP3   OH224028   6.627   1.921   8.652 -0.4997 -0.2894  0.2107
  798TIP3    H124029   6.691   1.873   8.705  0.6418  0.5530 -0.3554
  798TIP3    H224030   6.583   1.854   8.601 -0.6998 -0.9743  1.2486
  799TIP3   OH224031   4.403   2.965   9.070  0.5076 -0.4574  0.5860
  799TIP3    H124032   4.401   3.043   9.015  0.6467  0.2833  1.5978
  799TIP3    H224033   4.497   2.945   9.079  0.4713 -0.7565  0.3150
  800TIP3   OH224034   5.035   3.906   2.066 -0.7033 -0.5570  0.2032
  800TIP3    H124035   4.968   3.863   2.013 -0.3007 -1.3101  0.2889
  800TIP3    H224036   5.116   3.859   2.045 -0.2677  0.0960  0.3851
  801TIP3   OH224037   6.150   4.217   0.738 -0.6919  0.2295 -0.3359
  801TIP3    H124038   6.057   4.239   0.739 -1.0198 -1.0923  1.2071
  801TIP3    H224039   6.194   4.299   0.759 -1.6836  0.3266  1.6227
  802TIP3   OH224040   6.608   6.704   1.928 -0.1996  0.4773 -0.1962
  802TIP3    H124041   6.623   6.669   2.016 -1.5627 -1.9597 -0.8464
  802TIP3    H224042   6.597   6.627   1.873  2.8637  1.8289 -3.0526
  803TIP3   OH224043   6.391   3.751   1.534 -0.1276  0.5666  0.2350
  803TIP3    H124044   6.315   3.734   1.590 -0.7156 -0.2641 -0.7731
  803TIP3    H224045   6.373   3.837   1.495 -0.4120  0.5123  0.2403
  804TIP3   OH224046   4.345   4.250   0.719 -0.1096 -0.7984  0.7095
  804TIP3    H124047   4.393   4.320   0.764 -0.7647  0.6407 -0.7130
  804TIP3    H224048   4.286   4.215   0.786  0.9696 -0.7289  1.7319
  805TIP3   OH224049   5.499   2.700   1.680 -0.3590  0.2563  0.3916
  805TIP3    H124050   5.587   2.665   1.690  0.0395  1.3968  1.1527
  805TIP3    H224051   5.482   2.746   1.763 -0.7536  1.9778 -0.5798
  806TIP3   OH224052   5.983   0.236   8.819 -0.3134  0.2671 -0.2974
  806TIP3    H124053   5.936   0.207   8.740  0.8478  1.2814 -1.4154
  806TIP3    H224054   6.050   0.169   8.833  0.6071  0.9382 -1.2602
  807TIP3   OH224055   4.092   0.311   0.113  0.2460 -0.2878 -0.7061
  807TIP3    H124056   4.109   0.404   0.093  1.3646 -0.4971 -0.7889
  807TIP3    H224057   4.068   0.311   0.205 -0.8254  0.2042 -0.9704
  808TIP3   OH224058   3.077   3.131   7.669  0.0974  0.0009 -0.2854
  808TIP3    H124059   3.139   3.202   7.656 -0.0347  0.2240  0.2600
  808TIP3    H224060   3.016   3.164   7.735  1.1520 -1.2969  1.4417
  809TIP3   OH224061   3.474   5.407   3.574  0.2232  0.4146 -0.3519
  809TIP3    H124062   3.383   5.407   3.603  0.1994 -2.0607 -0.1668
  809TIP3    H224063   3.469   5.381   3.482  0.6869  1.4196 -0.6649
  810TIP3   OH224064   2.924   1.316   2.175  0.4511  0.1312  0.1946
  810TIP3    H124065   2.972   1.375   2.234  0.6280 -0.8283  1.0498
  810TIP3    H224066   2.992   1.257   2.140  0.3803  0.8197 -1.1596
  811TIP3   OH224067   5.395   6.020   8.281  0.9461  0.3807 -0.1470
  811TIP3    H124068   5.383   6.048   8.371 -1.8647 -1.7839  0.2941
  811TIP3    H224069   5.306   6.010   8.247  1.8947  1.9758 -3.5150
  812TIP3   OH224070   4.389   5.201   0.956 -0.0596 -0.2121 -0.2910
  812TIP3    H124071   4.365   5.232   0.869 -2.9461 -0.4523  0.3268
  812TIP3    H224072   4.408   5.281   1.005 -0.4331  0.0683 -0.5987
  813TIP3   OH224073   0.836   6.578   8.983  0.1341  0.3798  0.2908
  813TIP3    H124074   0.775   6.626   9.039 -0.5813 -0.1867  0.0126
  813TIP3    H224075   0.850   6.495   9.028 -1.2979 -0.5320 -0.8675
  814TIP3   OH224076   3.959   2.453   0.423  0.1562  0.2171  0.2899
  814TIP3    H124077   4.014   2.518   0.467  0.4237  0.5507 -0.5197
  814TIP3    H224078   3.978   2.371   0.469  1.9889  0.1561 -0.4847
  815TIP3   OH224079   4.869   4.251   0.884  0.1215  0.1981  0.6658
  815TIP3    H124080   4.952   4.292   0.908 -0.0413  2.1097 -1.5969
  815TIP3    H224081   4.868   4.254   0.788 -2.2796 -0.3091  0.6044
  816TIP3   OH224082   1.830   2.539   8.947 -0.0923 -0.0069  0.2514
  816TIP3    H124083   1.914   2.494   8.962 -0.0951 -0.1880 -0.2636
  816TIP3    H224084   1.766   2.468   8.938  0.0154  0.0570 -1.2691
  817TIP3   OH224085   5.127   2.188   7.389  0.0578  0.1475  0.3666
  817TIP3    H124086   5.146   2.256   7.325 -1.5186  0.3544  0.0793
  817TIP3    H224087   5.118   2.235   7.472  0.7397  0.0502  0.5015
  818TIP3   OH224088   6.405   4.556   2.386 -0.4032  0.1295  0.3236
  818TIP3    H124089   6.455   4.478   2.410 -0.6303 -1.9929 -4.7203
  818TIP3    H224090   6.470   4.626   2.383  0.9863 -1.1149 -0.0378
  819TIP3   OH224091   0.951   0.355   0.350  0.1678 -0.2700  0.5091
  819TIP3    H124092   0.931   0.288   0.415  1.0541 -0.3414  0.7265
  819TIP3    H224093   0.878   0.351   0.288 -0.4597 -0.5126  1.2442
  820TIP3   OH224094   5.646   1.880   8.655  0.1920 -0.5781 -0.9197
  820TIP3    H124095   5.651   1.887   8.750  1.5867  1.6367 -1.1038
  820TIP3    H224096   5.735   1.859   8.627  0.4709  1.5870 -1.8719
  821TIP3   OH224097   1.849   5.327   8.822  0.1977 -0.3088 -0.6073
  821TIP3    H124098   1.878   5.387   8.891 -0.5010  2.3940 -2.4674
  821TIP3    H224099   1.930   5.298   8.781  0.5543  1.1923 -1.0394
  822TIP3   OH224100   1.558   4.789   3.636  0.1931  0.2556 -0.1047
  822TIP3    H124101   1.549   4.753   3.724 -2.0002  0.2285 -0.2820
  822TIP3    H224102   1.469   4.785   3.599  0.6415  2.2060 -1.5566
  823TIP3   OH224103   0.613   5.955   2.297 -0.1530 -0.4744  0.5395
  823TIP3    H124104   0.680   6.014   2.332 -0.1405 -1.2303  1.8318
  823TIP3    H224105   0.611   5.881   2.358 -2.7562 -0.0865  1.0610
  824TIP3   OH224106   3.218   5.609   1.298 -0.5034  0.2182  0.2794
  824TIP3    H124107   3.252   5.638   1.382 -1.5298 -1.2826  1.2657
  824TIP3    H224108   3.192   5.518   1.312 -3.5330  0.7841 -0.7526
  825TIP3   OH224109   4.393   3.505   1.342 -0.1287 -0.2396 -0.1140
  825TIP3    H124110   4.305   3.533   1.368 -1.2363 -2.2048 -1.4143
  825TIP3    H224111   4.447   3.583   1.352 -1.8430  0.8388  1.4636
  826TIP3   OH224112   1.778   6.131   1.976 -0.0832 -0.6699 -0.1316
  826TIP3    H124113   1.834   6.207   1.995  0.5444 -0.7633 -1.4399
  826TIP3    H224114   1.729   6.116   2.056  0.6652  0.3785  0.5493
  827TIP3   OH224115   1.167   3.136   8.730  0.3519 -0.0090 -0.0268
  827TIP3    H124116   1.156   3.069   8.798 -1.5894  0.6047  0.3173
  827TIP3    H224117   1.115   3.104   8.657  3.3277 -1.2543 -1.8040
  828TIP3   OH224118   3.903   4.129   0.559  0.3328  0.5508 -0.1073
  828TIP3    H124119   3.818   4.163   0.584 -0.3790  0.1538 -1.8433
  828TIP3    H224120   3.946   4.202   0.514  0.3112  0.2971 -0.5433
  829TIP3   OH224121   2.989   6.548   1.579  0.2742  0.2250 -0.1855
  829TIP3    H124122   2.893   6.555   1.580  0.1945 -0.7087 -0.2514
  829TIP3    H224123   3.019   6.637   1.568 -0.5636  0.7085  1.1073
  830TIP3   OH224124   3.643   0.256   8.620  0.2435  0.7360 -0.2188
  830TIP3    H124125   3.641   0.188   8.687  0.8938  0.9466  0.0260
  830TIP3    H224126   3.552   0.284   8.610  0.1915  0.9775  0.8549
  831TIP3   OH224127   6.693   0.848   8.425 -0.4051  0.5429  0.2730
  831TIP3    H124128   6.613   0.882   8.384 -1.3786 -1.0709  0.7148
  831TIP3    H224129   6.683   0.753   8.421  1.1700  0.3207  0.9993
  832TIP3   OH224130   1.334   6.452   0.715 -0.2542  0.4834 -0.5657
  832TIP3    H124131   1.352   6.391   0.787  0.7282  0.2662 -0.9791
  832TIP3    H224132   1.261   6.505   0.746 -2.5959 -2.2758 -1.0146
  833TIP3   OH224133   6.425   2.931   0.890 -0.2152  0.1032 -0.2476
  833TIP3    H124134   6.499   2.912   0.833  1.1134 -0.0760  1.4369
  833TIP3    H224135   6.392   2.846   0.917  0.7559  0.1415  1.1602
  834TIP3   OH224136   5.036   1.755   2.024 -0.8138  0.3567 -0.3264
  834TIP3    H124137   5.058   1.667   2.056 -0.6566 -0.6473 -2.9273
  834TIP3    H224138   5.097   1.812   2.070 -0.5841 -0.9425  1.0766
  835TIP3   OH224139   1.210   5.820   2.415  0.1351 -0.1570  0.4078
  835TIP3    H124140   1.274   5.794   2.347 -0.2023  0.2293 -0.0658
  835TIP3    H224141   1.247   5.786   2.496  1.6137  1.1508  0.3470
  836TIP3   OH224142   1.117   2.758   3.113  0.0144 -0.1804  0.3543
  836TIP3    H124143   1.183   2.825   3.093 -1.4936  0.2796 -4.2586
  836TIP3    H224144   1.165   2.675   3.107  0.7058  0.2449 -0.1621
  837TIP3   OH224145   5.651   5.677   1.794 -0.2239  0.1981  0.2240
  837TIP3    H124146   5.740   5.705   1.820  0.5806 -3.0172  1.4099
  837TIP3    H224147   5.651   5.682   1.699  2.3822 -2.4172 -0.0582
  838TIP3   OH224148   3.195   3.799   0.645 -0.0897 -0.1107  0.0185
  838TIP3    H124149   3.154   3.875   0.687  1.6316  1.7482 -1.4324
  838TIP3    H224150   3.165   3.804   0.554  1.8883  0.2910 -0.6567
  839TIP3   OH224151   2.681   6.216   2.257 -0.2348  0.6091  0.6004
  839TIP3    H124152   2.628   6.219   2.337  0.6187  0.0857  1.1936
  839TIP3    H224153   2.618   6.195   2.188 -0.7399 -0.4666  1.3618
  840TIP3   OH224154   2.536   3.439   2.290  0.9710 -0.6232 -0.3486
  840TIP3    H124155   2.567   3.361   2.245 -2.0596 -2.1528 -0.0051
  840TIP3    H224156   2.453   3.413   2.331  0.1048  2.6121  0.2707
  841TIP3   OH224157   2.191   3.706   0.375  0.4059  0.0588 -0.5180
  841TIP3    H124158   2.139   3.634   0.339 -0.4741 -0.3176  1.3654
  841TIP3    H224159   2.160   3.784   0.329 -2.0754 -0.1114  0.6648
  842TIP3   OH224160   2.077   5.742   8.895 -0.3702 -0.0501  0.6078
  842TIP3    H124161   2.110   5.667   8.944 -1.8683 -1.2270 -0.0999
  842TIP3    H224162   2.155   5.784   8.859  0.4930 -1.4546  0.7697
  843TIP3   OH224163   1.560   0.167   2.904 -0.3355 -0.0036  0.6023
  843TIP3    H124164   1.634   0.184   2.846  0.2858 -2.3447  0.6060
  843TIP3    H224165   1.533   0.254   2.934 -0.8607  1.4189 -3.3038
  844TIP3   OH224166   1.170   5.988   3.218 -0.6675 -0.3242 -0.4521
  844TIP3    H124167   1.236   6.003   3.286  1.0442 -0.4758 -2.0022
  844TIP3    H224168   1.127   6.073   3.207  1.3894  0.6440 -1.5024
  845TIP3   OH224169   2.643   5.455   8.966  0.3862 -0.0986  0.6592
  845TIP3    H124170   2.587   5.392   9.011  0.6334  0.2778  1.5311
  845TIP3    H224171   2.605   5.540   8.990  0.4238  0.1052  0.0023
  846TIP3   OH224172   3.410   2.299   8.755  0.7436 -0.3327 -0.1132
  846TIP3    H124173   3.466   2.226   8.782  2.4622  0.9859  0.0336
  846TIP3    H224174   3.405   2.291   8.660  1.0727 -0.5326 -0.1156
  847TIP3   OH224175   3.142   4.423   2.414 -0.2322 -0.1401  0.3105
  847TIP3    H124176   3.048   4.435   2.406 -0.0306  0.3726 -1.7418
  847TIP3    H224177   3.170   4.490   2.477 -1.0412  0.7410 -0.2451
  848TIP3   OH224178   3.722   2.448   2.962  0.2014 -0.1960  0.3809
  848TIP3    H124179   3.680   2.517   3.013  2.4324  0.3117  1.6297
  848TIP3    H224180   3.808   2.482   2.940  1.9084 -3.0129  2.1520
  849TIP3   OH224181   2.586   2.962   3.162 -0.6145 -0.7130  0.2896
  849TIP3    H124182   2.495   2.953   3.133 -0.0763 -1.0061 -1.4832
  849TIP3    H224183   2.605   3.056   3.155 -0.6341 -0.7223  0.0827
  850TIP3   OH224184   4.492   2.165   2.154  0.2557 -0.3279  1.1873
  850TIP3    H124185   4.566   2.122   2.111 -0.0400  0.2612  0.0378
  850TIP3    H224186   4.514   2.258   2.153 -0.5654 -0.1296  0.6819
  851TIP3   OH224187   2.161   4.762   2.186  0.7242  0.2510  0.0890
  851TIP3    H124188   2.092   4.827   2.177 -0.1191 -0.7530 -0.9840
  851TIP3    H224189   2.163   4.743   2.280  0.7130  1.5101  0.3613
  852TIP3   OH224190   5.887   0.243   1.794  0.9588 -0.3413  0.2439
  852TIP3    H124191   5.867   0.158   1.756  1.7057 -0.1949 -0.4895
  852TIP3    H224192   5.982   0.251   1.789  1.0281 -0.0338  1.5548
  853TIP3   OH224193   1.510   4.216   2.166 -0.4569  0.1865 -0.2951
  853TIP3    H124194   1.476   4.298   2.131  0.7519  0.1872 -1.5611
  853TIP3    H224195   1.439   4.153   2.155 -1.2252  0.9397  0.2596
  854TIP3   OH224196   1.709   1.659   1.486 -0.2106  0.7155 -0.0243
  854TIP3    H124197   1.750   1.718   1.549  0.2425 -1.7844  2.2006
  854TIP3    H224198   1.654   1.602   1.540  0.0788 -1.4564 -1.9072
  855TIP3   OH224199   4.650   4.539   8.917  0.7974  0.1952 -0.3367
  855TIP3    H124200   4.591   4.544   8.842 -1.2225  0.9693  1.2251
  855TIP3    H224201   4.738   4.545   8.879 -0.1426  0.2962 -2.6334
  856TIP3   OH224202   3.096   3.896   2.079  0.4290 -0.1421  0.4862
  856TIP3    H124203   3.004   3.876   2.094  0.3403 -0.3601 -0.3045
  856TIP3    H224204   3.120   3.844   2.002  0.6533  1.4818 -0.5961
  857TIP3   OH224205   4.148   2.456   8.114 -0.0428 -0.3716  0.4063
  857TIP3    H124206   4.139   2.394   8.186 -1.2704 -0.1808  0.4481
  857TIP3    H224207   4.242   2.467   8.103  0.2177  0.8381  3.0679
  858TIP3   OH224208   1.962   5.478   0.886  0.6163  0.4096 -0.2367
  858TIP3    H124209   1.937   5.386   0.894  2.8252 -0.2241  0.1911
  858TIP3    H224210   1.973   5.508   0.977  0.7758  0.8244 -0.3879
  859TIP3   OH224211   0.226   0.114   0.248 -0.0760 -0.0519 -0.9924
  859TIP3    H124212   0.162   0.046   0.268 -1.0002  0.7372 -1.1875
  859TIP3    H224213   0.189   0.161   0.174 -0.1605  1.5378 -0.0010
  860TIP3   OH224214   2.396   5.845   0.155 -0.2898 -0.4117  0.0677
  860TIP3    H124215   2.376   5.805   0.071 -0.4067 -0.7193  0.2408
  860TIP3    H224216   2.352   5.790   0.220  0.8155 -0.8995  0.4255
  861TIP3   OH224217   5.362   1.741   2.671 -0.1034  0.4538 -0.7039
  861TIP3    H124218   5.361   1.752   2.576  0.8365  1.6145 -0.6049
  861TIP3    H224219   5.420   1.811   2.703 -0.1287 -0.1260  0.6944
  862TIP3   OH224220   2.239   4.875   1.943 -0.5550 -0.2420  0.3264
  862TIP3    H124221   2.200   4.804   1.993  0.6444 -0.8813  0.3881
  862TIP3    H224222   2.283   4.930   2.008 -0.2685 -0.2335  0.1245
  863TIP3   OH224223   6.484   6.108   0.941  0.0954  0.1813  0.4403
  863TIP3    H124224   6.482   6.165   0.863  0.2002 -1.0787 -0.5134
  863TIP3    H224225   6.516   6.024   0.908 -0.0025 -0.4221  1.8329
  864TIP3   OH224226   4.729   5.619   7.825 -0.1108 -0.0252  0.3246
  864TIP3    H124227   4.772   5.641   7.908 -0.9593 -0.6351  0.9429
  864TIP3    H224228   4.792   5.561   7.781  1.2137  1.8485 -0.3820
  865TIP3   OH224229   3.390   0.117   1.253 -0.0445  0.0604  0.0481
  865TIP3    H124230   3.340   0.171   1.191 -0.1358 -0.0480  0.0289
  865TIP3    H224231   3.348   0.032   1.251 -0.0987  0.0788  0.3213
  866TIP3   OH224232   3.287   3.689   7.898 -0.2671  0.3451 -0.4630
  866TIP3    H124233   3.285   3.659   7.807  0.9546 -0.1135 -0.3637
  866TIP3    H224234   3.300   3.783   7.892 -1.0098  0.4341 -0.7640
  867TIP3   OH224235   2.435   2.820   1.811 -0.1617  0.1466  0.0800
  867TIP3    H124236   2.486   2.778   1.880  0.0653 -0.2761 -0.3444
  867TIP3    H224237   2.425   2.911   1.840  1.7897  0.5378 -0.3595
  868TIP3   OH224238   5.128   1.928   8.490 -0.5507  0.1078 -0.2404
  868TIP3    H124239   5.221   1.904   8.499 -0.4315  0.8897  0.8184
  868TIP3    H224240   5.123   1.974   8.406  0.1445  0.5760 -0.0345
  869TIP3   OH224241   5.530   6.572   8.800 -0.1106  0.2171  0.5612
  869TIP3    H124242   5.589   6.640   8.832  1.9524 -1.3051  0.1924
  869TIP3    H224243   5.466   6.619   8.747  0.1299  2.0509  1.7868
  870TIP3   OH224244   1.144   5.299   1.861 -0.3065 -0.1310 -0.0355
  870TIP3    H124245   1.228   5.264   1.893 -0.1296  1.6198  1.6781
  870TIP3    H224246   1.093   5.222   1.837  1.6783 -1.2689 -0.8792
  871TIP3   OH224247   6.560   2.130   1.138 -1.0419  0.0363  0.1007
  871TIP3    H124248   6.514   2.096   1.215 -0.4938  0.1087  0.4719
  871TIP3    H224249   6.653   2.126   1.163 -0.9583  1.8134  0.1658
  872TIP3   OH224250   2.449   6.607   0.308 -0.0885 -0.6101  0.4197
  872TIP3    H124251   2.497   6.689   0.317 -1.0580 -0.1305  1.3533
  872TIP3    H224252   2.495   6.560   0.238  1.7577 -0.1923  1.3015
  873TIP3   OH224253   6.521   3.778   3.420 -0.3682 -0.0131 -0.1771
  873TIP3    H124254   6.563   3.800   3.503  1.2554 -0.7665 -0.7514
  873TIP3    H224255   6.528   3.858   3.368  0.8450 -0.2614 -0.4324
  874TIP3   OH224256   6.567   5.679   0.225 -0.5846 -0.5597  0.4004
  874TIP3    H124257   6.595   5.655   0.314 -3.1687  0.3025  1.5325
  874TIP3    H224258   6.495   5.620   0.206 -1.3018  0.5208 -0.3377
  875TIP3   OH224259   1.767   0.072   8.578 -0.2145 -0.2014 -0.1214
  875TIP3    H124260   1.748   0.035   8.664 -0.0136  0.8529  0.3919
  875TIP3    H224261   1.685   0.063   8.529 -0.5185 -0.2295  0.3881
  876TIP3   OH224262   1.602   0.054   1.770 -0.4289  0.1361  0.1167
  876TIP3    H124263   1.603   0.143   1.735  2.5549  0.2794  0.3278
  876TIP3    H224264   1.632   0.063   1.860 -0.8869 -1.0212  0.3996
  877TIP3   OH224265   2.409   6.083   8.216  0.0825 -0.1911 -0.2190
  877TIP3    H124266   2.502   6.093   8.197  0.4756  3.1477  2.4388
  877TIP3    H224267   2.365   6.135   8.150  0.0592 -1.4395 -1.2293
  878TIP3   OH224268   2.484   3.901   2.233  0.0164  0.2164 -0.5635
  878TIP3    H124269   2.481   3.839   2.160  0.2233  0.2386 -0.5896
  878TIP3    H224270   2.392   3.918   2.253 -0.0410  0.2712 -0.8702
  879TIP3   OH224271   2.434   3.929   0.027 -0.0258 -1.2052 -0.0855
  879TIP3    H124272   2.514   3.905  -0.020 -0.6505 -1.4082 -1.0887
  879TIP3    H224273   2.455   3.915   0.119  1.7178  0.5700 -0.1571
  880TIP3   OH224274   2.364   3.271   0.560  0.5622 -0.8237  0.6335
  880TIP3    H124275   2.312   3.251   0.482  1.1810  0.7923 -0.2269
  880TIP3    H224276   2.298   3.290   0.627 -0.0560  1.6466 -0.5548
  881TIP3   OH224277   6.637   3.507   8.715 -0.3584 -0.5355 -0.2451
  881TIP3    H124278   6.551   3.524   8.677 -0.5425 -0.3836  0.2277
  881TIP3    H224279   6.695   3.495   8.640 -0.4211  1.1576 -0.6023
  882TIP3   OH224280   2.561   3.582   1.560 -0.0123 -0.2509  0.0317
  882TIP3    H124281   2.653   3.594   1.581 -0.0224 -0.2082  0.0527
  882TIP3    H224282   2.561   3.532   1.479  0.0991  2.2890 -1.6461
  883TIP3   OH224283   2.595   2.790   0.100 -0.4011 -0.2018  0.6028
  883TIP3    H124284   2.559   2.701   0.095  0.1695 -0.7953  4.3888
  883TIP3    H224285   2.550   2.831   0.174  1.2916  1.6824  0.6770
  884TIP3   OH224286   6.296   4.828   2.002  0.3207 -0.5298  0.4943
  884TIP3    H124287   6.265   4.765   2.067 -2.7864  0.7181  0.4191
  884TIP3    H224288   6.360   4.780   1.950 -2.8589 -4.2136 -0.4893
  885TIP3   OH224289   1.920   6.488   3.242 -0.1948  0.4305 -0.4183
  885TIP3    H124290   1.994   6.547   3.247  0.0168  0.2104 -0.8947
  885TIP3    H224291   1.957   6.401   3.259 -0.2921  0.2850 -0.9434
  886TIP3   OH224292   2.487   5.619   0.859  0.1072  0.4871 -0.2121
  886TIP3    H124293   2.407   5.630   0.911  1.1091  0.5924  1.3931
  886TIP3    H224294   2.456   5.612   0.769 -1.6365  1.5910  0.2357
  887TIP3   OH224295   6.559   6.462   1.820 -0.1351  0.0832 -0.7110
  887TIP3    H124296   6.532   6.451   1.911  2.2830  0.3748  0.1050
  887TIP3    H224297   6.481   6.441   1.769 -0.9163 -2.4907  1.3333
  888TIP3   OH224298   2.565   2.140   8.422  0.1210 -0.5623  0.3480
  888TIP3    H124299   2.553   2.209   8.357 -1.9931 -1.2104 -0.0165
  888TIP3    H224300   2.574   2.187   8.505 -2.0934  0.1922  0.2192
  889TIP3   OH224301   2.184   5.780   8.523 -0.2603 -0.1486 -0.6782
  889TIP3    H124302   2.132   5.861   8.525 -0.6763 -0.4175 -0.3529
  889TIP3    H224303   2.274   5.809   8.536 -0.2572  0.3760 -1.7339
  890TIP3   OH224304   2.045   0.548   3.009 -0.2058 -0.2578  0.2165
  890TIP3    H124305   2.070   0.639   3.018 -0.8321  0.1271 -1.5129
  890TIP3    H224306   2.125   0.503   2.981  0.3800 -0.4901  2.0993
  891TIP3   OH224307   0.044   3.481   2.883  0.1025 -0.3305  0.3344
  891TIP3    H124308  -0.036   3.517   2.921 -0.8992  0.5656 -2.4249
  891TIP3    H224309   0.112   3.502   2.947 -1.6165  0.0676  2.1314
  892TIP3   OH224310   2.908   4.368   2.648  0.0081 -0.0376 -0.4196
  892TIP3    H124311   2.858   4.314   2.587 -0.7690  0.7224 -0.4737
  892TIP3    H224312   2.911   4.455   2.607  0.5892  0.1556  0.0139
  893TIP3   OH224313   6.734   0.391   8.033  0.2607  0.1427 -0.3746
  893TIP3    H124314   6.695   0.433   7.957 -1.2652 -1.5147 -0.5867
  893TIP3    H224315   6.762   0.305   8.002  0.0202 -0.3938  0.8089
  894TIP3   OH224316   1.419   0.399   1.572 -0.0258  0.1671  0.5480
  894TIP3    H124317   1.439   0.491   1.589  1.5229 -0.0416 -0.0124
  894TIP3    H224318   1.359   0.401   1.497  1.1970  0.6961 -0.4583
  895TIP3   OH224319   1.675   3.359   2.714 -0.5019 -0.0337  0.1443
  895TIP3    H124320   1.630   3.442   2.701 -1.4488 -0.2830  1.5141
  895TIP3    H224321   1.744   3.379   2.777  0.8397  0.1759 -1.3342
  896TIP3   OH224322   2.882   4.134   9.062 -0.1748 -0.2041 -0.2055
  896TIP3    H124323   2.891   4.092   8.976  1.3424 -0.7915  0.2081
  896TIP3    H224324   2.886   4.062   9.125 -3.2619 -0.0069  0.3528
  897TIP3   OH224325   2.085   3.221   8.988 -0.6774 -0.1393  0.2907
  897TIP3    H124326   1.993   3.195   8.985 -1.0667  0.9724 -3.4703
  897TIP3    H224327   2.096   3.279   8.912  2.7334  1.2735  1.6459
  898TIP3   OH224328   6.466   0.666   0.465  0.1870 -0.4316  0.1186
  898TIP3    H124329   6.532   0.712   0.414  2.8626 -2.8631  1.0757
  898TIP3    H224330   6.408   0.628   0.400  1.6480 -0.8475 -1.0101
  899TIP3   OH224331   2.920   0.189   8.302  0.1887  0.1186 -0.5633
  899TIP3    H124332   3.004   0.228   8.325 -0.1593  0.1919  0.6253
  899TIP3    H224333   2.923   0.183   8.206  1.8082 -0.4946 -0.5126
  900TIP3   OH224334   6.632   0.227   0.791  0.0160  0.0243  0.0445
  900TIP3    H124335   6.593   0.308   0.758 -0.5393 -1.2686 -2.7667
  900TIP3    H224336   6.643   0.243   0.885  0.9463  3.7293 -0.4967
  901TIP3   OH224337   5.636   2.392   8.761 -0.2011  0.9572 -0.4451
  901TIP3    H124338   5.544   2.414   8.778 -0.6466  0.5700 -2.1000
  901TIP3    H224339   5.638   2.372   8.667  0.9163 -2.3803  0.1844
  902TIP3   OH224340   1.745   1.300   0.420  0.0446 -0.2944  0.2619
  902TIP3    H124341   1.692   1.277   0.343 -1.5411 -0.9125  1.4853
  902TIP3    H224342   1.831   1.320   0.384 -0.9747  0.6983 -1.8135
  903TIP3   OH224343   1.303   2.184   2.703  0.6156  0.0130  0.0915
  903TIP3    H124344   1.275   2.269   2.669  0.3120 -0.2000 -0.1935
  903TIP3    H224345   1.357   2.205   2.779 -0.2543  0.4297  0.5999
  904TIP3   OH224346   1.350   2.217   2.999  0.8245 -0.5723  0.0402
  904TIP3    H124347   1.394   2.296   2.967  0.1988 -0.4800 -0.6277
  904TIP3    H224348   1.272   2.250   3.044  0.7423 -0.7898  0.0599
  905TIP3   OH224349   1.018   1.331   2.578  0.0041 -0.6674  0.5875
  905TIP3    H124350   0.950   1.263   2.577 -0.1245 -0.5528 -1.0212
  905TIP3    H224351   1.094   1.286   2.615  0.1725 -2.0066 -1.2152
  906TIP3   OH224352   3.145   4.372   0.264 -0.2177  0.6595 -0.4407
  906TIP3    H124353   3.112   4.374   0.353 -0.3717 -0.6915 -0.4478
  906TIP3    H224354   3.235   4.403   0.271  0.4114 -1.2034  0.5164
  907TIP3   OH224355   2.125   0.100   2.062 -0.5881  0.5090 -0.3539
  907TIP3    H124356   2.145   0.021   2.113 -0.4449  0.3558 -0.6417
  907TIP3    H224357   2.056   0.072   2.002  0.0990  0.3457 -1.0859
  908TIP3   OH224358   0.716   3.425   3.021 -0.2110  0.4874  0.1948
  908TIP3    H124359   0.699   3.348   3.075  0.2942 -0.5839 -1.1250
  908TIP3    H224360   0.810   3.440   3.030 -0.0512  0.0627 -0.6691
  909TIP3   OH224361   6.106   0.169   0.112 -0.3238 -0.2840  0.7635
  909TIP3    H124362   6.173   0.175   0.181  0.4250  2.1819 -0.0469
  909TIP3    H224363   6.055   0.250   0.122 -1.0311 -0.5118 -0.7505
  910TIP3   OH224364   0.734   6.406   0.760  0.0363  0.5416  0.7099
  910TIP3    H124365   0.824   6.395   0.792  0.2736  1.9431  0.6170
  910TIP3    H224366   0.711   6.321   0.724  1.5240  0.2936  0.2540
  911TIP3   OH224367   6.544   3.615   7.835  0.3277 -0.2943 -0.0843
  911TIP3    H124368   6.484   3.629   7.760  0.0510  0.6714  0.2963
  911TIP3    H224369   6.545   3.520   7.847 -1.2940 -0.3264  0.0163
  912TIP3   OH224370   0.686   5.041   8.941 -0.5045 -0.4725  0.3464
  912TIP3    H124371   0.761   5.031   8.882 -0.1091  2.2936  0.2494
  912TIP3    H224372   0.617   4.988   8.901 -0.0712  0.8041 -2.3363
  913TIP3   OH224373   2.017   1.245   8.563  0.2096  0.1889 -0.2389
  913TIP3    H124374   1.940   1.294   8.593  0.3430  0.3146 -0.0984
  913TIP3    H224375   2.040   1.189   8.637 -1.5466 -2.0946 -1.2865
  914TIP3   OH224376   4.659   1.239   2.949 -0.1932 -0.3438  0.5444
  914TIP3    H124377   4.573   1.207   2.978 -1.7202  2.0067 -1.0344
  914TIP3    H224378   4.654   1.334   2.961  0.9141  0.2005 -2.5895
  915TIP3   OH224379   4.951   2.043   1.838 -0.1701  0.1768  0.8120
  915TIP3    H124380   4.971   2.118   1.782 -0.0703  0.2142  0.8998
  915TIP3    H224381   4.911   1.980   1.778 -1.9745  1.0144  1.0647
  916TIP3   OH224382   3.899   4.476   1.122  0.4390  0.4767 -0.0864
  916TIP3    H124383   3.965   4.463   1.054  1.3316  0.3211  0.7782
  916TIP3    H224384   3.877   4.387   1.151  0.1077  0.5423 -0.1353
  917TIP3   OH224385   2.415   1.060   1.265 -0.0973  0.1840  0.0372
  917TIP3    H124386   2.508   1.066   1.284 -0.3228  1.4271  0.8606
  917TIP3    H224387   2.378   1.141   1.299 -1.3091  0.2558 -1.3267
  918TIP3   OH224388   0.731   0.236   3.338 -0.5994  0.0464 -0.2454
  918TIP3    H124389   0.707   0.154   3.381 -1.8794  0.4583 -0.1305
  918TIP3    H224390   0.811   0.215   3.290 -0.8959 -1.2649 -0.2101
  919TIP3   OH224391   5.424   4.295   8.819 -0.5426 -0.0453 -0.1688
  919TIP3    H124392   5.330   4.283   8.835 -0.3056 -1.6378  0.2662
  919TIP3    H224393   5.435   4.279   8.726 -0.6376 -0.5205 -0.1046
  920TIP3   OH224394   2.906   2.289   8.728 -0.3246  0.1899 -0.3595
  920TIP3    H124395   2.975   2.306   8.792 -2.0770  1.0742  1.4226
  920TIP3    H224396   2.934   2.335   8.649  1.3066  0.1674  0.1720
  921TIP3   OH224397   4.661   3.454   1.597 -0.1489 -0.1524 -0.1695
  921TIP3    H124398   4.731   3.400   1.560  1.0046  1.3496 -0.2390
  921TIP3    H224399   4.597   3.461   1.526 -0.3947 -1.5005 -0.1193
  922TIP3   OH224400   1.245   2.818   1.703 -0.2406 -0.5549 -0.2576
  922TIP3    H124401   1.325   2.819   1.756  0.2238 -0.9769 -0.9369
  922TIP3    H224402   1.217   2.910   1.701  1.1367 -0.1216 -1.3470
  923TIP3   OH224403   3.020   6.147   8.906  0.1611 -0.1341  0.6372
  923TIP3    H124404   3.016   6.214   8.975 -0.8793 -1.9380  2.4417
  923TIP3    H224405   3.086   6.084   8.937 -0.8920 -1.3837  0.4276
  924TIP3   OH224406   2.016   2.738   2.513 -0.0971  0.1657  0.0732
  924TIP3    H124407   2.001   2.742   2.418  0.1153 -0.2243  0.0214
  924TIP3    H224408   2.054   2.652   2.528  1.1556  0.7277  0.3328
  925TIP3   OH224409   6.062   1.305   7.930 -0.1819 -0.1814  0.1614
  925TIP3    H124410   6.142   1.257   7.907  0.4437  0.7510  0.3226
  925TIP3    H224411   5.993   1.239   7.927  0.4437 -0.8241 -0.8673
  926TIP3   OH224412   1.640   2.786   8.315  0.2993  0.1589 -0.2433
  926TIP3    H124413   1.562   2.749   8.273  0.8235 -0.8588 -0.3513
  926TIP3    H224414   1.667   2.857   8.257 -0.3657  0.3154 -0.3655
  927TIP3   OH224415   4.442   3.880   2.334 -0.0254  0.0090  0.0522
  927TIP3    H124416   4.447   3.908   2.242 -0.0424  0.6684  0.2511
  927TIP3    H224417   4.426   3.960   2.383  0.0962 -0.3271  0.6503
  928TIP3   OH224418   2.901   4.696   1.099 -0.1710  0.5403 -0.0466
  928TIP3    H124419   2.809   4.723   1.092 -0.2442  0.5530  0.8881
  928TIP3    H224420   2.951   4.777   1.092 -0.1602  0.4263 -1.6252
  929TIP3   OH224421   2.463   6.124   0.317  0.2606  0.0913 -0.2205
  929TIP3    H124422   2.508   6.189   0.371  1.6268  0.7935 -2.0990
  929TIP3    H224423   2.529   6.058   0.298 -0.8690 -1.4328  0.9082
  930TIP3   OH224424   1.225   6.733   1.871 -0.1112 -0.1021  0.5385
  930TIP3    H124425   1.227   6.828   1.885 -2.4984  0.0178  0.5315
  930TIP3    H224426   1.248   6.721   1.779 -3.5404  0.9172 -0.6129
  931TIP3   OH224427   1.526   2.115   0.699  0.0211 -0.1671  0.1387
  931TIP3    H124428   1.581   2.123   0.777  3.0379 -0.8585 -1.7553
  931TIP3    H224429   1.487   2.028   0.706 -0.4218  0.1005  1.2324
  932TIP3   OH224430   1.743   0.448   8.879 -0.2591  0.2483 -0.3721
  932TIP3    H124431   1.729   0.358   8.908  0.6727 -0.3637 -1.6829
  932TIP3    H224432   1.702   0.452   8.793 -1.0965  1.3658  0.0596
  933TIP3   OH224433   2.491   6.096   2.046  0.1895  0.0541  0.5522
  933TIP3    H124434   2.470   6.036   1.974  0.4402  1.0710 -0.4097
  933TIP3    H224435   2.407   6.139   2.066  0.2811  0.3811  0.2621
  934TIP3   OH224436   1.317   2.469   2.626  0.0022 -0.3923 -0.2945
  934TIP3    H124437   1.411   2.448   2.620  0.1465  0.0252  0.4242
  934TIP3    H224438   1.310   2.555   2.584 -0.3640 -1.2044 -1.9775
  935TIP3   OH224439   1.963   1.938   1.511 -0.3972  0.3958 -0.2407
  935TIP3    H124440   1.913   1.872   1.558 -0.1197 -0.0183 -0.5221
  935TIP3    H224441   2.028   1.968   1.574 -0.4125  0.2751 -0.1672
  936TIP3   OH224442   2.496   2.513   2.413  0.3310 -0.3888 -0.0909
  936TIP3    H124443   2.580   2.495   2.371  1.5567  0.1078  1.9612
  936TIP3    H224444   2.511   2.493   2.506 -1.8202 -0.2643  0.3412
  937TIP3   OH224445   4.831   0.567   9.047 -0.4944 -0.3993 -0.2882
  937TIP3    H124446   4.861   0.550   8.958  2.1362 -1.0890  0.6474
  937TIP3    H224447   4.911   0.567   9.100 -2.0517 -0.9772  2.2342
  938TIP3   OH224448   4.138   5.166   2.401 -0.0143  0.2088 -0.9746
  938TIP3    H124449   4.138   5.257   2.432 -0.1268 -0.1303  0.0441
  938TIP3    H224450   4.060   5.128   2.441  1.2844 -0.9732  0.5632
  939TIP3   OH224451   5.706   3.288   1.116 -0.6610  0.0304  0.0405
  939TIP3    H124452   5.633   3.317   1.061 -1.9487 -1.8021  0.6807
  939TIP3    H224453   5.678   3.203   1.149  1.4745 -0.3780  0.9280
  940TIP3   OH224454   3.836   5.883   7.773 -0.4705  0.0641 -0.0416
  940TIP3    H124455   3.831   5.928   7.689 -1.3269 -1.7153 -1.0200
  940TIP3    H224456   3.929   5.876   7.792 -0.2735  0.6474 -0.7589
  941TIP3   OH224457   3.766   1.282   0.500  0.1733  0.4024 -0.4371
  941TIP3    H124458   3.694   1.310   0.558  0.5955  0.8490 -0.1231
  941TIP3    H224459   3.845   1.315   0.542  0.7220 -1.3589  0.0229
  942TIP3   OH224460   3.048   4.036   8.045  0.2953  0.8715 -0.0655
  942TIP3    H124461   3.100   4.117   8.037  0.3875  0.9135  0.8541
  942TIP3    H224462   2.977   4.060   8.104 -0.1931  0.5269 -0.5165
  943TIP3   OH224463   2.664   0.204   8.745  0.6632  0.1480  0.1645
  943TIP3    H124464   2.742   0.232   8.696  1.2453 -0.2576  0.8416
  943TIP3    H224465   2.600   0.274   8.730  1.3698  0.7961  0.1061
  944TIP3   OH224466   2.685   5.443   1.310  0.0284 -0.2541  0.3976
  944TIP3    H124467   2.708   5.371   1.251 -0.8031  0.1465 -0.4469
  944TIP3    H224468   2.738   5.517   1.278  0.8916 -0.4856  1.2701
  945TIP3   OH224469   0.831   4.227   3.092 -0.0681 -0.1776  0.4968
  945TIP3    H124470   0.829   4.233   2.996  0.7124 -2.0667  0.3341
  945TIP3    H224471   0.802   4.314   3.121 -1.0405  0.2086 -1.4339
  946TIP3   OH224472   6.596   3.884   3.019  0.1711 -0.4606  0.2152
  946TIP3    H124473   6.588   3.922   3.106 -2.9028  0.4099 -0.3067
  946TIP3    H224474   6.588   3.789   3.033  0.7901 -0.4183  0.9287
  947TIP3   OH224475   0.969   0.438   8.008 -0.2679 -0.4589  0.2261
  947TIP3    H124476   1.038   0.497   8.038  0.1592 -0.5959 -0.4614
  947TIP3    H224477   0.904   0.438   8.079  0.1317  0.1703  0.5984
  948TIP3   OH224478   1.623   5.105   8.372  0.7213 -0.3945 -0.2539
  948TIP3    H124479   1.570   5.065   8.441  0.0951 -0.7224 -0.9119
  948TIP3    H224480   1.710   5.113   8.410  0.5702 -1.2961  0.3098
  949TIP3   OH224481   5.148   6.464   1.320 -0.1631  0.3628  0.0816
  949TIP3    H124482   5.070   6.467   1.265 -0.4971  1.8535  0.5876
  949TIP3    H224483   5.133   6.391   1.380 -1.4081  0.9568  0.5140
  950TIP3   OH224484   1.270   2.966   3.445  0.7663 -0.0588  0.4476
  950TIP3    H124485   1.182   2.971   3.483 -0.5895  2.8352 -2.5146
  950TIP3    H224486   1.319   3.036   3.488  0.3820  0.7604 -0.3900
  951TIP3   OH224487   0.261   6.723   2.780  0.1048  0.4858  0.5109
  951TIP3    H124488   0.294   6.668   2.852 -1.1946 -0.2677  0.5628
  951TIP3    H224489   0.321   6.707   2.708 -0.0864 -0.7879  0.6221
  952TIP3   OH224490   6.104   3.580   3.050  0.2838 -0.0882 -0.4062
  952TIP3    H124491   6.052   3.656   3.023 -0.3072 -0.0089  0.8647
  952TIP3    H224492   6.193   3.601   3.022 -0.0720  0.5546 -1.0937
  953TIP3   OH224493   4.828   4.886   2.413 -0.4345  0.1820  0.0621
  953TIP3    H124494   4.806   4.810   2.358  0.2012  0.1941 -0.2130
  953TIP3    H224495   4.920   4.903   2.395 -1.1372  2.6371 -1.8640
  954TIP3   OH224496   2.256   1.561   1.355  0.5252  0.0280  0.7161
  954TIP3    H124497   2.321   1.490   1.353  1.2006  0.6084  1.6456
  954TIP3    H224498   2.289   1.625   1.291  0.7034  0.1779  0.9571
  955TIP3   OH224499   1.285   1.608   8.207  0.2147 -0.3357 -0.1634
  955TIP3    H124500   1.266   1.695   8.171  0.7388 -1.0521 -2.3654
  955TIP3    H224501   1.232   1.549   8.154  1.4732 -1.5182 -0.1647
  956TIP3   OH224502   6.029   6.607   8.576  1.0035  0.1919  0.1651
  956TIP3    H124503   6.065   6.597   8.664 -0.3909 -2.1980  0.5421
  956TIP3    H224504   6.091   6.560   8.520 -0.2890 -2.1061  0.5372
  957TIP3   OH224505   2.228   4.373   2.254  0.1302  0.2012  0.7379
  957TIP3    H124506   2.134   4.369   2.237  0.3037 -0.7677 -0.1461
  957TIP3    H224507   2.262   4.433   2.189  0.2468 -0.2160  0.4105
  958TIP3   OH224508   0.012   5.064   0.678  0.7425 -0.3663  0.5309
  958TIP3    H124509   0.075   4.996   0.701  0.7764  0.1757  2.1201
  958TIP3    H224510   0.058   5.146   0.696  0.5672  0.1001 -1.0083
  959TIP3   OH224511   2.628   1.854   8.951  0.1160  0.0541 -0.2698
  959TIP3    H124512   2.633   1.943   8.986  1.6522  0.5452 -1.6211
  959TIP3    H224513   2.592   1.803   9.023  1.3216  1.3605  1.3764
  960TIP3   OH224514   1.579   5.438   0.007  0.2923 -0.3322 -0.5036
  960TIP3    H124515   1.651   5.498  -0.014  0.4408 -0.1570  0.4466
  960TIP3    H224516   1.620   5.372   0.063 -0.2974 -0.1984  0.0934
  961TIP3   OH224517   2.307   1.808   9.020 -0.0167  0.3132  0.1675
  961TIP3    H124518   2.284   1.728   8.973 -0.5896 -1.0956  2.6833
  961TIP3    H224519   2.345   1.777   9.102  3.5196  2.6337 -0.3780
  962TIP3   OH224520   0.328   6.335   3.309  0.4110  0.2201 -0.6529
  962TIP3    H124521   0.382   6.405   3.345  1.5926 -1.9610  2.2162
  962TIP3    H224522   0.383   6.257   3.315 -2.6867 -2.0517  1.9126
  963TIP3   OH224523   5.938   1.825   8.682 -0.1383 -0.7972 -0.0325
  963TIP3    H124524   6.022   1.803   8.723 -0.3880 -2.7597 -0.4951
  963TIP3    H224525   5.961   1.887   8.612  0.6067  0.4818  1.2721
  964TIP3   OH224526   4.384   4.628   1.259 -0.0605 -0.1013 -0.5047
  964TIP3    H124527   4.303   4.577   1.260  0.1018 -0.3611 -0.7094
  964TIP3    H224528   4.358   4.713   1.294 -0.3955 -0.2259 -0.4438
  965TIP3   OH224529   3.536   2.692   8.155  0.0846  0.1624 -0.4078
  965TIP3    H124530   3.632   2.686   8.157  0.0594 -0.0793  0.7960
  965TIP3    H224531   3.506   2.601   8.157 -0.1882  0.1368 -2.7710
  966TIP3   OH224532   5.410   0.962   0.132 -0.5886  0.0989 -0.2948
  966TIP3    H124533   5.341   0.899   0.154 -1.0849  0.7556  0.0401
  966TIP3    H224534   5.470   0.912   0.077 -1.4041 -0.4345 -0.7193
  967TIP3   OH224535   1.959   3.571   8.814 -0.3161 -0.0682  0.0163
  967TIP3    H124536   2.042   3.620   8.810 -1.3546  1.9197  1.0571
  967TIP3    H224537   1.970   3.500   8.751  1.3370  1.4736 -1.5480
  968TIP3   OH224538   4.301   3.011   0.245 -0.1104 -0.3098 -0.1462
  968TIP3    H124539   4.371   3.017   0.311 -1.2049  0.8206  0.9905
  968TIP3    H224540   4.347   3.003   0.162  1.3659 -0.0486  0.6061
  969TIP3   OH224541   3.328   6.573   0.811 -0.3534  0.1203  0.1024
  969TIP3    H124542   3.251   6.518   0.795 -1.3638  1.4023  0.3275
  969TIP3    H224543   3.366   6.588   0.725 -0.4785 -0.3649 -0.0370
  970TIP3   OH224544   3.612   1.431   8.893 -0.5350  0.1751  0.4924
  970TIP3    H124545   3.593   1.522   8.915  0.5719 -0.2033  3.4974
  970TIP3    H224546   3.707   1.424   8.896 -0.6311 -1.3136  1.6055
  971TIP3   OH224547   0.768   0.580   1.513  0.3438  0.4612 -0.0332
  971TIP3    H124548   0.691   0.527   1.492  0.6815 -0.3256  0.6587
  971TIP3    H224549   0.789   0.625   1.431 -0.3796  0.0822 -0.4392
  972TIP3   OH224550   4.952   1.724   8.580 -0.6503  0.3455  0.1564
  972TIP3    H124551   4.884   1.792   8.591 -0.5618  0.5738 -0.6395
  972TIP3    H224552   5.026   1.771   8.541 -1.0500 -0.4404 -1.6415
  973TIP3   OH224553   3.495   5.495   8.206  0.0138  0.1952 -0.0138
  973TIP3    H124554   3.511   5.414   8.158 -0.8494  0.0348 -0.0442
  973TIP3    H224555   3.579   5.515   8.248 -0.0072 -1.2486  0.7841
  974TIP3   OH224556   5.553   4.524   8.638  0.1313  0.3593 -0.0237
  974TIP3    H124557   5.613   4.463   8.595 -1.2468 -1.1294  0.0799
  974TIP3    H224558   5.579   4.522   8.730  0.5906  0.5559 -0.1423
  975TIP3   OH224559   0.172   6.274   1.179  0.5784  0.3125 -0.1672
  975TIP3    H124560   0.147   6.184   1.158  1.8506  0.0679 -0.6976
  975TIP3    H224561   0.095   6.326   1.156 -0.9536 -0.8315  2.0466
  976TIP3   OH224562   1.901   2.956   0.649 -0.0043 -0.1504  0.0344
  976TIP3    H124563   1.994   2.978   0.643 -0.0290 -0.2209 -0.7080
  976TIP3    H224564   1.882   2.909   0.568 -0.1545 -2.1691  1.1742
  977TIP3   OH224565   0.008   2.180   8.568 -0.0300  0.1901 -0.4073
  977TIP3    H124566   0.015   2.231   8.648  1.1812  0.1233 -0.4539
  977TIP3    H224567  -0.057   2.112   8.589 -1.1995  1.3425 -0.1552
  978TIP3   OH224568   1.774   2.703   2.015  0.3453 -0.5264  0.1594
  978TIP3    H124569   1.829   2.717   1.938 -0.4044  1.5508 -0.0426
  978TIP3    H224570   1.836   2.684   2.086  1.3106  1.0264 -0.2219
  979TIP3   OH224571   4.921   2.336   8.960 -0.0575  0.3019  0.3566
  979TIP3    H124572   4.945   2.246   8.937  0.4200  0.5481 -0.1345
  979TIP3    H224573   4.827   2.331   8.979 -0.3579 -0.0590 -1.0490
  980TIP3   OH224574   6.128   6.699   1.581 -0.8032 -0.0363  0.0741
  980TIP3    H124575   6.192   6.716   1.650  0.4340 -1.4403 -0.6554
  980TIP3    H224576   6.146   6.766   1.515 -1.2276  0.6057  0.5981
  981TIP3   OH224577   4.067   3.895   2.681 -0.2036 -0.2670  0.0779
  981TIP3    H124578   4.026   3.959   2.740 -0.7802 -1.0242  0.5191
  981TIP3    H224579   4.034   3.919   2.594 -0.8873 -0.3120  0.3137
  982TIP3   OH224580   2.957   2.332   1.990  0.2481  0.2609  0.1821
  982TIP3    H124581   2.905   2.360   1.915 -0.2174 -0.2925  0.2906
  982TIP3    H224582   2.920   2.247   2.015  0.8850  0.0863  0.5677
  983TIP3   OH224583   4.402   2.454   8.119 -0.3657  0.2042 -0.8906
  983TIP3    H124584   4.475   2.508   8.148 -1.0739  0.4413  0.5759
  983TIP3    H224585   4.442   2.374   8.086  0.5370 -0.2897  1.2635
  984TIP3   OH224586   4.372   1.884   2.655  0.1293 -0.4899  0.4769
  984TIP3    H124587   4.380   1.848   2.567  0.0542  1.5856 -0.4435
  984TIP3    H224588   4.447   1.943   2.663  0.5992 -1.2574  2.1439
  985TIP3   OH224589   1.826   4.895   2.360 -0.1440  0.4593  0.3777
  985TIP3    H124590   1.863   4.917   2.274  0.8521 -1.5123  0.2405
  985TIP3    H224591   1.893   4.924   2.422  0.4608 -0.6866  0.2876
  986TIP3   OH224592   2.821   2.704   1.314  0.2586  0.1750  0.1710
  986TIP3    H124593   2.877   2.745   1.381 -0.2403  1.3964 -0.1392
  986TIP3    H224594   2.738   2.751   1.320  0.2647  0.4366 -1.4250
  987TIP3   OH224595   2.635   4.621   0.890 -0.0571 -0.3444 -0.1032
  987TIP3    H124596   2.673   4.533   0.884 -3.1339 -1.7263 -1.3211
  987TIP3    H224597   2.649   4.659   0.804  0.3245 -0.0425  0.0883
  988TIP3   OH224598   1.619   5.147   2.152  0.1216  0.5739  0.3974
  988TIP3    H124599   1.700   5.157   2.202 -0.1836  0.6945  0.8734
  988TIP3    H224600   1.549   5.158   2.217 -0.2777  0.6467 -0.0404
  989TIP3   OH224601   2.730   6.278   0.340  0.1503  0.1543  0.6657
  989TIP3    H124602   2.681   6.336   0.283 -1.9468 -1.1172  1.0853
  989TIP3    H224603   2.820   6.284   0.308 -0.1236  2.8590  0.1138
  990TIP3   OH224604   2.126   0.392   1.407 -0.4672 -0.1861 -0.6570
  990TIP3    H124605   2.077   0.354   1.481 -0.0362  1.4332  0.5145
  990TIP3    H224606   2.120   0.486   1.420 -2.1485  0.2929 -3.9051
  991TIP3   OH224607   3.306   6.610   0.545  0.1040 -0.2722 -0.2217
  991TIP3    H124608   3.380   6.668   0.526 -0.0591 -0.6427 -2.1569
  991TIP3    H224609   3.250   6.616   0.468 -1.5276 -0.5748  0.9020
  992TIP3   OH224610   4.206   5.944   2.516  0.0695  0.2154 -0.4715
  992TIP3    H124611   4.150   5.949   2.439 -0.6318  0.7968  0.0636
  992TIP3    H224612   4.284   5.898   2.486 -0.9907 -1.2698 -1.0504
  993TIP3   OH224613   6.074   5.175   8.862 -0.1932  0.0370 -0.2012
  993TIP3    H124614   6.130   5.175   8.940  0.8372  0.5648 -0.9228
  993TIP3    H224615   6.096   5.093   8.817 -0.6475 -0.1770 -0.0314
  994TIP3   OH224616   1.089   6.398   8.720 -1.0035 -0.6801 -0.1270
  994TIP3    H124617   1.147   6.375   8.793  1.4974  0.3710 -1.6401
  994TIP3    H224618   1.021   6.453   8.759 -0.4592 -1.1929  1.5991
  995TIP3   OH224619   1.155   2.460   8.977 -0.6316  0.1217  0.2995
  995TIP3    H124620   1.177   2.540   8.929  0.0186 -0.2655 -0.0636
  995TIP3    H224621   1.223   2.397   8.952 -1.4901 -0.7467  0.0734
  996TIP3   OH224622   1.347   3.163   0.493 -0.1842 -0.3938 -0.5531
  996TIP3    H124623   1.428   3.155   0.542  0.3705  1.2579 -1.1515
  996TIP3    H224624   1.281   3.188   0.558  0.1853  0.1081 -0.3678
  997TIP3   OH224625   5.209   2.179   3.344 -0.0394 -0.4503  0.9143
  997TIP3    H124626   5.148   2.246   3.375  0.2875  0.1463  0.2701
  997TIP3    H224627   5.167   2.096   3.370  0.1473  0.0043  2.8386
  998TIP3   OH224628   5.205   0.163   8.194  0.2202 -0.5840  0.0090
  998TIP3    H124629   5.213   0.254   8.222  1.6167 -0.0253 -1.9388
  998TIP3    H224630   5.111   0.145   8.194 -0.1212  1.0817 -0.2421
  999TIP3   OH224631   1.184   4.229   1.647  0.5933  0.8620 -0.1367
  999TIP3    H124632   1.163   4.222   1.740 -0.6498  0.2327 -0.4496
  999TIP3    H224633   1.265   4.280   1.645  0.6090  0.9366  1.2812
 1000TIP3   OH224634   1.104   2.894   8.260  0.9159 -0.7039 -0.3453
 1000TIP3    H124635   1.140   2.828   8.201 -0.9397 -0.4324 -1.8847
 1000TIP3    H224636   1.016   2.862   8.281  0.8653  0.1346  0.7881
 1001TIP3   OH224637   2.455   2.679   8.211  0.4661  0.5884 -0.7630
 1001TIP3    H124638   2.479   2.589   8.191  0.9884  0.7302 -0.7862
 1001TIP3    H224639   2.364   2.687   8.180  0.0730 -0.2022  0.1075
 1002TIP3   OH224640   4.636   5.310   1.906 -0.2105 -0.2170  0.6618
 1002TIP3    H124641   4.592   5.360   1.838  1.2770 -1.0560 -0.9924
 1002TIP3    H224642   4.725   5.343   1.907 -0.4037  0.4462  2.9441
 1003TIP3   OH224643   3.322   6.258   2.292 -0.1942  0.1895  0.1184
 1003TIP3    H124644   3.372   6.293   2.365 -0.6126 -0.8994  0.9516
 1003TIP3    H224645   3.343   6.165   2.289 -2.7440 -0.5136  1.0465
 1004TIP3   OH224646   6.275   4.105   1.991 -0.1371 -0.0808 -0.0448
 1004TIP3    H124647   6.302   4.188   2.030  2.3973 -0.0816 -1.6059
 1004TIP3    H224648   6.340   4.042   2.023 -1.7533 -1.4100  0.7481
 1005TIP3   OH224649   0.533   5.196   1.062  0.2093 -0.3863  0.1500
 1005TIP3    H124650   0.489   5.274   1.097  1.0568 -0.1106  0.6419
 1005TIP3    H224651   0.495   5.123   1.111 -1.4996 -0.4465 -1.1899
 1006TIP3   OH224652   5.406   2.207   8.143 -0.6231 -0.0228 -0.3203
 1006TIP3    H124653   5.321   2.173   8.117 -1.1627 -1.0778  2.5227
 1006TIP3    H224654   5.404   2.299   8.119 -2.3580 -0.1474 -0.7558
 1007TIP3   OH224655   0.826   2.551   1.616 -0.1335 -0.3468  0.1256
 1007TIP3    H124656   0.843   2.458   1.633  2.0528  0.0493  0.3611
 1007TIP3    H224657   0.869   2.568   1.532 -0.8278  0.4044 -0.0946
 1008TIP3   OH224658   0.013   1.589   1.603  0.0824  0.3715  0.3282
 1008TIP3    H124659  -0.074   1.548   1.611 -0.5162  1.9076  2.6455
 1008TIP3    H224660   0.004   1.648   1.528  0.5716 -2.5084 -2.2440
 1009TIP3   OH224661   3.059   3.071   1.666 -0.4116  0.2804 -0.7343
 1009TIP3    H124662   3.023   3.159   1.663 -1.0767 -0.0020 -1.1591
 1009TIP3    H224663   3.090   3.061   1.757 -1.6541  0.4405 -0.2697
 1010TIP3   OH224664   4.301   3.288   7.801 -0.1672  0.0777  0.6733
 1010TIP3    H124665   4.215   3.266   7.837 -0.3998 -0.1716 -0.0103
 1010TIP3    H224666   4.296   3.382   7.785 -0.3364  0.0532  0.5747
 1011TIP3   OH224667   4.298   0.406   0.954 -0.8249  0.2298  0.4439
 1011TIP3    H124668   4.205   0.406   0.934 -1.2015  0.8676  2.0814
 1011TIP3    H224669   4.309   0.336   1.018 -0.1902  0.2268  0.3378
 1012TIP3   OH224670   3.809   4.267   0.884 -0.6192  0.3301  0.4506
 1012TIP3    H124671   3.754   4.292   0.810 -0.2621 -1.9783 -0.6854
 1012TIP3    H224672   3.869   4.341   0.896  0.0365  0.3335 -2.3161
 1013TIP3   OH224673   4.391   2.561   1.679 -0.1703 -0.0710 -0.0368
 1013TIP3    H124674   4.477   2.592   1.649 -0.1464 -0.3609 -0.2711
 1013TIP3    H224675   4.336   2.640   1.681  0.0289  0.0715 -0.1336
 1014TIP3   OH224676   0.728   4.209   1.673  0.2433  0.0685 -0.0657
 1014TIP3    H124677   0.662   4.205   1.603  1.0966 -1.2115 -0.8303
 1014TIP3    H224678   0.803   4.252   1.633 -0.0066  1.2874  0.7312
 1015TIP3   OH224679   1.036   6.335   7.916 -0.8578 -0.1660 -0.0895
 1015TIP3    H124680   1.004   6.368   7.832  0.3693 -1.3346 -1.0532
 1015TIP3    H224681   1.110   6.279   7.893  1.9450  2.3717  1.9877
 1016TIP3   OH224682   1.360   3.074   8.015  0.4647 -0.3081 -0.4641
 1016TIP3    H124683   1.307   3.006   7.973 -1.8820  0.3103  1.2573
 1016TIP3    H224684   1.362   3.145   7.952 -0.7052 -0.3986 -0.6283
 1017TIP3   OH224685   6.356   1.354   1.105 -0.3373 -0.3916  0.1174
 1017TIP3    H124686   6.348   1.349   1.200 -1.7778  0.3186  0.0540
 1017TIP3    H224687   6.375   1.264   1.078  1.8467 -0.3124  1.1790
 1018TIP3   OH224688   0.521   0.147   0.972 -0.0230  0.4689  0.0908
 1018TIP3    H124689   0.486   0.216   0.916 -1.2173  1.3197  1.8204
 1018TIP3    H224690   0.579   0.192   1.033  1.8016 -0.5388 -0.8115
 1019TIP3   OH224691   4.703   3.325   1.334  0.1874  0.0768 -0.2930
 1019TIP3    H124692   4.757   3.401   1.315  1.2041 -0.3197  0.8926
 1019TIP3    H224693   4.766   3.254   1.349 -0.5860 -0.2483  1.7806
 1020TIP3   OH224694   6.464   3.146   8.373  0.1039 -0.3768 -0.1654
 1020TIP3    H124695   6.380   3.142   8.328 -0.1989 -1.1092  0.4424
 1020TIP3    H224696   6.449   3.208   8.444  1.6192  3.7630 -3.0898
 1021TIP3   OH224697   4.492   0.576   2.479  1.0456  0.3990 -0.5783
 1021TIP3    H124698   4.535   0.544   2.400  0.4310 -1.0091 -0.3642
 1021TIP3    H224699   4.402   0.596   2.452  0.9183  0.2051 -0.3039
 1022TIP3   OH224700   5.269   0.446   0.528  0.3635 -0.0771  0.2919
 1022TIP3    H124701   5.215   0.370   0.549  0.1045 -0.1325 -0.5226
 1022TIP3    H224702   5.236   0.475   0.442 -0.8297  2.0707  1.3960
 1023TIP3   OH224703   2.579   5.775   8.952  0.0559  0.0810 -0.6336
 1023TIP3    H124704   2.650   5.795   8.891  2.3054  0.2770  1.8436
 1023TIP3    H224705   2.592   5.837   9.024 -1.4549 -1.1574  0.7772
 1024TIP3   OH224706   5.529   0.882   2.125  0.2158  0.1243  0.2036
 1024TIP3    H124707   5.482   0.903   2.205  0.0152  0.1066  0.0935
 1024TIP3    H224708   5.566   0.965   2.096 -0.8775  0.4130 -0.4237
 1025TIP3   OH224709   0.181   2.437   3.257 -0.6201  0.8134  0.1592
 1025TIP3    H124710   0.207   2.365   3.315  0.6062  1.1105  0.0151
 1025TIP3    H224711   0.180   2.514   3.313  0.7234  1.1275 -0.2165
 1026TIP3   OH224712   2.874   3.210   0.480 -0.1121  0.1032  0.1124
 1026TIP3    H124713   2.925   3.257   0.546  0.7445  0.7851 -1.0074
 1026TIP3    H224714   2.798   3.267   0.465 -0.6239 -0.3443  0.9230
 1027TIP3   OH224715   0.325   5.046   2.730  0.7336  0.3955  0.5778
 1027TIP3    H124716   0.304   5.138   2.714  1.0100  0.8551  2.5423
 1027TIP3    H224717   0.298   5.032   2.821 -1.0362 -1.9999 -0.2263
 1028TIP3   OH224718   1.415   6.518   0.234 -0.8642  0.0116 -0.0714
 1028TIP3    H124719   1.455   6.441   0.192  1.1435  1.6443 -1.3738
 1028TIP3    H224720   1.375   6.484   0.314 -0.3745 -2.4291 -0.7734
 1029TIP3   OH224721   3.702   5.093   2.866 -0.3584  0.0605  0.0413
 1029TIP3    H124722   3.676   5.014   2.911 -0.1167  0.1614  0.3605
 1029TIP3    H224723   3.771   5.131   2.920  0.2667 -0.0632 -0.6504
 1030TIP3   OH224724   0.208   0.296   0.955 -0.1367 -0.2520  0.4139
 1030TIP3    H124725   0.254   0.212   0.954  4.3218  1.8875  1.7901
 1030TIP3    H224726   0.166   0.299   1.042  0.9421 -0.5223  0.9635
 1031TIP3   OH224727   0.497   5.762   7.859  0.2912 -0.1928  0.1092
 1031TIP3    H124728   0.482   5.765   7.765 -0.3969  0.1324  0.2265
 1031TIP3    H224729   0.422   5.808   7.897 -0.6788 -2.3187  0.9436
 1032TIP3   OH224730   0.618   0.770   2.409  0.2759 -0.1867  0.3161
 1032TIP3    H124731   0.625   0.830   2.483  1.2414 -0.4840  0.4876
 1032TIP3    H224732   0.625   0.826   2.332 -2.7784  0.3920  0.3364
 1033TIP3   OH224733   5.167   4.283   3.290 -0.2957  0.8488  1.0232
 1033TIP3    H124734   5.161   4.191   3.263 -2.5049  0.9402  1.0301
 1033TIP3    H224735   5.259   4.306   3.276  0.4674 -1.5429  1.6510
 1034TIP3   OH224736   3.131   5.864   7.739 -0.4560  0.2152  0.0071
 1034TIP3    H124737   3.163   5.821   7.660  3.5063  1.4007  0.7858
 1034TIP3    H224738   3.162   5.954   7.732 -3.8435  1.6211  0.9705
 1035TIP3   OH224739   5.777   2.022   1.222 -0.5850 -0.2567  0.2432
 1035TIP3    H124740   5.781   2.116   1.206  1.9226 -0.2841  0.3556
 1035TIP3    H224741   5.868   1.992   1.214 -1.4432 -2.8551 -0.7747
 1036TIP3   OH224742   5.708   1.875   1.784  0.5796 -0.4727 -0.3137
 1036TIP3    H124743   5.729   1.840   1.698  0.8269  0.3131 -0.5779
 1036TIP3    H224744   5.613   1.867   1.791  0.6623 -1.6090 -0.1728
 1037TIP3   OH224745   6.639   4.596   2.874  0.3131  0.6047  0.6892
 1037TIP3    H124746   6.595   4.679   2.853  0.9691  1.0219  0.9410
 1037TIP3    H224747   6.716   4.595   2.818 -0.4804 -0.5714 -0.4460
 1038TIP3   OH224748   1.960   2.523   2.198 -0.2121  0.3272  0.6809
 1038TIP3    H124749   2.002   2.522   2.112 -0.9088 -0.9924  0.3271
 1038TIP3    H224750   2.027   2.489   2.258  0.2036  1.0540  0.6410
 1039TIP3   OH224751   6.606   2.928   0.534  0.0078 -0.0826  0.1118
 1039TIP3    H124752   6.625   2.834   0.531 -0.8844 -0.3193  1.2274
 1039TIP3    H224753   6.691   2.970   0.519  0.8511 -1.0752  1.7976
 1040TIP3   OH224754   2.277   1.405   0.427 -0.2883 -0.4770 -0.0867
 1040TIP3    H124755   2.197   1.353   0.437 -0.7012  0.0726 -0.4406
 1040TIP3    H224756   2.250   1.494   0.449  0.0069 -0.1366 -1.0625
 1041TIP3   OH224757   1.978   3.334   3.670  0.4042 -0.0344  0.3443
 1041TIP3    H124758   1.973   3.425   3.640  0.5977  0.2446  1.1426
 1041TIP3    H224759   2.052   3.297   3.621 -0.2843 -0.0525 -0.7079
 1042TIP3   OH224760   1.049   6.444   1.854  0.1146  0.1287  0.4052
 1042TIP3    H124761   0.967   6.492   1.840 -0.0240  0.2306  1.4960
 1042TIP3    H224762   1.051   6.428   1.948  1.5522  0.4771  0.4488
 1043TIP3   OH224763   1.342   0.723   8.686  0.1238 -0.1747  0.0237
 1043TIP3    H124764   1.303   0.722   8.599  0.2045  0.0050 -0.0165
 1043TIP3    H224765   1.277   0.765   8.742  0.5426  0.7946 -0.1870
 1044TIP3   OH224766   1.815   4.576   8.956  0.4540 -0.2266 -0.3006
 1044TIP3    H124767   1.864   4.498   8.984 -1.4302 -1.4093 -0.1504
 1044TIP3    H224768   1.781   4.613   9.038  0.6286  0.2761 -0.4531
 1045TIP3   OH224769   6.284   0.447   8.254 -0.1508 -0.2042  0.1277
 1045TIP3    H124770   6.376   0.454   8.279  0.0863 -2.9323  0.2528
 1045TIP3    H224771   6.236   0.449   8.337 -0.2817  1.4727  0.0490
 1046TIP3   OH224772   5.274   5.646   0.083 -0.2777 -0.3822  0.3703
 1046TIP3    H124773   5.189   5.639   0.040 -0.1748  0.4188  0.0155
 1046TIP3    H224774   5.330   5.689   0.019 -0.0304  0.5418  1.1755
 1047TIP3   OH224775   1.871   5.493   2.927  0.3624  0.3314 -0.0963
 1047TIP3    H124776   1.784   5.474   2.892 -0.3241 -1.2173  2.2134
 1047TIP3    H224777   1.860   5.573   2.977  0.4267  0.4815 -0.3211
 1048TIP3   OH224778   4.098   6.175   7.937  0.0994 -0.0072  0.0406
 1048TIP3    H124779   4.133   6.207   7.854  0.6318 -0.1876  0.1896
 1048TIP3    H224780   4.028   6.237   7.959  0.8953  0.8653  0.1676
 1049TIP3   OH224781   0.128   6.434   8.822  0.0874  0.1042  0.6696
 1049TIP3    H124782   0.200   6.424   8.885  0.6464  0.0770  0.0446
 1049TIP3    H224783   0.167   6.484   8.750 -0.1160 -1.0982 -0.3046
 1050TIP3   OH224784   1.013   3.719   8.426 -0.1102  0.5667 -0.1457
 1050TIP3    H124785   1.042   3.681   8.343 -0.3252  0.1036 -0.0144
 1050TIP3    H224786   0.918   3.714   8.423 -0.0977 -0.9115  0.7691
 1051TIP3   OH224787   3.671   1.465   8.338  0.4488 -0.3026  0.4042
 1051TIP3    H124788   3.711   1.510   8.413  0.6059 -1.8947  1.3082
 1051TIP3    H224789   3.674   1.372   8.361  0.1808 -0.8010 -1.4379
 1052TIP3   OH224790   0.134   1.598   1.193 -0.1650  0.2476 -0.1013
 1052TIP3    H124791   0.111   1.526   1.135  0.8886  0.8132 -1.2785
 1052TIP3    H224792   0.166   1.556   1.272  0.8301 -0.5912 -0.9277
 1053TIP3   OH224793   3.384   5.492   2.586 -0.3673  0.6031 -0.0191
 1053TIP3    H124794   3.426   5.414   2.624 -0.5040 -0.0343 -1.1170
 1053TIP3    H224795   3.452   5.559   2.589  0.1731  0.0774 -0.1823
 1054TIP3   OH224796   4.719   3.078   8.817  0.7503 -0.0119 -0.2609
 1054TIP3    H124797   4.664   3.000   8.821  0.6023  0.1335  0.7970
 1054TIP3    H224798   4.682   3.137   8.882  1.9085  0.2484  0.1978
 1055TIP3   OH224799   6.402   2.104   1.374  0.0341  0.0088 -0.1504
 1055TIP3    H124800   6.314   2.135   1.355 -0.2493 -0.7269 -0.0883
 1055TIP3    H224801   6.389   2.022   1.421  0.7499  0.1943  0.3905
 1056TIP3   OH224802   5.188   2.729   2.269  0.6437  0.5458 -0.0244
 1056TIP3    H124803   5.107   2.779   2.260  0.3054  0.2070  1.0023
 1056TIP3    H224804   5.233   2.770   2.343  0.2266 -0.8149  1.0267
 1057TIP3   OH224805   6.035   5.600   2.872  0.3081 -0.2875 -0.6237
 1057TIP3    H124806   6.109   5.550   2.905  0.1765  0.2013  0.4407
 1057TIP3    H224807   5.992   5.541   2.809 -0.0136 -1.6350  0.8138
 1058TIP3   OH224808   4.708   6.318   3.117  0.8551  0.4483 -0.7569
 1058TIP3    H124809   4.696   6.372   3.195 -0.6326  0.7837 -1.1940
 1058TIP3    H224810   4.695   6.229   3.148 -0.5457  0.6301 -0.7345
 1059TIP3   OH224811   3.142   0.863   0.631  0.4801  0.3026  0.9295
 1059TIP3    H124812   3.066   0.875   0.573  0.4892 -0.5446  0.7250
 1059TIP3    H224813   3.217   0.883   0.575  0.5498 -1.4465  0.3200
 1060TIP3   OH224814   2.870   5.015   1.349  0.3426  0.0109 -0.3081
 1060TIP3    H124815   2.915   5.091   1.385  1.7435 -0.8233 -0.2151
 1060TIP3    H224816   2.788   5.050   1.313  0.6692  1.4437  0.2815
 1061TIP3   OH224817   2.598   5.895   7.594  0.3612 -0.3534  0.0297
 1061TIP3    H124818   2.591   5.985   7.628 -0.5727  0.2613 -1.6644
 1061TIP3    H224819   2.684   5.891   7.552  0.6396 -0.4458  0.5986
 1062TIP3   OH224820   6.176   0.940   7.912  0.4377 -0.2362  0.0150
 1062TIP3    H124821   6.202   1.021   7.868 -0.7778 -0.4087 -1.0751
 1062TIP3    H224822   6.086   0.924   7.882  0.1020 -1.1627  1.4204
 1063TIP3   OH224823   5.124   1.384   0.494  0.4699 -1.0750  1.0307
 1063TIP3    H124824   5.053   1.350   0.440 -0.2066 -0.1019  1.2789
 1063TIP3    H224825   5.125   1.478   0.478  2.2385 -1.1487  0.4251
 1064TIP3   OH224826   6.329   3.444   0.670  0.3831 -0.7508 -0.0121
 1064TIP3    H124827   6.269   3.459   0.598  2.4124  3.0948 -1.1766
 1064TIP3    H224828   6.272   3.428   0.746 -1.9390 -0.7777 -1.6546
 1065TIP3   OH224829   3.119   2.159   1.425 -0.1892 -0.5708  0.0823
 1065TIP3    H124830   3.096   2.164   1.332 -1.0707 -1.4370  0.2407
 1065TIP3    H224831   3.088   2.073   1.453  2.6048 -1.5392  0.5086
 1066TIP3   OH224832   3.968   2.634   7.558 -0.4193  0.0150  0.6176
 1066TIP3    H124833   4.063   2.640   7.563 -0.3492 -1.4726  1.6749
 1066TIP3    H224834   3.936   2.692   7.627 -0.3019  0.8372 -0.0126
 1067TIP3   OH224835   5.911   3.433   2.098  0.5109 -0.1794 -0.3310
 1067TIP3    H124836   5.896   3.398   2.186  0.2089  0.4032 -0.1414
 1067TIP3    H224837   5.993   3.393   2.070  0.4917 -0.5479  0.1277
 1068TIP3   OH224838   5.343   1.244   3.152  0.4902 -0.4512 -0.1987
 1068TIP3    H124839   5.410   1.179   3.171 -0.1559 -0.8972  0.6786
 1068TIP3    H224840   5.366   1.320   3.206  0.5504 -0.4270 -0.2588
 1069TIP3   OH224841   0.382   2.915   1.004 -0.1112 -0.0666 -0.5206
 1069TIP3    H124842   0.305   2.901   1.059  0.1869  1.2615  0.2802
 1069TIP3    H224843   0.358   2.880   0.918 -1.3518 -0.2648 -0.1040
 1070TIP3   OH224844   1.674   1.020   8.649 -0.4750 -0.2590 -0.0025
 1070TIP3    H124845   1.697   0.928   8.634  1.1906 -0.0409  0.9546
 1070TIP3    H224846   1.708   1.066   8.572 -0.7243 -0.3736 -0.1794
 1071TIP3   OH224847   5.769   5.352   1.486 -0.2119 -0.2779  0.1234
 1071TIP3    H124848   5.705   5.381   1.551 -0.6943 -1.4734  0.2086
 1071TIP3    H224849   5.817   5.281   1.529  2.8001  2.0214  0.9131
 1072TIP3   OH224850   1.630   3.445   1.024  0.4775 -0.8867  0.3082
 1072TIP3    H124851   1.634   3.521   0.967  2.0556 -1.0154  0.1990
 1072TIP3    H224852   1.721   3.429   1.049  0.0183 -1.9132  1.4209
 1073TIP3   OH224853   5.235   4.272   2.403  0.6176 -1.3587 -0.6901
 1073TIP3    H124854   5.190   4.277   2.487 -2.4005  0.1784 -2.2499
 1073TIP3    H224855   5.294   4.197   2.412 -1.6546 -3.0126  1.8565
 1074TIP3   OH224856   6.139   1.638   0.451  0.2557 -0.4212 -0.3304
 1074TIP3    H124857   6.141   1.657   0.545 -1.0732 -1.7231 -0.0025
 1074TIP3    H224858   6.045   1.633   0.430  0.4231  2.2582 -2.2708
 1075TIP3   OH224859   1.709   4.673   7.146  0.1230 -0.1352  0.2134
 1075TIP3    H124860   1.747   4.633   7.224  1.2288  1.8501  0.7796
 1075TIP3    H224861   1.616   4.685   7.168 -0.1578 -1.9461  0.1579
 1076TIP3   OH224862   6.272   5.369   2.634 -0.4416 -0.6215  0.3535
 1076TIP3    H124863   6.295   5.462   2.631 -0.8520 -0.5258  0.0333
 1076TIP3    H224864   6.273   5.347   2.727 -2.4151  0.2398  0.6414
 1077TIP3   OH224865   3.866   2.112   1.467 -0.3894 -0.2086  0.3267
 1077TIP3    H124866   3.858   2.148   1.556 -0.5878  0.8159 -0.0886
 1077TIP3    H224867   3.957   2.130   1.443 -0.8184  1.1569 -0.3441
 1078TIP3   OH224868   5.682   5.710   2.226 -0.1180 -0.3175 -0.8359
 1078TIP3    H124869   5.648   5.655   2.296 -0.1260  0.6562 -0.0513
 1078TIP3    H224870   5.744   5.655   2.179  0.9824 -0.5397  0.8307
 1079TIP3   OH224871   2.291   1.101   0.512 -0.0400  0.3534 -0.4255
 1079TIP3    H124872   2.370   1.065   0.553  0.0020  1.6836  0.7390
 1079TIP3    H224873   2.291   1.064   0.423  0.0923 -2.2981  0.5748
 1080TIP3   OH224874   2.342   6.354   8.355  0.0812  0.5754 -0.0689
 1080TIP3    H124875   2.341   6.336   8.261  0.0517 -1.6674  0.3038
 1080TIP3    H224876   2.412   6.299   8.389 -1.4682 -0.5123  1.5159
 1081TIP3   OH224877   2.713   6.653   1.615 -0.1577  0.2107 -0.1778
 1081TIP3    H124878   2.647   6.591   1.646 -0.5742  0.9480  0.4500
 1081TIP3    H224879   2.696   6.733   1.665  2.2103 -0.0595  1.1676
 1082TIP3   OH224880   5.328   6.218   1.468 -0.0619  0.2968 -0.4175
 1082TIP3    H124881   5.259   6.152   1.464  0.8120 -0.6146 -0.9289
 1082TIP3    H224882   5.329   6.246   1.560 -1.6782  0.9864 -0.5722
 1083TIP3   OH224883   0.757   2.790   0.393 -0.3416 -0.6854  0.0328
 1083TIP3    H124884   0.803   2.774   0.311 -1.4396 -2.7883 -0.2493
 1083TIP3    H224885   0.824   2.826   0.451  0.2148  1.8762 -2.0216
 1084TIP3   OH224886   3.740   0.920   1.273  0.2245 -0.2385 -0.0732
 1084TIP3    H124887   3.783   0.845   1.231 -0.2245 -0.4494 -0.1604
 1084TIP3    H224888   3.761   0.994   1.215  2.6323  0.1973  1.2120
 1085TIP3   OH224889   2.173   2.701   2.065 -0.1029  0.5398 -0.2074
 1085TIP3    H124890   2.116   2.693   2.141  0.8726 -0.6582  0.4251
 1085TIP3    H224891   2.136   2.640   2.001 -0.0080  0.3899 -0.1172
 1086TIP3   OH224892   3.074   3.739   8.394  0.3989 -0.3281 -0.2047
 1086TIP3    H124893   3.079   3.834   8.407 -1.5071 -0.1165 -0.7196
 1086TIP3    H224894   3.125   3.722   8.315 -2.0150  0.8130 -2.1464
 1087TIP3   OH224895   0.135   0.020   2.375 -0.1386  0.1649 -0.2013
 1087TIP3    H124896   0.115   0.038   2.467  2.4347 -0.5135  0.5658
 1087TIP3    H224897   0.180   0.099   2.344  1.8500 -0.7759  0.1230
 1088TIP3   OH224898   4.335   2.103   1.189 -0.2298  0.0931 -0.1623
 1088TIP3    H124899   4.266   2.101   1.255 -0.3180 -1.4759 -0.2590
 1088TIP3    H224900   4.402   2.160   1.226 -0.6716 -0.0324  0.8751
 1089TIP3   OH224901   3.507   0.842   3.331 -0.3891  0.6072 -0.0742
 1089TIP3    H124902   3.466   0.787   3.263 -1.6433  1.6362 -0.1884
 1089TIP3    H224903   3.440   0.849   3.399  0.8323 -0.3459  1.2674
 1090TIP3   OH224904   0.664   1.526   8.448  0.6338  0.1674 -0.2572
 1090TIP3    H124905   0.610   1.497   8.521 -0.5999 -1.1923 -1.6199
 1090TIP3    H224906   0.691   1.615   8.472 -2.6109  1.1574  0.3696
 1091TIP3   OH224907   6.026   6.595   0.223 -0.0086  0.3660 -1.0467
 1091TIP3    H124908   5.949   6.539   0.237  0.4095 -0.4393 -1.8716
 1091TIP3    H224909   6.059   6.569   0.137  1.5196  0.2958 -0.4625
 1092TIP3   OH224910   4.396   3.189   1.886  0.6416  0.0475  0.5258
 1092TIP3    H124911   4.375   3.196   1.979  0.0134 -1.6975  0.5392
 1092TIP3    H224912   4.490   3.175   1.883  0.7653  0.7409  0.8418
 1093TIP3   OH224913   1.869   6.238   1.092 -0.1455 -0.5077 -0.3737
 1093TIP3    H124914   1.959   6.227   1.062  0.0433 -2.2012  0.6654
 1093TIP3    H224915   1.818   6.257   1.013  1.1511  0.8069 -0.9281
 1094TIP3   OH224916   6.318   0.716   2.754  0.0028 -0.3063  0.0388
 1094TIP3    H124917   6.340   0.801   2.714  1.2394 -0.4501  0.3593
 1094TIP3    H224918   6.402   0.684   2.789 -1.2241  0.5542  4.2903
 1095TIP3   OH224919   4.670   3.121   1.837 -0.0923 -0.4182 -0.4878
 1095TIP3    H124920   4.688   3.113   1.930  1.1706 -1.9973 -0.8353
 1095TIP3    H224921   4.736   3.183   1.805 -0.9642  0.6736 -0.2519
 1096TIP3   OH224922   1.637   4.092   3.765 -0.5618 -0.2751  0.4162
 1096TIP3    H124923   1.701   4.071   3.833  0.9804 -2.4797 -1.5594
 1096TIP3    H224924   1.689   4.101   3.685 -2.2967  2.3156 -0.5544
 1097TIP3   OH224925   5.203   4.617   0.873  0.0860  0.0557 -0.0213
 1097TIP3    H124926   5.274   4.554   0.873  1.2556  1.3372  0.6933
 1097TIP3    H224927   5.127   4.567   0.903  0.9101 -1.0636  0.2717
 1098TIP3   OH224928   6.297   4.426   1.010  0.2540 -0.1408  0.3865
 1098TIP3    H124929   6.261   4.462   0.929  0.7944  0.4413  0.3925
 1098TIP3    H224930   6.333   4.503   1.056 -0.7574 -0.3259  1.5602
 1099TIP3   OH224931   4.913   5.371   1.906 -0.3789  0.1989  0.0664
 1099TIP3    H124932   4.983   5.319   1.866 -0.0689  0.0692  0.7586
 1099TIP3    H224933   4.952   5.407   1.985 -0.9609  0.5010  0.2239
 1100TIP3   OH224934   2.641   3.855   0.798  0.3304 -0.3354  0.4133
 1100TIP3    H124935   2.554   3.875   0.764  1.7654  3.2158 -1.7546
 1100TIP3    H224936   2.673   3.783   0.742 -0.7035 -0.7642  0.3636
 1101TIP3   OH224937   6.247   2.203   0.267 -0.1647 -0.4834  0.4390
 1101TIP3    H124938   6.163   2.225   0.227 -0.6916 -0.9558  1.2589
 1101TIP3    H224939   6.294   2.287   0.272 -0.5359 -0.2387 -0.1294
 1102TIP3   OH224940   5.431   5.645   0.423  0.3590 -0.5270 -0.0480
 1102TIP3    H124941   5.509   5.666   0.474  0.3318 -0.3881 -0.0634
 1102TIP3    H224942   5.464   5.596   0.348  0.3198 -1.3949  0.4904
 1103TIP3   OH224943   3.086   1.341   8.072  0.0780 -0.1940 -0.0176
 1103TIP3    H124944   3.045   1.326   7.987 -1.0338 -0.3477  0.5338
 1103TIP3    H224945   3.119   1.431   8.067 -1.0583  0.2253 -0.1775
 1104TIP3   OH224946   1.767   5.296   7.739 -0.7436  0.5760  0.3190
 1104TIP3    H124947   1.689   5.351   7.731 -1.2485 -0.1790  0.0375
 1104TIP3    H224948   1.835   5.345   7.692 -0.8179  1.6345  1.2618
 1105TIP3   OH224949   1.476   6.174   0.735 -0.3049  0.5919  0.1507
 1105TIP3    H124950   1.496   6.084   0.757 -0.9628  0.6867  1.2071
 1105TIP3    H224951   1.477   6.220   0.819  0.4480  1.6535 -0.4199
 1106TIP3   OH224952   6.163   0.720   7.644 -0.0982 -0.8320 -0.1670
 1106TIP3    H124953   6.076   0.761   7.645  0.5139  0.4897 -0.0568
 1106TIP3    H224954   6.163   0.665   7.723  0.4977  2.1152  2.0536
 1107TIP3   OH224955   0.931   3.696   3.405  0.6947  0.2196  0.1022
 1107TIP3    H124956   1.001   3.637   3.435  1.5599  0.8824 -0.5544
 1107TIP3    H224957   0.940   3.696   3.309 -0.0318  0.5303  0.0317
 1108TIP3   OH224958   3.430   1.148   8.124 -0.0924  0.3454  0.1698
 1108TIP3    H124959   3.443   1.180   8.035  0.4683 -0.5519 -0.0840
 1108TIP3    H224960   3.345   1.104   8.121 -0.2102  0.5724  0.1567
 1109TIP3   OH224961   2.727   2.907   0.482 -0.2401  0.1826  0.0985
 1109TIP3    H124962   2.710   2.997   0.509  0.0188  0.4958 -0.7525
 1109TIP3    H224963   2.792   2.874   0.545  2.3757  1.7519 -1.5743
 1110TIP3   OH224964   4.470   0.335   1.927  0.2589  0.0649 -0.5414
 1110TIP3    H124965   4.423   0.388   1.863 -0.2173 -0.4249 -0.5956
 1110TIP3    H224966   4.484   0.251   1.883 -0.9074 -0.6097  0.3313
 1111TIP3   OH224967   5.253   2.444   0.995 -0.7759 -0.3746 -0.5730
 1111TIP3    H124968   5.206   2.506   0.940  0.5425  0.7602 -0.4788
 1111TIP3    H224969   5.343   2.447   0.964  0.0887  0.5244  1.7513
 1112TIP3   OH224970   3.633   5.256   0.900 -0.2054  0.2052  0.5433
 1112TIP3    H124971   3.659   5.347   0.914  0.7255 -0.0042  0.2301
 1112TIP3    H224972   3.660   5.210   0.980  0.6044 -0.0564  0.1241
 1113TIP3   OH224973   3.783   2.395   7.973  0.3685  0.6036 -0.5718
 1113TIP3    H124974   3.690   2.414   7.980  0.2859 -0.4905  3.1586
 1113TIP3    H224975   3.793   2.356   7.886 -2.5639  0.9657 -1.1611
 1114TIP3   OH224976   5.105   5.005   0.677  0.0374 -0.2998  0.4102
 1114TIP3    H124977   5.178   5.060   0.705 -1.2641  1.9758 -0.4196
 1114TIP3    H224978   5.047   5.064   0.630 -1.2284 -2.5254 -0.9913
 1115TIP3   OH224979   6.020   2.321   2.554  0.0024  0.8603 -0.6565
 1115TIP3    H124980   6.111   2.301   2.536  0.1476  1.1618 -0.2735
 1115TIP3    H224981   5.974   2.303   2.472  0.2762 -0.0615 -0.6136
 1116TIP3   OH224982   5.361   0.790   2.464  0.3720  0.3651  0.0487
 1116TIP3    H124983   5.429   0.839   2.509  0.8316 -0.0421 -0.1868
 1116TIP3    H224984   5.314   0.856   2.413  0.8782  0.5916 -0.1362
 1117TIP3   OH224985   1.676   3.963   2.089 -0.6574 -0.1468 -0.1362
 1117TIP3    H124986   1.658   3.959   2.183 -1.0050  1.7627 -0.0730
 1117TIP3    H224987   1.658   3.875   2.057  1.2787 -1.3698  1.8547
 1118TIP3   OH224988   3.923   1.873   2.517  0.0487 -0.5533 -0.3975
 1118TIP3    H124989   3.842   1.880   2.466 -0.1624  0.5674  0.0393
 1118TIP3    H224990   3.991   1.908   2.460 -0.2544  1.0947  0.1738
 1119TIP3   OH224991   0.612   0.657   7.505  0.4312  0.0502 -0.2707
 1119TIP3    H124992   0.626   0.564   7.487  2.2760  0.1897  0.2334
 1119TIP3    H224993   0.666   0.702   7.441 -0.9786  0.8300 -0.9612
 1120TIP3   OH224994   4.755   1.579   0.076 -0.4753  0.0255  0.0798
 1120TIP3    H124995   4.743   1.653   0.017 -1.1716  0.4586  0.7465
 1120TIP3    H224996   4.849   1.575   0.091 -0.4117  0.6622 -0.1162
 1121TIP3   OH224997   2.992   2.936   0.627  0.2883  0.2763  0.1454
 1121TIP3    H124998   3.007   3.013   0.573 -0.3954  1.4164  1.5186
 1121TIP3    H224999   2.966   2.971   0.712  1.7740 -1.4357  1.3771
 1122TIP3   OH225000   3.404   5.170   0.436 -0.4206 -0.0075 -0.3523
 1122TIP3    H125001   3.484   5.179   0.384  0.2995  0.9206  0.8518
 1122TIP3    H225002   3.334   5.198   0.377  0.1235 -0.8391 -1.4303
 1123TIP3   OH225003   5.199   3.326   7.461 -0.2589 -0.2913 -0.0480
 1123TIP3    H125004   5.236   3.404   7.503  0.2416  0.4054 -1.6726
 1123TIP3    H225005   5.121   3.305   7.512 -0.8985  1.8236 -0.0683
 1124TIP3   OH225006   6.545   2.212   1.775 -0.1741 -0.0590  0.0248
 1124TIP3    H125007   6.513   2.122   1.769  0.4666 -0.3161  0.3415
 1124TIP3    H225008   6.555   2.240   1.684  0.3491 -0.5755 -0.0824
 1125TIP3   OH225009   1.785   3.853   0.096  0.0181 -0.0181 -0.5599
 1125TIP3    H125010   1.726   3.790   0.137  1.9806  0.1908  2.9970
 1125TIP3    H225011   1.728   3.919   0.059 -1.9947 -1.5151 -0.2762
 1126TIP3   OH225012   1.768   5.333   1.279  0.1277 -0.8324 -0.6651
 1126TIP3    H125013   1.673   5.345   1.276  0.3230  1.8580  0.6491
 1126TIP3    H225014   1.804   5.414   1.243  1.8120  0.5257  3.4170
 1127TIP3   OH225015   6.000   3.497   7.974 -0.0671 -0.1414 -0.1071
 1127TIP3    H125016   6.051   3.431   7.928  0.7192  1.1094 -1.1043
 1127TIP3    H225017   6.043   3.580   7.953 -1.5586  0.7971  0.3372
 1128TIP3   OH225018   5.405   5.589   2.250  0.1884 -0.0804  0.2623
 1128TIP3    H125019   5.342   5.644   2.204 -0.7449  0.0319  1.6286
 1128TIP3    H225020   5.390   5.607   2.342  1.0020 -1.4059  0.6864
 1129TIP3   OH225021   0.196   0.735   8.191  0.6361  0.1046 -0.2531
 1129TIP3    H125022   0.114   0.689   8.176  0.5902  0.3763 -0.8960
 1129TIP3    H225023   0.170   0.821   8.224  0.6588  0.1667 -0.3943
 1130TIP3   OH225024   2.282   0.421   1.179  0.1743 -0.0974  0.2941
 1130TIP3    H125025   2.353   0.434   1.242 -0.0110 -1.5803  0.8534
 1130TIP3    H225026   2.207   0.398   1.233 -0.4044  0.1944 -0.3767
 1131TIP3   OH225027   3.134   1.419   9.044  0.5256 -0.0060  0.1582
 1131TIP3    H125028   3.142   1.493   9.104  2.0378  1.7593 -2.1148
 1131TIP3    H225029   3.063   1.444   8.984  1.4553 -0.0939 -0.9994
 1132TIP3   OH225030   3.536   0.604   2.239  0.4757 -0.3506 -0.0621
 1132TIP3    H125031   3.629   0.589   2.255  0.3925 -0.2525  0.5454
 1132TIP3    H225032   3.493   0.581   2.321  0.0472  0.3981 -0.0643
 1133TIP3   OH225033   6.127   4.775   0.655  0.3582 -0.1400 -0.7523
 1133TIP3    H125034   6.096   4.853   0.609 -1.7901  2.1779  3.9728
 1133TIP3    H225035   6.221   4.787   0.664  0.0675  1.9304 -0.1590
 1134TIP3   OH225036   4.107   5.697   1.320 -0.5086 -1.0446  0.6235
 1134TIP3    H125037   4.096   5.791   1.305  0.0877 -0.9151  0.9961
 1134TIP3    H225038   4.089   5.685   1.413 -0.6307 -1.3081  0.5665
 1135TIP3   OH225039   5.136   4.925   8.440  0.2116 -0.1308 -0.3006
 1135TIP3    H125040   5.116   4.971   8.358  2.2167 -1.7678 -1.8007
 1135TIP3    H225041   5.084   4.845   8.435 -2.0747  1.1108  1.5838
 1136TIP3   OH225042   2.021   3.873   2.125  0.0080 -0.2959 -0.3046
 1136TIP3    H125043   1.935   3.871   2.167 -0.6957 -2.2273 -1.7147
 1136TIP3    H225044   2.022   3.796   2.068  1.8417  0.9004 -2.0067
 1137TIP3   OH225045   1.413   0.088   1.391  0.6104 -0.2044 -0.0570
 1137TIP3    H125046   1.437   0.155   1.326 -0.7433 -1.4903 -1.9793
 1137TIP3    H225047   1.470   0.014   1.372  0.4450 -0.4726  0.4619
 1138TIP3   OH225048   3.617   4.260   7.978 -0.1490  0.5461  0.8435
 1138TIP3    H125049   3.689   4.215   7.936  0.3110  1.8175  0.2140
 1138TIP3    H225050   3.539   4.228   7.933  0.1496  0.2466  0.5335
 1139TIP3   OH225051   3.464   6.459   1.909  0.1094 -0.6974  0.6177
 1139TIP3    H125052   3.501   6.478   1.995 -0.4550  0.1895  0.6699
 1139TIP3    H225053   3.537   6.420   1.860  0.7509 -0.1691  1.1346
 1140TIP3   OH225054   4.284   5.330   0.401 -0.0528 -0.5650  0.0347
 1140TIP3    H125055   4.375   5.328   0.430 -0.6873 -1.7795  2.1396
 1140TIP3    H225056   4.256   5.239   0.402 -1.8289 -0.0663  1.3927
 1141TIP3   OH225057   0.341   0.891   0.052 -0.2733 -0.5832  0.5665
 1141TIP3    H125058   0.271   0.827   0.038 -1.6503  0.3358  2.6938
 1141TIP3    H225059   0.417   0.838   0.075 -0.9298 -1.5213  0.6478
 1142TIP3   OH225060   4.023   5.712   1.580 -0.1401 -0.3595  0.1666
 1142TIP3    H125061   4.038   5.676   1.667  0.9502  0.0586  0.1631
 1142TIP3    H225062   3.928   5.722   1.575 -0.2281 -0.4960  1.2609
 1143TIP3   OH225063   4.776   3.651   2.418 -0.2785 -0.2959 -0.9864
 1143TIP3    H125064   4.841   3.610   2.475 -0.3026 -0.0790 -0.8006
 1143TIP3    H225065   4.825   3.715   2.367 -0.3319 -0.1919 -0.9072
 1144TIP3   OH225066   2.382   4.462   0.560  0.4669  0.5842  0.2113
 1144TIP3    H125067   2.431   4.386   0.528 -0.2822  0.9371 -1.9491
 1144TIP3    H225068   2.355   4.438   0.648  1.2616 -1.1565  0.0271
 1145TIP3   OH225069   0.196   5.986   1.420  0.8346  0.9528 -1.1166
 1145TIP3    H125070   0.213   5.993   1.514 -0.8946 -0.7233 -0.6161
 1145TIP3    H225071   0.261   6.043   1.379  0.6696  2.9235  1.1654
 1146TIP3   OH225072   3.043   2.397   7.964 -0.9287  0.5450  0.4640
 1146TIP3    H125073   3.015   2.306   7.970  0.6560 -0.0144 -0.1091
 1146TIP3    H225074   2.996   2.431   7.888 -1.9270  0.3814  0.9889
 1147TIP3   OH225075   0.048   4.761   1.519 -0.1432  0.3889 -0.2785
 1147TIP3    H125076   0.085   4.673   1.519  0.1813  0.5187  0.5584
 1147TIP3    H225077  -0.028   4.755   1.461 -0.0188 -0.3975 -0.3670
 1148TIP3   OH225078   6.339   3.685   8.199 -0.7145  0.2853  0.3257
 1148TIP3    H125079   6.426   3.719   8.178 -1.0443  0.6582 -0.4756
 1148TIP3    H225080   6.353   3.593   8.219 -0.2250  0.1818 -0.4639
 1149TIP3   OH225081   1.545   4.684   7.767  0.0848  0.2934  0.2966
 1149TIP3    H125082   1.470   4.654   7.715 -0.1602  1.6760 -0.1874
 1149TIP3    H225083   1.620   4.636   7.731 -0.2139  0.6177 -0.7872
 1150TIP3   OH225084   1.591   0.769   8.831  0.5985  0.3154 -0.1195
 1150TIP3    H125085   1.652   0.724   8.773  0.9322  0.5717  0.0325
 1150TIP3    H225086   1.510   0.775   8.780  0.2835 -1.2002  0.1538
 1151TIP3   OH225087   5.306   5.652   1.726  0.0516  0.2530 -0.2263
 1151TIP3    H125088   5.356   5.643   1.645 -0.5709  0.4472 -0.6356
 1151TIP3    H225089   5.352   5.721   1.775  1.3665 -0.9470  0.3130
 1152TIP3   OH225090   6.064   2.887   0.608  0.4625  0.1829 -0.1314
 1152TIP3    H125091   6.157   2.895   0.587  0.0900  1.9040 -1.3291
 1152TIP3    H225092   6.062   2.859   0.699  2.1483  0.1302 -0.0812
 1153TIP3   OH225093   2.337   2.083   0.665  0.4456 -0.2468 -0.0612
 1153TIP3    H125094   2.297   2.164   0.633  0.0858 -1.0441 -1.7508
 1153TIP3    H225095   2.430   2.105   0.676  0.3395  0.4089 -0.4401
 1154TIP3   OH225096   2.237   1.626   2.981 -0.4124  0.4200 -0.2353
 1154TIP3    H125097   2.326   1.602   2.954 -1.2327 -1.9408 -1.1235
 1154TIP3    H225098   2.187   1.545   2.972 -2.6407  1.6517  0.3667
 1155TIP3   OH225099   4.701   6.611   2.393 -0.5237  0.3961  0.1136
 1155TIP3    H125100   4.631   6.559   2.355 -0.1390 -0.6788  0.8066
 1155TIP3    H225101   4.670   6.632   2.481  0.1284 -0.3641  0.5424
 1156TIP3   OH225102   0.464   0.806   0.965 -0.0339  0.2203 -0.1440
 1156TIP3    H125103   0.542   0.834   0.917 -0.8306  0.0563 -1.5998
 1156TIP3    H225104   0.496   0.743   1.029  1.1701  1.0265  0.0847
 1157TIP3   OH225105   4.705   6.208   2.213 -0.4372  0.4660 -0.5401
 1157TIP3    H125106   4.736   6.285   2.165 -1.2983 -0.1133 -2.1001
 1157TIP3    H225107   4.723   6.135   2.154  0.2799 -0.5411  0.8801
 1158TIP3   OH225108   0.239   3.272   0.551  0.6109 -0.4559  0.1061
 1158TIP3    H125109   0.186   3.197   0.579 -0.6506  0.2314 -0.3472
 1158TIP3    H225110   0.196   3.302   0.471  2.1233 -0.2866 -0.6668
 1159TIP3   OH225111   1.755   1.921   0.606  0.3735 -0.1036 -0.9396
 1159TIP3    H125112   1.665   1.895   0.627  0.8537 -1.7540 -0.8201
 1159TIP3    H225113   1.775   1.990   0.669 -1.0922  0.9395 -1.5476
 1160TIP3   OH225114   2.663   0.186   1.704 -0.4842  0.2470 -0.1056
 1160TIP3    H125115   2.655   0.184   1.800 -1.7501 -0.7108 -0.2077
 1160TIP3    H225116   2.582   0.147   1.673  1.0580 -2.0777 -1.5268
 1161TIP3   OH225117   4.280   4.802   8.635 -0.0043 -0.0116  0.2944
 1161TIP3    H125118   4.309   4.753   8.712  1.0361  1.0901  0.6478
 1161TIP3    H225119   4.254   4.735   8.572  1.0626 -1.0053  0.8656
 1162TIP3   OH225120   1.498   6.597   9.056  0.4020  0.1515  0.0114
 1162TIP3    H125121   1.590   6.587   9.079  0.0287  0.5881  1.8506
 1162TIP3    H225122   1.451   6.580   9.137 -1.0373  1.7320 -0.4335
 1163TIP3   OH225123   1.714   4.287   0.174 -0.0778  0.1081 -0.2744
 1163TIP3    H125124   1.653   4.361   0.182  0.5132  0.6470 -0.5874
 1163TIP3    H225125   1.748   4.275   0.263 -0.2188  0.1726 -0.2102
 1164TIP3   OH225126   3.278   3.360   7.664 -0.2302  0.2913  0.0465
 1164TIP3    H125127   3.304   3.324   7.579 -0.9068 -0.4523  0.1420
 1164TIP3    H225128   3.355   3.347   7.720 -0.1679 -0.2260 -0.1576
 1165TIP3   OH225129   1.288   6.050   1.470  0.1703  0.6811 -0.0655
 1165TIP3    H125130   1.215   6.027   1.528  1.9894 -0.7100  1.8366
 1165TIP3    H225131   1.284   6.145   1.463  0.0813  0.9605  2.7193
 1166TIP3   OH225132   0.733   0.285   0.198  0.1347  0.0242 -0.4991
 1166TIP3    H125133   0.786   0.214   0.160  2.1495 -0.1249  2.2812
 1166TIP3    H225134   0.645   0.270   0.163  1.1718 -1.8522 -2.5827
 1167TIP3   OH225135   0.023   3.038   1.786  0.3069 -0.2428  0.0853
 1167TIP3    H125136  -0.028   3.013   1.709 -0.4943 -1.6646  1.0366
 1167TIP3    H225137  -0.009   3.125   1.808  0.0581 -0.0996 -0.7783
 1168TIP3   OH225138   4.354   2.210   0.865 -0.0021  0.5385  0.7240
 1168TIP3    H125139   4.308   2.261   0.933 -0.1427  0.3797  0.7497
 1168TIP3    H225140   4.327   2.251   0.783  0.5762  1.0599  0.7874
 1169TIP3   OH225141   0.772   6.275   1.941  0.1755 -0.1671 -0.0549
 1169TIP3    H125142   0.807   6.323   1.866  0.9229  0.6900  0.8246
 1169TIP3    H225143   0.793   6.329   2.017 -1.5681 -0.4616  0.6820
 1170TIP3   OH225144   3.209   6.357   1.253  0.1014  0.2655 -0.4524
 1170TIP3    H125145   3.227   6.315   1.169 -0.5013  2.1810 -1.6094
 1170TIP3    H225146   3.223   6.288   1.318 -1.4237 -1.8713 -2.2314
 1171TIP3   OH225147   0.508   4.641   7.769 -0.1282  0.4236 -0.0112
 1171TIP3    H125148   0.534   4.603   7.853  1.8558 -1.3255 -1.3059
 1171TIP3    H225149   0.420   4.606   7.753  0.0842 -0.4488  0.6534
 1172TIP3   OH225150   0.799   6.091   1.084  0.1730 -0.1957 -0.7351
 1172TIP3    H125151   0.876   6.146   1.098  0.5209 -0.0989 -2.7627
 1172TIP3    H225152   0.805   6.023   1.151  0.6491  1.2226  0.7249
 1173TIP3   OH225153   1.896   0.952   1.400 -0.2128  0.5018 -0.3294
 1173TIP3    H125154   1.983   0.915   1.384 -0.7867 -0.6933 -0.7966
 1173TIP3    H225155   1.887   0.953   1.495  1.2867  3.0338 -0.1379
 1174TIP3   OH225156   2.760   2.440   2.918  0.0368 -0.4033  0.1881
 1174TIP3    H125157   2.776   2.407   2.829  0.6977  0.0051  0.1546
 1174TIP3    H225158   2.741   2.361   2.969 -0.1701 -0.6581 -0.2773
 1175TIP3   OH225159   4.580   5.910   2.585  0.0862 -0.0128 -0.6534
 1175TIP3    H125160   4.666   5.870   2.597  0.3700  0.0924 -2.2105
 1175TIP3    H225161   4.521   5.835   2.572  0.1777 -0.0358 -0.9468
 1176TIP3   OH225162   5.899   0.706   9.071  0.3327 -0.5498 -0.2011
 1176TIP3    H125163   5.851   0.687   9.152 -1.0241 -1.5674 -1.2013
 1176TIP3    H225164   5.900   0.622   9.024  2.2591 -0.3110 -0.6725
 1177TIP3   OH225165   5.568   4.093   0.031 -0.6065 -0.4059  0.3631
 1177TIP3    H125166   5.622   4.014   0.033 -0.1098 -0.0776  0.1490
 1177TIP3    H225167   5.482   4.064   0.062 -0.5275 -1.0982 -0.0440
 1178TIP3   OH225168   4.460   2.760   7.551 -0.1213  0.3231  0.3857
 1178TIP3    H125169   4.370   2.741   7.577 -0.6164  1.4753 -0.3833
 1178TIP3    H225170   4.502   2.674   7.543 -0.4622 -0.1794  2.9816
 1179TIP3   OH225171   6.052   3.054   1.166 -0.4076 -0.0490  0.2091
 1179TIP3    H125172   6.012   3.062   1.252  1.3061  0.7650  0.9929
 1179TIP3    H225173   6.120   2.987   1.177 -0.1723  0.0612 -0.5006
 1180TIP3   OH225174   6.726   0.704   1.851  0.4466 -0.6526 -0.8143
 1180TIP3    H125175   6.819   0.685   1.865  0.0472 -0.7999  2.6301
 1180TIP3    H225176   6.708   0.776   1.912 -1.8093 -1.0548 -0.9422
 1181TIP3   OH225177   0.242   0.217   2.212 -0.1445  0.1110  0.0710
 1181TIP3    H125178   0.284   0.301   2.230 -1.3088  1.0972 -1.5528
 1181TIP3    H225179   0.242   0.210   2.116 -2.9265 -0.1839  0.0169
 1182TIP3   OH225180   4.881   3.615   8.290 -0.7558  0.1970  0.3976
 1182TIP3    H125181   4.948   3.558   8.252  0.6231  0.6849  1.9628
 1182TIP3    H225182   4.838   3.559   8.356 -1.6341  0.0107 -0.3182
 1183TIP3   OH225183   3.131   0.911   1.828 -0.4716  0.1271  0.2066
 1183TIP3    H125184   3.208   0.961   1.855 -1.2678  0.7854  1.3462
 1183TIP3    H225185   3.164   0.853   1.760  0.8091  1.1354 -0.0969
 1184TIP3   OH225186   1.908   3.454   8.397 -0.1800  0.2795 -0.2202
 1184TIP3    H125187   1.828   3.405   8.417 -1.6719  1.6454 -2.4187
 1184TIP3    H225188   1.949   3.468   8.482 -2.4949 -0.1137  1.0546
 1185TIP3   OH225189   3.617   2.360   2.710 -1.0090 -0.1759  0.3319
 1185TIP3    H125190   3.637   2.400   2.794  1.3722 -0.1132 -0.1845
 1185TIP3    H225191   3.622   2.433   2.647 -3.2454 -0.1208  0.1145
 1186TIP3   OH225192   3.942   2.279   2.204 -0.8054 -0.0332 -0.1740
 1186TIP3    H125193   4.022   2.229   2.192 -0.0191  0.9761  0.6345
 1186TIP3    H225194   3.960   2.364   2.162 -1.9122 -0.1975 -1.0594
 1187TIP3   OH225195   5.452   6.216   0.435  0.0136  0.6115 -0.0320
 1187TIP3    H125196   5.477   6.243   0.346  0.3691 -0.0489 -0.1384
 1187TIP3    H225197   5.498   6.277   0.493  1.2893 -0.1162 -0.2484
 1188TIP3   OH225198   3.878   5.398   7.900 -0.1347  0.2394  0.4474
 1188TIP3    H125199   3.861   5.469   7.962 -0.7311 -0.1602  0.7534
 1188TIP3    H225200   3.864   5.318   7.951  1.6607 -0.1270  0.4362
 1189TIP3   OH225201   3.089   2.731   2.069  0.7855 -0.0821 -0.1715
 1189TIP3    H125202   3.029   2.771   2.131  1.0182  1.2347 -0.7597
 1189TIP3    H225203   3.175   2.763   2.096  1.0076 -0.3929 -0.5073
 1190TIP3   OH225204   1.420   3.307   8.581  0.5547 -0.6587 -0.0521
 1190TIP3    H125205   1.360   3.380   8.565  1.6162  0.3004  0.1173
 1190TIP3    H225206   1.402   3.245   8.511 -0.1415 -0.0737 -0.4045
 1191TIP3   OH225207   5.316   2.315   0.687 -0.2155  0.2708 -0.6453
 1191TIP3    H125208   5.275   2.275   0.611  0.8304 -0.6833 -0.7327
 1191TIP3    H225209   5.342   2.402   0.656  1.0049 -0.4242 -1.7000
 1192TIP3   OH225210   3.731   3.668   2.876  0.5944 -0.5101  0.0432
 1192TIP3    H125211   3.675   3.648   2.801  0.1204  3.9854 -1.0936
 1192TIP3    H225212   3.670   3.693   2.946  1.0096  1.3079 -0.1791
 1193TIP3   OH225213   2.606   2.003   1.122  0.4807  0.1278 -0.6562
 1193TIP3    H125214   2.613   1.914   1.158 -1.7760 -0.2049 -0.8767
 1193TIP3    H225215   2.671   2.006   1.052 -0.9264 -2.2048 -2.2150
 1194TIP3   OH225216   1.178   4.661   2.566 -0.3177 -0.4338  0.0991
 1194TIP3    H125217   1.128   4.650   2.485  1.2318 -1.2268 -0.8123
 1194TIP3    H225218   1.220   4.575   2.580 -0.5365 -0.3079  1.7435
 1195TIP3   OH225219   2.495   1.637   1.603  0.8070 -0.0328 -0.0922
 1195TIP3    H125220   2.527   1.574   1.668  0.3966  1.0861  1.2345
 1195TIP3    H225221   2.517   1.597   1.519  2.2915 -1.0478  0.7220
 1196TIP3   OH225222   0.297   1.174   8.749  0.4543 -0.0471  0.1880
 1196TIP3    H125223   0.279   1.261   8.783 -1.0174 -1.0328  2.0910
 1196TIP3    H225224   0.294   1.184   8.654  0.6015  1.9962  0.3597
 1197TIP3   OH225225   3.911   4.915   1.491  0.6876 -0.6585 -0.6999
 1197TIP3    H125226   3.877   4.955   1.411 -0.0530 -0.2215 -0.1789
 1197TIP3    H225227   3.860   4.834   1.500  1.8093 -1.4710 -1.4625
 1198TIP3   OH225228   4.753   1.763   2.133 -0.1178 -0.3133 -0.3696
 1198TIP3    H125229   4.715   1.681   2.162  1.0712 -0.8378 -0.2370
 1198TIP3    H225230   4.840   1.740   2.101 -0.6261  0.5136 -2.6155
 1199TIP3   OH225231   3.116   2.961   2.840 -0.6444  0.3739  0.0030
 1199TIP3    H125232   3.084   3.023   2.905 -0.1629  1.9408 -1.1867
 1199TIP3    H225233   3.038   2.932   2.793 -0.8006  0.5727  0.1421
 1200TIP3   OH225234   5.469   5.155   0.072 -0.2336  0.3914  0.1446
 1200TIP3    H125235   5.447   5.072   0.114  0.2851  0.0385 -0.2681
 1200TIP3    H225236   5.384   5.193   0.049 -0.5358  0.7560  1.7984
 1201TIP3   OH225237   1.590   5.018   3.359  0.0240 -0.2623  0.5585
 1201TIP3    H125238   1.504   4.995   3.326  0.1068  0.1725  0.0334
 1201TIP3    H225239   1.630   4.934   3.381 -0.2909 -0.5092  0.2041
 1202TIP3   OH225240   2.468   4.393   8.923  0.3152  0.2199  0.3056
 1202TIP3    H125241   2.522   4.316   8.941  1.3277  0.7636 -0.3285
 1202TIP3    H225242   2.382   4.357   8.901 -0.0329 -0.5995  2.7414
 1203TIP3   OH225243   3.638   3.099   0.068  0.1460 -0.2953 -0.2337
 1203TIP3    H125244   3.678   3.079   0.153 -0.8590  2.8163  1.1066
 1203TIP3    H225245   3.557   3.049   0.067 -0.4516  0.5741  1.2646
 1204TIP3   OH225246   1.590   2.517   2.637 -0.2703 -0.2554  0.6635
 1204TIP3    H125247   1.618   2.597   2.681  0.4761  0.2704 -0.6936
 1204TIP3    H225248   1.649   2.510   2.561  1.3002 -3.3684  1.9883
 1205TIP3   OH225249   0.242   2.626   1.090  0.5292  0.5686 -0.4124
 1205TIP3    H125250   0.269   2.677   1.166  0.0473 -0.1279  0.2378
 1205TIP3    H225251   0.298   2.548   1.092 -0.6788 -0.3321  0.2982
 1206TIP3   OH225252   2.457   4.065   2.587  0.0640 -0.0475 -0.8060
 1206TIP3    H125253   2.420   4.146   2.552  1.3063  1.5392  1.3337
 1206TIP3    H225254   2.400   4.043   2.661  0.2371 -0.6807 -0.8538
 1207TIP3   OH225255   4.652   2.385   2.045  0.3157 -0.4080 -0.3289
 1207TIP3    H125256   4.715   2.374   2.116  0.9042  1.4763 -0.5259
 1207TIP3    H225257   4.703   2.378   1.965  0.2123  0.6036 -0.4985
 1208TIP3   OH225258   6.233   2.609   0.834  0.6401 -0.1003 -0.1185
 1208TIP3    H125259   6.220   2.583   0.925 -0.0984 -1.0738 -0.4828
 1208TIP3    H225260   6.171   2.556   0.785  0.6439  0.8043 -1.1430
 1209TIP3   OH225261   5.761   2.383   2.659  0.7741 -0.0933 -0.1198
 1209TIP3    H125262   5.746   2.352   2.748  1.2666  1.1135  0.3947
 1209TIP3    H225263   5.851   2.359   2.639  1.6535  2.1710  0.8173
 1210TIP3   OH225264   4.537   0.538   2.089 -0.4720 -0.0500 -0.7162
 1210TIP3    H125265   4.464   0.600   2.098 -0.6446 -0.3148 -0.2094
 1210TIP3    H225266   4.496   0.458   2.058 -0.1658  0.2431 -1.9277
 1211TIP3   OH225267   3.571   4.515   8.414 -0.2772 -0.0957  0.3395
 1211TIP3    H125268   3.663   4.539   8.411  0.6252 -3.1163  0.6317
 1211TIP3    H225269   3.545   4.530   8.505 -0.6981  2.4578 -0.1087
 1212TIP3   OH225270   2.781   1.547   2.083  0.7852 -0.2116 -0.1452
 1212TIP3    H125271   2.693   1.527   2.051  0.1867  1.4022  0.3678
 1212TIP3    H225272   2.827   1.463   2.082 -0.3698 -0.8851 -1.5940
 1213TIP3   OH225273   5.093   4.739   2.266 -0.1842 -0.1721 -0.3184
 1213TIP3    H125274   5.174   4.770   2.225 -0.1593 -0.3666 -0.4163
 1213TIP3    H225275   5.109   4.747   2.360 -0.7909  1.7045 -0.3422
 1214TIP3   OH225276   4.570   0.956   1.681  0.2289  0.0974 -0.1965
 1214TIP3    H125277   4.571   1.040   1.635 -1.9869  1.0866  1.3835
 1214TIP3    H225278   4.502   0.905   1.636  0.0179  0.0110  0.2138
 1215TIP3   OH225279   6.477   1.917   1.867  0.0914  0.2281 -0.1310
 1215TIP3    H125280   6.416   1.847   1.844 -0.4374  0.2880  1.0106
 1215TIP3    H225281   6.426   1.975   1.924  0.9466  0.7643  0.1012
 1216TIP3   OH225282   6.599   0.818   9.001 -0.4716 -0.3769  0.0134
 1216TIP3    H125283   6.654   0.812   8.922 -0.8456 -1.0033 -0.2114
 1216TIP3    H225284   6.563   0.907   8.999  0.0824 -0.1545 -0.1445
 1217TIP3   OH225285   1.652   1.613   1.015  0.4688  0.1768 -0.4725
 1217TIP3    H125286   1.563   1.607   0.981 -0.1397  0.7129  0.9297
 1217TIP3    H225287   1.674   1.524   1.043  0.3760  0.0447 -0.8194
 1218TIP3   OH225288   6.140   0.590   0.812 -0.1824  0.6222  0.0335
 1218TIP3    H125289   6.168   0.516   0.866 -1.9781 -1.3632 -1.6291
 1218TIP3    H225290   6.052   0.611   0.844  0.8455  3.2418  1.5642
 1219TIP3   OH225291   3.585   1.582   2.593 -0.4564  1.1051  0.5348
 1219TIP3    H125292   3.572   1.490   2.569 -1.7094  1.0446  1.3641
 1219TIP3    H225293   3.671   1.603   2.557 -0.3836 -0.2207 -0.1678
 1220TIP3   OH225294   2.576   3.152   1.548 -0.0506  0.0868  0.0456
 1220TIP3    H125295   2.544   3.104   1.471  1.0558  0.4168 -0.6367
 1220TIP3    H225296   2.611   3.083   1.605 -2.4972 -0.3579  1.1152
 1221TIP3   OH225297   6.549   6.196   8.988  0.0213 -0.3646  0.1518
 1221TIP3    H125298   6.521   6.246   9.065  1.6240  2.2798 -0.8672
 1221TIP3    H225299   6.627   6.148   9.017 -0.3332 -0.6957  0.5800
 1222TIP3   OH225300   4.614   4.542   1.074 -0.3344 -1.0335 -0.1862
 1222TIP3    H125301   4.588   4.474   1.012 -1.3921  0.3981 -1.4036
 1222TIP3    H225302   4.629   4.496   1.156  1.6359 -3.0863 -1.5929
 1223TIP3   OH225303   5.471   4.915   2.879 -0.0000  0.9347  0.2254
 1223TIP3    H125304   5.530   4.914   2.954  0.5932  1.7669 -0.2166
 1223TIP3    H225305   5.500   4.841   2.825 -0.8551 -0.0826  1.1122
 1224TIP3   OH225306   0.500   3.450   7.696  0.5372 -0.5996  0.4303
 1224TIP3    H125307   0.524   3.531   7.742 -0.3842 -0.9877  1.6594
 1224TIP3    H225308   0.488   3.477   7.605 -0.7579  0.8808  0.9934
 1225TIP3   OH225309   0.561   2.477   2.896 -0.6752 -0.1104 -0.5119
 1225TIP3    H125310   0.637   2.527   2.866  0.0067 -1.5505 -1.2427
 1225TIP3    H225311   0.501   2.544   2.930 -0.5486  1.4184 -3.0320
 1226TIP3   OH225312   3.148   6.732   2.861 -0.4372  0.0689  0.0259
 1226TIP3    H125313   3.171   6.805   2.919  0.7294 -1.5005  1.6655
 1226TIP3    H225314   3.052   6.729   2.864 -0.4222 -0.1083  2.1721
 1227TIP3   OH225315   1.446   0.953   0.081 -0.1608 -0.7443 -0.1372
 1227TIP3    H125316   1.486   0.988   0.002  0.3838  1.3418  0.9828
 1227TIP3    H225317   1.508   0.886   0.111 -0.4219 -1.6285 -1.4738
 1228TIP3   OH225318   3.764   0.280   8.363 -0.0051  0.1840 -0.1039
 1228TIP3    H125319   3.731   0.263   8.451 -3.9357 -0.6859 -1.5211
 1228TIP3    H225320   3.762   0.375   8.355  0.4746  0.2777  0.7183
 1229TIP3   OH225321   6.155   3.904   1.114 -0.1059  0.0414  0.0910
 1229TIP3    H125322   6.093   3.833   1.103  2.0534 -1.9236 -0.2390
 1229TIP3    H225323   6.189   3.893   1.203 -1.8797  2.5943  1.2073
 1230TIP3   OH225324   6.519   6.157   0.461 -0.0168 -0.4792 -0.5828
 1230TIP3    H125325   6.567   6.110   0.393 -0.1103 -0.8871 -0.3662
 1230TIP3    H225326   6.465   6.091   0.503  0.1885 -0.2699  0.0220
 1231TIP3   OH225327   3.478   5.210   2.241 -0.4134  0.2709  0.3373
 1231TIP3    H125328   3.560   5.220   2.289  0.8713  0.8751 -1.8168
 1231TIP3    H225329   3.472   5.289   2.187 -2.2663  0.0902  0.2027
 1232TIP3   OH225330   5.709   5.063   0.926  0.1816  0.0444 -0.1875
 1232TIP3    H125331   5.767   5.136   0.905 -0.2656  0.0342 -1.5166
 1232TIP3    H225332   5.655   5.095   0.999  0.6725  0.6673 -0.0906
 1233TIP3   OH225333   1.778   2.917   1.052 -0.4114 -0.2580 -0.3208
 1233TIP3    H125334   1.823   2.833   1.052 -0.2286 -0.2001  1.1405
 1233TIP3    H225335   1.685   2.896   1.041 -0.3816 -0.6716  0.1976
 1234TIP3   OH225336   5.984   2.166   0.206  0.0836 -0.4599 -0.5396
 1234TIP3    H125337   5.918   2.103   0.175  1.4211 -2.1419 -0.1667
 1234TIP3    H225338   5.986   2.152   0.301 -0.2655  0.8651 -0.3252
 1235TIP3   OH225339   3.042   2.787   1.791  0.2321  0.1037 -0.6101
 1235TIP3    H125340   3.071   2.733   1.864 -1.6354 -0.4685 -0.2315
 1235TIP3    H225341   3.089   2.752   1.715  2.4782  0.9523  0.3154
 1236TIP3   OH225342   3.851   1.505   2.462  0.1686  0.2533  0.1005
 1236TIP3    H125343   3.877   1.421   2.499 -1.1643 -0.2437 -0.0425
 1236TIP3    H225344   3.930   1.537   2.418  0.5118 -1.2345 -0.4140
 1237TIP3   OH225345   3.248   4.643   2.588  0.0458  0.5057 -0.3480
 1237TIP3    H125346   3.293   4.697   2.522 -1.4512  3.4591  0.8300
 1237TIP3    H225347   3.314   4.628   2.655  0.8836 -0.3829 -1.3347
 1238TIP3   OH225348   3.909   6.212   1.475 -0.5902  0.1895 -0.2708
 1238TIP3    H125349   3.869   6.135   1.516 -0.1989  0.9487  1.6683
 1238TIP3    H225350   3.900   6.197   1.381 -0.1887 -2.3979  0.0186
 1239TIP3   OH225351   2.866   3.958   1.403 -0.1497  0.1193  0.4585
 1239TIP3    H125352   2.829   4.024   1.344 -0.7049 -1.1268 -0.6465
 1239TIP3    H225353   2.809   3.958   1.479 -2.3687 -1.5663 -1.0904
 1240TIP3   OH225354   2.062   4.405   7.874 -0.1576  0.0599  0.1933
 1240TIP3    H125355   2.071   4.473   7.808 -2.4175 -0.8630 -1.1976
 1240TIP3    H225356   2.094   4.445   7.955 -0.1209  2.2543 -0.8364
 1241TIP3   OH225357   3.237   2.793   0.077  0.3370 -0.2000 -0.0114
 1241TIP3    H125358   3.197   2.790   0.164 -0.8284 -0.3574 -0.5327
 1241TIP3    H225359   3.327   2.766   0.091  0.3467  0.3979  1.2449
 1242TIP3   OH225360   1.484   5.065   1.062  0.5293  0.0352  0.0677
 1242TIP3    H125361   1.534   4.984   1.073 -0.5116 -0.9177 -1.8137
 1242TIP3    H225362   1.393   5.036   1.055 -0.0163  1.5088  0.7325
 1243TIP3   OH225363   4.276   6.398   0.704 -0.0921 -0.8393 -0.1318
 1243TIP3    H125364   4.258   6.484   0.668  0.4608  0.2816  2.1064
 1243TIP3    H225365   4.365   6.378   0.675  0.0783 -0.2814 -0.0067
 1244TIP3   OH225366   5.570   0.316   3.455 -0.2189  0.2616  0.4751
 1244TIP3    H125367   5.628   0.384   3.490  0.1459  0.0994  0.1951
 1244TIP3    H225368   5.483   0.356   3.456  0.0754  0.9431 -0.2088
 1245TIP3   OH225369   3.869   0.216   3.323 -0.3949 -0.7789  0.5744
 1245TIP3    H125370   3.860   0.245   3.414 -1.1719 -1.1934  0.6437
 1245TIP3    H225371   3.778   0.204   3.293 -0.1368 -1.0177 -0.1317
 1246TIP3   OH225372   3.226   5.925   3.039  0.6089  0.1348 -0.2050
 1246TIP3    H125373   3.280   5.846   3.045  0.3851  0.0656  1.2540
 1246TIP3    H225374   3.136   5.895   3.054  0.5128  0.6499  0.2962
 1247TIP3   OH225375   0.727   2.465   2.133 -0.0475  0.4175  0.0472
 1247TIP3    H125376   0.709   2.493   2.223 -2.3595  1.5810 -0.6896
 1247TIP3    H225377   0.728   2.370   2.137 -3.4481  0.2774  0.8768
 1248TIP3   OH225378   2.922   1.110   2.645  0.3867 -0.3083 -0.1211
 1248TIP3    H125379   2.898   1.017   2.636  0.5403 -0.2414 -1.3447
 1248TIP3    H225380   2.986   1.125   2.576 -0.2193  0.9022 -0.4424
 1249TIP3   OH225381   4.422   0.935   8.741  0.2582 -0.2904  0.2373
 1249TIP3    H125382   4.476   0.976   8.809 -1.7429  2.5746  0.3204
 1249TIP3    H225383   4.356   0.885   8.789 -0.3231  0.6052  0.3985
 1250TIP3   OH225384   0.850   2.872   0.101 -0.3383  0.6100 -0.3970
 1250TIP3    H125385   0.945   2.859   0.111 -0.2699  0.4041 -1.2215
 1250TIP3    H225386   0.841   2.965   0.085 -0.2356  0.5756 -0.6680
 1251TIP3   OH225387   2.919   5.753   0.611 -0.5524  0.0979  0.2175
 1251TIP3    H125388   2.837   5.771   0.656 -0.2172  0.3397  0.7443
 1251TIP3    H225389   2.900   5.769   0.518 -1.5701 -1.5287  0.0949
 1252TIP3   OH225390   3.562   1.588   2.883 -0.2188  0.1505  0.4706
 1252TIP3    H125391   3.599   1.582   2.795 -1.7665  0.8470 -0.2618
 1252TIP3    H225392   3.635   1.617   2.938  0.9266 -0.8881 -0.4470
 1253TIP3   OH225393   4.939   6.428   1.114  0.0757 -0.5297 -0.4589
 1253TIP3    H125394   4.980   6.346   1.086 -0.1046 -1.0768  0.7883
 1253TIP3    H225395   4.851   6.425   1.076 -0.4138 -1.5911  0.6981
 1254TIP3   OH225396   4.229   3.564   8.803  0.9761  0.3313  0.7783
 1254TIP3    H125397   4.317   3.602   8.796  0.4644  1.2477 -2.1803
 1254TIP3    H225398   4.241   3.472   8.780  1.2441  0.3628  0.7899
 1255TIP3   OH225399   2.016   6.361   8.317 -0.9584  0.0525  0.2547
 1255TIP3    H125400   1.921   6.356   8.327 -1.1722 -2.3213 -1.8993
 1255TIP3    H225401   2.043   6.270   8.306  1.9041  0.4239  2.7908
 1256TIP3   OH225402   0.944   3.966   8.868  0.0568  0.4250  0.0682
 1256TIP3    H125403   0.932   4.017   8.948 -0.6853 -0.5516  0.6105
 1256TIP3    H225404   0.949   4.031   8.798 -0.9167  1.2479  0.7291
 1257TIP3   OH225405   0.511   0.610   8.944  0.0003 -0.3802  0.3832
 1257TIP3    H125406   0.452   0.675   8.907  0.1601 -0.9013 -0.8241
 1257TIP3    H225407   0.478   0.526   8.912 -1.2130 -1.1224  3.2498
 1258TIP3   OH225408   2.571   1.855   0.811 -0.7913  0.0762  0.2221
 1258TIP3    H125409   2.647   1.901   0.776 -0.1584 -1.1113 -0.0356
 1258TIP3    H225410   2.524   1.823   0.734 -1.0924  0.0794  0.4004
 1259TIP3   OH225411   5.522   1.569   0.389 -0.0611 -0.2123  0.8385
 1259TIP3    H125412   5.429   1.557   0.407 -0.1637 -0.2664  0.2997
 1259TIP3    H225413   5.524   1.612   0.303  0.4449 -1.6061  0.1221
 1260TIP3   OH225414   2.528   3.178   2.799 -0.0272  0.1217 -0.2250
 1260TIP3    H125415   2.551   3.224   2.879 -1.0241  0.9334 -0.3979
 1260TIP3    H225416   2.471   3.238   2.751  1.1153 -0.0236 -1.8998
 1261TIP3   OH225417   1.320   4.923   1.881  0.3019 -0.3660  0.1475
 1261TIP3    H125418   1.342   4.896   1.970  1.4818 -0.7227 -0.2329
 1261TIP3    H225419   1.276   4.847   1.844 -0.6024 -0.0537  0.5607
 1262TIP3   OH225420   1.200   0.897   1.439  0.3480 -0.0126 -0.0049
 1262TIP3    H125421   1.161   0.810   1.446  1.0826 -0.2796  0.9686
 1262TIP3    H225422   1.208   0.927   1.529  0.7348  0.7827 -0.2934
 1263TIP3   OH225423   3.253   6.680   3.188 -0.0337  0.7370  0.9598
 1263TIP3    H125424   3.343   6.695   3.216  0.9435  1.8110 -2.3342
 1263TIP3    H225425   3.228   6.761   3.143 -2.0499 -0.1637  0.3218
 1264TIP3   OH225426   0.517   3.811   2.760  0.3529 -0.5992 -0.0815
 1264TIP3    H125427   0.587   3.770   2.812  0.9002 -0.3298 -0.5938
 1264TIP3    H225428   0.482   3.879   2.816  1.9369  0.6950 -0.5641
 1265TIP3   OH225429   1.975   1.375   1.093 -0.0775 -0.7590 -0.3622
 1265TIP3    H125430   1.928   1.312   1.147  0.5617 -0.9875 -0.0715
 1265TIP3    H225431   2.067   1.358   1.110  0.1221  1.2835  0.9197
 1266TIP3   OH225432   1.405   3.521   1.848 -0.3357 -0.0361 -0.0242
 1266TIP3    H125433   1.490   3.477   1.848 -0.0560  0.3176 -2.8177
 1266TIP3    H225434   1.342   3.449   1.855  0.1745 -0.6267 -1.1640
 1267TIP3   OH225435   1.663   3.696   2.662 -0.4971  0.3055 -0.3917
 1267TIP3    H125436   1.722   3.760   2.622 -1.3178  0.5468 -1.2229
 1267TIP3    H225437   1.583   3.701   2.611 -1.6667  0.7711  1.4185
 1268TIP3   OH225438   1.933   2.623   0.538 -0.3643 -0.2074 -0.1551
 1268TIP3    H125439   1.861   2.619   0.475 -0.8209 -0.8486  0.3973
 1268TIP3    H225440   2.011   2.605   0.486 -0.8047 -1.3830 -0.4462
 1269TIP3   OH225441   4.691   1.753   0.368 -0.5362 -0.3867 -0.1007
 1269TIP3    H125442   4.705   1.668   0.411  0.7310 -0.0438  0.2096
 1269TIP3    H225443   4.779   1.786   0.351 -1.0083 -0.0014 -2.0002
 1270TIP3   OH225444   3.032   5.544   1.844  0.4836 -0.2227 -0.1354
 1270TIP3    H125445   3.055   5.453   1.863  0.8091 -0.2847 -0.7960
 1270TIP3    H225446   2.960   5.564   1.904 -0.8962 -1.5214 -1.2829
 1271TIP3   OH225447   2.267   4.656   8.751  0.3649  0.1365 -0.7732
 1271TIP3    H125448   2.333   4.602   8.709 -1.4087 -2.8604  0.0083
 1271TIP3    H225449   2.224   4.702   8.679  1.0756 -0.5196 -1.6377
 1272TIP3   OH225450   0.995   5.051   0.127 -0.3398 -0.4907  0.4549
 1272TIP3    H125451   1.067   4.997   0.095 -0.4859  0.9607 -2.7190
 1272TIP3    H225452   0.924   4.989   0.144  0.3275 -1.5579 -0.4791
 1273TIP3   OH225453   1.533   4.507   0.050 -0.2085 -0.0178  1.2328
 1273TIP3    H125454   1.489   4.590   0.067 -2.3193 -0.8477  0.1984
 1273TIP3    H225455   1.472   4.441   0.084  1.1290 -1.1798  1.4515
 1274TIP3   OH225456   4.914   5.742   0.885 -0.2128 -0.1039 -0.1307
 1274TIP3    H125457   4.866   5.771   0.808  0.5953  1.5602 -0.0395
 1274TIP3    H225458   4.846   5.705   0.942 -1.0309 -0.0059 -1.0149
 1275TIP3   OH225459   5.393   3.419   2.188  1.0706 -0.1602 -0.3237
 1275TIP3    H125460   5.460   3.483   2.163 -0.6694  2.0685  0.4372
 1275TIP3    H225461   5.379   3.434   2.282  1.3022 -2.3980  0.1358
 1276TIP3   OH225462   4.408   3.960   2.057 -0.1646  0.6493  0.0485
 1276TIP3    H125463   4.452   3.907   1.991  1.3577  0.5052  1.1281
 1276TIP3    H225464   4.441   4.049   2.042 -0.3553  0.7411  0.1675
 1277TIP3   OH225465   2.340   1.286   8.780  0.0069  0.4146 -0.2241
 1277TIP3    H125466   2.422   1.246   8.807  0.6807  1.2006 -1.0505
 1277TIP3    H225467   2.287   1.214   8.748  0.2382 -0.1429  0.6185
 1278TIP3   OH225468   6.361   5.136   1.192 -0.1262  0.2186  0.1729
 1278TIP3    H125469   6.351   5.159   1.100  0.2575  1.0161  0.3123
 1278TIP3    H225470   6.405   5.212   1.230 -1.0407  0.2620  1.1850
 1279TIP3   OH225471   1.788   6.425   1.673  0.1034  0.0482  0.2160
 1279TIP3    H125472   1.816   6.517   1.663  1.2866 -0.3190 -0.0920
 1279TIP3    H225473   1.693   6.429   1.676  0.1481  1.3614  0.9312
 1280TIP3   OH225474   0.033   3.170   2.096  0.0453  0.4389  0.2497
 1280TIP3    H125475  -0.036   3.113   2.062  1.9493 -1.3987 -0.7318
 1280TIP3    H225476  -0.012   3.252   2.116 -2.4263 -0.6903 -0.2581
 1281TIP3   OH225477   0.026   1.494   0.919 -0.3781 -0.3966 -0.3983
 1281TIP3    H125478   0.060   1.425   0.975 -0.5065 -0.6311 -0.6111
 1281TIP3    H225479   0.030   1.458   0.831 -0.1248 -0.0086 -0.5500
 1282TIP3   OH225480   0.836   3.731   2.250  0.2859 -0.1012  0.0350
 1282TIP3    H125481   0.741   3.739   2.246  0.1460 -1.5760  0.0377
 1282TIP3    H225482   0.859   3.673   2.178  1.1915  0.1941  0.0642
 1283TIP3   OH225483   1.255   2.338   0.305 -0.5453 -0.4273 -0.1402
 1283TIP3    H125484   1.228   2.276   0.373 -1.8869 -0.5112 -0.7129
 1283TIP3    H225485   1.341   2.308   0.277 -1.1174 -1.9928 -0.3241
 1284TIP3   OH225486   1.779   4.057   1.064  0.3518  0.1501 -0.4778
 1284TIP3    H125487   1.845   4.102   1.117  0.2024 -2.1897  1.9398
 1284TIP3    H225488   1.695   4.079   1.104 -0.0353  0.4098 -1.4025
 1285TIP3   OH225489   6.514   2.803   2.531 -0.3789 -0.0212  0.5230
 1285TIP3    H125490   6.462   2.723   2.540 -0.0325 -0.4214 -0.8013
 1285TIP3    H225491   6.507   2.826   2.438  0.8955  0.5354  0.5423
 1286TIP3   OH225492   0.774   5.505   0.218 -0.5507 -0.1643  0.1466
 1286TIP3    H125493   0.746   5.591   0.250  0.6967 -0.1386  1.2563
 1286TIP3    H225494   0.819   5.524   0.135  0.9394  0.4557  1.0580
 1287TIP3   OH225495   1.985   5.241   7.934  0.1854 -0.6009 -0.2210
 1287TIP3    H125496   1.904   5.226   7.886  0.1163 -3.0363  0.4760
 1287TIP3    H225497   2.035   5.302   7.880 -1.7077  0.2390 -1.1112
 1288TIP3   OH225498   6.056   1.175   1.599 -0.4863  0.7615  0.5077
 1288TIP3    H125499   6.139   1.150   1.641 -0.7818 -0.0790  0.5990
 1288TIP3    H225500   6.062   1.271   1.590  1.1979  0.5621 -1.0048
 1289TIP3   OH225501   4.565   0.514   8.729  0.1268 -0.6213  0.5014
 1289TIP3    H125502   4.497   0.565   8.686  1.2511 -0.5200 -1.2656
 1289TIP3    H225503   4.637   0.576   8.743  0.2916 -0.9827  1.3028
 1290TIP3   OH225504   1.611   0.364   7.937  0.2345  0.0113 -0.1684
 1290TIP3    H125505   1.699   0.330   7.951  0.3575  0.5192  0.3357
 1290TIP3    H225506   1.553   0.290   7.956  0.5784 -0.5937 -1.4102
 1291TIP3   OH225507   6.018   4.719   8.514 -0.1222 -0.0918 -0.4385
 1291TIP3    H125508   6.032   4.732   8.420 -2.0509 -3.2025 -1.3163
 1291TIP3    H225509   6.085   4.656   8.540  0.7103  1.1185  0.4509
 1292TIP3   OH225510   1.468   1.938   3.423 -0.0279 -0.3901 -0.4819
 1292TIP3    H125511   1.390   1.885   3.407 -1.7908  1.9379 -0.1651
 1292TIP3    H225512   1.505   1.903   3.504 -0.6352 -1.6244 -0.7169
 1293TIP3   OH225513   5.350   3.727   2.297  0.2684 -1.3810  0.3034
 1293TIP3    H125514   5.378   3.643   2.335  0.0296 -0.5908  2.3211
 1293TIP3    H225515   5.401   3.793   2.343  0.2173 -0.3723 -1.0303
 1294TIP3   OH225516   3.807   2.108   2.783  0.1106 -0.2306 -0.1655
 1294TIP3    H125517   3.843   2.155   2.708 -0.3247  0.2300 -0.0881
 1294TIP3    H225518   3.755   2.037   2.745 -0.7569  0.4766 -0.3207
 1295TIP3   OH225519   1.541   5.280   0.892 -0.0454 -0.0401 -0.3670
 1295TIP3    H125520   1.636   5.274   0.899 -0.0044  1.1728  0.3507
 1295TIP3    H225521   1.508   5.205   0.941  0.5193  0.7923  1.3645
 1296TIP3   OH225522   3.102   6.110   8.353  0.8358  0.0024  0.1727
 1296TIP3    H125523   3.146   6.188   8.320 -0.7703  0.5876 -0.7052
 1296TIP3    H225524   3.124   6.108   8.446  1.3533  1.1779  0.0983
 1297TIP3   OH225525   1.988   6.601   7.401 -0.7031  0.0142 -0.0308
 1297TIP3    H125526   1.909   6.595   7.347  0.8062 -1.1073 -2.2661
 1297TIP3    H225527   2.031   6.516   7.391  0.2415  0.1920  2.0661
 1298TIP3   OH225528   6.374   6.388   1.156 -0.4862 -0.2095  0.7151
 1298TIP3    H125529   6.296   6.443   1.162 -0.9077 -0.3502 -2.2230
 1298TIP3    H225530   6.350   6.319   1.094  1.8543 -0.4618  0.0042
 1299TIP3   OH225531   3.327   4.102   1.244 -0.3039 -0.0140 -0.5124
 1299TIP3    H125532   3.286   4.186   1.223 -1.0782 -0.0721  0.6598
 1299TIP3    H225533   3.254   4.041   1.250  0.1052 -0.4471  0.1387
 1300TIP3   OH225534   6.119   5.830   8.582  0.4960  0.6681  0.1857
 1300TIP3    H125535   6.179   5.809   8.654  0.4977 -1.2410 -0.3156
 1300TIP3    H225536   6.176   5.845   8.507  0.4491 -2.6176 -0.6667
 1301TIP3   OH225537   5.241   3.399   0.831 -0.8282  0.2345 -0.2035
 1301TIP3    H125538   5.254   3.453   0.754  0.0368 -1.1102 -1.0511
 1301TIP3    H225539   5.156   3.426   0.866 -1.5371  0.4329 -1.9919
 1302TIP3   OH225540   5.772   5.687   0.377 -0.1010 -0.2141 -0.0567
 1302TIP3    H125541   5.784   5.643   0.293 -1.5642 -1.0823  0.1561
 1302TIP3    H225542   5.776   5.781   0.356  3.3605 -0.3466 -0.4656
 1303TIP3   OH225543   0.532   4.431   0.819  0.1132 -0.0565  0.1457
 1303TIP3    H125544   0.456   4.470   0.862 -0.2046 -1.3160  0.7758
 1303TIP3    H225545   0.602   4.438   0.883  0.5809  1.2286 -0.4883
 1304TIP3   OH225546   5.299   3.877   1.308 -0.0450  0.2463  0.2059
 1304TIP3    H125547   5.249   3.796   1.302  0.7654 -0.5084  2.6441
 1304TIP3    H225548   5.247   3.933   1.366  0.5249  0.5548  0.4284
 1305TIP3   OH225549   0.669   3.106   1.605  0.0092  0.4105  0.4658
 1305TIP3    H125550   0.588   3.137   1.644  0.3896  1.9769  0.0850
 1305TIP3    H225551   0.702   3.181   1.555  0.3321 -1.0047 -1.5892
 1306TIP3   OH225552   6.626   0.427   0.013  0.1369  0.1877  0.4135
 1306TIP3    H125553   6.623   0.453  -0.078 -0.9195 -1.2734 -0.0176
 1306TIP3    H225554   6.567   0.487   0.058 -1.9508 -1.1129 -0.4774
 1307TIP3   OH225555   4.181   2.877   2.009 -0.3039 -0.1510 -0.2846
 1307TIP3    H125556   4.180   2.833   2.094  1.0006  0.1852 -0.0650
 1307TIP3    H225557   4.265   2.851   1.971 -1.1548 -0.8399 -1.7850
 1308TIP3   OH225558   5.138   1.232   8.440  0.6879 -1.0377 -0.2788
 1308TIP3    H125559   5.123   1.271   8.526  3.1413  1.8172 -1.0136
 1308TIP3    H225560   5.066   1.264   8.386  3.0156  3.6087 -1.0764
 1309TIP3   OH225561   4.283   3.354   2.382  0.6360  0.5156 -0.4587
 1309TIP3    H125562   4.349   3.335   2.449 -0.5273  0.4723  0.7276
 1309TIP3    H225563   4.298   3.445   2.358  2.5014 -0.0920 -1.8440
 1310TIP3   OH225564   4.447   1.812   0.631 -0.1943 -0.5356 -0.2274
 1310TIP3    H125565   4.420   1.728   0.595  1.0631 -0.9310 -0.2958
 1310TIP3    H225566   4.399   1.877   0.580 -0.6090 -1.1839 -0.6737
 1311TIP3   OH225567   0.854   1.050   2.453 -0.3376 -0.2272 -0.1242
 1311TIP3    H125568   0.801   1.096   2.519  1.5290 -0.1611  1.4057
 1311TIP3    H225569   0.854   0.959   2.483  0.1283 -0.2828 -0.3015
 1312TIP3   OH225570   5.078   4.794   0.523 -0.0521  0.0915 -0.8320
 1312TIP3    H125571   5.082   4.869   0.583 -1.1393 -0.0724 -0.5430
 1312TIP3    H225572   4.999   4.809   0.471 -0.2103 -0.7973 -0.8579
 1313TIP3   OH225573   2.985   3.922   2.631  0.1897  0.2577 -0.1442
 1313TIP3    H125574   3.004   3.923   2.537 -1.3051  2.3696 -0.4842
 1313TIP3    H225575   3.059   3.967   2.672  0.3536  0.2332 -0.4142
 1314TIP3   OH225576   4.982   0.548   2.312  0.0577  0.0683 -0.3013
 1314TIP3    H125577   4.917   0.479   2.327 -0.3623  0.1152 -1.7235
 1314TIP3    H225578   5.061   0.517   2.357 -0.4827 -0.7624  0.1013
 1315TIP3   OH225579   0.934   5.939   1.364 -0.0493  0.0923  1.0443
 1315TIP3    H125580   0.887   5.876   1.309  0.0227  0.3012  0.7391
 1315TIP3    H225581   0.867   5.974   1.423 -0.8847  2.1640 -0.9470
 1316TIP3   OH225582   1.158   3.945   8.111 -0.2706 -0.1666 -0.2731
 1316TIP3    H125583   1.076   3.896   8.100 -1.6553  2.2042 -1.2899
 1316TIP3    H225584   1.198   3.943   8.024  1.7390 -2.7634  0.5927
 1317TIP3   OH225585   2.339   5.521   8.272 -0.0006  0.4991  0.3071
 1317TIP3    H125586   2.428   5.496   8.298  0.3241  1.4030  0.0971
 1317TIP3    H225587   2.344   5.616   8.259 -0.2910  0.2140 -2.4328
 1318TIP3   OH225588   3.933   5.389   0.703 -0.5749 -0.5169  0.0992
 1318TIP3    H125589   3.993   5.432   0.642  0.7569 -1.7721  0.4547
 1318TIP3    H225590   3.867   5.348   0.647 -0.0072 -0.7148 -0.4391
 1319TIP3   OH225591   4.867   4.892   1.797  0.4221 -0.1527  0.2642
 1319TIP3    H125592   4.880   4.843   1.878 -0.9703 -0.4178  0.3633
 1319TIP3    H225593   4.949   4.938   1.783  1.4804 -1.8228  0.6451
 1320TIP3   OH225594   0.869   1.666   1.989  0.4638  0.0276  0.2096
 1320TIP3    H125595   0.810   1.592   1.977  0.0236 -0.0719  2.5198
 1320TIP3    H225596   0.833   1.735   1.933 -0.7878 -0.6104  0.2011
 1321TIP3   OH225597   2.215   2.699   0.723 -0.2310 -0.0965  0.1607
 1321TIP3    H125598   2.162   2.733   0.795  0.5357  0.2369  0.5784
 1321TIP3    H225599   2.210   2.766   0.655  1.3226  0.9244  1.0035
 1322TIP3   OH225600   3.411   1.245   8.810  0.5280  0.2940 -0.4594
 1322TIP3    H125601   3.369   1.294   8.739  0.6559  0.8606 -0.1532
 1322TIP3    H225602   3.494   1.291   8.825 -0.8395  2.1758  2.1906
 1323TIP3   OH225603   2.137   3.956   3.355  0.0056  0.1765 -0.6080
 1323TIP3    H125604   2.227   3.953   3.321  0.1987  1.5136 -0.2427
 1323TIP3    H225605   2.130   3.876   3.408  0.8537 -0.1261 -0.9202
 1324TIP3   OH225606   4.409   5.605   2.065  0.1520  0.0066 -0.6969
 1324TIP3    H125607   4.469   5.549   2.114  0.3850 -0.4855 -1.5228
 1324TIP3    H225608   4.328   5.604   2.115  0.8123  0.6689  0.4330
 1325TIP3   OH225609   2.511   0.861   8.623 -0.7306 -0.0293  0.0699
 1325TIP3    H125610   2.488   0.772   8.596 -0.2576 -0.6859  1.6615
 1325TIP3    H225611   2.431   0.911   8.612 -1.2146 -0.8352 -0.1675
 1326TIP3   OH225612   3.515   5.469   2.971  0.1324  0.1856 -0.5744
 1326TIP3    H125613   3.565   5.413   3.030 -0.7468  0.3183  0.3413
 1326TIP3    H225614   3.578   5.535   2.942  1.1856 -1.2614 -1.6971
 1327TIP3   OH225615   3.785   2.422   8.629 -0.2378 -0.0161  0.4294
 1327TIP3    H125616   3.702   2.469   8.632 -0.2087  0.1184 -0.5802
 1327TIP3    H225617   3.816   2.433   8.539  1.0893  0.3091  0.9049
 1328TIP3   OH225618   4.288   5.799   8.772 -0.2897 -0.0888  0.2995
 1328TIP3    H125619   4.271   5.725   8.714  0.9974 -1.5785  1.7117
 1328TIP3    H225620   4.346   5.857   8.722 -0.8032 -0.3280 -0.5943
 1329TIP3   OH225621   6.416   4.969   2.544  0.2818 -0.4263 -0.2289
 1329TIP3    H125622   6.498   5.018   2.552 -0.0621 -0.0616  1.6037
 1329TIP3    H225623   6.420   4.904   2.615 -0.3520 -1.4311 -1.0904
 1330TIP3   OH225624   4.050   0.625   1.577  0.3471  0.4071  0.3071
 1330TIP3    H125625   3.990   0.614   1.651  1.8110  2.0681  1.8161
 1330TIP3    H225626   4.117   0.559   1.590  0.1421  0.1219 -0.0541
 1331TIP3   OH225627   2.859   1.401   2.816  0.1821 -1.2083 -0.5028
 1331TIP3    H125628   2.785   1.448   2.777  0.4715 -0.8201 -0.5817
 1331TIP3    H225629   2.933   1.459   2.804  0.3910 -1.3538  0.1004
 1332TIP3   OH225630   5.530   6.221   1.997 -0.1626 -0.1938  0.4350
 1332TIP3    H125631   5.491   6.256   2.078 -2.3865 -1.1002 -0.1684
 1332TIP3    H225632   5.528   6.126   2.009 -2.3402 -0.4637 -1.3737
 1333TIP3   OH225633   6.682   6.076   2.649  1.0112  0.6269 -0.2663
 1333TIP3    H125634   6.698   6.099   2.558 -0.2316  1.5997 -0.2598
 1333TIP3    H225635   6.769   6.075   2.689  1.7575 -1.3523 -1.7671
 1334TIP3   OH225636   2.791   0.956   8.562 -0.6369 -0.4437  0.0393
 1334TIP3    H125637   2.696   0.948   8.551 -0.8603  0.6894  0.9465
 1334TIP3    H225638   2.804   1.049   8.582  0.1910 -1.2717  4.2285
 1335TIP3   OH225639   2.720   4.503   7.732 -0.1757  0.1757 -0.1219
 1335TIP3    H125640   2.722   4.417   7.688  0.2193  0.1901 -0.1298
 1335TIP3    H225641   2.740   4.483   7.824  3.0514  0.5908 -0.6348
 1336TIP3   OH225642   1.352   4.437   1.181  0.5585 -0.0842  0.1236
 1336TIP3    H125643   1.398   4.400   1.105 -1.7497 -1.4939 -0.7048
 1336TIP3    H225644   1.367   4.531   1.175  1.9194 -0.3366 -1.0198
 1337TIP3   OH225645   5.189   0.959   0.444  0.0060 -0.2005  0.0288
 1337TIP3    H125646   5.232   0.916   0.518  1.3493  0.3613 -0.3953
 1337TIP3    H225647   5.133   1.026   0.484 -0.4677 -0.9161  0.5909
 1338TIP3   OH225648   0.977   1.288   8.076 -0.0776  0.0774 -0.0644
 1338TIP3    H125649   0.884   1.266   8.084 -0.2923  1.0925  0.5012
 1338TIP3    H225650   0.983   1.338   7.995  0.2540 -1.2410 -0.8830
 1339TIP3   OH225651   4.135   1.572   2.967 -0.5275  0.5898 -0.2944
 1339TIP3    H125652   4.150   1.477   2.975 -0.2893  0.7079  0.9324
 1339TIP3    H225653   4.040   1.581   2.966 -0.5598  0.2988 -1.2076
 1340TIP3   OH225654   2.066   4.792   1.357  0.2921 -0.2861 -0.5575
 1340TIP3    H125655   1.987   4.749   1.390  0.7679 -0.2448  0.6817
 1340TIP3    H225656   2.104   4.729   1.296 -0.4188 -0.5121 -0.7809
 1341TIP3   OH225657   2.211   0.615   8.308  0.2442 -0.0744 -0.1201
 1341TIP3    H125658   2.144   0.639   8.372  0.8653  0.3726  0.3768
 1341TIP3    H225659   2.272   0.689   8.308 -0.2513  0.4005 -1.9622
 1342TIP3   OH225660   6.027   1.498   2.632  1.0620  0.3892  0.0959
 1342TIP3    H125661   6.016   1.448   2.713 -0.0992  0.3857 -0.0483
 1342TIP3    H225662   5.983   1.582   2.650  1.2451  0.5848 -0.3613
 1343TIP3   OH225663   4.070   6.488   0.324  0.3535 -0.1710  0.3819
 1343TIP3    H125664   4.046   6.552   0.257  1.7229 -0.7608 -0.7061
 1343TIP3    H225665   4.163   6.501   0.339  0.6131 -1.7563  0.2989
 1344TIP3   OH225666   3.156   0.899   8.542 -0.4252  0.0154 -0.7668
 1344TIP3    H125667   3.095   0.972   8.545  1.0973  1.3630 -0.8278
 1344TIP3    H225668   3.168   0.875   8.634  0.1677  0.8366 -0.6180
 1345TIP3   OH225669   2.623   1.585   2.459 -0.2854  0.6390  0.1074
 1345TIP3    H125670   2.630   1.675   2.490 -0.1753  1.3888 -1.9618
 1345TIP3    H225671   2.713   1.561   2.436 -0.1374 -0.4189  1.6196
 1346TIP3   OH225672   0.537   5.085   0.819 -0.4886 -0.4705  0.0491
 1346TIP3    H125673   0.499   5.154   0.764 -1.2007 -0.0639  1.0128
 1346TIP3    H225674   0.549   5.127   0.905  1.9732 -0.6478 -0.1436
 1347TIP3   OH225675   5.457   4.785   1.884 -0.1931  0.3824  0.1716
 1347TIP3    H125676   5.465   4.711   1.945  1.9436  0.0278 -0.4481
 1347TIP3    H225677   5.401   4.848   1.929  0.9053 -0.0738  2.3047
 1348TIP3   OH225678   4.691   6.243   8.180 -0.7460  0.2798  0.4295
 1348TIP3    H125679   4.641   6.252   8.098 -2.0386 -0.3310  1.1290
 1348TIP3    H225680   4.635   6.283   8.246 -0.2366 -0.2823  1.2105
 1349TIP3   OH225681   3.718   3.362   0.024  0.2305 -0.2137  0.0797
 1349TIP3    H125682   3.691   3.270   0.023  1.1688 -0.5071 -1.1764
 1349TIP3    H225683   3.813   3.359   0.030  0.1994  0.7300  1.4566
 1350TIP3   OH225684   2.085   3.149   1.019  0.0656 -0.2648 -0.3275
 1350TIP3    H125685   2.056   3.175   0.932  0.6075  0.9637 -0.1585
 1350TIP3    H225686   2.171   3.109   1.005  0.2610  0.1487 -0.3499
 1351TIP3   OH225687   0.365   5.032   0.187 -0.0580  0.0959  0.1959
 1351TIP3    H125688   0.338   5.124   0.183 -0.1775  0.2194  2.4872
 1351TIP3    H225689   0.430   5.029   0.258  0.2336 -1.5186 -0.1105
 1352TIP3   OH225690   3.479   4.648   7.714  0.1237  0.3601 -0.3480
 1352TIP3    H125691   3.510   4.604   7.635 -0.7385  1.9711 -1.6625
 1352TIP3    H225692   3.443   4.579   7.768  1.6381 -0.9181 -0.9016
 1353TIP3   OH225693   6.446   2.512   7.998  0.3030  0.2236  0.0659
 1353TIP3    H125694   6.515   2.557   7.950  2.2765 -1.1224  1.4670
 1353TIP3    H225695   6.367   2.527   7.947  2.0125 -0.0615 -2.8904
 1354TIP3   OH225696   1.772   1.572   8.549  0.4557 -0.1206  0.3573
 1354TIP3    H125697   1.730   1.648   8.507 -0.3616 -0.4796  0.5005
 1354TIP3    H225698   1.865   1.583   8.531  0.1444 -0.2557 -1.5575
 1355TIP3   OH225699   3.556   1.650   1.764 -0.1918  0.1143 -0.0562
 1355TIP3    H125700   3.560   1.638   1.858 -2.4102 -0.2476  0.0409
 1355TIP3    H225701   3.500   1.579   1.733 -0.5281  0.9584 -1.4795
 1356TIP3   OH225702   3.884   6.480   1.602 -0.2190 -0.8212 -0.1685
 1356TIP3    H125703   3.840   6.453   1.683 -1.5165  0.9864 -0.2040
 1356TIP3    H225704   3.901   6.399   1.556 -0.7739 -1.7977  1.2569
 1357TIP3   OH225705   4.816   3.919   3.726 -0.5609  0.5455  0.6955
 1357TIP3    H125706   4.849   3.853   3.787  0.5178 -0.7404 -1.1727
 1357TIP3    H225707   4.888   3.982   3.719 -0.4126  0.3272  0.2481
 1358TIP3   OH225708   2.324   6.317   8.726  0.0322  0.3892 -0.1174
 1358TIP3    H125709   2.402   6.279   8.686 -0.4177 -0.2706 -0.3816
 1358TIP3    H225710   2.328   6.290   8.818 -0.5103 -0.7124 -0.3938
 1359TIP3   OH225711   2.958   4.676   7.568 -0.3489  0.5326 -0.0544
 1359TIP3    H125712   3.032   4.689   7.628 -0.0464  0.4814 -0.4079
 1359TIP3    H225713   2.950   4.581   7.560 -2.1873  0.4373  2.0771
 1360TIP3   OH225714   4.518   0.509   1.332 -0.4817 -0.0054  0.5297
 1360TIP3    H125715   4.609   0.490   1.355 -1.2057 -1.1498  2.7589
 1360TIP3    H225716   4.500   0.594   1.373 -0.9441 -0.7069  1.8455
 1361TIP3   OH225717   4.520   6.522   7.752 -0.2902 -0.0396 -0.0405
 1361TIP3    H125718   4.540   6.566   7.669  0.5692 -0.0585  0.1516
 1361TIP3    H225719   4.481   6.590   7.806 -2.3604 -0.3970 -0.9886
 1362TIP3   OH225720   2.014   1.684   3.239  0.1639  0.0049  0.5026
 1362TIP3    H125721   1.976   1.755   3.291 -1.2106 -1.7546  1.9933
 1362TIP3    H225722   2.033   1.615   3.302 -0.4540 -1.7721 -1.1701
 1363TIP3   OH225723   5.510   5.409   2.614 -0.2541 -0.4138  0.1277
 1363TIP3    H125724   5.581   5.471   2.596  0.1659 -0.8026  0.4355
 1363TIP3    H225725   5.507   5.353   2.537 -0.6360 -0.0145 -0.1525
 1364TIP3   OH225726   0.517   5.875   1.035  0.0829  0.3319  0.1157
 1364TIP3    H125727   0.525   5.917   1.121 -1.9643 -1.8675  1.5069
 1364TIP3    H225728   0.481   5.788   1.054 -0.7966 -0.1119 -3.0278
 1365TIP3   OH225729   1.827   3.660   1.749 -0.1511  0.0924  0.0520
 1365TIP3    H125730   1.744   3.669   1.702  0.3953  0.9830 -0.8056
 1365TIP3    H225731   1.853   3.569   1.736 -0.8549 -0.1251  0.1129
 1366TIP3   OH225732   1.005   1.176   0.320  0.0632  0.3426 -0.1374
 1366TIP3    H125733   1.016   1.174   0.225 -0.9625 -1.5129 -0.2663
 1366TIP3    H225734   1.069   1.240   0.351  2.1763 -0.8104 -1.8579
 1367TIP3   OH225735   2.109   1.761   0.989  0.3973  0.2703 -0.2512
 1367TIP3    H125736   2.048   1.688   0.984 -0.7864  1.3069 -2.6300
 1367TIP3    H225737   2.171   1.745   0.918  1.7600  0.2457  0.9057
 1368TIP3   OH225738   3.843   5.133   8.027  0.0141  0.3693  0.0234
 1368TIP3    H125739   3.776   5.082   7.980  0.4218 -0.8436  0.7058
 1368TIP3    H225740   3.924   5.084   8.013  0.1173 -0.1437  2.1090
 1369TIP3   OH225741   0.904   6.199   8.117  0.5928  0.5642  0.4241
 1369TIP3    H125742   0.923   6.109   8.088 -2.2699 -0.6066  1.7976
 1369TIP3    H225743   0.971   6.252   8.074  1.8250 -2.0847 -1.2272
 1370TIP3   OH225744   6.511   4.621   2.025  0.0106  0.7364 -0.2774
 1370TIP3    H125745   6.570   4.693   2.043  0.6998 -0.0557  0.7847
 1370TIP3    H225746   6.555   4.544   2.062 -1.0653 -0.0918 -0.6598
 1371TIP3   OH225747   0.367   6.530   1.857 -0.0839 -0.2032 -0.2326
 1371TIP3    H125748   0.321   6.608   1.827 -0.9371 -0.4885  0.2988
 1371TIP3    H225749   0.434   6.563   1.917 -1.8977  0.0027  1.7794
 1372TIP3   OH225750   0.349   1.447   0.943 -0.6335  0.2835  0.2784
 1372TIP3    H125751   0.281   1.390   0.979 -0.7782 -0.4636 -1.0842
 1372TIP3    H225752   0.428   1.392   0.941 -1.0714 -0.4187 -2.2589
 1373TIP3   OH225753   0.510   1.368   8.613  0.2050  0.6786 -0.0345
 1373TIP3    H125754   0.451   1.404   8.679 -2.2703 -2.5706 -0.2298
 1373TIP3    H225755   0.572   1.314   8.662 -0.0837  0.2063 -0.1871
 1374TIP3   OH225756   6.192   6.634   1.160  0.4819 -0.0014  0.5452
 1374TIP3    H125757   6.162   6.568   1.223 -0.2421  0.6569  0.9024
 1374TIP3    H225758   6.186   6.717   1.207 -0.3720  0.5441 -0.4809
 1375TIP3   OH225759   2.364   5.968   2.628  0.0082 -0.2537 -0.0716
 1375TIP3    H125760   2.326   6.032   2.568 -0.9949  0.3064  1.1303
 1375TIP3    H225761   2.298   5.900   2.636 -0.5164  0.3986  1.5121
 1376TIP3   OH225762   1.479   3.064   2.090  0.1689 -0.3345 -0.6206
 1376TIP3    H125763   1.411   3.112   2.139  1.1854 -0.6720  1.2125
 1376TIP3    H225764   1.464   2.973   2.113  0.8074 -0.4778 -0.7598
 1377TIP3   OH225765   4.676   6.268   1.369  0.3147 -0.6407  0.3135
 1377TIP3    H125766   4.587   6.237   1.389  0.3779 -0.9583  0.0985
 1377TIP3    H225767   4.665   6.362   1.356 -0.4949 -1.0163 -2.4251
 1378TIP3   OH225768   2.910   6.565   1.312 -0.1154 -0.8417 -0.1887
 1378TIP3    H125769   2.959   6.632   1.360 -1.3820  0.2363 -0.3365
 1378TIP3    H225770   2.932   6.483   1.356  2.3450 -0.5255 -0.7037
 1379TIP3   OH225771   3.380   1.013   2.931  0.4568 -0.2212 -0.2022
 1379TIP3    H125772   3.341   1.096   2.959  1.1338 -0.0146  0.1393
 1379TIP3    H225773   3.319   0.946   2.963 -0.3497  0.1600 -0.9145
 1380TIP3   OH225774   1.426   6.147   2.616 -0.1012  0.1852 -0.4312
 1380TIP3    H125775   1.458   6.056   2.619 -1.7814 -0.4324 -0.3274
 1380TIP3    H225776   1.445   6.175   2.527  0.3861 -0.2855 -0.4839
 1381TIP3   OH225777   0.050   6.007   1.151  0.0007  0.1422 -0.4014
 1381TIP3    H125778   0.064   6.019   1.245 -0.3506  2.7047 -0.5932
 1381TIP3    H225779  -0.024   5.946   1.145 -1.6679  1.8840  1.1039
 1382TIP3   OH225780   6.635   4.944   3.342 -0.1267  0.3030 -0.0312
 1382TIP3    H125781   6.678   5.022   3.377 -0.5869  0.7048 -0.3449
 1382TIP3    H225782   6.552   4.976   3.307  0.3496 -0.0643 -1.5724
 1383TIP3   OH225783   3.425   6.026   1.513 -0.1174 -0.3585 -0.0815
 1383TIP3    H125784   3.333   6.030   1.484 -0.2663 -1.6699  0.1703
 1383TIP3    H225785   3.433   6.098   1.576 -0.7943  0.1594 -0.5625
 1384TIP3   OH225786   0.290   0.766   3.731 -0.2165 -0.1642  0.4955
 1384TIP3    H125787   0.234   0.793   3.658 -0.8297 -1.6491  0.3964
 1384TIP3    H225788   0.233   0.714   3.788  1.0853 -1.9213  0.2846
 1385TIP3   OH225789   5.837   6.233   3.543 -0.3711 -0.2706  0.0110
 1385TIP3    H125790   5.880   6.218   3.628 -1.2046 -1.0573  0.3022
 1385TIP3    H225791   5.792   6.317   3.555 -1.3426 -0.8743  0.7129
 1386TIP3   OH225792   1.163   0.781   8.914  0.1306 -0.4154 -0.0251
 1386TIP3    H125793   1.073   0.753   8.896 -0.4938  2.4325 -1.9447
 1386TIP3    H225794   1.158   0.823   9.000 -0.2323 -0.8068  0.1512
 1387TIP3   OH225795   1.340   5.854   8.218 -0.1562 -0.2967  0.2074
 1387TIP3    H125796   1.361   5.766   8.187 -0.9562 -0.3624 -0.1726
 1387TIP3    H225797   1.305   5.841   8.306  0.2571 -0.2965  0.3769
 1388TIP3   OH225798   1.551   3.546   2.923 -0.8147  0.1366  0.1956
 1388TIP3    H125799   1.575   3.635   2.899 -2.3852  0.4798 -0.1900
 1388TIP3    H225800   1.475   3.556   2.980 -0.5078 -0.9267  0.8215
 1389TIP3   OH225801   3.872   4.223   2.390  0.7967 -0.1772 -0.4051
 1389TIP3    H125802   3.815   4.284   2.437  1.0982  0.4755 -0.8755
 1389TIP3    H225803   3.874   4.256   2.300  0.3526 -1.3189 -0.8587
 1390TIP3   OH225804   3.939   0.440   7.819  0.1196 -0.2001  0.3335
 1390TIP3    H125805   3.926   0.413   7.910  0.5597 -0.0713  0.4333
 1390TIP3    H225806   3.877   0.512   7.807 -0.4233 -0.6538  0.3293
 1391TIP3   OH225807   5.242   3.378   2.567 -1.0766 -0.2161  0.2745
 1391TIP3    H125808   5.255   3.377   2.662  1.6289 -0.7193  0.0039
 1391TIP3    H225809   5.321   3.419   2.533 -0.5674 -2.6616 -1.8625
 1392TIP3   OH225810   0.673   4.974   7.853 -0.2553  0.5667  0.4591
 1392TIP3    H125811   0.754   5.024   7.863  0.6395 -0.6841 -0.2836
 1392TIP3    H225812   0.675   4.943   7.762 -0.7904 -0.7977  0.8945
 1393TIP3   OH225813   4.745   6.387   2.021  0.0249  0.3280  0.1009
 1393TIP3    H125814   4.732   6.358   1.931  0.4045  0.8645 -0.1282
 1393TIP3    H225815   4.814   6.453   2.016 -0.3562  0.7877  0.7008
 1394TIP3   OH225816   0.374   3.644   8.421  0.5460  0.4158 -0.1230
 1394TIP3    H125817   0.437   3.679   8.358  1.4989  1.1728  1.1899
 1394TIP3    H225818   0.329   3.721   8.455  1.0865  0.1905  1.1605
 1395TIP3   OH225819   1.831   3.653   2.391 -0.0094 -0.2479 -0.0690
 1395TIP3    H125820   1.908   3.614   2.348  0.7180 -0.6664  1.5163
 1395TIP3    H225821   1.790   3.579   2.436 -1.0751  0.0782 -0.4744
 1396TIP3   OH225822   5.041   4.350   0.425 -0.3122  0.1194 -0.3892
 1396TIP3    H125823   5.002   4.278   0.376  1.1274 -0.1253 -1.2341
 1396TIP3    H225824   5.075   4.410   0.359  0.2685  0.5816  0.3031
 1397TIP3   OH225825   2.818   3.472   1.568 -0.1475 -1.1784  0.2549
 1397TIP3    H125826   2.839   3.383   1.538  1.7100 -0.3662 -1.0046
 1397TIP3    H225827   2.873   3.529   1.515  0.7852  0.5851  2.8881
 1398TIP3   OH225828   3.594   6.668   2.454 -0.4204 -0.1199  0.4644
 1398TIP3    H125829   3.664   6.638   2.511  0.3990  0.2720 -0.3136
 1398TIP3    H225830   3.518   6.677   2.511  0.1177 -0.7015  1.2881
 1399TIP3   OH225831   3.327   2.100   2.462 -0.1592  0.3550 -0.5875
 1399TIP3    H125832   3.318   2.111   2.367  0.1882  2.2437 -0.4220
 1399TIP3    H225833   3.339   2.005   2.473 -1.3142 -0.0527 -2.3177
 1400TIP3   OH225834   3.913   5.626   7.348  0.7038  0.1037 -0.2558
 1400TIP3    H125835   3.948   5.673   7.423 -3.5068  0.0592  2.0815
 1400TIP3    H225836   3.928   5.534   7.369 -0.3824  0.0948  0.5672
 1401TIP3   OH225837   0.797   6.491   2.422  0.8716  0.3089  0.0928
 1401TIP3    H125838   0.882   6.448   2.436 -0.4234 -2.9296 -0.9663
 1401TIP3    H225839   0.791   6.500   2.326  0.4161  1.3936  0.2156
 1402TIP3   OH225840   0.006   3.089   8.454  0.0413  0.5385  0.8236
 1402TIP3    H125841  -0.089   3.093   8.437  0.4605  0.1170 -2.2055
 1402TIP3    H225842   0.019   3.001   8.489 -0.7264  0.7137  1.5842
 1403TIP3   OH225843   0.109   1.247   3.205 -0.3674 -0.2420 -0.5855
 1403TIP3    H125844   0.028   1.298   3.210  0.6723  1.4189  0.4061
 1403TIP3    H225845   0.100   1.180   3.273 -0.9811 -0.1831 -0.6074
 1404TIP3   OH225846   2.268   0.441   2.850 -0.6353 -0.2649 -0.1505
 1404TIP3    H125847   2.258   0.382   2.775  0.5817  0.8613 -1.2421
 1404TIP3    H225848   2.310   0.387   2.917  1.6133 -0.3663 -1.5565
 1405TIP3   OH225849   6.554   6.545   8.086 -0.7567  0.0265  1.0010
 1405TIP3    H125850   6.466   6.509   8.075 -1.6586  1.5208  2.7905
 1405TIP3    H225851   6.554   6.624   8.032  0.6241 -1.5692 -1.5153
 1406TIP3   OH225852   3.580   0.403   1.028  0.0600 -0.2067 -0.2440
 1406TIP3    H125853   3.502   0.433   0.980  1.1691  1.2818 -1.2111
 1406TIP3    H225854   3.647   0.469   1.008  1.9049 -2.0221 -0.3186
 1407TIP3   OH225855   2.306   4.317   0.792 -0.1554  0.1605  0.0756
 1407TIP3    H125856   2.361   4.270   0.854 -0.9097 -2.8087 -1.3095
 1407TIP3    H225857   2.219   4.316   0.833 -0.5976 -1.5717 -0.7918
 1408TIP3   OH225858   5.310   3.248   1.501 -0.0870 -0.0371 -0.0340
 1408TIP3    H125859   5.311   3.285   1.590  0.8616  0.7783 -0.3721
 1408TIP3    H225860   5.325   3.154   1.514 -3.1714 -0.5141  0.8915
 1409TIP3   OH225861   1.251   4.631   2.838 -0.9018  0.1511  0.1096
 1409TIP3    H125862   1.266   4.650   2.746  1.0217  1.0794  0.5521
 1409TIP3    H225863   1.288   4.706   2.885 -0.5942 -0.9069  1.6611
 1410TIP3   OH225864   5.819   3.777   1.249  0.6289 -0.9563 -0.5492
 1410TIP3    H125865   5.773   3.693   1.254 -1.2960  0.0114 -0.7104
 1410TIP3    H225866   5.880   3.767   1.176  0.4316 -2.1981 -0.5682
 1411TIP3   OH225867   0.970   5.000   2.211  0.2061  0.4494  0.2032
 1411TIP3    H125868   0.875   4.992   2.213  0.2106 -1.5473 -2.1437
 1411TIP3    H225869   0.997   4.944   2.138  3.1835  1.0678  0.6944
 1412TIP3   OH225870   2.105   4.949   8.415  0.3854  0.0246  0.3605
 1412TIP3    H125871   2.044   4.907   8.477 -1.0236  1.8144  0.2658
 1412TIP3    H225872   2.071   5.037   8.405  1.9344  0.4819 -1.2299
 1413TIP3   OH225873   2.216   3.309   8.010  0.2277 -0.2469  0.4715
 1413TIP3    H125874   2.207   3.287   8.103 -1.6055 -1.1839  0.1254
 1413TIP3    H225875   2.151   3.379   7.997  0.8736  0.2731  0.0046
 1414TIP3   OH225876   5.729   0.473   1.982 -0.2319  0.1511  0.5080
 1414TIP3    H125877   5.792   0.473   1.910  0.1538 -0.8978  0.8266
 1414TIP3    H225878   5.648   0.506   1.944 -1.0603 -3.5390 -1.3625
 1415TIP3   OH225879   6.397   2.775   3.427 -0.2888  0.0306  0.3944
 1415TIP3    H125880   6.317   2.821   3.451 -0.4131  0.3484 -0.6089
 1415TIP3    H225881   6.445   2.767   3.510  0.1787  2.7824  0.4787
 1416TIP3   OH225882   4.876   5.257   0.718  0.4409 -0.1997  0.1450
 1416TIP3    H125883   4.809   5.315   0.754  2.4364  1.4264  1.4972
 1416TIP3    H225884   4.834   5.216   0.643 -1.6587  1.6831  0.1706
 1417TIP3   OH225885   1.606   4.280   8.930 -0.7831  0.6916  0.2794
 1417TIP3    H125886   1.640   4.305   9.017  0.1745  2.2812 -0.4951
 1417TIP3    H225887   1.648   4.197   8.911  1.6017  1.8513  0.0237
 1418TIP3   OH225888   0.087   4.936   8.813  0.8063  0.8544  0.1043
 1418TIP3    H125889   0.048   4.957   8.728  0.6462  0.3523  0.0496
 1418TIP3    H225890   0.174   4.902   8.791 -0.4814 -2.7069 -0.1912
 1419TIP3   OH225891   1.723   2.352   1.805 -0.3040  0.3634  0.1610
 1419TIP3    H125892   1.780   2.335   1.880 -0.8063  1.9253  0.9413
 1419TIP3    H225893   1.764   2.425   1.758 -0.6538  0.2318 -0.3692
 1420TIP3   OH225894   3.837   1.342   9.036  0.4410  0.1862 -0.0962
 1420TIP3    H125895   3.852   1.280   9.108 -2.0153  2.0826  2.2068
 1420TIP3    H225896   3.910   1.403   9.042  1.0010 -0.4568 -0.1614
 1421TIP3   OH225897   0.227   4.220   2.249 -0.1455  0.6417  0.2114
 1421TIP3    H125898   0.279   4.148   2.285  0.2110  0.6485 -0.2883
 1421TIP3    H225899   0.153   4.228   2.309  1.1608  1.5745  1.7764
 1422TIP3   OH225900   6.269   1.766   2.529 -0.1506 -0.5408 -0.4656
 1422TIP3    H125901   6.197   1.826   2.508  0.9709  0.8497 -0.4754
 1422TIP3    H225902   6.239   1.721   2.608 -1.5067 -0.8441 -1.1153
 1423TIP3   OH225903   5.143   1.221   1.656 -0.6571 -0.0086 -0.0952
 1423TIP3    H125904   5.174   1.246   1.569  0.6466 -0.2428  0.2889
 1423TIP3    H225905   5.114   1.130   1.646  0.6665 -0.4527 -0.0090
 1424TIP3   OH225906   3.426   6.525   8.120  0.0444 -0.4405 -0.1517
 1424TIP3    H125907   3.388   6.438   8.109  2.4949 -1.4612 -1.2969
 1424TIP3    H225908   3.515   6.517   8.086  0.6825  2.2811  0.6159
 1425TIP3   OH225909   0.052   1.017   0.095  0.0749  0.1216  0.0894
 1425TIP3    H125910  -0.023   0.958   0.111 -0.1728  0.6921  1.1271
 1425TIP3    H225911   0.013   1.104   0.091  0.4209  0.2256 -1.6153
 1426TIP3   OH225912   6.023   0.888   0.716  0.3236  0.1570 -0.1096
 1426TIP3    H125913   6.030   0.975   0.754 -0.1348  0.2693 -0.2687
 1426TIP3    H225914   6.102   0.843   0.744  0.7934  0.7765 -0.4219
 1427TIP3   OH225915   5.160   1.601   8.717 -0.5253  0.1349  0.2358
 1427TIP3    H125916   5.093   1.588   8.649 -1.5366 -1.5586  1.4829
 1427TIP3    H225917   5.240   1.566   8.679 -0.4774  1.4609 -0.9772
 1428TIP3   OH225918   6.203   0.278   1.828 -0.0849 -0.1213  0.4780
 1428TIP3    H125919   6.225   0.349   1.888  1.5773  0.1296 -0.3780
 1428TIP3    H225920   6.263   0.289   1.755 -0.3531 -1.9256 -0.0548
 1429TIP3   OH225921   5.892   0.354   3.528  0.1098 -0.0496 -0.2305
 1429TIP3    H125922   5.862   0.303   3.452 -0.2452 -0.9208  0.4732
 1429TIP3    H225923   5.987   0.341   3.529 -0.0623 -1.5030  0.4685
 1430TIP3   OH225924   5.675   5.796   2.778  0.3538  0.3347 -0.1766
 1430TIP3    H125925   5.591   5.751   2.786 -1.1779  2.6544 -1.9131
 1430TIP3    H225926   5.657   5.886   2.806  2.6011  0.6213  0.5784
 1431TIP3   OH225927   2.406   6.007   1.316 -0.0425  0.0091  0.0840
 1431TIP3    H125928   2.450   6.047   1.391 -0.2637 -1.4256  1.0262
 1431TIP3    H225929   2.312   6.018   1.333 -0.1751 -2.2464  1.2155
 1432TIP3   OH225930   0.135   0.264   0.029  0.1313  0.3000  0.0957
 1432TIP3    H125931   0.126   0.202  -0.044  0.1788 -0.6431  0.8614
 1432TIP3    H225932   0.046   0.286   0.054  0.0021 -1.6454  1.5851
 1433TIP3   OH225933   4.987   1.268   9.064 -0.1473  0.4187 -0.0722
 1433TIP3    H125934   5.018   1.204   9.000 -1.0616 -1.3348  1.1405
 1433TIP3    H225935   4.959   1.343   9.012 -0.2088 -0.6628 -1.6645
 1434TIP3   OH225936   4.818   3.114   2.384 -0.2969 -0.3243  0.3454
 1434TIP3    H125937   4.795   3.196   2.426 -0.0121  0.1846 -0.4712
 1434TIP3    H225938   4.902   3.131   2.341 -0.6273 -0.7818 -0.5157
 1435TIP3   OH225939   3.499   3.777   8.567 -0.2755 -0.3381  0.1981
 1435TIP3    H125940   3.464   3.775   8.478  0.8126  0.5436 -0.2625
 1435TIP3    H225941   3.567   3.709   8.567  0.3020  0.2356  0.1028
 1436TIP3   OH225942   2.689   2.909   1.984  0.1461  0.3731  0.2531
 1436TIP3    H125943   2.702   2.885   2.076  2.4851 -2.4416 -0.6566
 1436TIP3    H225944   2.771   2.953   1.959  0.8473 -1.5846 -1.1562
 1437TIP3   OH225945   6.339   3.228   8.605 -0.8054  0.2923 -0.4409
 1437TIP3    H125946   6.370   3.138   8.614 -1.2249  0.0624 -1.2241
 1437TIP3    H225947   6.247   3.219   8.579 -1.4078  0.9604  1.2981
 1438TIP3   OH225948   1.883   2.897   1.477  0.2550 -0.8511  0.4993
 1438TIP3    H125949   1.977   2.915   1.475  0.1448 -0.0354  1.5825
 1438TIP3    H225950   1.864   2.856   1.392  1.5232 -0.7472  0.1485
 1439TIP3   OH225951   2.271   0.076   8.876 -0.0238 -0.0171 -0.2755
 1439TIP3    H125952   2.278   0.097   8.783 -0.7782  0.9598 -0.1324
 1439TIP3    H225953   2.298   0.156   8.921 -3.0245  0.8080  0.3022
 1440TIP3   OH225954   0.665   2.702   1.296  0.7490 -0.2869  0.7454
 1440TIP3    H125955   0.644   2.785   1.254  1.3147 -0.7638 -0.5275
 1440TIP3    H225956   0.732   2.724   1.362 -1.0036  0.6530  2.3037
 1441TIP3   OH225957   2.368   4.823   3.208  0.0449 -0.2486 -0.3069
 1441TIP3    H125958   2.390   4.836   3.301 -0.3216 -0.0085 -0.2504
 1441TIP3    H225959   2.391   4.732   3.190 -3.5514 -1.6026  1.0816
 1442TIP3   OH225960   3.873   6.108   2.054 -0.1411 -0.4796 -0.1286
 1442TIP3    H125961   3.789   6.125   2.012  0.3548  0.1014 -0.9419
 1442TIP3    H225962   3.877   6.170   2.127 -0.1294  0.0051 -0.5294
 1443TIP3   OH225963   6.169   6.402   8.256  0.6896  0.3293 -0.3598
 1443TIP3    H125964   6.155   6.376   8.347 -0.2802 -0.2231 -0.6578
 1443TIP3    H225965   6.082   6.421   8.222  0.0663 -4.8642 -2.7661
 1444TIP3   OH225966   2.030   2.769   8.696  0.4361 -0.3148  0.0598
 1444TIP3    H125967   1.964   2.740   8.760 -2.0855  4.0816 -0.1838
 1444TIP3    H225968   1.987   2.759   8.611  1.0023  0.4412 -0.3283
 1445TIP3   OH225969   5.659   6.663   8.507  0.1410 -0.5003  0.4541
 1445TIP3    H125970   5.703   6.579   8.494  0.7116 -0.1702  0.2048
 1445TIP3    H225971   5.566   6.641   8.508  0.1247 -0.8621 -2.0330
 1446TIP3   OH225972   4.852   6.650   8.644  0.0850 -0.4141 -0.5175
 1446TIP3    H125973   4.895   6.599   8.713  0.6053  1.8773  0.9523
 1446TIP3    H225974   4.920   6.710   8.613 -0.2801 -1.0621 -2.7591
 1447TIP3   OH225975   1.342   4.069   1.039 -0.4673  0.5000  0.0411
 1447TIP3    H125976   1.279   4.083   1.110 -0.3683  0.6741  0.0960
 1447TIP3    H225977   1.423   4.110   1.071 -0.3046  0.2071  0.0068
 1448TIP3   OH225978   4.956   0.784   8.363 -0.0685  0.1885 -0.1471
 1448TIP3    H125979   4.936   0.804   8.272  1.2847  0.6995 -0.3578
 1448TIP3    H225980   4.881   0.817   8.413  0.2398  2.0594 -0.8734
 1449TIP3   OH225981   5.502   2.615   1.403 -0.1651  0.0459  0.2919
 1449TIP3    H125982   5.504   2.627   1.498  0.9027  1.2197  0.1543
 1449TIP3    H225983   5.565   2.546   1.386 -2.4936 -2.3200  0.6381
 1450TIP3   OH225984   4.455   4.990   1.896  0.0253  0.5534  0.1819
 1450TIP3    H125985   4.479   5.038   1.817  0.2664  2.9789  1.6306
 1450TIP3    H225986   4.365   4.962   1.880  0.1573  0.7479 -1.0406
 1451TIP3   OH225987   2.265   5.266   8.189 -0.1247  0.1587  0.2303
 1451TIP3    H125988   2.260   5.289   8.096 -1.2022  1.3313  0.5426
 1451TIP3    H225989   2.329   5.328   8.225 -0.1703  0.1190  0.3791
 1452TIP3   OH225990   2.391   3.076   1.357  0.0854  0.2176  0.0213
 1452TIP3    H125991   2.345   3.000   1.393 -0.9030 -0.0728 -1.7310
 1452TIP3    H225992   2.352   3.151   1.401  0.7265 -0.2270  1.4136
 1453TIP3   OH225993   3.667   1.107   1.978  0.4424 -0.1913  0.5144
 1453TIP3    H125994   3.729   1.180   1.981 -0.7429  0.8581  0.5563
 1453TIP3    H225995   3.590   1.140   2.024 -0.8486 -0.7625 -1.1608
 1454TIP3   OH225996   3.600   6.024   1.317  0.2092 -0.3370  0.0287
 1454TIP3    H125997   3.538   6.001   1.248  0.4507  0.8293 -0.6004
 1454TIP3    H225998   3.546   6.036   1.394  0.0277 -2.5790  0.3309
 1455TIP3   OH225999   6.620   2.262   2.855 -0.3984 -0.0239 -0.7168
 1455TIP3    H126000   6.610   2.176   2.897 -1.4968  0.7186  0.6200
 1455TIP3    H226001   6.691   2.304   2.903 -1.7828  0.9011  0.6142
 1456TIP3   OH226002   5.697   4.755   2.500  0.0161 -1.0697 -0.1045
 1456TIP3    H126003   5.781   4.723   2.534 -0.8434 -1.4551  1.8375
 1456TIP3    H226004   5.712   4.848   2.483  1.0757 -1.3239 -0.6325
 1457TIP3   OH226005   5.584   6.525   9.085  0.2592 -0.0116  0.2040
 1457TIP3    H126006   5.657   6.463   9.082 -1.9997 -2.8317 -0.1664
 1457TIP3    H226007   5.582   6.564   8.997  0.9970 -0.2637  0.0728
 1458TIP3   OH226008   0.622   5.179   7.581 -0.2806 -0.2771 -0.0004
 1458TIP3    H126009   0.542   5.208   7.537  0.2282  0.4722 -0.4361
 1458TIP3    H226010   0.608   5.085   7.595 -1.4740 -0.0567  0.4384
 1459TIP3   OH226011   4.691   1.760   8.969 -0.4992  0.0094  0.2383
 1459TIP3    H126012   4.673   1.710   8.890 -1.7897  0.2250  0.3679
 1459TIP3    H226013   4.723   1.844   8.938  0.8125 -0.5679  0.0017
 1460TIP3   OH226014   3.343   0.253   2.603  0.2017 -0.1329 -0.2205
 1460TIP3    H126015   3.290   0.333   2.607  1.4136  0.8279 -1.9402
 1460TIP3    H226016   3.408   0.264   2.672 -0.5775 -0.4003  0.5818
 1461TIP3   OH226017   5.410   1.793   8.525  0.1645  0.1991  0.3243
 1461TIP3    H126018   5.441   1.707   8.555 -1.8546 -1.1428 -1.1448
 1461TIP3    H226019   5.478   1.854   8.551  1.2769 -1.7288  2.1833
 1462TIP3   OH226020   5.118   4.514   3.655  0.2601  0.9137 -0.0638
 1462TIP3    H126021   5.150   4.597   3.619 -1.4874  2.0031  0.7499
 1462TIP3    H226022   5.076   4.539   3.737 -0.2703 -0.8057  0.2249
 1463TIP3   OH226023   5.479   2.544   8.327  0.6072 -0.2489  0.3908
 1463TIP3    H126024   5.509   2.483   8.394 -0.9999 -0.6841  0.7675
 1463TIP3    H226025   5.432   2.490   8.263  1.1327  0.3060 -0.4857
 1464TIP3   OH226026   3.198   3.628   1.604 -0.6415  1.0202 -0.4716
 1464TIP3    H126027   3.245   3.546   1.618 -1.9786 -0.0516 -1.9039
 1464TIP3    H226028   3.266   3.695   1.606  0.8115 -0.3525 -1.4574
 1465TIP3   OH226029   4.034   2.813   0.494 -0.1612 -0.6208  0.0012
 1465TIP3    H126030   4.060   2.870   0.566 -0.7107 -1.9107  1.2829
 1465TIP3    H226031   4.084   2.732   0.510 -0.1351 -0.8520 -1.2014
 1466TIP3   OH226032   0.117   0.668   8.718 -0.0162  0.0869  0.3182
 1466TIP3    H126033   0.116   0.656   8.623  1.4977 -0.1676  0.3089
 1466TIP3    H226034   0.044   0.727   8.735 -0.2453  0.2248 -1.0231
 1467TIP3   OH226035   6.592   5.150   8.827 -0.7955  0.3043 -0.2129
 1467TIP3    H126036   6.627   5.235   8.855 -1.8797  0.3191  1.2219
 1467TIP3    H226037   6.663   5.088   8.843 -0.6316  0.6696  0.5140
 1468TIP3   OH226038   1.559   5.139   8.884  0.0690 -0.4566 -0.2632
 1468TIP3    H126039   1.474   5.148   8.928  0.6795  0.7358  0.7082
 1468TIP3    H226040   1.613   5.091   8.946  0.8178  0.9021  0.1717
 1469TIP3   OH226041   5.495   2.102   2.419  0.2841 -0.8248  0.0203
 1469TIP3    H126042   5.484   2.181   2.472 -0.0713 -1.2810  0.6371
 1469TIP3    H226043   5.506   2.134   2.330  0.8632 -0.0492  0.3694
 1470TIP3   OH226044   3.515   0.041   7.812  0.1539 -0.7692 -0.4754
 1470TIP3    H126045   3.492  -0.052   7.810  0.1228 -0.7796  0.1909
 1470TIP3    H226046   3.436   0.086   7.781  0.3971 -0.9922 -1.4645
 1471TIP3   OH226047   5.844   4.128   0.673 -0.6298 -0.2710 -0.5374
 1471TIP3    H126048   5.832   4.171   0.758  1.8723 -1.2970  0.4114
 1471TIP3    H226049   5.825   4.036   0.690 -1.8678 -0.2432 -1.5796
 1472TIP3   OH226050   3.332   2.876   2.137 -0.4858 -0.4746  0.1503
 1472TIP3    H126051   3.419   2.840   2.154  0.4643  1.7428  0.2803
 1472TIP3    H226052   3.331   2.893   2.043 -1.4389 -1.9618 -0.1584
 1473TIP3   OH226053   5.963   1.964   1.623 -0.1108 -0.1422 -0.0233
 1473TIP3    H126054   6.017   1.887   1.607 -0.3659  0.0238 -1.9044
 1473TIP3    H226055   5.995   1.998   1.706  1.4247 -1.0896 -0.1719
 1474TIP3   OH226056   2.543   1.690   8.751 -0.2873  0.3282 -0.6745
 1474TIP3    H126057   2.505   1.740   8.679 -0.5386 -1.6435 -1.9914
 1474TIP3    H226058   2.581   1.756   8.810 -2.5961  2.1636 -1.1172
 1475TIP3   OH226059   2.495   2.400   1.855  0.5013 -0.3028  0.1004
 1475TIP3    H126060   2.481   2.487   1.893  0.9613  0.9103 -2.2814
 1475TIP3    H226061   2.582   2.405   1.814 -0.7833 -0.6533 -2.9627
 1476TIP3   OH226062   3.486   0.455   1.285 -0.2233  0.6412  0.4627
 1476TIP3    H126063   3.521   0.419   1.203 -0.5447 -0.8529  0.9440
 1476TIP3    H226064   3.554   0.435   1.350 -0.1902  1.3774  0.6596
 1477TIP3   OH226065   2.506   6.170   7.470 -0.2762  0.0962  0.8695
 1477TIP3    H126066   2.430   6.200   7.420  0.1558  1.0187  0.7389
 1477TIP3    H226067   2.572   6.151   7.404 -0.0081  0.4365  1.0361
 1478TIP3   OH226068   5.460   4.068   1.201 -0.6582 -0.3650 -0.0496
 1478TIP3    H126069   5.516   4.002   1.160  0.5174 -0.4422  1.5713
 1478TIP3    H226070   5.387   4.019   1.237 -1.4316 -0.3573 -1.5065
 1479TIP3   OH226071   2.227   0.036   0.470 -0.3226  0.0575 -0.3220
 1479TIP3    H126072   2.314   0.061   0.501  0.7086 -2.4511 -0.9707
 1479TIP3    H226073   2.240   0.011   0.378 -1.1251 -2.8074  0.2418
 1480TIP3   OH226074   1.565   0.800   0.966  0.1263  0.2183  0.4305
 1480TIP3    H126075   1.611   0.838   1.041  1.1843 -1.3431  0.6097
 1480TIP3    H226076   1.628   0.739   0.928 -0.2583  1.1760 -1.9217
 1481TIP3   OH226077   5.784   0.971   0.048  0.0462  0.4200  0.2562
 1481TIP3    H126078   5.714   0.957  -0.017  0.0593  0.6418  0.1952
 1481TIP3    H226079   5.848   0.903   0.029 -0.3257 -0.0180  0.5482
 1482TIP3   OH226080   3.484   5.278   3.323  0.1010 -0.0191  0.3148
 1482TIP3    H126081   3.564   5.285   3.270 -0.3240 -3.5034 -1.0623
 1482TIP3    H226082   3.418   5.247   3.262 -1.5551 -0.1325  2.0849
 1483TIP3   OH226083   1.119   2.364   3.112 -0.2316 -0.3636 -0.0635
 1483TIP3    H126084   1.031   2.332   3.132  1.0074 -3.7202  0.6940
 1483TIP3    H226085   1.149   2.405   3.193 -1.7578  2.9123 -0.9795
 1484TIP3   OH226086   1.244   5.683   0.037  0.0988 -0.2548  0.0028
 1484TIP3    H126087   1.196   5.748  -0.014  0.1064 -0.3773 -0.1623
 1484TIP3    H226088   1.283   5.625  -0.029  0.1401 -0.3917  0.1463
 1485TIP3   OH226089   5.444   5.601   1.499  0.3024  0.0634 -0.2151
 1485TIP3    H126090   5.438   5.510   1.526 -0.8925 -0.7269 -2.8301
 1485TIP3    H226091   5.538   5.618   1.493  0.5655 -0.4015  1.9552
 1486TIP3   OH226092   1.600   3.721   1.946 -0.0296  0.2335  0.2500
 1486TIP3    H126093   1.616   3.627   1.933  0.5716  0.1871  1.2158
 1486TIP3    H226094   1.512   3.735   1.911 -0.2188 -0.7371  0.2913
 1487TIP3   OH226095   6.264   5.308   9.035  0.0786  0.2533  0.0454
 1487TIP3    H126096   6.199   5.371   9.066 -0.5746 -1.0186  1.3767
 1487TIP3    H226097   6.348   5.352   9.048 -0.3431  0.7185  1.3375
 1488TIP3   OH226098   2.591   3.701   1.051  0.0022  0.7782  0.3739
 1488TIP3    H126099   2.627   3.679   0.965  2.6274 -0.3801  1.6393
 1488TIP3    H226100   2.664   3.686   1.112 -1.9321  0.8745  2.8910
 1489TIP3   OH226101   3.933   1.325   8.270  0.0676 -0.6222  0.2110
 1489TIP3    H126102   3.870   1.253   8.270  0.1589 -0.7791 -2.2702
 1489TIP3    H226103   3.895   1.389   8.210  0.7924  0.6946  1.1076
 1490TIP3   OH226104   3.483   0.675   0.140 -0.2007  0.5309  0.6449
 1490TIP3    H126105   3.436   0.647   0.219 -2.2032 -0.7756 -0.8979
 1490TIP3    H226106   3.456   0.766   0.128 -0.8782  0.3636  0.8175
 1491TIP3   OH226107   3.815   5.081   1.742  0.2306  0.1423 -0.0152
 1491TIP3    H126108   3.858   4.995   1.740  1.6774  0.8368 -0.3569
 1491TIP3    H226109   3.819   5.112   1.651 -1.6724 -0.0488 -0.2120
 1492TIP3   OH226110   4.080   1.175   2.332  0.2868  0.8098 -0.9005
 1492TIP3    H126111   3.999   1.125   2.331 -0.2479  1.6483 -0.9714
 1492TIP3    H226112   4.147   1.113   2.361 -0.7173  0.5970  1.1716
 1493TIP3   OH226113   3.645   6.105   1.894  0.4249 -0.1990 -0.1249
 1493TIP3    H126114   3.670   6.015   1.873  0.1387 -1.1461  3.0207
 1493TIP3    H226115   3.553   6.098   1.918  0.6103  0.7767  0.9147
 1494TIP3   OH226116   3.348   3.958   7.953  0.5909  0.3501 -0.1466
 1494TIP3    H126117   3.343   4.038   7.901 -0.2498  0.4850  0.1245
 1494TIP3    H226118   3.339   3.989   8.044 -0.2011 -0.0857 -0.0683
 1495TIP3   OH226119   6.411   4.000   1.365  0.0287  0.3061 -0.1345
 1495TIP3    H126120   6.358   4.071   1.402  0.4939  0.6658 -0.1535
 1495TIP3    H226121   6.456   4.040   1.291  1.8029  0.5100  1.0173
 1496TIP3   OH226122   3.694   2.340   0.664  0.2052 -0.0105 -0.4842
 1496TIP3    H126123   3.685   2.414   0.603  1.4943 -0.8624 -1.7449
 1496TIP3    H226124   3.773   2.294   0.636  0.3902 -0.9090  1.3507
 1497TIP3   OH226125   3.412   2.765   8.824 -0.1224 -0.0911  0.4540
 1497TIP3    H126126   3.492   2.760   8.876 -1.4483 -0.4734  2.5494
 1497TIP3    H226127   3.404   2.857   8.801  0.7851 -0.0102  0.4354
 1498TIP3   OH226128   4.960   1.194   2.590  0.2485  0.3669  0.0108
 1498TIP3    H126129   4.871   1.219   2.568 -0.1355  0.8098  1.8371
 1498TIP3    H226130   4.962   1.196   2.686  1.6186 -1.7870  0.0831
 1499TIP3   OH226131   5.488   5.403   8.914 -0.1919  0.0840 -0.9241
 1499TIP3    H126132   5.443   5.378   8.995  0.9358  1.4497  0.1698
 1499TIP3    H226133   5.470   5.496   8.904  0.1770  0.0584 -1.9219
 1500TIP3   OH226134   2.002   1.929   2.660  0.2326 -0.1383  0.0038
 1500TIP3    H126135   2.060   1.855   2.676  0.6168 -0.0117 -0.7520
 1500TIP3    H226136   2.018   1.988   2.734 -1.3104 -1.5306  1.5330
 1501TIP3   OH226137   4.419   2.844   1.407 -0.6450  0.3069 -0.4899
 1501TIP3    H126138   4.472   2.774   1.368  0.4126  0.7229  0.1771
 1501TIP3    H226139   4.480   2.917   1.418 -0.9587  0.2825  1.7520
 1502TIP3   OH226140   3.331   1.251   9.060  0.0032 -0.1271  0.4791
 1502TIP3    H126141   3.389   1.240   8.984  1.5546 -0.1382  1.6253
 1502TIP3    H226142   3.271   1.321   9.034 -0.9373 -1.5893 -1.5626
 1503TIP3   OH226143   2.754   3.189   0.042  0.5256 -0.4975  0.4402
 1503TIP3    H126144   2.803   3.110   0.066 -0.5562 -0.9804  1.1245
 1503TIP3    H226145   2.817   3.242  -0.007  1.7050 -1.1389  1.2063
 1504TIP3   OH226146   5.568   2.889   0.650  0.7558  0.5166 -0.8497
 1504TIP3    H126147   5.590   2.889   0.556 -1.1149  1.0563 -1.3242
 1504TIP3    H226148   5.508   2.963   0.660 -0.0221 -0.2706  0.5496
 1505TIP3   OH226149   3.479   2.825   8.393 -0.2184 -0.2667  0.3146
 1505TIP3    H126150   3.493   2.788   8.307 -1.5229  0.4044 -0.2098
 1505TIP3    H226151   3.431   2.906   8.377 -1.6390 -0.7726  1.7399
 1506TIP3   OH226152   4.436   2.428   0.284  0.1340  0.8491  0.0617
 1506TIP3    H126153   4.443   2.344   0.240 -0.5398  0.2535  1.0637
 1506TIP3    H226154   4.487   2.418   0.364  0.0934  1.4107  0.1640
 1507TIP3   OH226155   1.648   4.837   1.096  0.2510 -0.1798  0.0466
 1507TIP3    H126156   1.714   4.906   1.089  1.6099 -1.4818 -0.5228
 1507TIP3    H226157   1.679   4.782   1.169 -1.0889  0.0648  0.8406
 1508TIP3   OH226158   5.694   5.256   0.178 -0.5020 -0.1147  0.4969
 1508TIP3    H126159   5.712   5.240   0.270  0.8527  0.4957  0.3590
 1508TIP3    H226160   5.604   5.224   0.165 -0.2439 -1.4153  1.7004
 1509TIP3   OH226161   0.770   0.795   7.835  0.6309 -0.1794 -0.5724
 1509TIP3    H126162   0.792   0.887   7.819 -0.5551  0.1073 -0.7050
 1509TIP3    H226163   0.843   0.746   7.798  1.4537  0.7216 -0.1753
 1510TIP3   OH226164   6.232   3.743   1.798 -0.0255  0.5540  0.3646
 1510TIP3    H126165   6.141   3.719   1.812  0.0851 -1.4843 -1.7598
 1510TIP3    H226166   6.233   3.838   1.804 -2.5311  0.7220 -0.7712
 1511TIP3   OH226167   4.922   5.940   2.157 -0.1644  0.1340 -0.5044
 1511TIP3    H126168   4.997   5.989   2.122  0.2384  1.2077  1.6842
 1511TIP3    H226169   4.851   5.960   2.096  0.0285  3.3849  0.1375
 1512TIP3   OH226170   5.016   3.677   9.049  0.4387 -0.4376  0.4169
 1512TIP3    H126171   5.019   3.725   8.966  0.1947 -0.0107  0.6571
 1512TIP3    H226172   5.107   3.650   9.064  0.9628  1.6011  1.2525
 1513TIP3   OH226173   0.382   2.620   7.849  0.7523 -0.1738 -0.4763
 1513TIP3    H126174   0.310   2.681   7.830  0.8996 -0.0689 -0.6962
 1513TIP3    H226175   0.375   2.604   7.943 -0.0167 -0.7516 -0.6240
 1514TIP3   OH226176   2.083   5.238   8.702 -0.7376  0.2503 -0.0030
 1514TIP3    H126177   2.160   5.181   8.708  0.7695  2.1512 -0.3163
 1514TIP3    H226178   2.062   5.240   8.609 -0.1687  0.9663 -0.1212
 1515TIP3   OH226179   2.708   3.674   2.264 -0.4763 -0.9734  0.8694
 1515TIP3    H126180   2.661   3.590   2.263 -2.7635  0.1805 -1.5611
 1515TIP3    H226181   2.710   3.701   2.172 -0.2073  1.8515  1.6277
 1516TIP3   OH226182   3.627   3.525   1.501 -0.2402 -0.2874 -0.7459
 1516TIP3    H126183   3.566   3.566   1.440 -0.0992  1.3730  0.1620
 1516TIP3    H226184   3.683   3.596   1.531  0.0652 -1.1502  0.8836
 1517TIP3   OH226185   5.540   1.178   0.212 -0.3207  0.3944  0.1807
 1517TIP3    H126186   5.488   1.106   0.177  2.2563 -1.5019 -0.0572
 1517TIP3    H226187   5.579   1.220   0.134  0.2469  0.3547  0.4370
 1518TIP3   OH226188   4.363   1.835   2.367 -0.3170 -0.4688  0.2046
 1518TIP3    H126189   4.357   1.740   2.374  1.4946 -0.6304  0.0498
 1518TIP3    H226190   4.287   1.861   2.315 -0.9600 -1.7902  0.4475
 1519TIP3   OH226191   2.022   1.120   0.844 -0.2069  0.0700 -0.3496
 1519TIP3    H126192   2.022   1.194   0.784 -1.9933 -0.2888 -0.8339
 1519TIP3    H226193   2.030   1.043   0.787  1.4509 -0.1571  0.1335
 1520TIP3   OH226194   0.019   4.374   8.515 -0.2015 -0.4258 -0.4273
 1520TIP3    H126195   0.096   4.398   8.567 -1.1135  0.4089  0.5978
 1520TIP3    H226196   0.034   4.282   8.491  1.1364 -0.2510 -0.3169
 1521TIP3   OH226197   6.225   2.952   0.279  0.5098  0.4796  0.6208
 1521TIP3    H126198   6.238   2.977   0.187 -0.5776  0.5180  0.4575
 1521TIP3    H226199   6.156   2.886   0.275 -1.1117  2.0271  1.5632
 1522TIP3   OH226200   4.051   5.910   2.056 -0.0246  0.2444  0.0022
 1522TIP3    H126201   3.994   5.986   2.065 -0.6616  0.0394 -1.7802
 1522TIP3    H226202   4.123   5.941   2.000  0.8260  0.0703  0.9584
 1523TIP3   OH226203   2.355   2.765   8.876  0.1540  0.2928  0.1683
 1523TIP3    H126204   2.313   2.833   8.928  1.0751 -0.8011  2.4614
 1523TIP3    H226205   2.448   2.789   8.875  0.4720 -0.8126  0.8932
 1524TIP3   OH226206   1.736   6.296   0.223  0.0156  0.3416  0.0775
 1524TIP3    H126207   1.666   6.256   0.171 -1.0679  0.5322  1.3397
 1524TIP3    H226208   1.750   6.236   0.296 -0.0718  1.1575  0.7851
 1525TIP3   OH226209   0.056   4.501   0.893  0.2939  0.5359 -0.1634
 1525TIP3    H126210   0.048   4.472   0.802 -1.5222  0.5355 -0.0478
 1525TIP3    H226211   0.086   4.592   0.887  3.2304 -0.3563 -0.6109
 1526TIP3   OH226212   5.020   3.855   0.167 -0.3483  0.2136 -0.2261
 1526TIP3    H126213   4.959   3.836   0.238 -0.5776  0.5082 -0.3419
 1526TIP3    H226214   4.992   3.798   0.095  0.5259 -0.8510  0.2540
 1527TIP3   OH226215   3.313   5.746   0.171  0.1774  0.6492 -0.1029
 1527TIP3    H126216   3.324   5.808   0.243 -1.0369  0.9055 -0.1092
 1527TIP3    H226217   3.395   5.697   0.168 -0.5443 -0.9216  2.9323
 1528TIP3   OH226218   6.415   3.928   2.144  0.1711 -0.1427 -0.4123
 1528TIP3    H126219   6.507   3.935   2.169  1.0385 -3.5340 -2.1593
 1528TIP3    H226220   6.367   3.953   2.223  2.5557  0.3503  0.9865
 1529TIP3   OH226221   2.795   1.332   1.520 -0.4816 -0.2004 -0.2716
 1529TIP3    H126222   2.839   1.272   1.460  0.7319  0.6680 -0.2956
 1529TIP3    H226223   2.722   1.281   1.556 -1.6921 -0.5473 -2.9604
 1530TIP3   OH226224   5.113   4.986   1.696  0.2919 -0.0118 -0.0188
 1530TIP3    H126225   5.194   4.950   1.733 -1.2963 -2.6368  1.1672
 1530TIP3    H226226   5.127   4.984   1.601  1.7887  0.0850  0.1748
 1531TIP3   OH226227   5.403   1.520   2.412  0.4404 -0.6713  0.1747
 1531TIP3    H126228   5.318   1.535   2.371 -0.9985 -0.3123  2.9964
 1531TIP3    H226229   5.464   1.574   2.362 -1.6113  1.6921  0.0144
 1532TIP3   OH226230   3.599   4.878   0.504  0.1260  0.7524  0.1841
 1532TIP3    H126231   3.632   4.801   0.551 -1.3146  0.1639  0.2713
 1532TIP3    H226232   3.556   4.931   0.571  0.3247  1.2017 -0.0381
 1533TIP3   OH226233   2.568   5.751   1.515  0.7219 -0.1671  0.3717
 1533TIP3    H126234   2.560   5.846   1.524  1.6085 -0.1610  1.3067
 1533TIP3    H226235   2.591   5.721   1.602  0.6545 -1.2281  0.0333
 1534TIP3   OH226236   0.277   3.112   1.876 -0.4016 -0.0515  0.0866
 1534TIP3    H126237   0.205   3.091   1.817  0.3715  1.7069 -1.6080
 1534TIP3    H226238   0.304   3.028   1.913 -0.7553 -1.3168 -2.3140
 1535TIP3   OH226239   3.841   6.255   8.788 -0.4449 -0.0540 -0.2590
 1535TIP3    H126240   3.883   6.175   8.756 -1.9799 -0.7188 -0.6868
 1535TIP3    H226241   3.849   6.249   8.883  1.2072  0.3007 -0.3382
 1536TIP3   OH226242   3.856   2.807   8.432  0.9981  0.0159 -0.4630
 1536TIP3    H126243   3.939   2.846   8.405  1.1190  0.3509  0.3555
 1536TIP3    H226244   3.843   2.839   8.521 -0.2496  0.3632 -0.7510
 1537TIP3   OH226245   2.445   0.780   8.323  0.1014 -0.3376  0.0798
 1537TIP3    H126246   2.394   0.855   8.292 -0.3355 -0.0759  1.3609
 1537TIP3    H226247   2.494   0.751   8.246  1.7620  2.4299 -0.0459
 1538TIP3   OH226248   6.344   0.756   3.218 -0.3421  0.0278 -0.1345
 1538TIP3    H126249   6.285   0.821   3.255  0.6410  1.4886 -0.9903
 1538TIP3    H226250   6.288   0.701   3.163 -1.1300  0.4154  0.2620
 1539TIP3   OH226251   0.458   2.438   1.108 -0.4821  0.1521 -0.2539
 1539TIP3    H126252   0.447   2.432   1.203 -0.8999 -0.5013 -0.3358
 1539TIP3    H226253   0.544   2.400   1.091 -0.0004  1.1258 -0.0530
 1540TIP3   OH226254   2.156   1.382   2.483 -0.0757 -0.3072 -0.1611
 1540TIP3    H126255   2.223   1.450   2.484 -1.4986  1.1777  0.0699
 1540TIP3    H226256   2.171   1.334   2.402 -0.3401  1.7221 -1.4951
 1541TIP3   OH226257   1.440   0.668   1.555 -0.1645  0.2195  0.4337
 1541TIP3    H126258   1.391   0.733   1.605  0.0600  0.0652  0.8543
 1541TIP3    H226259   1.458   0.710   1.471 -1.1344  0.2348  0.2157
 1542TIP3   OH226260   5.013   4.400   0.115  0.1322  0.4793  0.0288
 1542TIP3    H126261   5.090   4.365   0.071 -0.4448  1.3796 -1.7851
 1542TIP3    H226262   4.943   4.337   0.094  0.2356 -0.0713  1.2518
 1543TIP3   OH226263   2.822   2.170   0.952  0.1100  0.4590 -0.1932
 1543TIP3    H126264   2.810   2.217   1.034 -1.6105  0.6581 -0.5339
 1543TIP3    H226265   2.848   2.238   0.889  2.3840  0.1695  0.3312
 1544TIP3   OH226266   0.312   5.755   2.193  0.0105 -0.3780  0.6651
 1544TIP3    H126267   0.386   5.699   2.217  0.4340  0.2763  0.9054
 1544TIP3    H226268   0.259   5.700   2.135  2.0055 -0.0708 -1.6316
 1545TIP3   OH226269   1.018   2.280   1.174 -0.3206 -0.2794 -0.1271
 1545TIP3    H126270   1.095   2.250   1.126  0.5276 -2.9325  2.5763
 1545TIP3    H226271   0.945   2.232   1.135  0.0265 -0.7836 -0.1660
 1546TIP3   OH226272   0.724   1.730   0.669  0.0597 -0.0277  0.2862
 1546TIP3    H126273   0.738   1.753   0.577  0.3442  1.2274  0.6320
 1546TIP3    H226274   0.739   1.635   0.672  3.4109  0.3514 -0.3620
 1547TIP3   OH226275   6.113   6.545   0.609 -0.0224  0.1329  0.5396
 1547TIP3    H126276   6.122   6.450   0.611  0.6215  0.1955  1.0408
 1547TIP3    H226277   6.116   6.571   0.701 -0.8975  0.5832  0.4485
 1548TIP3   OH226278   1.159   4.955   2.591  0.4452 -0.5562 -0.7355
 1548TIP3    H126279   1.234   4.977   2.645 -0.2761 -0.1827  0.1350
 1548TIP3    H226280   1.152   4.859   2.598  0.5058 -0.5359 -0.3750
 1549TIP3   OH226281   2.478   0.875   0.010 -0.0356  0.6731 -0.6668
 1549TIP3    H126282   2.496   0.898  -0.081  0.3640 -1.2176 -1.1107
 1549TIP3    H226283   2.562   0.845   0.044 -0.2581  1.0356  0.2419
 1550TIP3   OH226284   0.892   5.291   8.892 -0.2047  0.3724 -0.2119
 1550TIP3    H126285   0.937   5.360   8.940  0.9452 -0.7491  0.3759
 1550TIP3    H226286   0.942   5.212   8.911 -1.8440 -0.7510 -0.3701
 1551TIP3   OH226287   5.541   3.830   2.479  0.1522  0.4828 -0.3803
 1551TIP3    H126288   5.633   3.838   2.504  0.1609  2.3181 -0.8635
 1551TIP3    H226289   5.523   3.736   2.485  1.6179  0.2493  1.1904
 1552TIP3   OH226290   2.492   3.499   1.307 -0.6572  0.6742 -0.5898
 1552TIP3    H126291   2.489   3.568   1.241 -0.7323  0.3497 -0.9281
 1552TIP3    H226292   2.401   3.469   1.314 -0.6466  0.6969 -0.3524
 1553TIP3   OH226293   5.357   3.331   9.009 -0.1034 -0.0093 -0.7525
 1553TIP3    H126294   5.283   3.297   9.060  0.3476  0.0807 -0.0260
 1553TIP3    H226295   5.432   3.280   9.039  0.3819  0.8546 -0.4711
 1554TIP3   OH226296   3.346   0.565   2.448 -0.2756  0.5918 -0.1231
 1554TIP3    H126297   3.287   0.629   2.488 -0.3814  0.4253 -0.0110
 1554TIP3    H226298   3.300   0.536   2.370 -0.9645 -0.5385  0.6684
 1555TIP3   OH226299   2.705   6.693   7.270  0.9243 -0.1807  0.0463
 1555TIP3    H126300   2.760   6.642   7.329 -0.6498  1.8704  3.6116
 1555TIP3    H226301   2.761   6.764   7.240  1.6596 -1.0783 -0.7725
 1556TIP3   OH226302   2.648   1.752   1.207 -0.0816  0.1879  0.3619
 1556TIP3    H126303   2.736   1.741   1.173 -0.8720  0.8414 -2.0884
 1556TIP3    H226304   2.660   1.801   1.289  1.7860  0.6616 -0.1464
 1557TIP3   OH226305   3.195   4.279   1.872 -0.0261 -0.6238 -0.8419
 1557TIP3    H126306   3.104   4.278   1.902  0.3024 -1.0719  0.1893
 1557TIP3    H226307   3.243   4.229   1.938  0.8455 -1.0947 -1.8012
 1558TIP3   OH226308   4.706   0.451   0.688 -0.5100 -0.4061 -0.3128
 1558TIP3    H126309   4.616   0.481   0.702  0.1903  1.1235  1.2385
 1558TIP3    H226310   4.742   0.513   0.625  0.1048  0.3695  0.7768
 1559TIP3   OH226311   4.806   1.107   2.192 -0.3875 -0.3952 -0.2179
 1559TIP3    H126312   4.815   1.202   2.182  1.4830 -0.6547 -1.4564
 1559TIP3    H226313   4.892   1.077   2.219 -1.3806 -1.6143  1.8672
 1560TIP3   OH226314   6.580   2.877   2.229  0.2724  0.2448  0.5640
 1560TIP3    H126315   6.546   2.794   2.196 -0.0747 -0.1041  1.7634
 1560TIP3    H226316   6.567   2.939   2.157 -1.2655 -0.3017  0.3508
 1561TIP3   OH226317   2.183   4.702   2.901  0.9794  0.8030 -0.7516
 1561TIP3    H126318   2.206   4.626   2.955 -1.9086 -0.9008 -1.6991
 1561TIP3    H226319   2.180   4.775   2.963  0.3050 -0.5897  0.9547
 1562TIP3   OH226320   4.696   2.134   0.664 -0.0590 -0.4369 -0.1089
 1562TIP3    H126321   4.650   2.064   0.711  0.2808  0.5010  1.6962
 1562TIP3    H226322   4.712   2.201   0.730  1.2019  0.5913 -1.3972
 1563TIP3   OH226323   1.974   4.099   1.295  0.0649 -0.1236 -0.1061
 1563TIP3    H126324   1.962   4.005   1.290  1.3201 -0.3308  0.4888
 1563TIP3    H226325   1.950   4.122   1.385 -0.6334  0.2031 -0.3633
 1564TIP3   OH226326   2.024   1.676   8.476 -0.1712  0.1217  0.4608
 1564TIP3    H126327   1.996   1.744   8.537  2.4649  1.0411  0.7702
 1564TIP3    H226328   2.030   1.720   8.391 -3.0768 -0.9700 -0.4481
 1565TIP3   OH226329   2.297   6.662   8.252  0.2727 -0.5546  0.3884
 1565TIP3    H126330   2.330   6.662   8.162  0.1884 -0.2016  0.3534
 1565TIP3    H226331   2.263   6.751   8.265  1.0312 -0.3386  1.0356
 1566TIP3   OH226332   5.292   2.835   8.719 -0.0072  0.0097  0.1862
 1566TIP3    H126333   5.352   2.901   8.754 -1.2107  0.9033  0.6495
 1566TIP3    H226334   5.320   2.822   8.629 -0.7777  2.5055 -0.5041
 1567TIP3   OH226335   3.760   3.294   2.663 -0.3915  0.0184  0.1436
 1567TIP3    H126336   3.806   3.211   2.670 -1.6573 -0.6847  0.3973
 1567TIP3    H226337   3.724   3.308   2.751 -1.2822  0.1734 -0.2413
 1568TIP3   OH226338   1.347   0.808   8.151 -0.3915 -1.2288 -0.3280
 1568TIP3    H126339   1.273   0.864   8.171  1.7981  1.9664 -0.4119
 1568TIP3    H226340   1.423   0.855   8.186  1.8177 -3.2954 -1.9950
 1569TIP3   OH226341   6.042   5.525   7.894 -0.2009  0.3030 -0.1662
 1569TIP3    H126342   6.086   5.470   7.959 -1.2707 -0.2660  0.0943
 1569TIP3    H226343   6.033   5.469   7.817 -1.4227  0.0433  0.1482
 1570TIP3   OH226344   4.500   4.517   2.723  0.4220  0.2085  0.1975
 1570TIP3    H126345   4.486   4.602   2.766  0.9265  0.7574 -0.7126
 1570TIP3    H226346   4.508   4.538   2.630 -1.1687 -1.0143 -0.2679
 1571TIP3   OH226347   1.371   4.670   7.569  0.4024  0.1641 -0.2941
 1571TIP3    H126348   1.353   4.760   7.541 -2.4458 -0.9821 -2.6301
 1571TIP3    H226349   1.382   4.621   7.488 -0.4679 -1.9833  0.7943
 1572TIP3   OH226350   1.357   6.232   1.921  0.2305 -0.5413 -0.2084
 1572TIP3    H126351   1.437   6.204   1.876 -0.1769  0.9028 -1.9785
 1572TIP3    H226352   1.376   6.321   1.950 -0.3361 -0.6148  0.4049
 1573TIP3   OH226353   0.264   2.291   8.801 -0.0943 -0.3067 -0.5508
 1573TIP3    H126354   0.192   2.348   8.776 -0.6002 -0.1084  1.2378
 1573TIP3    H226355   0.343   2.342   8.781 -0.4994  0.2733 -0.6896
 1574TIP3   OH226356   5.994   5.008   0.551 -0.3834 -0.1124 -0.0893
 1574TIP3    H126357   6.004   5.088   0.603 -2.4938  0.1778 -0.0769
 1574TIP3    H226358   5.928   5.030   0.485  0.0078 -1.4443 -0.9734
 1575TIP3   OH226359   5.080   1.658   0.545 -0.9075  0.0974  0.5475
 1575TIP3    H126360   5.159   1.704   0.574 -0.9735  0.7146 -0.1931
 1575TIP3    H226361   5.047   1.614   0.623 -1.0204  1.5966  1.3999
 1576TIP3   OH226362   0.277   3.026   8.108  0.4228  0.0205 -0.5098
 1576TIP3    H126363   0.346   3.008   8.171  0.4108  0.9660 -0.2082
 1576TIP3    H226364   0.231   2.943   8.098  0.1279 -0.0404  1.0873
 1577TIP3   OH226365   3.759   0.120   0.715 -0.1323 -0.2947 -0.4685
 1577TIP3    H126366   3.779   0.156   0.801  0.7862  0.4730 -0.9823
 1577TIP3    H226367   3.839   0.075   0.689 -0.1587  0.0581 -1.2010
 1578TIP3   OH226368   0.168   1.878   1.154  0.2722 -0.0392  0.5935
 1578TIP3    H126369   0.105   1.860   1.084  0.7404 -0.2363  0.2209
 1578TIP3    H226370   0.216   1.796   1.166 -2.2508 -1.3164  3.7360
 1579TIP3   OH226371   4.412   1.589   8.310  0.0690 -0.0438 -0.5453
 1579TIP3    H126372   4.425   1.604   8.217  0.3071  1.3616 -0.3041
 1579TIP3    H226373   4.460   1.508   8.328  0.5383  0.0024 -1.5223
 1580TIP3   OH226374   0.142   5.463   1.340  0.0015  0.3961 -0.7234
 1580TIP3    H126375   0.080   5.428   1.404  2.2722  0.8021  1.9049
 1580TIP3    H226376   0.131   5.558   1.344  0.8948  0.4857 -0.0581
 1581TIP3   OH226377   3.872   4.238   0.144 -0.2044  0.6986 -0.0997
 1581TIP3    H126378   3.896   4.158   0.191 -0.1530 -1.3489 -3.3072
 1581TIP3    H226379   3.837   4.296   0.211  1.8408 -1.0954  2.7467
 1582TIP3   OH226380   5.033   2.383   8.458  0.1998 -0.2512 -0.2078
 1582TIP3    H126381   5.121   2.403   8.488  0.7012  0.3375 -1.9743
 1582TIP3    H226382   5.007   2.306   8.509  1.4109  0.0530  0.9007
 1583TIP3   OH226383   6.497   4.409   8.585 -0.0460  0.4977 -0.1473
 1583TIP3    H126384   6.570   4.388   8.527  0.6739  0.9022  0.5974
 1583TIP3    H226385   6.518   4.365   8.667 -0.6074  0.6836  0.1015
 1584TIP3   OH226386   0.004   0.236   2.557 -0.1461  0.4963  0.5057
 1584TIP3    H126387  -0.076   0.235   2.609 -0.9160  0.0970 -0.6394
 1584TIP3    H226388  -0.026   0.220   2.467  1.3760 -1.2959  0.2728
 1585TIP3   OH226389   6.664   0.633   8.142 -0.1509  0.0519 -0.4702
 1585TIP3    H126390   6.647   0.562   8.081 -0.1253 -1.0618  0.7685
 1585TIP3    H226391   6.646   0.713   8.093  0.2525 -0.7905 -2.0284
 1586TIP3   OH226392   1.646   4.407   2.939  0.2168  0.0314 -0.8421
 1586TIP3    H126393   1.660   4.318   2.972 -2.3128  0.5813  2.2011
 1586TIP3    H226394   1.733   4.446   2.936  1.0284 -1.3769  1.6212
 1587TIP3   OH226395   1.209   5.347   8.118 -0.1334  0.0912 -0.0277
 1587TIP3    H126396   1.169   5.364   8.033 -0.9797  0.8482  0.5010
 1587TIP3    H226397   1.170   5.412   8.177  0.9855  0.0667  0.7856
 1588TIP3   OH226398   1.439   2.515   1.529 -0.6011  0.2506 -0.1756
 1588TIP3    H126399   1.478   2.594   1.489  1.4875 -1.0204 -0.8349
 1588TIP3    H226400   1.451   2.528   1.623  0.9355  0.1777 -0.3366
 1589TIP3   OH226401   0.580   4.261   2.592  0.0200 -0.4855 -0.3732
 1589TIP3    H126402   0.515   4.209   2.543  0.3213  1.4096 -3.0343
 1589TIP3    H226403   0.539   4.278   2.676 -2.6243 -0.1069 -1.6312
 1590TIP3   OH226404   0.795   5.116   1.322  0.8463 -0.5208  0.9205
 1590TIP3    H126405   0.769   5.202   1.289 -1.9674 -1.3355  0.7321
 1590TIP3    H226406   0.859   5.084   1.258  0.8365  0.8262  0.1996
 1591TIP3   OH226407   4.173   4.069   0.243  0.7381 -0.3431 -0.0479
 1591TIP3    H126408   4.221   4.123   0.306  1.2064 -1.2347  0.3678
 1591TIP3    H226409   4.238   4.010   0.207  0.1471 -0.9036 -0.2099
 1592TIP3   OH226410   6.561   1.341   0.427  0.0956 -0.0300 -0.0957
 1592TIP3    H126411   6.477   1.383   0.412  0.6553  1.2415  0.1899
 1592TIP3    H226412   6.604   1.394   0.494  0.4548 -1.6262  1.0187
 1593TIP3   OH226413   2.274   5.339   7.926 -0.0032 -0.3611 -0.6681
 1593TIP3    H126414   2.207   5.372   7.867  1.1325  3.3587 -0.1503
 1593TIP3    H226415   2.357   5.365   7.885  0.9016 -0.2645  1.1113
 1594TIP3   OH226416   1.018   1.513   0.432 -0.1913 -0.4811 -0.0258
 1594TIP3    H126417   1.052   1.526   0.520 -0.8656  2.7253 -0.1289
 1594TIP3    H226418   0.929   1.481   0.445  0.2605 -1.6460  0.3643
 1595TIP3   OH226419   6.306   5.988   1.413 -0.7123 -0.2358  0.0629
 1595TIP3    H126420   6.306   5.912   1.471  0.8966 -0.6259 -0.4125
 1595TIP3    H226421   6.312   5.951   1.325  0.1339  0.4235 -0.1688
 1596TIP3   OH226422   2.670   1.182   2.914  0.3498 -0.0830 -0.2573
 1596TIP3    H126423   2.614   1.242   2.964  2.5869  0.2562  2.0245
 1596TIP3    H226424   2.635   1.095   2.934 -0.3463  0.1988 -0.2052
 1597TIP3   OH226425   6.416   4.751   3.222 -0.0490  0.0641 -0.0281
 1597TIP3    H126426   6.405   4.846   3.216 -0.1647  0.1014  0.6148
 1597TIP3    H226427   6.338   4.715   3.179  0.1513  0.2521 -0.5572
 1598TIP3   OH226428   4.131   5.888   1.090 -0.0569  0.0684 -0.4431
 1598TIP3    H126429   4.222   5.867   1.067 -0.5848 -2.0361 -0.8036
 1598TIP3    H226430   4.139   5.963   1.150  1.9930 -0.7116  0.3690
 1599TIP3   OH226431   3.454   3.191   2.253  0.6380 -0.0830 -0.7632
 1599TIP3    H126432   3.528   3.223   2.305  0.2707 -0.5833  0.0882
 1599TIP3    H226433   3.492   3.123   2.197  1.1230  0.7657 -1.4993
 1600TIP3   OH226434   2.548   2.967   7.788  0.1631 -0.2262 -0.4898
 1600TIP3    H126435   2.541   3.062   7.799  0.8145 -0.1501 -0.7206
 1600TIP3    H226436   2.595   2.937   7.866  1.4599 -0.1431 -1.2188
 1601TIP3   OH226437   0.171   1.010   8.197  0.1881  0.6853 -0.0698
 1601TIP3    H126438   0.158   1.028   8.104  4.1383  0.3040 -0.8699
 1601TIP3    H226439   0.133   1.086   8.242  1.1661  2.6069 -2.2676
 1602TIP3   OH226440   2.260   6.695   0.746  0.1092 -0.0127  0.3301
 1602TIP3    H126441   2.223   6.710   0.659 -2.5595 -1.9369  0.9980
 1602TIP3    H226442   2.297   6.779   0.772 -0.5772  1.0522 -1.9534
 1603TIP3   OH226443   1.507   4.638   8.353  0.0327  0.2256  0.5657
 1603TIP3    H126444   1.524   4.716   8.300  1.1261 -1.4834 -1.7514
 1603TIP3    H226445   1.458   4.580   8.295 -0.7895 -0.8377  2.2508
 1604TIP3   OH226446   3.676   0.560   8.702 -0.2082  0.1906 -0.0878
 1604TIP3    H126447   3.582   0.547   8.715 -0.1491  0.2061  0.3437
 1604TIP3    H226448   3.712   0.472   8.699 -0.1524  0.1982  0.3531
 1605TIP3   OH226449   5.040   5.636   8.590  0.0572 -0.2662 -0.1126
 1605TIP3    H126450   5.015   5.544   8.584  1.3867 -0.6431 -0.2751
 1605TIP3    H226451   5.136   5.635   8.586  0.0819  1.1456 -0.3710
 1606TIP3   OH226452   4.527   4.853   3.245 -0.1249  0.2598 -0.1704
 1606TIP3    H126453   4.462   4.829   3.311 -0.8179  0.6612 -0.6830
 1606TIP3    H226454   4.533   4.777   3.188  0.7534 -0.2284  0.5591
 1607TIP3   OH226455   4.746   0.818   0.991  0.4692  0.3229 -0.0168
 1607TIP3    H126456   4.753   0.897   1.045  0.0297  0.9081 -0.7818
 1607TIP3    H226457   4.780   0.748   1.046 -0.4390  0.8004  1.2076
 1608TIP3   OH226458   6.704   5.292   8.320  0.1246  0.1793  0.0755
 1608TIP3    H126459   6.692   5.232   8.246 -2.8703  0.5925  0.0716
 1608TIP3    H226460   6.658   5.250   8.392  0.1652  1.2946  0.7790
 1609TIP3   OH226461   1.193   0.511   8.914 -1.2558  0.5309  0.2216
 1609TIP3    H126462   1.148   0.502   8.998 -0.4208 -0.4596  0.5843
 1609TIP3    H226463   1.199   0.605   8.900 -1.5516  0.7060  1.1854
 1610TIP3   OH226464   4.017   0.350   3.598  0.5154 -0.0364  0.2960
 1610TIP3    H126465   4.019   0.437   3.639 -0.3813  0.6417 -1.0111
 1610TIP3    H226466   3.953   0.301   3.649 -0.6539  0.8250 -0.2800
 1611TIP3   OH226467   6.658   0.828   0.331  1.1998  0.3952  0.6950
 1611TIP3    H126468   6.744   0.844   0.370  1.5081  1.1602 -0.2471
 1611TIP3    H226469   6.615   0.914   0.334  0.0185 -0.2143  2.1702
 1612TIP3   OH226470   5.602   4.660   1.186  0.5683 -0.0082 -0.1293
 1612TIP3    H126471   5.684   4.691   1.223  0.6884 -1.4585  0.8695
 1612TIP3    H226472   5.626   4.583   1.134 -0.0757 -0.0601 -0.3586
 1613TIP3   OH226473   4.927   4.856   2.078 -0.8656  0.2990 -0.1029
 1613TIP3    H126474   4.962   4.791   2.139 -1.0394  1.3984  1.1977
 1613TIP3    H226475   4.967   4.938   2.104  1.1968  0.4429 -3.1972
 1614TIP3   OH226476   5.873   4.074   2.942  0.0323 -0.8336  0.6530
 1614TIP3    H126477   5.802   4.124   2.901  1.1421  0.6552  0.4909
 1614TIP3    H226478   5.834   4.041   3.023 -0.7530  0.2691  0.7562
 1615TIP3   OH226479   0.771   4.247   7.987  0.4453 -0.1926 -0.1976
 1615TIP3    H126480   0.776   4.151   7.990 -0.4050 -0.2230  0.5946
 1615TIP3    H226481   0.835   4.276   8.052 -0.5678 -0.2822  0.8718
 1616TIP3   OH226482   6.131   1.653   0.752 -0.0002 -0.2412 -0.3648
 1616TIP3    H126483   6.164   1.567   0.779 -1.3542 -0.8602 -0.6268
 1616TIP3    H226484   6.076   1.681   0.826 -0.1653  0.0546 -0.6022
 1617TIP3   OH226485   3.595   3.470   0.487 -0.2525  0.0044 -0.0814
 1617TIP3    H126486   3.622   3.501   0.400  1.8134  0.2780  0.6222
 1617TIP3    H226487   3.527   3.532   0.514  0.9660  1.5396 -0.3943
 1618TIP3   OH226488   3.372   1.450   0.907  0.3054  0.5309 -0.2155
 1618TIP3    H126489   3.415   1.535   0.895 -0.4819  0.6682 -2.6636
 1618TIP3    H226490   3.291   1.471   0.955  0.7267  0.9482  0.3311
 1619TIP3   OH226491   3.265   4.954   0.967  0.3505  0.2938  0.3301
 1619TIP3    H126492   3.346   4.919   1.004  0.6619  1.3827  0.7135
 1619TIP3    H226493   3.201   4.947   1.038 -0.5157 -2.4590 -0.5702
 1620TIP3   OH226494   3.072   3.099   8.924 -0.0738  0.3795  0.0974
 1620TIP3    H126495   2.979   3.082   8.914  0.0224  0.3794 -0.9532
 1620TIP3    H226496   3.101   3.129   8.837  1.2196 -1.2206 -0.0921
 1621TIP3   OH226497   6.621   2.353   8.387  0.2756  0.3781  0.1906
 1621TIP3    H126498   6.686   2.351   8.316  0.0727 -0.4325  0.0200
 1621TIP3    H226499   6.659   2.298   8.456  0.4586  1.1419  0.7055
 1622TIP3   OH226500   4.746   0.074   1.973  0.2760  0.3218  0.2448
 1622TIP3    H126501   4.687   0.040   2.040  2.2903 -0.6268  1.6372
 1622TIP3    H226502   4.774   0.159   2.006 -0.5258  0.9185 -0.5714
 1623TIP3   OH226503   3.829   4.389   2.183 -0.4905  0.2827 -0.4031
 1623TIP3    H126504   3.879   4.419   2.107  1.1793  0.3635  0.6677
 1623TIP3    H226505   3.743   4.430   2.174  0.2697  1.7484 -1.3125
 1624TIP3   OH226506   4.241   5.436   0.048 -0.5974 -0.1307 -0.0127
 1624TIP3    H126507   4.181   5.398  -0.016 -0.2873 -0.1720 -0.2861
 1624TIP3    H226508   4.326   5.435   0.004 -0.4904  0.4042  0.1725
 1625TIP3   OH226509   3.227   2.880   2.400  0.2072 -0.6141 -0.0966
 1625TIP3    H126510   3.140   2.904   2.431  0.8320  1.0815  0.4893
 1625TIP3    H226511   3.240   2.932   2.321  0.4422 -1.3530 -0.5560
 1626TIP3   OH226512   3.281   0.889   0.397  0.0713 -0.2939 -0.0912
 1626TIP3    H126513   3.289   0.794   0.388  0.6801 -0.2309 -0.2451
 1626TIP3    H226514   3.206   0.911   0.341  1.7073 -0.3435 -2.4538
 1627TIP3   OH226515   1.965   0.266   8.623 -0.0068 -0.7972  0.0750
 1627TIP3    H126516   1.895   0.203   8.609  1.4294 -2.1734 -1.2524
 1627TIP3    H226517   2.046   0.215   8.620  1.0983  0.6203  2.2432
 1628TIP3   OH226518   0.254   3.123   0.030  0.0234  0.4863 -0.0848
 1628TIP3    H126519   0.290   3.207   0.058 -0.8820  0.2917  1.8697
 1628TIP3    H226520   0.217   3.085   0.110 -0.8554 -1.1389 -1.1933
 1629TIP3   OH226521   2.122   2.208   0.852  0.5402 -0.6522  0.6871
 1629TIP3    H126522   2.073   2.281   0.889 -2.2178 -2.4933  0.8898
 1629TIP3    H226523   2.154   2.242   0.768  1.5269  1.5368  1.8563
 1630TIP3   OH226524   1.279   1.461   0.367  1.0840  0.0294 -0.6505
 1630TIP3    H126525   1.184   1.466   0.357  1.0691  3.5007  0.1987
 1630TIP3    H226526   1.291   1.425   0.455  0.6016 -0.4782 -0.7779
 1631TIP3   OH226527   4.289   1.446   1.719 -0.5514  0.1794  0.8727
 1631TIP3    H126528   4.195   1.437   1.704 -0.1424 -0.3253 -1.8994
 1631TIP3    H226529   4.312   1.527   1.673  0.0929  1.5260  3.3729
 1632TIP3   OH226530   5.103   4.349   1.871 -0.5018 -0.0874 -0.5802
 1632TIP3    H126531   5.143   4.402   1.803 -1.0596  0.6992 -0.3054
 1632TIP3    H226532   5.092   4.408   1.945 -2.1792 -0.2557 -0.6532
 1633TIP3   OH226533   1.355   1.162   2.087  0.3972  0.0046  0.8682
 1633TIP3    H126534   1.367   1.206   2.003 -1.6818 -0.2465  0.3739
 1633TIP3    H226535   1.443   1.148   2.120  1.2068  2.5372  0.0211
 1634TIP3   OH226536   6.153   3.767   8.939 -0.2912  0.4294  0.1136
 1634TIP3    H126537   6.155   3.855   8.977  0.4239  1.1286 -1.4559
 1634TIP3    H226538   6.207   3.715   8.998  0.7383  1.4607  0.1274
 1635TIP3   OH226539   0.389   0.751   8.558 -0.4170  0.3243  0.1482
 1635TIP3    H126540   0.329   0.678   8.575 -0.4642  0.0158 -1.2047
 1635TIP3    H226541   0.334   0.818   8.518 -0.9055  2.1734  3.5432
 1636TIP3   OH226542   4.888   5.426   8.476  0.1281  0.3241 -0.3270
 1636TIP3    H126543   4.936   5.344   8.484  2.3234  1.6411  1.2669
 1636TIP3    H226544   4.921   5.467   8.397 -0.6509 -0.1005 -0.8864
 1637TIP3   OH226545   0.056   0.901   1.496 -0.1658 -0.0173 -0.4270
 1637TIP3    H126546   0.061   0.823   1.550 -0.0990 -0.2490 -0.7648
 1637TIP3    H226547   0.024   0.969   1.555 -1.4749 -0.5947 -0.4491
 1638TIP3   OH226548   1.740   0.697   0.354 -0.2004 -0.4635  0.3368
 1638TIP3    H126549   1.795   0.719   0.430 -1.8712 -1.3697  1.8756
 1638TIP3    H226550   1.778   0.617   0.319 -0.0877 -0.6724  0.9270
 1639TIP3   OH226551   5.201   2.952   3.107  0.4212 -0.4754 -0.1085
 1639TIP3    H126552   5.276   2.914   3.062  0.1896  0.4746 -1.3447
 1639TIP3    H226553   5.125   2.923   3.056 -0.0700 -1.3735  1.0847
 1640TIP3   OH226554   5.570   6.089   3.096 -0.4933  0.2234 -0.1723
 1640TIP3    H126555   5.520   6.171   3.101 -2.7970 -1.1697  1.2120
 1640TIP3    H226556   5.580   6.073   3.002 -1.9526  0.9805 -0.4782
 1641TIP3   OH226557   1.889   1.007   9.043 -0.0893 -0.3991 -0.5490
 1641TIP3    H126558   1.883   0.983   9.136 -0.1064  1.2502 -0.0843
 1641TIP3    H226559   1.800   0.996   9.010 -0.1490 -0.7216 -0.2843
 1642TIP3   OH226560   6.587   5.717   8.523 -0.2214 -0.1952  0.6334
 1642TIP3    H126561   6.595   5.654   8.595  0.9201 -2.6807 -1.4985
 1642TIP3    H226562   6.651   5.689   8.459 -0.7314  2.3094 -1.1275
 1643TIP3   OH226563   4.820   4.760   1.065 -0.8801 -0.2714  0.0874
 1643TIP3    H126564   4.814   4.673   1.028  1.7752 -1.4364  2.0652
 1643TIP3    H226565   4.864   4.812   0.997 -1.6878 -0.6671 -0.7602
 1644TIP3   OH226566   4.944   1.375   8.623  0.2682  0.4143  0.1210
 1644TIP3    H126567   4.900   1.381   8.708 -0.1932 -0.3044 -0.0676
 1644TIP3    H226568   4.882   1.330   8.566  0.7325  0.5428 -0.4997
 1645TIP3   OH226569   1.423   2.182   3.313 -0.1897  0.2598 -0.0156
 1645TIP3    H126570   1.433   2.090   3.337 -0.8646  0.1038 -0.2877
 1645TIP3    H226571   1.480   2.193   3.237 -0.6751 -0.1407 -0.4502
 1646TIP3   OH226572   2.777   5.516   0.841 -0.2635  0.3325  0.5450
 1646TIP3    H126573   2.865   5.495   0.809 -1.4364 -1.0031 -2.1837
 1646TIP3    H226574   2.766   5.609   0.820 -0.0065  0.1317 -0.5775
 1647TIP3   OH226575   6.069   2.898   8.642  0.3950  0.3744  0.2258
 1647TIP3    H126576   5.999   2.853   8.596  0.6830  1.0126 -0.8601
 1647TIP3    H226577   6.143   2.837   8.639  0.6243  0.6817 -0.7848
 1648TIP3   OH226578   0.603   1.700   8.787 -0.2491 -0.5211 -0.4285
 1648TIP3    H126579   0.572   1.640   8.855  2.4699 -1.6227 -0.0548
 1648TIP3    H226580   0.570   1.786   8.814 -1.6082 -1.3611  0.7073
 1649TIP3   OH226581   4.413   5.782   1.064  0.3512  0.7470 -0.1153
 1649TIP3    H126582   4.407   5.697   1.109  1.3930 -1.2656 -3.4340
 1649TIP3    H226583   4.492   5.822   1.100  0.7969 -0.4689  0.3251
 1650TIP3   OH226584   0.300   3.237   0.959 -0.0879  0.2454  0.6300
 1650TIP3    H126585   0.326   3.310   0.902 -2.1717 -0.0867 -0.8717
 1650TIP3    H226586   0.227   3.272   1.010  0.1473 -0.2408  1.3204
 1651TIP3   OH226587   1.513   6.112   1.235  0.1614  0.7271 -0.0422
 1651TIP3    H126588   1.514   6.206   1.253  1.6754  0.3846  2.0585
 1651TIP3    H226589   1.437   6.079   1.282 -0.1382  0.8338 -0.4470
 1652TIP3   OH226590   3.277   2.442   8.130 -0.0454  0.1254 -0.1290
 1652TIP3    H126591   3.197   2.436   8.077  0.5912  0.9355 -1.2069
 1652TIP3    H226592   3.261   2.517   8.188  0.5063  1.2544 -1.3892
 1653TIP3   OH226593   6.582   4.411   1.018 -0.0463 -0.2258 -0.6343
 1653TIP3    H126594   6.501   4.413   0.967 -1.1966 -0.9751  1.0928
 1653TIP3    H226595   6.648   4.447   0.959 -1.1955 -1.5124 -2.8259
 1654TIP3   OH226596   3.333   3.881   2.299  0.2593 -0.1014 -0.4914
 1654TIP3    H126597   3.305   3.895   2.208  0.1926 -0.7317 -0.5697
 1654TIP3    H226598   3.397   3.951   2.314  1.6450 -1.0382 -1.6334
 1655TIP3   OH226599   5.188   6.118   7.827 -0.2852 -0.4996 -0.1409
 1655TIP3    H126600   5.146   6.205   7.826 -0.5945 -0.6501 -0.2841
 1655TIP3    H226601   5.253   6.124   7.897 -1.1851 -0.5633  0.7135
 1656TIP3   OH226602   4.375   1.261   8.108 -0.2048  0.1183 -0.0661
 1656TIP3    H126603   4.407   1.251   8.018 -1.1191  0.1139 -0.4064
 1656TIP3    H226604   4.285   1.230   8.104 -0.1580 -0.1615  0.9293
 1657TIP3   OH226605   5.641   2.547   2.475 -0.4041  0.0072  0.0051
 1657TIP3    H126606   5.665   2.507   2.558 -0.4979 -0.1818 -0.0590
 1657TIP3    H226607   5.693   2.627   2.471  0.0640 -0.2975 -0.0394
 1658TIP3   OH226608   5.285   2.490   2.506  0.4445 -0.1294  0.0716
 1658TIP3    H126609   5.223   2.496   2.579  0.3334  0.9068 -0.0851
 1658TIP3    H226610   5.230   2.481   2.428  0.4975  0.3702 -0.0283
 1659TIP3   OH226611   5.342   0.021   1.997 -0.3966 -0.0376  0.0188
 1659TIP3    H126612   5.435   0.034   1.975 -0.2356  0.6542  1.0059
 1659TIP3    H226613   5.294   0.065   1.927  0.0358 -0.1429 -0.3451
 1660TIP3   OH226614   5.510   1.364   3.606  0.5728 -0.2629  0.5201
 1660TIP3    H126615   5.590   1.414   3.591  0.3913 -0.0489  0.2570
 1660TIP3    H226616   5.451   1.424   3.651  0.0924  0.0032 -0.4458
 1661TIP3   OH226617   6.605   6.367   8.752 -0.2252  0.2349  0.1389
 1661TIP3    H126618   6.695   6.400   8.757 -0.4517  0.7382  0.9080
 1661TIP3    H226619   6.604   6.290   8.809 -0.1637 -0.0667 -0.2574
 1662TIP3   OH226620   0.034   6.523   1.684 -0.1065  0.0944 -0.5562
 1662TIP3    H126621  -0.021   6.553   1.611 -0.7991  1.4524  0.4742
 1662TIP3    H226622  -0.026   6.473   1.740  0.0064  0.5082 -0.0616
 1663TIP3   OH226623   0.619   5.736   0.246 -0.2071  0.3997 -0.2147
 1663TIP3    H126624   0.540   5.769   0.205 -0.1441  1.3397  0.3990
 1663TIP3    H226625   0.683   5.806   0.235 -0.1083  0.5624  1.2261
 1664TIP3   OH226626   3.598   4.121   1.160 -0.0696 -0.3405 -0.1723
 1664TIP3    H126627   3.524   4.103   1.219 -0.8771 -1.7221 -1.5411
 1664TIP3    H226628   3.558   4.167   1.086  0.9827  1.6382  0.4177
 1665TIP3   OH226629   0.870   1.611   8.200 -0.5768 -0.5402 -0.4269
 1665TIP3    H126630   0.942   1.569   8.248 -1.0341 -1.4243 -0.5076
 1665TIP3    H226631   0.793   1.560   8.223 -1.2101  0.4691 -0.2564
 1666TIP3   OH226632   0.173   6.635   9.089 -0.0791  0.1070 -0.2033
 1666TIP3    H126633   0.197   6.723   9.059 -1.4079  0.6182  0.1551
 1666TIP3    H226634   0.200   6.632   9.180  1.4760 -0.4722 -0.6563
 1667TIP3   OH226635   0.004   5.681   0.864 -0.4602 -0.5920  0.5136
 1667TIP3    H126636   0.006   5.592   0.898 -0.1297 -0.1409  1.7270
 1667TIP3    H226637   0.097   5.706   0.858 -0.5788 -0.0242  1.0124
 1668TIP3   OH226638   2.072   0.278   2.487  0.2204  0.1879 -0.3736
 1668TIP3    H126639   2.154   0.252   2.444  0.5659 -0.2268  0.5154
 1668TIP3    H226640   2.016   0.200   2.480  0.2897  0.1076 -0.0523
 1669TIP3   OH226641   2.335   5.370   0.980 -0.5337 -0.0726 -0.5961
 1669TIP3    H126642   2.334   5.313   1.058 -1.2077 -0.5446 -0.9467
 1669TIP3    H226643   2.404   5.333   0.925  0.3092  0.5729 -0.0107
 1670TIP3   OH226644   4.932   2.746   8.589 -0.3234 -0.0345 -0.3972
 1670TIP3    H126645   4.983   2.683   8.640 -0.6146  0.1118  0.0796
 1670TIP3    H226646   4.856   2.696   8.560  0.2855 -0.3747 -1.4736
 1671TIP3   OH226647   6.289   4.896   0.219 -0.0085 -0.5385 -0.3194
 1671TIP3    H126648   6.235   4.834   0.269  0.6576 -0.5704  0.3705
 1671TIP3    H226649   6.379   4.877   0.246  0.4524 -1.0089 -2.0288
 1672TIP3   OH226650   0.878   5.582   1.519 -0.5332 -0.0145  0.2552
 1672TIP3    H126651   0.893   5.672   1.549 -2.4913  0.7979 -0.9708
 1672TIP3    H226652   0.912   5.527   1.589  0.0899  1.6881  1.3578
 1673TIP3   OH226653   4.904   2.933   0.455  0.0592 -0.0066  0.2191
 1673TIP3    H126654   4.917   2.874   0.380 -0.8905  1.1094 -0.8490
 1673TIP3    H226655   4.927   3.019   0.422  2.3068  0.1826  2.0195
 1674TIP3   OH226656   5.751   1.374   3.232 -0.3144 -0.1786  0.6024
 1674TIP3    H126657   5.725   1.459   3.198  1.7175  0.3442  0.1807
 1674TIP3    H226658   5.681   1.348   3.290 -1.3640  1.4058  0.1039
 1675TIP3   OH226659   3.492   2.572   0.659  0.1390 -0.0250  0.2124
 1675TIP3    H126660   3.538   2.597   0.579 -0.8944  1.4686  0.0535
 1675TIP3    H226661   3.552   2.596   0.730  0.0892  0.8670 -0.0344
 1676TIP3   OH226662   5.881   3.299   0.755  0.0131 -0.1862 -0.2015
 1676TIP3    H126663   5.814   3.326   0.693 -0.5846  1.6778  1.1649
 1676TIP3    H226664   5.963   3.301   0.704 -0.4406  1.3784 -0.9401
 1677TIP3   OH226665   3.895   1.754   2.147 -0.2015 -0.2246  0.0236
 1677TIP3    H126666   3.953   1.754   2.071  0.7212 -0.9945  0.7003
 1677TIP3    H226667   3.832   1.684   2.130 -0.9455  0.6077 -0.7102
 1678TIP3   OH226668   5.834   0.087   8.621 -0.3010 -0.1984  0.4951
 1678TIP3    H126669   5.758   0.050   8.577  0.4724  0.3944 -1.4617
 1678TIP3    H226670   5.904   0.022   8.607  0.2175  0.4688 -0.0830
 1679TIP3   OH226671   5.662   3.806   2.226 -0.2933 -0.3597  0.0840
 1679TIP3    H126672   5.733   3.794   2.163  1.5810 -0.4115  2.0833
 1679TIP3    H226673   5.614   3.723   2.224 -0.7598 -0.0954 -1.7553
 1680TIP3   OH226674   5.363   2.129   8.692  0.2538  0.3118 -0.4842
 1680TIP3    H126675   5.354   2.034   8.701  0.2128  0.3680  0.1636
 1680TIP3    H226676   5.416   2.141   8.613  0.7870 -0.2758 -0.2291
 1681TIP3   OH226677   5.778   5.592   7.645  0.1918 -0.6221  0.9047
 1681TIP3    H126678   5.801   5.500   7.641 -0.8126 -0.8387 -0.1979
 1681TIP3    H226679   5.694   5.594   7.692 -0.1742 -0.3638  0.2598
 1682TIP3   OH226680   4.850   0.580   2.062 -0.5745 -0.1218 -0.0552
 1682TIP3    H126681   4.887   0.585   2.150 -0.2885  2.0748 -0.2402
 1682TIP3    H226682   4.757   0.598   2.073 -0.5703 -0.0168 -0.1781
 1683TIP3   OH226683   6.522   1.196   7.921 -0.0158 -0.1575  0.0865
 1683TIP3    H126684   6.610   1.227   7.941 -0.8506  1.0008  2.4067
 1683TIP3    H226685   6.506   1.223   7.831  2.0418 -0.5878 -0.4626
 1684TIP3   OH226686   6.104   1.837   0.045 -0.3149  0.1157 -0.0052
 1684TIP3    H126687   6.143   1.849  -0.042 -1.2129  0.4490 -0.3794
 1684TIP3    H226688   6.162   1.885   0.104  0.7396 -0.7623 -0.2972
 1685TIP3   OH226689   5.574   1.150   1.409 -0.1261 -0.1372 -0.1658
 1685TIP3    H126690   5.618   1.067   1.389 -1.2425 -0.6492 -0.5610
 1685TIP3    H226691   5.612   1.212   1.348 -1.4166 -1.0391 -1.9547
 1686TIP3   OH226692   0.496   6.499   0.841  0.2440  0.2865  0.1608
 1686TIP3    H126693   0.577   6.472   0.798  1.4722  0.3582  2.2693
 1686TIP3    H226694   0.509   6.474   0.933 -1.3578  1.9602  0.9016
 1687TIP3   OH226695   6.460   1.058   0.066 -0.2205  0.5414 -0.2275
 1687TIP3    H126696   6.465   1.069   0.161 -1.6262  0.6059 -0.1430
 1687TIP3    H226697   6.464   1.147   0.031  0.4407  0.5087 -0.2451
 1688TIP3   OH226698   5.063   3.025   7.740 -0.4502 -0.3122 -0.0605
 1688TIP3    H126699   5.094   2.944   7.698  0.6843  1.5905 -3.2869
 1688TIP3    H226700   4.990   2.997   7.795  0.1586 -3.5641 -0.6859
 1689TIP3   OH226701   5.988   2.429   8.636  0.4648 -0.1361  0.4335
 1689TIP3    H126702   5.917   2.460   8.693  1.0934  0.2199  1.0301
 1689TIP3    H226703   5.993   2.335   8.652 -1.5411 -0.6596 -1.4793
 1690TIP3   OH226704   5.739   0.777   8.553 -0.1248  0.0540 -0.5182
 1690TIP3    H126705   5.651   0.745   8.575 -0.1559  1.2507  1.3458
 1690TIP3    H226706   5.724   0.865   8.517  0.2851  0.1929 -0.3573
 1691TIP3   OH226707   1.242   6.247   3.026  0.3224 -0.4114 -0.0058
 1691TIP3    H126708   1.281   6.160   3.032 -1.0373 -1.1266 -0.9229
 1691TIP3    H226709   1.165   6.243   3.083 -0.0406  0.0275 -0.4560
 1692TIP3   OH226710   1.349   5.514   1.722 -0.8616 -0.3433 -0.2287
 1692TIP3    H126711   1.413   5.556   1.665 -1.3369 -0.9008 -1.2031
 1692TIP3    H226712   1.272   5.500   1.666 -2.0325  0.7371  1.0293
 1693TIP3   OH226713   4.563   3.066   1.536  0.0473  0.4720  0.1597
 1693TIP3    H126714   4.504   3.141   1.531 -0.2911  0.1846 -0.1842
 1693TIP3    H226715   4.584   3.058   1.630  1.1891  1.8403  0.0526
 1694TIP3   OH226716   5.793   1.483   1.429  0.0940  0.3095  0.4338
 1694TIP3    H126717   5.888   1.473   1.441 -0.3618 -2.2164  3.4465
 1694TIP3    H226718   5.771   1.423   1.357  0.7264  0.6518 -0.0502
 1695TIP3   OH226719   4.285   0.026   0.759  0.0463  0.3719 -0.0746
 1695TIP3    H126720   4.335   0.014   0.840 -0.1719  2.4557  0.4425
 1695TIP3    H226721   4.340  -0.011   0.691  1.4921  0.9834  0.7129
 1696TIP3   OH226722   6.640   3.597   1.834  0.3609  0.0228  0.0115
 1696TIP3    H126723   6.564   3.575   1.888 -1.3436  2.0517 -1.4026
 1696TIP3    H226724   6.606   3.601   1.745  1.6625  2.7962 -0.4538
 1697TIP3   OH226725   1.571   1.414   3.381  0.0710  0.2200 -0.4162
 1697TIP3    H126726   1.656   1.405   3.423  0.0006  0.6260 -0.1824
 1697TIP3    H226727   1.528   1.486   3.427 -0.4940 -0.1289 -0.3802
 1698TIP3   OH226728   5.941   2.110   8.511  0.1882 -0.5223 -0.4318
 1698TIP3    H126729   6.003   2.123   8.440  0.2447 -1.8483 -0.6532
 1698TIP3    H226730   5.855   2.112   8.469  0.0077  1.7292 -0.0659
 1699TIP3   OH226731   0.773   4.953   8.459  0.1182  0.1642  0.0610
 1699TIP3    H126732   0.743   5.017   8.395 -1.4445 -0.3026  0.3052
 1699TIP3    H226733   0.862   4.930   8.429 -0.3370  0.4120 -1.5836
 1700TIP3   OH226734   4.256   3.180   0.618  0.1828 -0.3244 -0.2332
 1700TIP3    H126735   4.351   3.186   0.633  0.2363 -1.5052  0.0475
 1700TIP3    H226736   4.241   3.232   0.540  0.9120  0.6750  0.2677
 1701TIP3   OH226737   1.091   0.759   2.469 -0.8372  0.0527  0.3221
 1701TIP3    H126738   1.128   0.846   2.478  1.0683 -0.6554 -0.2420
 1701TIP3    H226739   1.007   0.763   2.515 -0.3884  1.9223  1.0322
 1702TIP3   OH226740   2.953   4.813   2.518 -0.4542  0.0914  0.8049
 1702TIP3    H126741   2.973   4.895   2.562 -0.0688 -0.1964  1.1658
 1702TIP3    H226742   2.995   4.820   2.432 -2.2086  1.1537 -0.0227
 1703TIP3   OH226743   3.713   0.305   1.671 -0.1565 -0.4631 -0.2221
 1703TIP3    H126744   3.694   0.249   1.596  1.2403 -2.0323  0.5422
 1703TIP3    H226745   3.706   0.247   1.747  2.0025  0.1891  0.5375
 1704TIP3   OH226746   1.028   1.221   0.732  0.1897  0.2886  0.2022
 1704TIP3    H126747   1.081   1.159   0.782  0.3726  0.5552  0.3383
 1704TIP3    H226748   1.017   1.178   0.647  0.7187  0.2755  0.1316
 1705TIP3   OH226749   2.624   5.815   8.388  0.4090  0.2507  0.2275
 1705TIP3    H126750   2.684   5.886   8.408 -0.1157  1.2035 -1.3926
 1705TIP3    H226751   2.680   5.746   8.352  0.5591  1.2373 -1.5256
 1706TIP3   OH226752   0.579   6.452   3.147 -0.2011  0.0057 -0.1043
 1706TIP3    H126753   0.572   6.473   3.241 -1.7322 -0.7995 -0.0113
 1706TIP3    H226754   0.673   6.441   3.132  0.0002 -0.7998  1.5517
 1707TIP3   OH226755   1.923   0.829   2.258 -0.5336 -0.0280  0.3636
 1707TIP3    H126756   1.915   0.735   2.241 -1.3051 -0.0936  1.0357
 1707TIP3    H226757   1.895   0.870   2.176 -0.2812 -0.3837  0.0978
 1708TIP3   OH226758   0.851   1.312   8.812  0.0540  0.0083 -0.1339
 1708TIP3    H126759   0.848   1.257   8.891 -0.0218  1.7614  1.1359
 1708TIP3    H226760   0.813   1.257   8.744 -1.6735 -0.9167  1.4796
 1709TIP3   OH226761   3.718   4.404   0.280 -0.7926  0.4456  0.1345
 1709TIP3    H126762   3.778   4.387   0.353 -1.8993  0.8161  1.1734
 1709TIP3    H226763   3.735   4.495   0.256 -2.5373  1.3744  2.0633
 1710TIP3   OH226764   0.306   6.560   8.627  0.6826 -0.2534  0.7603
 1710TIP3    H126765   0.355   6.636   8.658 -0.1731  1.3432 -1.5257
 1710TIP3    H226766   0.359   6.525   8.555 -0.8381  0.7339 -0.9062
 1711TIP3   OH226767   2.189   4.560   1.776 -0.4749 -0.1878  0.0390
 1711TIP3    H126768   2.262   4.608   1.738  0.2829 -1.0440  0.3884
 1711TIP3    H226769   2.222   4.472   1.789 -1.6819 -0.6876 -0.1120
 1712TIP3   OH226770   6.612   6.314   3.496  0.4140 -0.4586  0.1467
 1712TIP3    H126771   6.553   6.385   3.522  1.2506  0.4633 -0.4409
 1712TIP3    H226772   6.553   6.240   3.479 -0.3720 -0.3482  2.0908
 1713TIP3   OH226773   0.468   4.286   1.819  0.0373  0.4874 -0.0133
 1713TIP3    H126774   0.479   4.371   1.776  0.2061 -0.4709 -1.9816
 1713TIP3    H226775   0.548   4.238   1.799 -0.6092 -0.6042 -0.0794
 1714TIP3   OH226776   0.343   4.439   3.493 -0.0986 -0.5442 -0.0446
 1714TIP3    H126777   0.272   4.470   3.550 -0.3887  0.0884 -0.7283
 1714TIP3    H226778   0.410   4.408   3.553 -1.0137 -1.2965  0.6213
 1715TIP3   OH226779   4.243   1.886   0.882  0.2320 -0.3725  0.5337
 1715TIP3    H126780   4.249   1.812   0.822 -0.2196 -1.8215  2.1618
 1715TIP3    H226781   4.151   1.886   0.910  0.1953  0.9116  0.4520
 1716TIP3   OH226782   4.608   4.816   2.022 -0.8432  0.0329 -0.0794
 1716TIP3    H126783   4.624   4.785   1.932  0.7839 -0.2889  0.2825
 1716TIP3    H226784   4.556   4.895   2.011 -0.6948 -0.0175 -1.3142
 1717TIP3   OH226785   0.134   4.510   3.668 -0.6671  0.1710  0.4658
 1717TIP3    H126786   0.047   4.495   3.706 -0.8033  0.9407  0.4760
 1717TIP3    H226787   0.121   4.582   3.606 -0.1378 -0.0570  0.0850
 1718TIP3   OH226788   4.466   3.696   3.293 -0.3027 -0.0877 -0.1926
 1718TIP3    H126789   4.483   3.689   3.199 -1.0810  0.0721 -0.3480
 1718TIP3    H226790   4.429   3.784   3.303  3.6543  1.6723  0.8516
 1719TIP3   OH226791   3.472   2.821   1.531  0.2048 -0.0774 -0.1645
 1719TIP3    H126792   3.383   2.854   1.527  0.3745  0.3054 -1.6721
 1719TIP3    H226793   3.526   2.897   1.554  0.2551 -0.0058 -0.4994
 1720TIP3   OH226794   0.624   3.187   8.566 -0.1143 -0.8141 -0.1111
 1720TIP3    H126795   0.684   3.253   8.598  0.3101 -1.2214 -0.0491
 1720TIP3    H226796   0.639   3.111   8.622 -1.5420 -0.5451  0.6784
 1721TIP3   OH226797   3.786   1.039   3.798 -0.3142 -0.7943 -0.2735
 1721TIP3    H126798   3.747   1.017   3.713  1.4123  0.7144 -1.5236
 1721TIP3    H226799   3.845   0.966   3.816  0.2442 -0.5408 -1.0116
 1722TIP3   OH226800   3.061   3.406   3.696 -0.1320 -0.0100  0.0658
 1722TIP3    H126801   3.079   3.392   3.789 -0.4529  0.8734  0.2734
 1722TIP3    H226802   3.146   3.426   3.657  0.1728 -1.4551 -0.0473
 1723TIP3   OH226803   0.952   0.885   2.851  0.4963  0.1238 -0.2224
 1723TIP3    H126804   0.925   0.849   2.935  0.4614  1.6378  0.4543
 1723TIP3    H226805   1.043   0.857   2.841  0.3923 -0.3594  0.1429
 1724TIP3   OH226806   5.516   4.455   7.973 -0.0737 -0.4789 -0.2682
 1724TIP3    H126807   5.577   4.383   7.992 -0.0255  0.1104  2.1620
 1724TIP3    H226808   5.443   4.413   7.927  1.5487 -1.4124 -2.1679
 1725TIP3   OH226809   4.325   0.779   2.639 -0.1206  0.3963  0.1376
 1725TIP3    H126810   4.243   0.759   2.593 -1.0167  0.6986  1.5310
 1725TIP3    H226811   4.316   0.870   2.666 -0.4774 -0.2430  2.4539
 1726TIP3   OH226812   5.413   4.060   2.370 -0.0922  0.0529  0.0224
 1726TIP3    H126813   5.480   4.126   2.387  0.7459 -0.4708 -1.0499
 1726TIP3    H226814   5.459   3.976   2.379  0.8454 -0.3787 -5.1802
 1727TIP3   OH226815   2.450   4.503   8.607  0.7292 -0.4547  0.1858
 1727TIP3    H126816   2.424   4.517   8.516  0.1325 -0.0406  0.4098
 1727TIP3    H226817   2.406   4.422   8.633 -1.2662  0.7830  0.8794
 1728TIP3   OH226818   5.916   2.714   1.962 -0.0828  0.0771 -0.1871
 1728TIP3    H126819   6.007   2.732   1.938  0.8809 -2.6639  0.9075
 1728TIP3    H226820   5.868   2.718   1.879  0.7493  2.6853 -0.6245
 1729TIP3   OH226821   1.458   5.608   8.192 -0.3036  0.4078  0.1652
 1729TIP3    H126822   1.551   5.612   8.217 -0.8314  2.2116  2.1877
 1729TIP3    H226823   1.452   5.533   8.133  2.5794  0.7006 -0.6698
 1730TIP3   OH226824   3.924   6.620   1.159 -0.6267  0.3479  0.1625
 1730TIP3    H126825   3.884   6.555   1.218 -1.4650  0.4959 -0.2248
 1730TIP3    H226826   3.865   6.695   1.163 -0.3670  0.5843 -0.4024
 1731TIP3   OH226827   1.147   1.895   0.152  0.6261 -0.0734 -0.5919
 1731TIP3    H126828   1.194   1.830   0.205  1.1463  0.2151 -0.6982
 1731TIP3    H226829   1.084   1.843   0.102 -1.2332 -0.2010  1.6801
 1732TIP3   OH226830   2.944   3.595   2.018 -0.1022 -0.5833  0.1168
 1732TIP3    H126831   2.851   3.609   2.002  0.3806  1.0320 -1.5697
 1732TIP3    H226832   2.988   3.664   1.968  1.9282  0.2613  2.8056
 1733TIP3   OH226833   0.877   0.520   2.016  0.1230  0.4580 -0.1184
 1733TIP3    H126834   0.930   0.598   1.996 -0.2385  0.5025 -0.9688
 1733TIP3    H226835   0.861   0.480   1.931  0.7128 -0.8344  0.3580
 1734TIP3   OH226836   4.581   6.675   2.831 -0.0032  0.3199  0.7779
 1734TIP3    H126837   4.673   6.667   2.856  0.6989 -0.5094 -1.7887
 1734TIP3    H226838   4.533   6.657   2.912  2.0488 -1.2315  1.7569
 1735TIP3   OH226839   3.958   3.446   8.863 -0.2251 -0.0265  0.1771
 1735TIP3    H126840   3.863   3.441   8.857 -0.1883  0.6750 -3.0766
 1735TIP3    H226841   3.989   3.363   8.825  0.5576 -0.9843  2.6903
 1736TIP3   OH226842   4.265   6.146   1.387  0.5072  0.3485 -0.4754
 1736TIP3    H126843   4.206   6.222   1.390  1.5875  1.2101  1.3064
 1736TIP3    H226844   4.299   6.146   1.298  0.8259  2.2863 -0.4143
 1737TIP3   OH226845   1.731   0.193   8.140 -0.2391 -0.4755 -0.6079
 1737TIP3    H126846   1.641   0.162   8.136 -0.3901 -0.3712  1.2602
 1737TIP3    H226847   1.779   0.133   8.083 -1.0572 -2.2653  0.4724
 1738TIP3   OH226848   0.181   4.742   1.864  0.2627 -0.3529 -0.4245
 1738TIP3    H126849   0.094   4.738   1.825  0.3255 -1.9058 -0.4951
 1738TIP3    H226850   0.240   4.742   1.788  0.3332  0.4186 -0.3727
 1739TIP3   OH226851   0.843   2.020   1.107 -0.3566  0.5856  0.1297
 1739TIP3    H126852   0.784   1.973   1.165  1.2387 -1.1952  0.4116
 1739TIP3    H226853   0.859   1.958   1.035  0.8533  1.1531 -0.1100
 1740TIP3   OH226854   5.489   2.250   1.550  0.1673 -0.7127  0.1954
 1740TIP3    H126855   5.413   2.207   1.511 -0.3070 -0.5039  0.8617
 1740TIP3    H226856   5.562   2.190   1.533 -0.2713 -1.2436  0.1432
 1741TIP3   OH226857   3.406   0.413   8.466 -0.1605 -0.3894 -0.2079
 1741TIP3    H126858   3.427   0.449   8.380  1.2285  1.4335  0.8268
 1741TIP3    H226859   3.408   0.488   8.525  0.3566 -1.7987  1.6641
 1742TIP3   OH226860   4.564   1.652   8.561  0.3576  0.3050 -0.4367
 1742TIP3    H126861   4.533   1.712   8.493  2.6375  1.6695 -0.3427
 1742TIP3    H226862   4.640   1.609   8.523  0.1798 -0.7909  0.3904
 1743TIP3   OH226863   0.405   5.863   0.125  0.0791 -0.6194 -0.0726
 1743TIP3    H126864   0.452   5.941   0.096  0.7473 -1.4881 -1.4443
 1743TIP3    H226865   0.373   5.885   0.213  0.7639  0.9564 -0.1873
 1744TIP3   OH226866   4.046   5.385   8.940 -0.8555  0.5509 -0.0106
 1744TIP3    H126867   3.969   5.400   8.994 -1.9684  0.5246 -1.5282
 1744TIP3    H226868   4.053   5.463   8.885 -0.0521  0.3652 -0.1961
 1745TIP3   OH226869   5.739   1.493   3.600 -0.0847 -0.3216  0.1453
 1745TIP3    H126870   5.747   1.567   3.539 -0.4862  1.3471  1.9890
 1745TIP3    H226871   5.812   1.436   3.577  0.9024  1.1784 -0.6895
 1746TIP3   OH226872   0.691   3.846   2.472 -0.2978  0.2911  0.0109
 1746TIP3    H126873   0.768   3.901   2.491  1.2501 -2.5135  2.8384
 1746TIP3    H226874   0.652   3.829   2.557 -0.2400 -3.4410 -0.5464
 1747TIP3   OH226875   3.508   2.962   3.076 -0.6552 -0.5859  0.3133
 1747TIP3    H126876   3.511   3.048   3.118  0.6762 -1.4320  2.0859
 1747TIP3    H226877   3.449   2.911   3.131 -0.5704 -1.1185 -0.0807
 1748TIP3   OH226878   1.291   4.388   7.709  0.3101  0.1928  0.3352
 1748TIP3    H126879   1.333   4.450   7.650  0.7153 -0.5701 -0.2069
 1748TIP3    H226880   1.364   4.338   7.747 -0.0548 -0.7999 -0.2205
 1749TIP3   OH226881   1.915   0.462   0.275  0.1221 -0.0669  0.0603
 1749TIP3    H126882   1.991   0.438   0.329 -0.5175 -1.3203  0.4440
 1749TIP3    H226883   1.904   0.388   0.216 -1.6772 -0.5869  0.9849
 1750TIP3   OH226884   4.098   2.708   8.213  0.4148  0.0342 -0.2164
 1750TIP3    H126885   4.167   2.758   8.169 -0.7346  1.7000 -0.2173
 1750TIP3    H226886   4.101   2.622   8.172  0.6665  0.9331 -2.1907
 1751TIP3   OH226887   4.812   0.468   1.381 -0.0064 -0.2545 -0.2159
 1751TIP3    H126888   4.885   0.417   1.347 -0.1025  0.5838 -1.7401
 1751TIP3    H226889   4.834   0.559   1.361 -1.5134  0.0065 -0.8541
 1752TIP3   OH226890   6.163   5.402   8.756 -0.0144 -0.3569  0.1770
 1752TIP3    H126891   6.162   5.307   8.764 -0.6294 -0.2580  1.5773
 1752TIP3    H226892   6.130   5.434   8.840 -1.0446  1.0608 -0.7088
 1753TIP3   OH226893   6.454   6.390   8.533  0.4669 -0.0539  0.4472
 1753TIP3    H126894   6.501   6.398   8.616 -0.9751  0.0617  1.2848
 1753TIP3    H226895   6.508   6.438   8.471  2.3965 -1.4858  0.9257
 1754TIP3   OH226896   6.342   2.138   1.988 -0.1399 -0.4941  0.7862
 1754TIP3    H126897   6.272   2.168   2.046 -0.5065 -0.0156  0.1003
 1754TIP3    H226898   6.397   2.216   1.975 -1.4581  0.1187 -1.5359
 1755TIP3   OH226899   0.139   3.332   8.470 -1.1185  0.1477  0.2543
 1755TIP3    H126900   0.090   3.252   8.450 -0.9272  0.0222  0.2915
 1755TIP3    H226901   0.085   3.402   8.433 -1.4209  0.0248  0.4571
 1756TIP3   OH226902   1.888   6.106   1.683  0.2740  0.0418 -0.2578
 1756TIP3    H126903   1.920   6.136   1.768  0.5200 -0.6316 -0.1071
 1756TIP3    H226904   1.811   6.160   1.666  0.1831  0.1324  0.4260
 1757TIP3   OH226905   5.565   1.214   3.386  0.2317  0.0764  0.3484
 1757TIP3    H126906   5.605   1.144   3.437 -0.7953 -0.7298  0.0837
 1757TIP3    H226907   5.538   1.278   3.451  0.9201  0.1057  0.6153
 1758TIP3   OH226908   6.165   6.350   8.546  0.1741  0.2384  0.1665
 1758TIP3    H126909   6.260   6.347   8.557  0.1367  0.1424  0.4772
 1758TIP3    H226910   6.137   6.259   8.548  0.3119  0.0935 -2.2277
 1759TIP3   OH226911   0.389   3.944   2.993 -0.1723 -0.3948  0.4144
 1759TIP3    H126912   0.300   3.977   2.997 -0.0580 -0.1664  1.1271
 1759TIP3    H226913   0.438   3.995   3.058  0.3111 -1.0148  0.5521
 1760TIP3   OH226914   0.414   3.397   2.963 -0.3397  0.5461 -0.0595
 1760TIP3    H126915   0.507   3.376   2.970 -0.4169  0.1972 -0.0794
 1760TIP3    H226916   0.380   3.338   2.896 -0.1070  2.2252 -1.7456
 1761TIP3   OH226917   5.407   1.922   9.062  0.8163 -0.0550  0.2280
 1761TIP3    H126918   5.492   1.949   9.025  0.1096  1.3818 -0.4557
 1761TIP3    H226919   5.359   1.887   8.988  0.1789  0.8203  0.2052
 1762TIP3   OH226920   3.824   4.398   1.466  0.6642 -0.2453 -0.2464
 1762TIP3    H126921   3.742   4.378   1.510  0.5469 -0.5298 -0.5882
 1762TIP3    H226922   3.836   4.326   1.403 -0.1525  1.1211 -2.0563
 1763TIP3   OH226923   5.788   6.465   0.233 -0.8052 -0.0557  0.3938
 1763TIP3    H126924   5.738   6.387   0.257 -1.0676 -0.4329 -1.2414
 1763TIP3    H226925   5.722   6.534   0.228 -0.8085 -0.0578  0.4122
 1764TIP3   OH226926   3.596   0.073   1.814  0.2087  0.0373 -0.1154
 1764TIP3    H126927   3.619   0.100   1.902  1.2347 -1.2719  0.0415
 1764TIP3    H226928   3.502   0.052   1.818  0.1653  0.3716  0.5577
 1765TIP3   OH226929   3.635   2.083   2.543  0.2596 -0.6762 -0.1388
 1765TIP3    H126930   3.672   2.039   2.467  2.4315 -0.2148  0.5622
 1765TIP3    H226931   3.704   2.142   2.572 -1.9072  1.9943 -0.0277
 1766TIP3   OH226932   1.964   1.795   8.226 -0.2227  0.3929 -0.2459
 1766TIP3    H126933   1.869   1.789   8.217 -0.2958  0.3993  0.4565
 1766TIP3    H226934   1.980   1.887   8.247  0.0747  0.7191 -1.7784
 1767TIP3   OH226935   0.780   0.748   1.248 -0.0171 -0.1047 -0.2303
 1767TIP3    H126936   0.787   0.707   1.162 -2.8303  0.6258 -0.9084
 1767TIP3    H226937   0.793   0.841   1.232 -0.5976  0.0423  0.1268
 1768TIP3   OH226938   5.303   2.955   7.965 -0.0531 -0.4215 -0.9626
 1768TIP3    H126939   5.359   2.879   7.976  0.6308  0.0054 -1.3810
 1768TIP3    H226940   5.227   2.938   8.021  0.1504 -1.3384 -0.9497
 1769TIP3   OH226941   5.952   0.896   8.868 -1.0517 -0.3829  0.1042
 1769TIP3    H126942   6.045   0.915   8.879 -1.2989  0.9902  0.0050
 1769TIP3    H226943   5.939   0.812   8.911  0.4346 -1.1216 -0.7913
 1770TIP3   OH226944   5.902   5.740   1.867  0.2079  0.1269 -0.1621
 1770TIP3    H126945   5.945   5.822   1.889 -0.1803  0.0604  0.9215
 1770TIP3    H226946   5.968   5.690   1.819  1.2626  0.1259  1.2422
 1771TIP3   OH226947   3.300   4.958   8.990 -0.5662  0.1467 -0.0776
 1771TIP3    H126948   3.211   4.943   9.022 -0.4483  1.0387  0.6979
 1771TIP3    H226949   3.294   5.041   8.942 -0.3589 -0.2999 -0.9001
 1772TIP3   OH226950   2.412   5.929   1.848 -0.9735 -0.1578  0.1934
 1772TIP3    H126951   2.363   5.944   1.768  3.0414  1.2420 -2.2855
 1772TIP3    H226952   2.426   5.834   1.851 -2.6883 -0.4258  0.2951
 1773TIP3   OH226953   1.028   2.011   0.418  0.0709 -0.3952  0.6665
 1773TIP3    H126954   1.104   2.064   0.442  1.2077 -1.7150  0.1100
 1773TIP3    H226955   1.032   2.004   0.323  1.0931 -3.0318  0.8314
 1774TIP3   OH226956   3.108   5.985   2.349  0.8903  0.2115 -0.4082
 1774TIP3    H126957   3.084   5.968   2.440 -0.6484 -0.7435 -0.9712
 1774TIP3    H226958   3.061   6.065   2.326  0.5128 -0.0760 -0.6466
 1775TIP3   OH226959   5.488   4.747   0.400  0.0307 -0.2971  0.1203
 1775TIP3    H126960   5.566   4.693   0.401  0.2448  0.0080  1.2245
 1775TIP3    H226961   5.439   4.721   0.478 -0.0037  0.8698  0.5115
 1776TIP3   OH226962   2.445   3.279   9.032 -0.5477 -0.2852 -0.3376
 1776TIP3    H126963   2.535   3.254   9.010 -0.0801  1.4479 -0.5577
 1776TIP3    H226964   2.395   3.260   8.953 -0.5006 -1.7541 -0.0362
 1777TIP3   OH226965   5.824   5.375   2.323 -0.1265  0.2855 -0.0805
 1777TIP3    H126966   5.880   5.324   2.382  0.8873  0.7017 -0.6522
 1777TIP3    H226967   5.801   5.314   2.253 -0.5067  0.0721  0.2305
 1778TIP3   OH226968   1.182   0.398   2.235 -0.1252  0.1020 -0.0433
 1778TIP3    H126969   1.219   0.487   2.239  3.1936 -1.1066 -0.5739
 1778TIP3    H226970   1.121   0.395   2.309 -0.5823  2.8817 -0.1840
 1779TIP3   OH226971   0.330   3.660   2.058 -0.1982  0.1599  0.1526
 1779TIP3    H126972   0.333   3.569   2.029 -2.0729 -0.2215  0.9945
 1779TIP3    H226973   0.375   3.709   1.989  0.6717 -1.3614 -0.4095
 1780TIP3   OH226974   3.983   6.526   2.480 -0.4484 -0.0024 -0.7106
 1780TIP3    H126975   3.950   6.615   2.474 -0.7493 -0.1558 -1.4434
 1780TIP3    H226976   3.924   6.482   2.540 -1.6796 -0.2986 -2.0747
 1781TIP3   OH226977   1.012   4.212   0.259 -0.2151  0.2345 -0.6817
 1781TIP3    H126978   1.061   4.223   0.341 -0.3753 -0.2088 -0.5225
 1781TIP3    H226979   1.054   4.137   0.216 -0.6469 -0.0497 -0.6169
 1782TIP3   OH226980   3.444   3.475   1.711 -0.0104  0.2437 -0.5675
 1782TIP3    H126981   3.502   3.494   1.638  0.0972  2.5011  0.0086
 1782TIP3    H226982   3.454   3.551   1.769 -1.9899 -0.2790  0.5479
 1783TIP3   OH226983   1.294   0.249   3.111  0.4570  0.3382 -0.0420
 1783TIP3    H126984   1.370   0.307   3.114  0.0893  0.8750 -0.8246
 1783TIP3    H226985   1.306   0.191   3.186  2.1547 -0.2454 -0.6982
 1784TIP3   OH226986   5.462   3.000   8.491 -0.1158  1.0118 -0.4944
 1784TIP3    H126987   5.409   2.924   8.468  0.4133  0.1460  1.0281
 1784TIP3    H226988   5.543   2.989   8.442  0.1795  0.2931  0.1505
 1785TIP3   OH226989   6.362   5.710   2.122  0.0373  0.4625  0.1001
 1785TIP3    H126990   6.387   5.621   2.147 -0.0067  0.6359  0.7953
 1785TIP3    H226991   6.325   5.701   2.035 -2.3465 -0.6092  1.1436
 1786TIP3   OH226992   3.509   1.699   0.854  0.3477 -0.0176 -0.7071
 1786TIP3    H126993   3.537   1.755   0.782  2.0509 -1.2526 -1.0433
 1786TIP3    H226994   3.535   1.747   0.933  1.6044 -0.2191 -0.9884
 1787TIP3   OH226995   4.348   6.630   0.535 -0.0952 -0.6240 -0.0301
 1787TIP3    H126996   4.351   6.550   0.482 -0.8223 -1.3577  0.9942
 1787TIP3    H226997   4.314   6.697   0.476 -1.3093 -1.5224 -0.3823
 1788TIP3   OH226998   2.217   5.223   2.612 -0.1315 -0.7939 -0.2548
 1788TIP3    H126999   2.221   5.136   2.652  2.5444 -0.6664 -0.0520
 1788TIP3    H227000   2.247   5.283   2.681 -0.7491  0.1480 -0.7769
 1789TIP3   OH227001   3.186   0.367   1.372  0.1449  0.0551  0.5507
 1789TIP3    H127002   3.265   0.370   1.317  0.2405  0.2589  0.6958
 1789TIP3    H227003   3.123   0.317   1.320  0.5329 -0.5518  0.6503
 1790TIP3   OH227004   4.728   3.538   1.850  0.3238  0.0664 -0.1802
 1790TIP3    H127005   4.701   3.518   1.760  1.1108  0.3204 -0.4844
 1790TIP3    H227006   4.707   3.459   1.899 -1.5321  0.4658 -0.2561
 1791TIP3   OH227007   0.787   1.482   9.007  0.4560  0.4640 -0.6312
 1791TIP3    H127008   0.714   1.460   8.949  0.4192 -2.1117  0.2691
 1791TIP3    H227009   0.865   1.458   8.957  0.4770 -0.5678 -0.1290
 1792TIP3   OH227010   5.880   3.676   0.075  0.4578  0.2632  0.0502
 1792TIP3    H127011   5.874   3.581   0.080 -1.1872  0.3801  1.0941
 1792TIP3    H227012   5.972   3.694   0.057  0.9356 -1.4959  0.5856
 1793TIP3   OH227013   1.141   0.024   0.507 -0.0271 -0.2111  0.1426
 1793TIP3    H127014   1.051   0.050   0.488  0.0224  2.2792  2.6710
 1793TIP3    H227015   1.190   0.106   0.509  2.3495 -1.5044 -1.0839
 1794TIP3   OH227016   2.110   1.834   1.301  0.4273 -0.1458 -0.0227
 1794TIP3    H127017   2.035   1.851   1.359  0.5918 -0.9521  0.4401
 1794TIP3    H227018   2.185   1.830   1.360  1.0479  1.7871 -0.5953
 1795TIP3   OH227019   4.054   5.079   8.338 -0.1551 -0.4289 -0.3982
 1795TIP3    H127020   4.004   4.999   8.355 -0.0877 -0.4287 -0.1861
 1795TIP3    H227021   4.094   5.100   8.423 -0.7980  0.2621 -0.2552
 1796TIP3   OH227022   4.783   2.028   8.926  0.1693 -0.2490 -0.9537
 1796TIP3    H127023   4.868   2.015   8.883  0.1033 -1.9620 -0.6286
 1796TIP3    H227024   4.804   2.034   9.019 -0.0497 -0.6759 -0.8726
 1797TIP3   OH227025   0.554   2.927   2.469 -0.2661 -0.0654 -0.1069
 1797TIP3    H127026   0.545   2.977   2.550  0.4536 -0.7724  0.4300
 1797TIP3    H227027   0.621   2.862   2.489  1.2341  0.8688 -1.8154
 1798TIP3   OH227028   6.238   1.166   0.700  0.2454 -0.3302  0.2670
 1798TIP3    H127029   6.274   1.118   0.625  0.5803 -0.5296  0.5467
 1798TIP3    H227030   6.283   1.127   0.776  1.3370  1.1433  0.4190
 1799TIP3   OH227031   5.187   6.075   8.718 -0.8216  0.1535 -0.2222
 1799TIP3    H127032   5.190   6.157   8.668 -0.7626 -0.8891 -2.0416
 1799TIP3    H227033   5.094   6.060   8.735 -0.7246  1.4337  1.6566
 1800TIP3   OH227034   3.827   4.587   8.416 -0.6358 -0.8108  0.5884
 1800TIP3    H127035   3.852   4.507   8.370 -1.3050 -0.1485 -1.0040
 1800TIP3    H227036   3.909   4.619   8.455  0.6878  0.1301 -2.6186
 1801TIP3   OH227037   6.377   2.644   0.579 -0.4718  0.3710  0.6894
 1801TIP3    H127038   6.471   2.658   0.584 -0.5732  0.8647  1.3573
 1801TIP3    H227039   6.351   2.624   0.669 -1.0343  0.4344  0.5444
 1802TIP3   OH227040   5.752   3.443   1.565 -0.0787 -0.2775  0.2815
 1802TIP3    H127041   5.718   3.423   1.477  0.5543 -0.0344 -0.0275
 1802TIP3    H227042   5.687   3.407   1.625 -1.2119  0.7172 -0.2927
 1803TIP3   OH227043   0.173   4.790   3.236  0.4920  0.2208  0.1879
 1803TIP3    H127044   0.188   4.870   3.288 -1.4804  0.7738 -0.0102
 1803TIP3    H227045   0.160   4.822   3.147 -1.0168 -0.2333  0.2254
 1804TIP3   OH227046   5.708   6.374   2.550 -0.2630 -0.1845  0.4532
 1804TIP3    H127047   5.724   6.304   2.613 -0.1099  1.9356  2.9348
 1804TIP3    H227048   5.793   6.386   2.506 -0.0955 -1.0347  0.5341
 1805TIP3   OH227049   5.074   0.533   8.395 -0.3601 -0.0304 -0.2880
 1805TIP3    H127050   5.019   0.611   8.394 -0.3975 -0.0624 -1.8124
 1805TIP3    H227051   5.019   0.466   8.436 -0.8126  0.3872 -0.2020
 1806TIP3   OH227052   2.297   3.844   2.745 -0.6932  0.1717 -0.4025
 1806TIP3    H127053   2.280   3.938   2.734  0.7948  0.8432  2.1212
 1806TIP3    H227054   2.337   3.837   2.831  0.1051 -2.7127 -0.8965
 1807TIP3   OH227055   2.051   4.898   8.838 -0.2251  0.1018  0.3665
 1807TIP3    H127056   1.975   4.953   8.820  0.3438  0.9037  0.3721
 1807TIP3    H227057   2.063   4.846   8.758 -1.8326 -1.3331  1.0009
 1808TIP3   OH227058   2.400   4.198   1.233  0.2569 -0.3147  0.2112
 1808TIP3    H127059   2.388   4.243   1.316 -0.0559 -1.3621  0.7463
 1808TIP3    H227060   2.311   4.188   1.198  0.4989  2.2058 -1.4324
 1809TIP3   OH227061   0.101   4.911   0.382 -0.1841 -0.0801  0.3084
 1809TIP3    H127062   0.153   4.920   0.462 -0.5675 -1.9946  0.8134
 1809TIP3    H227063   0.082   5.001   0.356  0.2538  0.5904  2.1637
 1810TIP3   OH227064   1.192   1.021   0.866 -0.0644 -0.5578  0.3182
 1810TIP3    H127065   1.157   1.009   0.955 -1.6746  0.6368 -0.1092
 1810TIP3    H227066   1.272   1.072   0.878  0.6763 -1.8527  1.1863
 1811TIP3   OH227067   4.959   0.802   1.937 -0.8257 -0.4576  0.2568
 1811TIP3    H127068   4.887   0.821   1.877 -1.1323 -0.4384  0.6271
 1811TIP3    H227069   4.936   0.718   1.976 -1.0659 -0.0560  0.9966
 1812TIP3   OH227070   2.494   6.688   8.555  0.1582 -0.3647  0.9647
 1812TIP3    H127071   2.486   6.781   8.575 -1.1160 -0.1875 -0.2324
 1812TIP3    H227072   2.559   6.684   8.485  0.7024 -0.4621  1.4631
 1813TIP3   OH227073   4.886   0.857   1.458 -0.2186 -0.5994  0.6256
 1813TIP3    H127074   4.967   0.833   1.412  0.1739  1.1346  0.3296
 1813TIP3    H227075   4.877   0.791   1.527  0.8223 -1.4889 -0.0525
 1814TIP3   OH227076   2.509   1.492   8.335 -0.3180  0.2197  0.0247
 1814TIP3    H127077   2.449   1.428   8.296 -0.2194 -1.0080  1.7751
 1814TIP3    H227078   2.472   1.509   8.422  2.5538 -1.7370  1.8052
 1815TIP3   OH227079   4.785   3.356   0.056 -0.1613 -0.3506 -0.3826
 1815TIP3    H127080   4.871   3.368   0.016 -0.7898  1.0843 -1.3532
 1815TIP3    H227081   4.749   3.444   0.066 -0.9166 -0.8063  1.4225
 1816TIP3   OH227082   0.291   2.195   2.269 -0.6844  0.2120  0.1498
 1816TIP3    H127083   0.294   2.271   2.328 -2.0685  0.3132  0.1192
 1816TIP3    H227084   0.252   2.126   2.321  0.3508 -0.4397  0.0959
 1817TIP3   OH227085   5.214   0.181   1.796 -0.3479 -0.4748  0.2074
 1817TIP3    H127086   5.212   0.277   1.797 -2.5110 -0.3543 -2.7215
 1817TIP3    H227087   5.285   0.159   1.736 -0.8933 -0.6373 -0.3842
 1818TIP3   OH227088   5.865   0.104   0.599  0.0345  0.1145  0.3921
 1818TIP3    H127089   5.819   0.084   0.518 -0.6519 -0.2818  0.8654
 1818TIP3    H227090   5.937   0.041   0.603 -0.0378  0.0193  0.1801
 1819TIP3   OH227091   6.653   4.801   9.088 -0.0182  0.2336  0.6906
 1819TIP3    H127092   6.748   4.795   9.073 -0.2192  0.1675 -0.7232
 1819TIP3    H227093   6.615   4.750   9.017 -1.1877  2.0209 -0.0269
 1820TIP3   OH227094   3.984   4.732   2.103 -0.6172 -0.1555 -0.3995
 1820TIP3    H127095   3.993   4.651   2.052 -0.3169 -0.0523 -0.5114
 1820TIP3    H227096   3.977   4.702   2.194 -1.0752 -0.3354 -0.4954
 1821TIP3   OH227097   0.052   0.873   0.853  0.2125  0.5908 -0.0060
 1821TIP3    H127098   0.068   0.954   0.805 -0.6298 -0.1500 -1.5735
 1821TIP3    H227099   0.015   0.812   0.789 -1.6503 -0.2207  1.7202
 1822TIP3   OH227100   3.164   1.229   2.825  0.3609  0.1239 -0.2455
 1822TIP3    H127101   3.192   1.300   2.767 -1.2794  1.5259  0.5610
 1822TIP3    H227102   3.194   1.257   2.912 -0.4146 -0.0831  0.0975
 1823TIP3   OH227103   3.037   0.376   7.568  0.0004 -0.1892 -0.1865
 1823TIP3    H127104   3.097   0.355   7.640 -1.0786 -0.5120  0.6413
 1823TIP3    H227105   3.058   0.467   7.546  0.9248 -0.3586 -0.0530
 1824TIP3   OH227106   6.539   3.025   1.636 -0.1846  0.0676  0.1311
 1824TIP3    H127107   6.540   2.940   1.679  1.1150 -0.2385 -0.4435
 1824TIP3    H227108   6.475   3.016   1.566 -0.2856 -0.3330  0.2728
 1825TIP3   OH227109   2.926   5.264   1.680  0.3248 -0.0616 -0.2644
 1825TIP3    H127110   2.918   5.348   1.635  1.1511  0.2911  0.2172
 1825TIP3    H227111   2.985   5.282   1.753 -2.0101 -0.2427  1.8295
 1826TIP3   OH227112   1.360   1.187   8.328  0.2292 -0.6754  0.1751
 1826TIP3    H127113   1.267   1.203   8.313 -0.4680 -1.9732  2.5056
 1826TIP3    H227114   1.403   1.270   8.308 -1.6015  0.3508  0.3077
 1827TIP3   OH227115   1.100   3.901   2.972  0.4014 -1.0455 -0.2647
 1827TIP3    H127116   1.195   3.908   2.962  0.2655 -0.1958 -1.1990
 1827TIP3    H227117   1.067   3.899   2.882 -0.5146 -0.5080  0.0426
 1828TIP3   OH227118   4.604   5.717   0.078  0.0129  0.4967  0.0917
 1828TIP3    H127119   4.683   5.765   0.056  1.4063 -2.2727 -1.6041
 1828TIP3    H227120   4.571   5.686  -0.006 -2.4989  0.9311  0.8375
 1829TIP3   OH227121   6.329   3.405   9.021  0.4407 -0.4405 -0.6787
 1829TIP3    H127122   6.420   3.414   8.994  0.3891 -0.1700 -0.7728
 1829TIP3    H227123   6.312   3.483   9.073  0.3578 -0.6538 -0.3859
 1830TIP3   OH227124   6.433   4.343   3.610 -0.3483 -0.3014 -0.0786
 1830TIP3    H127125   6.442   4.256   3.572 -1.8361 -0.4137 -0.2475
 1830TIP3    H227126   6.387   4.394   3.543 -1.1243  0.0791  0.7172
 1831TIP3   OH227127   3.637   0.631   2.948  0.3817 -0.8436 -0.0106
 1831TIP3    H127128   3.608   0.638   3.039  0.3534  1.2312 -0.1302
 1831TIP3    H227129   3.721   0.586   2.953  0.9920  0.3567  1.2083
 1832TIP3   OH227130   5.072   3.606   1.778 -0.1410 -0.0278 -0.2984
 1832TIP3    H127131   4.988   3.598   1.823 -0.1075  1.0604 -0.0128
 1832TIP3    H227132   5.060   3.678   1.716  0.3096 -0.4614 -0.9049
 1833TIP3   OH227133   6.576   0.754   2.358  0.2814  0.6477 -0.5790
 1833TIP3    H127134   6.646   0.748   2.295  1.4741  2.1198  0.5242
 1833TIP3    H227135   6.556   0.847   2.363  0.1973  0.5764  1.1452
 1834TIP3   OH227136   3.765   5.480   1.990  0.3072  0.2161  0.0570
 1834TIP3    H127137   3.764   5.576   1.992  0.9473  0.2165  0.5968
 1834TIP3    H227138   3.790   5.455   2.078 -0.3985 -0.4697  0.0728
 1835TIP3   OH227139   5.013   0.632   0.180 -0.2088 -0.4968  0.3278
 1835TIP3    H127140   4.978   0.716   0.209 -1.5172 -1.5306  1.8761
 1835TIP3    H227141   5.099   0.654   0.143 -0.8726  1.6104 -0.0933
 1836TIP3   OH227142   3.664   0.851   3.588 -0.0415  0.8830 -0.1210
 1836TIP3    H127143   3.741   0.796   3.575 -0.3302  0.6389 -0.8987
 1836TIP3    H227144   3.620   0.850   3.502 -1.1982  0.5775  0.4561
 1837TIP3   OH227145   1.495   5.766   7.473 -0.1336 -0.2892  0.0656
 1837TIP3    H127146   1.565   5.814   7.517 -1.2538  0.9701  0.5226
 1837TIP3    H227147   1.455   5.714   7.542 -2.3557  2.2248  0.8465
 1838TIP3   OH227148   6.444   4.992   2.139 -0.0220 -0.0030 -0.5842
 1838TIP3    H127149   6.384   4.961   2.071 -1.2087  1.1587 -0.1038
 1838TIP3    H227150   6.388   5.036   2.202  1.2771  0.5199  0.2351
 1839TIP3   OH227151   5.278   0.724   0.291 -0.0256 -0.1253  0.1730
 1839TIP3    H127152   5.193   0.680   0.287 -0.1681  0.0843  0.8700
 1839TIP3    H227153   5.272   0.783   0.365  1.2404 -1.1984  1.1816
 1840TIP3   OH227154   1.157   2.214   7.817  0.2991  0.0216  0.2725
 1840TIP3    H127155   1.070   2.195   7.852  0.4091  1.2798  1.2908
 1840TIP3    H227156   1.169   2.308   7.830  1.3786  0.0643 -0.8604
 1841TIP3   OH227157   1.755   4.087   8.223  0.2122  0.0185  0.5825
 1841TIP3    H127158   1.796   4.173   8.231  1.1085 -0.4215  0.9259
 1841TIP3    H227159   1.819   4.035   8.173 -0.5246 -0.3157 -0.0289
 1842TIP3   OH227160   0.428   6.241   3.014  0.3336  0.1062  0.2016
 1842TIP3    H127161   0.467   6.171   3.066  0.5367 -0.2722 -0.4355
 1842TIP3    H227162   0.446   6.321   3.063  2.2748  0.0029 -0.2185
 1843TIP3   OH227163   2.859   5.052   2.140  0.3681  0.6300 -0.3797
 1843TIP3    H127164   2.929   5.001   2.181 -1.4356  0.7326  3.2283
 1843TIP3    H227165   2.798   4.987   2.106  1.0835  0.5265 -1.5134
 1844TIP3   OH227166   3.041   6.044   8.002 -0.1822  0.5640  0.0408
 1844TIP3    H127167   3.064   5.988   8.076 -0.8663 -0.3759 -0.4289
 1844TIP3    H227168   3.117   6.039   7.943 -1.0695 -1.7849 -1.0767
 1845TIP3   OH227169   2.994   4.925   8.276  0.1717  0.0548  0.5499
 1845TIP3    H127170   3.071   4.954   8.227  0.3813 -3.0556 -1.2630
 1845TIP3    H227171   2.920   4.952   8.222  0.4150 -3.8123 -2.1414
 1846TIP3   OH227172   2.361   3.739   1.463  0.2661 -0.2319 -0.0834
 1846TIP3    H127173   2.278   3.691   1.470 -0.5524  1.2129  0.6130
 1846TIP3    H227174   2.426   3.681   1.501 -0.2705 -1.7062 -1.3146
 1847TIP3   OH227175   4.040   4.775   7.983  0.0647  0.7094 -0.4097
 1847TIP3    H127176   3.988   4.739   7.911 -2.1902  2.2295  0.3531
 1847TIP3    H227177   4.041   4.869   7.967  1.8922  0.8154  0.1112
 1848TIP3   OH227178   5.902   5.461   2.692 -0.3423  0.0366  0.3431
 1848TIP3    H127179   5.832   5.397   2.709 -0.6009  0.0799 -0.4847
 1848TIP3    H227180   5.944   5.428   2.612 -0.4603  0.8825 -0.0726
 1849TIP3   OH227181   0.498   3.327   1.965  0.7627 -0.4401 -0.2402
 1849TIP3    H127182   0.513   3.235   1.986 -0.6241 -0.2910  1.6328
 1849TIP3    H227183   0.403   3.338   1.970  1.0444  1.7406  2.8757
 1850TIP3   OH227184   3.075   5.870   8.224 -0.1114 -0.0534  0.0720
 1850TIP3    H127185   3.123   5.834   8.299 -1.9182  1.5739  2.1489
 1850TIP3    H227186   3.050   5.958   8.252 -1.7176  0.2580 -2.0982
 1851TIP3   OH227187   0.612   3.056   1.987  0.1701  0.5683 -0.3102
 1851TIP3    H127188   0.683   3.062   1.923 -1.1032 -2.2488 -2.1544
 1851TIP3    H227189   0.631   2.976   2.036 -0.5894  0.9794  0.6809
 1852TIP3   OH227190   3.909   1.945   7.300 -0.5696 -0.5248 -0.3202
 1852TIP3    H127191   3.883   1.930   7.209  0.0489 -0.8201 -0.4505
 1852TIP3    H227192   3.970   2.019   7.296  0.5057 -1.3835 -0.3196
 1853TIP3   OH227193   1.098   5.344   2.324  0.2551  0.0175 -0.1776
 1853TIP3    H127194   1.160   5.272   2.316  1.2959  0.9617 -0.8328
 1853TIP3    H227195   1.050   5.344   2.241 -1.6409 -1.5442  0.8042
 1854TIP3   OH227196   6.309   1.763   7.474  0.7366 -0.2500  0.3512
 1854TIP3    H127197   6.215   1.774   7.458  0.8887 -1.3060 -1.5037
 1854TIP3    H227198   6.329   1.830   7.539 -0.9417  1.2373 -0.5610
 1855TIP3   OH227199   0.440   6.437   1.088  0.1203 -0.0700 -0.3268
 1855TIP3    H127200   0.477   6.348   1.087  0.0583 -0.0964 -0.9924
 1855TIP3    H227201   0.353   6.426   1.127  0.9016  0.0400  1.5094
 1856TIP3   OH227202   4.055   4.859   8.838  0.4869  0.4262 -0.3715
 1856TIP3    H127203   3.984   4.924   8.838  0.3861  0.3211 -0.6618
 1856TIP3    H227204   4.107   4.881   8.761  1.1326  0.8870  0.1964
 1857TIP3   OH227205   3.535   1.808   0.079 -0.2075 -0.3795  0.5775
 1857TIP3    H127206   3.570   1.746   0.015  0.4073  1.9670 -1.5271
 1857TIP3    H227207   3.440   1.798   0.073 -0.1118 -1.7434  0.9984
 1858TIP3   OH227208   6.003   6.222   2.043 -0.2054  0.1670 -0.3004
 1858TIP3    H127209   5.964   6.306   2.021 -0.4965  0.4433  1.1701
 1858TIP3    H227210   5.930   6.161   2.045 -0.2349  0.2139  0.1959
 1859TIP3   OH227211   2.411   1.032   2.224  0.3922  0.9019  0.0263
 1859TIP3    H127212   2.449   1.096   2.284  0.0518  0.0737  1.1549
 1859TIP3    H227213   2.339   0.993   2.274  0.3336 -0.0616 -0.7975
 1860TIP3   OH227214   3.072   5.805   0.064 -0.1179 -0.3225  0.3788
 1860TIP3    H127215   3.050   5.865   0.135 -0.8601 -1.3817  1.0803
 1860TIP3    H227216   3.163   5.781   0.080 -0.2400 -0.4562  0.9137
 1861TIP3   OH227217   6.092   3.765   0.248  0.2975  0.4266 -0.1453
 1861TIP3    H127218   5.999   3.755   0.228 -0.0580  2.7761  0.1420
 1861TIP3    H227219   6.116   3.849   0.209  1.2180  1.9707  3.4004
 1862TIP3   OH227220   2.777   4.967   8.131  0.0731 -0.0617 -0.2231
 1862TIP3    H127221   2.687   5.001   8.133  0.5287  1.2765 -1.0030
 1862TIP3    H227222   2.815   5.006   8.053  1.0712 -1.3487 -0.4064
 1863TIP3   OH227223   6.078   0.734   0.282  0.4456 -0.5309  0.2487
 1863TIP3    H127224   6.109   0.824   0.269 -1.0454  0.0416  0.4116
 1863TIP3    H227225   6.010   0.743   0.348 -2.1878 -1.2327 -2.1870
 1864TIP3   OH227226   2.403   3.989   0.684 -0.0175 -0.1351 -0.5425
 1864TIP3    H127227   2.375   3.993   0.776  1.5925 -1.2240  0.0394
 1864TIP3    H227228   2.382   3.900   0.656 -4.5619  1.2893 -2.7396
 1865TIP3   OH227229   0.652   1.162   8.708 -0.8463  0.2113  0.0510
 1865TIP3    H127230   0.620   1.125   8.626  0.4242 -2.7652  0.7679
 1865TIP3    H227231   0.623   1.101   8.775  0.5767  1.0175  1.4828
 1866TIP3   OH227232   6.374   6.442   8.883 -0.4419 -0.5368 -0.5015
 1866TIP3    H127233   6.333   6.392   8.813  0.2285 -1.3798 -0.3039
 1866TIP3    H227234   6.467   6.422   8.876 -0.4695 -1.4675  1.2622
 1867TIP3   OH227235   6.343   3.763   2.595 -0.0964 -0.2608  0.3553
 1867TIP3    H127236   6.408   3.763   2.666  0.1765 -0.0747  0.1065
 1867TIP3    H227237   6.297   3.680   2.605  0.4558 -0.5810  0.2849
 1868TIP3   OH227238   3.500   4.537   8.959 -0.4128  0.0022  0.4225
 1868TIP3    H127239   3.534   4.574   8.877 -0.4601 -2.2870 -0.7054
 1868TIP3    H227240   3.529   4.599   9.026  1.4901  0.8761 -1.0798
 1869TIP3   OH227241   1.213   0.985   2.414 -0.3122 -0.2511 -0.7490
 1869TIP3    H127242   1.297   0.944   2.394  1.7162  2.7072  0.8885
 1869TIP3    H227243   1.231   1.079   2.415 -3.5906  0.5206 -0.0080
 1870TIP3   OH227244   4.058   5.721   7.595 -0.6675 -0.2735  0.0548
 1870TIP3    H127245   4.107   5.739   7.515 -2.5259  2.2022 -0.6470
 1870TIP3    H227246   4.120   5.737   7.666  0.6501 -1.2813 -0.8322
 1871TIP3   OH227247   3.984   1.005   2.725  0.0439  0.1551 -0.8065
 1871TIP3    H127248   3.979   0.910   2.728  2.4571 -0.0649 -1.3872
 1871TIP3    H227249   4.075   1.023   2.701 -0.5680  2.6014 -1.5499
 1872TIP3   OH227250   3.497   5.457   2.147 -0.1240  0.0952  0.1307
 1872TIP3    H127251   3.537   5.521   2.206  0.0959  0.6907 -0.6474
 1872TIP3    H227252   3.564   5.440   2.081  0.7225 -2.6862  1.5305
 1873TIP3   OH227253   3.569   6.377   0.029 -0.3154  0.9926 -0.0142
 1873TIP3    H127254   3.499   6.440   0.008 -2.7130 -1.0042  1.4075
 1873TIP3    H227255   3.571   6.375   0.125 -1.0009 -1.6657  0.0332
 1874TIP3   OH227256   2.940   0.912   9.030 -0.2767  0.2949  0.1161
 1874TIP3    H127257   2.980   0.829   9.057  0.1862  0.7476  0.8565
 1874TIP3    H227258   3.003   0.978   9.056 -0.3640  0.8499 -1.0269
 1875TIP3   OH227259   0.313   1.017   2.732  1.0182  0.5789 -0.0379
 1875TIP3    H127260   0.406   1.017   2.709  2.0262 -0.6559  3.3545
 1875TIP3    H227261   0.307   1.073   2.809 -1.1005  0.7782 -0.2792
 1876TIP3   OH227262   1.009   4.662   0.030  0.5128  0.2892  0.2499
 1876TIP3    H127263   0.914   4.664   0.033  0.3993  3.3905 -1.0099
 1876TIP3    H227264   1.032   4.570   0.030 -2.4751 -0.5535  0.4720
 1877TIP3   OH227265   3.302   6.492   2.933  0.2801 -0.0878  0.6871
 1877TIP3    H127266   3.261   6.418   2.887 -0.7536  1.0282 -0.2512
 1877TIP3    H227267   3.242   6.565   2.918  0.4936  0.6152  2.8666
 1878TIP3   OH227268   0.959   2.371   3.463 -0.4744  0.2496  0.7296
 1878TIP3    H127269   0.965   2.466   3.461  0.6160  0.2047  1.3379
 1878TIP3    H227270   0.916   2.348   3.381 -0.7411  1.2588  0.5753
 1879TIP3   OH227271   1.699   3.262   3.249  0.5296 -0.0573  0.2089
 1879TIP3    H127272   1.646   3.311   3.311 -0.3531 -1.3337  0.5120
 1879TIP3    H227273   1.783   3.249   3.293 -0.0444 -0.8403  1.1046
 1880TIP3   OH227274   0.362   5.243   7.442 -0.0620 -0.5225 -0.0707
 1880TIP3    H127275   0.305   5.319   7.435  0.6089 -0.1306 -1.5648
 1880TIP3    H227276   0.304   5.168   7.427 -0.4130 -0.2040 -0.3205
 1881TIP3   OH227277   4.871   2.883   3.560 -0.4701  0.3654 -0.8136
 1881TIP3    H127278   4.797   2.938   3.584 -1.3947 -0.2109 -2.2325
 1881TIP3    H227279   4.850   2.796   3.595 -0.8366  0.0238 -1.8455
 1882TIP3   OH227280   5.109   3.198   2.420 -0.1652  0.1191  0.0739
 1882TIP3    H127281   5.163   3.264   2.464 -1.7640  1.4724  0.0866
 1882TIP3    H227282   5.171   3.146   2.369  1.1565  1.5015  0.2211
 1883TIP3   OH227283   0.242   4.830   2.590  0.7360  0.0727  0.0373
 1883TIP3    H127284   0.300   4.900   2.617  2.5778 -1.0443 -0.8734
 1883TIP3    H227285   0.202   4.861   2.509 -1.7108  1.7358  1.7290
 1884TIP3   OH227286   1.006   1.246   2.310  0.4827  0.2585  0.0081
 1884TIP3    H127287   0.976   1.320   2.363 -2.6111  0.6844 -2.0403
 1884TIP3    H227288   0.967   1.169   2.351 -1.3862  0.5235 -1.1286
 1885TIP3   OH227289   6.259   4.604   2.653 -0.4354 -0.2649 -0.1085
 1885TIP3    H127290   6.212   4.677   2.612 -0.3160 -0.5469 -0.7671
 1885TIP3    H227291   6.307   4.563   2.581  0.1842 -0.4740  0.4086
 1886TIP3   OH227292   6.258   0.570   1.524 -0.1864  0.2253  0.5496
 1886TIP3    H127293   6.212   0.565   1.440 -1.0976 -0.8429  1.0811
 1886TIP3    H227294   6.187   0.571   1.589  0.5235 -0.0147  1.3419
 1887TIP3   OH227295   2.691   3.869   9.031  0.1433 -0.1142  0.0181
 1887TIP3    H127296   2.771   3.858   8.981 -1.0097 -2.8737 -1.5061
 1887TIP3    H227297   2.682   3.786   9.079 -1.8869 -0.0171 -0.0979
 1888TIP3   OH227298   5.672   5.116   1.718 -0.1248  0.2889  0.4285
 1888TIP3    H127299   5.610   5.184   1.693  0.3439  0.7789  0.5946
 1888TIP3    H227300   5.743   5.162   1.761  0.3055 -0.2830  0.3468
 1889TIP3   OH227301   4.617   3.012   7.905  0.3626 -0.2068 -0.2144
 1889TIP3    H127302   4.539   3.039   7.953  0.3099 -1.9174  0.7616
 1889TIP3    H227303   4.599   2.921   7.882  3.6724 -2.2257  3.8295
 1890TIP3   OH227304   0.302   2.791   1.924 -0.1474  0.2571 -0.4279
 1890TIP3    H127305   0.395   2.766   1.930  0.5289  2.1206 -2.0383
 1890TIP3    H227306   0.264   2.762   2.007  1.7271 -1.1025  0.0224
 1891TIP3   OH227307   5.050   5.649   2.255  0.3180  0.1567 -0.3538
 1891TIP3    H127308   5.020   5.654   2.164 -0.1630  0.7826 -0.1687
 1891TIP3    H227309   5.116   5.718   2.262 -0.0521  0.4888 -0.0840
 1892TIP3   OH227310   1.336   2.746   1.959 -0.3659  0.0791 -0.0251
 1892TIP3    H127311   1.406   2.779   2.016  0.3122 -0.1217 -0.7252
 1892TIP3    H227312   1.315   2.660   1.995  0.5402 -0.3419 -0.4669
 1893TIP3   OH227313   2.672   2.427   8.326 -0.0308  0.4207 -0.3322
 1893TIP3    H127314   2.626   2.442   8.409  1.0693 -0.3934  0.4626
 1893TIP3    H227315   2.603   2.424   8.260 -1.1194 -0.7704  0.8185
 1894TIP3   OH227316   1.785   3.482   0.536 -0.4651 -0.3059 -0.1006
 1894TIP3    H127317   1.825   3.490   0.623 -0.5563 -1.7151  0.1012
 1894TIP3    H227318   1.734   3.401   0.541 -0.5262 -0.3704 -1.4551
 1895TIP3   OH227319   1.899   4.598   0.305 -0.5402 -0.1055 -0.8939
 1895TIP3    H127320   1.937   4.580   0.391 -4.8505 -2.1911  0.8346
 1895TIP3    H227321   1.926   4.523   0.251  0.2984  0.0463 -0.6998
 1896TIP3   OH227322   0.907   4.326   8.821  0.1432  0.5473  0.1745
 1896TIP3    H127323   0.838   4.265   8.846 -0.0634  1.0149  0.7880
 1896TIP3    H227324   0.983   4.298   8.873  0.3419  0.2108 -0.2856
 1897TIP3   OH227325   6.291   3.643   0.060 -0.4370 -0.2876 -0.2667
 1897TIP3    H127326   6.240   3.657   0.140 -0.1005  1.5358 -0.3365
 1897TIP3    H227327   6.382   3.648   0.088 -0.3068  1.6079 -0.9234
 1898TIP3   OH227328   6.206   6.143   0.794  0.0580  0.2478  0.2088
 1898TIP3    H127329   6.229   6.051   0.805 -1.1292  0.0649  1.3938
 1898TIP3    H227330   6.271   6.177   0.732  2.7402 -0.5079  2.4277
 1899TIP3   OH227331   2.892   5.331   2.159  0.5939  0.4530  0.3200
 1899TIP3    H127332   2.880   5.237   2.172  1.3674  0.4607  1.1606
 1899TIP3    H227333   2.943   5.337   2.078  1.7228  0.0673  0.9771
 1900TIP3   OH227334   4.942   5.714   8.003  0.2795 -0.3781 -0.0537
 1900TIP3    H127335   4.914   5.652   8.071 -0.1253 -0.6905 -0.4962
 1900TIP3    H227336   4.954   5.797   8.050 -0.3210 -0.5073  0.3437
 1901TIP3   OH227337   2.639   1.681   3.478  0.1448 -0.0505 -0.0635
 1901TIP3    H127338   2.598   1.618   3.419 -1.4106  1.6027 -0.8384
 1901TIP3    H227339   2.616   1.766   3.442  3.1873  1.0380  0.2335
 1902TIP3   OH227340   3.102   3.088   1.079 -0.2240  0.2556  0.5421
 1902TIP3    H127341   3.168   3.157   1.081  0.0013  0.2226 -2.3186
 1902TIP3    H227342   3.048   3.108   1.003 -0.3984 -2.4465 -0.1531
 1903TIP3   OH227343   5.078   2.507   0.219 -0.2720 -0.1533  0.7354
 1903TIP3    H127344   5.095   2.507   0.125 -0.5171  1.4873  0.6632
 1903TIP3    H227345   5.045   2.595   0.238  0.4556 -0.2010  2.4812
 1904TIP3   OH227346   2.200   4.968   0.761 -0.4015 -0.2331 -0.6821
 1904TIP3    H127347   2.240   4.888   0.728 -1.2735 -1.2656  0.6523
 1904TIP3    H227348   2.268   5.009   0.814 -0.3999 -0.8904 -0.1522
 1905TIP3   OH227349   6.651   5.812   8.981  0.0762 -0.1337 -0.1782
 1905TIP3    H127350   6.678   5.780   9.067  0.9498 -0.4319 -0.5554
 1905TIP3    H227351   6.568   5.857   8.998  0.5322  0.3318  0.9223
 1906TIP3   OH227352   3.855   0.723   7.801 -0.4292  0.0758  0.0455
 1906TIP3    H127353   3.915   0.775   7.747 -0.8161 -0.7105 -1.1857
 1906TIP3    H227354   3.786   0.695   7.740 -1.1230 -0.4756  1.0526
 1907TIP3   OH227355   3.429   1.341   1.169 -0.6003  0.4802  0.3936
 1907TIP3    H127356   3.515   1.301   1.162 -1.5985 -1.7157 -0.3208
 1907TIP3    H227357   3.408   1.371   1.081 -1.2120 -0.4913  0.1949
 1908TIP3   OH227358   3.309   3.270   1.054 -0.2128 -0.1795 -0.3200
 1908TIP3    H127359   3.357   3.341   1.011  0.6277  0.9077  2.2099
 1908TIP3    H227360   3.378   3.208   1.081 -0.8533 -1.5463 -1.6899
 1909TIP3   OH227361   5.098   3.479   3.774  0.0218  0.0591 -0.3931
 1909TIP3    H127362   5.139   3.541   3.713 -0.7719 -0.0004 -1.0029
 1909TIP3    H227363   5.169   3.420   3.799  0.3501  0.0337 -1.3295
 1910TIP3   OH227364   0.190   5.474   0.437 -0.0441 -0.3805 -0.1415
 1910TIP3    H127365   0.249   5.549   0.432 -1.0325  0.6004  1.7877
 1910TIP3    H227366   0.204   5.439   0.525  0.5897 -2.6724 -1.0830
 1911TIP3   OH227367   1.001   0.611   7.792 -0.0444  0.1076  0.2589
 1911TIP3    H127368   0.988   0.554   7.868 -0.9089  0.9978  0.8018
 1911TIP3    H227369   1.090   0.645   7.802 -0.4194  0.8307  1.3254
 1912TIP3   OH227370   3.621   3.194   0.728 -0.2542  0.2298  0.7150
 1912TIP3    H127371   3.585   3.260   0.669 -1.2088  0.8197  1.9277
 1912TIP3    H227372   3.708   3.227   0.750  0.5211 -0.4717 -1.0700
 1913TIP3   OH227373   0.339   0.124   7.821 -0.4979 -0.2307  0.5649
 1913TIP3    H127374   0.252   0.147   7.788  0.3135  1.7770 -0.3207
 1913TIP3    H227375   0.387   0.095   7.744  0.3515  1.1383  0.5410
 1914TIP3   OH227376   1.774   2.605   0.335 -0.5972  0.1562  0.1949
 1914TIP3    H127377   1.702   2.570   0.385  0.9381 -2.7671  0.5550
 1914TIP3    H227378   1.737   2.622   0.248 -1.6678 -1.5249  0.2892
 1915TIP3   OH227379   1.186   1.430   1.338 -0.3511 -0.9272  0.0052
 1915TIP3    H127380   1.170   1.405   1.247 -0.2770 -1.4317  0.1274
 1915TIP3    H227381   1.277   1.407   1.355  0.2625  1.0498 -0.3905
 1916TIP3   OH227382   6.199   4.131   2.379 -0.2764  0.1050 -0.8126
 1916TIP3    H127383   6.280   4.086   2.403 -1.3831 -0.5055  2.2751
 1916TIP3    H227384   6.224   4.191   2.309  2.7872 -0.2857 -0.1734
 1917TIP3   OH227385   4.814   1.813   7.963  0.1715  1.1957 -0.3550
 1917TIP3    H127386   4.899   1.786   7.928  0.2227  0.1218  0.5135
 1917TIP3    H227387   4.754   1.806   7.889  0.0818 -1.9304 -0.1320
 1918TIP3   OH227388   5.685   3.855   0.027 -0.2698 -0.2914 -0.3958
 1918TIP3    H127389   5.766   3.803   0.023  1.2195  1.9687 -1.0857
 1918TIP3    H227390   5.656   3.845   0.118  2.9745  1.8850  1.0480
 1919TIP3   OH227391   1.079   6.619   8.902  0.1416 -0.3131  0.4941
 1919TIP3    H127392   1.113   6.654   8.985  0.4659 -1.2493  0.7683
 1919TIP3    H227393   0.984   6.623   8.912  0.1738 -0.8862  1.1302
 1920TIP3   OH227394   3.930   1.092   0.773 -0.3319 -0.1898 -0.6457
 1920TIP3    H127395   3.929   1.063   0.682 -0.0622  0.0331 -0.7212
 1920TIP3    H227396   3.837   1.098   0.797 -0.4046 -0.2167 -0.9157
 1921TIP3   OH227397   4.023   4.704   1.243 -0.1791  0.2821 -0.5212
 1921TIP3    H127398   4.106   4.731   1.204 -1.3848  2.2905 -1.8582
 1921TIP3    H227399   3.993   4.630   1.190  0.2710  0.2003 -0.6606
 1922TIP3   OH227400   4.176   6.185   2.274  0.4100 -0.7611 -0.0439
 1922TIP3    H127401   4.205   6.274   2.294  0.2152 -1.0458  1.7176
 1922TIP3    H227402   4.245   6.149   2.219  0.8975  0.2120 -0.1019
 1923TIP3   OH227403   3.373   0.691   0.763 -0.2445  0.2893  0.3877
 1923TIP3    H127404   3.397   0.663   0.675 -3.1950  1.3206 -0.8987
 1923TIP3    H227405   3.388   0.786   0.763 -0.1142  0.2747  1.0448
 1924TIP3   OH227406   0.360   4.242   8.915  0.3189  0.5051  0.4782
 1924TIP3    H127407   0.413   4.238   8.835 -0.2906 -0.0227  0.0900
 1924TIP3    H227408   0.418   4.210   8.984  0.9683  1.3105  0.3174
 1925TIP3   OH227409   4.200   2.247   8.331 -0.1802  0.6089 -0.1099
 1925TIP3    H127410   4.142   2.195   8.387  1.2483  0.5437  1.3727
 1925TIP3    H227411   4.288   2.215   8.351  0.5965  2.3913 -0.4691
 1926TIP3   OH227412   3.845   1.583   2.966  1.0722 -0.0597 -0.2954
 1926TIP3    H127413   3.792   1.562   3.044 -0.5753 -0.7038 -1.5326
 1926TIP3    H227414   3.845   1.502   2.915  0.0748  1.0080 -2.0919
 1927TIP3   OH227415   0.953   3.402   2.350  0.4196 -0.3547 -0.4290
 1927TIP3    H127416   1.005   3.399   2.430 -0.1137 -0.4200 -0.0832
 1927TIP3    H227417   0.914   3.315   2.343 -0.0240 -0.1574 -0.4297
 1928TIP3   OH227418   5.765   5.575   3.506  0.2942  0.6689 -0.0952
 1928TIP3    H127419   5.803   5.503   3.456 -2.3174 -0.4901 -0.5461
 1928TIP3    H227420   5.734   5.637   3.440  1.8858  1.9373  0.2800
 1929TIP3   OH227421   6.605   0.202   2.294 -0.2696 -0.1766  0.5183
 1929TIP3    H127422   6.685   0.194   2.242  0.0926  1.6588  0.7318
 1929TIP3    H227423   6.540   0.238   2.234 -0.7473 -0.9317  0.5579
 1930TIP3   OH227424   0.331   5.855   1.885  0.1440 -0.2135  0.3624
 1930TIP3    H127425   0.339   5.876   1.977  0.6539  0.2510  0.2156
 1930TIP3    H227426   0.266   5.916   1.851  0.4391  0.0553  0.2775
 1931TIP3   OH227427   1.186   1.166   1.581  0.6741 -0.2711 -0.1398
 1931TIP3    H127428   1.107   1.206   1.545  1.7897  0.1630 -2.2185
 1931TIP3    H227429   1.243   1.152   1.506  3.2904  0.9859  1.4539
 1932TIP3   OH227430   1.756   2.552   2.410  0.1508  0.3193 -0.3830
 1932TIP3    H127431   1.792   2.634   2.444  0.0315  0.5941 -0.9123
 1932TIP3    H227432   1.812   2.530   2.336  1.2479 -0.9900  0.7680
 1933TIP3   OH227433   0.124   0.513   2.001  0.0592  0.5690  0.3528
 1933TIP3    H127434   0.078   0.436   1.968  1.3275  0.1089 -0.4340
 1933TIP3    H227435   0.211   0.508   1.960 -0.1005  2.8783 -0.3848
 1934TIP3   OH227436   2.807   2.437   1.778 -0.3736  0.2203 -0.2072
 1934TIP3    H127437   2.762   2.520   1.761  1.5426  1.4638  0.4298
 1934TIP3    H227438   2.851   2.416   1.696  0.6777  0.8844  0.1589
 1935TIP3   OH227439   6.004   2.862   3.229  0.3582  0.6723  0.2383
 1935TIP3    H127440   6.098   2.861   3.214  0.8625  1.1154  2.8685
 1935TIP3    H227441   5.977   2.953   3.212  0.5551  0.7192  0.1817
 1936TIP3   OH227442   4.264   2.815   1.623  0.1253  0.3907 -0.1918
 1936TIP3    H127443   4.296   2.902   1.647 -0.9050  0.8969 -0.5495
 1936TIP3    H227444   4.280   2.809   1.529 -0.5582  0.5589 -0.3319
 1937TIP3   OH227445   2.756   3.197   2.086  0.0866  0.0722  0.3561
 1937TIP3    H127446   2.824   3.207   2.151 -0.6415  2.5479  0.8400
 1937TIP3    H227447   2.678   3.172   2.136  0.4932 -2.4506 -0.1563
 1938TIP3   OH227448   2.486   4.208   0.960  1.0211  0.2122 -0.2108
 1938TIP3    H127449   2.449   4.195   1.048  0.8911  0.3396 -0.2451
 1938TIP3    H227450   2.543   4.133   0.946 -0.0865 -0.5751 -0.6137
 1939TIP3   OH227451   5.284   0.761   1.822 -0.3370 -0.0330 -0.7448
 1939TIP3    H127452   5.198   0.801   1.836 -0.2175  0.1192 -0.4220
 1939TIP3    H227453   5.324   0.813   1.752 -0.2434  0.3173 -0.4330
 1940TIP3   OH227454   1.941   0.738   8.735 -0.2413  0.7154 -0.8851
 1940TIP3    H127455   1.906   0.664   8.687  0.4131  0.8638 -1.6020
 1940TIP3    H227456   1.929   0.714   8.827 -1.8701  0.6052 -1.0823
 1941TIP3   OH227457   4.847   2.837   2.392  0.1257  0.1436  0.1098
 1941TIP3    H127458   4.837   2.803   2.303  0.1286  2.4295 -0.8198
 1941TIP3    H227459   4.812   2.926   2.388 -0.1880  0.1889  2.4930
 1942TIP3   OH227460   6.644   2.657   1.702  0.3124  0.6248  0.2767
 1942TIP3    H127461   6.561   2.679   1.744  1.0086  3.3560  0.4469
 1942TIP3    H227462   6.620   2.637   1.611 -0.5330  1.8012  0.2064
 1943TIP3   OH227463   6.547   0.609   2.923  0.1312 -0.2848 -0.3480
 1943TIP3    H127464   6.500   0.543   2.974  0.8831  0.6502  1.6682
 1943TIP3    H227465   6.639   0.597   2.947  0.2431  1.7594  0.4770
 1944TIP3   OH227466   2.864   0.588   3.086  0.3580 -0.1758  0.3949
 1944TIP3    H127467   2.794   0.522   3.081 -0.5505  0.7586  0.4954
 1944TIP3    H227468   2.818   0.671   3.089  1.4740  0.4257  1.2172
 1945TIP3   OH227469   3.049   4.172   3.649  0.3430 -0.4301 -0.8256
 1945TIP3    H127470   3.088   4.240   3.593  1.4541 -1.2280 -1.0484
 1945TIP3    H227471   3.102   4.174   3.729 -0.1245 -0.5050 -0.5084
 1946TIP3   OH227472   6.201   0.963   0.206  0.1079  0.5462  0.2583
 1946TIP3    H127473   6.256   0.961   0.128 -1.2963  0.2971 -0.7731
 1946TIP3    H227474   6.139   1.034   0.191 -0.0764  0.6079  1.2261
 1947TIP3   OH227475   2.007   0.836   7.922 -0.1559 -0.7132  0.5735
 1947TIP3    H127476   1.947   0.778   7.876 -0.5282 -1.0523  1.4706
 1947TIP3    H227477   1.951   0.903   7.961  0.3172  0.7110 -1.0362
 1948TIP3   OH227478   3.686   2.963   7.901  0.1498 -0.2441 -0.2185
 1948TIP3    H127479   3.730   2.884   7.870  0.9618  0.8207 -1.9437
 1948TIP3    H227480   3.627   2.987   7.830 -0.6359  0.2959  0.5967
 1949TIP3   OH227481   3.213   3.272   8.741  0.1320 -0.1433 -0.0536
 1949TIP3    H127482   3.235   3.231   8.657 -0.3172  0.0399 -0.2639
 1949TIP3    H227483   3.222   3.366   8.725  1.4134 -0.1469  0.4991
 1950TIP3   OH227484   2.662   6.078   7.273  0.1917 -0.2346  1.1054
 1950TIP3    H127485   2.707   6.018   7.333  1.1311 -0.7568 -0.0971
 1950TIP3    H227486   2.729   6.104   7.210 -1.1378 -0.9562 -0.6772
 1951TIP3   OH227487   4.931   3.218   7.289  0.2719  0.5273  0.3626
 1951TIP3    H127488   4.884   3.251   7.212  0.5384  1.3341  0.5441
 1951TIP3    H227489   4.882   3.251   7.364  1.0910  1.3342  0.5532
 1952TIP3   OH227490   3.419   0.678   3.140 -0.5068  0.0422 -0.0803
 1952TIP3    H127491   3.442   0.611   3.075  0.9213 -0.3948  0.8186
 1952TIP3    H227492   3.373   0.629   3.208  1.3571 -0.2466  1.0225
 1953TIP3   OH227493   4.208   3.216   1.094 -0.1850 -0.0571 -0.3283
 1953TIP3    H127494   4.290   3.229   1.142 -0.3646 -1.0966  0.2866
 1953TIP3    H227495   4.139   3.232   1.158 -0.4447 -0.2011 -0.5674
 1954TIP3   OH227496   5.614   2.694   3.140 -0.0481  0.2960  0.0858
 1954TIP3    H127497   5.630   2.735   3.225 -1.3596 -1.2057  1.1184
 1954TIP3    H227498   5.536   2.641   3.153 -0.0064 -0.3573 -1.9441
 1955TIP3   OH227499   3.423   1.802   2.476  0.1762  0.4506  0.7083
 1955TIP3    H127500   3.345   1.778   2.526  0.9670 -1.7420  0.9954
 1955TIP3    H227501   3.486   1.733   2.494 -0.0135 -1.6452 -4.6263
 1956TIP3   OH227502   6.711   1.125   1.681  0.5286  0.1345  0.0243
 1956TIP3    H127503   6.756   1.205   1.707  1.2773 -0.4030  0.4306
 1956TIP3    H227504   6.674   1.091   1.763  0.3592 -0.0260 -0.1170
 1957TIP3   OH227505   1.135   2.264   1.835 -0.1857  0.7703  0.2924
 1957TIP3    H127506   1.120   2.322   1.911  3.3335  0.9040  1.0448
 1957TIP3    H227507   1.144   2.177   1.873  1.4531  0.8173  0.0889
 1958TIP3   OH227508   2.438   1.837   8.495 -0.1466 -0.5264  0.2331
 1958TIP3    H127509   2.483   1.921   8.496 -0.3179 -0.3545 -2.0200
 1958TIP3    H227510   2.351   1.856   8.528 -0.6565  0.5172 -1.6184
 1959TIP3   OH227511   1.458   5.714   2.927 -0.1101 -0.0000  0.0232
 1959TIP3    H127512   1.531   5.777   2.931  0.2787 -0.2554 -1.9909
 1959TIP3    H227513   1.465   5.664   3.008  0.2395  1.8037  1.1755
 1960TIP3   OH227514   3.571   2.442   7.698  0.0765 -0.5774 -0.2497
 1960TIP3    H127515   3.495   2.420   7.644 -0.4660  0.5911  0.0014
 1960TIP3    H227516   3.537   2.439   7.788  0.7927 -1.8113  0.0112
 1961TIP3   OH227517   4.012   4.329   1.673 -0.5219 -0.6499 -0.3292
 1961TIP3    H127518   3.975   4.376   1.598  1.0907  2.9836  0.9235
 1961TIP3    H227519   4.103   4.312   1.650  0.2708  1.3539  0.9966
 1962TIP3   OH227520   0.256   3.382   2.018  0.5516 -0.2487 -0.5765
 1962TIP3    H127521   0.219   3.421   1.938 -1.8493  0.1416  0.6189
 1962TIP3    H227522   0.199   3.308   2.037  0.6196  0.1063  1.1600
 1963TIP3   OH227523   1.632   4.418   7.444 -0.2886  0.0973 -0.0578
 1963TIP3    H127524   1.626   4.335   7.491 -0.2124 -1.0696 -2.0177
 1963TIP3    H227525   1.586   4.403   7.362  2.2673  1.0134 -1.7829
 1964TIP3   OH227526   0.383   5.565   8.719 -0.5558  0.0239 -0.3703
 1964TIP3    H127527   0.297   5.604   8.738 -0.5492  0.0340 -0.3606
 1964TIP3    H227528   0.382   5.548   8.625 -1.0577 -1.1613 -0.1585
 1965TIP3   OH227529   3.510   6.041   2.932  0.1584 -0.3447  0.3495
 1965TIP3    H127530   3.594   6.000   2.952 -0.5862 -2.0142  0.2395
 1965TIP3    H227531   3.500   6.030   2.838  0.1195  0.4735  0.2537
 1966TIP3   OH227532   3.963   3.620   8.234  0.0275 -0.0013  0.2488
 1966TIP3    H127533   3.933   3.660   8.152 -0.0423 -3.1099 -1.4151
 1966TIP3    H227534   4.058   3.615   8.225  0.2291  1.3102  1.2753
 1967TIP3   OH227535   6.441   2.832   8.328 -0.0091  0.4005 -0.1294
 1967TIP3    H127536   6.430   2.912   8.276  0.7343 -0.0152 -0.9530
 1967TIP3    H227537   6.517   2.850   8.383  0.2727  0.1984 -0.4492
 1968TIP3   OH227538   2.007   3.696   1.024 -0.1607  0.1620 -0.2452
 1968TIP3    H127539   2.028   3.754   1.098  1.4614  1.3505 -1.5388
 1968TIP3    H227540   1.921   3.725   0.994 -0.2554  0.5457  0.3895
 1969TIP3   OH227541   3.694   4.643   1.773  0.2929 -0.0943  0.1016
 1969TIP3    H127542   3.659   4.711   1.829  0.1023 -0.5907  0.5972
 1969TIP3    H227543   3.680   4.675   1.684 -1.4266 -0.2736  0.2758
 1970TIP3   OH227544   2.415   2.423   8.211 -0.8473  0.2213 -0.4593
 1970TIP3    H127545   2.397   2.459   8.124 -0.7186 -1.2496 -1.1144
 1970TIP3    H227546   2.329   2.401   8.246 -0.9887  1.7328  0.2315
 1971TIP3   OH227547   5.905   0.437   2.850 -0.1940  0.0779 -0.2439
 1971TIP3    H127548   5.943   0.404   2.931  0.3004 -0.9383 -0.8685
 1971TIP3    H227549   5.977   0.483   2.806  0.1349 -1.1870 -1.0703
 1972TIP3   OH227550   2.357   4.924   8.045 -0.1867  0.2588  0.4428
 1972TIP3    H127551   2.440   4.896   8.005  0.3555 -0.9169  2.2428
 1972TIP3    H227552   2.347   4.867   8.121 -1.8480  1.4683  1.1942
 1973TIP3   OH227553   3.213   2.655   8.310 -0.1357 -0.5231 -0.2129
 1973TIP3    H127554   3.245   2.628   8.396 -1.0405  0.6447  0.5200
 1973TIP3    H227555   3.158   2.731   8.327 -0.2970 -0.2269 -1.8398
 1974TIP3   OH227556   0.337   3.441   8.158  0.0350  0.2543 -0.5451
 1974TIP3    H127557   0.426   3.411   8.142  0.3218  1.5794 -1.6477
 1974TIP3    H227558   0.342   3.493   8.238  0.2254  0.2364 -0.5472
 1975TIP3   OH227559   4.119   4.396   0.961 -0.5228 -0.4825  0.3078
 1975TIP3    H127560   4.141   4.304   0.951 -2.3926 -1.0118  0.7520
 1975TIP3    H227561   4.151   4.437   0.880  0.6433 -1.4171  0.2597
 1976TIP3   OH227562   4.792   4.739   8.509  0.2810 -0.6074  0.1175
 1976TIP3    H127563   4.805   4.703   8.597  0.6348  0.5814  0.5633
 1976TIP3    H227564   4.871   4.714   8.461  1.4327  1.1733  0.9899
 1977TIP3   OH227565   6.287   1.889   8.520 -0.0667 -0.3226  0.0863
 1977TIP3    H127566   6.281   1.905   8.614  0.7544  0.4244  0.0335
 1977TIP3    H227567   6.236   1.809   8.506 -1.4183  0.3546  0.9277
 1978TIP3   OH227568   2.618   0.365   1.230 -0.0948  0.3165 -0.0840
 1978TIP3    H127569   2.648   0.448   1.192 -0.7070 -0.3147 -2.0759
 1978TIP3    H227570   2.599   0.310   1.154 -1.0707 -1.1667  1.1812
 1979TIP3   OH227571   0.963   5.097   1.840  0.6767 -0.1125  0.7211
 1979TIP3    H127572   0.897   5.111   1.908 -0.0498  0.0040  0.0009
 1979TIP3    H227573   0.916   5.107   1.758  1.4936 -0.5162  0.1907
 1980TIP3   OH227574   4.071   5.101   9.039  0.1885  0.7016 -0.6665
 1980TIP3    H127575   4.017   5.034   8.996 -0.6483  0.7388  0.2792
 1980TIP3    H227576   4.021   5.182   9.029 -0.1758  0.6553  0.6026
 1981TIP3   OH227577   2.813   0.307   1.481 -0.3084 -0.5983  0.1351
 1981TIP3    H127578   2.778   0.271   1.562  0.2027  1.3755  1.2935
 1981TIP3    H227579   2.737   0.310   1.422 -1.1880 -0.1971  1.2393
 1982TIP3   OH227580   0.230   2.048   8.150  0.1293  0.5038  0.4015
 1982TIP3    H127581   0.164   2.110   8.119  0.9677  1.9833  1.4565
 1982TIP3    H227582   0.190   2.008   8.227  0.2969  1.1330  0.8269
 1983TIP3   OH227583   5.484   0.645   8.624  0.2280  0.6361  0.0150
 1983TIP3    H127584   5.525   0.584   8.685  1.0892 -0.7794 -1.8645
 1983TIP3    H227585   5.418   0.593   8.579  2.1093  0.4444 -2.8366
 1984TIP3   OH227586   3.327   1.314   8.576  0.2649  0.2519 -0.2513
 1984TIP3    H127587   3.290   1.272   8.499 -0.0200  1.6717 -0.9181
 1984TIP3    H227588   3.286   1.401   8.578  0.6420  0.4164  1.2153
 1985TIP3   OH227589   0.980   1.087   8.462 -0.3358  0.1436  0.0573
 1985TIP3    H127590   0.903   1.143   8.450 -0.7359 -0.3897  0.0411
 1985TIP3    H227591   0.966   1.015   8.401  0.1566  0.0158  0.0918
 1986TIP3   OH227592   5.393   2.505   8.842  0.8006 -0.0104  0.1049
 1986TIP3    H127593   5.435   2.545   8.918 -1.1313  0.7173  0.8709
 1986TIP3    H227594   5.321   2.453   8.879  1.5477 -1.9673 -1.0712
 1987TIP3   OH227595   2.933   4.833   0.655  0.8006  0.4362 -0.4154
 1987TIP3    H127596   2.979   4.806   0.575 -1.7668  1.7975 -2.5454
 1987TIP3    H227597   2.846   4.794   0.646 -0.0952  2.0198  0.8279
 1988TIP3   OH227598   1.542   5.451   7.743 -0.9326  0.0205 -0.0843
 1988TIP3    H127599   1.506   5.424   7.828  0.3248  0.4910  0.6282
 1988TIP3    H227600   1.502   5.536   7.727  0.4034  0.9121  1.0886
 1989TIP3   OH227601   1.816   3.237   3.858 -0.4565 -0.0538  0.5986
 1989TIP3    H127602   1.842   3.245   3.950 -1.9573  1.6789  0.9236
 1989TIP3    H227603   1.889   3.275   3.810  0.4378 -1.1669  1.0193
 1990TIP3   OH227604   5.602   2.390   1.063  0.0477 -0.4710 -0.6746
 1990TIP3    H127605   5.568   2.476   1.038 -2.1182 -1.1652 -0.3166
 1990TIP3    H227606   5.571   2.331   0.994  0.7261 -1.1311 -0.4290
 1991TIP3   OH227607   2.677   3.395   0.559 -0.1217 -0.3752  0.0868
 1991TIP3    H127608   2.667   3.484   0.526 -0.5950 -0.6644 -0.5740
 1991TIP3    H227609   2.632   3.395   0.643 -0.1067  0.0076  0.0960
 1992TIP3   OH227610   1.902   0.103   0.757  0.4975  0.4511 -0.2559
 1992TIP3    H127611   1.914   0.156   0.836  0.7300  0.4446 -0.2844
 1992TIP3    H227612   1.830   0.145   0.710 -2.1447 -1.5790  1.6665
 1993TIP3   OH227613   1.817   3.215   1.843  0.1951 -0.6890 -0.2044
 1993TIP3    H127614   1.780   3.168   1.918  0.5961 -4.1900 -2.0252
 1993TIP3    H227615   1.791   3.163   1.767  2.3717  1.0098 -2.2467
 1994TIP3   OH227616   2.137   6.077   8.034  0.4213 -0.7745 -0.2190
 1994TIP3    H127617   2.184   6.155   8.063 -0.0069 -0.7892  0.5441
 1994TIP3    H227618   2.206   6.014   8.013  0.7501 -1.0105  1.4819
 1995TIP3   OH227619   6.593   0.550   1.305  0.1521 -0.3398 -0.0896
 1995TIP3    H127620   6.651   0.524   1.377 -0.3957  0.7020  0.7672
 1995TIP3    H227621   6.624   0.638   1.281 -0.3661 -0.2327 -0.3728
 1996TIP3   OH227622   6.681   6.536   2.854 -0.5391 -0.1889  0.0330
 1996TIP3    H127623   6.653   6.462   2.801 -2.0495 -0.6647  1.4230
 1996TIP3    H227624   6.732   6.498   2.925 -0.0496  0.2486 -0.0821
 1997TIP3   OH227625   6.088   6.200   2.744 -0.1990  0.0289 -0.3490
 1997TIP3    H127626   6.171   6.155   2.759  0.4742  1.2105 -0.4941
 1997TIP3    H227627   6.111   6.279   2.697 -1.4163  0.3669 -0.4121
 1998TIP3   OH227628   0.093   5.840   0.397  0.3827 -0.3271 -0.3917
 1998TIP3    H127629   0.103   5.794   0.314  2.7731 -0.2566 -0.2015
 1998TIP3    H227630   0.051   5.776   0.455  0.2960 -0.9889 -1.1649
 1999TIP3   OH227631   6.409   1.674   0.697  0.4658  0.0459  0.6382
 1999TIP3    H127632   6.437   1.583   0.711  0.1592 -0.1213  0.1773
 1999TIP3    H227633   6.322   1.678   0.736  0.0502 -0.1394 -0.2345
 2000TIP3   OH227634   5.758   2.627   8.801 -0.3097  0.0084  0.2206
 2000TIP3    H127635   5.704   2.549   8.791 -0.2407  0.0921 -1.0346
 2000TIP3    H227636   5.771   2.636   8.895 -1.1033 -0.9508  0.4369
 2001TIP3   OH227637   1.144   1.736   1.993  0.2945 -0.1919 -0.3982
 2001TIP3    H127638   1.051   1.727   1.972  0.4056  1.3386 -1.6926
 2001TIP3    H227639   1.156   1.680   2.070 -2.1704  1.2632  1.1753
 2002TIP3   OH227640   6.457   1.411   0.742 -0.9163 -0.1300 -0.7363
 2002TIP3    H127641   6.370   1.372   0.747 -0.5606 -0.7612  1.0905
 2002TIP3    H227642   6.515   1.345   0.781 -0.1071  1.6459  1.2196
 2003TIP3   OH227643   1.125   3.656   2.294  0.2729  0.0911 -0.6096
 2003TIP3    H127644   1.031   3.639   2.292  0.3091 -0.3828  0.9075
 2003TIP3    H227645   1.136   3.728   2.356  0.7835  1.2336 -1.9771
 2004TIP3   OH227646   2.919   4.658   3.092  0.4046 -0.4505  0.5999
 2004TIP3    H127647   2.880   4.662   3.179  0.7490  0.1852  0.7345
 2004TIP3    H227648   2.881   4.732   3.045  0.7084 -0.4014  0.4234
 2005TIP3   OH227649   5.467   1.674   0.844  0.5935  0.0659  0.4353
 2005TIP3    H127650   5.530   1.604   0.828 -0.3436 -0.3642 -1.8266
 2005TIP3    H227651   5.519   1.746   0.881  1.9421 -1.0910  0.8568
 2006TIP3   OH227652   3.338   6.138   3.289 -0.5562  0.0605  0.3640
 2006TIP3    H127653   3.365   6.210   3.345 -0.0585  0.0978  0.0835
 2006TIP3    H227654   3.405   6.071   3.302 -0.7014 -0.1205  0.1833
 2007TIP3   OH227655   5.395   3.905   1.752 -0.7242 -0.1227  0.1599
 2007TIP3    H127656   5.452   3.885   1.677 -1.6034  1.3854 -0.9581
 2007TIP3    H227657   5.306   3.893   1.719 -1.1390  1.0200  0.7968
 2008TIP3   OH227658   1.522   6.298   8.822  0.1134 -0.4061  0.6218
 2008TIP3    H127659   1.536   6.208   8.791  0.7331  0.0175 -0.3611
 2008TIP3    H227660   1.429   6.300   8.845  0.2491 -1.4997  1.3500
 2009TIP3   OH227661   6.216   4.674   1.670  0.3957  0.1767  0.5175
 2009TIP3    H127662   6.124   4.693   1.690 -0.3757  1.1804 -3.3059
 2009TIP3    H227663   6.241   4.609   1.736 -2.3395  1.3805  3.0204
 2010TIP3   OH227664   3.579   0.958   2.510  0.1423 -0.7371 -0.3626
 2010TIP3    H127665   3.499   0.998   2.544  0.3518  0.7301 -1.4921
 2010TIP3    H227666   3.565   0.864   2.520 -1.7982 -0.5229 -0.6868
 2011TIP3   OH227667   6.077   3.995   0.552 -0.4784  0.6490  0.2613
 2011TIP3    H127668   6.059   4.034   0.466  4.2862  1.5640 -0.6363
 2011TIP3    H227669   6.061   4.066   0.614 -1.6202  0.7439 -0.1201
 2012TIP3   OH227670   0.627   0.619   0.430 -0.3265  0.7424 -0.1123
 2012TIP3    H127671   0.616   0.698   0.378 -0.0384  0.3538 -0.7624
 2012TIP3    H227672   0.647   0.651   0.518 -0.0675  1.3874 -0.4036
 2013TIP3   OH227673   3.345   6.590   1.147  0.6527  0.1133 -0.0924
 2013TIP3    H127674   3.358   6.586   1.052 -2.4833 -0.6664 -0.6093
 2013TIP3    H227675   3.299   6.509   1.169  0.3352  0.7687  1.9048
 2014TIP3   OH227676   2.991   3.137   3.008  0.0944  0.0705  0.1924
 2014TIP3    H127677   2.960   3.135   3.099 -0.9053  1.0575 -0.1059
 2014TIP3    H227678   2.912   3.154   2.956  0.8350  0.6612 -0.7713
 2015TIP3   OH227679   1.322   0.956   8.472  0.0709  0.0111  0.0275
 2015TIP3    H127680   1.241   0.971   8.521  0.4966  0.2195  0.6634
 2015TIP3    H227681   1.333   1.036   8.419 -0.0909  0.0159  0.0003
 2016TIP3   OH227682   6.360   5.951   1.120 -0.1035 -0.1082  0.0226
 2016TIP3    H127683   6.269   5.980   1.107 -1.6061 -4.2761 -0.1707
 2016TIP3    H227684   6.412   6.011   1.066 -3.0797  0.5696 -2.3822
 2017TIP3   OH227685   3.904   2.093   1.044  0.2937 -0.1572 -0.0077
 2017TIP3    H127686   3.863   2.175   1.018  1.1838  0.3266  0.0773
 2017TIP3    H227687   3.997   2.113   1.048  0.3486 -0.6463  1.9474
 2018TIP3   OH227688   6.239   4.008   3.559  0.5948 -0.5955 -0.0538
 2018TIP3    H127689   6.193   4.091   3.548 -0.7530 -1.4382 -1.2309
 2018TIP3    H227690   6.331   4.031   3.554  0.2831  0.9569  0.7471
 2019TIP3   OH227691   6.334   6.546   1.470 -0.1403  0.1203  0.0477
 2019TIP3    H127692   6.291   6.466   1.441  0.2648 -0.9559  2.2388
 2019TIP3    H227693   6.263   6.610   1.477 -0.7182 -0.4769 -0.2595
 2020TIP3   OH227694   6.050   5.261   0.646  0.0048 -0.2317  0.2515
 2020TIP3    H127695   6.066   5.255   0.552 -0.4511 -0.8485  0.2131
 2020TIP3    H227696   6.081   5.349   0.670 -0.1565  0.0406 -0.5242
 2021TIP3   OH227697   1.863   0.574   1.499 -0.1503  0.3352  0.6679
 2021TIP3    H127698   1.890   0.582   1.591  3.1093 -1.1472 -0.0442
 2021TIP3    H227699   1.939   0.602   1.449 -0.8952 -1.4185 -1.5819
 2022TIP3   OH227700   4.031   4.135   8.173 -0.0616 -0.3193  0.2576
 2022TIP3    H127701   3.985   4.056   8.147  0.4205  0.1061 -2.1592
 2022TIP3    H227702   4.123   4.117   8.154  0.0932  0.6672  0.0045
 2023TIP3   OH227703   3.048   4.429   8.592 -0.2103  0.5597  0.0359
 2023TIP3    H127704   3.012   4.516   8.575  0.3523  0.9843  0.9168
 2023TIP3    H227705   3.013   4.405   8.677 -0.2828 -0.0426 -0.1609
 2024TIP3   OH227706   4.320   5.295   2.009  0.8056  0.4497  0.4512
 2024TIP3    H127707   4.237   5.323   2.048 -0.3889 -1.1297 -0.8259
 2024TIP3    H227708   4.317   5.327   1.919  2.5768  2.2010  0.9477
 2025TIP3   OH227709   6.660   2.288   7.900 -0.1455  0.3004 -0.0378
 2025TIP3    H127710   6.646   2.381   7.917  1.2097  0.4611  0.3688
 2025TIP3    H227711   6.682   2.284   7.807  1.4226  0.6322  0.2890
 2026TIP3   OH227712   2.280   4.723   0.616 -0.9755  0.8590  0.1702
 2026TIP3    H127713   2.330   4.643   0.598 -1.3780  1.0296 -1.9416
 2026TIP3    H227714   2.323   4.790   0.563 -1.7539  1.6379  0.5048
 2027TIP3   OH227715   6.309   5.975   2.743  0.9219 -0.3538 -0.4695
 2027TIP3    H127716   6.310   6.010   2.654  3.1217  2.0877  0.4028
 2027TIP3    H227717   6.239   5.910   2.741 -1.4573  1.9620 -3.0904
 2028TIP3   OH227718   6.105   5.050   0.869 -0.5225 -0.0210 -0.1551
 2028TIP3    H127719   6.090   5.130   0.820 -0.7233  0.6256  0.9337
 2028TIP3    H227720   6.064   5.065   0.954 -0.7460 -1.3571  0.0007
 2029TIP3   OH227721   0.585   1.383   8.206  0.1168  0.1604 -0.2522
 2029TIP3    H127722   0.574   1.455   8.144 -0.1105 -1.1323 -1.7965
 2029TIP3    H227723   0.613   1.425   8.287 -1.0279  2.0850 -0.7731
 2030TIP3   OH227724   2.157   3.311   1.796  0.1434  0.4559 -0.3621
 2030TIP3    H127725   2.180   3.334   1.886  0.4494  0.8377 -0.5345
 2030TIP3    H227726   2.140   3.217   1.799  0.2281  0.4513  0.0780
 2031TIP3   OH227727   2.806   0.131   1.084  0.4759  0.1342 -0.1499
 2031TIP3    H127728   2.779   0.044   1.055 -0.2715 -0.3280  1.7745
 2031TIP3    H227729   2.765   0.191   1.021 -1.6473 -0.7717  0.2609
 2032TIP3   OH227730   5.562   0.849   9.022 -0.1812  0.4256  0.4784
 2032TIP3    H127731   5.540   0.757   9.033  1.5719 -0.1207 -0.3551
 2032TIP3    H227732   5.558   0.864   8.928 -0.1593  1.1494  0.5818
 2033TIP3   OH227733   5.094   5.957   9.070  0.3438 -0.0079 -0.1097
 2033TIP3    H127734   5.119   6.030   9.012  0.3512  0.2434  0.2062
 2033TIP3    H227735   5.094   5.996   9.157 -2.2748  0.3166 -0.1802
 2034TIP3   OH227736   5.313   3.213   8.099  0.1830 -0.0377  1.2988
 2034TIP3    H127737   5.233   3.227   8.048  1.1672  1.7767  0.1457
 2034TIP3    H227738   5.335   3.121   8.085  0.5451  0.4344 -1.8422
 2035TIP3   OH227739   3.603   2.129   7.850  0.0583  0.0242 -0.0960
 2035TIP3    H127740   3.540   2.065   7.881 -0.8295  0.1159 -1.6043
 2035TIP3    H227741   3.688   2.085   7.860 -0.5480 -1.5751 -1.4386
 2036TIP3   OH227742   1.208   5.051   8.015 -0.2290  0.1655  0.2783
 2036TIP3    H127743   1.178   5.127   7.966 -1.2047 -0.8364 -0.7243
 2036TIP3    H227744   1.200   5.077   8.107 -0.9519  1.1180 -0.0409
 2037TIP3   OH227745   1.853   5.868   1.502 -0.6403  0.4638 -0.3084
 2037TIP3    H127746   1.853   5.960   1.528  0.5182 -0.0024  1.5273
 2037TIP3    H227747   1.817   5.822   1.578 -0.9382 -0.6262 -1.0911
 2038TIP3   OH227748   4.542   0.204   2.441  0.1085 -0.0728 -0.2495
 2038TIP3    H127749   4.504   0.206   2.353  0.1786 -0.7403 -0.3054
 2038TIP3    H227750   4.585   0.288   2.451 -0.8628  0.4619 -0.4191
 2039TIP3   OH227751   3.628   2.204   7.309 -0.1912 -0.2800  0.3512
 2039TIP3    H127752   3.555   2.251   7.350 -1.3077 -1.8053  0.2061
 2039TIP3    H227753   3.597   2.185   7.220  1.3012  0.9933 -0.5025
 2040TIP3   OH227754   6.252   2.221   2.377 -0.6103  0.0903  0.1264
 2040TIP3    H127755   6.323   2.232   2.314 -0.7230 -2.1995 -0.4783
 2040TIP3    H227756   6.212   2.137   2.354 -2.1192  0.2779  1.8321
 2041TIP3   OH227757   5.648   4.193   0.357 -0.0221 -0.1698  0.0116
 2041TIP3    H127758   5.576   4.141   0.391 -0.6025  0.1866 -0.6497
 2041TIP3    H227759   5.657   4.265   0.419  0.2262 -0.5765  0.4643
 2042TIP3   OH227760   0.533   6.450   2.353 -0.3760  0.0098  0.1484
 2042TIP3    H127761   0.619   6.439   2.393  0.1998  0.8958 -0.7961
 2042TIP3    H227762   0.534   6.394   2.276 -1.1370 -0.9707  0.8306
 2043TIP3   OH227763   6.465   0.095   1.466 -0.5674 -0.1978 -0.1146
 2043TIP3    H127764   6.554   0.126   1.482 -0.7168  0.2086 -0.0632
 2043TIP3    H227765   6.417   0.118   1.546 -0.5698 -0.9994  0.1338
 2044TIP3   OH227766   1.965   2.859   2.773  0.3165  0.2818  0.9710
 2044TIP3    H127767   2.035   2.827   2.830 -0.7755 -1.4040  1.4438
 2044TIP3    H227768   1.970   2.802   2.696 -1.2074 -0.6296  1.5039
 2045TIP3   OH227769   1.161   5.845   3.473 -0.0500  0.0601 -0.0742
 2045TIP3    H127770   1.090   5.908   3.481 -0.9722 -1.1959  2.9257
 2045TIP3    H227771   1.127   5.778   3.413 -1.7656 -0.8369  1.7744
 2046TIP3   OH227772   0.825   4.361   7.744 -0.0119 -0.3154 -0.1915
 2046TIP3    H127773   0.910   4.321   7.760 -0.8343 -1.2544  2.2210
 2046TIP3    H227774   0.774   4.344   7.823 -2.6168 -0.1607 -1.7055
 2047TIP3   OH227775   4.306   1.264   1.492 -0.0729  0.2026  0.2990
 2047TIP3    H127776   4.238   1.238   1.429  1.1299  0.8992 -1.3411
 2047TIP3    H227777   4.258   1.277   1.574 -1.8657  0.2679 -0.7006
 2048TIP3   OH227778   6.142   3.474   7.578  0.2637  0.0598  0.3626
 2048TIP3    H127779   6.114   3.420   7.652 -1.5536  0.0944 -0.2560
 2048TIP3    H227780   6.077   3.457   7.510  2.0928 -0.2740 -1.4080
 2049TIP3   OH227781   2.738   4.697   8.324  0.7344  0.6182  0.2025
 2049TIP3    H127782   2.648   4.664   8.326  1.7135 -2.3667 -0.6248
 2049TIP3    H227783   2.734   4.774   8.268 -0.9388 -0.7892 -1.7501
 2050TIP3   OH227784   2.133   3.468   0.523  0.1474 -0.0103  0.4172
 2050TIP3    H127785   2.086   3.390   0.552  0.8216 -0.4674  0.3092
 2050TIP3    H227786   2.094   3.491   0.439 -1.1869  0.7655  1.2256
 2051TIP3   OH227787   1.178   0.982   0.505  0.0427 -0.2528 -0.1285
 2051TIP3    H127788   1.086   0.971   0.482 -0.3624 -1.8687  1.8769
 2051TIP3    H227789   1.221   1.006   0.424 -1.9275 -0.8979 -1.4327
 2052TIP3   OH227790   6.283   0.568   0.246  0.0541 -0.3724 -0.1692
 2052TIP3    H127791   6.214   0.634   0.237  2.2738  2.4171  1.3782
 2052TIP3    H227792   6.338   0.581   0.169  2.7354  2.6867  2.0125
 2053TIP3   OH227793   2.638   0.168   8.313  0.2438  0.1285  0.4500
 2053TIP3    H127794   2.730   0.174   8.336  0.3309  0.1147  0.1139
 2053TIP3    H227795   2.618   0.075   8.319 -0.3106  0.3497  2.6355
 2054TIP3   OH227796   1.650   2.362   8.694 -0.1886  0.3520 -0.1750
 2054TIP3    H127797   1.744   2.364   8.680  0.1986  0.4093  2.1078
 2054TIP3    H227798   1.631   2.272   8.718 -0.2498  0.8643  1.8876
 2055TIP3   OH227799   3.173   5.499   3.656  0.0972 -0.1113  0.0955
 2055TIP3    H127800   3.122   5.418   3.645 -0.2011  0.3146 -2.3237
 2055TIP3    H227801   3.109   5.564   3.685  0.2081 -0.5788  1.4279
 2056TIP3   OH227802   2.555   5.017   9.061 -0.7104 -0.0908  0.5528
 2056TIP3    H127803   2.493   4.978   8.999 -1.4006  0.3067  0.9788
 2056TIP3    H227804   2.512   5.098   9.090 -0.6746 -0.5653  1.9912
 2057TIP3   OH227805   2.851   3.685   8.720 -0.5830  0.3781 -0.1047
 2057TIP3    H127806   2.841   3.771   8.761  1.5033  0.4439  0.3679
 2057TIP3    H227807   2.843   3.702   8.626 -0.0248  1.1357 -0.0243
 2058TIP3   OH227808   3.573   5.295   1.631 -0.1845  0.0433  0.3318
 2058TIP3    H127809   3.497   5.353   1.629 -0.2313  0.0493  1.5563
 2058TIP3    H227810   3.593   5.285   1.724  0.2635 -1.3347  0.1077
 2059TIP3   OH227811   3.099   3.939   1.260 -0.4394  0.0044 -0.1966
 2059TIP3    H127812   3.064   3.925   1.171 -1.1740 -2.8252  0.4464
 2059TIP3    H227813   3.021   3.940   1.316  0.0901  0.7299  0.5539
 2060TIP3   OH227814   6.649   2.032   7.802  0.3414 -0.2723  0.7607
 2060TIP3    H127815   6.602   1.991   7.876  1.4863 -1.8959  0.6460
 2060TIP3    H227816   6.669   2.120   7.833 -3.3597  0.8392  0.5375
 2061TIP3   OH227817   0.517   0.330   9.083  0.0965 -0.1632 -0.0611
 2061TIP3    H127818   0.534   0.360   8.993 -0.4956 -1.5418 -0.6632
 2061TIP3    H227819   0.424   0.350   9.097 -0.1961 -1.2764 -0.3184
 2062TIP3   OH227820   6.193   5.967   0.207  0.0973  0.0691  0.1354
 2062TIP3    H127821   6.171   6.045   0.258  0.4122 -0.1201  0.5652
 2062TIP3    H227822   6.225   5.904   0.272  1.2820  0.1038 -0.3882
 2063TIP3   OH227823   3.022   0.279   2.132 -0.5651 -0.2161 -0.6418
 2063TIP3    H127824   3.115   0.298   2.142 -0.7146  0.1463  0.0907
 2063TIP3    H227825   3.016   0.184   2.143 -0.1220 -0.4343 -2.0293
 2064TIP3   OH227826   0.157   5.051   2.258 -1.5244  0.2334 -0.2537
 2064TIP3    H127827   0.211   4.988   2.210 -1.0824 -0.1236  0.6923
 2064TIP3    H227828   0.194   5.136   2.235 -0.0543 -0.0475  0.9631
 2065TIP3   OH227829   2.131   1.066   2.025 -0.0470  0.5325  0.5669
 2065TIP3    H127830   2.186   1.049   1.949 -2.1164 -1.3272 -0.6274
 2065TIP3    H227831   2.166   1.008   2.093 -0.8651 -1.1944 -0.4111
 2066TIP3   OH227832   4.240   2.418   1.254  0.4255 -0.0629  0.1026
 2066TIP3    H127833   4.320   2.398   1.302  1.2353  0.3339 -1.0303
 2066TIP3    H227834   4.246   2.511   1.234 -0.6071  0.1059  0.4894
 2067TIP3   OH227835   3.604   1.362   0.735 -0.1056  0.1548  0.0687
 2067TIP3    H127836   3.663   1.429   0.771  1.3187 -0.4934 -0.9812
 2067TIP3    H227837   3.516   1.396   0.753  0.4681  0.1201  3.6828
 2068TIP3   OH227838   3.799   5.541   1.714  0.1442 -0.7178  0.3564
 2068TIP3    H127839   3.786   5.487   1.792 -0.8824 -1.3426 -0.2151
 2068TIP3    H227840   3.712   5.548   1.675  0.7281 -0.9550 -1.0639
 2069TIP3   OH227841   0.521   4.292   8.628  0.0209 -0.0867  0.0185
 2069TIP3    H127842   0.434   4.321   8.600  0.8549  0.4165 -2.2971
 2069TIP3    H227843   0.571   4.374   8.639  1.3006 -0.3684 -2.7601
 2070TIP3   OH227844   3.379   5.934   2.224 -0.6848  0.5203 -0.3901
 2070TIP3    H127845   3.302   5.957   2.275 -0.1518  1.3379  0.0703
 2070TIP3    H227846   3.450   5.928   2.288 -0.5823 -1.3914 -0.6406
 2071TIP3   OH227847   1.010   4.911   0.808 -0.3229 -0.2628  0.1222
 2071TIP3    H127848   0.929   4.932   0.762  0.0306  0.0502 -0.3572
 2071TIP3    H227849   1.024   4.985   0.867  0.1366  0.1614 -0.5073
 2072TIP3   OH227850   1.923   3.090   0.272 -0.0719 -0.1152  0.5385
 2072TIP3    H127851   1.969   3.172   0.252  0.1836 -0.1851  0.8260
 2072TIP3    H227852   1.975   3.023   0.227  1.3538 -0.4551  2.5404
 2073TIP3   OH227853   2.760   5.752   8.667 -0.3438  0.1127 -0.1959
 2073TIP3    H127854   2.815   5.830   8.659  0.8682 -0.7392 -0.4713
 2073TIP3    H227855   2.711   5.748   8.585  0.5741 -0.1314 -0.7467
 2074TIP3   OH227856   2.518   3.354   0.763 -0.2105  0.0160  0.0651
 2074TIP3    H127857   2.480   3.353   0.851 -1.2505 -0.0841 -0.3624
 2074TIP3    H227858   2.448   3.320   0.707  0.9313 -1.2693 -0.6266
 2075TIP3   OH227859   4.209   4.689   0.569 -0.6649 -0.1846 -0.6196
 2075TIP3    H127860   4.303   4.696   0.554 -0.4506 -0.2844  0.6013
 2075TIP3    H227861   4.172   4.671   0.482  0.6559 -2.5222 -0.7572
 2076TIP3   OH227862   6.376   4.713   7.957  0.0128  0.2688  0.4506
 2076TIP3    H127863   6.285   4.736   7.940 -0.1094 -0.8525 -0.5445
 2076TIP3    H227864   6.372   4.632   8.008  0.4496  0.0327  0.1174
 2077TIP3   OH227865   1.865   6.551   0.707 -0.1130 -0.4190 -0.7511
 2077TIP3    H127866   1.770   6.554   0.708 -0.2537 -0.6706  3.0157
 2077TIP3    H227867   1.893   6.629   0.755  1.3153 -2.0016  1.1987
 2078TIP3   OH227868   4.811   3.042   8.180 -0.0770 -0.0202 -0.1407
 2078TIP3    H127869   4.733   3.087   8.149  0.2524 -0.2899 -1.3996
 2078TIP3    H227870   4.814   3.062   8.274  0.6058  3.4276 -0.7512
 2079TIP3   OH227871   4.619   4.112   1.709 -0.4274 -0.0703 -0.3902
 2079TIP3    H127872   4.655   4.093   1.796  1.7905 -0.3220 -1.2788
 2079TIP3    H227873   4.677   4.180   1.674 -0.9704 -0.3332 -1.8479
 2080TIP3   OH227874   4.527   1.190   2.151  0.1411  0.0276 -0.5460
 2080TIP3    H127875   4.525   1.100   2.118 -1.3474  0.1419 -0.8765
 2080TIP3    H227876   4.559   1.182   2.241 -0.0153 -0.8429 -0.5584
 2081TIP3   OH227877   4.967   5.070   7.940 -0.0346  0.2336 -0.6807
 2081TIP3    H127878   5.005   5.155   7.960 -1.9120  0.7584  0.9771
 2081TIP3    H227879   4.943   5.075   7.848 -0.3608  1.6243 -0.5396
 2082TIP3   OH227880   3.805   5.747   8.634 -0.6756 -0.1659 -0.0122
 2082TIP3    H127881   3.751   5.670   8.614 -2.4871  0.5170  1.8669
 2082TIP3    H227882   3.854   5.764   8.553  0.3693 -3.6748 -0.2868
 2083TIP3   OH227883   3.305   5.488   0.645  0.6267 -0.4993 -0.4535
 2083TIP3    H127884   3.368   5.502   0.716  0.8111 -0.0142 -0.7070
 2083TIP3    H227885   3.279   5.396   0.653 -0.2502 -0.1570  0.9781
 2084TIP3   OH227886   3.701   4.280   8.564 -0.2198  0.2032 -0.2357
 2084TIP3    H127887   3.680   4.191   8.594  0.3144 -0.8544 -2.7569
 2084TIP3    H227888   3.626   4.306   8.511  0.2344  0.7071 -0.6455
 2085TIP3   OH227889   1.078   5.243   0.580 -0.1573  0.6801 -0.3444
 2085TIP3    H127890   1.081   5.250   0.485  0.3374  0.8211 -0.3191
 2085TIP3    H227891   1.169   5.252   0.608 -0.0881 -0.9976  0.0418
 2086TIP3   OH227892   4.394   0.969   1.232  0.0558 -0.3121  0.5117
 2086TIP3    H127893   4.384   0.990   1.139  0.9199 -1.8816  0.0186
 2086TIP3    H227894   4.337   0.893   1.245  0.0132 -0.1581  1.2466
 2087TIP3   OH227895   5.765   4.823   7.831  0.1093 -0.3812  0.5150
 2087TIP3    H127896   5.701   4.756   7.808 -0.6782  0.4898  0.1403
 2087TIP3    H227897   5.727   4.867   7.907  0.4486 -0.1233  0.5364
 2088TIP3   OH227898   6.369   4.146   1.060 -0.0648  0.7975 -0.1590
 2088TIP3    H127899   6.347   4.228   1.016  0.8627  2.0620  1.6044
 2088TIP3    H227900   6.288   4.094   1.057 -1.3368  2.6394  0.5067
 2089TIP3   OH227901   4.881   4.275   2.010  0.0201  0.1515 -0.3304
 2089TIP3    H127902   4.889   4.358   2.057  2.5287 -0.8256  1.1614
 2089TIP3    H227903   4.941   4.283   1.937 -1.0244  0.2439 -1.2000
 2090TIP3   OH227904   6.639   2.446   0.350  0.2274 -0.1709  0.6923
 2090TIP3    H127905   6.698   2.491   0.291 -1.5587 -1.5498 -2.4148
 2090TIP3    H227906   6.630   2.358   0.312 -1.1430 -1.1207  2.9935
 2091TIP3   OH227907   1.579   4.542   0.334 -0.3250 -0.0572 -0.1073
 2091TIP3    H127908   1.519   4.613   0.311 -0.2743  0.4101  1.1153
 2091TIP3    H227909   1.658   4.587   0.365  0.2624 -0.6641 -0.6943
 2092TIP3   OH227910   0.673   5.505   8.742  0.1568 -1.1247  0.3347
 2092TIP3    H127911   0.584   5.493   8.711 -0.5275 -0.7524  1.9981
 2092TIP3    H227912   0.712   5.569   8.682 -0.7156 -1.2386 -0.3625
 2093TIP3   OH227913   2.302   4.254   1.518  0.0246 -0.5481 -0.3202
 2093TIP3    H127914   2.359   4.178   1.513  0.4954 -0.3469  1.5243
 2093TIP3    H227915   2.224   4.224   1.564  0.3278  0.1209  0.6660
 2094TIP3   OH227916   0.770   4.846   1.963  0.5680  0.0039 -0.4506
 2094TIP3    H127917   0.721   4.764   1.955 -0.3301  0.1442  2.3281
 2094TIP3    H227918   0.703   4.915   1.958  0.8622  0.3615  0.2942
 2095TIP3   OH227919   2.109   5.521   8.441 -0.0259  0.3098  0.0385
 2095TIP3    H127920   2.184   5.472   8.407  0.3073  1.4342 -0.9018
 2095TIP3    H227921   2.146   5.605   8.470 -0.1958 -0.6886  3.6401
 2096TIP3   OH227922   0.568   4.692   0.067 -0.4220  0.4956 -0.4481
 2096TIP3    H127923   0.601   4.781   0.072 -2.6131  1.2914  0.9167
 2096TIP3    H227924   0.637   4.638   0.107  1.4444  1.3183 -2.3187
 2097TIP3   OH227925   3.246   4.001   2.582  0.1215  0.9759  0.2398
 2097TIP3    H127926   3.221   4.021   2.491 -0.7241  3.3354  0.9043
 2097TIP3    H227927   3.340   4.015   2.584  0.1604  0.8229 -0.2955
 2098TIP3   OH227928   0.300   2.778   1.632  0.9305  0.1064  0.1934
 2098TIP3    H127929   0.390   2.754   1.609  1.0081 -0.4899  1.0630
 2098TIP3    H227930   0.298   2.774   1.728  0.0313  0.3005  0.1875
 2099TIP3   OH227931   6.082   1.884   7.251 -0.3498  0.3427  0.6190
 2099TIP3    H127932   6.080   1.789   7.257  1.9990  0.2198  0.5398
 2099TIP3    H227933   6.068   1.914   7.341 -2.6693  0.0544  0.4229
 2100TIP3   OH227934   5.834   5.793   3.027 -0.3377  0.7844  0.3177
 2100TIP3    H127935   5.763   5.796   2.963 -1.5751  0.6716  1.6409
 2100TIP3    H227936   5.875   5.708   3.012 -1.7343 -0.0131  0.7946
 2101TIP3   OH227937   0.836   4.671   7.935  0.2540  0.2399  0.5657
 2101TIP3    H127938   0.794   4.659   7.849 -0.2523  0.1954  0.8176
 2101TIP3    H227939   0.902   4.738   7.920 -0.7013  1.1723  0.4263
 2102TIP3   OH227940   4.071   0.801   7.627  0.3515  0.3288 -0.1108
 2102TIP3    H127941   4.086   0.869   7.561  1.5353  0.2761  0.0808
 2102TIP3    H227942   4.159   0.770   7.649 -0.1229 -0.6355  0.4648
 2103TIP3   OH227943   3.990   2.527   7.315 -0.1188  0.0183 -0.0304
 2103TIP3    H127944   3.968   2.570   7.398 -0.2439  0.1413 -0.1263
 2103TIP3    H227945   4.016   2.598   7.257  0.5124 -0.1231  0.0711
 2104TIP3   OH227946   1.282   1.363   3.553  0.3981 -0.3956  0.1668
 2104TIP3    H127947   1.257   1.400   3.638  1.3094  0.4864  0.0654
 2104TIP3    H227948   1.349   1.423   3.520 -0.2311 -0.5062 -1.3607
 2105TIP3   OH227949   1.119   6.601   0.829 -0.2781  0.6537  0.5925
 2105TIP3    H127950   1.053   6.537   0.855 -1.2672  0.9068 -1.1105
 2105TIP3    H227951   1.068   6.680   0.808  0.5640  0.9237 -0.5286
 2106TIP3   OH227952   1.028   2.448   2.548  0.1042  0.3921  0.2417
 2106TIP3    H127953   1.003   2.536   2.520 -2.6309  0.3926  2.3089
 2106TIP3    H227954   1.087   2.463   2.623 -0.9437  0.5269  1.0645
 2107TIP3   OH227955   0.015   5.011   2.483  0.2323  0.3009 -0.0699
 2107TIP3    H127956   0.058   5.057   2.554  1.3058  0.5001 -0.8298
 2107TIP3    H227957   0.046   5.054   2.404  0.3872 -1.0089 -0.7482
 2108TIP3   OH227958   4.102   0.957   7.888  0.1560  0.3444 -0.0535
 2108TIP3    H127959   4.099   0.908   7.806  0.9759 -2.2917  1.3511
 2108TIP3    H227960   4.196   0.967   7.906 -0.0065  1.6392  0.1895
 2109TIP3   OH227961   1.852   0.944   1.687 -0.1688 -0.3294 -0.8697
 2109TIP3    H127962   1.806   1.023   1.716 -0.8283 -1.6410  1.9755
 2109TIP3    H227963   1.939   0.953   1.726 -0.8170 -1.7712  1.0229
 2110TIP3   OH227964   4.918   6.096   8.744  0.7790 -0.2272  0.0876
 2110TIP3    H127965   4.879   6.079   8.830 -0.1371 -1.3489 -0.5263
 2110TIP3    H227966   4.844   6.090   8.683  1.8741 -2.2894 -1.1020
 2111TIP3   OH227967   4.338   2.722   3.328 -0.0045  0.0864 -0.0942
 2111TIP3    H127968   4.252   2.750   3.298 -0.0147  0.9843  0.6996
 2111TIP3    H227969   4.320   2.646   3.384 -0.3030  0.3238  0.1407
 2112TIP3   OH227970   0.247   3.831   1.457  0.2780 -0.7592  0.0324
 2112TIP3    H127971   0.216   3.809   1.370  1.3592 -0.1662 -0.5250
 2112TIP3    H227972   0.170   3.862   1.504 -0.0418  0.3542 -1.1915
 2113TIP3   OH227973   6.714   4.143   0.125 -0.1723  0.3957  0.5400
 2113TIP3    H127974   6.710   4.048   0.132 -1.2239  0.4333  0.6031
 2113TIP3    H227975   6.758   4.159   0.041 -1.1178 -0.1636 -0.0784
 2114TIP3   OH227976   1.859   0.955   2.014 -1.0502 -0.5159  0.5359
 2114TIP3    H127977   1.939   0.994   1.979 -0.3596 -0.9912  1.5431
 2114TIP3    H227978   1.788   0.997   1.965 -0.2722  1.0410  0.6914
 2115TIP3   OH227979   3.768   1.515   1.219 -0.3724  0.5392  0.0566
 2115TIP3    H127980   3.752   1.442   1.158  0.2131  0.5119 -0.0681
 2115TIP3    H227981   3.804   1.584   1.164  0.4972  0.3900  0.4249
 2116TIP3   OH227982   4.973   5.000   1.193 -0.3554  0.4208  0.3135
 2116TIP3    H127983   4.924   5.017   1.112 -0.7119 -1.7382  0.0255
 2116TIP3    H227984   4.909   4.963   1.253  0.3986 -0.1427  0.7864
 2117TIP3   OH227985   1.582   1.742   2.450 -0.1610 -0.3621 -0.6294
 2117TIP3    H127986   1.516   1.683   2.485 -0.5378 -0.4268 -1.4298
 2117TIP3    H227987   1.631   1.689   2.387  0.4580 -0.2272 -0.2754
 2118TIP3   OH227988   4.445   5.501   2.353  0.6261  0.0147  0.4728
 2118TIP3    H127989   4.512   5.441   2.321  1.2584  1.4093 -0.9850
 2118TIP3    H227990   4.373   5.445   2.381  1.7103 -1.4483  0.4236
 2119TIP3   OH227991   2.477   5.284   9.087  0.4019  0.2153  0.5098
 2119TIP3    H127992   2.496   5.323   9.172  0.1050 -0.5528  0.9327
 2119TIP3    H227993   2.382   5.294   9.077  0.5356  0.9563 -0.0589
 2120TIP3   OH227994   0.727   5.058   3.798  0.0300  0.4964  0.0218
 2120TIP3    H127995   0.652   5.072   3.855 -0.8757 -1.5237 -0.5896
 2120TIP3    H227996   0.726   4.965   3.779  1.1422  0.8534 -2.1413
 2121TIP3   OH227997   0.000   1.354   8.127 -0.2133  0.0561 -0.7496
 2121TIP3    H127998   0.035   1.293   8.193  0.0709  0.1816 -0.7809
 2121TIP3    H227999   0.048   1.333   8.047  1.0685  1.3942 -0.3725
 2122TIP3   OH228000   4.457   2.822   1.952 -0.1558  1.2165 -0.1337
 2122TIP3    H128001   4.476   2.864   2.035  0.5430  0.7539 -0.0517
 2122TIP3    H228002   4.534   2.838   1.898  0.0734  0.1649 -0.1392
 2123TIP3   OH228003   3.612   1.473   8.040 -0.0518 -0.0574 -0.1323
 2123TIP3    H128004   3.625   1.383   8.010  0.8943 -0.7557  2.1663
 2123TIP3    H228005   3.630   1.470   8.134  0.8189  2.6996 -0.1208
 2124TIP3   OH228006   1.660   1.630   0.383 -0.0180  0.5030 -0.7972
 2124TIP3    H128007   1.738   1.577   0.367 -1.9639 -1.9152 -3.3473
 2124TIP3    H228008   1.652   1.633   0.478  1.8225 -1.3375 -0.5126
 2125TIP3   OH228009   0.193   0.015   1.759  0.0126  0.8600  0.5901
 2125TIP3    H128010   0.158   0.051   1.678 -0.0882  0.3472  0.4044
 2125TIP3    H228011   0.152  -0.071   1.767 -0.7901  1.3184  1.7191
 2126TIP3   OH228012   1.676   1.800   3.234 -0.5340 -0.0582  0.5558
 2126TIP3    H128013   1.608   1.858   3.268 -0.9668  0.4308 -1.0464
 2126TIP3    H228014   1.718   1.763   3.312 -1.0343  1.4894  1.6043
 2127TIP3   OH228015   1.056   3.755   1.818  0.2006  0.2129  0.6306
 2127TIP3    H128016   0.993   3.807   1.869  0.9521  0.9366  0.8284
 2127TIP3    H228017   1.072   3.807   1.740  1.2672  0.4880  1.0189
 2128TIP3   OH228018   5.938   2.100   2.231  0.7569  0.5680 -0.0154
 2128TIP3    H128019   6.016   2.155   2.238  0.5639  0.8198  0.1795
 2128TIP3    H228020   5.924   2.091   2.137  0.9767  0.5829 -0.0521
 2129TIP3   OH228021   4.229   2.739   7.670 -0.0168 -0.8224 -0.0194
 2129TIP3    H128022   4.194   2.819   7.709 -2.4671 -1.3567 -0.8951
 2129TIP3    H228023   4.231   2.676   7.741 -0.1456 -0.5712  0.2075
 2130TIP3   OH228024   2.107   0.670   1.398 -0.5303 -0.2724  0.1007
 2130TIP3    H128025   2.178   0.672   1.461  0.3232 -0.0116 -0.8383
 2130TIP3    H228026   2.141   0.717   1.322 -1.5612 -0.4857 -0.5139
 2131TIP3   OH228027   1.362   2.025   1.688  0.1515  0.5075 -0.3732
 2131TIP3    H128028   1.441   2.071   1.716  0.7522 -0.5801 -0.1947
 2131TIP3    H228029   1.296   2.046   1.754  1.4625 -1.8091  1.8758
 2132TIP3   OH228030   1.915   0.619   8.998 -0.0284 -0.0730  0.2719
 2132TIP3    H128031   1.838   0.655   9.042 -0.2312  2.1226 -1.6725
 2132TIP3    H228032   1.881   0.551   8.940 -0.6213  1.1716 -0.8869
 2133TIP3   OH228033   6.575   6.340   2.698 -0.2192  0.5879  0.0310
 2133TIP3    H128034   6.617   6.264   2.658 -2.6132 -0.0707 -1.4636
 2133TIP3    H228035   6.483   6.333   2.672 -1.6494  1.1976  4.1105
 2134TIP3   OH228036   3.863   6.131   3.014  0.2496 -0.4346 -0.4994
 2134TIP3    H128037   3.950   6.132   2.975  1.0045  0.0630  1.1172
 2134TIP3    H228038   3.822   6.051   2.981  1.6264 -1.0967 -0.6425
 2135TIP3   OH228039   2.835   6.003   7.835 -0.4097 -0.8922 -0.7676
 2135TIP3    H128040   2.826   5.908   7.826  0.7917 -1.2223  1.0033
 2135TIP3    H228041   2.911   6.015   7.892 -2.9626  0.9601  2.6851
 2136TIP3   OH228042   3.244   4.916   1.793 -0.0177  0.2846  0.2796
 2136TIP3    H128043   3.228   4.967   1.873 -2.0112 -0.3979  0.3637
 2136TIP3    H228044   3.188   4.840   1.802  0.1025 -0.0605 -1.5754
 2137TIP3   OH228045   5.421   5.012   2.065  0.4319 -0.3169  0.2442
 2137TIP3    H128046   5.395   4.980   2.151  1.5600  0.3544  0.8663
 2137TIP3    H228047   5.516   5.027   2.073  0.4759  0.1860 -0.9717
 2138TIP3   OH228048   0.309   0.786   8.872 -0.4903 -0.2473  0.0828
 2138TIP3    H128049   0.286   0.734   8.795 -0.5856 -2.3311  1.4681
 2138TIP3    H228050   0.266   0.871   8.857  0.2743 -0.2423 -2.5694
 2139TIP3   OH228051   3.114   4.183   0.546  0.9599 -0.6801  0.1032
 2139TIP3    H128052   3.202   4.147   0.534  0.8105 -0.4650 -2.0385
 2139TIP3    H228053   3.068   4.160   0.465 -0.4071  0.7217  0.4377
 2140TIP3   OH228054   1.140   2.160   3.553  0.8148  0.4148 -0.4037
 2140TIP3    H128055   1.062   2.213   3.569  0.7636 -0.0765  1.0917
 2140TIP3    H228056   1.111   2.094   3.490 -0.3704 -0.5540  1.0871
 2141TIP3   OH228057   0.336   1.463   0.677  0.2260  0.5729 -0.1882
 2141TIP3    H128058   0.336   1.552   0.641 -1.0793  0.9783  0.7198
 2141TIP3    H228059   0.363   1.474   0.768 -0.5884  0.1412  0.1148
 2142TIP3   OH228060   4.661   1.509   2.969 -0.3102 -0.1136  0.1942
 2142TIP3    H128061   4.604   1.586   2.966 -1.4133 -0.8929  0.5688
 2142TIP3    H228062   4.732   1.535   3.027 -0.8668  0.4885  0.6257
 2143TIP3   OH228063   1.683   6.253   7.857  0.1942  0.7891 -0.4572
 2143TIP3    H128064   1.664   6.284   7.768  1.1186 -0.7090 -1.2441
 2143TIP3    H228065   1.774   6.221   7.851  0.2196  0.5430  0.9973
 2144TIP3   OH228066   3.749   1.560   0.849 -0.1919 -0.1623  0.5436
 2144TIP3    H128067   3.664   1.603   0.859  0.3662  1.0877  0.0879
 2144TIP3    H228068   3.808   1.608   0.907  0.3608 -0.6037  0.3681
 2145TIP3   OH228069   5.190   6.497   8.427 -0.3411 -0.2900  0.0168
 2145TIP3    H128070   5.254   6.427   8.436 -1.2910 -1.1152  0.5157
 2145TIP3    H228071   5.118   6.458   8.376 -0.0458  0.9112 -1.4062
 2146TIP3   OH228072   3.734   4.901   2.059  0.3016  0.2010  0.3698
 2146TIP3    H128073   3.799   4.832   2.073  1.1807  0.6121 -1.4374
 2146TIP3    H228074   3.786   4.981   2.049 -0.4957  0.5974 -0.7078
 2147TIP3   OH228075   4.591   1.855   8.102  0.0535 -0.5075  0.5717
 2147TIP3    H128076   4.684   1.853   8.080  0.3882 -2.1966  1.9022
 2147TIP3    H228077   4.548   1.806   8.032  0.3202 -0.7725  0.5937
 2148TIP3   OH228078   1.651   5.561   2.729 -0.0680 -0.3166  0.0423
 2148TIP3    H128079   1.619   5.543   2.817 -1.5183  2.8250  0.2829
 2148TIP3    H228080   1.640   5.655   2.718  0.6881 -0.4892 -3.2860
 2149TIP3   OH228081   2.256   2.204   3.723  0.0700  0.1195  0.5037
 2149TIP3    H128082   2.260   2.291   3.763  0.4904  0.1391  0.4157
 2149TIP3    H228083   2.324   2.154   3.766 -0.4981 -0.3228  0.9090
 2150TIP3   OH228084   4.821   5.556   3.387  0.1139 -0.6604 -0.5923
 2150TIP3    H128085   4.811   5.646   3.417 -0.7351 -1.0209  0.2351
 2150TIP3    H228086   4.909   5.553   3.349 -0.3655  0.8668 -1.8958
 2151TIP3   OH228087   0.234   4.241   1.691 -0.7101  0.1907  0.4456
 2151TIP3    H128088   0.204   4.205   1.607 -0.8970  0.2375  0.4928
 2151TIP3    H228089   0.272   4.166   1.737 -0.6469  0.1562  0.3369
 2152TIP3   OH228090   6.423   0.323   1.679  0.2433  0.6974  0.1450
 2152TIP3    H128091   6.476   0.284   1.749  0.5477  0.6106 -0.1268
 2152TIP3    H228092   6.472   0.401   1.653 -1.0016  2.0029  1.5527
 2153TIP3   OH228093   3.758   1.256   7.877 -0.5608  0.7245  0.7795
 2153TIP3    H128094   3.823   1.250   7.807 -0.1170  1.0889  1.1554
 2153TIP3    H228095   3.787   1.191   7.942 -1.3686 -0.1266  0.3155
 2154TIP3   OH228096   6.125   3.732   8.340  0.0195 -0.6740 -0.5120
 2154TIP3    H128097   6.170   3.718   8.257 -0.2143 -0.3743 -0.6887
 2154TIP3    H228098   6.037   3.762   8.316 -0.5437 -1.9825 -0.1843
 2155TIP3   OH228099   6.430   4.947   7.837  0.1026 -0.4607 -0.0663
 2155TIP3    H128100   6.516   4.933   7.798 -0.4633 -3.4806 -0.4481
 2155TIP3    H228101   6.406   4.863   7.875 -1.8655  0.8320  1.8026
 2156TIP3   OH228102   2.165   0.339   7.905  0.4047 -0.0727 -0.0423
 2156TIP3    H128103   2.159   0.245   7.891 -1.0950  0.0649 -0.5280
 2156TIP3    H228104   2.192   0.375   7.821 -4.0177  0.3251 -1.5322
 2157TIP3   OH228105   0.504   4.057   1.234  0.0415 -0.4032  0.4654
 2157TIP3    H128106   0.429   4.116   1.241  0.1267  0.1409 -2.3236
 2157TIP3    H228107   0.573   4.101   1.284 -0.4862  0.8374  0.1435
 2158TIP3   OH228108   0.484   3.898   0.154  0.4746  0.3816 -0.1709
 2158TIP3    H128109   0.415   3.842   0.189  2.2995 -0.4993  2.3059
 2158TIP3    H228110   0.563   3.843   0.155  2.0621  2.4985  1.0899
 2159TIP3   OH228111   0.302   0.655   0.784 -0.0989 -0.1823 -0.3135
 2159TIP3    H128112   0.300   0.731   0.843 -1.0916  1.4145 -2.2575
 2159TIP3    H228113   0.218   0.612   0.799 -0.3015  0.1534 -0.4544
 2160TIP3   OH228114   5.090   0.644   1.308 -0.0884 -0.3752  0.5220
 2160TIP3    H128115   5.150   0.575   1.281  1.7603  1.4671 -0.3064
 2160TIP3    H228116   5.138   0.694   1.374 -0.2207  1.7687 -0.9117
 2161TIP3   OH228117   0.251   1.847   7.897 -0.1144 -0.3025 -0.6212
 2161TIP3    H128118   0.267   1.759   7.863 -1.5100 -0.5785 -0.6041
 2161TIP3    H228119   0.230   1.899   7.820  0.8407  0.0733 -0.6489
 2162TIP3   OH228120   5.539   0.350   8.461 -0.5285  0.1971 -0.3032
 2162TIP3    H128121   5.458   0.388   8.497 -0.3557 -0.8830  1.3031
 2162TIP3    H228122   5.596   0.339   8.536  1.0869  0.7592 -1.3848
 2163TIP3   OH228123   0.209   0.965   8.483 -0.0444 -0.0216 -0.1081
 2163TIP3    H128124   0.122   0.929   8.468 -0.1827 -0.1247  0.8443
 2163TIP3    H228125   0.198   1.059   8.473 -0.0874 -0.0987 -0.7906
 2164TIP3   OH228126   2.175   2.673   3.592  0.3704  0.1304 -0.2493
 2164TIP3    H128127   2.116   2.625   3.533  1.9767 -0.1132 -1.7465
 2164TIP3    H228128   2.119   2.739   3.632 -1.4648 -1.6685  0.3375
 2165TIP3   OH228129   4.133   0.365   8.177  0.5331 -0.5840 -0.3091
 2165TIP3    H128130   4.157   0.298   8.114  0.8655 -1.0786  0.3383
 2165TIP3    H228131   4.132   0.320   8.262  1.7423  0.4256  0.2780
 2166TIP3   OH228132   4.194   4.341   8.548 -0.2230 -0.6862 -0.1069
 2166TIP3    H128133   4.115   4.293   8.573  0.1540 -1.0520  0.4163
 2166TIP3    H228134   4.221   4.302   8.465 -0.4357 -0.7510 -0.1446
 2167TIP3   OH228135   1.181   5.971   8.785 -0.2652 -0.0302  0.1099
 2167TIP3    H128136   1.200   5.980   8.879  0.6133 -0.2401 -0.0381
 2167TIP3    H228137   1.104   5.915   8.782 -0.4149  0.1340  0.7212
 2168TIP3   OH228138   2.735   4.792   7.692  0.0072  0.2221 -0.2285
 2168TIP3    H128139   2.733   4.697   7.701  1.7433  0.2780  0.9762
 2168TIP3    H228140   2.822   4.812   7.658  0.6428  1.5308  1.9631
 2169TIP3   OH228141   2.339   0.152   0.932 -0.4281  0.4855  0.0609
 2169TIP3    H128142   2.428   0.185   0.920 -1.1891  2.6062 -0.3220
 2169TIP3    H228143   2.345   0.090   1.004  1.4353  0.2110 -0.2964
 2170TIP3   OH228144   6.424   1.294   7.606 -0.1364  0.2807  0.1456
 2170TIP3    H128145   6.445   1.277   7.514 -1.0961 -0.3350  0.0259
 2170TIP3    H228146   6.372   1.374   7.604  0.9017  0.9868  0.2996
 2171TIP3   OH228147   6.013   5.289   0.360 -0.3367  0.5421 -0.1243
 2171TIP3    H128148   5.932   5.313   0.405 -1.4217 -1.0620 -1.1287
 2171TIP3    H228149   5.993   5.301   0.267  1.9222  3.9928 -0.3271
 2172TIP3   OH228150   1.765   5.303   8.224 -0.3435 -0.5054  0.4267
 2172TIP3    H128151   1.702   5.242   8.263 -1.0236 -0.6740 -0.9048
 2172TIP3    H228152   1.787   5.266   8.139 -1.2381  1.3703 -0.6991
 2173TIP3   OH228153   4.364   6.499   8.156  0.2635 -0.0203  0.8578
 2173TIP3    H128154   4.340   6.544   8.075  2.6104  1.7222  1.0294
 2173TIP3    H228155   4.314   6.417   8.154 -1.5223  1.0211 -1.1773
 2174TIP3   OH228156   1.980   3.878   8.588  0.4398  0.1191 -0.7095
 2174TIP3    H128157   1.960   3.939   8.517  0.3795  0.0032 -0.7914
 2174TIP3    H228158   1.896   3.837   8.609  0.7083 -0.8724 -1.5159
 2175TIP3   OH228159   4.006   3.983   2.391  0.0140 -0.1666  0.6072
 2175TIP3    H128160   4.067   3.975   2.318  0.8452 -1.5153  1.3984
 2175TIP3    H228161   3.954   4.060   2.371  1.2699  0.3994 -0.6306
 2176TIP3   OH228162   0.366   4.887   8.629  0.2194  0.3512 -0.2700
 2176TIP3    H128163   0.379   4.904   8.722 -1.8106  1.9715 -0.2325
 2176TIP3    H228164   0.417   4.807   8.613 -0.1029 -0.5064  2.4045
 2177TIP3   OH228165   0.561   6.576   2.090 -0.4185  0.4841  0.1939
 2177TIP3    H128166   0.538   6.643   2.154 -0.9063 -0.3248  0.8887
 2177TIP3    H228167   0.586   6.500   2.143  2.0766  0.6967 -0.5320
 2178TIP3   OH228168   4.382   2.522   2.003  0.3838  0.3934  0.0936
 2178TIP3    H128169   4.403   2.613   1.982  0.6137  0.4656  0.6128
 2178TIP3    H228170   4.467   2.478   2.006  0.4337  0.5530  1.5988
 2179TIP3   OH228171   2.914   2.241   2.295  0.1659  0.0468  0.1029
 2179TIP3    H128172   2.951   2.180   2.231  2.1238 -0.0312  1.2225
 2179TIP3    H228173   2.960   2.220   2.377  1.4490  3.4177  0.4018
 2180TIP3   OH228174   0.167   1.872   8.333  0.3355 -0.0937  0.3906
 2180TIP3    H128175   0.167   1.784   8.295  2.2248 -0.0934  0.3161
 2180TIP3    H228176   0.227   1.867   8.407 -2.6294  0.1348  3.0235
 2181TIP3   OH228177   0.181   5.277   0.677  0.6204 -0.0738  0.0518
 2181TIP3    H128178   0.239   5.254   0.604  1.7325  0.0238  0.8834
 2181TIP3    H228179   0.229   5.343   0.726 -1.5392  2.4466 -1.0013
 2182TIP3   OH228180   2.080   1.607   8.789 -0.5270 -0.1154 -0.1963
 2182TIP3    H128181   2.047   1.645   8.708 -0.3717 -0.0846 -0.2445
 2182TIP3    H228182   2.001   1.584   8.838 -0.6213 -0.0930 -0.3361
 2183TIP3   OH228183   5.093   5.363   0.455 -0.0838 -0.1971  0.9592
 2183TIP3    H128184   5.013   5.370   0.404  0.1725 -0.1535  0.5653
 2183TIP3    H228185   5.146   5.299   0.409  0.7062  0.8226  0.4254
 2184TIP3   OH228186   3.619   2.614   8.547  0.3550 -0.6852 -0.1046
 2184TIP3    H128187   3.608   2.675   8.474  0.0970 -0.3527  0.2111
 2184TIP3    H228188   3.639   2.670   8.622 -2.1368 -0.7819  0.6980
 2185TIP3   OH228189   4.303   1.680   1.541 -0.3161 -0.5011 -0.8980
 2185TIP3    H128190   4.288   1.638   1.456  1.5798 -0.6824 -1.1879
 2185TIP3    H228191   4.217   1.715   1.566 -1.5772 -2.9425 -1.4872
 2186TIP3   OH228192   5.414   4.964   8.444  0.4067 -0.9383 -0.6708
 2186TIP3    H128193   5.406   4.969   8.348 -0.3920 -1.6137 -0.6486
 2186TIP3    H228194   5.325   4.944   8.474  0.3892  0.4882  0.3127
 2187TIP3   OH228195   1.929   2.596   1.237  0.9130  0.1230 -0.2984
 2187TIP3    H128196   1.872   2.632   1.170 -0.4385  1.3949  1.4223
 2187TIP3    H228197   1.875   2.530   1.281  1.2287  0.3500  0.4529
 2188TIP3   OH228198   1.354   3.159   8.953  0.2078 -0.1298 -0.6759
 2188TIP3    H128199   1.320   3.072   8.974 -1.5279  0.7200  0.2358
 2188TIP3    H228200   1.284   3.202   8.903  0.0813  1.4947  0.7897
 2189TIP3   OH228201   5.430   5.667   2.738 -0.1420  0.2997 -0.5158
 2189TIP3    H128202   5.458   5.581   2.708  2.4786  0.7273  0.4699
 2189TIP3    H228203   5.336   5.657   2.755  0.3066 -2.6944  0.7115
 2190TIP3   OH228204   4.784   4.893   3.257  0.1169  0.0682 -0.2989
 2190TIP3    H128205   4.703   4.851   3.227  0.1315 -1.6432  1.8314
 2190TIP3    H228206   4.755   4.961   3.317  0.2116  0.9662 -1.2509
 2191TIP3   OH228207   2.428   1.683   0.380 -0.0610  0.2553 -0.4479
 2191TIP3    H128208   2.433   1.778   0.387 -2.0470  0.5433 -2.0878
 2191TIP3    H228209   2.337   1.662   0.402  0.8658 -1.5861  2.2574
 2192TIP3   OH228210   5.646   4.215   2.878  0.1568 -0.4507  0.2575
 2192TIP3    H128211   5.556   4.200   2.906  0.6945 -1.1830  1.6490
 2192TIP3    H228212   5.647   4.306   2.848 -0.4313  0.4727  2.8057
 2193TIP3   OH228213   4.803   4.567   0.328 -0.5134  0.3737 -0.4260
 2193TIP3    H128214   4.751   4.600   0.254  0.5386  0.7924 -1.0173
 2193TIP3    H228215   4.861   4.502   0.288 -2.5014 -2.2500  0.7125
 2194TIP3   OH228216   4.971   5.384   2.232  0.4899 -0.1083 -0.0286
 2194TIP3    H128217   4.968   5.479   2.232 -0.3576 -0.1219 -0.0738
 2194TIP3    H228218   5.042   5.361   2.292  0.3956  0.5416  0.3338
 2195TIP3   OH228219   2.972   5.568   8.051 -0.2057  0.1710 -0.3069
 2195TIP3    H128220   3.059   5.531   8.066 -0.2378  0.7756  1.5578
 2195TIP3    H228221   2.966   5.576   7.956  1.1502 -1.3449 -0.5615
 2196TIP3   OH228222   0.638   6.078   8.737  0.4004  0.5251  0.4005
 2196TIP3    H128223   0.646   6.062   8.643 -2.1718  0.2653  0.1491
 2196TIP3    H228224   0.613   6.170   8.744 -0.5286  0.2587  0.7262
 2197TIP3   OH228225   3.265   3.287   1.584  0.3227 -0.0195 -0.3870
 2197TIP3    H128226   3.340   3.329   1.625  1.1759 -0.9190 -0.9683
 2197TIP3    H228227   3.198   3.285   1.652  0.6257  1.2813 -0.0219
 2198TIP3   OH228228   3.623   1.849   0.652 -0.2092  0.5153 -0.3786
 2198TIP3    H128229   3.596   1.851   0.560 -1.1620  1.7672 -0.1024
 2198TIP3    H228230   3.645   1.939   0.673  1.6591 -0.0265  0.1971
 2199TIP3   OH228231   5.623   5.997   3.339 -0.0471  0.5091  0.3117
 2199TIP3    H128232   5.598   6.035   3.254 -1.7955 -1.2345 -0.0363
 2199TIP3    H228233   5.663   5.913   3.316  1.7223  1.0958  1.1431
 2200TIP3   OH228234   4.279   5.017   2.586  0.2645 -0.2221 -0.1253
 2200TIP3    H128235   4.184   5.011   2.578  0.2912 -0.6378 -0.1361
 2200TIP3    H228236   4.300   5.106   2.556 -0.1190 -0.1230 -0.1064
 2201TIP3   OH228237   0.993   4.898   8.327 -0.0144 -0.4982 -0.2040
 2201TIP3    H128238   0.966   4.963   8.262 -0.4798 -1.2846 -0.8192
 2201TIP3    H228239   1.039   4.831   8.276  0.3974 -0.6928  0.4094
 2202TIP3   OH228240   4.420   1.451   2.081  0.1346  0.0519  0.4888
 2202TIP3    H128241   4.456   1.363   2.093  2.6293  0.2863 -3.4596
 2202TIP3    H228242   4.485   1.509   2.120  1.4965  0.2630 -1.9403
 2203TIP3   OH228243   5.990   1.124   8.254 -0.2013 -0.1011  0.2607
 2203TIP3    H128244   5.966   1.171   8.174  1.0752  1.4734  0.7524
 2203TIP3    H228245   5.918   1.062   8.268 -0.0755 -1.0047 -2.5097
 2204TIP3   OH228246   3.589   5.911   0.008  0.4552 -0.6422 -0.3580
 2204TIP3    H128247   3.646   5.956   0.071 -2.5312  1.6732  0.9791
 2204TIP3    H228248   3.591   5.819   0.036  1.8480 -0.2563  0.9788
 2205TIP3   OH228249   0.164   4.590   0.245 -0.0418  0.3287  0.1921
 2205TIP3    H128250   0.162   4.494   0.237 -0.7907  0.1853  1.7239
 2205TIP3    H228251   0.251   4.609   0.280 -0.2813  0.0807  0.9572
 2206TIP3   OH228252   2.302   5.318   1.363  0.3288  0.0821  0.6246
 2206TIP3    H128253   2.290   5.277   1.277  1.7359 -1.2802  1.0358
 2206TIP3    H228254   2.224   5.292   1.412 -0.8381  1.4637 -0.4235
 2207TIP3   OH228255   2.581   4.417   1.695 -0.0138 -0.3077 -0.2235
 2207TIP3    H128256   2.564   4.480   1.625 -0.6638 -1.0357 -0.7348
 2207TIP3    H228257   2.662   4.373   1.669  1.9424  2.0408  1.4114
 2208TIP3   OH228258   4.716   2.535   1.590 -0.4530  0.3524  0.2338
 2208TIP3    H128259   4.665   2.541   1.509  0.3641  1.6309 -0.2370
 2208TIP3    H228260   4.807   2.524   1.560  0.2086  3.2720  0.8112
 2209TIP3   OH228261   5.720   2.426   1.498 -0.3482  0.0539  0.1430
 2209TIP3    H128262   5.745   2.371   1.423 -1.7344  0.3114 -0.5443
 2209TIP3    H228263   5.648   2.379   1.539 -1.0099  0.9382  0.0353
 2210TIP3   OH228264   5.212   0.889   3.118  0.4266  0.3791  0.1416
 2210TIP3    H128265   5.264   0.897   3.038  1.6363 -1.2609  0.6984
 2210TIP3    H228266   5.276   0.869   3.186 -0.9724 -3.9872  0.4953
 2211TIP3   OH228267   4.945   4.870   9.035  0.0197  0.1717  0.1203
 2211TIP3    H128268   4.852   4.891   9.040 -0.4382 -0.1775 -3.7473
 2211TIP3    H228269   4.948   4.775   9.028  0.9364 -0.0382  2.5159
 2212TIP3   OH228270   3.015   3.009   8.598 -0.5875  0.4752  0.4281
 2212TIP3    H128271   2.950   3.016   8.528  0.7788 -1.1538 -1.1293
 2212TIP3    H228272   2.965   3.016   8.678 -2.0355  4.1201 -0.5875
 2213TIP3   OH228273   5.836   3.842   0.764  0.0774 -0.8900 -0.6081
 2213TIP3    H128274   5.886   3.907   0.814 -0.1262  0.0739 -1.6078
 2213TIP3    H228275   5.889   3.762   0.768  0.9379 -0.3154 -0.3538
 2214TIP3   OH228276   5.339   2.167   2.741  0.0997  0.1411 -0.0741
 2214TIP3    H128277   5.402   2.236   2.718  1.8506 -0.8151  1.5211
 2214TIP3    H228278   5.263   2.214   2.776  0.6441  1.2990 -0.3799
 2215TIP3   OH228279   0.996   4.573   1.814  0.0224 -0.0006 -0.2338
 2215TIP3    H128280   0.961   4.511   1.877  1.8872 -0.3471  0.5154
 2215TIP3    H228281   0.966   4.659   1.845  0.3235 -0.2321  0.7140
 2216TIP3   OH228282   3.643   0.221   2.058 -0.2817  0.3620 -0.8541
 2216TIP3    H128283   3.608   0.279   2.126  1.9164  0.3911  0.3291
 2216TIP3    H228284   3.681   0.148   2.106 -0.4210 -0.6222 -2.1814
 2217TIP3   OH228285   6.364   6.685   8.762  0.0171 -0.2406 -0.0108
 2217TIP3    H128286   6.300   6.735   8.813  1.4345  2.2417 -0.5065
 2217TIP3    H228287   6.348   6.594   8.786 -2.9626  0.3604  0.6708
 2218TIP3   OH228288   6.551   3.308   0.606  0.1512 -0.1007 -0.5495
 2218TIP3    H128289   6.473   3.355   0.637  2.5421  2.9666  1.3536
 2218TIP3    H228290   6.580   3.257   0.681  1.0181  0.2917 -0.6039
 2219TIP3   OH228291   4.289   4.167   0.956 -0.1518 -0.1088  0.1189
 2219TIP3    H128292   4.354   4.097   0.963 -1.5690 -1.8862 -2.5523
 2219TIP3    H228293   4.238   4.160   1.037  1.7437  0.1056  1.4032
 2220TIP3   OH228294   5.158   4.555   2.728 -0.0170 -0.0050  0.2598
 2220TIP3    H128295   5.116   4.469   2.731  1.8188 -0.9094  0.9800
 2220TIP3    H228296   5.208   4.561   2.809  1.1632  1.0705 -0.5156
 2221TIP3   OH228297   6.649   4.516   3.429 -0.4476  0.2769  0.5031
 2221TIP3    H128298   6.634   4.434   3.383  2.1181  0.5425 -0.9413
 2221TIP3    H228299   6.615   4.500   3.517  0.3759 -2.4817  0.4009
 2222TIP3   OH228300   1.935   0.013   8.060 -0.1045  0.3050  0.6498
 2222TIP3    H128301   1.971  -0.074   8.075  2.3362  1.0529 -0.2544
 2222TIP3    H228302   1.987   0.048   7.988 -2.3388  1.8043 -0.3536
 2223TIP3   OH228303   6.400   3.465   3.532  0.3904 -0.3662  0.2112
 2223TIP3    H128304   6.413   3.419   3.615 -0.1052  0.2131  0.6186
 2223TIP3    H228305   6.330   3.527   3.550  1.7996  1.3446  0.0079
 2224TIP3   OH228306   0.535   0.935   7.278 -0.1767 -0.3875 -0.0475
 2224TIP3    H128307   0.619   0.890   7.287 -0.7409 -1.4620  0.0581
 2224TIP3    H228308   0.556   1.018   7.235  0.9119 -0.7018 -0.1469
 2225TIP3   OH228309   0.015   4.624   8.368  0.3293  0.0089 -0.1683
 2225TIP3    H128310  -0.080   4.639   8.367  0.5399  1.8346  1.5250
 2225TIP3    H228311   0.025   4.544   8.420 -0.2925 -0.2554 -0.4433
 2226TIP3   OH228312   6.039   4.241   2.562  0.1811  0.0990  0.5451
 2226TIP3    H128313   6.090   4.216   2.485  1.0105  0.2156  1.0519
 2226TIP3    H228314   6.058   4.172   2.627 -1.2659 -0.5382  0.3422
 2227TIP3   OH228315   1.151   2.547   8.263  0.2792 -0.0380  0.3205
 2227TIP3    H128316   1.113   2.622   8.218  2.3532  0.9886  0.1504
 2227TIP3    H228317   1.137   2.474   8.204 -0.9270  0.3941  0.0496
 2228TIP3   OH228318   5.316   5.344   1.595 -0.2146  0.3177  0.1515
 2228TIP3    H128319   5.321   5.376   1.686 -0.2566  0.8831 -0.0402
 2228TIP3    H228320   5.356   5.258   1.598  1.7655  1.1974  0.2958
 2229TIP3   OH228321   1.987   0.924   3.000  0.0830 -0.3402  0.3923
 2229TIP3    H128322   1.996   1.014   2.970 -0.7847  0.0207  1.1647
 2229TIP3    H228323   2.018   0.925   3.090 -1.8287 -0.3384  1.0928
 2230TIP3   OH228324   6.652   2.634   0.553 -0.1869 -1.2860 -0.3475
 2230TIP3    H128325   6.642   2.573   0.480 -0.4252 -0.9916 -0.5664
 2230TIP3    H228326   6.737   2.613   0.591 -0.4271 -1.9984 -0.1910
 2231TIP3   OH228327   2.807   5.868   7.423  0.5986  0.0169  0.5669
 2231TIP3    H128328   2.818   5.773   7.418  2.5366  0.2582 -1.6388
 2231TIP3    H228329   2.889   5.903   7.388 -0.7826  2.4771 -0.4764
 2232TIP3   OH228330   2.104   4.679   2.434 -0.1596 -1.0380 -0.3588
 2232TIP3    H128331   2.018   4.647   2.406  0.0150 -1.2105 -0.6952
 2232TIP3    H228332   2.091   4.704   2.525 -0.5313 -1.1997 -0.3648
 2233TIP3   OH228333   3.268   3.232   0.230 -0.1422 -0.3996 -0.3197
 2233TIP3    H128334   3.345   3.233   0.287 -0.0571  0.0354 -0.4379
 2233TIP3    H228335   3.300   3.201   0.145 -0.1272 -0.3647 -0.3267
 2234TIP3   OH228336   2.834   0.725   2.264 -0.0854 -0.1436 -0.0554
 2234TIP3    H128337   2.745   0.741   2.296  0.4311  1.2552  0.7881
 2234TIP3    H228338   2.837   0.767   2.178 -0.2988 -0.4075 -0.1951
 2235TIP3   OH228339   1.127   4.683   8.193 -0.1732 -0.0075  0.3288
 2235TIP3    H128340   1.156   4.715   8.108 -2.5988 -0.3027 -0.6840
 2235TIP3    H228341   1.084   4.600   8.174  2.0400 -1.7469  2.3232
 2236TIP3   OH228342   2.370   3.807   1.185 -0.7110  0.8923  0.6949
 2236TIP3    H128343   2.452   3.785   1.141 -1.9488 -0.8238 -0.8967
 2236TIP3    H228344   2.383   3.776   1.275  0.1089 -0.1553  0.2489
 2237TIP3   OH228345   6.273   1.695   1.853 -0.1428 -0.6418 -0.4530
 2237TIP3    H128346   6.265   1.715   1.946 -0.4902 -0.4636 -0.5190
 2237TIP3    H228347   6.183   1.685   1.823 -0.3826  3.7333 -1.7473
 2238TIP3   OH228348   2.050   2.501   1.930 -0.3883 -0.5142 -0.2049
 2238TIP3    H128349   2.114   2.507   1.858  0.8551  0.8037  0.9474
 2238TIP3    H228350   2.033   2.407   1.939  2.1676 -1.0168  0.0785
 2239TIP3   OH228351   1.532   5.640   1.581 -0.0008 -0.0023 -0.8066
 2239TIP3    H128352   1.511   5.726   1.617 -0.0712  0.0665 -1.0092
 2239TIP3    H228353   1.541   5.656   1.487 -0.6504 -0.3396 -0.9270
 2240TIP3   OH228354   0.091   3.591   2.617  0.1020 -0.2136 -0.4789
 2240TIP3    H128355   0.127   3.509   2.583  1.2756  0.0295  0.1277
 2240TIP3    H228356   0.075   3.573   2.710 -0.7737 -0.1135 -0.5993
 2241TIP3   OH228357   0.816   3.908   1.910 -0.7349 -0.4357 -0.2803
 2241TIP3    H128358   0.757   3.847   1.954  1.3788 -0.3516  2.9435
 2241TIP3    H228359   0.807   3.886   1.817  0.2169 -6.1415  0.5699
 2242TIP3   OH228360   0.069   2.046   0.018 -0.5544 -0.0082 -0.0634
 2242TIP3    H128361   0.011   2.098   0.073  0.1818  1.7407 -0.8678
 2242TIP3    H228362   0.147   2.100   0.007  0.1480 -1.1853 -1.1375
 2243TIP3   OH228363   6.628   2.328   1.475 -0.1184  0.0596 -0.3810
 2243TIP3    H128364   6.660   2.373   1.396  0.0140  0.5439 -0.0527
 2243TIP3    H228365   6.563   2.266   1.442  0.9137 -0.7199 -1.0293
 2244TIP3   OH228366   4.575   6.377   7.985  0.0975 -0.3235 -0.3224
 2244TIP3    H128367   4.572   6.437   7.910  1.5133  0.2015 -0.0068
 2244TIP3    H228368   4.488   6.384   8.025 -0.3170  0.2169 -1.2830
 2245TIP3   OH228369   0.082   5.292   7.675 -0.5233 -0.7990  0.0019
 2245TIP3    H128370   0.109   5.231   7.744 -0.8843 -0.0850  0.7976
 2245TIP3    H228371  -0.013   5.300   7.687 -0.5160 -0.3045 -0.2731
 2246TIP3   OH228372   4.923   2.345   3.110  0.1093 -0.3576 -0.2916
 2246TIP3    H128373   4.915   2.367   3.203 -0.6898 -0.2802 -0.3741
 2246TIP3    H228374   5.017   2.332   3.097  0.4158  1.1915  0.1617
 2247TIP3   OH228375   1.272   2.715   2.535  0.1379  0.6751  0.6374
 2247TIP3    H128376   1.318   2.795   2.560  2.8358 -0.8108  0.7998
 2247TIP3    H228377   1.266   2.719   2.440  3.0265 -0.1566  0.3034
 2248TIP3   OH228378   3.856   5.739   1.975 -0.1902 -0.0173  0.4918
 2248TIP3    H128379   3.925   5.801   1.954 -0.4393  0.7426  1.8564
 2248TIP3    H228380   3.775   5.782   1.945 -0.1388 -0.7196 -0.7108
 2249TIP3   OH228381   0.422   0.346   8.817 -0.0633  0.3950 -0.3167
 2249TIP3    H128382   0.437   0.355   8.722  1.1949  0.2317 -0.1515
 2249TIP3    H228383   0.327   0.352   8.827 -0.2036  0.5524 -1.5772
 2250TIP3   OH228384   5.516   3.593   0.905  0.1927  0.3896 -0.3545
 2250TIP3    H128385   5.527   3.622   0.814  0.0427 -1.4402 -0.9968
 2250TIP3    H228386   5.470   3.509   0.898 -0.7550  0.7172  1.4777
 2251TIP3   OH228387   6.158   3.028   7.605 -0.0074 -0.3193  0.1485
 2251TIP3    H128388   6.139   3.097   7.541 -0.6923 -0.1078  0.5764
 2251TIP3    H228389   6.097   3.044   7.677 -0.4744 -1.6307  0.0674
 2252TIP3   OH228390   0.526   6.626   7.100 -0.2796  0.1596 -0.6946
 2252TIP3    H128391   0.547   6.604   7.191  1.4469  0.8793 -0.8947
 2252TIP3    H228392   0.512   6.721   7.101 -2.1564 -0.0675 -0.8707
 2253TIP3   OH228393   0.171   2.621   9.007 -0.3928  0.2437  0.0956
 2253TIP3    H128394   0.238   2.669   9.057  2.2237 -1.4612 -1.5249
 2253TIP3    H228395   0.183   2.651   8.917  0.1280 -2.0614 -0.6588
 2254TIP3   OH228396   1.003   0.242   1.062  0.5147  0.6116 -0.3184
 2254TIP3    H128397   1.075   0.209   1.007  1.4344  0.9692  0.6526
 2254TIP3    H228398   0.961   0.163   1.096  3.1607  0.2923  2.5831
 2255TIP3   OH228399   1.877   4.606   8.208 -0.1178 -0.3103  0.0440
 2255TIP3    H128400   1.806   4.653   8.164  0.4282  0.9412  0.4821
 2255TIP3    H228401   1.956   4.633   8.162  0.0361 -2.4171 -1.0549
 2256TIP3   OH228402   1.327   1.845   2.910 -0.1725 -0.1896 -0.1053
 2256TIP3    H128403   1.233   1.849   2.895  0.0435  0.3511 -1.4264
 2256TIP3    H228404   1.336   1.811   2.999 -1.7211  3.7249  1.7761
 2257TIP3   OH228405   6.291   4.515   1.876 -0.4809  0.7584  0.6990
 2257TIP3    H128406   6.222   4.565   1.921  0.6735  2.3031  0.8174
 2257TIP3    H228407   6.372   4.545   1.916  0.3013 -1.0464  0.5619
 2258TIP3   OH228408   5.042   3.334   2.802 -0.1964  0.4782 -0.5804
 2258TIP3    H128409   5.007   3.390   2.733 -0.2927  1.8449  0.5311
 2258TIP3    H228410   4.983   3.348   2.876 -0.3359 -1.2677 -0.3262
 2259TIP3   OH228411   0.441   5.571   1.839 -0.4823 -0.3933 -0.0331
 2259TIP3    H128412   0.409   5.654   1.872 -1.8284 -0.8769 -0.0613
 2259TIP3    H228413   0.414   5.569   1.747  0.9940 -0.1699 -0.5075
 2260TIP3   OH228414   6.362   3.216   0.428  0.4146  0.4702 -0.1002
 2260TIP3    H128415   6.431   3.196   0.491 -0.1156  1.8460  0.9733
 2260TIP3    H228416   6.294   3.150   0.444  1.1918 -0.5109 -0.7456
 2261TIP3   OH228417   0.255   4.956   3.007 -0.5827  0.1885 -0.4623
 2261TIP3    H128418   0.327   4.895   2.991 -0.6756 -1.0607  3.0822
 2261TIP3    H228419   0.294   5.027   3.059 -1.3613  0.9534 -0.9009
 2262TIP3   OH228420   5.171   5.598   2.766  0.5236 -0.0144 -0.7136
 2262TIP3    H128421   5.136   5.605   2.855 -1.1026 -1.4048 -1.1847
 2262TIP3    H228422   5.093   5.602   2.710  1.4736  0.3262 -2.0502
 2263TIP3   OH228423   1.225   2.338   3.378  0.2153 -0.0404  0.1935
 2263TIP3    H128424   1.171   2.294   3.444  0.8631  1.3514  1.6893
 2263TIP3    H228425   1.282   2.269   3.344 -0.6464 -0.9406  0.5177
 2264TIP3   OH228426   4.168   3.653   2.527  0.3376  0.3677 -0.0879
 2264TIP3    H128427   4.115   3.611   2.594 -1.5056  2.3799 -0.1806
 2264TIP3    H228428   4.125   3.737   2.511  2.5298  1.3109 -1.5286
 2265TIP3   OH228429   1.500   4.662   2.686  0.6144 -0.0377 -0.2040
 2265TIP3    H128430   1.572   4.680   2.626  0.8224 -1.3047 -0.3480
 2265TIP3    H228431   1.517   4.720   2.761  0.9379  0.7671 -0.8813
 2266TIP3   OH228432   3.913   2.928   1.200 -0.3809  0.2953 -0.0933
 2266TIP3    H128433   3.965   2.901   1.275  2.7170  0.4153 -2.0294
 2266TIP3    H228434   3.875   3.012   1.225 -1.2434 -0.6672  2.0478
 2267TIP3   OH228435   1.162   4.183   1.921 -0.0444  0.1335  0.2249
 2267TIP3    H128436   1.181   4.235   1.999  0.7861 -1.9281  1.4909
 2267TIP3    H228437   1.068   4.170   1.923 -0.0905  0.5026  0.5951
 2268TIP3   OH228438   1.429   3.215   2.711  0.7450  1.1959  0.1060
 2268TIP3    H128439   1.366   3.210   2.782  1.3017  0.3820  0.5536
 2268TIP3    H228440   1.508   3.253   2.751  2.3058 -2.4851  0.8900
 2269TIP3   OH228441   1.658   1.132   0.753  0.0330  0.1724  0.4803
 2269TIP3    H128442   1.712   1.105   0.827 -1.3800 -1.2032  1.0717
 2269TIP3    H228443   1.574   1.156   0.791 -1.3714 -2.3835 -0.7441
 2270TIP3   OH228444   2.546   4.096   8.817  0.0154  0.0870 -0.1712
 2270TIP3    H128445   2.598   4.019   8.841 -0.5601  0.0863  1.2220
 2270TIP3    H228446   2.609   4.159   8.782  0.5674 -0.8175 -0.8519
 2271TIP3   OH228447   3.761   6.033   0.188 -0.0281  0.1273  0.0082
 2271TIP3    H128448   3.796   5.953   0.227 -0.1113  0.0374 -0.1011
 2271TIP3    H228449   3.814   6.103   0.226 -0.1739  0.0505  0.3608
 2272TIP3   OH228450   5.040   2.206   1.599  0.0246  0.4508  0.1432
 2272TIP3    H128451   5.119   2.186   1.549  0.1041  1.5900 -0.1989
 2272TIP3    H228452   5.072   2.245   1.681 -0.0785 -1.8493  1.3783
 2273TIP3   OH228453   5.588   2.234   9.039 -0.0387 -0.0648 -0.2934
 2273TIP3    H128454   5.639   2.300   8.993 -2.3575  2.1544  0.0655
 2273TIP3    H228455   5.603   2.252   9.132 -0.9043  0.1951 -0.1906
 2274TIP3   OH228456   0.184   1.848   0.756 -0.2159  0.1084 -0.3014
 2274TIP3    H128457   0.243   1.822   0.686  1.8855 -1.5904  1.9473
 2274TIP3    H228458   0.228   1.921   0.799  0.2846 -1.1195  1.3443
 2275TIP3   OH228459   2.755   0.948   2.089 -0.2460 -0.2899  0.0519
 2275TIP3    H128460   2.705   0.997   2.023  1.0454  0.3291 -0.4916
 2275TIP3    H228461   2.767   1.010   2.160  1.0860  0.1055 -0.4882
 2276TIP3   OH228462   1.396   1.612   3.492 -0.1111 -0.1596  0.6473
 2276TIP3    H128463   1.340   1.672   3.442  0.5404  1.7345  2.0725
 2276TIP3    H228464   1.387   1.640   3.583  0.4838 -2.0559  1.3460
 2277TIP3   OH228465   6.647   5.039   1.762 -0.1298  0.5132  0.2259
 2277TIP3    H128466   6.688   4.969   1.812  0.1450  0.1587 -0.4888
 2277TIP3    H228467   6.557   5.011   1.750 -0.3157  0.8101  0.9084
 2278TIP3   OH228468   4.303   5.890   0.803 -0.0310 -0.3581  0.5207
 2278TIP3    H128469   4.384   5.896   0.752 -0.8581 -2.4077 -1.2265
 2278TIP3    H228470   4.327   5.920   0.890  2.0043  1.2861 -0.5136
 2279TIP3   OH228471   2.343   3.472   0.153  0.8216  0.6044  0.5391
 2279TIP3    H128472   2.413   3.457   0.216  0.8227  0.9860  0.6335
 2279TIP3    H228473   2.362   3.413   0.080  0.6928 -0.0011  0.9951
 2280TIP3   OH228474   0.345   3.006   8.771 -0.3459 -0.6076 -0.1981
 2280TIP3    H128475   0.308   3.094   8.776  0.9880 -0.0086 -0.5080
 2280TIP3    H228476   0.389   3.003   8.687 -0.0247 -1.4298 -0.0098
 2281TIP3   OH228477   4.014   6.648   8.391  0.3289 -0.0575  0.0268
 2281TIP3    H128478   4.041   6.652   8.483 -1.4826  0.0050  0.5932
 2281TIP3    H228479   4.035   6.735   8.356  0.4594  0.1255  0.5487
 2282TIP3   OH228480   5.629   2.454   1.901 -0.0114  0.0540  0.1301
 2282TIP3    H128481   5.667   2.532   1.862 -1.2681  1.1778  1.0765
 2282TIP3    H228482   5.609   2.479   1.991 -0.1496 -1.4674  0.5621
 2283TIP3   OH228483   2.456   4.235   8.004  0.0113 -0.1629  0.3244
 2283TIP3    H128484   2.547   4.218   7.981 -0.3783 -0.3666 -1.1342
 2283TIP3    H228485   2.427   4.302   7.942 -1.1932 -1.0147 -0.0747
 2284TIP3   OH228486   2.726   4.986   3.262  0.1880 -0.4942 -0.2894
 2284TIP3    H128487   2.773   4.927   3.321 -0.2170 -1.2410 -0.7048
 2284TIP3    H228488   2.794   5.043   3.226  0.6540 -1.0110 -0.2448
 2285TIP3   OH228489   5.428   1.960   0.242  0.5670 -0.0260  0.5795
 2285TIP3    H128490   5.415   1.972   0.148  0.0054 -0.2427  0.6249
 2285TIP3    H228491   5.447   1.867   0.251 -1.5898 -0.4799  0.8977
 2286TIP3   OH228492   2.532   3.611   8.486 -0.2820 -0.0132 -0.2651
 2286TIP3    H128493   2.605   3.556   8.516 -0.4700 -0.1085  0.0158
 2286TIP3    H228494   2.529   3.597   8.392 -1.3614 -1.7340 -0.0068
 2287TIP3   OH228495   3.413   1.166   1.617  0.6142 -0.0025 -0.0871
 2287TIP3    H128496   3.330   1.175   1.571  1.0062  0.7389 -0.6834
 2287TIP3    H228497   3.479   1.183   1.551  1.1812  1.7344  0.8523
 2288TIP3   OH228498   1.190   4.372   8.420 -0.2383  0.2014  0.3121
 2288TIP3    H128499   1.201   4.283   8.388 -1.4466 -0.3681  1.3753
 2288TIP3    H228500   1.110   4.403   8.377 -1.4404 -0.2979  2.0400
 2289TIP3   OH228501   1.060   0.054   8.338  0.1448 -0.0988 -0.3030
 2289TIP3    H128502   1.053  -0.035   8.304 -0.1154 -0.1257 -0.1807
 2289TIP3    H228503   1.048   0.111   8.262  0.0354 -0.1650 -0.3350
 2290TIP3   OH228504   2.403   1.250   0.768  0.2769 -0.6845 -0.1194
 2290TIP3    H128505   2.355   1.190   0.825  0.7574 -0.6743  0.3002
 2290TIP3    H228506   2.351   1.331   0.770  0.1597 -0.7641  0.1059
 2291TIP3   OH228507   1.848   3.473   1.376 -0.3482 -0.2842 -0.2621
 2291TIP3    H128508   1.906   3.463   1.452  1.1795 -0.3290 -1.3899
 2291TIP3    H228509   1.827   3.566   1.375  0.3220 -0.1265 -0.2622
 2292TIP3   OH228510   1.210   0.692   8.422  0.0462  0.5592  0.7114
 2292TIP3    H128511   1.285   0.644   8.387  0.2100  0.6454  0.9427
 2292TIP3    H228512   1.237   0.784   8.419 -0.8175  0.7936 -1.1006
 2293TIP3   OH228513   1.925   3.941   3.178  0.3585  0.3371  0.1815
 2293TIP3    H128514   1.986   3.943   3.252 -0.8178 -1.1080  1.2496
 2293TIP3    H228515   1.862   4.010   3.198 -0.5874 -0.7636  1.1456
 2294TIP3   OH228516   5.167   4.105   1.406  0.4611 -0.5063  0.1035
 2294TIP3    H128517   5.205   4.188   1.435 -0.5757  0.1986 -0.5194
 2294TIP3    H228518   5.096   4.088   1.468 -0.4090 -0.0610 -0.7529
 2295TIP3   OH228519   1.587   3.698   0.285 -0.4882  0.3984 -0.2899
 2295TIP3    H128520   1.576   3.643   0.363 -0.7376 -0.3274 -0.8225
 2295TIP3    H228521   1.518   3.668   0.226 -0.4683  1.1277 -0.6844
 2296TIP3   OH228522   1.772   6.393   8.765 -0.3505 -0.2973  0.2450
 2296TIP3    H128523   1.677   6.384   8.772 -0.7446  2.2575 -0.7839
 2296TIP3    H228524   1.795   6.348   8.684 -1.2357  1.7367 -1.2330
 2297TIP3   OH228525   4.915   5.467   8.152  0.3936 -0.7564 -0.4655
 2297TIP3    H128526   4.978   5.410   8.108  1.5421  0.4312 -0.4451
 2297TIP3    H228527   4.829   5.429   8.131  1.1203 -3.0377  0.3690
 2298TIP3   OH228528   1.236   2.893   0.977  0.3439 -0.2514  0.2214
 2298TIP3    H128529   1.311   2.842   1.008  0.1447  0.1074  1.3768
 2298TIP3    H228530   1.166   2.875   1.041 -0.7602 -1.0385 -1.1584
 2299TIP3   OH228531   0.439   0.636   8.203  0.1253  0.3890 -0.4822
 2299TIP3    H128532   0.357   0.686   8.209  0.4575  0.8702  0.1837
 2299TIP3    H228533   0.503   0.700   8.172  0.5400  0.3708  0.3209
 2300TIP3   OH228534   2.892   5.358   8.903  0.2150 -0.4010 -0.8041
 2300TIP3    H128535   2.947   5.423   8.948 -0.9653 -0.1470  0.3146
 2300TIP3    H228536   2.805   5.397   8.901 -0.6633 -2.1529  0.4171
 2301TIP3   OH228537   2.557   5.160   7.694  0.1292  0.3321  0.0237
 2301TIP3    H128538   2.543   5.250   7.722  1.0373  0.3290  0.5338
 2301TIP3    H228539   2.485   5.110   7.732  0.6093  0.5546  1.2532
 2302TIP3   OH228540   3.469   4.346   2.689 -0.4243  0.2521 -0.3627
 2302TIP3    H128541   3.514   4.293   2.756  0.4004  0.2272 -0.9202
 2302TIP3    H228542   3.376   4.337   2.710 -0.2017 -0.0620  0.5535
 2303TIP3   OH228543   1.295   4.595   0.921 -0.3454 -0.4410  0.3633
 2303TIP3    H128544   1.356   4.522   0.909 -1.1062 -1.4374  2.2202
 2303TIP3    H228545   1.332   4.646   0.993 -1.1535 -0.4840  0.8230
 2304TIP3   OH228546   3.109   4.735   2.855  0.8202 -0.0673  0.5077
 2304TIP3    H128547   3.015   4.755   2.857  0.6270 -0.9560  0.6867
 2304TIP3    H228548   3.122   4.688   2.772  0.8358 -1.1491  1.0998
 2305TIP3   OH228549   0.786   5.430   8.222 -0.1771 -0.4933 -0.0956
 2305TIP3    H128550   0.786   5.422   8.127  0.6002  0.0066 -0.1486
 2305TIP3    H228551   0.714   5.374   8.251 -1.1795  0.2751 -1.0482
 2306TIP3   OH228552   1.746   3.358   3.004 -0.2525 -0.1974 -0.0979
 2306TIP3    H128553   1.721   3.310   3.083 -0.6524  1.0863  0.5968
 2306TIP3    H228554   1.683   3.431   3.000  1.2867  1.1834 -0.1986
 2307TIP3   OH228555   1.473   1.160   2.663 -0.2661 -0.5239  0.5511
 2307TIP3    H128556   1.464   1.239   2.609  1.1011  0.3022  1.4824
 2307TIP3    H228557   1.383   1.132   2.679 -0.7836  0.8090  0.1539
 2308TIP3   OH228558   5.336   1.712   0.602 -0.4847 -0.1807  0.1819
 2308TIP3    H128559   5.397   1.768   0.554  0.3598  0.1973  1.6141
 2308TIP3    H228560   5.377   1.702   0.688 -0.7277 -2.7953  0.0597
 2309TIP3   OH228561   3.306   1.268   3.055  0.0998  0.4303 -0.4306
 2309TIP3    H128562   3.264   1.239   3.136 -0.8147  0.1593 -0.9847
 2309TIP3    H228563   3.393   1.298   3.083 -0.2766  0.5574  0.6776
 2310TIP3   OH228564   5.870   3.781   8.803  0.1281  0.0717 -0.3271
 2310TIP3    H128565   5.881   3.841   8.728  1.4008 -0.8705 -0.9333
 2310TIP3    H228566   5.951   3.791   8.853 -0.3281  0.0025  0.4448
 2311TIP3   OH228567   3.108   2.832   1.017  0.9161 -0.0449  0.4468
 2311TIP3    H128568   3.067   2.918   1.016 -2.0232 -1.3458 -1.1955
 2311TIP3    H228569   3.164   2.831   0.940 -1.5313 -0.6085 -1.4221
 2312TIP3   OH228570   6.104   4.250   2.926  0.3861 -0.7720 -0.8177
 2312TIP3    H128571   6.075   4.275   3.014 -0.7083  1.6115 -1.7697
 2312TIP3    H228572   6.042   4.182   2.899 -0.9412  0.3481 -0.7029
 2313TIP3   OH228573   5.730   3.099   1.839  0.1820  0.0969 -0.5544
 2313TIP3    H128574   5.806   3.071   1.890  0.5115 -1.7254 -1.9258
 2313TIP3    H228575   5.659   3.106   1.903  1.6053  2.5878  0.8845
 2314TIP3   OH228576   2.953   2.849   2.630  0.2122 -0.1332  0.0228
 2314TIP3    H128577   2.937   2.783   2.697 -0.6148 -1.2061 -1.1966
 2314TIP3    H228578   2.891   2.828   2.560  0.4557  1.4849 -0.7154
 2315TIP3   OH228579   1.816   3.877   1.537 -0.2280  0.0164  0.1512
 2315TIP3    H128580   1.843   3.862   1.627  0.4124 -1.2355 -0.2318
 2315TIP3    H228581   1.770   3.961   1.540 -0.9924 -0.4120  1.7912
 2316TIP3   OH228582   3.591   0.153   1.473 -0.0781 -0.1047  0.0643
 2316TIP3    H128583   3.517   0.129   1.417  0.0286 -1.8949  0.6262
 2316TIP3    H228584   3.588   0.090   1.545  0.8190  1.0562  1.1721
 2317TIP3   OH228585   3.711   2.995   1.870  0.2913  0.4078  0.1780
 2317TIP3    H128586   3.719   3.035   1.957 -1.0689  1.5007 -0.1684
 2317TIP3    H228587   3.618   2.999   1.850  0.3491 -1.3607 -0.6494
 2318TIP3   OH228588   5.084   0.957   2.141  0.4673 -0.0114 -0.2502
 2318TIP3    H128589   5.029   0.928   2.068 -0.9836  0.5270  0.5732
 2318TIP3    H228590   5.050   0.908   2.216  0.9244  0.5627  0.3418
 2319TIP3   OH228591   3.726   3.080   2.204  0.4202  0.3159  0.4325
 2319TIP3    H128592   3.813   3.119   2.211  0.5813 -0.3114  2.7180
 2319TIP3    H228593   3.709   3.044   2.291 -2.7794  1.7752  0.5625
 2320TIP3   OH228594   0.758   1.968   3.152 -0.8771  0.3706  0.6615
 2320TIP3    H128595   0.765   2.024   3.229 -0.4577  1.5570 -0.1921
 2320TIP3    H228596   0.693   2.012   3.097  0.1562  0.5646 -0.4482
 2321TIP3   OH228597   5.053   3.215   3.154  0.3460 -0.2349  0.6488
 2321TIP3    H128598   5.087   3.125   3.158  1.6441  0.2642  2.2176
 2321TIP3    H228599   4.971   3.208   3.105  0.7684 -2.1526  0.1307
 2322TIP3   OH228600   5.863   5.276   0.854 -0.1177 -0.2822 -0.1546
 2322TIP3    H128601   5.820   5.361   0.866 -1.0660 -0.4921 -1.7259
 2322TIP3    H228602   5.872   5.267   0.759 -0.2171 -2.0295 -0.0316
 2323TIP3   OH228603   0.414   5.461   2.901  0.5572  0.2204 -0.2277
 2323TIP3    H128604   0.417   5.370   2.871  1.1195 -0.0671  0.6644
 2323TIP3    H228605   0.416   5.454   2.997  0.0250  1.1545 -0.1398
 2324TIP3   OH228606   5.055   2.785   8.871  0.2287  0.1544  0.6989
 2324TIP3    H128607   5.136   2.794   8.821  0.2812  0.1767  0.7885
 2324TIP3    H228608   5.005   2.864   8.849 -0.8800 -1.0314 -1.3645
 2325TIP3   OH228609   2.498   3.380   2.596 -0.3921  0.1256  0.3562
 2325TIP3    H128610   2.435   3.315   2.565 -0.0990  0.2062 -0.4173
 2325TIP3    H228611   2.445   3.448   2.637 -0.7801 -0.0056  0.0726
 2326TIP3   OH228612   1.423   5.236   2.352 -0.2242  0.0107 -0.0264
 2326TIP3    H128613   1.389   5.287   2.425  2.7817 -0.3039  1.7737
 2326TIP3    H228614   1.348   5.184   2.322 -1.8853  1.0916  1.9740
 2327TIP3   OH228615   2.189   5.019   2.848 -0.3523  0.2070  0.7590
 2327TIP3    H128616   2.149   4.945   2.895  0.2884 -0.0607  0.8942
 2327TIP3    H228617   2.134   5.094   2.871 -0.5116 -0.0702  1.3060
 2328TIP3   OH228618   6.725   2.320   2.061 -0.0079  0.5047 -0.5856
 2328TIP3    H128619   6.819   2.310   2.076 -0.0902  0.6163  0.0601
 2328TIP3    H228620   6.684   2.266   2.130 -0.4153 -0.8624 -1.8457
 2329TIP3   OH228621   0.427   5.982   0.372 -0.3457 -0.9111  0.4148
 2329TIP3    H128622   0.348   6.016   0.414 -0.4368  0.0315 -0.4903
 2329TIP3    H228623   0.468   6.058   0.333 -1.2623 -1.9367 -2.8771
 2330TIP3   OH228624   5.583   6.676   0.951  0.2998  0.2494  0.3135
 2330TIP3    H128625   5.628   6.724   0.881  4.5850 -2.1302  1.0462
 2330TIP3    H228626   5.532   6.609   0.905 -0.7439  1.5598 -0.5228
 2331TIP3   OH228627   6.673   3.631   1.047 -0.2565 -0.4357 -1.0693
 2331TIP3    H128628   6.628   3.570   0.989  0.6202 -1.0403 -1.1457
 2331TIP3    H228629   6.604   3.686   1.083 -1.0965 -1.6228 -0.8293
 2332TIP3   OH228630   4.681   3.219   7.449  0.5000  0.3327  0.2397
 2332TIP3    H128631   4.625   3.256   7.381 -0.4457  2.0328  1.8442
 2332TIP3    H228632   4.628   3.151   7.489 -0.1865  1.4163  1.2452
 2333TIP3   OH228633   3.148   1.512   0.592  0.4102  0.6274  0.1155
 2333TIP3    H128634   3.123   1.530   0.502 -1.6972 -1.2549  0.2333
 2333TIP3    H228635   3.068   1.529   0.643  1.0925  0.1360  1.4115
 2334TIP3   OH228636   2.065   5.975   2.688  0.0784 -0.2482  0.3432
 2334TIP3    H128637   2.125   5.942   2.755  0.1362 -1.8002 -0.4411
 2334TIP3    H228638   1.995   5.911   2.684 -0.1389  0.0329 -0.7954
 2335TIP3   OH228639   0.138   3.971   3.228  0.1077  0.2866 -0.1608
 2335TIP3    H128640   0.108   4.008   3.145 -1.7984  0.8693  0.7281
 2335TIP3    H228641   0.076   4.004   3.293 -0.3477 -2.6058  1.0489
 2336TIP3   OH228642   0.802   5.119   1.587  0.3370 -0.4042 -0.2360
 2336TIP3    H128643   0.772   5.030   1.605 -2.0198  0.3696 -0.0455
 2336TIP3    H228644   0.793   5.128   1.492  1.0831 -0.5301 -0.3218
 2337TIP3   OH228645   4.929   2.505   1.922  0.2076 -0.7286  1.2337
 2337TIP3    H128646   4.972   2.520   2.006  0.0231 -2.3025  1.6414
 2337TIP3    H228647   4.863   2.573   1.916  1.7808  0.8896  1.2405
 2338TIP3   OH228648   3.112   4.394   1.430  0.1726 -0.5948  0.9002
 2338TIP3    H128649   3.097   4.488   1.439 -2.0235 -0.8328  0.3711
 2338TIP3    H228650   3.125   4.381   1.336 -0.3827 -0.9244  0.8692
 2339TIP3   OH228651   2.302   1.313   8.235 -0.0572 -0.4752  0.0498
 2339TIP3    H128652   2.221   1.361   8.252  1.0983  1.9727 -0.8972
 2339TIP3    H228653   2.295   1.288   8.143 -1.0467 -3.0808  0.7510
 2340TIP3   OH228654   4.347   6.242   8.082  0.5030  0.4709 -0.5748
 2340TIP3    H128655   4.405   6.180   8.038  0.2472  0.1321 -0.4387
 2340TIP3    H228656   4.266   6.240   8.031 -0.1776 -0.7052  0.4749
 2341TIP3   OH228657   1.554   0.678   8.014  0.6480 -0.1574 -0.1420
 2341TIP3    H128658   1.563   0.597   7.964 -0.3083  0.8686 -2.0702
 2341TIP3    H228659   1.460   0.696   8.013  0.9397  1.4424 -0.5570
 2342TIP3   OH228660   6.033   5.530   2.242 -0.5515 -0.2201 -0.4258
 2342TIP3    H128661   6.043   5.622   2.266 -0.2242 -0.0678 -1.1179
 2342TIP3    H228662   5.964   5.497   2.300 -0.5182  0.4036 -0.0285
 2343TIP3   OH228663   0.625   0.815   8.377  0.1099 -0.0233  0.0810
 2343TIP3    H128664   0.563   0.766   8.432 -1.0409  1.0975 -0.1623
 2343TIP3    H228665   0.570   0.877   8.329  1.3126  0.2325 -1.0107
 2344TIP3   OH228666   4.452   2.855   2.242  0.1670  0.3437 -0.2930
 2344TIP3    H128667   4.523   2.908   2.277  0.2195  0.3666 -0.4313
 2344TIP3    H228668   4.477   2.765   2.262 -0.1666  0.3949  0.3917
 2345TIP3   OH228669   6.712   3.611   8.182  0.2961  0.1286  0.4846
 2345TIP3    H128670   6.645   3.672   8.151  0.8652  1.0272  0.9649
 2345TIP3    H228671   6.787   3.627   8.125  0.0894 -0.9056 -0.0831
 2346TIP3   OH228672   6.240   1.508   7.630 -0.6888  0.4941 -0.0037
 2346TIP3    H128673   6.267   1.565   7.558  0.8941 -0.0039  0.1592
 2346TIP3    H228674   6.191   1.565   7.689  0.3766  1.5740 -0.1281
 2347TIP3   OH228675   2.959   2.996   0.094 -0.0068  0.4615  0.6507
 2347TIP3    H128676   2.993   3.026   0.179 -0.1701  0.3231  0.7664
 2347TIP3    H228677   3.037   2.974   0.044  0.1927  2.2314  0.1143
 2348TIP3   OH228678   1.534   5.702   0.606 -0.0803 -0.0908 -0.9791
 2348TIP3    H128679   1.479   5.722   0.682 -0.1091  3.2976 -1.7145
 2348TIP3    H228680   1.614   5.664   0.643 -1.0895 -0.8778  0.4829
 2349TIP3   OH228681   4.147   4.401   0.280  0.3704  0.2432  0.3363
 2349TIP3    H128682   4.234   4.408   0.320  0.6299  0.3984 -0.2401
 2349TIP3    H228683   4.162   4.351   0.200 -0.3975 -1.4302  1.1921
 2350TIP3   OH228684   5.712   4.224   2.047 -0.5023  0.0609  0.1584
 2350TIP3    H128685   5.636   4.276   2.074 -0.8038 -1.0568  1.6124
 2350TIP3    H228686   5.776   4.237   2.118 -0.9626 -2.2701  1.0899
 2351TIP3   OH228687   6.098   1.600   8.959 -0.2490  0.1601 -0.6361
 2351TIP3    H128688   6.153   1.667   8.918 -0.8000 -0.1010 -1.8646
 2351TIP3    H228689   6.023   1.648   8.994  1.2903  0.7042  2.2326
 2352TIP3   OH228690   4.851   1.871   2.608 -0.0535 -0.1536 -0.6066
 2352TIP3    H128691   4.793   1.796   2.602 -1.8162  1.0699  0.2684
 2352TIP3    H228692   4.896   1.874   2.524 -0.7089 -1.5723 -1.0338
 2353TIP3   OH228693   6.105   2.795   2.559 -0.3380 -0.5953 -0.1825
 2353TIP3    H128694   6.156   2.842   2.625  0.7480 -1.2207 -0.5681
 2353TIP3    H228695   6.107   2.704   2.586 -2.4275 -0.4807  0.5474
 2354TIP3   OH228696   1.687   0.569   1.271  0.7671  0.0660 -0.8973
 2354TIP3    H128697   1.734   0.569   1.355 -1.6328  0.7249  0.5585
 2354TIP3    H228698   1.613   0.627   1.286 -0.3202 -0.6357 -3.1668
 2355TIP3   OH228699   2.428   2.547   0.463 -0.1041 -0.1686 -0.0992
 2355TIP3    H128700   2.523   2.539   0.459 -0.1817 -0.7583 -1.4244
 2355TIP3    H228701   2.411   2.597   0.543  1.2368 -1.1298  0.8167
 2356TIP3   OH228702   0.151   1.355   1.747  0.4008 -0.1283  0.7805
 2356TIP3    H128703   0.228   1.372   1.692 -0.8989  1.0831 -0.7523
 2356TIP3    H228704   0.122   1.442   1.775 -1.2734 -0.4277  0.0778
 2357TIP3   OH228705   1.743   6.535   0.058 -0.0104 -0.0841  0.3034
 2357TIP3    H128706   1.807   6.597   0.093  1.2244 -1.5156  0.6242
 2357TIP3    H228707   1.731   6.470   0.126 -0.0416 -1.1203 -0.6603
 2358TIP3   OH228708   4.494   1.957   8.655 -0.1327 -0.0774 -0.6493
 2358TIP3    H128709   4.414   1.947   8.603 -2.1586 -1.2025  2.4163
 2358TIP3    H228710   4.509   2.051   8.657 -1.1010  0.1316 -1.6310
 2359TIP3   OH228711   0.653   0.239   8.634  0.0721  0.5180 -0.3996
 2359TIP3    H128712   0.650   0.266   8.542  0.5434  1.2434 -0.2130
 2359TIP3    H228713   0.668   0.320   8.682 -3.4473  0.7396  0.6295
 2360TIP3   OH228714   5.955   1.412   2.901  0.1491  0.0234 -0.1169
 2360TIP3    H128715   6.030   1.465   2.927 -0.1260 -0.5727  2.0979
 2360TIP3    H228716   5.879   1.465   2.925 -0.3089  1.4032 -3.9372
 2361TIP3   OH228717   2.569   0.802   1.769  0.4015  0.0625 -0.0576
 2361TIP3    H128718   2.656   0.823   1.735  1.2963 -1.4822  1.1388
 2361TIP3    H228719   2.553   0.712   1.740 -1.1867  0.5807 -0.9411
 2362TIP3   OH228720   2.234   2.174   8.111  0.5088  0.5354 -0.0818
 2362TIP3    H128721   2.212   2.185   8.203 -0.4425 -0.9387 -0.1010
 2362TIP3    H228722   2.199   2.253   8.068 -1.8894 -0.1789  0.3937
 2363TIP3   OH228723   2.976   4.091   0.309 -0.1400 -0.0770 -0.8313
 2363TIP3    H128724   2.893   4.071   0.265  0.0708 -1.0212 -0.8141
 2363TIP3    H228725   2.999   4.179   0.278 -2.0102  0.9590  0.5016
 2364TIP3   OH228726   6.030   6.143   0.545  0.8250 -1.1647 -0.6874
 2364TIP3    H128727   6.005   6.154   0.636 -1.5842 -0.9963 -1.2921
 2364TIP3    H228728   6.124   6.130   0.547  1.0503  0.3093  1.6851
 2365TIP3   OH228729   4.059   4.128   1.870 -0.8371  0.0983  0.2265
 2365TIP3    H128730   4.153   4.139   1.886 -0.7942 -1.6524  1.4689
 2365TIP3    H228731   4.045   4.169   1.784  0.7092  1.8623  0.7482
 2366TIP3   OH228732   2.504   4.632   2.918 -0.0932  0.6278 -0.4697
 2366TIP3    H128733   2.463   4.717   2.902 -1.3391 -0.1819 -1.7279
 2366TIP3    H228734   2.557   4.646   2.997 -1.0858  2.2876 -0.0481
 2367TIP3   OH228735   0.757   5.283   1.918 -0.2795  0.3794  0.3277
 2367TIP3    H128736   0.663   5.265   1.920 -0.3354  0.6490  0.0904
 2367TIP3    H228737   0.764   5.376   1.895  0.0724  0.1077 -0.7002
 2368TIP3   OH228738   2.241   2.531   1.420 -0.7049 -0.0093  0.0756
 2368TIP3    H128739   2.321   2.582   1.406  0.1322 -1.2006  0.4574
 2368TIP3    H228740   2.232   2.479   1.340 -0.2424 -1.0038  0.6536
 2369TIP3   OH228741   6.500   0.176   8.266 -0.0782  0.4320  0.1877
 2369TIP3    H128742   6.439   0.101   8.272  1.4429 -0.9660 -0.8710
 2369TIP3    H228743   6.476   0.218   8.183  0.9006 -0.6501 -0.6851
 2370TIP3   OH228744   1.368   0.904   1.704  0.1229 -0.2466 -0.1357
 2370TIP3    H128745   1.413   0.988   1.706  0.7730 -0.6054  0.4617
 2370TIP3    H228746   1.279   0.925   1.733  0.4697  0.1264  0.6923
 2371TIP3   OH228747   6.380   2.072   0.488  0.5667 -0.4185  0.4138
 2371TIP3    H128748   6.353   2.133   0.419  0.4737  1.9873  2.4380
 2371TIP3    H228749   6.460   2.031   0.454 -0.6135 -0.9069 -1.9437
 2372TIP3   OH228750   3.468   0.951   0.607  0.0014 -0.6459  0.5120
 2372TIP3    H128751   3.456   1.037   0.648 -0.4161 -0.1154 -0.6645
 2372TIP3    H228752   3.413   0.955   0.529 -0.7218 -2.3313  0.9000
 2373TIP3   OH228753   1.706   0.818   0.695  0.0790  0.0439  0.2791
 2373TIP3    H128754   1.611   0.833   0.703  0.0031 -0.7234  0.9033
 2373TIP3    H228755   1.743   0.861   0.772  0.2725  0.5503 -0.0888
 2374TIP3   OH228756   2.973   1.538   1.335 -0.2837  0.3245 -0.0898
 2374TIP3    H128757   2.995   1.548   1.427  0.4288 -1.6337 -0.0049
 2374TIP3    H228758   2.952   1.445   1.324  0.2181  0.3776 -2.0065
 2375TIP3   OH228759   5.738   0.341   8.703  0.1432 -0.2904 -0.5830
 2375TIP3    H128760   5.808   0.362   8.765 -0.2359  0.0422 -0.2591
 2375TIP3    H228761   5.763   0.257   8.666  1.0935  0.1699 -1.0213
 2376TIP3   OH228762   4.892   2.038   0.081 -0.0495  0.3411 -0.7963
 2376TIP3    H128763   4.955   2.097   0.122  0.0934 -1.0620  1.1090
 2376TIP3    H228764   4.832   2.014   0.151 -2.4473  1.1922 -2.4274
 2377TIP3   OH228765   2.336   0.461   1.677 -0.5569  0.5353 -0.4500
 2377TIP3    H128766   2.345   0.497   1.588 -0.4741 -0.1481 -0.7296
 2377TIP3    H228767   2.408   0.500   1.726  0.5585 -0.5277 -1.1879
 2378TIP3   OH228768   6.623   3.857   0.041 -0.7106 -0.4682  0.4693
 2378TIP3    H128769   6.588   3.806   0.115  1.8661 -0.4269  1.8311
 2378TIP3    H228770   6.677   3.794  -0.007 -0.8331 -0.0193 -0.2580
 2379TIP3   OH228771   0.152   4.590   8.699  0.4162  0.2951  0.1234
 2379TIP3    H128772   0.179   4.578   8.790 -0.6187  0.0123  0.4061
 2379TIP3    H228773   0.089   4.662   8.702 -0.2354 -0.2529 -0.2473
 2380TIP3   OH228774   1.780   3.440   8.981 -0.3561 -0.1389 -0.4161
 2380TIP3    H128775   1.826   3.503   8.926 -1.1783  1.9986  1.1865
 2380TIP3    H228776   1.768   3.486   9.065 -0.5665 -2.6370  1.0055
 2381TIP3   OH228777   0.935   5.720   2.495 -0.0799  0.1138 -0.2164
 2381TIP3    H128778   0.970   5.646   2.545 -0.6366 -0.0132 -0.0109
 2381TIP3    H228779   1.013   5.765   2.462  0.2756 -0.2467  0.1160
 2382TIP3   OH228780   5.001   2.575   1.518 -0.0609 -0.4063  0.3062
 2382TIP3    H128781   5.077   2.573   1.459 -0.6435  1.5935 -0.5767
 2382TIP3    H228782   5.038   2.590   1.604  0.6365 -0.7837  0.0810
 2383TIP3   OH228783   1.734   0.295   7.529 -0.3325  0.2250 -0.7974
 2383TIP3    H128784   1.759   0.265   7.442 -1.2096  2.2017 -1.7660
 2383TIP3    H228785   1.639   0.303   7.526 -0.8034 -2.7283  1.3998
 2384TIP3   OH228786   4.347   2.834   0.555 -0.0898 -0.7297  0.9779
 2384TIP3    H128787   4.428   2.811   0.510  0.6685  1.2684  1.1804
 2384TIP3    H228788   4.373   2.901   0.618 -2.0039  0.6369  0.4349
 2385TIP3   OH228789   3.357   3.313   7.415 -0.3016 -0.1222  0.0670
 2385TIP3    H128790   3.392   3.232   7.378 -1.3117 -0.6424  0.2118
 2385TIP3    H228791   3.380   3.381   7.351  0.9616 -0.4409  0.1733
 2386TIP3   OH228792   1.166   1.604   3.709  0.3414  0.0205  0.0077
 2386TIP3    H128793   1.109   1.645   3.644 -0.4592 -2.2625 -0.8037
 2386TIP3    H228794   1.121   1.617   3.793 -0.5050 -0.2737 -0.3983
 2387TIP3   OH228795   5.255   4.139   2.115  0.1852  0.3651  0.4272
 2387TIP3    H128796   5.296   4.106   2.195  3.0482  0.6851 -0.8079
 2387TIP3    H228797   5.161   4.136   2.134  0.6327 -1.8273  2.9048
 2388TIP3   OH228798   6.613   0.850   8.711  0.2314  0.1850 -0.0077
 2388TIP3    H128799   6.556   0.926   8.699 -1.7346 -1.2992 -0.5584
 2388TIP3    H228800   6.641   0.827   8.622  0.8752  0.2846  0.1640
 2389TIP3   OH228801   5.805   4.214   1.456 -0.4613  0.2873 -0.4368
 2389TIP3    H128802   5.812   4.123   1.428 -0.4227  0.7903 -2.1911
 2389TIP3    H228803   5.892   4.236   1.488 -0.0922  0.1044 -1.2999
 2390TIP3   OH228804   2.438   6.354   7.725  0.6411 -0.0391  0.4421
 2390TIP3    H128805   2.383   6.341   7.802 -1.2198 -0.0309 -0.8184
 2390TIP3    H228806   2.376   6.366   7.653  2.2940 -1.6430 -1.3445
 2391TIP3   OH228807   4.062   5.593   8.769  0.1982 -0.2829  0.3879
 2391TIP3    H128808   3.982   5.646   8.758 -0.4799 -0.2540  4.0728
 2391TIP3    H228809   4.117   5.617   8.695 -1.7142  2.5617 -0.2823
 2392TIP3   OH228810   0.374   6.224   0.778  0.0750  0.4441  0.7756
 2392TIP3    H128811   0.369   6.162   0.851 -1.8670 -0.6732 -0.2283
 2392TIP3    H228812   0.399   6.307   0.818 -0.2937 -0.2790  2.5998
 2393TIP3   OH228813   3.586   0.846   8.657  1.0020  0.1268 -0.6683
 2393TIP3    H128814   3.586   0.843   8.561 -0.2766 -0.7738 -0.6670
 2393TIP3    H228815   3.605   0.756   8.684 -2.1976 -0.5035 -0.1616
 2394TIP3   OH228816   6.470   2.844   1.841  0.3233  0.0227  0.1553
 2394TIP3    H128817   6.394   2.892   1.875  0.0356 -0.7951  0.7001
 2394TIP3    H228818   6.530   2.839   1.916  0.1984 -0.7720  0.2057
 2395TIP3   OH228819   6.461   5.073   2.982  0.3797 -0.2503  0.0493
 2395TIP3    H128820   6.490   5.095   3.070  2.8848  1.9863 -1.2039
 2395TIP3    H228821   6.541   5.056   2.933 -0.9603 -1.9143 -1.7430
 2396TIP3   OH228822   2.428   5.690   7.675  0.3101  0.1169 -0.8214
 2396TIP3    H128823   2.486   5.761   7.649  0.4314  0.0946 -0.6128
 2396TIP3    H228824   2.443   5.680   7.769  0.0621  0.0267 -0.7907
 2397TIP3   OH228825   0.315   3.980   0.454  0.2880 -0.5302  0.3870
 2397TIP3    H128826   0.228   3.986   0.492  0.3186  0.2640  0.3462
 2397TIP3    H228827   0.369   3.941   0.522 -0.4797 -2.8379 -0.2393
 2398TIP3   OH228828   4.284   0.245   7.975  0.3830  0.2885 -0.7471
 2398TIP3    H128829   4.256   0.187   7.904 -1.0388  0.3158 -0.2390
 2398TIP3    H228830   4.355   0.297   7.937  2.1297 -2.1423 -1.0519
 2399TIP3   OH228831   6.007   2.159   0.487 -0.1080 -0.2019 -0.0419
 2399TIP3    H128832   5.919   2.140   0.520 -0.7973 -1.4182 -2.3740
 2399TIP3    H228833   6.064   2.097   0.532 -0.8815 -1.2575 -0.4821
 2400TIP3   OH228834   1.662   0.041   2.125 -0.1508  0.3743 -0.1741
 2400TIP3    H128835   1.613   0.086   2.193 -0.4801  2.5497 -1.7305
 2400TIP3    H228836   1.716   0.109   2.085  0.8765 -1.0533 -1.3544
 2401TIP3   OH228837   6.698   3.317   1.708 -0.0907 -0.1045 -0.2106
 2401TIP3    H128838   6.642   3.306   1.784 -0.3912 -2.5025 -0.6925
 2401TIP3    H228839   6.651   3.379   1.652 -1.6195 -0.9787  0.0345
 2402TIP3   OH228840   0.145   4.578   1.259  0.0608  0.7920 -0.2651
 2402TIP3    H128841   0.145   4.539   1.346 -1.5684  0.6554 -0.2935
 2402TIP3    H228842   0.175   4.508   1.201  0.6571  0.7275  0.1126
 2403TIP3   OH228843   5.460   0.537   2.420 -0.0122  0.1354  0.4223
 2403TIP3    H128844   5.392   0.480   2.384 -0.3520  1.0920 -0.5061
 2403TIP3    H228845   5.421   0.625   2.417  1.1837  0.6758  0.0518
 2404TIP3   OH228846   2.073   5.598   0.673 -0.1672 -0.1967  0.5208
 2404TIP3    H128847   1.994   5.632   0.631  0.3563 -0.1705 -0.4865
 2404TIP3    H228848   2.050   5.591   0.766 -1.2913 -0.0453  0.2696
 2405TIP3   OH228849   3.854   1.711   1.842  0.2586 -0.4429 -0.2265
 2405TIP3    H128850   3.843   1.636   1.783 -0.7656 -0.5918  0.1391
 2405TIP3    H228851   3.948   1.714   1.859  0.3665 -1.3696 -0.6043
 2406TIP3   OH228852   1.378   4.512   1.579  0.0236  0.4498  0.0556
 2406TIP3    H128853   1.392   4.447   1.648  1.1034 -1.3361 -1.7437
 2406TIP3    H228854   1.467   4.540   1.555 -0.2966  0.6337 -0.9515
 2407TIP3   OH228855   4.755   2.653   0.141  0.2439  0.4349  0.2770
 2407TIP3    H128856   4.770   2.560   0.128  0.2218 -0.1224  3.4424
 2407TIP3    H228857   4.661   2.659   0.158  0.0656  1.2253 -0.8478
 2408TIP3   OH228858   5.086   0.115   7.511 -0.3538 -0.5590  0.1561
 2408TIP3    H128859   4.995   0.129   7.537 -0.4464  1.7205 -1.1034
 2408TIP3    H228860   5.134   0.187   7.552  0.1749  0.5982 -2.2973
 2409TIP3   OH228861   2.709   5.632   1.787 -0.0899  0.2862 -0.4023
 2409TIP3    H128862   2.742   5.652   1.874  0.8083  0.8765 -0.8658
 2409TIP3    H228863   2.636   5.571   1.802  1.4889 -1.4506  0.6143
 2410TIP3   OH228864   4.501   6.722   2.575 -0.3465  0.6097 -0.5533
 2410TIP3    H128865   4.514   6.806   2.531  1.0009  0.7192  0.0013
 2410TIP3    H228866   4.548   6.730   2.658 -0.3677 -0.6169 -0.3972
 2411TIP3   OH228867   5.687   3.529   1.281  0.2843 -0.1273  0.0406
 2411TIP3    H128868   5.633   3.564   1.210  1.8590 -0.1343 -1.2048
 2411TIP3    H228869   5.703   3.438   1.255  1.0204 -0.0773  0.2972
 2412TIP3   OH228870   5.886   1.192   8.625 -0.4361  0.2013  0.1523
 2412TIP3    H128871   5.979   1.186   8.648 -0.8114  0.1601  1.7879
 2412TIP3    H228872   5.863   1.103   8.597  0.1598  0.3686 -0.9211
 2413TIP3   OH228873   0.025   4.995   1.112 -0.5264  0.6204  0.0449
 2413TIP3    H128874   0.114   5.003   1.079 -0.1540 -0.4862  0.7142
 2413TIP3    H228875   0.015   5.069   1.173  0.1710  0.3780  0.4636
 2414TIP3   OH228876   1.473   0.806   1.314 -0.2493 -0.0868  0.5622
 2414TIP3    H128877   1.382   0.802   1.343 -0.6417  0.2857 -0.5524
 2414TIP3    H228878   1.478   0.886   1.261  0.6834 -0.1866  0.4770
 2415TIP3   OH228879   0.201   2.147   0.672  0.1307 -0.5185 -0.1073
 2415TIP3    H128880   0.109   2.123   0.663  0.1530  0.1178 -3.0091
 2415TIP3    H228881   0.201   2.211   0.743 -1.6615 -0.5493 -0.0130
 2416TIP3   OH228882   5.863   0.053   0.016  0.3693 -0.0358  0.0041
 2416TIP3    H128883   5.873  -0.026  -0.038 -0.4778 -0.2393  0.1400
 2416TIP3    H228884   5.953   0.081   0.033  0.6630 -0.3111 -1.0155
 2417TIP3   OH228885   1.929   6.370   1.910 -0.3732 -0.0894  0.9674
 2417TIP3    H128886   1.865   6.414   1.967 -0.7079  0.8148 -0.0894
 2417TIP3    H228887   1.883   6.359   1.827 -0.1637 -2.1111  1.0700
 2418TIP3   OH228888   4.944   1.720   1.305  0.0696 -0.6532 -0.2384
 2418TIP3    H128889   5.011   1.772   1.349  1.2025 -2.1932 -0.0370
 2418TIP3    H228890   4.885   1.692   1.376 -0.2655 -0.0680 -0.2786
 2419TIP3   OH228891   5.418   2.870   2.967 -0.0813  0.2460 -0.1978
 2419TIP3    H128892   5.400   2.821   2.887  0.8307  1.7638 -1.3851
 2419TIP3    H228893   5.475   2.813   3.018 -0.1518 -0.4914 -0.9177
 2420TIP3   OH228894   3.686   0.969   0.267  0.0729  0.1084  0.2150
 2420TIP3    H128895   3.656   0.886   0.231  0.3951  0.4793 -0.9631
 2420TIP3    H228896   3.625   0.988   0.339  0.4814 -1.5220  1.0400
 2421TIP3   OH228897   5.402   1.242   2.887  0.1021 -0.7895  0.1068
 2421TIP3    H128898   5.364   1.245   2.975  0.3256  0.7135  0.1715
 2421TIP3    H228899   5.496   1.252   2.901  0.0606  0.3332 -0.3462
 2422TIP3   OH228900   3.571   5.986   2.404  0.4805 -0.5122 -0.4952
 2422TIP3    H128901   3.596   6.037   2.480  1.1926  0.2509 -1.2183
 2422TIP3    H228902   3.653   5.950   2.371  0.0940 -1.4240 -0.5040
 2423TIP3   OH228903   1.178   3.967   0.136  0.2714 -0.0518 -0.0038
 2423TIP3    H128904   1.120   3.926   0.072  1.0771 -0.5006 -0.4601
 2423TIP3    H228905   1.184   3.904   0.207  0.0201  0.0946  0.1479
 2424TIP3   OH228906   6.605   5.660   1.533  0.2635  0.0305  0.0146
 2424TIP3    H128907   6.543   5.697   1.471 -0.7934  0.7108  1.4083
 2424TIP3    H228908   6.595   5.714   1.612  0.3570 -1.7883  1.3377
 2425TIP3   OH228909   0.294   4.862   1.438 -0.5253  0.2436 -0.0246
 2425TIP3    H128910   0.223   4.801   1.458 -1.4395  1.3694  0.2861
 2425TIP3    H228911   0.348   4.816   1.374 -0.6750 -1.2320  0.8740
 2426TIP3   OH228912   4.636   2.017   2.716 -0.4576  0.1664 -0.0914
 2426TIP3    H128913   4.691   2.095   2.702  0.0197  0.0253  0.9466
 2426TIP3    H228914   4.680   1.948   2.666 -1.6716  0.8489 -2.2354
 2427TIP3   OH228915   4.863   0.112   2.324 -0.2167 -0.1989  0.2204
 2427TIP3    H128916   4.818   0.029   2.340  0.3480 -0.4225  0.6968
 2427TIP3    H228917   4.890   0.108   2.233  0.1335 -0.7020  0.3450
 2428TIP3   OH228918   5.029   2.092   8.864  0.6211  0.0238  0.6063
 2428TIP3    H128919   5.040   2.120   8.773  0.4679  2.1217  1.1696
 2428TIP3    H228920   5.117   2.070   8.893  0.9203  0.8996  0.3944
 2429TIP3   OH228921   4.853   1.409   2.203  0.0538  0.2837 -0.3634
 2429TIP3    H128922   4.905   1.379   2.277 -0.6889  2.5360  1.1506
 2429TIP3    H228923   4.916   1.452   2.145  0.2976  0.4721  0.0433
 2430TIP3   OH228924   5.168   0.522   1.008  0.2800  0.2344 -0.1352
 2430TIP3    H128925   5.226   0.449   0.983  0.4043 -0.1875  1.2982
 2430TIP3    H228926   5.088   0.507   0.957  0.4603 -0.6704 -0.1715
 2431TIP3   OH228927   1.416   3.211   2.991  0.4183  0.5888 -0.0256
 2431TIP3    H128928   1.330   3.185   3.023  0.5583  0.0349 -0.0837
 2431TIP3    H228929   1.425   3.303   3.016 -0.1456  0.6201  0.0684
 2432TIP3   OH228930   5.932   5.535   1.360 -0.4388  0.5590 -0.1459
 2432TIP3    H128931   5.877   5.464   1.391 -1.8465  2.0401  0.9311
 2432TIP3    H228932   5.975   5.501   1.282 -2.4298 -0.8608 -0.6816
 2433TIP3   OH228933   4.618   3.270   8.156 -0.0692 -0.6028 -0.1126
 2433TIP3    H128934   4.553   3.240   8.220  0.9921 -1.5087  0.5583
 2433TIP3    H228935   4.568   3.328   8.098 -2.2234 -3.5018 -1.4369
 2434TIP3   OH228936   2.029   4.561   3.194  0.6600 -0.0784  0.0253
 2434TIP3    H128937   2.053   4.551   3.287  1.3396  0.5201 -0.0781
 2434TIP3    H228938   2.112   4.552   3.147  0.0705 -2.4218 -0.7135
 2435TIP3   OH228939   3.661   2.493   1.759  0.0213 -0.3253 -0.5779
 2435TIP3    H128940   3.689   2.552   1.828  0.1886 -0.7507 -0.2742
 2435TIP3    H228941   3.570   2.472   1.782 -0.6425  1.1982 -1.6625
 2436TIP3   OH228942   2.721   4.256   2.446 -0.3158  0.3509  0.2820
 2436TIP3    H128943   2.722   4.294   2.358  1.8576  0.8085  0.4595
 2436TIP3    H228944   2.685   4.168   2.434 -1.2807  0.8705 -0.8308
 2437TIP3   OH228945   5.390   1.125   1.057 -0.8458  0.3089 -0.1324
 2437TIP3    H128946   5.386   1.075   0.976 -2.4995  0.9697 -0.5060
 2437TIP3    H228947   5.351   1.068   1.123 -0.6260  0.2304 -0.0717
 2438TIP3   OH228948   3.659   2.462   1.354 -0.2494  0.1585  0.0218
 2438TIP3    H128949   3.720   2.514   1.406 -1.2086  1.2724  0.0821
 2438TIP3    H228950   3.574   2.475   1.397 -0.2664 -3.0041  1.1965
 2439TIP3   OH228951   6.619   3.564   2.428 -0.0117 -0.1621 -0.7350
 2439TIP3    H128952   6.675   3.576   2.505 -0.0569 -0.0658 -0.7154
 2439TIP3    H228953   6.680   3.562   2.354  0.1055 -1.1742 -0.6180
 2440TIP3   OH228954   3.800   4.248   1.837  0.1175 -0.3973 -0.0317
 2440TIP3    H128955   3.847   4.285   1.762  0.1082  0.6965  0.4868
 2440TIP3    H228956   3.857   4.176   1.867 -0.7024 -1.9993 -2.1017
 2441TIP3   OH228957   6.550   4.430   1.638  0.1903 -0.0197 -0.0700
 2441TIP3    H128958   6.549   4.335   1.643 -1.3308  0.0069  0.5862
 2441TIP3    H228959   6.520   4.450   1.549 -2.6636 -0.1634  0.7662
 2442TIP3   OH228960   5.429   1.770   8.109  0.1325  0.1993  0.2120
 2442TIP3    H128961   5.353   1.819   8.076  0.0768  2.0672  2.7263
 2442TIP3    H228962   5.391   1.705   8.168  0.4042  0.3058  0.5096
 2443TIP3   OH228963   0.851   1.363   1.218  0.2013  0.2115  0.3568
 2443TIP3    H128964   0.768   1.345   1.175  0.8996  0.6382 -1.2449
 2443TIP3    H228965   0.830   1.366   1.311 -1.2312 -1.4880  0.1342
 2444TIP3   OH228966   1.197   3.362   2.176  0.2117  0.2564 -0.3948
 2444TIP3    H128967   1.130   3.412   2.224  0.0376  1.9190 -2.2099
 2444TIP3    H228968   1.211   3.284   2.229 -1.8335  0.7274  0.9950
 2445TIP3   OH228969   1.382   6.700   2.839 -0.3241 -0.0926  0.0774
 2445TIP3    H128970   1.449   6.763   2.866 -0.3605 -0.1618  0.3371
 2445TIP3    H228971   1.300   6.735   2.876 -0.7386  0.9177 -1.6899
 2446TIP3   OH228972   4.121   2.938   8.426 -0.6435 -0.3796 -0.0575
 2446TIP3    H128973   4.133   2.893   8.509  2.6931  0.3423 -0.0253
 2446TIP3    H228974   4.149   2.875   8.360 -0.3093  0.0845 -0.3645
 2447TIP3   OH228975   4.266   6.575   8.888  0.0111 -0.2413  0.0509
 2447TIP3    H128976   4.239   6.664   8.865 -1.5323 -0.8758 -0.7308
 2447TIP3    H228977   4.273   6.576   8.983  0.7123  0.8896  0.0096
 2448TIP3   OH228978   4.323   6.499   1.549 -0.2390 -0.2100 -0.1822
 2448TIP3    H128979   4.388   6.559   1.512  1.5220  0.5546  3.6422
 2448TIP3    H228980   4.240   6.547   1.544  0.6251  1.4004  0.2726
 2449TIP3   OH228981   0.238   1.205   3.534  0.1541  0.5182  0.1198
 2449TIP3    H128982   0.159   1.160   3.504 -0.6110  1.9602 -0.1444
 2449TIP3    H228983   0.301   1.136   3.549 -1.5555 -0.8057  1.6069
 2450TIP3   OH228984   1.235   4.515   7.946  0.4680 -0.3704  0.7837
 2450TIP3    H128985   1.246   4.494   7.853  1.1425 -1.2598  1.0431
 2450TIP3    H228986   1.254   4.608   7.953 -0.5244 -0.0817 -0.1105
 2451TIP3   OH228987   2.254   4.125   2.794 -0.1935  0.4677 -0.1703
 2451TIP3    H128988   2.322   4.133   2.860 -0.2462  0.5648 -0.1275
 2451TIP3    H228989   2.188   4.190   2.819 -0.2307  0.4798 -0.2960
 2452TIP3   OH228990   3.697   5.259   0.620 -0.7405  0.9813 -0.4791
 2452TIP3    H128991   3.670   5.250   0.712 -0.6559  1.1590 -0.4359
 2452TIP3    H228992   3.629   5.213   0.571  0.1418 -0.6786 -0.2148
 2453TIP3   OH228993   4.113   1.931   2.277  0.2219 -0.2556 -0.3216
 2453TIP3    H128994   4.050   1.894   2.215  0.4842 -0.8607 -0.2340
 2453TIP3    H228995   4.129   2.020   2.244 -1.2332  0.1805  0.0849
 2454TIP3   OH228996   0.969   6.217   8.525 -0.7414  0.5009 -0.3813
 2454TIP3    H128997   0.874   6.233   8.524 -0.4476  2.3606 -0.2253
 2454TIP3    H228998   1.004   6.279   8.588  0.6910  0.4206 -1.0613
 2455TIP3   OH228999   0.508   2.569   8.739  0.1074  0.4025 -0.4304
 2455TIP3    H129000   0.432   2.610   8.779  0.0223 -1.1775  1.1468
 2455TIP3    H229001   0.519   2.615   8.656 -0.2283  3.2593  0.9863
 2456TIP3   OH229002   6.186   1.395   8.218 -0.2551  0.0418 -0.4512
 2456TIP3    H129003   6.280   1.381   8.209 -0.6661 -1.9615 -2.6887
 2456TIP3    H229004   6.153   1.314   8.257 -0.9297  1.3381  1.8133
 2457TIP3   OH229005   6.036   3.793   3.721 -0.0957  0.8940  0.0944
 2457TIP3    H129006   5.959   3.832   3.764  0.0437  0.4688  0.7291
 2457TIP3    H229007   6.091   3.868   3.701 -0.3038  1.1302  0.3808
 2458TIP3   OH229008   1.169   1.358   1.073  0.9119 -0.0121  0.5858
 2458TIP3    H129009   1.095   1.300   1.094  1.0943 -0.7010 -0.6212
 2458TIP3    H229010   1.229   1.303   1.023  1.8162  0.8072  0.7533
 2459TIP3   OH229011   5.170   2.106   8.048 -0.0621  0.1777  0.8347
 2459TIP3    H129012   5.183   2.023   8.001 -0.8494  0.0174  0.8870
 2459TIP3    H229013   5.108   2.154   7.993  0.6401  0.8800  0.6348
 2460TIP3   OH229014   0.527   2.106   1.135  0.0190 -0.0750 -0.6289
 2460TIP3    H129015   0.558   2.020   1.162 -0.9798 -0.4953 -0.8287
 2460TIP3    H229016   0.525   2.157   1.217 -0.2364 -0.4939 -0.3751
 2461TIP3   OH229017   6.085   5.791   0.024  0.1511 -0.4119  0.7993
 2461TIP3    H129018   6.030   5.829  -0.044 -0.2774  0.0837  1.4084
 2461TIP3    H229019   6.090   5.859   0.091  3.1445  0.3435 -0.0695
 2462TIP3   OH229020   1.196   6.049   2.064  0.0241  0.0091  0.3114
 2462TIP3    H129021   1.262   6.099   2.015  0.4632  0.1218  0.9975
 2462TIP3    H229022   1.173   5.977   2.006  1.0263 -0.2334  0.1979
 2463TIP3   OH229023   3.507   2.250   1.032  0.2147  0.1649  0.0497
 2463TIP3    H129024   3.429   2.280   0.984 -0.5341  1.2701  1.8747
 2463TIP3    H229025   3.579   2.301   0.995 -0.1667  0.2144 -0.6420
 2464TIP3   OH229026   1.806   0.258   2.041 -0.2907  0.1957  0.0985
 2464TIP3    H129027   1.799   0.347   2.076  1.0305 -0.0888  1.1518
 2464TIP3    H229028   1.850   0.269   1.957  1.1268  0.4400  0.8418
 2465TIP3   OH229029   1.136   3.532   2.891  0.5517  0.0781 -0.2589
 2465TIP3    H129030   1.072   3.541   2.820  0.5701  0.0112 -0.2848
 2465TIP3    H229031   1.091   3.478   2.956  0.7582 -0.3900 -0.4952
 2466TIP3   OH229032   5.084   5.932   1.362  0.8377 -0.4738  0.1578
 2466TIP3    H129033   5.025   5.944   1.287 -1.5067 -1.6489  1.6557
 2466TIP3    H229034   5.152   5.873   1.330  0.3382 -0.3174 -1.2629
 2467TIP3   OH229035   4.594   5.419   2.952 -0.2061  0.0050 -0.2174
 2467TIP3    H129036   4.615   5.509   2.977  0.9027 -0.4477  0.5618
 2467TIP3    H229037   4.629   5.365   3.023  0.2320 -1.1240 -1.2533
 2468TIP3   OH229038   2.290   1.644   1.862 -0.1166  0.3755 -0.0514
 2468TIP3    H129039   2.300   1.624   1.769  0.9264  0.7781 -0.0353
 2468TIP3    H229040   2.201   1.679   1.870  0.2325  1.5509 -1.1214
 2469TIP3   OH229041   3.330   5.078   1.581 -0.4951  0.0217 -0.6550
 2469TIP3    H129042   3.394   5.146   1.599  1.3403 -1.2131 -2.1679
 2469TIP3    H229043   3.314   5.036   1.666  0.8371  0.2447 -0.2819
 2470TIP3   OH229044   4.971   3.421   2.314 -0.4228  0.2974 -0.5181
 2470TIP3    H129045   4.950   3.485   2.382  0.1603 -1.6654  1.6223
 2470TIP3    H229046   5.015   3.350   2.360  1.6911 -0.3453 -3.2590
 2471TIP3   OH229047   6.201   4.295   9.011  0.1676  0.3080  0.1860
 2471TIP3    H129048   6.180   4.275   9.102  0.2203  0.3132  0.1993
 2471TIP3    H229049   6.165   4.382   8.997 -1.0077 -0.2176 -0.1768
 2472TIP3   OH229050   2.216   3.916   2.302 -0.3597  0.0741 -0.5781
 2472TIP3    H129051   2.179   3.987   2.355  0.8512 -0.2142  0.7110
 2472TIP3    H229052   2.174   3.925   2.217 -1.0211  1.6754 -0.1121
 2473TIP3   OH229053   4.045   2.084   3.406  0.5910  0.3209 -0.2084
 2473TIP3    H129054   3.990   2.020   3.360  1.1834 -1.0089  0.8686
 2473TIP3    H229055   4.130   2.078   3.361  0.3960  1.0337 -0.6877
 2474TIP3   OH229056   0.965   2.681   3.402 -0.3311 -0.0481 -0.2671
 2474TIP3    H129057   0.926   2.663   3.316 -0.4962 -1.0158 -0.0004
 2474TIP3    H229058   1.059   2.676   3.387 -0.2851  1.7278 -0.7912
 2475TIP3   OH229059   6.562   5.627   2.529  0.6243  0.3464 -0.3313
 2475TIP3    H129060   6.557   5.560   2.597  1.1540  0.7555  0.1203
 2475TIP3    H229061   6.525   5.706   2.570  0.3610  0.4328 -0.7289
 2476TIP3   OH229062   3.194   6.663   8.916 -0.3596 -0.4717  0.2648
 2476TIP3    H129063   3.141   6.707   8.849 -0.5068  0.1802  0.7999
 2476TIP3    H229064   3.159   6.574   8.920 -0.3866 -0.5024 -0.4811
 2477TIP3   OH229065   5.235   3.032   3.386 -0.0757  0.0537 -0.2237
 2477TIP3    H129066   5.200   2.948   3.413  1.6730 -0.2429  1.3864
 2477TIP3    H229067   5.280   3.014   3.303 -0.9784 -0.2384 -0.6597
 2478TIP3   OH229068   1.849   1.187   1.270  0.3105  0.1626  0.3547
 2478TIP3    H129069   1.841   1.097   1.301  1.6372  0.3965  1.4388
 2478TIP3    H229070   1.857   1.240   1.349  2.6901  0.8848 -0.2903
 2479TIP3   OH229071   6.556   5.306   2.786  0.6414 -0.5149 -0.0575
 2479TIP3    H129072   6.500   5.345   2.853  1.6026 -0.4343  0.7053
 2479TIP3    H229073   6.539   5.212   2.793  0.3939 -0.4686 -0.0175
 2480TIP3   OH229074   5.153   0.426   1.933  0.0848 -0.4450  0.7267
 2480TIP3    H129075   5.156   0.477   1.852  2.4080  0.5218  1.3402
 2480TIP3    H229076   5.130   0.490   2.001 -0.4088 -0.9486  1.0454
 2481TIP3   OH229077   3.859   3.692   2.037 -0.2145  0.0982  0.0382
 2481TIP3    H129078   3.913   3.706   2.115 -0.6264 -0.7698  0.4951
 2481TIP3    H229079   3.810   3.612   2.056 -1.5830  0.7947 -0.4085
 2482TIP3   OH229080   3.894   6.499   8.670 -0.1789  0.2273 -0.2927
 2482TIP3    H129081   3.874   6.415   8.711 -0.7492  0.3004 -0.4022
 2482TIP3    H229082   3.830   6.506   8.598  1.2570 -0.2446 -1.6775
 2483TIP3   OH229083   0.991   5.867   2.149 -0.2312  0.5048  0.8717
 2483TIP3    H129084   0.963   5.917   2.225  1.3694  0.7335  1.3305
 2483TIP3    H229085   1.074   5.906   2.123  0.2068 -0.8245  0.1980
 2484TIP3   OH229086   4.667   3.719   8.114 -0.1317  0.3796  0.1216
 2484TIP3    H129087   4.693   3.648   8.055 -1.1964  0.7751 -0.8452
 2484TIP3    H229088   4.747   3.740   8.162  0.2539 -1.3191  0.2768
 2485TIP3   OH229089   1.747   3.984   7.432 -0.5860 -0.1058 -0.1628
 2485TIP3    H129090   1.812   4.037   7.386 -0.1656 -0.3076  0.1821
 2485TIP3    H229091   1.706   4.044   7.494 -0.7039  0.0136 -0.3566
 2486TIP3   OH229092   3.205   4.677   7.745 -0.3180  0.5240 -0.0720
 2486TIP3    H129093   3.268   4.719   7.686 -0.6080  1.2002  0.0883
 2486TIP3    H229094   3.245   4.593   7.766 -0.1072  0.3620 -1.0556
 2487TIP3   OH229095   5.089   1.760   1.080  0.1780 -0.4944 -0.2763
 2487TIP3    H129096   5.037   1.721   1.150 -2.5721 -2.0318 -2.9458
 2487TIP3    H229097   5.140   1.687   1.044 -0.9066 -0.5179 -1.8664
 2488TIP3   OH229098   4.633   4.271   1.028  0.0936  0.2723 -0.1476
 2488TIP3    H129099   4.715   4.261   0.981 -0.4757 -0.3478 -1.0299
 2488TIP3    H229100   4.605   4.182   1.047 -0.3244  0.4837  0.2439
 2489TIP3   OH229101   3.294   2.236   2.192 -0.3098  0.5376 -0.4030
 2489TIP3    H129102   3.214   2.283   2.169  0.3640  2.4246  0.8925
 2489TIP3    H229103   3.357   2.262   2.124  0.1394  1.7799  0.4620
 2490TIP3   OH229104   0.136   2.961   0.496  0.1793  0.5450 -0.9063
 2490TIP3    H129105   0.213   3.004   0.532 -0.7480 -0.2590  2.4255
 2490TIP3    H229106   0.167   2.874   0.469  0.7492  0.8266 -1.1719
 2491TIP3   OH229107   5.809   6.194   8.741  0.3097  0.0061  0.8808
 2491TIP3    H129108   5.730   6.155   8.778 -0.2962  0.9819  0.6538
 2491TIP3    H229109   5.826   6.143   8.662 -2.8935  2.5784 -1.7985
 2492TIP3   OH229110   4.947   3.626   0.607 -0.0157  0.2604  0.4953
 2492TIP3    H129111   5.038   3.621   0.577 -0.2815 -0.0524 -0.3050
 2492TIP3    H229112   4.931   3.541   0.647  0.1505  0.4540  0.9870
 2493TIP3   OH229113   5.535   1.703   2.230  0.7203  0.0968  0.2235
 2493TIP3    H129114   5.607   1.751   2.272 -0.4702  3.5266 -1.2794
 2493TIP3    H229115   5.562   1.695   2.139  0.0939 -0.4904  0.0809
 2494TIP3   OH229116   1.033   3.360   2.653 -0.5248 -0.0298 -0.1733
 2494TIP3    H129117   1.023   3.454   2.637 -0.5387 -0.2189 -1.3540
 2494TIP3    H229118   1.119   3.340   2.616 -0.0287 -0.2787  1.0823
 2495TIP3   OH229119   2.089   0.074   1.289 -0.1431 -0.3363 -0.3315
 2495TIP3    H129120   2.085   0.137   1.217 -0.3970  1.2866  1.0382
 2495TIP3    H229121   2.172   0.092   1.332 -1.0916  0.4776  1.2553
 2496TIP3   OH229122   0.599   4.425   2.380 -0.2615  0.0254 -0.3994
 2496TIP3    H129123   0.539   4.489   2.341  1.1525  2.1822  0.7436
 2496TIP3    H229124   0.548   4.383   2.449 -0.8355  0.9371 -0.2507
 2497TIP3   OH229125   4.185   1.673   0.692  0.2506 -0.0141  0.3312
 2497TIP3    H129126   4.142   1.589   0.710 -1.9015  1.3321  2.0194
 2497TIP3    H229127   4.167   1.689   0.599 -3.0889  0.4505  0.9230
 2498TIP3   OH229128   4.797   6.632   8.275  0.3005 -0.6403  0.0911
 2498TIP3    H129129   4.725   6.604   8.332  1.0599  0.6960  1.7723
 2498TIP3    H229130   4.857   6.557   8.273 -0.5156 -1.3050 -0.3374
 2499TIP3   OH229131   5.783   5.526   8.371 -0.3939  0.4275 -0.0796
 2499TIP3    H129132   5.856   5.551   8.428  0.8320 -3.4160  0.3262
 2499TIP3    H229133   5.824   5.499   8.289 -1.5297 -0.1605 -0.4823
 2500TIP3   OH229134   4.403   6.002   7.478 -0.0714  0.6357  0.3810
 2500TIP3    H129135   4.430   6.069   7.541  1.2592  0.2612  0.2452
 2500TIP3    H229136   4.484   5.954   7.457 -0.9401 -0.8877  0.3234
 2501TIP3   OH229137   5.430   3.408   0.407 -0.1530 -0.3056  0.1116
 2501TIP3    H129138   5.346   3.369   0.433 -0.1990 -0.3163 -0.0482
 2501TIP3    H229139   5.471   3.342   0.351 -1.0446  0.5703 -1.6604
 2502TIP3   OH229140   3.091   5.167   8.918  0.1241 -0.1211  0.0766
 2502TIP3    H129141   3.071   5.075   8.938 -2.4536  0.6521  1.5188
 2502TIP3    H229142   3.006   5.205   8.894  1.4078  1.5503 -2.2544
 2503TIP3   OH229143   1.954   0.529   7.644 -0.1731  0.1818 -0.2810
 2503TIP3    H129144   2.002   0.519   7.561  0.2708 -0.0685  0.0048
 2503TIP3    H229145   1.863   0.508   7.621 -0.3974  1.8715 -1.0945
 2504TIP3   OH229146   5.873   1.119   7.921 -0.6555 -0.5492 -0.6277
 2504TIP3    H129147   5.903   1.034   7.889 -0.7131 -0.5722 -0.6213
 2504TIP3    H229148   5.798   1.098   7.977  1.6881 -0.9185  2.6744
 2505TIP3   OH229149   4.450   1.188   7.837 -0.2460 -0.2260  0.0949
 2505TIP3    H129150   4.498   1.253   7.785  0.0431  0.8272  1.6006
 2505TIP3    H229151   4.492   1.105   7.815  2.1988  0.6113  1.1484
 2506TIP3   OH229152   4.750   5.335   2.720  0.2201  0.3623 -0.6223
 2506TIP3    H129153   4.740   5.361   2.812 -3.2859 -0.0409 -0.7729
 2506TIP3    H229154   4.811   5.261   2.723 -1.7086 -1.2920  1.7796
 2507TIP3   OH229155   2.001   4.875   1.772 -0.0004  0.2456 -0.2795
 2507TIP3    H129156   2.050   4.955   1.752 -0.4309  0.9073  1.2243
 2507TIP3    H229157   2.066   4.805   1.762  0.4228  0.7671 -1.4600
 2508TIP3   OH229158   3.400   6.126   0.647 -0.7382  0.9883  0.2311
 2508TIP3    H129159   3.305   6.136   0.650 -0.7628  1.9611 -1.6625
 2508TIP3    H229160   3.431   6.206   0.604  0.6384 -0.5121 -1.7858
 2509TIP3   OH229161   0.165   0.585   1.365 -0.2571 -0.2209  0.1285
 2509TIP3    H129162   0.237   0.610   1.306 -1.6271 -0.3302 -1.6717
 2509TIP3    H229163   0.118   0.667   1.381 -0.1731 -0.2818  0.7175
 2510TIP3   OH229164   2.549   5.583   3.047 -0.7834 -0.1559  0.3815
 2510TIP3    H129165   2.603   5.506   3.067 -0.8637 -0.1056  0.7980
 2510TIP3    H229166   2.479   5.580   3.112 -0.6485  0.4097  0.5510
 2511TIP3   OH229167   3.822   3.155   1.303 -0.2429 -0.1094  0.6553
 2511TIP3    H129168   3.761   3.228   1.296  0.3964  0.3057 -1.1399
 2511TIP3    H229169   3.908   3.196   1.306  0.1339 -0.7713 -0.5945
 2512TIP3   OH229170   2.899   6.428   8.964 -0.0301 -0.1355 -0.6765
 2512TIP3    H129171   2.831   6.365   8.941 -0.9838  0.7607 -0.3830
 2512TIP3    H229172   2.867   6.471   9.043  0.2651  1.1780 -1.2324
 2513TIP3   OH229173   3.407   3.310   1.946 -0.1454  0.3860  0.2433
 2513TIP3    H129174   3.407   3.337   1.854  0.1340 -0.3566  0.0233
 2513TIP3    H229175   3.340   3.366   1.987 -1.0970 -0.0690 -0.6487
 2514TIP3   OH229176   4.301   1.452   8.679 -0.3396  0.7008 -0.7391
 2514TIP3    H129177   4.386   1.479   8.642 -0.8551  1.0946 -1.6824
 2514TIP3    H229178   4.245   1.439   8.602 -0.1233 -3.3107 -0.4568
 2515TIP3   OH229179   3.536   4.183   0.329  0.3080 -0.1113 -0.3098
 2515TIP3    H129180   3.541   4.167   0.234  1.5967 -1.3438 -0.0790
 2515TIP3    H229181   3.464   4.128   0.359  0.8719 -0.9109 -0.3818
 2516TIP3   OH229182   0.870   6.514   2.134  0.2186 -0.3529  0.5693
 2516TIP3    H129183   0.938   6.447   2.124 -0.1478 -0.9114  1.6793
 2516TIP3    H229184   0.913   6.596   2.107  1.1489 -0.7935  0.6655
 2517TIP3   OH229185   1.080   6.470   0.252  1.0843  0.2930 -0.3795
 2517TIP3    H129186   1.140   6.466   0.326  1.0927  1.2861 -0.3247
 2517TIP3    H229187   1.000   6.427   0.284  1.3919 -0.0746 -0.1002
 2518TIP3   OH229188   4.564   2.773   7.827  0.0751 -0.2843  0.5394
 2518TIP3    H129189   4.523   2.772   7.740 -0.4537 -1.3571  0.7883
 2518TIP3    H229190   4.621   2.696   7.827  0.8316  0.2698  0.7941
 2519TIP3   OH229191   6.524   4.061   0.845 -0.0344 -0.2714 -0.3572
 2519TIP3    H129192   6.455   4.038   0.783  0.8971  1.7007 -2.2734
 2519TIP3    H229193   6.479   4.082   0.926 -1.6610  0.4327 -1.3980
 2520TIP3   OH229194   0.046   4.040   0.566 -0.0873  0.4853 -0.4955
 2520TIP3    H129195  -0.008   3.999   0.634  0.1061  1.0338 -0.0028
 2520TIP3    H229196  -0.017   4.066   0.498 -0.5518  1.6134  0.3163
 2521TIP3   OH229197   5.322   4.276   0.261  0.3397  0.1764  0.3801
 2521TIP3    H129198   5.328   4.282   0.165 -2.0334 -0.5691  0.1227
 2521TIP3    H229199   5.272   4.196   0.277  1.9312 -0.4941  2.3435
 2522TIP3   OH229200   0.237   2.636   2.132 -0.0370 -0.2095  0.2328
 2522TIP3    H129201   0.203   2.576   2.066  1.8456  0.1150 -1.1175
 2522TIP3    H229202   0.225   2.589   2.215 -0.4628 -1.5799 -0.5713
 2523TIP3   OH229203   1.920   5.933   7.796 -0.7544 -0.1895 -0.3334
 2523TIP3    H129204   1.929   6.013   7.849 -1.1681  0.8273 -1.7323
 2523TIP3    H229205   1.828   5.908   7.806 -0.7634 -0.1646 -0.3550
 2524TIP3   OH229206   1.023   2.081   8.107  0.3115 -0.7512  0.0533
 2524TIP3    H129207   0.985   1.993   8.112  2.3908 -1.7106 -0.2408
 2524TIP3    H229208   0.981   2.121   8.031 -2.2675 -0.6145  1.4243
 2525TIP3   OH229209   5.448   2.937   9.089 -0.1392 -0.3056  0.1027
 2525TIP3    H129210   5.390   2.866   9.118  0.0264 -0.4921 -0.0224
 2525TIP3    H229211   5.427   2.950   8.997  1.3490 -1.6812 -0.4664
 2526TIP3   OH229212   3.460   1.028   1.252 -0.6191  0.0020 -0.1778
 2526TIP3    H129213   3.498   0.998   1.334  0.3701  0.4693 -0.4456
 2526TIP3    H229214   3.536   1.053   1.199 -1.1429 -1.3424 -1.6568
 2527TIP3   OH229215   4.620   4.218   2.335  0.4723 -0.0595 -0.2389
 2527TIP3    H129216   4.714   4.205   2.345  0.5061 -0.3085 -0.8316
 2527TIP3    H229217   4.602   4.196   2.244 -0.2138 -0.3370 -0.0490
 2528TIP3   OH229218   2.820   2.940   1.571 -0.0402  0.6156 -0.7398
 2528TIP3    H129219   2.860   2.972   1.490  1.6210  0.7749  0.1076
 2528TIP3    H229220   2.888   2.950   1.637 -0.9650 -0.6294  0.4515
 2529TIP3   OH229221   6.107   0.560   7.428 -0.3284  0.3114 -0.3781
 2529TIP3    H129222   6.174   0.625   7.450 -0.4777  0.4171 -0.2278
 2529TIP3    H229223   6.130   0.483   7.480 -0.7872  0.6244  0.3121
 2530TIP3   OH229224   6.110   6.025   1.135 -0.2530 -0.5999  0.0353
 2530TIP3    H129225   6.123   5.969   1.211  0.4407 -1.6334 -0.8158
 2530TIP3    H229226   6.063   5.970   1.072 -0.3896  0.0782 -0.4768
 2531TIP3   OH229227   4.523   0.209   8.366  0.3679  0.0009 -0.1637
 2531TIP3    H129228   4.458   0.153   8.409  0.3397  0.1404 -0.0187
 2531TIP3    H229229   4.556   0.157   8.293  0.4079 -0.2361  0.0211
 2532TIP3   OH229230   1.172   3.182   0.897  0.5524 -0.0960 -0.1040
 2532TIP3    H129231   1.185   3.091   0.922 -0.0289 -0.3502 -0.6835
 2532TIP3    H229232   1.111   3.217   0.962  1.7244  0.2496  0.8513
 2533TIP3   OH229233   6.163   3.599   3.591 -0.2278  0.7675  0.0076
 2533TIP3    H129234   6.178   3.665   3.523  0.8369  0.5238 -0.0192
 2533TIP3    H229235   6.103   3.641   3.653 -1.7030  0.7720 -1.3751
 2534TIP3   OH229236   3.066   6.679   8.384  0.1164 -0.3864 -0.3528
 2534TIP3    H129237   2.986   6.712   8.345  0.1247 -0.2674 -0.2684
 2534TIP3    H229238   3.123   6.755   8.391 -1.0893  0.3546  3.0232
 2535TIP3   OH229239   0.389   5.171   3.154  0.3031 -0.5601 -0.1230
 2535TIP3    H129240   0.389   5.266   3.153 -1.4237 -0.5284 -0.8729
 2535TIP3    H229241   0.382   5.148   3.247  2.5914 -0.0317  0.2224
 2536TIP3   OH229242   0.959   6.207   0.019  0.2757 -0.2720  0.8183
 2536TIP3    H129243   0.923   6.177  -0.065  1.1307  0.3260  0.2174
 2536TIP3    H229244   0.917   6.151   0.084 -2.3119  0.8203  0.2608
 2537TIP3   OH229245   3.436   2.647   2.463  0.1291 -0.5724 -0.8413
 2537TIP3    H129246   3.414   2.727   2.415  0.4311  0.9426  1.4013
 2537TIP3    H229247   3.495   2.677   2.533 -0.9049 -2.5031  0.9541
 2538TIP3   OH229248   0.343   0.051   8.389  0.1816  0.7133  0.2483
 2538TIP3    H129249   0.386  -0.007   8.451 -2.3242 -0.3383  1.1186
 2538TIP3    H229250   0.286  -0.006   8.338  0.7931  1.8321 -1.8143
 2539TIP3   OH229251   5.581   0.316   9.069 -0.4709  0.2208 -0.1132
 2539TIP3    H129252   5.618   0.356   9.148 -0.9160  0.7400 -0.1660
 2539TIP3    H229253   5.526   0.245   9.102  0.6142 -0.5991 -0.0364
 2540TIP3   OH229254   6.024   0.865   1.965  0.9222  0.0389 -0.0487
 2540TIP3    H129255   6.105   0.856   1.914 -0.4004  0.8995 -2.4681
 2540TIP3    H229256   5.959   0.816   1.915 -0.3268  0.2935  1.2612
 2541TIP3   OH229257   1.191   1.473   1.831  0.1971 -0.0210 -0.2548
 2541TIP3    H129258   1.175   1.478   1.737  0.1891  0.2590 -0.2408
 2541TIP3    H229259   1.157   1.556   1.865  3.6724  1.7131 -0.5253
 2542TIP3   OH229260   4.022   5.966   0.379 -0.1995 -0.9365  0.5094
 2542TIP3    H129261   4.004   6.054   0.413  0.3637 -1.0158  1.0345
 2542TIP3    H229262   4.115   5.969   0.354 -0.8904 -0.4739 -2.2925
 2543TIP3   OH229263   5.455   3.340   1.013 -0.4386  0.0573 -0.5502
 2543TIP3    H129264   5.415   3.347   1.099 -2.9663  0.9835 -1.6979
 2543TIP3    H229265   5.382   3.328   0.953  1.3322 -2.1178 -2.4839
 2544TIP3   OH229266   0.018   5.352   8.932 -0.0832  0.4101  0.1395
 2544TIP3    H129267   0.101   5.397   8.949 -0.2738  0.8022  0.0366
 2544TIP3    H229268  -0.014   5.326   9.019 -0.4318  1.2965  0.2868
 2545TIP3   OH229269   0.232   3.457   0.791  0.0085 -0.6696  0.2989
 2545TIP3    H129270   0.229   3.392   0.721  3.7199 -0.3599 -0.3388
 2545TIP3    H229271   0.253   3.539   0.745  0.4056 -0.0481  1.5605
 2546TIP3   OH229272   1.709   2.884   3.702  0.5779  0.0259  0.6706
 2546TIP3    H129273   1.770   2.814   3.675  0.4222  0.3176 -0.5242
 2546TIP3    H229274   1.626   2.860   3.662  0.5127  0.8644  0.2721
 2547TIP3   OH229275   1.141   3.731   0.825 -0.6516 -0.0785 -0.0186
 2547TIP3    H129276   1.168   3.744   0.916 -1.1416  0.3416  0.0683
 2547TIP3    H229277   1.087   3.652   0.827 -0.0855 -0.4789 -0.0688
 2548TIP3   OH229278   5.656   1.993   8.923 -0.0723 -0.2185 -0.4740
 2548TIP3    H129279   5.699   1.980   9.008 -0.9136  0.3683  0.0536
 2548TIP3    H229280   5.612   2.078   8.931  0.4451  0.1930 -1.7623
 2549TIP3   OH229281   1.278   2.802   8.582 -0.4978 -0.0125  0.4251
 2549TIP3    H129282   1.208   2.840   8.528  0.8966 -0.1318 -1.5555
 2549TIP3    H229283   1.271   2.708   8.569 -0.1038 -0.0384  0.3796
 2550TIP3   OH229284   6.233   2.432   1.931  0.1018 -0.2981 -0.2572
 2550TIP3    H129285   6.311   2.468   1.888  0.2820  0.1168  0.4047
 2550TIP3    H229286   6.188   2.509   1.966 -1.2994 -0.3955 -1.7348
 2551TIP3   OH229287   1.360   1.699   9.040 -0.0552  0.4885 -0.1332
 2551TIP3    H129288   1.433   1.711   9.101 -0.1498 -0.3631  0.1630
 2551TIP3    H229289   1.286   1.678   9.097 -0.2136 -0.0166 -0.5262
 2552TIP3   OH229290   1.255   6.449   2.270  0.4640 -0.5387 -0.3044
 2552TIP3    H129291   1.200   6.511   2.318 -0.1523 -1.1275 -0.2268
 2552TIP3    H229292   1.309   6.504   2.213 -0.2817  0.0466 -0.4608
 2553TIP3   OH229293   1.171   1.976   0.698 -0.9173 -0.0100  0.1702
 2553TIP3    H129294   1.193   1.897   0.747 -0.2750 -0.2465 -0.4783
 2553TIP3    H229295   1.077   1.971   0.684 -0.6678 -1.5189 -1.3068
 2554TIP3   OH229296   3.648   0.589   0.466  0.0144 -0.2837 -0.6335
 2554TIP3    H129297   3.666   0.659   0.529  1.0571 -1.2491  0.1925
 2554TIP3    H229298   3.553   0.590   0.456 -0.1199  0.3174  0.4554
 2555TIP3   OH229299   2.313   5.076   7.812 -0.1727  0.3193 -0.0183
 2555TIP3    H129300   2.294   5.158   7.858 -1.7065  0.2974 -0.5568
 2555TIP3    H229301   2.309   5.009   7.880 -1.7109  0.3776 -0.0172
 2556TIP3   OH229302   1.383   3.965   8.995 -0.0785 -0.3624 -0.2401
 2556TIP3    H129303   1.353   3.895   8.938 -1.2324  0.0016 -0.1001
 2556TIP3    H229304   1.374   4.044   8.943  0.7843 -0.2502 -0.2381
 2557TIP3   OH229305   2.318   4.325   1.791  0.4847  0.0832  0.2135
 2557TIP3    H129306   2.326   4.232   1.811  0.6599  0.2358  0.8770
 2557TIP3    H229307   2.377   4.339   1.717  0.6861 -0.2756  0.3032
 2558TIP3   OH229308   2.980   0.922   2.424  0.2660 -0.2714 -0.6036
 2558TIP3    H129309   2.953   0.862   2.354 -0.1207  1.1164 -1.6949
 2558TIP3    H229310   2.963   1.009   2.388  1.5586  0.5255  0.6127
 2559TIP3   OH229311   5.957   5.511   3.215 -0.1094 -0.0200 -0.0030
 2559TIP3    H129312   6.028   5.495   3.153 -0.3089 -0.3985 -0.1341
 2559TIP3    H229313   6.002   5.544   3.293  0.1728  0.1343 -0.2270
 2560TIP3   OH229314   2.946   0.623   0.536  0.4010  0.2998 -0.4777
 2560TIP3    H129315   2.893   0.699   0.513 -1.6304 -0.7328  0.5310
 2560TIP3    H229316   2.963   0.632   0.630 -1.3462 -1.2831  0.0466
 2561TIP3   OH229317   1.891   0.530   8.552  0.6206 -0.3390 -0.5746
 2561TIP3    H129318   1.926   0.442   8.566  0.5255 -0.3311 -0.2706
 2561TIP3    H229319   1.877   0.536   8.457 -2.4108 -1.8474 -0.3704
 2562TIP3   OH229320   5.922   2.974   2.100 -0.2763  0.1752  0.0021
 2562TIP3    H129321   5.996   2.961   2.160 -1.8284  0.9845  2.2341
 2562TIP3    H229322   5.895   2.885   2.077  0.0263 -0.1910  0.9876
 2563TIP3   OH229323   5.502   5.690   8.954 -0.2754 -0.2236 -0.1564
 2563TIP3    H129324   5.584   5.718   8.912  0.1319  1.7062  1.7057
 2563TIP3    H229325   5.435   5.744   8.912 -0.0309  0.8721  0.8155
 2564TIP3   OH229326   4.518   5.698   0.828 -0.3061 -0.7426  0.0019
 2564TIP3    H129327   4.571   5.664   0.901  0.0085 -0.3233 -0.0271
 2564TIP3    H229328   4.444   5.741   0.870 -0.8143 -1.6308  0.0336
 2565TIP3   OH229329   1.945   5.768   2.341  0.5791 -0.5097  0.1465
 2565TIP3    H129330   1.906   5.779   2.427 -0.8731 -0.4767 -0.4941
 2565TIP3    H229331   2.031   5.728   2.359  0.0042 -1.1958  1.5524
 2566TIP3   OH229332   1.450   0.491   8.480  0.2357 -0.1353  0.5623
 2566TIP3    H129333   1.463   0.438   8.401  0.6066 -0.2456  0.6951
 2566TIP3    H229334   1.524   0.552   8.481 -0.5575  0.8542  0.0451
 2567TIP3   OH229335   2.466   1.116   8.279 -0.6708 -0.0877 -0.5483
 2567TIP3    H129336   2.451   1.078   8.192 -2.4303 -0.3348 -0.1757
 2567TIP3    H229337   2.416   1.198   8.279 -2.3536 -1.0346  0.8390
 2568TIP3   OH229338   1.805   0.417   3.032 -0.5260 -0.9593  0.1556
 2568TIP3    H129339   1.886   0.466   3.016  0.5604 -2.6499  0.2209
 2568TIP3    H229340   1.780   0.441   3.121 -0.8250  0.5247 -0.2888
 2569TIP3   OH229341   5.170   3.884   7.751 -0.1576  0.9212  0.0257
 2569TIP3    H129342   5.178   3.896   7.656  1.0373  0.6245  0.0714
 2569TIP3    H229343   5.203   3.796   7.767 -2.3884  0.1152  0.4977
 2570TIP3   OH229344   0.073   1.421   0.629 -0.1496  0.4010  0.3332
 2570TIP3    H129345   0.040   1.509   0.613  0.1909  0.3419 -0.7474
 2570TIP3    H229346   0.163   1.434   0.658  0.9201  0.3376 -2.6555
 2571TIP3   OH229347   6.003   0.688   2.306  0.3007  0.3112 -0.2731
 2571TIP3    H129348   5.919   0.674   2.262 -1.0859 -2.3855  2.7763
 2571TIP3    H229349   5.988   0.764   2.363  0.5529  0.9146 -0.9970
 2572TIP3   OH229350   3.833   1.024   2.357  0.3116 -0.0993  0.1043
 2572TIP3    H129351   3.759   0.997   2.411 -0.7693  0.2798 -1.1463
 2572TIP3    H229352   3.849   0.950   2.299  0.0378  0.3333 -0.5301
 2573TIP3   OH229353   6.060   2.574   8.352 -0.3725 -0.2879  0.1680
 2573TIP3    H129354   6.088   2.485   8.376 -0.1149 -0.6985 -1.5584
 2573TIP3    H229355   6.126   2.603   8.290 -0.4788  1.1295  0.6954
 2574TIP3   OH229356   1.332   3.724   2.769  0.2822 -0.2278  0.1196
 2574TIP3    H129357   1.347   3.789   2.837 -1.1092  0.9430 -0.6635
 2574TIP3    H229358   1.286   3.653   2.814  2.0917 -0.8878  1.0484
 2575TIP3   OH229359   4.937   0.878   3.062  0.0201  0.4345 -0.9709
 2575TIP3    H129360   4.942   0.855   2.970  1.1962  0.0447 -0.8167
 2575TIP3    H229361   5.028   0.879   3.092 -0.2724  1.5240 -0.0544
 2576TIP3   OH229362   1.764   2.723   0.039  0.0337 -0.2345  0.0778
 2576TIP3    H129363   1.782   2.655  -0.026 -0.4039 -0.1499 -0.1333
 2576TIP3    H229364   1.671   2.713   0.060 -0.3108  1.0000 -0.7720
 2577TIP3   OH229365   4.867   5.786   0.009 -0.2453  0.1181  0.0025
 2577TIP3    H129366   4.941   5.846   0.022  0.9464 -1.4756  1.0367
 2577TIP3    H229367   4.849   5.791  -0.085  1.9015 -0.1938 -0.4848
 2578TIP3   OH229368   4.816   5.319   3.524 -0.1742 -0.1805  0.3068
 2578TIP3    H129369   4.794   5.406   3.492 -1.0039 -0.6700 -0.5172
 2578TIP3    H229370   4.908   5.307   3.499  0.4362  1.0323  1.8158
 2579TIP3   OH229371   4.033   1.223   3.222  0.1517 -0.3695  0.2390
 2579TIP3    H129372   4.065   1.293   3.278  3.1209 -0.0481 -1.6994
 2579TIP3    H229373   3.937   1.230   3.228  0.3392  2.8238  1.3061
 2580TIP3   OH229374   5.598   4.628   7.755  0.5589  0.1533 -0.3221
 2580TIP3    H129375   5.570   4.567   7.824  0.4725  1.1298  0.5389
 2580TIP3    H229376   5.525   4.631   7.694 -0.0151  0.4598  0.3690
 2581TIP3   OH229377   6.229   2.531   3.013  0.4308 -0.4903 -0.4660
 2581TIP3    H129378   6.261   2.569   3.095 -2.2627  0.6960  0.1471
 2581TIP3    H229379   6.215   2.438   3.033  1.3219 -0.5613 -0.1156
 2582TIP3   OH229380   6.340   6.283   2.928  0.1718  0.5175  0.1276
 2582TIP3    H129381   6.400   6.344   2.969 -0.0514 -0.3263  1.8061
 2582TIP3    H229382   6.362   6.198   2.966  0.7217 -0.5662 -2.3976
 2583TIP3   OH229383   4.811   0.210   0.567 -0.2173 -0.3293 -0.4770
 2583TIP3    H129384   4.724   0.176   0.548 -0.6400 -1.6511  3.0707
 2583TIP3    H229385   4.795   0.296   0.606  0.0158 -0.6533  0.3539
 2584TIP3   OH229386   2.716   6.348   7.355 -0.6776 -0.0855 -0.6407
 2584TIP3    H129387   2.784   6.414   7.346  0.3338 -0.9479  0.4972
 2584TIP3    H229388   2.750   6.271   7.308  0.1741 -1.2533  1.7352
 2585TIP3   OH229389   4.175   5.624   8.521 -0.0427  0.1886  0.3966
 2585TIP3    H129390   4.128   5.541   8.512 -1.3240  0.8413  0.7951
 2585TIP3    H229391   4.196   5.649   8.431  2.9953 -1.9558  0.3589
 2586TIP3   OH229392   3.873   4.813   2.772  0.1100 -0.1853 -0.3278
 2586TIP3    H129393   3.850   4.794   2.863 -0.0843  3.0086  0.4098
 2586TIP3    H229394   3.910   4.731   2.739 -1.8933 -2.1343  1.8817
 2587TIP3   OH229395   6.038   1.948   2.460  0.6068  0.4483 -0.2006
 2587TIP3    H129396   5.999   1.993   2.385 -1.5578 -0.4435  0.3361
 2587TIP3    H229397   5.964   1.922   2.514  1.9185 -1.5959  0.7419
 2588TIP3   OH229398   6.151   3.333   2.010 -0.1086  0.5555  0.1700
 2588TIP3    H129399   6.139   3.369   1.922 -2.6310  2.3590  1.1473
 2588TIP3    H229400   6.200   3.401   2.056 -0.0118  0.2227  0.5593
 2589TIP3   OH229401   3.624   0.692   2.596 -0.6526 -0.1963 -0.1369
 2589TIP3    H129402   3.623   0.624   2.528 -0.1154  0.6999 -1.0816
 2589TIP3    H229403   3.711   0.684   2.636 -1.6942 -2.0628  1.8956
 2590TIP3   OH229404   5.947   6.019   8.100 -0.3154 -0.3514 -0.1698
 2590TIP3    H129405   5.918   6.090   8.156 -0.5728 -0.1260 -0.5835
 2590TIP3    H229406   5.949   5.942   8.157 -0.0483 -0.0175  0.2729
 2591TIP3   OH229407   6.195   4.686   2.218 -0.4107 -0.6425  0.0698
 2591TIP3    H129408   6.139   4.718   2.288 -2.6942 -1.3076 -1.3548
 2591TIP3    H229409   6.255   4.625   2.261  0.0615  0.9864  1.8290
 2592TIP3   OH229410   5.658   3.072   1.552  1.0152  0.4481 -0.1496
 2592TIP3    H129411   5.684   3.064   1.644 -0.5902 -1.0083  0.2362
 2592TIP3    H229412   5.615   3.157   1.546  0.2810  0.1479  0.7010
 2593TIP3   OH229413   5.988   4.695   7.988 -0.2240  0.4986 -0.1119
 2593TIP3    H129414   5.916   4.648   7.946  1.2229 -0.8271 -1.2102
 2593TIP3    H229415   6.029   4.745   7.918  1.6791 -1.0541 -0.1981
 2594TIP3   OH229416   5.676   5.217   3.435  0.3866 -0.8618  0.1034
 2594TIP3    H129417   5.725   5.190   3.513 -1.7999 -0.1696  1.8409
 2594TIP3    H229418   5.649   5.135   3.394 -0.8519 -1.3469  1.7633
 2595TIP3   OH229419   2.682   6.012   8.174 -0.2308  0.0086  0.2439
 2595TIP3    H129420   2.748   6.016   8.243  0.8462  2.4954 -0.8078
 2595TIP3    H229421   2.721   5.957   8.106  0.8867  1.5505 -0.4183
 2596TIP3   OH229422   2.218   6.648   2.235  0.4194 -0.2466  0.7538
 2596TIP3    H129423   2.284   6.625   2.299  0.4521  0.9620  1.1782
 2596TIP3    H229424   2.136   6.612   2.270  0.3639  0.7614  1.7014
 2597TIP3   OH229425   3.538   2.350   2.098  0.2582  0.1255 -0.0939
 2597TIP3    H129426   3.501   2.394   2.022  0.3790  0.7252  0.1890
 2597TIP3    H229427   3.592   2.417   2.141 -0.2018 -0.0555  0.7909
 2598TIP3   OH229428   3.936   1.714   0.013 -0.0075 -0.7295  0.0278
 2598TIP3    H129429   4.021   1.756   0.022  0.1619 -1.3829  2.0252
 2598TIP3    H229430   3.956   1.622  -0.001 -0.3967 -0.4663 -2.8109
 2599TIP3   OH229431   6.452   4.872   8.725  0.1678  0.5788 -0.1740
 2599TIP3    H129432   6.531   4.911   8.688  1.1379 -0.7932  0.3415
 2599TIP3    H229433   6.483   4.791   8.767 -1.7138 -0.7579 -1.1916
 2600TIP3   OH229434   2.943   6.398   8.480  0.1671 -0.4043 -0.0047
 2600TIP3    H129435   2.878   6.362   8.419 -0.7339  1.0653  0.0385
 2600TIP3    H229436   2.891   6.441   8.548  1.1773  0.1099  0.4668
 2601TIP3   OH229437   4.386   4.433   1.673  0.3797 -0.2236 -0.1183
 2601TIP3    H129438   4.456   4.430   1.607  1.8461 -1.3281  1.4262
 2601TIP3    H229439   4.384   4.525   1.700  1.1873 -0.1596 -0.2335
 2602TIP3   OH229440   6.122   2.245   2.087 -0.3841 -0.0361 -0.8459
 2602TIP3    H129441   6.120   2.306   2.160  0.6842 -0.6030 -0.3240
 2602TIP3    H229442   6.152   2.298   2.013 -1.0037  0.4269 -0.7769
 2603TIP3   OH229443   2.231   5.052   2.311 -0.4992 -0.1238 -0.0688
 2603TIP3    H129444   2.233   5.091   2.398 -2.1785  0.7773 -0.3895
 2603TIP3    H229445   2.319   5.065   2.275 -0.5312  1.8429  0.4971
 2604TIP3   OH229446   6.657   6.520   1.077 -0.0196 -0.0843 -0.0530
 2604TIP3    H129447   6.618   6.448   1.127  0.6041 -0.5942 -0.2860
 2604TIP3    H229448   6.658   6.488   0.987 -0.8582  0.7088 -0.3589
 2605TIP3   OH229449   1.560   5.124   0.531 -0.9818 -0.1975  0.4409
 2605TIP3    H129450   1.472   5.162   0.523 -1.2160 -0.1456  2.6416
 2605TIP3    H229451   1.545   5.034   0.561 -0.3036 -0.9471 -1.2949
 2606TIP3   OH229452   0.574   4.657   0.515  0.0794 -0.1566  0.0385
 2606TIP3    H129453   0.646   4.690   0.461  0.3904 -1.7725 -0.5837
 2606TIP3    H229454   0.511   4.622   0.452 -1.1145  0.9044  0.5958
 2607TIP3   OH229455   2.050   2.479   8.067 -0.5455 -0.5153  0.5579
 2607TIP3    H129456   2.010   2.425   8.000 -2.6399  1.0526  0.4323
 2607TIP3    H229457   2.006   2.453   8.148 -0.8376  0.2685  0.6580
 2608TIP3   OH229458   4.248   1.663   2.167  0.0529  0.2145 -0.7531
 2608TIP3    H129459   4.272   1.574   2.140  2.1829 -0.1556  1.8449
 2608TIP3    H229460   4.323   1.717   2.142  0.9800  0.2894  1.8641
 2609TIP3   OH229461   6.447   2.566   8.430 -0.0592 -0.1791 -0.1742
 2609TIP3    H129462   6.500   2.491   8.402  0.5043 -0.5737  1.8310
 2609TIP3    H229463   6.434   2.617   8.350 -1.3120 -2.8956 -1.8344
 2610TIP3   OH229464   2.799   0.452   2.015 -0.4067  0.4012  0.8848
 2610TIP3    H129465   2.864   0.413   2.074 -0.5777  1.4583  1.8117
 2610TIP3    H229466   2.715   0.433   2.057 -0.7826 -1.3309 -0.5275
 2611TIP3   OH229467   2.906   5.716   2.605  0.4400 -0.1737 -0.0459
 2611TIP3    H129468   2.913   5.704   2.510  0.9423  1.8249 -0.3099
 2611TIP3    H229469   2.813   5.733   2.621  0.1685 -1.5798 -0.0019
 2612TIP3   OH229470   5.438   0.840   3.232 -0.0432  0.3051 -0.0463
 2612TIP3    H129471   5.435   0.831   3.328  1.8519 -0.9323 -0.0435
 2612TIP3    H229472   5.511   0.900   3.216 -1.4103  1.8613 -0.7119
 2613TIP3   OH229473   6.070   3.087   1.525 -0.0434 -0.1918  0.1015
 2613TIP3    H129474   6.055   3.084   1.620  1.4883 -1.9167  0.3600
 2613TIP3    H229475   6.097   3.178   1.508 -1.2787  0.3958  1.1336
 2614TIP3   OH229476   4.482   2.633   0.117  0.1330  0.5080 -0.3912
 2614TIP3    H129477   4.407   2.681   0.083  0.1662 -0.4357 -1.8978
 2614TIP3    H229478   4.444   2.552   0.151  0.3112  0.6534  0.1533
 2615TIP3   OH229479   3.689   4.840   7.652 -0.2875  0.2605  0.1010
 2615TIP3    H129480   3.640   4.760   7.670  0.7299 -0.6016 -0.8338
 2615TIP3    H229481   3.624   4.901   7.619 -0.7704 -0.8561 -1.1072
 2616TIP3   OH229482   5.280   0.121   0.663  0.7469 -0.2155  0.4507
 2616TIP3    H129483   5.247   0.049   0.717 -1.3589  1.1502  1.1072
 2616TIP3    H229484   5.202   0.157   0.621  1.6346  2.1206  0.6788
 2617TIP3   OH229485   6.091   5.038   0.022  0.4034 -0.1096  0.2354
 2617TIP3    H129486   6.069   4.961   0.074  1.9070  1.6309  3.8865
 2617TIP3    H229487   6.007   5.078   0.001 -0.3124 -0.7385  1.7615
 2618TIP3   OH229488   1.202   3.820   0.376 -0.3333 -0.6669 -0.2918
 2618TIP3    H129489   1.160   3.839   0.460  1.0000 -1.2363  0.5426
 2618TIP3    H229490   1.291   3.855   0.385 -0.5234  0.3525 -1.9411
 2619TIP3   OH229491   0.078   5.737   8.796 -0.3862  0.4532  0.2388
 2619TIP3    H129492   0.001   5.775   8.840  0.0686  5.0441 -2.3671
 2619TIP3    H229493   0.149   5.748   8.859 -1.0191  0.2510  1.0119
 2620TIP3   OH229494   6.459   2.999   1.160 -0.2407  0.4051 -0.2611
 2620TIP3    H129495   6.414   2.932   1.109 -0.5074  0.2833  0.1251
 2620TIP3    H229496   6.476   2.958   1.244  1.6301  0.0680 -0.7623
 2621TIP3   OH229497   0.273   2.824   8.460 -0.0785  0.2197 -0.0310
 2621TIP3    H129498   0.362   2.789   8.465  0.6001  2.0048  1.5982
 2621TIP3    H229499   0.284   2.917   8.441 -1.7620 -0.0146 -2.6875
 2622TIP3   OH229500   4.206   3.012   2.688  0.5946 -0.0678  0.2146
 2622TIP3    H129501   4.229   2.925   2.657  0.9302  0.5444 -1.3876
 2622TIP3    H229502   4.176   3.058   2.609 -2.9404  0.2614  1.5423
 2623TIP3   OH229503   3.048   0.483   1.629  0.0857 -0.1906 -0.0134
 2623TIP3    H129504   3.074   0.511   1.542  0.4636 -0.2693  0.0712
 2623TIP3    H229505   2.991   0.407   1.614 -1.2444  0.8372 -0.2540
 2624TIP3   OH229506   0.497   5.480   0.923  0.0177 -0.2067  0.2547
 2624TIP3    H129507   0.582   5.442   0.948 -0.3360 -1.6720 -0.6933
 2624TIP3    H229508   0.443   5.471   1.002  0.4515 -0.1250  0.5654
 2625TIP3   OH229509   1.647   5.592   1.158 -0.0079 -0.3666 -0.4287
 2625TIP3    H129510   1.727   5.643   1.146 -0.3892  0.1183 -0.9543
 2625TIP3    H229511   1.602   5.633   1.232 -0.4212  0.2163 -0.9892
 2626TIP3   OH229512   0.774   1.151   0.949 -0.2881 -0.7440 -0.1701
 2626TIP3    H129513   0.817   1.185   0.870  1.4022 -0.9991  0.5785
 2626TIP3    H229514   0.740   1.065   0.923 -1.4550 -0.0217 -1.1135
 2627TIP3   OH229515   6.645   3.612   3.893 -0.3463  0.2894  0.5224
 2627TIP3    H129516   6.627   3.638   3.803  1.5935  1.1074  0.3262
 2627TIP3    H229517   6.642   3.516   3.892  1.1018  0.2137 -0.7845
 2628TIP3   OH229518   2.910   1.878   2.949 -0.7406  0.5968  0.2868
 2628TIP3    H129519   2.986   1.847   2.999 -0.5471 -1.0511 -0.9533
 2628TIP3    H229520   2.936   1.964   2.917  0.9052 -0.2267 -0.6993
 2629TIP3   OH229521   3.696   1.713   8.957 -0.2382 -0.0070 -0.2660
 2629TIP3    H129522   3.729   1.736   8.870 -0.1816  2.8170  0.3989
 2629TIP3    H229523   3.775   1.696   9.008 -0.1907 -0.1273 -0.3769
 2630TIP3   OH229524   2.577   5.229   2.690  0.7608 -0.1768 -0.0730
 2630TIP3    H129525   2.518   5.286   2.739  0.6574  0.6814 -1.1768
 2630TIP3    H229526   2.663   5.246   2.727  0.3999 -1.3047  1.4271
 2631TIP3   OH229527   5.409   6.126   0.008 -0.2359  0.1180  0.0574
 2631TIP3    H129528   5.324   6.132   0.051 -0.3210  0.2311 -0.1224
 2631TIP3    H229529   5.445   6.043   0.036  0.2761  0.7635  1.3838
 2632TIP3   OH229530   3.672   1.806   8.612  0.2919 -0.4950 -0.2612
 2632TIP3    H129531   3.726   1.859   8.671  0.4905 -1.9138  0.8839
 2632TIP3    H229532   3.679   1.851   8.528  3.3080 -0.6018 -0.1920
 2633TIP3   OH229533   2.481   1.512   2.025  0.0144 -0.5148  0.0767
 2633TIP3    H129534   2.440   1.428   2.049  0.2575 -0.7301 -0.2427
 2633TIP3    H229535   2.409   1.565   1.992  0.0733 -1.1463 -1.1697
 2634TIP3   OH229536   1.647   0.686   2.003  0.1992 -0.5061 -0.4489
 2634TIP3    H129537   1.683   0.766   2.040 -0.9487 -0.3105  0.3068
 2634TIP3    H229538   1.690   0.677   1.918 -0.8568  1.8405 -1.3274
 2635TIP3   OH229539   3.306   1.013   8.359 -0.2737 -0.1004  0.5473
 2635TIP3    H129540   3.278   0.970   8.278 -0.4167  2.1818 -0.7050
 2635TIP3    H229541   3.255   0.970   8.428 -0.9872 -1.3516 -0.7143
 2636TIP3   OH229542   0.603   1.991   0.834  0.0848  0.3255 -0.0327
 2636TIP3    H129543   0.634   1.901   0.846 -1.0729  0.1234  1.9504
 2636TIP3    H229544   0.587   1.999   0.740  2.3830 -0.7606 -0.5879
 2637TIP3   OH229545   6.422   1.507   1.682  0.3718 -0.2094 -0.0527
 2637TIP3    H129546   6.388   1.444   1.745  1.6650  0.3344  1.2643
 2637TIP3    H229547   6.443   1.584   1.734  1.3973  0.3031 -1.1660
 2638TIP3   OH229548   4.841   3.922   7.674  0.4424  0.3669  0.6354
 2638TIP3    H129549   4.899   3.904   7.601  1.3439  0.3830  1.3296
 2638TIP3    H229550   4.769   3.859   7.664 -0.5432  1.7190 -1.3994
 2639TIP3   OH229551   0.898   2.549   8.988  0.2932  0.3384 -0.4059
 2639TIP3    H129552   0.983   2.520   9.023  0.2328  2.0272  1.3175
 2639TIP3    H229553   0.909   2.644   8.975 -1.5794  0.7416  0.6648
 2640TIP3   OH229554   5.220   0.832   1.450 -0.1579  0.3701 -0.3047
 2640TIP3    H129555   5.287   0.805   1.514  0.4842 -0.5353 -1.3250
 2640TIP3    H229556   5.196   0.920   1.477  0.4303  0.1856  0.9201
 2641TIP3   OH229557   5.310   6.679   8.665  0.0011 -0.3718 -0.0888
 2641TIP3    H129558   5.240   6.711   8.721  0.8856  3.7319 -0.9607
 2641TIP3    H229559   5.266   6.635   8.593 -1.8202  1.9285 -0.5151
 2642TIP3   OH229560   0.805   4.023   0.472  0.2907 -0.3198  0.4269
 2642TIP3    H129561   0.799   3.970   0.551  0.1927 -1.3326 -0.2425
 2642TIP3    H229562   0.885   4.074   0.484  0.4592 -0.7151  1.0263
 2643TIP3   OH229563   4.326   6.521   2.112 -0.0241  0.1245  0.7698
 2643TIP3    H129564   4.347   6.562   2.028 -0.1933 -1.2199  0.0444
 2643TIP3    H229565   4.233   6.499   2.105  0.3987 -1.7624  0.4906
 2644TIP3   OH229566   5.149   3.143   8.701  0.0732  0.7635 -0.1184
 2644TIP3    H129567   5.140   3.097   8.618 -0.7985  0.4883  0.1226
 2644TIP3    H229568   5.238   3.179   8.699  0.6092 -0.5416 -0.5066
 2645TIP3   OH229569   2.262   6.200   2.243 -0.1639  0.0402 -0.2910
 2645TIP3    H129570   2.238   6.191   2.151  0.8219 -1.0179 -0.4651
 2645TIP3    H229571   2.195   6.150   2.290  0.5229 -1.2519 -0.6265
 2646TIP3   OH229572   6.463   1.997   2.449 -0.2161  0.1853  0.4539
 2646TIP3    H129573   6.530   2.019   2.514 -0.5368 -0.0886  0.8844
 2646TIP3    H229574   6.425   1.915   2.481 -0.0456 -0.2135 -0.3430
 2647TIP3   OH229575   6.667   6.508   9.029  0.0019 -0.3745  0.0800
 2647TIP3    H129576   6.677   6.459   8.947 -0.3494 -0.8645  0.3244
 2647TIP3    H229577   6.755   6.537   9.051 -0.0007  0.3528 -0.8344
 2648TIP3   OH229578   4.699   0.869   8.936  0.0903  0.0241  0.3139
 2648TIP3    H129579   4.771   0.880   8.998 -0.0631  0.7033  0.3768
 2648TIP3    H229580   4.628   0.923   8.972 -0.4078 -0.5383  0.1857
 2649TIP3   OH229581   1.862   4.835   0.468 -0.0641  0.4990 -0.5516
 2649TIP3    H129582   1.841   4.764   0.408 -1.0600 -0.7829  1.2363
 2649TIP3    H229583   1.812   4.910   0.435 -1.9780 -0.6445 -0.3665
 2650TIP3   OH229584   1.151   0.716   2.194 -0.4567  0.6012  0.2706
 2650TIP3    H129585   1.123   0.713   2.285 -0.8711  0.3523  0.1391
 2650TIP3    H229586   1.118   0.800   2.161  0.5434  1.1485  0.6103
 2651TIP3   OH229587   3.713   4.797   8.560 -0.0285  0.3436  0.9389
 2651TIP3    H129588   3.744   4.742   8.488  0.0578  0.0804  1.1707
 2651TIP3    H229589   3.693   4.734   8.630 -0.1697  0.5912  1.1206
 2652TIP3   OH229590   2.431   1.658   7.788 -0.3288 -0.1753 -0.0310
 2652TIP3    H129591   2.414   1.662   7.693 -1.3439  2.4726  0.1670
 2652TIP3    H229592   2.364   1.599   7.822 -1.3421  0.5164 -0.7579
 2653TIP3   OH229593   5.252   4.004   8.515 -0.1268 -0.0469  0.1901
 2653TIP3    H129594   5.294   4.085   8.544  0.2393  0.0278 -0.5242
 2653TIP3    H229595   5.317   3.936   8.535  0.2672  0.0437 -0.7207
 2654TIP3   OH229596   2.832   0.838   2.672  0.0618 -0.4425 -0.1574
 2654TIP3    H129597   2.761   0.774   2.669  0.3640 -0.7498 -0.9245
 2654TIP3    H229598   2.890   0.813   2.600  1.8011 -1.1826  1.4162
 2655TIP3   OH229599   0.187   6.139   2.848  0.0823  0.2213  0.2266
 2655TIP3    H129600   0.193   6.207   2.781  0.6157 -1.2057 -1.2456
 2655TIP3    H229601   0.242   6.171   2.919  0.4965  1.2281 -0.5220
 2656TIP3   OH229602   5.854   4.328   2.267  0.2225 -0.5866  0.1285
 2656TIP3    H129603   5.915   4.398   2.291  0.6398 -0.1549 -1.9305
 2656TIP3    H229604   5.900   4.247   2.290  0.5100 -0.2250  0.8635
 2657TIP3   OH229605   3.672   2.992   8.557  0.1508 -0.5768  0.2387
 2657TIP3    H129606   3.749   3.027   8.512 -0.2834  1.3810  0.9152
 2657TIP3    H229607   3.633   2.931   8.495  1.4635 -0.5590 -0.6495
 2658TIP3   OH229608   6.533   6.619   7.778  0.1278 -0.0513  0.0241
 2658TIP3    H129609   6.456   6.566   7.799  0.0303  0.3913  0.8351
 2658TIP3    H229610   6.608   6.564   7.801  0.0205  0.5393  1.9045
 2659TIP3   OH229611   2.789   2.003   0.762 -0.0412 -0.5216  0.2025
 2659TIP3    H129612   2.852   1.936   0.790  0.8139  0.2618  0.2159
 2659TIP3    H229613   2.792   2.068   0.832 -0.6737 -0.3522  0.0703
 2660TIP3   OH229614   0.587   0.638   1.811  0.2944 -0.3102  0.4957
 2660TIP3    H129615   0.614   0.685   1.890  0.8403  0.1077  0.0663
 2660TIP3    H229616   0.664   0.589   1.784  0.4448  0.4010 -0.3904
 2661TIP3   OH229617   0.836   0.073   0.804  1.1635  0.0306 -0.0208
 2661TIP3    H129618   0.754   0.038   0.768  0.7330 -1.0585  1.8545
 2661TIP3    H229619   0.841   0.162   0.770 -1.9122  0.8866  1.4115
 2662TIP3   OH229620   3.916   5.102   2.131  0.1216 -0.2672  0.1557
 2662TIP3    H129621   3.949   5.148   2.054  0.8543 -1.1826 -0.0939
 2662TIP3    H229622   3.964   5.140   2.205  1.0102 -0.8851 -0.0927
 2663TIP3   OH229623   5.160   0.258   2.739  0.0963 -0.2730 -0.0917
 2663TIP3    H129624   5.175   0.299   2.825 -0.5364  0.1973 -0.1934
 2663TIP3    H229625   5.243   0.217   2.717  1.0041  1.5453 -0.2857
 2664TIP3   OH229626   1.916   2.377   8.640 -0.8390 -0.9557  0.0565
 2664TIP3    H129627   1.933   2.422   8.558 -2.4624  0.1874  0.3128
 2664TIP3    H229628   2.002   2.345   8.668  0.1925  1.0797 -0.6461
 2665TIP3   OH229629   1.320   1.225   0.551  0.1564 -0.1366  0.2805
 2665TIP3    H129630   1.264   1.147   0.546  1.2574 -0.9807  0.6882
 2665TIP3    H229631   1.351   1.226   0.641  1.2933 -0.0482 -0.1037
 2666TIP3   OH229632   4.722   5.183   0.331  0.2382  0.3690  0.3387
 2666TIP3    H129633   4.657   5.205   0.264  0.6242  1.1075  0.1957
 2666TIP3    H229634   4.784   5.256   0.329 -0.0994  0.7357  1.9535
 2667TIP3   OH229635   0.891   0.863   8.353 -0.2176 -0.2452  0.1408
 2667TIP3    H129636   0.921   0.773   8.363 -0.6284 -0.6554 -1.9096
 2667TIP3    H229637   0.796   0.858   8.361 -0.5119 -0.4954 -2.6600
 2668TIP3   OH229638   4.507   3.302   0.576 -0.0881  0.2939  0.1833
 2668TIP3    H129639   4.431   3.323   0.522  0.0376 -0.7587 -0.4501
 2668TIP3    H229640   4.572   3.368   0.554 -0.5728  0.7751  0.1903
 2669TIP3   OH229641   0.919   4.440   8.341 -0.1986  0.3010  0.1729
 2669TIP3    H129642   0.889   4.468   8.427  1.0682  2.4688 -0.0158
 2669TIP3    H229643   0.855   4.476   8.280 -0.2212  0.1732  0.1217
 2670TIP3   OH229644   4.718   2.753   8.796  0.0743 -0.3221  0.0667
 2670TIP3    H129645   4.795   2.791   8.754 -0.9012 -0.8428 -2.3804
 2670TIP3    H229646   4.733   2.658   8.793 -0.6690 -0.4323 -0.5070
 2671TIP3   OH229647   3.365   0.630   2.762 -0.4164 -0.6377  0.5428
 2671TIP3    H129648   3.449   0.675   2.752 -0.7674 -0.2367 -0.8184
 2671TIP3    H229649   3.358   0.575   2.684 -2.0226  0.3990 -0.1060
 2672TIP3   OH229650   4.639   4.245   0.258 -0.5206  0.1201 -0.5016
 2672TIP3    H129651   4.698   4.277   0.190 -0.2880 -1.3635 -1.0261
 2672TIP3    H229652   4.588   4.323   0.283  1.3732  1.3570 -0.2753
 2673TIP3   OH229653   1.366   5.546   1.990  0.2173  0.6234  0.6981
 2673TIP3    H129654   1.408   5.463   2.011 -1.9971 -0.1936  2.2540
 2673TIP3    H229655   1.356   5.544   1.895 -1.4598 -1.8368  0.8199
 2674TIP3   OH229656   2.418   2.171   2.821  1.1271  0.2770 -0.5008
 2674TIP3    H129657   2.390   2.232   2.889 -0.3599  0.1965 -1.0140
 2674TIP3    H229658   2.512   2.158   2.838  0.9142  0.7006  1.1720
 2675TIP3   OH229659   4.049   5.386   8.440  0.2544  0.2341  0.1415
 2675TIP3    H129660   4.047   5.369   8.346 -2.2427  0.5366  0.0801
 2675TIP3    H229661   4.024   5.303   8.481  0.4782  0.3354  0.4899
 2676TIP3   OH229662   0.225   0.479   3.565 -0.3453  1.0857 -0.2091
 2676TIP3    H129663   0.315   0.473   3.596 -0.4644 -1.0373 -0.1418
 2676TIP3    H229664   0.178   0.525   3.635  0.1380 -0.2922  1.0659
 2677TIP3   OH229665   4.680   1.123   0.697  0.4978  0.4877  0.8710
 2677TIP3    H129666   4.592   1.132   0.659 -0.4656 -2.2731  2.1824
 2677TIP3    H229667   4.718   1.048   0.651  0.9143 -0.2877  2.4251
 2678TIP3   OH229668   3.264   0.932   9.079  0.1019 -0.0435  0.4376
 2678TIP3    H129669   3.338   0.933   9.018  0.7694 -0.0616  1.2163
 2678TIP3    H229670   3.237   1.023   9.085 -0.9818 -0.2324 -1.0447
 2679TIP3   OH229671   0.774   1.687   3.164 -0.5251  0.8616  0.5224
 2679TIP3    H129672   0.776   1.782   3.177 -1.0979  0.9205  0.2324
 2679TIP3    H229673   0.721   1.676   3.085  0.0836  0.3370  0.1793
 2680TIP3   OH229674   1.971   3.916   0.266  0.6866  0.2950 -0.3606
 2680TIP3    H129675   2.017   3.987   0.220  0.0538  1.1973  0.3541
 2680TIP3    H229676   1.909   3.882   0.202  1.0039  0.3840 -0.7168
 2681TIP3   OH229677   3.156   1.983   3.072  0.3925 -0.4222  0.2447
 2681TIP3    H129678   3.152   2.075   3.045 -0.9107 -0.6359 -0.3629
 2681TIP3    H229679   3.245   1.972   3.104  1.0744  0.6493 -1.1646
 2682TIP3   OH229680   1.551   0.142   8.380 -0.0366 -0.2795 -0.0746
 2682TIP3    H129681   1.476   0.087   8.359 -0.8762  0.7537  0.1037
 2682TIP3    H229682   1.538   0.220   8.326  1.3772 -0.4369 -0.6821
 2683TIP3   OH229683   5.281   3.025   1.848  0.4874  0.3935 -0.7256
 2683TIP3    H129684   5.220   3.008   1.777 -1.8912 -2.7166  1.7720
 2683TIP3    H229685   5.340   2.950   1.848  0.0700  0.0314  0.8945
 2684TIP3   OH229686   6.303   6.461   2.704 -0.1080  0.3528  0.2435
 2684TIP3    H129687   6.301   6.415   2.788  1.0994 -1.4472 -0.6616
 2684TIP3    H229688   6.338   6.548   2.725 -0.4979  0.1889  1.6870
 2685TIP3   OH229689   0.566   4.538   8.673 -0.7279 -0.2264  1.0330
 2685TIP3    H129690   0.526   4.540   8.760 -1.9876  0.5657  0.4649
 2685TIP3    H229691   0.597   4.628   8.659  1.4274 -0.8292  1.4904
 2686TIP3   OH229692   0.698   1.199   8.028 -0.2060 -0.0716  0.6428
 2686TIP3    H129693   0.675   1.275   8.082 -0.0571  1.0861 -0.8402
 2686TIP3    H229694   0.623   1.141   8.035 -0.4796  0.3591  1.5274
 2687TIP3   OH229695   3.008   2.602   1.129  0.3762 -0.1447 -0.2461
 2687TIP3    H129696   3.031   2.690   1.100  2.8262 -0.3011  0.9852
 2687TIP3    H229697   2.945   2.616   1.200  0.8886  0.6501  0.0685
 2688TIP3   OH229698   3.762   5.777   0.631 -0.0743  0.0854  0.1337
 2688TIP3    H129699   3.811   5.765   0.713  0.7665  1.8894 -0.0738
 2688TIP3    H229700   3.744   5.870   0.627 -0.6769 -0.0724 -1.4438
 2689TIP3   OH229701   3.056   2.740   8.641  0.1161 -0.0976  0.3022
 2689TIP3    H129702   3.085   2.829   8.660 -0.5150 -0.5242  4.0620
 2689TIP3    H229703   3.136   2.690   8.629  0.5110  0.7343 -0.6339
 2690TIP3   OH229704   4.066   1.849   1.340  0.8874 -0.1127  0.0512
 2690TIP3    H129705   4.111   1.843   1.256  2.0729 -0.3637  0.6860
 2690TIP3    H229706   4.080   1.939   1.369  1.8300 -0.4611  0.7030
 2691TIP3   OH229707   4.484   1.565   2.454 -0.3127 -0.7801 -0.5103
 2691TIP3    H129708   4.527   1.556   2.539  3.4810 -2.2850 -2.3227
 2691TIP3    H229709   4.411   1.503   2.457 -0.2050 -0.8705  1.5958
 2692TIP3   OH229710   4.253   3.732   1.220  0.2636  0.0992 -0.3027
 2692TIP3    H129711   4.315   3.792   1.262 -0.3634 -0.2428  1.1761
 2692TIP3    H229712   4.306   3.680   1.159  0.7837  2.2830 -1.8188
 2693TIP3   OH229713   1.757   3.082   2.081 -0.3446  0.2275 -0.1522
 2693TIP3    H129714   1.779   3.053   2.170 -0.3542 -0.8585 -0.4864
 2693TIP3    H229715   1.662   3.075   2.077 -0.1868 -3.5383 -1.4178
 2694TIP3   OH229716   0.388   5.104   1.357 -0.3047  0.3128  0.1390
 2694TIP3    H129717   0.352   5.058   1.433 -0.4932  0.1325 -0.0571
 2694TIP3    H229718   0.315   5.109   1.296 -0.1138  0.3296 -0.0894
 2695TIP3   OH229719   5.850   1.905   0.092 -0.0546 -0.0396  0.1500
 2695TIP3    H129720   5.934   1.885   0.050 -1.0152  0.4001 -2.1866
 2695TIP3    H229721   5.814   1.820   0.115  0.5735 -0.3031  0.1712
 2696TIP3   OH229722   0.904   5.825   0.132 -0.1478  0.6651  0.0207
 2696TIP3    H129723   0.959   5.776   0.194  3.3626  2.0713 -1.6897
 2696TIP3    H229724   0.921   5.784   0.047 -0.7841  1.9673 -0.7591
 2697TIP3   OH229725   6.496   4.304   2.385  0.0221  0.0159  0.1910
 2697TIP3    H129726   6.489   4.293   2.291 -1.0196 -1.8068  0.4385
 2697TIP3    H229727   6.563   4.241   2.412 -1.1346 -0.9751  0.8689
 2698TIP3   OH229728   1.459   1.028   1.119  0.0291  0.0343 -0.1525
 2698TIP3    H129729   1.492   0.961   1.060  0.7873  0.0243  0.2758
 2698TIP3    H229730   1.437   1.102   1.062  0.7626  0.0279 -0.4527
 2699TIP3   OH229731   2.890   0.951   2.920 -0.6892 -0.4952 -0.4388
 2699TIP3    H129732   2.890   0.885   2.851 -0.1858 -0.0867 -0.8247
 2699TIP3    H229733   2.823   0.920   2.982 -2.0904 -0.1771 -1.7440
 2700TIP3   OH229734   3.322   1.911   7.988 -0.0871  0.2285  0.4377
 2700TIP3    H129735   3.323   1.984   8.051  0.4506  0.7290 -0.1345
 2700TIP3    H229736   3.229   1.894   7.972 -0.2183  1.0450  0.2927
 2701TIP3   OH229737   5.146   2.445   9.037  0.0956  0.1459  0.5493
 2701TIP3    H129738   5.189   2.360   9.026  1.1486  0.7822 -0.4033
 2701TIP3    H229739   5.054   2.427   9.017 -0.2562 -1.3091  2.9865
 2702TIP3   OH229740   0.512   4.471   3.035 -0.0731  0.1776 -0.3366
 2702TIP3    H129741   0.441   4.495   3.093 -1.2151  0.0369 -1.6258
 2702TIP3    H229742   0.543   4.386   3.067 -1.5060 -0.4840 -0.6478
 2703TIP3   OH229743   1.078   5.135   1.177  0.3161 -0.3819 -0.3857
 2703TIP3    H129744   1.160   5.107   1.136  0.9870  1.4431 -0.3697
 2703TIP3    H229745   1.069   5.227   1.151 -1.0414 -0.1887  0.7067
 2704TIP3   OH229746   0.824   5.817   1.153 -0.5207  0.1377 -0.1758
 2704TIP3    H129747   0.853   5.793   1.066 -2.4208 -0.5763 -0.6697
 2704TIP3    H229748   0.733   5.787   1.157 -0.3590 -0.2573  2.1997
 2705TIP3   OH229749   1.807   4.119   3.529  0.7536 -0.0131  0.2106
 2705TIP3    H129750   1.878   4.182   3.515  0.5057  0.3250  0.4714
 2705TIP3    H229751   1.851   4.041   3.562  1.1229 -0.1570 -0.5899
 2706TIP3   OH229752   0.094   0.093   0.662  0.4916 -0.2117 -0.8602
 2706TIP3    H129753   0.105   0.026   0.729 -0.0809  0.7834  0.2740
 2706TIP3    H229754   0.017   0.142   0.689  1.5728  1.6635 -0.9615
 2707TIP3   OH229755   6.198   6.493   1.836  0.1397  0.0215 -0.0156
 2707TIP3    H129756   6.209   6.585   1.811  1.4835 -0.4849 -1.4089
 2707TIP3    H229757   6.166   6.496   1.926  0.1424  1.8458 -0.0478
 2708TIP3   OH229758   0.190   2.403   2.627  0.1805 -0.5127  0.5740
 2708TIP3    H129759   0.254   2.368   2.690 -0.2670 -0.4519  1.0668
 2708TIP3    H229760   0.162   2.326   2.577  1.0437 -0.4594 -0.0328
 2709TIP3   OH229761   6.477   0.001   3.335 -0.0275 -0.1677  0.1450
 2709TIP3    H129762   6.442  -0.085   3.314 -0.9694  0.3259 -0.4018
 2709TIP3    H229763   6.430   0.027   3.414 -1.1888  0.6312 -0.7673
 2710TIP3   OH229764   4.131   6.616   0.959 -0.4545  0.5749  0.7472
 2710TIP3    H129765   4.139   6.522   0.971 -1.7541 -0.0922 -2.5032
 2710TIP3    H229766   4.067   6.643   1.025 -1.2491 -1.1354  0.7379
 2711TIP3   OH229767   5.181   3.520   2.027 -0.0667 -0.1301  0.4086
 2711TIP3    H129768   5.249   3.495   2.090 -0.1005  1.4370  1.1163
 2711TIP3    H229769   5.205   3.608   1.999 -0.6641 -0.3723 -0.9657
 2712TIP3   OH229770   2.775   3.139   7.907 -0.4876 -0.8387 -0.4097
 2712TIP3    H129771   2.789   3.044   7.906  0.7067 -0.7042  0.8998
 2712TIP3    H229772   2.731   3.155   7.990 -0.0522 -0.1639 -0.3078
 2713TIP3   OH229773   6.684   3.923   2.522 -0.0215  0.2799 -0.0488
 2713TIP3    H129774   6.763   3.869   2.517 -0.3287 -0.1061 -0.7909
 2713TIP3    H229775   6.636   3.888   2.597  0.7831  0.9071  0.7868
 2714TIP3   OH229776   3.668   0.560   1.784  0.4974  0.1780  0.4864
 2714TIP3    H129777   3.575   0.568   1.803  0.3750  0.5762 -0.2636
 2714TIP3    H229778   3.681   0.468   1.764  0.2230  0.1659  0.3668
 2715TIP3   OH229779   5.368   3.338   2.846  0.4202 -0.1163 -0.0746
 2715TIP3    H129780   5.274   3.325   2.840  0.0034  1.8420  1.2135
 2715TIP3    H229781   5.398   3.268   2.904 -0.6578  0.6117  1.4394
 2716TIP3   OH229782   6.129   4.930   1.797  0.7636  0.3045 -0.2803
 2716TIP3    H129783   6.073   4.866   1.754 -1.2658  1.9706 -0.2966
 2716TIP3    H229784   6.164   4.885   1.874 -1.8083 -0.4392  0.5473
 2717TIP3   OH229785   6.729   6.098   0.069 -0.3377 -0.3360  0.0149
 2717TIP3    H129786   6.798   6.033   0.069  0.5318  0.4645  2.4733
 2717TIP3    H229787   6.660   6.060   0.123 -0.5144  0.1061  0.1092
 2718TIP3   OH229788   0.190   6.113   0.357  0.1061  0.3870 -0.2141
 2718TIP3    H129789   0.140   6.185   0.394  0.5051 -0.5455  2.3230
 2718TIP3    H229790   0.129   6.039   0.358  0.4793  0.0733 -0.4110
 2719TIP3   OH229791   5.457   5.160   2.787 -0.9120  0.3673 -0.1587
 2719TIP3    H129792   5.394   5.170   2.715 -1.2553  0.5056  0.1529
 2719TIP3    H229793   5.474   5.066   2.792  2.8215  0.5776 -3.5369
 2720TIP3   OH229794   5.623   6.170   8.106 -0.7389 -0.0084 -0.0127
 2720TIP3    H129795   5.596   6.102   8.044  0.6620 -1.6862  1.1226
 2720TIP3    H229796   5.682   6.226   8.056 -0.3193 -0.8236 -0.4455
 2721TIP3   OH229797   3.683   3.299   1.937 -0.6502  0.1000 -0.0226
 2721TIP3    H129798   3.689   3.357   1.862 -0.2403 -0.1018 -0.1471
 2721TIP3    H229799   3.590   3.277   1.943 -0.6765  0.0788 -0.4962
 2722TIP3   OH229800   0.131   3.710   3.094  0.1025 -0.0628  0.1034
 2722TIP3    H129801   0.108   3.788   3.145 -0.4143 -0.3534  0.3241
 2722TIP3    H229802   0.046   3.674   3.067  0.3474 -0.4035 -0.2186
 2723TIP3   OH229803   4.855   4.550   8.733 -0.0132  0.2296  0.3587
 2723TIP3    H129804   4.914   4.491   8.685 -0.9156 -0.8447  0.5212
 2723TIP3    H229805   4.901   4.567   8.815 -0.0917 -0.9643  0.6763
 2724TIP3   OH229806   5.808   2.774   2.447  0.0895 -0.5026 -0.0475
 2724TIP3    H129807   5.739   2.837   2.423  0.1254 -0.6245 -0.4874
 2724TIP3    H229808   5.849   2.752   2.364  1.5918  0.6238  0.3552
 2725TIP3   OH229809   5.941   1.123   2.106 -0.0268 -0.0559 -0.0003
 2725TIP3    H129810   5.967   1.038   2.069  1.4588 -0.0372  0.9270
 2725TIP3    H229811   5.914   1.102   2.196 -0.2347  0.3807  0.0399
 2726TIP3   OH229812   5.948   5.792   8.231  0.8807  0.1164 -0.0332
 2726TIP3    H129813   5.917   5.711   8.192  0.7158  0.9115 -1.6422
 2726TIP3    H229814   6.043   5.781   8.239  1.2009  0.5776 -2.4131
 2727TIP3   OH229815   6.462   3.486   0.907  0.1393 -0.2039 -0.1381
 2727TIP3    H129816   6.432   3.452   0.823 -1.0018 -0.3180  0.2917
 2727TIP3    H229817   6.460   3.411   0.966 -1.7872  0.4134  0.6592
 2728TIP3   OH229818   5.368   2.771   7.726 -0.4261 -0.4927  0.1327
 2728TIP3    H129819   5.413   2.783   7.810  0.1131  0.4220 -0.2683
 2728TIP3    H229820   5.349   2.677   7.722  1.6672 -0.9850  0.2426
 2729TIP3   OH229821   0.223   5.598   8.164 -0.2241  0.1453 -0.0126
 2729TIP3    H129822   0.219   5.504   8.146 -0.2974  0.0876  0.3024
 2729TIP3    H229823   0.171   5.637   8.094 -0.8362 -0.1071  0.2975
 2730TIP3   OH229824   4.164   2.158   0.113  0.2319  0.4983 -0.3057
 2730TIP3    H129825   4.157   2.230   0.176  1.6018  0.6775 -0.3234
 2730TIP3    H229826   4.150   2.199   0.028 -0.8724  0.3895 -0.1893
 2731TIP3   OH229827   4.180   5.126   0.206  0.0041  0.3558 -0.2276
 2731TIP3    H129828   4.112   5.182   0.245  1.1598  0.7035  1.3888
 2731TIP3    H229829   4.153   5.116   0.115 -1.2490  1.9781 -0.0834
 2732TIP3   OH229830   2.484   5.405   7.764  0.3694  0.0687  0.1487
 2732TIP3    H129831   2.511   5.438   7.678  1.9337  0.2401  0.6778
 2732TIP3    H229832   2.536   5.456   7.827  0.5966 -1.2905  1.1142
 2733TIP3   OH229833   2.114   5.741   1.509 -0.6082 -0.1304  0.2780
 2733TIP3    H129834   2.107   5.683   1.585 -1.6050 -0.0357  0.2675
 2733TIP3    H229835   2.029   5.784   1.504 -0.8866 -0.8007 -1.4359
 2734TIP3   OH229836   3.653   4.907   2.620  0.4530  0.2711  0.3309
 2734TIP3    H129837   3.694   4.868   2.543 -1.3144  1.4541 -1.2867
 2734TIP3    H229838   3.714   4.888   2.691  2.2379 -0.7308 -1.3647
 2735TIP3   OH229839   4.399   3.565   2.684 -0.0457  0.0018  0.2000
 2735TIP3    H129840   4.385   3.528   2.771 -1.8818  1.8067  0.7732
 2735TIP3    H229841   4.310   3.575   2.648  0.5438  1.1034 -1.0587
 2736TIP3   OH229842   0.928   5.378   1.686 -0.0250  0.4199 -0.0458
 2736TIP3    H129843   1.017   5.342   1.693 -0.2488  0.1470  2.5424
 2736TIP3    H229844   0.876   5.306   1.651  0.3563 -0.2962  0.7997
 2737TIP3   OH229845   3.198   0.732   8.831  0.1167  0.0239 -0.1664
 2737TIP3    H129846   3.204   0.765   8.921  1.1486  0.5110 -0.4040
 2737TIP3    H229847   3.104   0.732   8.812 -0.1455 -0.4136  1.0263
 2738TIP3   OH229848   5.767   0.525   1.012 -0.3056 -0.0884  0.0119
 2738TIP3    H129849   5.838   0.469   0.979  1.2175 -0.1982  3.0557
 2738TIP3    H229850   5.805   0.613   1.014 -0.2649 -0.1128  1.4699
 2739TIP3   OH229851   0.577   1.148   8.429  0.1361  0.5502  0.0628
 2739TIP3    H129852   0.544   1.117   8.344  1.0281  2.4995 -1.0697
 2739TIP3    H229853   0.500   1.184   8.472 -0.1487  0.4528 -0.3517
 2740TIP3   OH229854   5.826   5.036   2.958 -1.0658 -0.7259  0.2264
 2740TIP3    H129855   5.871   4.979   2.896 -0.3605  0.4437 -0.3866
 2740TIP3    H229856   5.758   4.981   2.997 -0.5562 -1.9040 -0.4869
 2741TIP3   OH229857   4.580   1.920   0.842  0.2512  0.5199 -0.1851
 2741TIP3    H129858   4.638   1.856   0.882  0.4305  0.1320 -1.0469
 2741TIP3    H229859   4.539   1.873   0.769 -1.7319  0.5255  0.8285
 2742TIP3   OH229860   4.522   1.095   8.952  0.6540  0.4856 -0.4523
 2742TIP3    H129861   4.595   1.136   8.998  0.6646 -2.3158  2.3936
 2742TIP3    H229862   4.456   1.164   8.946  2.0904  2.0160  0.4250
 2743TIP3   OH229863   1.939   5.493   2.628 -0.0558  0.2870  0.0430
 2743TIP3    H129864   1.855   5.466   2.590 -0.2902  0.4683  0.4305
 2743TIP3    H229865   1.934   5.467   2.720  1.1594 -1.6561 -0.3799
 2744TIP3   OH229866   3.669   4.250   0.553 -0.0719 -0.1805  0.6706
 2744TIP3    H129867   3.620   4.325   0.588 -0.5995 -1.5490  3.0921
 2744TIP3    H229868   3.629   4.233   0.468 -1.8562  0.5857  1.3029
 2745TIP3   OH229869   5.796   6.198   1.162  0.5163  0.0139 -0.4091
 2745TIP3    H129870   5.807   6.293   1.159  0.1659  0.1054  0.6317
 2745TIP3    H229871   5.859   6.169   1.228 -0.2234 -0.3196  0.1713
 2746TIP3   OH229872   0.872   2.350   8.589 -0.2367 -0.4939  0.1332
 2746TIP3    H129873   0.934   2.331   8.518  0.2079 -1.6467  0.8145
 2746TIP3    H229874   0.912   2.311   8.667 -0.4105  1.3123  1.1671
 2747TIP3   OH229875   2.830   0.313   0.587 -0.5174  0.2247 -0.3569
 2747TIP3    H129876   2.836   0.218   0.577  1.1375  0.1750  0.6486
 2747TIP3    H229877   2.800   0.345   0.502 -1.5607 -1.2229 -0.5545
 2748TIP3   OH229878   0.162   2.156   0.395 -0.2703 -0.3784 -0.1071
 2748TIP3    H129879   0.166   2.172   0.489 -0.6444  1.0661 -0.3171
 2748TIP3    H229880   0.198   2.235   0.355  3.3172 -2.3371 -1.1633
 2749TIP3   OH229881   5.835   1.245   0.617 -0.2721 -0.1386 -0.5896
 2749TIP3    H129882   5.797   1.292   0.543 -1.6547 -2.2581 -1.3030
 2749TIP3    H229883   5.901   1.187   0.578 -1.3645 -1.6438 -0.2769
 2750TIP3   OH229884   3.856   2.761   7.816 -0.0779 -0.8936  0.8907
 2750TIP3    H129885   3.924   2.807   7.866  0.6015 -2.7664  1.7696
 2750TIP3    H229886   3.856   2.672   7.851 -1.2189 -1.6478 -0.8753
 2751TIP3   OH229887   5.125   5.546   8.922  0.5046 -0.0733 -0.1608
 2751TIP3    H129888   5.104   5.479   8.856 -1.3421  2.6776 -2.6204
 2751TIP3    H229889   5.210   5.581   8.894  1.1190 -0.8523  0.6913
 2752TIP3   OH229890   3.122   5.886   1.264 -0.3109  0.2075 -0.0775
 2752TIP3    H129891   3.131   5.792   1.282 -0.3893 -0.3741 -2.7030
 2752TIP3    H229892   3.031   5.906   1.286 -0.2155 -0.2321  0.7900
 2753TIP3   OH229893   5.914   6.177   1.682 -0.5087  0.1144  0.0471
 2753TIP3    H129894   5.972   6.201   1.754  0.9677  0.3427 -1.1547
 2753TIP3    H229895   5.844   6.242   1.684  1.2191  2.1049 -0.6302
 2754TIP3   OH229896   3.416   5.721   2.034  0.4439 -0.1758 -0.2168
 2754TIP3    H129897   3.462   5.642   2.063  2.5023  0.9922 -0.1128
 2754TIP3    H229898   3.443   5.788   2.097  0.9694  1.2278 -1.8758
 2755TIP3   OH229899   4.774   6.010   1.369  0.1384 -0.0955 -0.2076
 2755TIP3    H129900   4.763   6.105   1.374 -0.1053 -0.1004 -0.5870
 2755TIP3    H229901   4.686   5.975   1.380  0.2344 -0.2792 -0.0261
 2756TIP3   OH229902   3.573   1.271   2.581 -0.1762  0.1645  0.3174
 2756TIP3    H129903   3.583   1.250   2.674  3.9360  0.5412  0.1595
 2756TIP3    H229904   3.588   1.187   2.536 -1.1890  0.1709 -0.0485
 2757TIP3   OH229905   5.216   5.275   1.292  0.1855  0.4677  0.3680
 2757TIP3    H129906   5.215   5.204   1.228  0.8152  0.6051  0.2024
 2757TIP3    H229907   5.291   5.256   1.348  0.7975  1.3755 -0.1121
 2758TIP3   OH229908   2.839   5.834   0.888 -0.5336  0.4808 -0.3289
 2758TIP3    H129909   2.794   5.900   0.836  0.5266  2.1387  0.7413
 2758TIP3    H229910   2.779   5.814   0.960 -1.3148 -0.5940 -1.2438
 2759TIP3   OH229911   0.327   3.079   7.848  0.8334  0.0462 -0.0831
 2759TIP3    H129912   0.323   3.063   7.942  1.7036  2.3045  0.3966
 2759TIP3    H229913   0.253   3.030   7.812  0.8561 -1.3656  1.6649
 2760TIP3   OH229914   1.705   2.794   1.681 -0.2718 -0.2168  0.5969
 2760TIP3    H129915   1.658   2.842   1.749 -3.0601  0.1587 -1.4039
 2760TIP3    H229916   1.757   2.861   1.637 -0.2969  0.0032  0.8944
 2761TIP3   OH229917   4.941   3.991   1.598  0.3096  0.3184 -0.6775
 2761TIP3    H129918   4.871   4.034   1.548 -0.0451  0.0033 -0.4572
 2761TIP3    H229919   4.912   3.900   1.606  0.9090  0.1070 -0.8761
 2762TIP3   OH229920   1.539   2.899   8.560 -0.0978  0.1960 -0.3457
 2762TIP3    H129921   1.444   2.898   8.569 -0.1817 -1.0465 -1.1927
 2762TIP3    H229922   1.555   2.889   8.466  0.8814  0.4238 -0.2206
 2763TIP3   OH229923   4.859   4.543   0.898  0.0418  0.7089 -0.1276
 2763TIP3    H129924   4.925   4.552   0.829 -0.0990 -0.0414 -0.3778
 2763TIP3    H229925   4.818   4.459   0.879 -1.1043  1.2419 -0.0776
 2764TIP3   OH229926   0.493   2.919   8.267 -0.1072 -0.0718  0.3857
 2764TIP3    H129927   0.501   2.987   8.333 -1.7813 -0.6604  1.2529
 2764TIP3    H229928   0.580   2.879   8.262  0.5005  1.1437  0.9286
 2765TIP3   OH229929   3.579   3.652   8.090  0.3460  0.4305 -0.4180
 2765TIP3    H129930   3.528   3.578   8.058 -0.5503  0.2057  1.3807
 2765TIP3    H229931   3.665   3.640   8.052  0.2017 -1.5085 -0.2487
 2766TIP3   OH229932   2.658   3.703   1.984  0.1374  0.2526  0.2037
 2766TIP3    H129933   2.576   3.656   2.000  1.2325 -2.4618 -1.4721
 2766TIP3    H229934   2.632   3.778   1.931 -1.3274 -0.3876 -0.0640
 2767TIP3   OH229935   2.654   2.007   0.101 -0.0438  0.3050  0.1074
 2767TIP3    H129936   2.577   1.951   0.115  0.7174 -0.5104  1.1553
 2767TIP3    H229937   2.622   2.096   0.114 -0.7121 -0.0583  0.9955
 2768TIP3   OH229938   3.491   4.296   0.964  0.6297 -0.1016  0.7476
 2768TIP3    H129939   3.396   4.284   0.953  0.2039  1.6151  2.0950
 2768TIP3    H229940   3.506   4.389   0.945  2.2342 -0.5676 -0.4411
 2769TIP3   OH229941   5.538   5.451   2.038 -0.2561 -0.5688  0.4412
 2769TIP3    H129942   5.561   5.512   2.107 -1.8262 -1.1586  1.5277
 2769TIP3    H229943   5.622   5.428   1.998  0.7459 -0.5107  2.3993
 2770TIP3   OH229944   1.480   1.397   2.508  0.3106 -0.5037 -0.5458
 2770TIP3    H129945   1.417   1.389   2.436  0.1199 -0.3051 -0.4052
 2770TIP3    H229946   1.431   1.443   2.576  0.1856 -1.5159  0.0633
 2771TIP3   OH229947   3.228   4.167   2.334 -0.0184 -0.3785 -0.2312
 2771TIP3    H129948   3.172   4.228   2.382 -0.5573 -1.0676  0.0339
 2771TIP3    H229949   3.316   4.203   2.342  0.1264 -1.0997  2.3466
 2772TIP3   OH229950   4.096   1.629   2.400  0.1933  0.3626  0.4601
 2772TIP3    H129951   4.143   1.653   2.321 -1.6951  0.5585 -0.6621
 2772TIP3    H229952   4.062   1.712   2.435  0.9053  0.2662  1.4288
 2773TIP3   OH229953   0.786   6.018   0.806 -0.0975  0.2453  0.0006
 2773TIP3    H129954   0.819   6.074   0.877  1.1150 -0.4590  0.0256
 2773TIP3    H229955   0.865   5.991   0.759 -0.7281 -0.8118 -0.4790
 2774TIP3   OH229956   2.474   2.659   2.021  0.1651 -0.2190  0.6979
 2774TIP3    H129957   2.498   2.662   2.114  0.0391 -2.6279  0.8596
 2774TIP3    H229958   2.378   2.664   2.021  0.1428 -0.6189  0.7339
 2775TIP3   OH229959   4.273   2.442   2.248 -0.5244 -0.2133  0.3765
 2775TIP3    H129960   4.318   2.487   2.177 -0.6167 -1.2123 -0.3474
 2775TIP3    H229961   4.264   2.352   2.216  0.7545 -1.0618  2.2359
 2776TIP3   OH229962   2.986   3.298   7.865  0.5220  0.0202 -0.0822
 2776TIP3    H129963   2.900   3.257   7.860  0.5376  0.0704 -1.0088
 2776TIP3    H229964   2.968   3.389   7.890  0.0825  0.6224 -2.3029
 2777TIP3   OH229965   2.609   3.216   1.196  0.5569 -0.1940  0.3814
 2777TIP3    H129966   2.532   3.217   1.253  1.1546 -0.4063  1.2232
 2777TIP3    H229967   2.676   3.264   1.245  1.0682 -0.3234 -0.1764
 2778TIP3   OH229968   2.238   3.695   0.029 -0.7466 -0.2544  0.8453
 2778TIP3    H129969   2.273   3.619   0.075  0.5479  1.4864  2.9569
 2778TIP3    H229970   2.310   3.758   0.029 -1.4331  0.6619 -1.7460
 2779TIP3   OH229971   2.567   2.412   2.664  0.1442 -0.8826  0.3103
 2779TIP3    H129972   2.552   2.489   2.718 -2.0395  0.7833 -2.4141
 2779TIP3    H229973   2.521   2.342   2.709 -0.2351  0.0411  1.4146
 2780TIP3   OH229974   2.642   5.717   1.079  0.0407  0.1265  0.6651
 2780TIP3    H129975   2.594   5.700   0.998  0.8316 -1.2198  0.4425
 2780TIP3    H229976   2.582   5.693   1.149 -0.5988  1.1675  0.4900
 2781TIP3   OH229977   1.466   0.126   8.058  0.6019  0.1621  0.4458
 2781TIP3    H129978   1.448   0.033   8.069  1.1576 -0.1887 -1.2803
 2781TIP3    H229979   1.385   0.170   8.084  0.0161 -0.8685  0.4004
 2782TIP3   OH229980   0.769   5.446   1.045  0.3430  0.1106 -0.6013
 2782TIP3    H129981   0.853   5.488   1.065  0.3736  0.0526 -0.6080
 2782TIP3    H229982   0.784   5.400   0.962  0.5354 -0.5590 -0.1956
 2783TIP3   OH229983   4.635   3.224   8.601 -0.0341 -0.6931  0.1548
 2783TIP3    H129984   4.654   3.186   8.515 -1.1938 -1.2420  0.1113
 2783TIP3    H229985   4.676   3.165   8.664  0.2638 -0.6548 -0.0065
 2784TIP3   OH229986   3.831   1.988   7.874 -0.1064  0.0282 -0.1701
 2784TIP3    H129987   3.826   1.927   7.800 -1.9682  1.1398 -1.0338
 2784TIP3    H229988   3.788   1.941   7.946  0.7220 -0.6324 -0.0905
 2785TIP3   OH229989   3.503   1.561   7.813 -0.0631  0.2947  0.6390
 2785TIP3    H129990   3.586   1.526   7.779 -1.6212 -3.1285 -0.1139
 2785TIP3    H229991   3.508   1.543   7.907  0.5093  1.2206  0.7952
 2786TIP3   OH229992   1.366   4.671   3.489  0.7344 -0.0911 -0.0984
 2786TIP3    H129993   1.354   4.576   3.481  1.4533 -0.1822 -0.1588
 2786TIP3    H229994   1.392   4.700   3.402  0.5759  0.1545 -0.0660
 2787TIP3   OH229995   5.886   4.032   0.300  0.2373 -0.5522 -0.7516
 2787TIP3    H129996   5.810   4.085   0.324  0.4564 -0.0676 -1.1088
 2787TIP3    H229997   5.912   4.065   0.214  0.5345 -1.0677 -0.8639
 2788TIP3   OH229998   4.690   4.559   1.758 -0.1567 -0.1103  0.1835
 2788TIP3    H129999   4.662   4.646   1.731 -0.4240 -0.1814  0.2270
 2788TIP3    H230000   4.784   4.568   1.775 -0.0312 -0.0114 -0.5368
 2789TIP3   OH230001   5.726   6.465   2.102 -0.0188 -0.3428  0.0065
 2789TIP3    H130002   5.769   6.410   2.037  0.8321  0.4062 -0.0954
 2789TIP3    H230003   5.637   6.475   2.070  0.1012 -0.8191 -0.5018
 2790TIP3   OH230004   4.354   3.604   2.336  0.2047 -0.0187 -0.5002
 2790TIP3    H130005   4.401   3.687   2.322  1.5624 -0.9304 -1.6104
 2790TIP3    H230006   4.293   3.623   2.407 -1.2678  2.6330 -2.3032
 2791TIP3   OH230007   2.547   2.871   1.568  0.2538  0.1487 -0.0239
 2791TIP3    H130008   2.642   2.882   1.574  0.0299  1.6118  3.1950
 2791TIP3    H230009   2.523   2.831   1.652 -1.8971 -1.4688 -1.3151
 2792TIP3   OH230010   5.974   5.564   8.597  0.2990  0.3680  0.2667
 2792TIP3    H130011   6.053   5.614   8.575  0.9651  0.0622  1.8715
 2792TIP3    H230012   6.001   5.502   8.664 -1.3245  0.2727  0.8917
 2793TIP3   OH230013   6.460   6.527   3.574 -0.0960 -0.2468 -0.7024
 2793TIP3    H130014   6.404   6.605   3.579  0.0188 -0.1577  4.1771
 2793TIP3    H230015   6.549   6.561   3.585  0.0640 -0.9535  0.2964
 2794TIP3   OH230016   1.495   5.803   0.159  0.3012  0.1511 -0.3588
 2794TIP3    H130017   1.536   5.863   0.096 -0.1952  0.0824 -0.7532
 2794TIP3    H230018   1.406   5.792   0.126  0.5896 -1.3808 -0.6988
 2795TIP3   OH230019   1.218   4.210   1.266 -0.1515 -0.0736 -0.1546
 2795TIP3    H130020   1.272   4.283   1.236 -1.5159  0.6750 -0.8825
 2795TIP3    H230021   1.144   4.252   1.310 -0.8757 -1.0160 -0.4410
 2796TIP3   OH230022   3.627   6.298   2.812  0.1233 -0.2874  0.3032
 2796TIP3    H130023   3.550   6.320   2.865  0.8188 -1.3269  1.8182
 2796TIP3    H230024   3.698   6.351   2.848  0.1794  0.5718 -1.0046
 2797TIP3   OH230025   0.717   0.927   1.741  0.5237  0.0917 -0.1666
 2797TIP3    H130026   0.691   0.883   1.822  1.3369  1.6541  1.0022
 2797TIP3    H230027   0.798   0.882   1.715 -0.1853 -0.9591 -0.5813
 2798TIP3   OH230028   2.606   1.060   0.238  0.1749 -0.3531  0.4980
 2798TIP3    H130029   2.607   1.151   0.270  1.2639  0.0718 -0.6292
 2798TIP3    H230030   2.518   1.028   0.259  0.3104  0.3933  2.4107
 2799TIP3   OH230031   3.906   0.780   8.824  0.2279  0.0316 -0.4164
 2799TIP3    H130032   3.851   0.837   8.879  0.6098  0.2733 -0.2825
 2799TIP3    H230033   3.879   0.691   8.848  0.4423  0.1315  0.2279
 2800TIP3   OH230034   3.267   4.601   0.988 -0.5420 -0.1482  0.2179
 2800TIP3    H130035   3.354   4.573   1.014 -0.1826 -0.1486 -0.9519
 2800TIP3    H230036   3.280   4.686   0.947 -1.1680  0.0988  0.5151
 2801TIP3   OH230037   5.687   0.359   0.504 -0.0359 -0.7325  0.1656
 2801TIP3    H130038   5.774   0.369   0.543 -0.1231  1.3809 -0.0482
 2801TIP3    H230039   5.627   0.377   0.575 -0.2361 -0.0331 -0.1628
 2802TIP3   OH230040   5.179   0.826   8.100  0.4249  0.3478 -0.1242
 2802TIP3    H130041   5.107   0.762   8.093 -1.1517  2.0670 -0.5765
 2802TIP3    H230042   5.182   0.868   8.014  2.6269 -0.2794 -0.4107
 2803TIP3   OH230043   5.099   5.479   1.480  0.2001  0.0455  0.1905
 2803TIP3    H130044   5.177   5.447   1.527  0.3238  1.0311  0.6811
 2803TIP3    H230045   5.115   5.455   1.389  0.8561 -0.1969  0.3593
 2804TIP3   OH230046   5.064   1.038   8.861 -0.2011  0.1306 -0.0634
 2804TIP3    H130047   5.152   1.051   8.897 -0.1064  0.0847 -0.2758
 2804TIP3    H230048   5.057   0.943   8.850  0.7167  0.2691 -2.4828
 2805TIP3   OH230049   6.455   0.420   2.698 -0.1899  0.6523  0.0306
 2805TIP3    H130050   6.467   0.453   2.609 -0.5294  1.5968  0.3199
 2805TIP3    H230051   6.533   0.452   2.746 -0.8372  1.6357  0.4684
 2806TIP3   OH230052   3.384   0.581   8.713  0.5553  0.4517 -0.5942
 2806TIP3    H130053   3.325   0.651   8.741  1.4683  1.4001 -0.9774
 2806TIP3    H230054   3.375   0.513   8.780 -1.1330  0.4648 -0.7755
 2807TIP3   OH230055   4.850   6.013   2.429  0.5745 -0.0319 -0.5732
 2807TIP3    H130056   4.912   5.961   2.378  1.3144  0.6181 -0.3537
 2807TIP3    H230057   4.893   6.098   2.440  0.0610  0.1240  0.3878
 2808TIP3   OH230058   3.219   1.566   8.563 -0.1299  0.1237 -0.6217
 2808TIP3    H130059   3.124   1.575   8.555  0.0310  2.2263 -0.8413
 2808TIP3    H230060   3.252   1.598   8.479  0.8066  1.1843  0.1196
 2809TIP3   OH230061   3.684   3.952   0.075 -0.2140  0.3064  0.0492
 2809TIP3    H130062   3.751   3.958   0.143 -1.3946  1.2596  1.1933
 2809TIP3    H230063   3.646   4.040   0.072  0.0582  0.3911 -2.1462
 2810TIP3   OH230064   6.040   4.000   0.884 -0.0240  0.5679 -0.8342
 2810TIP3    H130065   6.084   3.986   0.968 -0.5143 -2.7357 -1.0090
 2810TIP3    H230066   6.111   4.016   0.822  0.5799  0.0390 -0.2912
 2811TIP3   OH230067   4.610   2.154   1.057  0.6377 -0.4708 -0.4029
 2811TIP3    H130068   4.638   2.228   1.003  2.4449 -0.1456  0.8750
 2811TIP3    H230069   4.682   2.091   1.050 -0.8725 -2.1708 -1.4753
 2812TIP3   OH230070   2.071   4.163   0.174 -0.2130 -0.3137 -0.0638
 2812TIP3    H130071   2.166   4.157   0.179 -0.3001 -1.8121  0.0576
 2812TIP3    H230072   2.055   4.226   0.103  0.8626 -0.2885 -0.3037
 2813TIP3   OH230073   0.588   1.896   8.201 -0.7180  0.0004  0.0987
 2813TIP3    H130074   0.630   1.921   8.283 -0.9003  1.1832 -0.1462
 2813TIP3    H230075   0.536   1.818   8.224 -0.3760  0.0158  0.9777
 2814TIP3   OH230076   4.157   1.583   8.125 -0.3846 -0.7364 -0.0166
 2814TIP3    H130077   4.086   1.545   8.073 -2.0083  1.4296  0.4917
 2814TIP3    H230078   4.117   1.603   8.209  0.9458  0.2049  0.4207
 2815TIP3   OH230079   0.744   0.298   2.200 -0.4385 -0.1073  0.3235
 2815TIP3    H130080   0.787   0.222   2.240  0.9175  0.8915  0.8665
 2815TIP3    H230081   0.803   0.324   2.129 -0.1160  1.2897  1.0697
 2816TIP3   OH230082   3.133   5.599   0.326 -0.1222 -0.5369  0.0259
 2816TIP3    H130083   3.154   5.665   0.260 -1.0966  0.3929  0.6253
 2816TIP3    H230084   3.204   5.535   0.319  1.0890  0.7948 -0.2745
 2817TIP3   OH230085   4.588   3.450   2.321 -0.2550  0.1474  0.4774
 2817TIP3    H130086   4.499   3.476   2.297  1.0273  1.9262 -3.2211
 2817TIP3    H230087   4.630   3.532   2.346  0.7985 -0.3378  0.3283
 2818TIP3   OH230088   1.368   5.306   2.654  0.5037 -0.3939 -0.0092
 2818TIP3    H130089   1.378   5.310   2.749  1.0537 -1.4002 -0.0008
 2818TIP3    H230090   1.454   5.330   2.620  0.8309 -1.6933 -0.1789
 2819TIP3   OH230091   5.614   0.002   2.285 -0.4899  0.2108  0.2897
 2819TIP3    H130092   5.621   0.067   2.216 -1.1939 -0.5471 -0.5225
 2819TIP3    H230093   5.588   0.051   2.363 -0.3132  0.9846 -0.1345
 2820TIP3   OH230094   1.441   3.807   3.313  0.2945 -0.7077  0.2554
 2820TIP3    H130095   1.491   3.888   3.321  1.9014 -1.6543  0.2006
 2820TIP3    H230096   1.363   3.821   3.368  1.0363  0.4973  1.0417
 2821TIP3   OH230097   2.104   3.447   2.508 -0.1144  0.0083 -0.4618
 2821TIP3    H130098   2.091   3.370   2.452 -0.5524  0.0800 -0.4583
 2821TIP3    H230099   2.177   3.423   2.564 -0.0680 -0.3007 -0.6491
 2822TIP3   OH230100   3.223   5.756   8.438  0.1027  0.1448 -0.0575
 2822TIP3    H130101   3.280   5.831   8.419  0.6263  0.0928  1.2579
 2822TIP3    H230102   3.170   5.784   8.512 -1.0384 -0.1119 -0.7504
 2823TIP3   OH230103   1.699   5.953   1.079  0.4502  0.4718 -0.2435
 2823TIP3    H130104   1.709   5.986   0.990  0.7727  0.2321 -0.2993
 2823TIP3    H230105   1.632   6.009   1.119  0.0512  0.3577 -0.7466
 2824TIP3   OH230106   0.690   3.856   1.044 -0.2656  0.7501  0.4380
 2824TIP3    H130107   0.777   3.873   1.081  0.0387 -1.6123  1.0234
 2824TIP3    H230108   0.650   3.942   1.035  2.1463  1.9302  0.0799
 2825TIP3   OH230109   0.134   3.499   0.077  0.4148  0.3707 -0.0155
 2825TIP3    H130110   0.069   3.454   0.131  0.2163  1.3690  0.5970
 2825TIP3    H230111   0.205   3.436   0.067 -1.1742 -1.2911 -1.8462
 2826TIP3   OH230112   4.453   2.560   2.642  0.0772 -0.4805 -0.1590
 2826TIP3    H130113   4.517   2.630   2.633  0.4331 -0.5755  1.2754
 2826TIP3    H230114   4.414   2.574   2.729  1.0007 -2.6789  0.6940
 2827TIP3   OH230115   1.653   0.713   0.033  0.4742  0.0814  0.0464
 2827TIP3    H130116   1.619   0.632   0.071  2.1143 -1.1065 -0.8906
 2827TIP3    H230117   1.627   0.709  -0.059 -0.7329  1.3903  0.2999
 2828TIP3   OH230118   6.536   0.072   3.065  0.7257 -0.4105  0.3864
 2828TIP3    H130119   6.589   0.151   3.073 -1.7533  1.3005  0.9049
 2828TIP3    H230120   6.543   0.030   3.151 -0.0112  0.6839  1.0097
 2829TIP3   OH230121   4.246   0.019   2.420  0.0340  0.1770 -0.3271
 2829TIP3    H130122   4.326  -0.005   2.468 -0.6069  0.8506  1.1459
 2829TIP3    H230123   4.276   0.082   2.355  1.2107 -2.0130 -2.0695
 2830TIP3   OH230124   0.323   2.506   1.769  0.2670 -0.3878 -0.0098
 2830TIP3    H130125   0.307   2.500   1.863 -0.5693  1.3671  0.0086
 2830TIP3    H230126   0.235   2.515   1.731  0.7194  1.5907 -0.6880
 2831TIP3   OH230127   1.086   4.411   0.085 -0.1068 -0.1103  0.1052
 2831TIP3    H130128   1.027   4.338   0.106  1.0318 -1.8272 -2.1896
 2831TIP3    H230129   1.135   4.380   0.009  2.1047  2.1782  0.4928
 2832TIP3   OH230130   5.424   5.867   1.913  0.2001  0.5968  0.2257
 2832TIP3    H130131   5.481   5.851   1.988 -0.0616  0.6128  0.4280
 2832TIP3    H230132   5.484   5.878   1.839  0.4490  0.4016  0.3998
 2833TIP3   OH230133   0.140   5.926   0.661  0.1592 -0.2097  0.7139
 2833TIP3    H130134   0.231   5.896   0.661  0.6132  1.0230  2.2178
 2833TIP3    H230135   0.117   5.933   0.568  0.6797 -3.0304  0.2873
 2834TIP3   OH230136   2.028   2.810   7.899 -0.3071  0.1842  0.2420
 2834TIP3    H130137   2.026   2.725   7.943  0.3812 -1.5358 -2.7540
 2834TIP3    H230138   2.112   2.811   7.852 -0.1133  2.7260  0.4996
 2835TIP3   OH230139   3.249   5.380   2.121  0.4770  0.2334 -0.1098
 2835TIP3    H130140   3.329   5.433   2.125  0.4241  0.3350 -0.4339
 2835TIP3    H230141   3.225   5.366   2.213  1.1400 -0.2051  0.0079
 2836TIP3   OH230142   1.539   5.615   0.905  0.4614 -0.0961 -0.1701
 2836TIP3    H130143   1.457   5.654   0.936  0.8151  1.2029 -0.7802
 2836TIP3    H230144   1.590   5.599   0.984 -0.7748 -1.8998  0.3071
 2837TIP3   OH230145   0.049   5.289   1.792  0.1326  0.0123  0.4411
 2837TIP3    H130146  -0.031   5.236   1.796 -0.1905  0.4336 -0.2645
 2837TIP3    H230147   0.120   5.226   1.808 -0.2249 -0.6796 -0.5727
 2838TIP3   OH230148   1.555   3.323   8.288  0.4859 -0.0696  0.2503
 2838TIP3    H130149   1.557   3.361   8.375 -3.3453  0.6967  0.1583
 2838TIP3    H230150   1.525   3.233   8.301  0.6976 -0.2202 -0.2404
 2839TIP3   OH230151   1.902   5.272   1.940  0.3431 -0.1583 -0.2021
 2839TIP3    H130152   1.982   5.234   1.978 -0.2140  0.9682  2.3142
 2839TIP3    H230153   1.893   5.357   1.983 -2.1984 -0.2429 -0.3985
 2840TIP3   OH230154   3.121   4.374   3.484  0.0917 -0.8361  0.5779
 2840TIP3    H130155   3.195   4.328   3.444 -0.3491  0.0290 -1.3536
 2840TIP3    H230156   3.049   4.364   3.421 -0.5231  0.9314  0.9357
 2841TIP3   OH230157   3.281   4.757   2.066 -0.0181  0.9289 -0.0483
 2841TIP3    H130158   3.352   4.821   2.068  0.8456  0.0040 -0.4228
 2841TIP3    H230159   3.307   4.694   1.999  0.4609 -1.2454  2.0065
 2842TIP3   OH230160   0.318   0.301   8.525  0.1006 -0.0795 -0.3150
 2842TIP3    H130161   0.341   0.225   8.472  0.8512 -0.7723  0.9693
 2842TIP3    H230162   0.258   0.267   8.591 -1.8620  1.0119 -1.3977
 2843TIP3   OH230163   3.010   0.534   2.392 -0.1456  0.2302  0.0862
 2843TIP3    H130164   2.929   0.491   2.420 -0.3924  0.7625  0.2049
 2843TIP3    H230165   2.981   0.620   2.360  0.3882  0.4687  0.2367
 2844TIP3   OH230166   3.918   3.950   0.257  0.1449 -0.3935 -0.0462
 2844TIP3    H130167   4.003   3.992   0.269 -0.5817  0.9637  0.5632
 2844TIP3    H230168   3.886   3.935   0.346 -1.2795  1.3101 -0.2158
 2845TIP3   OH230169   5.301   4.726   1.492  0.1813  0.0735  0.3431
 2845TIP3    H130170   5.344   4.802   1.452  0.1487 -0.2532 -0.3309
 2845TIP3    H230171   5.346   4.651   1.453 -0.9758 -0.2807 -0.3630
 2846TIP3   OH230172   1.907   2.120   8.528  0.4666  0.4352 -0.0100
 2846TIP3    H130173   1.891   2.211   8.502 -2.0195 -0.0823 -0.5050
 2846TIP3    H230174   1.942   2.079   8.449  1.5206  0.9080  0.1902
 2847TIP3   OH230175   4.268   5.936   1.866  0.6390 -0.3225  0.1708
 2847TIP3    H130176   4.259   5.844   1.840  0.0951  0.0872 -1.1903
 2847TIP3    H230177   4.228   5.985   1.794 -1.5925  0.8874  2.0959
 2848TIP3   OH230178   0.986   0.298   8.901  0.1198 -0.0732  0.4434
 2848TIP3    H130179   0.987   0.243   8.823 -2.6706  1.6574 -0.9826
 2848TIP3    H230180   1.057   0.360   8.887 -0.6154  0.4922 -1.0009
 2849TIP3   OH230181   5.927   4.693   2.635 -0.2372 -0.0091  0.1640
 2849TIP3    H130182   5.950   4.623   2.696  0.4136 -0.1701 -0.2552
 2849TIP3    H230183   5.934   4.773   2.687  2.4729  0.0742 -0.2015
 2850TIP3   OH230184   0.566   1.401   1.856  0.0786 -0.0997  0.3971
 2850TIP3    H130185   0.617   1.367   1.930 -0.0244 -1.0232  0.0489
 2850TIP3    H230186   0.487   1.438   1.896 -0.9805 -2.4369  0.6218
 2851TIP3   OH230187   2.664   2.392   8.984 -0.0414 -0.2197  0.3904
 2851TIP3    H130188   2.612   2.345   8.919 -0.6078 -0.3828  0.9558
 2851TIP3    H230189   2.706   2.463   8.935 -1.3522  0.3505  0.0615
 2852TIP3   OH230190   6.142   4.007   1.778 -0.3005  0.3944 -0.0505
 2852TIP3    H130191   6.047   4.001   1.793 -0.4154  1.4671 -0.2437
 2852TIP3    H230192   6.174   4.060   1.851  0.3597 -0.9899  0.7028
 2853TIP3   OH230193   0.517   5.440   0.486 -0.2038  0.3905 -0.3022
 2853TIP3    H130194   0.500   5.531   0.510  0.5627  0.9008 -1.6057
 2853TIP3    H230195   0.491   5.434   0.394  0.4248 -0.5168 -0.4343
 2854TIP3   OH230196   4.029   1.534   8.907  0.3580 -0.3739  0.7657
 2854TIP3    H130197   4.001   1.475   8.837 -1.3390 -0.2371  1.2823
 2854TIP3    H230198   4.121   1.512   8.922  0.3707 -1.3408 -0.5579
 2855TIP3   OH230199   4.344   6.691   8.429 -0.0764  0.1793  0.3229
 2855TIP3    H130200   4.327   6.660   8.340  0.4046 -0.4419  0.4417
 2855TIP3    H230201   4.266   6.668   8.478 -0.4467  0.7431  0.0133
 2856TIP3   OH230202   5.957   2.798   8.121  0.0402  0.5342 -0.2055
 2856TIP3    H130203   5.960   2.887   8.085 -0.8360  0.5380 -0.2876
 2856TIP3    H230204   6.029   2.795   8.184  0.8530  0.9096 -1.0741
 2857TIP3   OH230205   6.195   2.458   1.058  0.4144  0.1980 -0.2892
 2857TIP3    H130206   6.129   2.388   1.066 -1.2231  1.5047 -1.5550
 2857TIP3    H230207   6.278   2.412   1.047 -0.1251 -1.5245  2.0500
 2858TIP3   OH230208   2.761   2.314   1.182  0.0818 -0.0340 -0.2564
 2858TIP3    H130209   2.696   2.278   1.241  1.2452  0.5026  1.4210
 2858TIP3    H230210   2.841   2.318   1.234  0.9814  1.1102 -1.6580
 2859TIP3   OH230211   2.939   5.260   8.100 -0.1724 -0.4134  0.2624
 2859TIP3    H130212   2.861   5.314   8.087 -0.5240 -0.7760  0.8271
 2859TIP3    H230213   3.011   5.315   8.070 -0.7181 -0.4136 -1.1368
 2860TIP3   OH230214   4.653   6.696   1.736 -0.1002  0.0241 -0.8386
 2860TIP3    H130215   4.691   6.727   1.818 -2.3415  0.1720  0.2249
 2860TIP3    H230216   4.599   6.769   1.705 -1.3392 -0.9247 -1.0240
 2861TIP3   OH230217   4.976   2.770   0.254  0.4687 -0.0785  0.2245
 2861TIP3    H130218   4.892   2.736   0.222  1.6585 -2.5596 -0.5447
 2861TIP3    H230219   5.006   2.829   0.185 -0.8446  1.2874  0.7628
 2862TIP3   OH230220   5.594   5.389   1.724  0.0980 -0.5874 -0.1795
 2862TIP3    H130221   5.618   5.475   1.757  0.2537 -0.1803 -1.3311
 2862TIP3    H230222   5.499   5.386   1.731  0.1557 -0.6532  0.6449
 2863TIP3   OH230223   4.579   5.790   0.391 -0.4422  0.3841  0.0332
 2863TIP3    H130224   4.488   5.817   0.378 -1.3128 -0.8860  2.7430
 2863TIP3    H230225   4.575   5.694   0.392  1.2631  0.2573 -1.6244
 2864TIP3   OH230226   6.338   5.030   0.700 -0.0111  0.0432 -0.7261
 2864TIP3    H130227   6.252   5.038   0.742 -0.2811 -1.0412 -1.0450
 2864TIP3    H230228   6.372   4.946   0.729  0.4514 -0.0450 -1.4939
 2865TIP3   OH230229   5.907   3.206   2.259  0.4153 -0.1679  0.2360
 2865TIP3    H130230   5.820   3.199   2.222  0.5319 -1.3147  0.1573
 2865TIP3    H230231   5.954   3.129   2.226  1.1113 -0.1650  1.1739
 2866TIP3   OH230232   4.948   6.336   1.462 -0.0715 -0.3265 -0.3113
 2866TIP3    H130233   4.866   6.289   1.442 -0.1311 -0.4024  0.1017
 2866TIP3    H230234   4.923   6.400   1.528  0.3621 -0.8834  0.4065
 2867TIP3   OH230235   2.996   4.922   8.695  0.6060 -0.1076  0.1750
 2867TIP3    H130236   2.920   4.892   8.644  2.1977 -0.1894 -2.3247
 2867TIP3    H230237   2.992   5.017   8.690  0.8765 -0.1188 -0.3240
 2868TIP3   OH230238   4.243   4.187   7.935 -0.1596 -0.1875 -0.3652
 2868TIP3    H130239   4.245   4.130   7.857  1.0351 -0.2553 -0.2980
 2868TIP3    H230240   4.180   4.255   7.912 -0.0152 -0.3453 -1.2969
 2869TIP3   OH230241   2.459   2.889   8.392 -0.3869  0.2168 -0.7030
 2869TIP3    H130242   2.432   2.942   8.316  1.2600  0.3226 -1.2473
 2869TIP3    H230243   2.485   2.805   8.354  0.6377  0.3380 -0.2905
 2870TIP3   OH230244   5.481   0.073   0.127  0.0260  0.1427 -0.0214
 2870TIP3    H130245   5.517   0.052   0.214 -1.3182 -0.5214  0.4083
 2870TIP3    H230246   5.521   0.008   0.069 -1.9756 -1.9917  0.8214
 2871TIP3   OH230247   4.853   4.088   8.684  0.1267 -0.5242 -0.0719
 2871TIP3    H130248   4.882   4.160   8.628  0.2071  0.2501  0.9362
 2871TIP3    H230249   4.769   4.061   8.647  0.2645 -0.1521 -0.6694
 2872TIP3   OH230250   0.494   6.021   1.320  0.2680  0.1546  0.1003
 2872TIP3    H130251   0.538   6.085   1.265 -0.6867  1.9618  1.3279
 2872TIP3    H230252   0.561   5.994   1.384  0.0276  1.9020  1.1522
 2873TIP3   OH230253   1.694   4.315   3.360 -0.1680  0.6273 -0.6470
 2873TIP3    H130254   1.725   4.260   3.431 -0.7903  1.0183 -0.0532
 2873TIP3    H230255   1.717   4.404   3.386 -0.7558  0.8127 -0.7424
 2874TIP3   OH230256   0.049   5.044   3.715  0.5175 -0.1617 -0.0018
 2874TIP3    H130257   0.145   5.051   3.709  0.6671  0.4006  2.1067
 2874TIP3    H230258   0.029   5.071   3.805 -1.5685 -1.0589 -0.1463
 2875TIP3   OH230259   5.324   1.877   2.429  0.1304  0.0783  0.2064
 2875TIP3    H130260   5.281   1.950   2.475  0.2561  0.6158 -0.5049
 2875TIP3    H230261   5.416   1.903   2.424  0.0271  0.3036 -0.8285
 2876TIP3   OH230262   3.645   6.077   2.675 -0.1340 -0.1182  0.3253
 2876TIP3    H130263   3.642   6.165   2.715  0.4143  0.1929 -0.3042
 2876TIP3    H230264   3.707   6.029   2.730 -0.6501 -0.2042  0.8428
 2877TIP3   OH230265   4.054   0.812   8.430  0.2908  0.1773 -0.0890
 2877TIP3    H130266   3.993   0.863   8.376  0.8064  0.4937 -0.3830
 2877TIP3    H230267   4.022   0.722   8.425  0.1594  0.2534 -0.6811
 2878TIP3   OH230268   4.759   4.987   2.849 -0.5634  0.0346  0.4997
 2878TIP3    H130269   4.834   5.022   2.896  1.3698 -0.5867 -1.9057
 2878TIP3    H230270   4.766   4.892   2.860 -1.4200 -0.0074  0.8054
 2879TIP3   OH230271   5.622   4.973   8.643 -0.1118 -0.2347 -0.0112
 2879TIP3    H130272   5.599   4.994   8.733  2.2327  1.0798  0.3546
 2879TIP3    H230273   5.539   4.978   8.595 -1.2720 -0.1923  1.9233
 2880TIP3   OH230274   6.697   2.373   0.704  0.2010 -0.1797  0.3585
 2880TIP3    H130275   6.672   2.293   0.659 -0.4660 -0.8670  1.8947
 2880TIP3    H230276   6.615   2.420   0.717  0.3163 -0.1972  1.2260
 2881TIP3   OH230277   3.393   5.978   8.452 -0.2400  0.3098  0.3491
 2881TIP3    H130278   3.408   6.056   8.400 -0.3474  0.1486  0.0747
 2881TIP3    H230279   3.470   5.971   8.508 -0.4829  0.9270  0.7800
 2882TIP3   OH230280   5.674   6.036   0.654  0.3921 -0.1871 -0.2752
 2882TIP3    H130281   5.591   6.069   0.622  0.7044  0.7835 -0.1316
 2882TIP3    H230282   5.738   6.104   0.631  0.9910 -0.5042  0.3942
 2883TIP3   OH230283   6.140   3.361   0.885 -0.6907  0.2451 -0.0129
 2883TIP3    H130284   6.159   3.268   0.890  1.0500  0.6432  2.1208
 2883TIP3    H230285   6.059   3.372   0.936 -0.8812 -0.0711 -0.2402
 2884TIP3   OH230286   5.350   0.081   2.609 -0.1544 -0.0605  0.3962
 2884TIP3    H130287   5.295   0.017   2.563 -1.5597 -0.2671  2.2319
 2884TIP3    H230288   5.439   0.047   2.599 -0.6778 -1.3549 -0.1360
 2885TIP3   OH230289   5.480   5.375   0.400 -0.4699  0.2514  0.4848
 2885TIP3    H130290   5.385   5.383   0.409 -0.5512  0.7244 -0.6158
 2885TIP3    H230291   5.499   5.415   0.315  0.8049  0.8564  1.0320
 2886TIP3   OH230292   3.167   0.775   2.536 -0.0866  0.4404  0.6875
 2886TIP3    H130293   3.232   0.824   2.586 -0.8489  1.3752  0.7832
 2886TIP3    H230294   3.125   0.840   2.479 -0.7775 -0.1839  0.4577
 2887TIP3   OH230295   6.268   4.669   8.889  0.1226 -0.2158  0.2560
 2887TIP3    H130296   6.239   4.656   8.979 -1.1152 -0.4538 -0.1572
 2887TIP3    H230297   6.239   4.758   8.867 -1.6667 -0.9602 -0.6243
 2888TIP3   OH230298   4.581   0.003   0.758 -0.4099  0.3469 -0.3497
 2888TIP3    H130299   4.566   0.035   0.669 -1.4179  1.5458  0.2099
 2888TIP3    H230300   4.619   0.078   0.805  0.3410 -0.3463  0.1680
 2889TIP3   OH230301   3.959   2.794   2.569  0.3648 -0.3702 -0.0387
 2889TIP3    H130302   4.053   2.789   2.585  0.0359 -1.4157  2.0447
 2889TIP3    H230303   3.920   2.784   2.656 -1.6794 -0.3511 -0.8976
 2890TIP3   OH230304   1.242   0.292   8.096 -0.2080 -0.3079 -0.5979
 2890TIP3    H130305   1.195   0.360   8.048  0.5370 -1.3063 -2.8829
 2890TIP3    H230306   1.200   0.290   8.182 -1.1058  2.0951 -0.9174
 2891TIP3   OH230307   3.817   5.833   2.241 -0.2693 -0.9717 -0.9080
 2891TIP3    H130308   3.867   5.900   2.287 -1.3071 -1.2984  0.7853
 2891TIP3    H230309   3.866   5.817   2.161  1.5303 -0.2318 -0.0043
 2892TIP3   OH230310   4.794   2.370   7.589 -0.0658  0.2612  0.1428
 2892TIP3    H130311   4.887   2.393   7.590 -0.0952  0.5087 -1.1793
 2892TIP3    H230312   4.792   2.276   7.573 -0.0420 -0.0073  1.5269
 2893TIP3   OH230313   6.700   3.739   0.343 -0.3681 -0.0102 -0.0969
 2893TIP3    H130314   6.778   3.723   0.395 -1.3349  0.9516  1.7577
 2893TIP3    H230315   6.628   3.705   0.396 -1.3573  0.5491 -1.0343
 2894TIP3   OH230316   1.860   2.672   3.563  0.5720 -0.3091  0.0429
 2894TIP3    H130317   1.771   2.666   3.529 -0.0780  0.9377  1.3845
 2894TIP3    H230318   1.907   2.601   3.520 -0.5792  0.1421 -2.1214
 2895TIP3   OH230319   6.621   2.802   1.337 -0.3251  0.2663 -0.1659
 2895TIP3    H130320   6.705   2.790   1.381  0.7211 -0.1796 -2.2136
 2895TIP3    H230321   6.557   2.763   1.398  1.1868 -1.3327  0.4809
 2896TIP3   OH230322   6.694   1.763   1.392  0.0443 -0.4849  0.1381
 2896TIP3    H130323   6.749   1.821   1.339 -0.4231  0.9794  1.1848
 2896TIP3    H230324   6.636   1.720   1.329  1.0579 -0.5596 -0.7632
 2897TIP3   OH230325   4.873   0.880   2.627 -0.2089 -0.2467 -0.1456
 2897TIP3    H130326   4.911   0.810   2.679  0.9626  0.2756 -0.2585
 2897TIP3    H230327   4.823   0.932   2.690  0.2832 -0.2478  0.2515
 2898TIP3   OH230328   3.338   3.574   8.939 -0.1638  0.0050  0.2461
 2898TIP3    H130329   3.274   3.645   8.949 -1.4254 -1.2489  1.4914
 2898TIP3    H230330   3.317   3.535   8.854 -1.3103 -0.6119  0.7947
 2899TIP3   OH230331   5.334   1.529   9.054  0.2162  0.3304  0.0973
 2899TIP3    H130332   5.379   1.485   8.982  0.8392  0.6586  0.2759
 2899TIP3    H230333   5.302   1.611   9.016  0.0730  0.2544  0.0555
 2900TIP3   OH230334   4.944   0.866   0.312 -0.0508  0.5010  0.2973
 2900TIP3    H130335   5.032   0.875   0.350  0.1859 -1.2534  0.2367
 2900TIP3    H230336   4.886   0.906   0.377  0.6395  0.1662  1.1357
 2901TIP3   OH230337   1.160   4.893   9.058 -0.4601  0.4172 -0.2688
 2901TIP3    H130338   1.253   4.884   9.081 -0.0655  0.3207 -1.7876
 2901TIP3    H230339   1.123   4.807   9.075  0.1162 -0.0373 -1.2097
 2902TIP3   OH230340   1.341   5.755   0.382 -0.3317 -0.4384 -0.1778
 2902TIP3    H130341   1.402   5.746   0.456  0.0878 -0.5206 -0.5272
 2902TIP3    H230342   1.394   5.792   0.312  0.1125 -3.1068 -1.4090
 2903TIP3   OH230343   0.169   6.030   1.757  0.1879  0.4740 -0.6778
 2903TIP3    H130344   0.073   6.036   1.752  0.0117 -1.2536 -0.0182
 2903TIP3    H230345   0.198   6.119   1.776 -1.5313  0.5334  2.2081
 2904TIP3   OH230346   4.113   4.222   0.015  0.0650 -0.5505  0.4177
 2904TIP3    H130347   4.125   4.145   0.071 -0.8765  0.1141  1.5665
 2904TIP3    H230348   4.019   4.236   0.014  0.0934 -0.3353 -1.0839
 2905TIP3   OH230349   2.100   6.074   0.229  0.3339  1.0100  0.0914
 2905TIP3    H130350   2.058   6.150   0.188  0.2938  1.3357  0.7233
 2905TIP3    H230351   2.100   6.007   0.160  0.5754  1.6483 -0.5490
 2906TIP3   OH230352   1.002   1.318   7.774 -0.6895  0.4155 -0.0705
 2906TIP3    H130353   0.922   1.369   7.770  0.0911  1.6035 -1.2535
 2906TIP3    H230354   1.059   1.356   7.707  0.9455 -0.2464  0.8739
 2907TIP3   OH230355   4.800   5.817   0.628 -0.0203  0.4669  0.2768
 2907TIP3    H130356   4.769   5.763   0.555  0.4795 -0.4292  0.7204
 2907TIP3    H230357   4.721   5.863   0.659 -0.9337 -1.6691  1.3020
 2908TIP3   OH230358   1.055   2.567   2.910 -0.1736 -0.5294 -0.2776
 2908TIP3    H130359   1.069   2.505   2.981  1.6165  1.2697  1.0753
 2908TIP3    H230360   1.142   2.603   2.892 -0.8574  0.3217 -2.2122
 2909TIP3   OH230361   0.838   2.389   3.206 -0.3765 -0.3284 -0.2194
 2909TIP3    H130362   0.825   2.481   3.185 -0.8831 -0.3327  0.0603
 2909TIP3    H230363   0.774   2.342   3.151  0.9339 -0.6495 -1.5375
 2910TIP3   OH230364   1.215   0.344   0.248  0.6871 -0.3398 -0.1749
 2910TIP3    H130365   1.190   0.378   0.162  1.6389 -0.9794 -0.7168
 2910TIP3    H230366   1.132   0.334   0.295  0.2690  1.5026 -0.4438
 2911TIP3   OH230367   3.253   4.156   8.640  0.2694 -0.3464  0.2139
 2911TIP3    H130368   3.205   4.229   8.678  0.3855 -0.1224 -0.0623
 2911TIP3    H230369   3.270   4.097   8.713  0.3201 -0.0163  0.4723
 2912TIP3   OH230370   0.466   0.053   8.690  0.2637 -0.3711 -0.0699
 2912TIP3    H130371   0.530   0.123   8.676 -0.8974  0.4739 -1.4208
 2912TIP3    H230372   0.443   0.059   8.783 -0.2509  1.4610 -0.2832
 2913TIP3   OH230373   5.345   5.610   1.004  0.3249  0.0573  0.4179
 2913TIP3    H130374   5.274   5.615   0.940  0.3885 -1.3264  0.1942
 2913TIP3    H230375   5.351   5.698   1.041 -2.0380  0.0398  1.0187
 2914TIP3   OH230376   4.279   5.973   2.787 -0.3248  0.4254  0.1162
 2914TIP3    H130377   4.196   6.006   2.822 -0.5531  2.0182 -1.7163
 2914TIP3    H230378   4.262   5.961   2.693  0.8843 -1.4453  0.0911
 2915TIP3   OH230379   0.127   0.110   8.903  0.6567  0.0820 -0.3300
 2915TIP3    H130380   0.182   0.118   8.825 -0.7860  2.2328 -1.2352
 2915TIP3    H230381   0.039   0.092   8.869 -0.1004  1.5922  0.7164
 2916TIP3   OH230382   3.498   2.889   0.954  0.2219  0.3454  0.6538
 2916TIP3    H130383   3.540   2.875   1.039 -0.6736 -0.1335  1.0342
 2916TIP3    H230384   3.418   2.837   0.958  0.8711 -0.8774 -1.0443
 2917TIP3   OH230385   2.222   6.268   8.974  0.4842  0.3740 -0.2605
 2917TIP3    H130386   2.187   6.209   8.907 -0.5910  0.0453  0.5626
 2917TIP3    H230387   2.280   6.213   9.027 -0.8928 -0.0957  0.8011
 2918TIP3   OH230388   3.508   4.301   8.246 -0.3416  0.2281  0.0696
 2918TIP3    H130389   3.542   4.378   8.290  0.5513 -0.2135  0.1703
 2918TIP3    H230390   3.563   4.291   8.168 -0.3062 -0.4281  0.1694
 2919TIP3   OH230391   5.542   1.721   0.164  0.3593  0.0184  0.3038
 2919TIP3    H130392   5.473   1.704   0.099 -1.1726  1.7484  1.3763
 2919TIP3    H230393   5.624   1.718   0.113 -0.8110  1.8902 -1.8981
 2920TIP3   OH230394   1.460   1.772   1.286 -0.2285 -0.2900 -0.7784
 2920TIP3    H130395   1.438   1.784   1.378  2.8034 -1.6965  0.2948
 2920TIP3    H230396   1.551   1.803   1.279 -0.5360  0.2502 -3.4493
 2921TIP3   OH230397   2.776   1.804   2.197 -0.3099 -0.9219 -0.2034
 2921TIP3    H130398   2.827   1.809   2.278  0.0479  0.2350 -0.4889
 2921TIP3    H230399   2.801   1.719   2.158  0.7630 -0.7528  0.0827
 2922TIP3   OH230400   0.744   5.543   8.460 -0.1385 -0.1658 -0.0084
 2922TIP3    H130401   0.709   5.629   8.438  0.4308  0.2456  0.6608
 2922TIP3    H230402   0.753   5.498   8.375 -0.3297  0.4688 -0.3688
 2923TIP3   OH230403   0.169   4.004   2.779 -0.0898 -0.1001 -0.2607
 2923TIP3    H130404   0.229   3.972   2.711  0.1839  0.0288 -0.0859
 2923TIP3    H230405   0.117   3.928   2.803 -0.5419 -0.0251 -0.9792
 2924TIP3   OH230406   6.254   6.240   1.474 -0.2221 -0.1053 -0.4441
 2924TIP3    H130407   6.260   6.226   1.569 -1.9082 -1.9747 -0.5240
 2924TIP3    H230408   6.294   6.162   1.436  0.0477  0.4234 -1.2715
 2925TIP3   OH230409   3.560   5.034   0.742 -0.8713 -0.0291 -0.0924
 2925TIP3    H130410   3.648   4.996   0.749 -1.1431 -0.4095  2.1286
 2925TIP3    H230411   3.553   5.092   0.818 -1.7087  1.8974 -1.5614
 2926TIP3   OH230412   1.286   3.750   8.822 -0.1431 -0.0084  0.2145
 2926TIP3    H130413   1.368   3.729   8.778  0.1130  2.3224 -0.5643
 2926TIP3    H230414   1.218   3.714   8.764  0.3019 -0.2023 -0.1884
 2927TIP3   OH230415   2.921   2.337   2.682  0.4837  0.1814 -0.2655
 2927TIP3    H130416   2.956   2.282   2.611  3.1316 -0.4565  1.3789
 2927TIP3    H230417   2.953   2.425   2.662  0.3713  0.2005 -0.3656
 2928TIP3   OH230418   5.298   6.291   2.380  0.2590 -0.7329 -0.2826
 2928TIP3    H130419   5.293   6.273   2.287 -0.6731  0.9031 -0.5792
 2928TIP3    H230420   5.372   6.352   2.389  0.8129 -1.4486  0.1659
 2929TIP3   OH230421   6.524   4.620   0.496  0.3970  0.2816 -0.1514
 2929TIP3    H130422   6.581   4.684   0.455  0.8833 -1.6407 -2.7364
 2929TIP3    H230423   6.579   4.542   0.508 -0.9582 -0.6963 -0.0494
 2930TIP3   OH230424   6.001   5.781   2.328 -0.5312 -0.1357 -0.3023
 2930TIP3    H130425   6.030   5.872   2.318 -1.1141  0.1120  0.2299
 2930TIP3    H230426   5.937   5.784   2.399 -2.9522 -0.4291 -2.3410
 2931TIP3   OH230427   4.622   0.543   3.415 -0.1548 -0.1651  0.2545
 2931TIP3    H130428   4.702   0.588   3.390  0.0644 -0.7030 -0.0321
 2931TIP3    H230429   4.593   0.499   3.335  0.5354 -1.8832  0.8883
 2932TIP3   OH230430   6.670   2.445   3.155 -0.6887 -0.2596  0.2987
 2932TIP3    H130431   6.760   2.421   3.178 -0.9730 -0.8696  0.8016
 2932TIP3    H230432   6.622   2.363   3.159 -0.9571 -0.2370 -1.5563
 2933TIP3   OH230433   1.627   6.641   3.029  0.1780  0.1524  0.1192
 2933TIP3    H130434   1.624   6.689   3.112  1.0882  0.9523 -0.2998
 2933TIP3    H230435   1.582   6.698   2.966 -1.4410 -0.8990  0.2389
 2934TIP3   OH230436   0.608   2.856   2.198  0.2730 -0.5199 -0.5609
 2934TIP3    H130437   0.535   2.801   2.168 -0.5586  0.5945 -0.6186
 2934TIP3    H230438   0.571   2.909   2.268  1.8919 -2.2851  1.8209
 2935TIP3   OH230439   4.463   0.188   1.631 -0.2122 -0.1499 -0.2122
 2935TIP3    H130440   4.395   0.254   1.643 -0.3712 -0.6423  1.9246
 2935TIP3    H230441   4.524   0.227   1.568 -0.8194  1.6003  0.2371
 2936TIP3   OH230442   5.340   1.985   0.489 -0.0512 -0.7728 -0.4222
 2936TIP3    H130443   5.337   1.962   0.396 -1.6667 -2.5532  0.0143
 2936TIP3    H230444   5.432   1.975   0.514  0.6154  0.7756 -2.0227
 2937TIP3   OH230445   3.959   6.226   2.661  0.8013  0.5565 -0.1668
 2937TIP3    H130446   4.051   6.249   2.672  0.8706 -0.5211  2.0898
 2937TIP3    H230447   3.912   6.295   2.707  0.7587 -0.9040  2.1608
 2938TIP3   OH230448   1.793   0.806   1.169  0.0511  0.0549  0.0941
 2938TIP3    H130449   1.795   0.713   1.193 -0.2145  0.0540  0.1092
 2938TIP3    H230450   1.833   0.851   1.244  0.3084 -0.0580  0.0282
 2939TIP3   OH230451   2.126   0.817   2.561 -0.1421 -0.2759  0.2599
 2939TIP3    H130452   2.170   0.775   2.635  0.2869 -0.3753 -0.0472
 2939TIP3    H230453   2.070   0.748   2.524 -0.9297 -0.0158  0.9382
 2940TIP3   OH230454   6.009   4.966   2.361  0.2642 -0.1015  0.2806
 2940TIP3    H130455   5.942   5.011   2.412 -0.7576 -1.5067  0.2351
 2940TIP3    H230456   5.964   4.935   2.283  0.9532 -1.0982  0.2577
 2941TIP3   OH230457   0.129   1.732   2.151 -0.8051 -0.1137 -1.0185
 2941TIP3    H130458   0.167   1.813   2.118  1.8157 -0.4976  0.7189
 2941TIP3    H230459   0.066   1.760   2.217  0.6667  0.5928  0.1550
 2942TIP3   OH230460   0.078   1.521   8.509  0.1993  0.0979 -0.0363
 2942TIP3    H130461   0.159   1.557   8.546 -0.0187 -1.8163  2.6463
 2942TIP3    H230462   0.024   1.597   8.489  1.3034  1.3541  1.5116
 2943TIP3   OH230463   4.020   5.200   1.893 -0.5137 -0.2794  0.1706
 2943TIP3    H130464   4.070   5.135   1.844 -2.4710 -0.8767 -1.1716
 2943TIP3    H230465   3.954   5.231   1.831 -1.0800  1.3337  1.4915
 2944TIP3   OH230466   0.168   0.995   0.364  0.1721 -0.3061 -0.4169
 2944TIP3    H130467   0.149   1.008   0.271 -0.2441 -1.2397 -0.4780
 2944TIP3    H230468   0.242   1.053   0.382 -0.6454  0.9479 -0.9861
 2945TIP3   OH230469   4.508   5.684   1.318 -0.0826  0.1842 -0.2861
 2945TIP3    H130470   4.602   5.667   1.325 -0.2755 -0.3966  1.3204
 2945TIP3    H230471   4.493   5.761   1.372 -0.8283 -1.0741  1.4198
 2946TIP3   OH230472   2.575   4.803   2.314 -0.2820  0.5048 -0.1582
 2946TIP3    H130473   2.571   4.871   2.380 -1.3970 -1.1070  1.5470
 2946TIP3    H230474   2.500   4.746   2.333  1.0832 -1.6973 -0.8708
 2947TIP3   OH230475   2.187   2.562   8.760  0.1822  0.9717  0.5282
 2947TIP3    H130476   2.149   2.643   8.726  0.7261  1.3937  0.9043
 2947TIP3    H230477   2.262   2.591   8.812  0.0196  0.2641  1.1706
 2948TIP3   OH230478   6.428   1.589   8.481 -0.3592 -0.0558 -0.3016
 2948TIP3    H130479   6.335   1.609   8.477  0.1326  2.5815 -0.5716
 2948TIP3    H230480   6.446   1.574   8.574 -0.7984  1.1571  0.0046
 2949TIP3   OH230481   1.060   0.382   1.572 -0.1080 -0.1461  0.0238
 2949TIP3    H130482   1.012   0.387   1.489  0.7152 -1.5077 -0.5619
 2949TIP3    H230483   1.118   0.458   1.570  2.7448 -2.1357 -2.5541
 2950TIP3   OH230484   3.881   3.895   8.163 -0.6325 -0.1031 -0.3404
 2950TIP3    H130485   3.791   3.902   8.130 -0.8540  1.4215  0.5289
 2950TIP3    H230486   3.871   3.875   8.256 -0.1310  1.4709  0.0849
 2951TIP3   OH230487   5.896   2.778   1.177  0.5752  0.5441 -0.1566
 2951TIP3    H130488   5.958   2.707   1.196 -0.0529  0.2624  0.9133
 2951TIP3    H230489   5.902   2.835   1.253 -0.5288  0.4759 -0.0033
 2952TIP3   OH230490   3.165   4.809   7.991  0.2083 -0.6177 -0.2705
 2952TIP3    H130491   3.188   4.744   7.925 -1.2470 -1.3742 -0.0637
 2952TIP3    H230492   3.187   4.893   7.951 -0.7620 -1.0581 -1.7710
 2953TIP3   OH230493   4.771   3.952   1.118  0.6156 -0.1772 -0.5160
 2953TIP3    H130494   4.795   3.966   1.209  0.4684 -2.9706  0.0339
 2953TIP3    H230495   4.847   3.984   1.068  0.2412  2.3993  0.4602
 2954TIP3   OH230496   4.830   3.011   3.307  0.4530  0.3490 -0.4489
 2954TIP3    H130497   4.866   2.953   3.375  1.4191 -1.7667 -2.6047
 2954TIP3    H230498   4.735   2.994   3.310  0.5913 -0.4375 -0.2592
 2955TIP3   OH230499   2.972   0.891   1.065  0.0031  0.0446  0.4294
 2955TIP3    H130500   3.009   0.898   0.977  1.0279 -0.7543  0.7804
 2955TIP3    H230501   3.048   0.893   1.123 -0.7408  3.3831  1.5282
 2956TIP3   OH230502   3.120   5.058   7.829 -0.2802  0.4438  0.0090
 2956TIP3    H130503   3.185   5.085   7.893 -0.9595  0.4732  0.7082
 2956TIP3    H230504   3.145   5.102   7.748 -0.7420  2.3462  0.8409
 2957TIP3   OH230505   4.517   3.250   3.149 -0.3648  0.2361  0.1345
 2957TIP3    H130506   4.546   3.303   3.223  0.3349 -0.5567  0.4546
 2957TIP3    H230507   4.440   3.203   3.182 -0.4267  0.3498  0.1530
 2958TIP3   OH230508   3.836   4.928   2.377 -0.0391 -0.1940 -0.4409
 2958TIP3    H130509   3.828   4.961   2.288 -1.8628 -2.1997 -1.1133
 2958TIP3    H230510   3.913   4.871   2.376  0.4764  0.4936 -0.4655
 2959TIP3   OH230511   1.615   3.860   2.364  0.6563  0.3084  0.3088
 2959TIP3    H130512   1.542   3.802   2.385 -0.0008  0.8011 -0.5659
 2959TIP3    H230513   1.690   3.802   2.353  0.2771 -0.2532  0.6681
 2960TIP3   OH230514   4.129   5.041   1.065  0.1910 -0.0876 -0.1025
 2960TIP3    H130515   4.202   5.084   1.020  0.1343 -0.2054 -0.3099
 2960TIP3    H230516   4.158   4.950   1.076  1.1722  0.4248  2.1664
 2961TIP3   OH230517   6.036   5.882   3.398  1.2652 -0.1228 -0.4008
 2961TIP3    H130518   6.098   5.943   3.437 -1.5717  2.0790  0.9901
 2961TIP3    H230519   5.959   5.887   3.454 -0.6707 -1.7707 -2.7159
 2962TIP3   OH230520   1.314   5.017   0.397 -0.0575 -0.2633  0.5157
 2962TIP3    H130521   1.242   5.079   0.390  0.3514  0.1607 -0.0179
 2962TIP3    H230522   1.272   4.932   0.410 -0.8668 -0.5399 -2.8783
 2963TIP3   OH230523   2.016   2.050   1.060 -0.3502  0.2843  0.8307
 2963TIP3    H130524   2.000   2.139   1.031 -1.4084  0.0577  0.6992
 2963TIP3    H230525   2.017   1.997   0.980  0.3975  0.1828  0.8951
 2964TIP3   OH230526   6.256   3.001   1.897 -0.0736 -0.6934 -0.6157
 2964TIP3    H130527   6.214   3.087   1.902 -0.4916 -0.7118 -2.8856
 2964TIP3    H230528   6.215   2.950   1.968  0.8392  1.1752  1.3701
 2965TIP3   OH230529   3.977   0.600   8.212 -0.9645  0.6388  0.2400
 2965TIP3    H130530   4.035   0.675   8.202  1.1043 -0.6561  1.5982
 2965TIP3    H230531   4.033   0.524   8.194 -1.8640 -0.7526  2.7108
 2966TIP3   OH230532   1.711   2.696   2.830  0.3418  0.0828 -0.2119
 2966TIP3    H130533   1.642   2.763   2.822  0.2463 -0.2251 -3.3943
 2966TIP3    H230534   1.772   2.732   2.894 -1.1449  1.8921  0.2755
 2967TIP3   OH230535   5.324   2.858   0.937  0.2457 -0.0090 -0.3680
 2967TIP3    H130536   5.348   2.891   1.024 -0.0762  1.2169 -0.7196
 2967TIP3    H230537   5.231   2.882   0.928  0.5036  0.6469 -1.3778
 2968TIP3   OH230538   4.022   1.700   1.580  0.0863  0.0558 -0.2762
 2968TIP3    H130539   4.028   1.711   1.485  1.0853  2.3013 -0.0174
 2968TIP3    H230540   3.935   1.662   1.594  0.1311 -0.8425 -2.0917
 2969TIP3   OH230541   5.683   3.151   8.597  0.0729  0.5600  0.1387
 2969TIP3    H130542   5.597   3.131   8.559  0.4951  1.2230 -1.2384
 2969TIP3    H230543   5.699   3.080   8.660 -0.0863 -1.4007 -1.8958
 2970TIP3   OH230544   0.764   4.996   1.032  0.4049 -0.2072 -0.0488
 2970TIP3    H130545   0.707   5.069   1.054  0.5558  0.3273 -1.3427
 2970TIP3    H230546   0.825   5.031   0.967  0.9961 -1.2711 -0.1038
 2971TIP3   OH230547   1.873   1.545   0.181  0.5429  0.3172  0.1505
 2971TIP3    H130548   1.933   1.618   0.189  0.4357  0.3101  1.2896
 2971TIP3    H230549   1.929   1.467   0.182  0.6480  0.3768 -0.9317
 2972TIP3   OH230550   0.251   1.665   1.712 -0.4331  0.0860  0.1038
 2972TIP3    H130551   0.167   1.630   1.681  0.9071 -1.2431 -2.4578
 2972TIP3    H230552   0.266   1.622   1.796 -1.6587 -0.7804 -0.0995
 2973TIP3   OH230553   6.629   5.926   0.808 -0.5623 -0.4830 -0.3043
 2973TIP3    H130554   6.648   5.845   0.856 -2.7603 -0.6971  0.3487
 2973TIP3    H230555   6.708   5.944   0.758  0.3357 -2.5190  0.2769
 2974TIP3   OH230556   3.807   3.869   8.430 -0.2980  0.2173  0.3591
 2974TIP3    H130557   3.738   3.920   8.472 -1.6899 -0.6759 -0.7463
 2974TIP3    H230558   3.814   3.790   8.483  1.8834  1.4553  2.0947
 2975TIP3   OH230559   0.128   5.558   1.767  0.3780 -0.4304 -0.3083
 2975TIP3    H130560   0.090   5.471   1.762 -1.6745  0.4615 -1.3146
 2975TIP3    H230561   0.201   5.556   1.705  1.6322 -1.9645  1.1371
 2976TIP3   OH230562   2.591   5.439   8.323  0.1716  0.4008 -0.1665
 2976TIP3    H130563   2.637   5.359   8.349 -1.2183 -0.0625  1.0298
 2976TIP3    H230564   2.649   5.510   8.352  0.9960 -0.1684 -0.4030
 2977TIP3   OH230565   2.143   1.919   1.722 -0.2345  0.0226  0.1035
 2977TIP3    H130566   2.088   1.853   1.766 -0.8545  0.2503 -0.3120
 2977TIP3    H230567   2.176   1.974   1.793 -1.5671  0.6428  0.2714
 2978TIP3   OH230568   5.202   0.038   3.380 -0.0988 -0.0498 -0.3261
 2978TIP3    H130569   5.142   0.111   3.370  1.1771  1.0726 -0.0730
 2978TIP3    H230570   5.208   0.024   3.475  0.0522 -0.1347 -0.3463
 2979TIP3   OH230571   2.866   1.099   0.486 -0.0191 -0.5563 -0.0352
 2979TIP3    H130572   2.818   1.153   0.423 -1.4829 -0.5821  1.0046
 2979TIP3    H230573   2.940   1.153   0.512 -0.8759  0.5351  0.1950
 2980TIP3   OH230574   5.804   3.500   2.401 -0.0901 -0.1912  0.8370
 2980TIP3    H130575   5.816   3.595   2.407 -0.5720 -0.1576  1.3607
 2980TIP3    H230576   5.715   3.485   2.432  0.3161 -0.9123  1.7020
 2981TIP3   OH230577   1.593   5.459   2.958  0.1861 -0.0445  0.2694
 2981TIP3    H130578   1.618   5.479   3.048 -0.4509  0.6378  0.2965
 2981TIP3    H230579   1.532   5.386   2.965 -1.9927  1.7001  0.6392
 2982TIP3   OH230580   1.894   4.139   2.045  0.2029  0.1770 -0.6766
 2982TIP3    H130581   1.806   4.104   2.059  0.5103 -0.1754  0.4331
 2982TIP3    H230582   1.952   4.063   2.053  0.8317  0.8064  1.3046
 2983TIP3   OH230583   2.276   2.702   7.736  0.2058  0.2477  0.1628
 2983TIP3    H130584   2.343   2.675   7.672  0.4787 -0.9918  0.9410
 2983TIP3    H230585   2.193   2.690   7.690  0.3441 -1.5243  0.2934
 2984TIP3   OH230586   0.710   3.470   8.630 -0.4140  0.5353 -0.4536
 2984TIP3    H130587   0.711   3.466   8.534  0.9296  1.1673 -0.4973
 2984TIP3    H230588   0.790   3.519   8.652 -0.2095 -0.4132  1.0264
 2985TIP3   OH230589   2.298   4.227   7.469  0.1068 -0.5780  0.0445
 2985TIP3    H130590   2.222   4.279   7.495  0.1162  0.1022 -1.1855
 2985TIP3    H230591   2.373   4.283   7.485  0.2925 -0.9684  0.5615
 2986TIP3   OH230592   2.500   3.337   8.296  0.1416  0.0564  0.0836
 2986TIP3    H130593   2.532   3.419   8.258  2.4972 -0.9428 -0.2887
 2986TIP3    H230594   2.543   3.332   8.382  0.1242 -0.8344  0.0533
 2987TIP3   OH230595   0.954   5.386   0.792  0.9824  0.1711 -0.0823
 2987TIP3    H130596   0.997   5.325   0.730 -2.0343 -0.0956 -2.1248
 2987TIP3    H230597   0.862   5.387   0.765  0.2629  3.1885  1.9649
 2988TIP3   OH230598   3.269   6.035   9.001 -0.3715 -0.2060  0.0827
 2988TIP3    H130599   3.213   5.986   9.062  1.0461  1.0416  2.5651
 2988TIP3    H230600   3.358   6.020   9.032  0.5384 -0.3149 -2.3827
 2989TIP3   OH230601   5.176   3.803   1.564 -0.4271  0.1481 -0.5016
 2989TIP3    H130602   5.192   3.733   1.501 -0.9878  0.8770 -1.4949
 2989TIP3    H230603   5.117   3.863   1.518  1.0119  1.9011 -0.1675
 2990TIP3   OH230604   4.173   0.308   2.520 -0.4567  0.3424  0.2295
 2990TIP3    H130605   4.237   0.330   2.453 -0.2534 -1.7278 -0.3174
 2990TIP3    H230606   4.225   0.297   2.600 -0.0380 -1.5057 -0.2500
 2991TIP3   OH230607   0.731   1.259   2.578  0.1675  0.2472 -0.0482
 2991TIP3    H130608   0.722   1.317   2.653  1.4850  1.1292 -0.5231
 2991TIP3    H230609   0.693   1.308   2.505  1.1851  0.4984 -0.4305
 2992TIP3   OH230610   5.908   5.900   8.932 -0.3986  0.0613 -0.4384
 2992TIP3    H130611   5.843   5.867   8.870 -2.1585 -0.2619  1.4590
 2992TIP3    H230612   5.867   5.978   8.970 -0.2178 -0.7804  1.6055
 2993TIP3   OH230613   4.947   4.528   3.061  0.1968  0.6412 -0.3270
 2993TIP3    H130614   5.002   4.458   3.024  0.5543  1.1539 -0.7820
 2993TIP3    H230615   4.878   4.482   3.108  0.4328 -0.0208 -0.6164
 2994TIP3   OH230616   5.543   4.665   2.294 -0.3766  0.3403  0.2532
 2994TIP3    H130617   5.470   4.628   2.345  0.8022 -1.6210  0.6365
 2994TIP3    H230618   5.616   4.665   2.356 -0.0338  2.3741 -0.0985
 2995TIP3   OH230619   2.672   1.257   2.626  0.2177  0.0724 -0.3459
 2995TIP3    H130620   2.759   1.229   2.599  1.6173  1.5428  2.1943
 2995TIP3    H230621   2.683   1.284   2.717 -2.6260  1.5282 -0.3118
 2996TIP3   OH230622   0.586   3.185   3.094 -0.2769  0.4981 -0.5121
 2996TIP3    H130623   0.527   3.213   3.164 -0.8079  0.0541 -0.7777
 2996TIP3    H230624   0.546   3.105   3.059  0.9273 -0.2878 -0.1356
 2997TIP3   OH230625   0.463   2.558   0.761  0.4303 -0.1079 -0.1598
 2997TIP3    H130626   0.377   2.516   0.752 -0.9283  2.1542  1.2167
 2997TIP3    H230627   0.490   2.577   0.671  0.5806 -2.7114 -0.7650
 2998TIP3   OH230628   0.509   1.890   2.253 -0.0156  0.4005 -0.0280
 2998TIP3    H130629   0.518   1.796   2.263 -1.3506  0.3021  0.4351
 2998TIP3    H230630   0.598   1.921   2.232  0.3892 -0.9676 -0.3932
 2999TIP3   OH230631   4.891   3.236   1.741 -0.5889 -0.5851 -0.4035
 2999TIP3    H130632   4.917   3.288   1.817 -0.4326 -0.6540 -0.4100
 2999TIP3    H230633   4.944   3.270   1.669 -1.0281 -0.2432 -0.5720
 3000TIP3   OH230634   0.899   5.982   3.438 -0.3795 -1.0380  0.3337
 3000TIP3    H130635   0.879   6.009   3.528 -0.2717 -0.6805  0.2506
 3000TIP3    H230636   0.878   6.059   3.385  0.1570 -1.0358  0.1238
 3001TIP3   OH230637   4.873   3.520   0.310 -0.5946 -0.0623  0.5977
 3001TIP3    H130638   4.961   3.500   0.279 -0.8063 -1.0314  0.6111
 3001TIP3    H230639   4.861   3.613   0.288  0.3302  0.0211  0.3831
 3002TIP3   OH230640   3.434   0.631   8.256 -0.3813  0.2739 -1.0424
 3002TIP3    H130641   3.370   0.685   8.209 -0.9599 -0.9975 -1.7869
 3002TIP3    H230642   3.487   0.591   8.187 -0.5003 -0.7452 -0.5620
 3003TIP3   OH230643   3.120   5.224   0.372 -0.5697 -0.1466 -0.3103
 3003TIP3    H130644   3.096   5.232   0.279 -0.7443 -1.8266 -0.4377
 3003TIP3    H230645   3.067   5.151   0.404 -1.0361  0.8527  1.3115
 3004TIP3   OH230646   2.758   4.006   8.614 -0.0687  0.0370 -0.7597
 3004TIP3    H130647   2.818   3.938   8.584 -0.3339  0.4119 -2.2442
 3004TIP3    H230648   2.680   3.994   8.560 -0.7803  0.4655  0.1461
 3005TIP3   OH230649   2.588   6.390   8.124  0.4185  0.6878 -0.2748
 3005TIP3    H130650   2.493   6.379   8.120  0.2641  1.3082  1.1938
 3005TIP3    H230651   2.620   6.344   8.047 -1.0638  0.3727 -0.7384
 3006TIP3   OH230652   2.810   5.168   7.190 -0.1330 -0.7046  0.2824
 3006TIP3    H130653   2.799   5.256   7.154 -0.8671 -0.0925  1.9266
 3006TIP3    H230654   2.882   5.177   7.253  1.4880 -1.8724 -1.2985
 3007TIP3   OH230655   3.200   3.646   1.006  0.7127 -0.1886 -0.6931
 3007TIP3    H130656   3.115   3.688   0.995  0.8598 -0.3034 -2.7149
 3007TIP3    H230657   3.263   3.718   1.002  0.7505 -0.1687  0.1758
 3008TIP3   OH230658   1.666   4.532   1.557  0.0085  0.1693  0.5367
 3008TIP3    H130659   1.684   4.606   1.499 -2.9188  0.1796 -0.5086
 3008TIP3    H230660   1.752   4.509   1.594  2.0093  0.3468 -3.5068
 3009TIP3   OH230661   4.182   5.015   1.747 -0.0327  0.5207 -0.3245
 3009TIP3    H130662   4.205   4.924   1.730 -1.4537  0.0721  0.0217
 3009TIP3    H230663   4.195   5.059   1.663  3.4868  0.6886  0.1632
 3010TIP3   OH230664   4.678   1.636   7.636 -0.1036  0.1659 -0.2397
 3010TIP3    H130665   4.602   1.666   7.586 -1.0552 -0.5839  0.7056
 3010TIP3    H230666   4.666   1.674   7.723 -0.0086 -0.8483  0.2409
 3011TIP3   OH230667   1.710   3.080   2.603 -0.3960 -0.2908 -0.4008
 3011TIP3    H130668   1.651   3.116   2.669 -0.1134  0.6670 -0.6499
 3011TIP3    H230669   1.794   3.071   2.648 -0.2519  0.1843 -0.5602
 3012TIP3   OH230670   5.549   1.190   2.569 -0.3355  0.5449 -0.0724
 3012TIP3    H130671   5.517   1.247   2.639 -1.1555 -1.1245  0.9843
 3012TIP3    H230672   5.471   1.167   2.519 -0.0131  0.3886 -0.5065
 3013TIP3   OH230673   5.524   3.144   0.799 -0.4985  0.3873 -0.2225
 3013TIP3    H130674   5.593   3.078   0.797 -1.1520 -0.3726  1.1361
 3013TIP3    H230675   5.545   3.199   0.874 -1.6918 -0.2456  0.6074
 3014TIP3   OH230676   0.041   2.860   8.855 -0.4631 -0.0969 -0.6126
 3014TIP3    H130677  -0.021   2.866   8.927 -0.1176  0.0372 -0.3262
 3014TIP3    H230678   0.030   2.942   8.807  0.1916  0.3689  0.0098
 3015TIP3   OH230679   5.870   4.856   0.985 -0.3988  0.1374 -0.3979
 3015TIP3    H130680   5.801   4.920   0.965 -1.1362 -0.4288  0.2259
 3015TIP3    H230681   5.855   4.785   0.923 -2.8940 -1.7717  2.0931
 3016TIP3   OH230682   1.829   1.586   2.385 -0.1068 -0.5246 -0.4034
 3016TIP3    H130683   1.901   1.628   2.338 -0.4391 -0.5978 -0.9833
 3016TIP3    H230684   1.855   1.592   2.477 -0.2935  1.2658 -0.4185
 3017TIP3   OH230685   4.138   2.107   1.457 -0.6030 -0.4838  0.0475
 3017TIP3    H130686   4.181   2.183   1.497 -1.1499 -0.4962  0.6665
 3017TIP3    H230687   4.149   2.037   1.522 -0.6411 -0.7668 -0.2512
 3018TIP3   OH230688   3.475   6.270   1.616 -0.2492  0.5004  0.0297
 3018TIP3    H130689   3.486   6.328   1.540  0.0694  0.7535  0.2690
 3018TIP3    H230690   3.497   6.324   1.691 -1.4188  0.5072  0.3925
 3019TIP3   OH230691   3.197   0.020   7.708  0.5324  0.1082 -0.1879
 3019TIP3    H130692   3.115  -0.027   7.694 -0.0128  0.5434  1.2614
 3019TIP3    H230693   3.211   0.069   7.628  0.6245 -1.7650 -1.3751
 3020TIP3   OH230694   1.553   4.308   1.401  0.2959 -0.1976  0.2647
 3020TIP3    H130695   1.462   4.336   1.388  0.2675 -0.6031 -0.4742
 3020TIP3    H230696   1.603   4.389   1.399  0.1106 -0.0989 -0.8520
 3021TIP3   OH230697   5.402   2.740   2.469 -0.2123 -0.2853 -0.3647
 3021TIP3    H130698   5.419   2.735   2.563 -1.0705  0.7904 -0.1302
 3021TIP3    H230699   5.404   2.649   2.439 -0.7138 -0.7031  0.8329
 3022TIP3   OH230700   2.867   6.096   1.176 -0.5614 -0.4338  0.8650
 3022TIP3    H130701   2.784   6.119   1.218 -0.1327  0.5154  1.2412
 3022TIP3    H230702   2.875   6.158   1.103 -0.4126 -0.8421  0.5307
 3023TIP3   OH230703   5.028   6.213   2.445  0.2409  0.0211 -0.2907
 3023TIP3    H130704   5.124   6.206   2.443  0.5646  0.8362  3.5823
 3023TIP3    H230705   5.011   6.307   2.441 -0.2870 -0.0493  0.1762
 3024TIP3   OH230706   2.101   0.794   8.508  0.3265 -0.3428  0.0611
 3024TIP3    H130707   2.041   0.787   8.582  1.5870  1.3473  1.3206
 3024TIP3    H230708   2.051   0.838   8.439 -1.0811 -2.5392 -0.4445
 3025TIP3   OH230709   0.381   1.080   0.946  0.7049  0.2502 -0.1827
 3025TIP3    H130710   0.385   0.992   0.983 -0.6481 -0.1146 -0.8576
 3025TIP3    H230711   0.379   1.138   1.022  0.8095 -0.3273  0.2707
 3026TIP3   OH230712   3.358   1.536   8.332  0.1628  0.4524 -0.0867
 3026TIP3    H130713   3.306   1.459   8.355  0.9818 -0.4853 -1.2659
 3026TIP3    H230714   3.449   1.506   8.337  0.4546  0.9053 -1.9226
 3027TIP3   OH230715   5.868   1.723   8.429  0.0152 -0.3228  0.7520
 3027TIP3    H130716   5.900   1.675   8.353 -1.2256  0.7282 -0.4855
 3027TIP3    H230717   5.903   1.676   8.504  2.6157 -0.4709 -0.4684
 3028TIP3   OH230718   3.172   2.651   8.928  0.0210  0.0835 -0.3953
 3028TIP3    H130719   3.180   2.680   9.019 -1.0863  1.5165 -0.7257
 3028TIP3    H230720   3.233   2.707   8.880 -1.0644  0.9362 -0.8294
 3029TIP3   OH230721   4.587   1.741   2.745 -0.3798  0.5655  0.6217
 3029TIP3    H130722   4.616   1.814   2.800 -0.5177 -0.5755  2.2608
 3029TIP3    H230723   4.492   1.750   2.741 -0.4052  0.4253  0.9015
 3030TIP3   OH230724   3.739   6.360   3.077  0.4551  0.0621 -0.2316
 3030TIP3    H130725   3.646   6.349   3.095  0.2406 -0.1100 -1.3402
 3030TIP3    H230726   3.774   6.271   3.074  1.1672  0.1741  2.4879
 3031TIP3   OH230727   2.804   1.796   0.239  0.1048 -0.0462 -0.1076
 3031TIP3    H130728   2.847   1.759   0.161 -1.2551 -2.6463  0.2493
 3031TIP3    H230729   2.769   1.880   0.209  1.9042  0.2823 -1.5046
 3032TIP3   OH230730   4.320   6.325   1.883 -0.1526 -0.6340 -0.1252
 3032TIP3    H130731   4.364   6.406   1.910 -0.8318 -0.7967  1.5611
 3032TIP3    H230732   4.373   6.293   1.810  1.4539  0.1299  0.6566
 3033TIP3   OH230733   5.596   3.193   9.031  0.2809 -0.6669  0.2178
 3033TIP3    H130734   5.673   3.166   9.080  1.3294  0.5193 -0.7234
 3033TIP3    H230735   5.625   3.269   8.980 -1.4274 -0.3753 -0.3784
 3034TIP3   OH230736   1.103   2.882   2.025  0.3700 -0.0212 -0.8266
 3034TIP3    H130737   1.036   2.816   2.007 -0.0295  0.4309 -1.0329
 3034TIP3    H230738   1.179   2.855   1.975  0.3588 -0.5677 -0.5535
 3035TIP3   OH230739   3.936   0.569   3.321  0.0833  0.6295  0.3533
 3035TIP3    H130740   3.854   0.530   3.293  0.3055 -1.1561  1.9866
 3035TIP3    H230741   3.915   0.616   3.402  0.7215 -0.2907  1.0841
 3036TIP3   OH230742   1.770   2.963   2.338 -0.0402  0.5130 -0.8333
 3036TIP3    H130743   1.697   2.905   2.358  1.0153 -0.3451  0.7148
 3036TIP3    H230744   1.773   3.024   2.412 -0.8287  2.2955 -2.1908
 3037TIP3   OH230745   2.956   1.253   1.314  0.4279  0.1152 -0.1791
 3037TIP3    H130746   3.043   1.240   1.351  0.7268 -0.0264 -0.9159
 3037TIP3    H230747   2.962   1.217   1.226 -0.8756 -1.5195  0.3488
 3038TIP3   OH230748   3.788   0.418   0.654  0.3835 -0.8145 -0.2898
 3038TIP3    H130749   3.744   0.333   0.652 -0.4747 -0.3803  0.0776
 3038TIP3    H230750   3.759   0.462   0.574 -1.3732  0.2160  0.8665
 3039TIP3   OH230751   0.334   3.234   7.608  0.1212 -0.5472  0.0557
 3039TIP3    H130752   0.407   3.285   7.644 -1.7339  1.4222  1.2910
 3039TIP3    H230753   0.318   3.166   7.674  0.0181 -0.1785  0.4127
 3040TIP3   OH230754   0.420   5.692   0.438  0.5692  0.2607  0.0955
 3040TIP3    H130755   0.488   5.700   0.371 -0.1519  1.5390 -0.5154
 3040TIP3    H230756   0.404   5.782   0.467  1.3037 -0.3036  2.4589
 3041TIP3   OH230757   3.999   1.365   8.687 -0.2800 -0.2841 -0.5162
 3041TIP3    H130758   4.026   1.275   8.705  0.2111  0.2910  1.9919
 3041TIP3    H230759   4.016   1.376   8.593  2.2084 -1.9708 -0.3700
 3042TIP3   OH230760   2.757   3.733   1.263  0.6194 -0.4828  0.1056
 3042TIP3    H130761   2.806   3.685   1.330  2.1279  1.8458  0.8275
 3042TIP3    H230762   2.783   3.825   1.277  0.4899  0.1913 -3.2637
 3043TIP3   OH230763   0.508   3.239   2.310 -0.3580  0.4688  0.4374
 3043TIP3    H130764   0.463   3.277   2.385  0.5322  0.8672  0.7819
 3043TIP3    H230765   0.443   3.183   2.268 -0.4729 -0.8762  2.3219
 3044TIP3   OH230766   6.013   1.173   0.149  0.1859  0.2624 -0.0701
 3044TIP3    H130767   5.946   1.105   0.145 -0.7319  1.1772 -0.5861
 3044TIP3    H230768   6.035   1.191   0.058  1.6279 -0.4746  0.0986
 3045TIP3   OH230769   5.398   6.002   7.669  0.1131 -0.2222  0.4606
 3045TIP3    H130770   5.420   5.909   7.680  1.0140 -0.0548  0.1918
 3045TIP3    H230771   5.327   6.018   7.731 -0.0073 -1.0799  0.5498
 3046TIP3   OH230772   3.572   6.654   8.782 -0.0877  0.0088 -0.3832
 3046TIP3    H130773   3.497   6.705   8.750  0.7370  0.7067 -1.2705
 3046TIP3    H230774   3.552   6.638   8.874 -1.4935 -0.1332 -0.6924
 3047TIP3   OH230775   1.473   0.399   2.297  0.2007 -1.2035  0.5746
 3047TIP3    H130776   1.393   0.355   2.268  0.5095 -1.8619  0.7121
 3047TIP3    H230777   1.442   0.477   2.343 -0.3663 -1.5993  0.8682
 3048TIP3   OH230778   1.657   4.878   3.052 -0.3938 -0.0099 -0.1204
 3048TIP3    H130779   1.746   4.860   3.083 -0.2021  1.5135  0.2794
 3048TIP3    H230780   1.601   4.822   3.106  0.2033  0.0973  0.6222
 3049TIP3   OH230781   5.669   5.985   1.737  0.2349 -0.0595  0.1793
 3049TIP3    H130782   5.669   6.080   1.727 -0.4824  0.3328  3.0939
 3049TIP3    H230783   5.738   5.955   1.678 -0.4161  2.1055 -1.7969
 3050TIP3   OH230784   2.244   1.875   8.667  0.5239  0.5584 -0.1729
 3050TIP3    H130785   2.216   1.915   8.750 -3.2113  1.0145 -1.4714
 3050TIP3    H230786   2.248   1.781   8.686  2.5505  0.8663  1.1717
 3051TIP3   OH230787   3.708   1.732   0.282  0.0429  0.4629  0.1509
 3051TIP3    H130788   3.649   1.764   0.349  1.1510  1.6679  0.6040
 3051TIP3    H230789   3.688   1.785   0.205  0.4784  0.8279  0.2861
 3052TIP3   OH230790   0.870   0.103   2.430  0.0697 -0.3354  0.4386
 3052TIP3    H130791   0.811   0.029   2.417  0.0597 -0.3233  0.4155
 3052TIP3    H230792   0.957   0.069   2.408 -0.0362 -0.1275 -0.3215
 3053TIP3   OH230793   4.185   1.784   0.433 -0.1936 -0.4982  0.0784
 3053TIP3    H130794   4.242   1.834   0.376 -0.6817  0.8281  0.7242
 3053TIP3    H230795   4.134   1.728   0.374  0.8288 -0.7381 -0.5885
 3054TIP3   OH230796   1.104   4.401   2.115  0.3239  0.1937 -0.2079
 3054TIP3    H130797   1.137   4.485   2.082 -0.6668  0.1737 -1.3278
 3054TIP3    H230798   1.011   4.401   2.090  0.2907 -1.2034 -0.1467
 3055TIP3   OH230799   2.274   0.172   2.734 -0.4429  0.4976 -0.2292
 3055TIP3    H130800   2.323   0.090   2.739  0.9387  1.3763  1.9499
 3055TIP3    H230801   2.183   0.146   2.751 -0.0324 -0.5886  0.4297
 3056TIP3   OH230802   1.070   1.402   8.673  0.0928 -0.1196  0.2436
 3056TIP3    H130803   1.114   1.430   8.753 -0.3767 -1.2492  0.9178
 3056TIP3    H230804   0.991   1.358   8.703  0.3600 -1.3870 -0.7909
 3057TIP3   OH230805   1.103   3.058   1.425  0.0709 -0.4048 -0.1846
 3057TIP3    H130806   1.178   3.113   1.446 -1.2559  1.4016  0.0712
 3057TIP3    H230807   1.060   3.041   1.509 -0.8902  0.2570 -0.5200
 3058TIP3   OH230808   4.396   5.996   8.624  0.4758  0.0276 -0.5755
 3058TIP3    H130809   4.482   5.955   8.615 -0.0056 -0.8614 -1.2853
 3058TIP3    H230810   4.380   6.036   8.538 -0.2565 -0.7159 -0.8033
 3059TIP3   OH230811   1.762   3.162   3.564 -0.1293 -0.6120 -0.3145
 3059TIP3    H130812   1.827   3.200   3.623 -0.2011 -1.8309  0.5987
 3059TIP3    H230813   1.733   3.082   3.609 -0.5088 -1.3547 -1.8119
 3060TIP3   OH230814   2.808   4.194   7.895 -0.1411  0.0805  0.1846
 3060TIP3    H130815   2.792   4.208   7.802  0.2737 -2.0346 -0.2451
 3060TIP3    H230816   2.861   4.115   7.900  1.5931  1.2515  2.1422
 3061TIP3   OH230817   0.960   5.777   3.187 -0.0220  0.5472  0.2340
 3061TIP3    H130818   0.978   5.831   3.264  0.2105  0.8198 -0.0120
 3061TIP3    H230819   0.873   5.741   3.203  0.4602 -0.2610  1.1242
 3062TIP3   OH230820   2.327   5.538   0.628  0.6251  0.0178  0.2999
 3062TIP3    H130821   2.317   5.446   0.603  1.5769 -0.0598  0.1661
 3062TIP3    H230822   2.238   5.566   0.652  0.4901 -1.2349  1.3661
 3063TIP3   OH230823   4.397   1.165   8.529 -0.3537 -0.1922 -0.3928
 3063TIP3    H130824   4.310   1.158   8.490 -0.0858 -0.4112 -0.9612
 3063TIP3    H230825   4.405   1.087   8.584 -0.3390 -0.4075 -0.6996
 3064TIP3   OH230826   6.167   1.559   3.045  0.3137 -0.1575 -1.0722
 3064TIP3    H130827   6.200   1.605   2.967  2.9879  0.8165  0.5043
 3064TIP3    H230828   6.235   1.495   3.065 -0.4224 -0.5209  0.3777
 3065TIP3   OH230829   4.500   6.066   7.930 -0.2481  0.0601 -0.4090
 3065TIP3    H130830   4.473   6.063   7.838 -0.0251 -0.2464 -0.4640
 3065TIP3    H230831   4.589   6.100   7.928  0.1288 -0.9128 -0.3850
 3066TIP3   OH230832   0.440   2.147   7.930  0.1729 -0.4018  0.0422
 3066TIP3    H130833   0.396   2.222   7.969 -1.2611 -1.3827  0.3875
 3066TIP3    H230834   0.527   2.179   7.906  0.0990  0.9638  1.4926
 3067TIP3   OH230835   6.205   2.563   7.839 -0.0362  0.8435  0.3255
 3067TIP3    H130836   6.161   2.574   7.755  2.3166 -2.0529 -1.4781
 3067TIP3    H230837   6.134   2.553   7.902 -1.8963  1.3343 -1.5580
 3068TIP3   OH230838   1.887   1.923   2.165 -0.1818 -0.2345  0.0821
 3068TIP3    H130839   1.896   1.949   2.257  1.1884  0.7012 -0.2788
 3068TIP3    H230840   1.917   1.832   2.163  1.3816  0.2450  0.3284
 3069TIP3   OH230841   3.384   2.363   0.823  0.2975  0.1026  0.1308
 3069TIP3    H130842   3.307   2.413   0.850 -0.1131 -0.0161 -0.7885
 3069TIP3    H230843   3.445   2.430   0.791  1.7922  0.5346  3.4794
 3070TIP3   OH230844   1.351   0.030   0.719 -0.6342  0.2016 -0.4116
 3070TIP3    H130845   1.286   0.093   0.749 -0.5222 -0.7094  1.9880
 3070TIP3    H230846   1.313  -0.009   0.640 -2.3658  0.6885  0.1467
 3071TIP3   OH230847   1.805   5.039   3.641 -0.6533 -0.8686 -0.1747
 3071TIP3    H130848   1.849   4.981   3.703  0.5065 -0.4968 -0.6374
 3071TIP3    H230849   1.730   4.988   3.610  0.2477 -2.0611 -0.4500
 3072TIP3   OH230850   2.667   5.379   0.617  0.0261  0.4528 -0.1994
 3072TIP3    H130851   2.706   5.433   0.548  1.2324 -0.3103 -0.1478
 3072TIP3    H230852   2.696   5.418   0.699  0.5882 -0.0408 -0.1584
 3073TIP3   OH230853   0.575   5.031   1.976 -0.0609 -0.0952  0.0797
 3073TIP3    H130854   0.500   5.019   1.919 -0.5636  1.0392  0.4923
 3073TIP3    H230855   0.547   5.095   2.041  1.0282 -0.1782  0.6607
 3074TIP3   OH230856   2.622   4.935   0.822  0.4232  0.2717  0.3815
 3074TIP3    H130857   2.608   4.862   0.761 -0.2090  0.5478  0.1817
 3074TIP3    H230858   2.659   5.005   0.768  0.7688  0.1963  0.5169
 3075TIP3   OH230859   4.109   4.908   2.314  0.2245 -0.3992 -0.0326
 3075TIP3    H130860   4.140   4.989   2.355  1.4621 -1.1212  0.5287
 3075TIP3    H230861   4.096   4.932   2.222  0.4944  0.4561  0.1372
 3076TIP3   OH230862   4.557   1.055   0.215  0.3746  0.0055 -0.2400
 3076TIP3    H130863   4.589   1.091   0.298 -0.0121 -0.9444  0.3492
 3076TIP3    H230864   4.618   1.087   0.149  0.1400  1.5704  0.2617
 3077TIP3   OH230865   4.594   3.197   9.024  0.5080  0.7296  0.5314
 3077TIP3    H130866   4.650   3.266   9.060  0.7020  0.7288  0.2314
 3077TIP3    H230867   4.507   3.237   9.021  0.7809  1.2639 -0.4609
 3078TIP3   OH230868   1.637   0.258   1.604 -0.4973  0.5875 -0.5919
 3078TIP3    H130869   1.557   0.308   1.588  0.0096  1.5620 -0.1348
 3078TIP3    H230870   1.670   0.237   1.516 -1.6028 -0.4282 -0.7895
 3079TIP3   OH230871   1.831   0.473   2.410  0.2571 -0.2804  0.5443
 3079TIP3    H130872   1.806   0.388   2.448  0.7523 -1.0947 -0.8829
 3079TIP3    H230873   1.798   0.470   2.320  0.2000  1.0903  0.5018
 3080TIP3   OH230874   5.729   2.023   0.367 -0.4670  0.1285  0.3784
 3080TIP3    H130875   5.696   2.111   0.353  1.7231  1.0073  0.2484
 3080TIP3    H230876   5.724   1.981   0.281 -0.0817  0.6768  0.0807
 3081TIP3   OH230877   3.241   0.185   0.047  0.0899  0.0183  0.0073
 3081TIP3    H130878   3.205   0.273   0.036 -0.1532 -0.0203  0.4849
 3081TIP3    H230879   3.198   0.133  -0.020 -1.1458 -0.1464  0.9081
 3082TIP3   OH230880   1.102   5.451   8.892 -0.0275 -0.0476  0.0580
 3082TIP3    H130881   1.181   5.482   8.847  1.1377  1.6866  2.9446
 3082TIP3    H230882   1.055   5.400   8.827  2.4997  0.5014 -2.3950
 3083TIP3   OH230883   2.031   3.169   2.482  0.0470  0.2080 -0.1442
 3083TIP3    H130884   2.102   3.109   2.505 -0.2035 -0.3327 -0.7406
 3083TIP3    H230885   1.981   3.180   2.563 -0.8008 -1.6265 -0.3634
 3084TIP3   OH230886   4.600   0.518   2.735  0.4093  0.2402  0.3406
 3084TIP3    H130887   4.685   0.532   2.695  0.8966  0.1974  1.3343
 3084TIP3    H230888   4.538   0.525   2.663  1.2012  0.8521 -0.2971
 3085TIP3   OH230889   6.535   4.967   1.363 -0.1301 -0.1234  0.1276
 3085TIP3    H130890   6.486   5.009   1.293 -4.1805 -2.8701  0.9750
 3085TIP3    H230891   6.561   4.882   1.328  1.4090  0.0559  0.7427
 3086TIP3   OH230892   6.643   3.874   1.567  0.0794  0.0202 -0.4736
 3086TIP3    H130893   6.703   3.852   1.638 -0.6652 -1.0349 -0.1315
 3086TIP3    H230894   6.581   3.801   1.566 -1.7635  1.5009 -0.1826
 3087TIP3   OH230895   1.531   4.881   8.207 -0.1039 -0.5455 -0.1194
 3087TIP3    H130896   1.582   4.835   8.140 -2.5394  0.4211 -2.8362
 3087TIP3    H230897   1.557   4.973   8.197 -0.3379 -0.4247  0.3965
 3088TIP3   OH230898   1.746   1.259   8.788 -0.5607 -0.0497  0.1194
 3088TIP3    H130899   1.702   1.176   8.809  0.4871 -1.3812 -2.5492
 3088TIP3    H230900   1.676   1.324   8.791 -1.7969 -1.3424  0.4614
 3089TIP3   OH230901   0.022   3.196   1.451  0.0245  0.0270 -0.0920
 3089TIP3    H130902   0.028   3.101   1.458 -1.5673 -0.1625 -0.7708
 3089TIP3    H230903  -0.018   3.223   1.534  2.4630  0.3983  1.0516
 3090TIP3   OH230904   5.378   4.604   3.287 -0.3402  0.1757 -0.9862
 3090TIP3    H130905   5.376   4.611   3.191 -0.6146  1.9233 -0.8910
 3090TIP3    H230906   5.299   4.651   3.315 -1.8535 -2.7359  0.0257
 3091TIP3   OH230907   6.348   6.064   2.479  0.1509 -0.0010 -0.2347
 3091TIP3    H130908   6.326   5.980   2.438 -0.9240  0.3201 -0.3351
 3091TIP3    H230909   6.438   6.080   2.451  0.8295 -1.6996  0.7739
 3092TIP3   OH230910   5.832   0.289   2.610 -0.3407  0.0825 -0.0717
 3092TIP3    H130911   5.850   0.343   2.687  0.3570  0.0071 -0.1763
 3092TIP3    H230912   5.791   0.349   2.547 -1.9656 -0.0971  0.7482
 3093TIP3   OH230913   6.472   2.633   2.133  0.2169  0.2753  0.0815
 3093TIP3    H130914   6.484   2.593   2.047 -0.0671  0.4573 -0.0440
 3093TIP3    H230915   6.522   2.577   2.193  0.2586  0.0402 -0.1721
 3094TIP3   OH230916   6.360   4.103   0.600  0.3901  0.4744  0.0899
 3094TIP3    H130917   6.349   4.009   0.614 -1.4735  0.2856 -2.0949
 3094TIP3    H230918   6.313   4.143   0.674  0.6547 -0.2975  0.6926
 3095TIP3   OH230919   3.868   6.314   2.246 -0.0302 -0.3921 -0.0256
 3095TIP3    H130920   3.773   6.303   2.245 -0.0462 -0.3953  0.8988
 3095TIP3    H230921   3.888   6.339   2.336  0.9927 -1.6696  0.1240
 3096TIP3   OH230922   4.541   3.981   0.043  0.2284  0.3922 -0.4195
 3096TIP3    H130923   4.563   3.936   0.124 -0.4320  1.4173  0.3530
 3096TIP3    H230924   4.543   4.074   0.066 -1.1190  0.6622 -1.2740
 3097TIP3   OH230925   2.001   3.232   0.546  0.1898 -0.1671 -0.4997
 3097TIP3    H130926   1.951   3.203   0.470 -0.4453 -2.0118  0.5423
 3097TIP3    H230927   2.075   3.172   0.551 -0.2859 -0.6928  0.8248
 3098TIP3   OH230928   5.175   2.969   1.605  1.1207 -0.1723 -0.2489
 3098TIP3    H130929   5.124   2.984   1.526  1.7332  2.2396 -0.2650
 3098TIP3    H230930   5.262   2.944   1.574  1.8523  2.3936 -0.4752
 3099TIP3   OH230931   4.824   2.253   3.848 -0.2334  0.8235 -0.1844
 3099TIP3    H130932   4.739   2.211   3.855  0.1887  0.0545  0.4914
 3099TIP3    H230933   4.820   2.302   3.766 -0.6109 -0.8688 -1.2218
 3100TIP3   OH230934   2.562   2.259   0.697  0.3512  0.6190 -0.1493
 3100TIP3    H130935   2.534   2.331   0.754 -0.2876  0.1181  0.1865
 3100TIP3    H230936   2.650   2.237   0.728 -0.0118  0.3098  0.7023
 3101TIP3   OH230937   1.835   4.224   0.411  0.7411  0.3200 -0.1828
 3101TIP3    H130938   1.928   4.241   0.397  0.8706  1.0676  1.3210
 3101TIP3    H230939   1.827   4.129   0.411  1.5524  0.2447 -0.0702
 3102TIP3   OH230940   5.550   0.385   1.090  0.2189  0.2024  0.1756
 3102TIP3    H130941   5.627   0.417   1.044  1.2659 -1.5009  0.6636
 3102TIP3    H230942   5.489   0.360   1.020 -0.0656  1.8476 -0.2101
 3103TIP3   OH230943   4.226   1.394   2.460  0.3665 -0.0717 -0.3718
 3103TIP3    H130944   4.162   1.323   2.458  0.2515 -0.1319  2.4055
 3103TIP3    H230945   4.176   1.473   2.438 -0.3464 -0.3294  0.2916
 3104TIP3   OH230946   3.668   1.860   1.966  0.0381  0.1633  0.3469
 3104TIP3    H130947   3.717   1.804   1.906 -0.0852 -1.4518  1.6903
 3104TIP3    H230948   3.734   1.918   2.005  0.3270  0.2874 -0.3090
 3105TIP3   OH230949   2.517   4.159   2.241 -0.4522  0.1997  0.4084
 3105TIP3    H130950   2.533   4.070   2.271 -1.5676 -0.8716 -1.9431
 3105TIP3    H230951   2.479   4.204   2.317  0.8628 -1.0648  1.8664
 3106TIP3   OH230952   0.160   2.670   0.837  0.3629  0.2799  0.0340
 3106TIP3    H130953   0.196   2.673   0.925  1.2383  0.2970 -0.3153
 3106TIP3    H230954   0.166   2.578   0.812  0.4704  0.3345 -0.1460
 3107TIP3   OH230955   0.797   3.971   7.990  0.1675  0.3464  0.2672
 3107TIP3    H130956   0.876   3.923   8.012  0.1323  1.4927  3.3378
 3107TIP3    H230957   0.730   3.904   7.981  1.0795 -0.4936 -0.5476
 3108TIP3   OH230958   0.366   6.405   8.991  0.3162  0.0176  0.3156
 3108TIP3    H130959   0.394   6.343   9.058  3.3075  0.9265  0.0757
 3108TIP3    H230960   0.330   6.479   9.041  1.6373  0.2804  0.9464
 3109TIP3   OH230961   4.073   2.994   0.689 -0.0323 -0.0734  0.6997
 3109TIP3    H130962   4.146   3.050   0.662 -1.1683  1.6327  1.0203
 3109TIP3    H230963   4.048   3.026   0.775 -3.2838  1.7598 -0.7076
 3110TIP3   OH230964   5.771   1.634   9.059  0.2419  0.3953  0.6540
 3110TIP3    H130965   5.825   1.572   9.109 -0.6852 -0.7291  0.2924
 3110TIP3    H230966   5.773   1.600   8.969 -0.4154  0.7940  0.4846
 3111TIP3   OH230967   1.440   6.612   8.197 -0.1685 -0.9178 -0.0304
 3111TIP3    H130968   1.468   6.522   8.214  0.6869 -0.2566  2.4682
 3111TIP3    H230969   1.394   6.638   8.277 -2.4505  0.1565 -1.5737
 3112TIP3   OH230970   4.925   1.280   2.872  0.6552  0.2338 -0.2990
 3112TIP3    H130971   4.851   1.224   2.896 -1.6130  3.2715  0.5097
 3112TIP3    H230972   4.885   1.365   2.853  3.8729  1.7281 -1.0915
 3113TIP3   OH230973   5.699   5.755   3.258  0.2043 -0.1932  0.4114
 3113TIP3    H130974   5.763   5.762   3.187 -1.6252  2.1122 -1.1784
 3113TIP3    H230975   5.619   5.724   3.214 -0.2366 -1.5091  2.0498
 3114TIP3   OH230976   4.699   4.936   7.958 -0.1586  0.1810  0.2586
 3114TIP3    H130977   4.715   4.842   7.967 -1.3942  0.0625  1.4667
 3114TIP3    H230978   4.784   4.976   7.974  0.6156 -0.7478 -1.2815
 3115TIP3   OH230979   3.032   2.656   0.691  0.3086 -0.8134  0.4589
 3115TIP3    H130980   3.074   2.606   0.621  0.8221 -1.3930  1.1632
 3115TIP3    H230981   3.034   2.746   0.660  0.0344 -1.1253 -0.5116
 3116TIP3   OH230982   1.491   5.745   8.728 -0.5012  0.7037  0.4135
 3116TIP3    H130983   1.511   5.659   8.690  2.4635  0.9119  1.2162
 3116TIP3    H230984   1.444   5.725   8.809 -0.0103 -0.1704  0.4935
 3117TIP3   OH230985   3.199   4.365   1.150  0.2107 -0.0979  0.2280
 3117TIP3    H130986   3.229   4.346   1.062 -0.3384  0.9071 -0.1996
 3117TIP3    H230987   3.116   4.411   1.137  0.4254  0.6078  1.2353
 3118TIP3   OH230988   1.039   5.307   8.635  0.0621  0.0354  0.3978
 3118TIP3    H130989   1.052   5.304   8.540  0.4638  0.6528  0.4306
 3118TIP3    H230990   0.967   5.245   8.651  2.4771 -3.1128  0.1319
 3119TIP3   OH230991   6.438   1.594   2.355 -0.7636  0.3774 -0.4893
 3119TIP3    H130992   6.383   1.643   2.417  1.4882 -0.4440  2.3540
 3119TIP3    H230993   6.491   1.661   2.313 -1.5657  0.8570 -0.7606
 3120TIP3   OH230994   0.093   2.779   8.040  0.0182  0.2699 -0.1869
 3120TIP3    H130995   0.093   2.777   7.944  0.6112 -1.0926 -0.1913
 3120TIP3    H230996   0.010   2.820   8.063 -0.8586 -0.7823 -1.3015
 3121TIP3   OH230997   3.758   5.220   2.390  0.1184  0.2696  0.6796
 3121TIP3    H130998   3.764   5.125   2.383  1.0812  0.3158  0.7727
 3121TIP3    H230999   3.778   5.239   2.482  1.6898  0.6739  0.2780
 3122TIP3   OH231000   0.354   4.124   0.199 -0.1853  0.2410  0.3578
 3122TIP3    H131001   0.385   4.057   0.140  1.1612  1.1757 -0.0412
 3122TIP3    H231002   0.350   4.081   0.285  0.7609 -0.3313  0.1311
 3123TIP3   OH231003   5.932   4.744   8.754 -0.4802  0.4625  0.2257
 3123TIP3    H131004   5.865   4.675   8.751 -0.0647  0.0828 -0.9526
 3123TIP3    H231005   5.968   4.746   8.666 -0.3227  2.0612  0.2967
 3124TIP3   OH231006   3.781   2.337   0.931  0.1598 -0.1602 -0.2302
 3124TIP3    H131007   3.828   2.413   0.967  0.2384  0.1390 -0.9398
 3124TIP3    H231008   3.737   2.371   0.853 -2.9748  0.0704  1.5212
 3125TIP3   OH231009   0.001   1.749   8.808 -0.3490  0.0223  0.1502
 3125TIP3    H131010   0.070   1.682   8.804  0.7280  1.1169 -0.8001
 3125TIP3    H231011  -0.003   1.774   8.900  1.7646  1.0928  0.0268
 3126TIP3   OH231012   0.024   2.970   1.137  0.2299  0.4963 -0.4287
 3126TIP3    H131013  -0.034   2.951   1.211  0.9055 -0.2374 -0.0711
 3126TIP3    H231014  -0.034   2.975   1.061 -0.6780  2.6616  0.3183
 3127TIP3   OH231015   1.926   6.295   0.796  0.4335 -0.0041 -0.1852
 3127TIP3    H131016   1.919   6.384   0.763  1.2256  0.6061  1.1919
 3127TIP3    H231017   2.003   6.296   0.853  0.3832 -1.5356 -0.0381
 3128TIP3   OH231018   3.834   3.955   8.924  0.0388 -0.3835 -0.1092
 3128TIP3    H131019   3.896   3.884   8.935  1.6273  0.8499 -0.7822
 3128TIP3    H231020   3.785   3.958   9.007 -0.4284 -2.5361 -0.2614
 3129TIP3   OH231021   4.814   1.735   0.808 -0.2765 -0.0463 -0.1197
 3129TIP3    H131022   4.879   1.665   0.807 -0.9321 -0.6755  0.1267
 3129TIP3    H231023   4.731   1.690   0.792 -0.4765  0.9427 -2.1949
 3130TIP3   OH231024   0.338   4.510   2.464 -0.1098  0.1255 -0.5213
 3130TIP3    H131025   0.302   4.422   2.451 -1.7407  0.7935 -0.8093
 3130TIP3    H231026   0.272   4.568   2.424  0.3452  1.5432  0.7276
 3131TIP3   OH231027   4.104   1.298   7.851 -0.2589 -0.1612 -0.1890
 3131TIP3    H131028   4.100   1.385   7.811  0.6634  0.8845  1.8566
 3131TIP3    H231029   4.186   1.261   7.820  0.4107  0.6077  0.6150
 3132TIP3   OH231030   2.651   1.610   8.080  0.0514 -0.1723  0.1652
 3132TIP3    H131031   2.590   1.600   8.153  0.1528  0.3942  0.3315
 3132TIP3    H231032   2.728   1.560   8.106  0.5343  0.9470  0.9626
 3133TIP3   OH231033   0.537   4.190   8.124 -1.0161  0.0686 -0.4449
 3133TIP3    H131034   0.552   4.106   8.167 -1.1050  0.4900  0.4335
 3133TIP3    H231035   0.617   4.206   8.074 -0.2408  0.3126  0.8321
 3134TIP3   OH231036   4.139   3.347   7.594  0.2620 -0.0307 -0.6757
 3134TIP3    H131037   4.215   3.303   7.556  0.3003 -0.1336 -0.4783
 3134TIP3    H231038   4.106   3.286   7.660 -1.0482 -0.7530 -1.9527
 3135TIP3   OH231039   3.879   4.699   7.777  0.1926  0.0338 -0.1935
 3135TIP3    H131040   3.829   4.753   7.716  2.7805  2.3193 -0.5048
 3135TIP3    H231041   3.908   4.624   7.725  0.6526  0.9184 -1.2711
 3136TIP3   OH231042   4.645   5.441   8.025  0.1102  0.1288  0.0284
 3136TIP3    H131043   4.550   5.445   8.015  0.0115  0.0009  0.8503
 3136TIP3    H231044   4.679   5.497   7.955 -0.4659 -1.6088 -1.7395
 3137TIP3   OH231045   1.398   4.129   8.546  0.3536  0.5369  0.0954
 3137TIP3    H131046   1.329   4.117   8.481 -0.9758 -1.9029  1.8003
 3137TIP3    H231047   1.477   4.146   8.495 -0.2493 -2.9719 -2.3704
 3138TIP3   OH231048   4.087   1.773   8.795 -0.3215 -0.1592 -0.2980
 3138TIP3    H131049   4.070   1.690   8.840 -0.8368 -0.4965 -1.0950
 3138TIP3    H231050   4.002   1.816   8.791 -0.1188  0.2551 -0.2013
 3139TIP3   OH231051   6.690   3.995   1.138 -0.2107  0.1066 -0.3159
 3139TIP3    H131052   6.771   3.967   1.181 -0.6511  0.2774  0.6618
 3139TIP3    H231053   6.632   3.919   1.144 -0.4234  0.2752 -0.2160
 3140TIP3   OH231054   4.693   4.823   8.945 -0.1865  0.5667 -0.0651
 3140TIP3    H131055   4.660   4.733   8.941  0.1594  0.3267  1.5342
 3140TIP3    H231056   4.651   4.868   8.872 -0.0374 -0.9940 -1.1622
 3141TIP3   OH231057   2.051   0.567   1.722 -0.4293 -0.6564  0.3559
 3141TIP3    H131058   2.128   0.523   1.687 -0.3913  0.8193 -1.6247
 3141TIP3    H231059   2.082   0.613   1.799  0.8601  0.3169 -0.6919
 3142TIP3   OH231060   2.268   2.686   2.343 -0.2177  0.2263 -0.0132
 3142TIP3    H131061   2.238   2.608   2.296 -1.1731  0.4669  0.1957
 3142TIP3    H231062   2.333   2.653   2.405 -0.3254 -0.3441 -0.2019
 3143TIP3   OH231063   6.729   2.927   0.815  0.6350  0.6296 -0.4461
 3143TIP3    H131064   6.781   2.945   0.737  0.3431  0.4276 -0.6883
 3143TIP3    H231065   6.778   2.858   0.860 -0.5121 -1.1420 -1.7859
 3144TIP3   OH231066   4.516   2.216   8.031 -0.8025  0.0865  0.1715
 3144TIP3    H131067   4.607   2.188   8.033  0.4635  3.6218  0.3284
 3144TIP3    H231068   4.502   2.245   7.941 -1.2081  1.0767  0.5369
 3145TIP3   OH231069   4.433   6.189   2.470  0.0093  0.6410  0.0541
 3145TIP3    H131070   4.360   6.146   2.514 -1.0594  2.7147  0.4286
 3145TIP3    H231071   4.413   6.282   2.474  2.0342  1.2030 -1.0283
 3146TIP3   OH231072   1.246   3.311   1.921 -0.2598 -0.4346 -0.0805
 3146TIP3    H131073   1.171   3.363   1.893 -0.1109 -1.1080 -1.8415
 3146TIP3    H231074   1.241   3.313   2.017 -0.9389  1.7728 -0.1029
 3147TIP3   OH231075   6.226   1.588   1.188 -0.5501 -0.3309  0.4184
 3147TIP3    H131076   6.143   1.544   1.173  0.0509 -2.3396  2.3393
 3147TIP3    H231077   6.282   1.520   1.226  1.6441  1.2134  0.1397
 3148TIP3   OH231078   5.616   2.480   2.211  0.1751 -0.8961  0.0048
 3148TIP3    H131079   5.614   2.491   2.306  1.7924 -1.8476  0.1974
 3148TIP3    H231080   5.609   2.385   2.198 -0.4283 -0.7433 -0.8465
 3149TIP3   OH231081   5.813   5.272   8.826 -0.1354 -0.5385 -1.0361
 3149TIP3    H131082   5.903   5.246   8.845  0.0417 -0.2027 -1.3909
 3149TIP3    H231083   5.760   5.200   8.859  0.1127  0.1804  1.0909
 3150TIP3   OH231084   6.082   4.321   1.863  0.0347  0.4593 -0.2653
 3150TIP3    H131085   6.131   4.287   1.938 -0.2073  2.2820  0.7978
 3150TIP3    H231086   6.127   4.402   1.840 -1.5477  1.4019 -0.2117
 3151TIP3   OH231087   2.835   2.808   9.066  0.0426  0.1592  0.1351
 3151TIP3    H131088   2.767   2.791   9.131 -0.0012  0.5186  0.1841
 3151TIP3    H231089   2.888   2.878   9.104  0.9852 -0.7399  0.4967
 3152TIP3   OH231090   3.082   0.566   1.070 -0.3462 -0.2374  0.0509
 3152TIP3    H131091   3.098   0.642   1.126  1.5702 -0.4930 -0.0766
 3152TIP3    H231092   2.999   0.530   1.101 -0.2231  0.6674  1.5194
 3153TIP3   OH231093   0.934   3.990   0.908  0.1889  0.1629  0.8462
 3153TIP3    H131094   0.868   3.926   0.881 -0.6628  0.3324  2.3844
 3153TIP3    H231095   1.016   3.941   0.910  0.3822  0.2201 -2.2019
 3154TIP3   OH231096   4.616   2.387   0.503 -0.2983 -0.0446 -0.2187
 3154TIP3    H131097   4.650   2.329   0.571 -0.1562 -1.4051 -1.3875
 3154TIP3    H231098   4.663   2.361   0.424 -0.7226  1.2374 -0.9264
 3155TIP3   OH231099   1.237   4.760   0.432  0.2276  0.5171 -0.7205
 3155TIP3    H131100   1.246   4.738   0.524 -0.7937  1.0067 -0.4966
 3155TIP3    H231101   1.191   4.685   0.393 -1.3000  1.2522 -0.3862
 3156TIP3   OH231102   5.584   3.625   0.365  0.0111 -0.4102 -0.6024
 3156TIP3    H131103   5.670   3.585   0.373  0.7322  1.0476 -0.6271
 3156TIP3    H231104   5.523   3.552   0.362  1.4026 -1.5604 -2.7799
 3157TIP3   OH231105   4.223   6.272   2.726 -0.1777 -0.3631 -0.3354
 3157TIP3    H131106   4.314   6.247   2.741  0.0925 -0.2543 -1.6617
 3157TIP3    H231107   4.224   6.368   2.727 -0.4809 -0.3597  0.6971
 3158TIP3   OH231108   1.375   0.653   2.419  0.1251  0.0972 -0.5591
 3158TIP3    H131109   1.433   0.706   2.364  1.0381  1.1543  1.3194
 3158TIP3    H231110   1.300   0.710   2.437 -0.6101 -0.5739 -1.4096
 3159TIP3   OH231111   5.151   1.841   1.440 -0.2140  0.5064  0.1415
 3159TIP3    H131112   5.246   1.855   1.435 -0.1496 -0.0628 -0.3959
 3159TIP3    H231113   5.136   1.814   1.531  0.3127 -0.5560 -0.0680
 3160TIP3   OH231114   4.038   5.841   0.088 -0.4680 -0.1955 -0.3829
 3160TIP3    H131115   4.097   5.869   0.017 -0.3073 -0.0403 -0.1893
 3160TIP3    H231116   4.046   5.911   0.153 -0.2721 -0.5643 -0.0123
 3161TIP3   OH231117   4.326   3.291   9.033 -0.4628 -0.7446  0.0874
 3161TIP3    H131118   4.255   3.231   9.055 -0.0553 -0.7559  1.4849
 3161TIP3    H231119   4.307   3.370   9.085  0.5837 -0.7851  0.5508
 3162TIP3   OH231120   3.392   2.293   1.388 -0.3783 -0.1909 -0.4036
 3162TIP3    H131121   3.476   2.249   1.376  0.6428  1.0142  1.8608
 3162TIP3    H231122   3.327   2.222   1.383  0.9208 -1.4290 -0.2597
 3163TIP3   OH231123   4.942   0.551   0.815 -0.0316 -0.7368  0.4221
 3163TIP3    H131124   4.889   0.482   0.776  0.0409  0.1818 -1.4067
 3163TIP3    H231125   4.890   0.631   0.804  1.2730  0.0277 -0.5496
 3164TIP3   OH231126   6.290   5.694   1.498 -0.3417  0.4850 -0.3136
 3164TIP3    H131127   6.243   5.720   1.577  0.5664  2.0696 -0.2360
 3164TIP3    H231128   6.291   5.598   1.500  0.4614  0.4788  2.1027
 3165TIP3   OH231129   1.281   5.613   7.729  0.1713  0.1112 -0.1992
 3165TIP3    H131130   1.278   5.707   7.711  1.2496  0.1282 -0.3663
 3165TIP3    H231131   1.265   5.606   7.823  1.6924  0.6179  0.1361
 3166TIP3   OH231132   6.713   5.053   2.887 -0.1274  0.1015 -0.6687
 3166TIP3    H131133   6.804   5.027   2.875 -0.6820 -1.2413 -2.4763
 3166TIP3    H231134   6.717   5.131   2.942  2.1935  0.8894 -1.8323
 3167TIP3   OH231135   6.036   0.662   2.773  0.0921 -0.3434  0.5424
 3167TIP3    H131136   6.015   0.709   2.853  0.6149 -1.9909  1.7147
 3167TIP3    H231137   6.125   0.689   2.752  0.4939 -0.9554  1.3663
 3168TIP3   OH231138   4.985   1.496   8.906  0.4389 -0.6164  0.3278
 3168TIP3    H131139   4.951   1.583   8.928  0.1760 -0.8913  1.0297
 3168TIP3    H231140   5.048   1.513   8.836  0.9674  0.2322  0.9844
 3169TIP3   OH231141   0.995   1.060   3.120  0.6307  0.0887  0.1081
 3169TIP3    H131142   0.958   0.991   3.065  0.2067 -0.2115  0.7570
 3169TIP3    H231143   0.928   1.076   3.187  2.4543 -1.9942  2.6497
 3170TIP3   OH231144   4.463   0.014   3.074 -0.0372  0.0477  0.0328
 3170TIP3    H131145   4.368   0.016   3.061 -0.0695 -1.4585 -0.1391
 3170TIP3    H231146   4.474  -0.020   3.163  0.3439  0.5317  0.1751
 3171TIP3   OH231147   5.058   5.303   8.766  0.6228  0.1743 -0.3861
 3171TIP3    H131148   5.102   5.300   8.681  0.8327  1.1980 -0.3225
 3171TIP3    H231149   5.028   5.213   8.780 -0.9557  0.2971 -2.3645
 3172TIP3   OH231150   6.629   3.202   0.866  0.6586 -0.4256 -0.3479
 3172TIP3    H131151   6.656   3.111   0.874 -0.0373 -0.5293  1.4116
 3172TIP3    H231152   6.566   3.214   0.938 -0.0499  1.1548 -1.1840
 3173TIP3   OH231153   3.501   6.399   0.603  0.2367  0.0073 -0.3474
 3173TIP3    H131154   3.551   6.430   0.528  3.0678  1.5007  1.9208
 3173TIP3    H231155   3.416   6.441   0.596  0.8862  1.1168 -2.0414
 3174TIP3   OH231156   4.764   5.729   2.722 -0.3275 -0.4321 -0.1751
 3174TIP3    H131157   4.749   5.707   2.814 -1.0180  1.8029  0.3014
 3174TIP3    H231158   4.702   5.673   2.674 -1.9329  0.2932  0.9472
 3175TIP3   OH231159   3.777   3.059   0.357 -0.0364 -0.2065 -0.3357
 3175TIP3    H131160   3.789   2.964   0.354  0.8765 -0.0908 -1.8758
 3175TIP3    H231161   3.862   3.093   0.384 -0.2693  0.1797 -0.0872
 3176TIP3   OH231162   1.571   1.466   1.624 -0.1970  0.3192 -0.1460
 3176TIP3    H131163   1.489   1.489   1.668  0.1661  1.8775 -0.2121
 3176TIP3    H231164   1.543   1.438   1.536 -0.7051  0.1829  0.0538
 3177TIP3   OH231165   1.190   2.016   1.926  0.2662  0.1406 -1.1136
 3177TIP3    H131166   1.149   2.046   2.007  0.4558 -0.4531 -0.7916
 3177TIP3    H231167   1.171   1.922   1.923  0.4811  0.1086 -1.6271
 3178TIP3   OH231168   0.993   6.243   1.289 -0.2026  0.8102 -0.3914
 3178TIP3    H131169   0.979   6.302   1.364 -0.7548 -0.0527  0.2094
 3178TIP3    H231170   1.008   6.158   1.329 -0.3977  0.3584 -1.2687
 3179TIP3   OH231171   4.879   4.181   2.875  0.0527  0.1881  0.4725
 3179TIP3    H131172   4.813   4.242   2.842 -0.5006 -1.2387 -1.1754
 3179TIP3    H231173   4.943   4.237   2.920 -1.8073  1.6846  1.3796
 3180TIP3   OH231174   4.110   0.015   2.681  0.2958  0.0905 -0.1562
 3180TIP3    H131175   4.170   0.022   2.607 -2.6422  2.9545 -2.5918
 3180TIP3    H231176   4.066  -0.068   2.668 -0.0953  0.5006 -1.6476
 3181TIP3   OH231177   0.429   3.996   1.577 -0.0626 -0.0607  0.0905
 3181TIP3    H131178   0.496   3.936   1.613  0.1069  0.6513  1.0072
 3181TIP3    H231179   0.372   3.940   1.525 -0.8101 -1.3309  2.1638
 3182TIP3   OH231180   3.197   0.816   1.185  0.6384 -0.4173 -0.0601
 3182TIP3    H131181   3.267   0.860   1.135  0.1453  1.5633  0.8807
 3182TIP3    H231182   3.240   0.783   1.264  0.2934  2.5456  1.5064
 3183TIP3   OH231183   4.986   5.531   0.072  0.4720  0.3464  0.0298
 3183TIP3    H131184   4.919   5.596   0.050 -0.2731  0.2036  1.7358
 3183TIP3    H231185   5.035   5.520  -0.009 -2.2592 -0.3980 -1.6630
 3184TIP3   OH231186   2.070   3.286   0.163 -0.1410 -0.3797 -0.1125
 3184TIP3    H131187   2.106   3.374   0.162 -2.7319  0.8155  0.9509
 3184TIP3    H231188   2.090   3.250   0.077  0.1857  1.6203 -0.9144
 3185TIP3   OH231189   5.311   5.697   8.444  0.0344 -0.7111 -0.6536
 3185TIP3    H131190   5.392   5.646   8.436  0.8067  0.7069 -2.7117
 3185TIP3    H231191   5.251   5.658   8.381  0.1278  0.0075 -1.1957
 3186TIP3   OH231192   5.997   3.335   2.464 -0.2023 -0.0292  0.2473
 3186TIP3    H131193   5.931   3.405   2.470 -0.9728 -0.8642  4.2348
 3186TIP3    H231194   5.974   3.289   2.383 -2.1106  1.9561 -0.4690
 3187TIP3   OH231195   4.409   6.279   8.980 -0.8994 -0.3896  0.3486
 3187TIP3    H131196   4.448   6.339   8.917 -2.0352 -0.0320 -0.0200
 3187TIP3    H231197   4.393   6.199   8.930  2.0754 -1.6725  1.1881
 3188TIP3   OH231198   4.901   4.599   9.031  0.0023  0.7361 -0.0692
 3188TIP3    H131199   4.817   4.602   9.076 -0.8972 -0.4182 -1.5541
 3188TIP3    H231200   4.954   4.539   9.083 -1.8601 -2.6064 -1.6641
 3189TIP3   OH231201   6.604   0.329   0.293  0.0695 -0.2822 -0.0383
 3189TIP3    H131202   6.667   0.328   0.365 -0.1646 -1.2353  0.1623
 3189TIP3    H231203   6.649   0.376   0.223  0.7093 -0.2816  0.3594
 3190TIP3   OH231204   3.770   5.497   8.267 -0.3556  0.0168  0.0186
 3190TIP3    H131205   3.783   5.541   8.351 -2.8862 -1.1282  1.1145
 3190TIP3    H231206   3.780   5.404   8.287 -2.1732 -0.3623 -0.6080
 3191TIP3   OH231207   4.095   0.058   8.841  0.1460  0.1201 -0.9444
 3191TIP3    H131208   4.142   0.138   8.819  0.0944  0.2793 -0.4866
 3191TIP3    H231209   4.002   0.081   8.828  0.0280  0.5749  0.4999
 3192TIP3   OH231210   1.538   5.734   7.783  0.4292 -0.5791 -0.4213
 3192TIP3    H131211   1.613   5.777   7.742 -1.1010  0.0490 -2.8114
 3192TIP3    H231212   1.501   5.801   7.841 -1.4339  1.2789 -3.4690
 3193TIP3   OH231213   5.684   1.309   0.403  0.0438  0.1957 -0.0540
 3193TIP3    H131214   5.648   1.395   0.384 -1.7312 -0.5151 -0.1403
 3193TIP3    H231215   5.638   1.250   0.344  0.8440 -0.8859  0.3559
 3194TIP3   OH231216   4.821   0.143   7.634 -0.4837 -0.4151  0.3588
 3194TIP3    H131217   4.782   0.076   7.579 -1.2848  1.0473 -0.9505
 3194TIP3    H231218   4.756   0.214   7.634  0.7222  0.7213  0.9009
 3195TIP3   OH231219   1.333   1.717   0.279 -0.4348  0.4915 -0.0575
 3195TIP3    H131220   1.393   1.713   0.204 -1.7226  0.2380 -1.1084
 3195TIP3    H231221   1.337   1.629   0.317  2.7191  1.4452  2.2911
 3196TIP3   OH231222   0.848   4.250   0.654  0.6988 -0.1440 -0.0170
 3196TIP3    H131223   0.816   4.159   0.649 -0.2067 -0.0215  2.4517
 3196TIP3    H231224   0.836   4.275   0.745  0.5308  2.6382 -0.7163
 3197TIP3   OH231225   0.515   3.748   0.838  0.1072  0.5846  0.0273
 3197TIP3    H131226   0.563   3.755   0.920 -0.7188 -0.1253  0.5833
 3197TIP3    H231227   0.522   3.656   0.813  1.1384  0.9640 -1.2035
 3198TIP3   OH231228   3.343   3.873   1.005 -0.1678 -0.4543  0.5759
 3198TIP3    H131229   3.355   3.927   1.084  0.9730 -0.1392  0.2185
 3198TIP3    H231230   3.432   3.850   0.979 -0.5913 -1.4949  0.0094
 3199TIP3   OH231231   3.707   1.914   3.117 -0.0122 -0.2991 -0.4912
 3199TIP3    H131232   3.781   1.908   3.057 -0.0236 -1.9815 -0.3978
 3199TIP3    H231233   3.724   1.846   3.182  0.5363  2.1325  2.0982
 3200TIP3   OH231234   0.928   1.157   2.787 -0.0308  0.5956 -0.4070
 3200TIP3    H131235   0.930   1.078   2.841  1.1225 -0.0143 -1.2877
 3200TIP3    H231236   0.853   1.207   2.819 -1.2722 -1.2322 -0.3717
 3201TIP3   OH231237   3.645   5.092   8.588  0.0713 -0.2356  0.0138
 3201TIP3    H131238   3.680   5.003   8.589 -0.0424 -0.3068 -1.0735
 3201TIP3    H231239   3.571   5.088   8.528 -0.7343  0.3119  0.9588
 3202TIP3   OH231240   2.168   6.236   1.991 -0.1121 -0.1826  0.5403
 3202TIP3    H131241   2.215   6.227   1.908  1.6772  1.2583  1.3242
 3202TIP3    H231242   2.093   6.292   1.971  0.8137  0.9204  0.0410
 3203TIP3   OH231243   6.518   5.972   7.918  0.6543 -0.1604  0.3060
 3203TIP3    H131244   6.612   5.956   7.923  0.9207  1.3306  0.8097
 3203TIP3    H231245   6.511   6.068   7.921 -0.9320 -0.2846  1.3517
 3204TIP3   OH231246   2.248   3.572   1.058  0.0555  0.0756  0.7052
 3204TIP3    H131247   2.173   3.600   1.005  1.0628 -0.1384 -0.9036
 3204TIP3    H231248   2.286   3.654   1.091  0.7842  0.4001 -0.8714
 3205TIP3   OH231249   1.226   4.501   8.659  0.1195 -0.3950 -0.6551
 3205TIP3    H131250   1.200   4.447   8.585 -0.8144 -0.1165 -0.5487
 3205TIP3    H231251   1.226   4.591   8.625  0.4940 -0.3426 -0.5250
 3206TIP3   OH231252   0.736   6.703   1.891  0.0464  0.1633  0.2187
 3206TIP3    H131253   0.673   6.775   1.886 -0.4445 -0.2959 -0.3418
 3206TIP3    H231254   0.705   6.650   1.965 -0.1635  0.0041  0.0199
 3207TIP3   OH231255   5.411   3.550   1.530 -0.4392  0.0802 -0.0002
 3207TIP3    H131256   5.327   3.545   1.484 -0.1443 -1.5743 -0.4245
 3207TIP3    H231257   5.466   3.484   1.487  0.9707  0.8988  0.4907
 3208TIP3   OH231258   2.178   6.250   0.489 -0.3168  0.6786 -0.4176
 3208TIP3    H131259   2.264   6.270   0.526 -0.0726 -1.1466  0.0706
 3208TIP3    H231260   2.142   6.336   0.466  0.9500  1.6043  0.8675
 3209TIP3   OH231261   5.342   5.900   0.990  0.4467  0.1852  0.2375
 3209TIP3    H131262   5.358   5.994   1.002  0.0589  0.2784  0.0039
 3209TIP3    H231263   5.301   5.893   0.904 -0.5250 -0.0871  0.7084
 3210TIP3   OH231264   0.164   2.393   8.287  0.7082  0.1727 -0.3349
 3210TIP3    H131265   0.185   2.466   8.346 -0.2806  0.2664 -0.0931
 3210TIP3    H231266   0.133   2.435   8.207 -0.6064  0.0209  0.0814
 3211TIP3   OH231267   0.039   4.111   0.922  0.1959  0.2974 -0.2106
 3211TIP3    H131268   0.011   4.084   1.009 -0.5668  1.7397  0.0301
 3211TIP3    H231269  -0.041   4.110   0.870  0.5053  0.2014 -0.6918
 3212TIP3   OH231270   5.666   5.888   7.701 -0.2356  0.2309  0.1694
 3212TIP3    H131271   5.607   5.856   7.770  0.6908 -1.8237  0.0880
 3212TIP3    H231272   5.752   5.856   7.727  0.3839  0.7224 -1.1822
 3213TIP3   OH231273   0.440   2.570   0.156  0.2019 -0.4376  0.6251
 3213TIP3    H131274   0.531   2.596   0.175  0.1588 -1.6086  2.7487
 3213TIP3    H231275   0.396   2.652   0.134  1.2233  0.5642  2.0855
 3214TIP3   OH231276   2.774   5.324   7.900  0.0024 -0.2639  0.0679
 3214TIP3    H131277   2.831   5.365   7.835 -0.4703  0.8757  0.3371
 3214TIP3    H231278   2.765   5.233   7.871 -1.4919  0.5660 -2.3866
 3215TIP3   OH231279   1.482   3.034   0.180  0.2350  0.2388  0.1784
 3215TIP3    H131280   1.393   3.053   0.150  0.0688 -0.6623  0.0684
 3215TIP3    H231281   1.539   3.081   0.120 -0.1750  2.3314  1.3276
 3216TIP3   OH231282   4.289   4.929   8.958  0.1265  0.0776 -0.1686
 3216TIP3    H131283   4.232   4.877   8.903 -0.8310 -1.1528  1.8752
 3216TIP3    H231284   4.241   5.011   8.971 -0.8338 -0.6164  0.8388
 3217TIP3   OH231285   1.003   4.003   2.261  0.2395 -0.0271 -0.2080
 3217TIP3    H131286   1.050   3.994   2.343 -0.8334  1.2934  0.5908
 3217TIP3    H231287   0.949   3.924   2.256 -0.8062  0.5624  1.1321
 3218TIP3   OH231288   1.084   1.867   8.352 -0.3838 -0.1658 -0.0139
 3218TIP3    H131289   1.019   1.875   8.282 -1.3931 -1.1304  0.7650
 3218TIP3    H231290   1.078   1.775   8.379  1.1008 -0.1883  0.2876
 3219TIP3   OH231291   4.397   4.425   0.929 -0.1212  0.1528  0.6089
 3219TIP3    H131292   4.412   4.349   0.984  2.0344  0.9636  1.2478
 3219TIP3    H231293   4.379   4.496   0.990 -0.3322  0.5197  0.1275
 3220TIP3   OH231294   4.310   5.304   1.344 -0.0516  0.2554  0.0814
 3220TIP3    H131295   4.298   5.386   1.392  0.8270  1.2811 -1.3895
 3220TIP3    H231296   4.395   5.313   1.301 -1.2833 -0.1096 -2.6091
 3221TIP3   OH231297   1.828   4.830   2.774  0.2087 -0.1251  0.1448
 3221TIP3    H131298   1.790   4.838   2.686  3.6197  0.9032 -1.4340
 3221TIP3    H231299   1.824   4.919   2.810 -0.7456 -0.4476  0.8529
 3222TIP3   OH231300   4.178   6.314   8.593  0.0722  0.1206  0.6376
 3222TIP3    H131301   4.192   6.404   8.622 -1.1560  0.3414  0.5877
 3222TIP3    H231302   4.099   6.318   8.539  0.5352 -0.8279 -0.1526
 3223TIP3   OH231303   0.370   0.441   0.273 -0.7611  0.1065 -0.3479
 3223TIP3    H131304   0.329   0.450   0.187  0.7500  0.1239 -1.1102
 3223TIP3    H231305   0.356   0.525   0.316 -1.8913 -0.0449 -0.4053
 3224TIP3   OH231306   4.186   3.309   3.084 -0.3272  0.6530  0.2956
 3224TIP3    H131307   4.234   3.259   3.149  0.9726 -0.0715 -1.1701
 3224TIP3    H231308   4.107   3.258   3.068 -0.9271  1.0985  1.6234
 3225TIP3   OH231309   0.669   4.951   2.275  0.1072  0.5264 -0.3986
 3225TIP3    H131310   0.580   4.917   2.267  1.2559 -2.8074 -0.4100
 3225TIP3    H231311   0.682   4.963   2.370  0.0631 -0.3043 -0.2813
 3226TIP3   OH231312   4.439   1.019   0.939  1.0118 -0.0403  0.7598
 3226TIP3    H131313   4.486   0.938   0.917 -0.4720 -0.9630  0.8197
 3226TIP3    H231314   4.350   1.004   0.907  0.5912  1.4021  1.1850
 3227TIP3   OH231315   0.585   2.283   3.115 -0.5427  0.3611  0.2628
 3227TIP3    H131316   0.581   2.348   3.044  0.0009  2.5594  2.1017
 3227TIP3    H231317   0.539   2.207   3.081 -1.4025  1.7766 -1.9736
 3228TIP3   OH231318   5.059   1.878   0.830  0.1547 -0.3624 -0.2995
 3228TIP3    H131319   5.082   1.822   0.904 -1.0383  1.3244  1.4033
 3228TIP3    H231320   4.971   1.849   0.804 -0.1398  0.1917  0.0738
 3229TIP3   OH231321   4.188   1.167   1.774  0.3320  0.1128 -0.5400
 3229TIP3    H131322   4.170   1.074   1.767 -2.9626  0.6454 -0.7180
 3229TIP3    H231323   4.282   1.172   1.794  0.2283 -3.2778  1.6227
 3230TIP3   OH231324   2.171   2.864   1.650 -0.2306  0.3959  0.6556
 3230TIP3    H131325   2.175   2.846   1.556  0.9184 -2.0378  1.0724
 3230TIP3    H231326   2.260   2.847   1.681 -0.5865  1.1769  2.1854
 3231TIP3   OH231327   2.645   5.749   2.639  0.2615  0.0396 -0.7387
 3231TIP3    H131328   2.614   5.813   2.575 -0.3896  0.0242 -0.4438
 3231TIP3    H231329   2.594   5.670   2.621 -0.7585  0.3841  0.5468
 3232TIP3   OH231330   6.234   3.692   1.298 -0.1842 -0.0458  0.2832
 3232TIP3    H131331   6.284   3.676   1.378 -1.1787 -0.7054  0.8035
 3232TIP3    H231332   6.202   3.605   1.272 -1.7272  0.4373  0.4467
 3233TIP3   OH231333   3.547   1.804   1.139  0.1606 -0.5945 -0.2768
 3233TIP3    H131334   3.619   1.858   1.172 -0.4196  0.3071 -0.4479
 3233TIP3    H231335   3.492   1.865   1.090 -0.2335 -1.4537 -0.9297
 3234TIP3   OH231336   3.448   4.750   0.058 -0.4191  0.7318 -0.5441
 3234TIP3    H131337   3.361   4.739   0.018 -0.3415  1.5521 -0.9496
 3234TIP3    H231338   3.431   4.796   0.140 -0.3209  1.3014 -0.8430
 3235TIP3   OH231339   1.163   0.134   2.350 -0.1182  0.1523 -0.1561
 3235TIP3    H131340   1.181   0.176   2.266  0.3317  0.2434 -0.0160
 3235TIP3    H231341   1.242   0.149   2.402 -0.8801  1.2358  0.7438
 3236TIP3   OH231342   5.512   5.296   0.750  0.0111 -0.6107 -0.7403
 3236TIP3    H131343   5.426   5.333   0.729  0.3356 -0.0692 -1.1351
 3236TIP3    H231344   5.499   5.254   0.835  0.2237  2.6598  1.0900
 3237TIP3   OH231345   4.923   0.937   0.060 -0.4121 -0.3203 -0.3530
 3237TIP3    H131346   4.920   0.908   0.151  0.4434  0.6307  0.0017
 3237TIP3    H231347   4.859   1.007   0.054 -0.2827 -0.2059 -0.4165
 3238TIP3   OH231348   0.741   4.541   0.214 -0.2552  0.5901  0.5657
 3238TIP3    H131349   0.772   4.500   0.295  0.0941 -0.4068 -0.0479
 3238TIP3    H231350   0.800   4.507   0.146 -2.7022 -1.4832 -0.6865
 3239TIP3   OH231351   4.365   0.341   0.431  0.4702  1.1974  0.3986
 3239TIP3    H131352   4.302   0.304   0.492 -0.0739  0.3162 -0.6719
 3239TIP3    H231353   4.346   0.435   0.429  0.6033  1.2608  1.6851
 3240TIP3   OH231354   1.771   6.104   0.848 -0.0466  0.3866  0.6983
 3240TIP3    H131355   1.844   6.161   0.823 -0.5824  0.8308  0.1393
 3240TIP3    H231356   1.773   6.033   0.783  0.4323 -0.0894  1.2153
 3241TIP3   OH231357   0.210   0.452   1.708  0.3742 -0.0752  0.0762
 3241TIP3    H131358   0.268   0.383   1.673 -0.7055 -0.5821 -0.7771
 3241TIP3    H231359   0.243   0.532   1.667  0.1616 -0.4339 -0.8357
 3242TIP3   OH231360   3.083   1.249   0.553 -0.2373 -0.1809  0.7555
 3242TIP3    H131361   3.049   1.338   0.562  2.4858  0.9775  0.5023
 3242TIP3    H231362   3.165   1.259   0.506 -0.4628 -3.0206 -0.4603
 3243TIP3   OH231363   0.725   6.556   8.722  0.0713 -0.3924 -0.5810
 3243TIP3    H131364   0.762   6.571   8.810  1.3848  1.5279 -1.4000
 3243TIP3    H231365   0.654   6.619   8.715 -0.0114 -0.5230 -0.9087
 3244TIP3   OH231366   3.763   2.515   2.142  0.4977  0.1590  0.8033
 3244TIP3    H131367   3.803   2.493   2.058 -1.5821 -1.5177  0.1713
 3244TIP3    H231368   3.813   2.591   2.173  2.7220 -0.5107 -0.8846
 3245TIP3   OH231369   1.187   2.281   2.389 -0.0585 -0.6480  0.5312
 3245TIP3    H131370   1.271   2.300   2.431 -0.1587 -1.5131  1.1489
 3245TIP3    H231371   1.125   2.343   2.429  0.2638 -0.0442  0.1122
 3246TIP3   OH231372   5.545   5.590   0.146 -0.3301 -0.0530  0.1726
 3246TIP3    H131373   5.482   5.661   0.148 -0.5125 -0.1401 -1.0973
 3246TIP3    H231374   5.561   5.576   0.052  0.6240 -0.8610  0.4415
 3247TIP3   OH231375   3.219   1.195   1.334 -0.0171  0.5203  0.2858
 3247TIP3    H131376   3.275   1.119   1.319  1.3208  1.2851  1.2833
 3247TIP3    H231377   3.267   1.269   1.297 -1.3783  0.9126 -0.8266
 3248TIP3   OH231378   4.942   0.193   8.164 -0.3238 -0.3043 -0.5800
 3248TIP3    H131379   4.903   0.206   8.077  0.3202  1.2552 -0.6805
 3248TIP3    H231380   4.888   0.246   8.223 -0.2235 -0.6340 -0.1893
 3249TIP3   OH231381   1.588   1.322   1.108 -0.4334  0.6823  0.1081
 3249TIP3    H131382   1.628   1.238   1.129 -1.6234  0.3493  1.1463
 3249TIP3    H231383   1.523   1.302   1.040 -2.1264  0.3580  1.7364
 3250TIP3   OH231384   1.935   3.287   2.230 -0.0612 -0.1766 -0.1734
 3250TIP3    H131385   1.955   3.258   2.318  0.5164  0.2133 -0.1742
 3250TIP3    H231386   1.853   3.335   2.238 -0.0681 -0.2411  0.1252
 3251TIP3   OH231387   3.856   3.601   1.215 -0.4104 -0.0829  0.3217
 3251TIP3    H131388   3.837   3.694   1.224  0.5595  0.3630 -1.6365
 3251TIP3    H231389   3.925   3.584   1.279 -0.3338  0.6253  0.4326
 3252TIP3   OH231390   3.484   1.857   2.842  0.1420  0.4103 -0.0258
 3252TIP3    H131391   3.494   1.810   2.925  1.6001  1.4809  0.4510
 3252TIP3    H231392   3.528   1.800   2.778  1.5008  0.8530  0.4691
 3253TIP3   OH231393   5.510   5.728   3.031  0.4511 -0.0545 -0.9553
 3253TIP3    H131394   5.419   5.708   3.054  0.3271  0.9900 -0.4695
 3253TIP3    H231395   5.507   5.816   2.996  1.3790  0.2905 -0.2253
 3254TIP3   OH231396   5.176   4.041   0.399  0.2911 -0.0758  0.1160
 3254TIP3    H131397   5.084   4.041   0.376  0.6348  1.9019 -1.4880
 3254TIP3    H231398   5.180   4.087   0.483 -0.1191  0.5008 -0.1751
 3255TIP3   OH231399   4.665   6.442   1.040 -0.1180 -0.1459 -0.1537
 3255TIP3    H131400   4.590   6.468   0.987 -0.7722 -0.3917  0.6361
 3255TIP3    H231401   4.635   6.448   1.130  0.8608 -0.1085  0.1893
 3256TIP3   OH231402   5.534   2.591   9.053  0.3000 -0.2947  0.1450
 3256TIP3    H131403   5.479   2.625   9.123  1.9514  2.9927  0.0443
 3256TIP3    H231404   5.584   2.520   9.093 -2.3088 -1.8617  0.8152
 3257TIP3   OH231405   1.665   3.121   2.889 -0.2791 -0.2572 -0.2012
 3257TIP3    H131406   1.728   3.193   2.895 -0.4646 -0.1436  0.5965
 3257TIP3    H231407   1.585   3.157   2.929 -0.5765 -0.6866 -0.4046
 3258TIP3   OH231408   6.712   2.840   1.991  0.1520  0.1297  0.8218
 3258TIP3    H131409   6.726   2.903   1.920 -0.6175 -0.6067 -0.0109
 3258TIP3    H231410   6.781   2.775   1.978 -0.9504 -0.8697 -0.2735
 3259TIP3   OH231411   0.844   3.638   0.835 -0.1337  0.1704 -0.1581
 3259TIP3    H131412   0.921   3.588   0.809 -0.0511  0.3237 -0.2054
 3259TIP3    H231413   0.845   3.635   0.931 -0.3506 -0.2569 -0.1653
 3260TIP3   OH231414   0.977   5.150   0.925 -0.4973 -0.0215 -0.0428
 3260TIP3    H131415   0.993   5.241   0.903  1.2557  0.0155  1.2399
 3260TIP3    H231416   0.989   5.145   1.019 -0.3908 -1.6103 -0.1100
 3261TIP3   OH231417   1.018   4.843   8.639  0.4436 -0.4467  0.3555
 3261TIP3    H131418   1.048   4.774   8.580 -1.1783 -0.4788 -0.4869
 3261TIP3    H231419   1.069   4.920   8.613 -0.3831 -0.4044 -1.2570
 3262TIP3   OH231420   4.723   6.207   0.921  0.5518 -0.0816  0.5190
 3262TIP3    H131421   4.716   6.294   0.961 -0.9736  0.1320 -0.1267
 3262TIP3    H231422   4.810   6.206   0.882  0.1265  1.7156 -0.6231
 3263TIP3   OH231423   6.618   3.043   3.095  0.0235  0.0397  0.0916
 3263TIP3    H131424   6.548   3.065   3.156  0.7249 -0.4565  1.0983
 3263TIP3    H231425   6.609   2.949   3.080  1.8330 -0.5268  2.0666
 3264TIP3   OH231426   4.955   5.945   1.584  0.3909 -0.1755  0.3332
 3264TIP3    H131427   4.876   5.960   1.532 -0.3352  0.0480  1.4588
 3264TIP3    H231428   5.027   5.949   1.521 -0.5033 -0.5497 -0.7451
 3265TIP3   OH231429   0.153   5.402   2.174 -0.1945 -0.7629  0.0753
 3265TIP3    H131430   0.159   5.490   2.138  1.1750 -0.6817  0.4481
 3265TIP3    H231431   0.070   5.368   2.141 -1.1790  0.9842  0.6681
 3266TIP3   OH231432   0.042   0.297   0.488 -0.0382 -0.3921 -0.4071
 3266TIP3    H131433   0.046   0.214   0.536  0.8826 -0.2803 -0.2773
 3266TIP3    H231434   0.117   0.347   0.520  0.5514 -0.2738 -1.8924
 3267TIP3   OH231435   6.723   3.833   0.787  0.0853 -0.0644 -0.1282
 3267TIP3    H131436   6.725   3.783   0.868 -0.7171  0.4148  0.1933
 3267TIP3    H231437   6.673   3.912   0.808 -0.0042  0.1374 -1.0487
 3268TIP3   OH231438   0.737   1.507   1.489  0.0930 -0.5010 -0.3639
 3268TIP3    H131439   0.768   1.587   1.446 -2.0868 -0.8451 -2.8913
 3268TIP3    H231440   0.817   1.463   1.519  1.5272  1.3883 -1.1880
 3269TIP3   OH231441   1.928   0.217   0.506  0.0074  0.2209 -0.3559
 3269TIP3    H131442   1.881   0.137   0.484 -0.1319  0.2139 -0.0392
 3269TIP3    H231443   2.015   0.188   0.535  0.3137  0.2513 -1.2127
 3270TIP3   OH231444   5.575   3.684   0.640 -0.5285 -0.1072 -0.4626
 3270TIP3    H131445   5.536   3.687   0.552 -1.1997  1.4212 -0.1572
 3270TIP3    H231446   5.669   3.695   0.625 -0.4810 -1.2662 -1.0639
 3271TIP3   OH231447   2.205   5.330   3.434  0.0290 -0.1873 -0.4192
 3271TIP3    H131448   2.194   5.235   3.431 -0.3264 -0.2316  1.2645
 3271TIP3    H231449   2.262   5.350   3.360 -0.4603 -1.6204 -1.2147
 3272TIP3   OH231450   2.086   4.142   8.756  0.0945 -0.1253 -0.3104
 3272TIP3    H131451   2.117   4.184   8.836 -2.0980  0.1916  0.4407
 3272TIP3    H231452   2.074   4.214   8.694  1.0941 -0.2816 -0.6951
 3273TIP3   OH231453   1.571   2.971   1.815  0.5519  0.3936 -0.1359
 3273TIP3    H131454   1.570   3.046   1.756  0.2458  0.8574  0.4490
 3273TIP3    H231455   1.534   3.003   1.896  0.9079 -0.2516  0.2992
 3274TIP3   OH231456   4.966   6.340   8.295  0.0847  0.1618  0.2116
 3274TIP3    H131457   4.955   6.339   8.200  0.1625 -1.9425  0.1827
 3274TIP3    H231458   4.904   6.275   8.328  2.6728 -2.0000  1.2239
 3275TIP3   OH231459   5.261   0.937   1.209  0.2111  0.4691 -0.5401
 3275TIP3    H131460   5.199   0.891   1.152 -0.4029  0.1274  0.3964
 3275TIP3    H231461   5.258   0.889   1.292  0.4732  1.4783  0.0637
 3276TIP3   OH231462   4.244   3.105   1.684  0.2574  0.1221 -0.2642
 3276TIP3    H131463   4.287   3.122   1.768 -0.0889 -1.5257  0.2655
 3276TIP3    H231464   4.255   3.187   1.635  1.0846  0.8645  1.1064
 3277TIP3   OH231465   3.364   6.700   2.622 -0.3848  0.4210 -0.7320
 3277TIP3    H131466   3.349   6.794   2.608  1.0058  0.7429 -0.2967
 3277TIP3    H231467   3.352   6.688   2.716 -0.7313  0.1188 -0.8129
 3278TIP3   OH231468   2.088   6.124   8.761 -1.0307  0.1433  0.0159
 3278TIP3    H131469   1.996   6.119   8.736 -0.9210  1.0590 -0.6046
 3278TIP3    H231470   2.134   6.150   8.681 -0.0302 -1.7204 -0.0583
 3279TIP3   OH231471   5.395   2.557   3.215 -0.6791  0.4231  0.3614
 3279TIP3    H131472   5.355   2.507   3.144  0.9250  0.6153 -0.7280
 3279TIP3    H231473   5.334   2.547   3.288 -0.9262 -2.3130 -0.0930
 3280TIP3   OH231474   6.281   5.041   1.431 -0.4701 -0.2531  0.7474
 3280TIP3    H131475   6.373   5.013   1.436 -0.3302 -0.0996 -0.6735
 3280TIP3    H231476   6.273   5.081   1.345 -2.0000 -0.6812  0.6709
 3281TIP3   OH231477   0.947   4.771   7.515 -0.8181 -1.2792 -0.1211
 3281TIP3    H131478   0.876   4.718   7.551 -0.1659  0.3404  4.1475
 3281TIP3    H231479   0.922   4.861   7.533  1.1252 -0.5105 -0.9707
 3282TIP3   OH231480   5.492   5.204   2.430  0.3369 -0.0060 -0.1628
 3282TIP3    H131481   5.466   5.114   2.450  0.7032  0.1732  1.2179
 3282TIP3    H231482   5.454   5.221   2.343 -1.7325 -0.7007  0.5363
 3283TIP3   OH231483   3.704   3.356   8.815  0.4105  0.5846 -0.2259
 3283TIP3    H131484   3.684   3.333   8.724  0.2017 -1.1172  0.2251
 3283TIP3    H231485   3.620   3.349   8.861  0.9083 -0.7469  0.5176
 3284TIP3   OH231486   3.628   3.351   1.179  0.1334 -0.0627 -0.8496
 3284TIP3    H131487   3.708   3.369   1.129  0.0142 -0.2648 -1.1200
 3284TIP3    H231488   3.587   3.436   1.190  0.6000  0.1014 -0.3359
 3285TIP3   OH231489   1.540   3.310   3.773 -0.4185 -0.6427 -0.7308
 3285TIP3    H131490   1.611   3.282   3.830 -1.8492  0.7352  1.8958
 3285TIP3    H231491   1.554   3.403   3.761  0.8979 -1.1457 -4.3694
 3286TIP3   OH231492   3.227   5.435   8.065  0.3611  0.1389  0.5153
 3286TIP3    H131493   3.262   5.353   8.028  0.0520  0.8714 -1.5444
 3286TIP3    H231494   3.296   5.466   8.124  0.5890 -1.4680  1.1466
 3287TIP3   OH231495   1.429   0.132   0.199  0.2094 -0.3091 -0.3688
 3287TIP3    H131496   1.379   0.213   0.212  1.0793  0.3089 -0.8113
 3287TIP3    H231497   1.364   0.069   0.167 -0.5880  0.0428  0.5070
 3288TIP3   OH231498   3.048   0.204   8.875  0.5273 -0.1354  0.5810
 3288TIP3    H131499   3.081   0.278   8.824 -0.9887 -1.3486 -2.3901
 3288TIP3    H231500   3.029   0.136   8.810 -1.5351 -1.8450  2.7897
 3289TIP3   OH231501   5.802   6.144   2.664 -0.0909  0.4271  0.1756
 3289TIP3    H131502   5.814   6.086   2.588 -0.4277  1.8301 -0.9887
 3289TIP3    H231503   5.890   6.178   2.682 -0.2432  1.2646 -0.5811
 3290TIP3   OH231504   1.940   5.237   0.235 -0.3378 -0.1265  0.0999
 3290TIP3    H131505   1.937   5.225   0.330 -2.4303 -1.8889 -0.1084
 3290TIP3    H231506   1.907   5.326   0.221 -1.6450 -0.4436  0.9859
 3291TIP3   OH231507   3.233   0.526   1.832 -0.0479  0.1836 -0.4460
 3291TIP3    H131508   3.138   0.520   1.818  0.1391 -0.3292 -1.5737
 3291TIP3    H231509   3.271   0.482   1.756  1.1582  2.7487 -1.4403
 3292TIP3   OH231510   1.813   2.397   1.396 -0.5359  0.4780  0.3343
 3292TIP3    H131511   1.723   2.365   1.400 -0.5937  0.4717 -0.7450
 3292TIP3    H231512   1.867   2.318   1.389 -0.4512  0.4891  0.8194
 3293TIP3   OH231513   6.494   0.497   2.446 -0.4398 -0.3260  0.0616
 3293TIP3    H131514   6.425   0.476   2.384 -1.1213 -0.2001  0.7669
 3293TIP3    H231515   6.537   0.573   2.408 -1.0848 -0.0237 -0.0786
 3294TIP3   OH231516   5.673   5.111   2.137  0.4750 -0.8004  0.2656
 3294TIP3    H131517   5.673   5.082   2.228  0.6479 -0.3782  0.4039
 3294TIP3    H231518   5.756   5.080   2.102  0.3840 -1.0119  0.2342
 3295TIP3   OH231519   1.943   1.932   0.110 -0.0470 -0.0566  0.1205
 3295TIP3    H131520   1.941   1.878   0.189 -1.1222  0.0952  0.2042
 3295TIP3    H231521   1.855   1.968   0.103  0.1075  0.1227 -1.0261
 3296TIP3   OH231522   3.080   6.196   2.682  0.1711 -0.3828 -0.2244
 3296TIP3    H131523   3.034   6.123   2.640 -0.9072 -0.1946  0.5715
 3296TIP3    H231524   3.020   6.226   2.750  0.8653  0.8492 -0.1199
 3297TIP3   OH231525   3.636   2.179   1.285  0.1733 -0.7474 -0.6819
 3297TIP3    H131526   3.717   2.228   1.285 -0.8746  1.2600  2.4553
 3297TIP3    H231527   3.590   2.208   1.205  0.7939  1.2828 -0.3560
 3298TIP3   OH231528   3.779   0.578   0.895 -0.6941  0.3454 -0.3352
 3298TIP3    H131529   3.793   0.510   0.829  3.3520 -1.0424  1.5595
 3298TIP3    H231530   3.815   0.657   0.857  2.0992 -0.5606  0.1626
 3299TIP3   OH231531   6.006   5.527   8.211 -0.2046  0.0026 -0.3226
 3299TIP3    H131532   6.070   5.549   8.279  0.3553  2.7182 -1.5971
 3299TIP3    H231533   6.058   5.498   8.137 -0.6496 -0.5485 -0.4229
 3300TIP3   OH231534   2.002   1.661   2.184  0.1747  0.1096 -0.0136
 3300TIP3    H131535   1.969   1.600   2.117 -2.7368 -0.0825  1.4430
 3300TIP3    H231536   2.093   1.676   2.160  0.2427 -2.7189 -1.9773
 3301TIP3   OH231537   4.477   4.008   1.132  0.5562  0.4293  0.1004
 3301TIP3    H131538   4.555   3.957   1.108  0.1042 -0.5330  0.6043
 3301TIP3    H231539   4.503   4.056   1.210  1.3936  2.0103 -1.0974
 3302TIP3   OH231540   4.495   5.256   2.579  0.0054 -0.1905  0.2118
 3302TIP3    H131541   4.510   5.161   2.569  0.1173  0.0201 -2.1385
 3302TIP3    H231542   4.580   5.290   2.606  0.0912 -0.6921  0.6022
 3303TIP3   OH231543   5.376   5.901   0.154  0.1092  0.3092  0.0478
 3303TIP3    H131544   5.310   5.957   0.195  1.2653  1.1183  0.8679
 3303TIP3    H231545   5.350   5.812   0.179 -0.6971  0.6087  0.3142
 3304TIP3   OH231546   4.678   2.479   8.678 -0.4587  0.0564  0.2291
 3304TIP3    H131547   4.666   2.431   8.760 -0.6306  0.8625  0.6801
 3304TIP3    H231548   4.768   2.459   8.651 -1.0467 -1.8854 -0.4880
 3305TIP3   OH231549   0.867   1.816   0.909  0.2428  0.0372 -0.0153
 3305TIP3    H131550   0.875   1.809   0.814 -0.7117  0.6130 -0.1584
 3305TIP3    H231551   0.917   1.742   0.943 -0.0723 -0.6481 -0.9945
 3306TIP3   OH231552   4.807   1.124   1.448  0.1043  0.0057  0.5234
 3306TIP3    H131553   4.712   1.124   1.445  0.1197  0.5898 -0.2298
 3306TIP3    H231554   4.831   1.031   1.452 -0.4701 -0.2065 -0.5413
 3307TIP3   OH231555   3.595   1.833   7.949  0.0362 -0.1067 -1.3236
 3307TIP3    H131556   3.592   1.738   7.962  0.5972 -0.3918 -2.9775
 3307TIP3    H231557   3.504   1.861   7.960 -0.6356 -1.2644 -3.3831
 3308TIP3   OH231558   3.390   4.794   8.774 -0.6494  0.2617  0.4622
 3308TIP3    H131559   3.483   4.773   8.782 -0.3715  0.7583 -1.1094
 3308TIP3    H231560   3.376   4.863   8.839  0.3149  0.8333  0.0963
 3309TIP3   OH231561   5.019   2.575   2.837  0.3635  0.8382 -0.1400
 3309TIP3    H131562   5.046   2.662   2.866 -0.0845  1.0237 -0.2784
 3309TIP3    H231563   4.978   2.589   2.752 -0.7507  0.6548  0.3445
 3310TIP3   OH231564   1.110   1.330   8.297 -0.6713  0.0278  0.0445
 3310TIP3    H131565   1.079   1.316   8.208 -0.1146 -2.7528  0.2016
 3310TIP3    H231566   1.052   1.277   8.351 -1.5347  2.3129  1.5179
 3311TIP3   OH231567   6.301   4.227   1.498 -0.3154  0.0355 -0.3633
 3311TIP3    H131568   6.365   4.185   1.556 -0.0187 -1.2702 -1.5656
 3311TIP3    H231569   6.341   4.310   1.474 -0.6201  0.7989  1.5722
 3312TIP3   OH231570   3.399   5.033   8.487 -0.5122  0.5640 -0.0235
 3312TIP3    H131571   3.347   4.964   8.528  0.3515  0.4981  0.9977
 3312TIP3    H231572   3.334   5.098   8.459 -1.2707 -0.3144 -0.3410
 3313TIP3   OH231573   0.884   3.142   1.865  0.0404  0.0977  0.6136
 3313TIP3    H131574   0.938   3.085   1.921 -0.2160 -1.3458 -0.5493
 3313TIP3    H231575   0.945   3.174   1.798 -0.4065 -1.1894 -0.4488
 3314TIP3   OH231576   0.652   4.238   2.177 -0.2438  0.2554  0.2125
 3314TIP3    H131577   0.567   4.248   2.136 -0.6964  0.0918  1.0746
 3314TIP3    H231578   0.648   4.293   2.256  1.3182  2.1910 -0.9539
 3315TIP3   OH231579   4.018   3.908   1.202  0.1601 -0.0363 -0.1537
 3315TIP3    H131580   4.109   3.915   1.174  0.0313 -0.7221 -0.7578
 3315TIP3    H231581   3.967   3.909   1.121 -0.2182 -1.9183  0.0141
 3316TIP3   OH231582   1.200   2.512   1.698  0.3974  0.3765  0.6500
 3316TIP3    H131583   1.195   2.431   1.749  0.0085  0.3865  0.6295
 3316TIP3    H231584   1.250   2.572   1.753  1.1666 -0.0494  0.4329
 3317TIP3   OH231585   2.169   4.765   0.162  0.4837  0.6192  0.0740
 3317TIP3    H131586   2.163   4.818   0.242  1.6667 -0.2090  0.7302
 3317TIP3    H231587   2.188   4.829   0.093  0.5786  1.2096  0.6319
 3318TIP3   OH231588   0.571   1.597   2.959 -0.1194  0.3570 -0.3161
 3318TIP3    H131589   0.495   1.546   2.985  0.1904 -0.6006 -1.2230
 3318TIP3    H231590   0.536   1.683   2.936 -0.7989  0.2020  0.1273
 3319TIP3   OH231591   2.072   5.074   1.289 -0.2530 -0.3272 -0.0077
 3319TIP3    H131592   2.057   4.984   1.319 -3.1679 -0.1221 -0.5422
 3319TIP3    H231593   2.093   5.123   1.368  3.6736 -1.7305  0.0620
 3320TIP3   OH231594   1.419   4.562   8.829  0.4625  0.2245 -0.5693
 3320TIP3    H131595   1.331   4.551   8.795 -0.0496  0.3363  0.6662
 3320TIP3    H231596   1.427   4.495   8.897  0.8353  1.0996  0.2716
 3321TIP3   OH231597   3.016   4.983   1.097 -0.1401 -0.5756 -0.2873
 3321TIP3    H131598   2.982   5.032   1.022  1.2787  2.3689  0.8648
 3321TIP3    H231599   2.967   5.017   1.172  1.8703  0.2065  0.7379
 3322TIP3   OH231600   3.930   4.098   2.834  0.0467  0.0350 -0.0066
 3322TIP3    H131601   3.923   4.174   2.776 -1.9641 -0.0972 -0.0385
 3322TIP3    H231602   3.865   4.115   2.903  2.4254  0.2221  2.3300
 3323TIP3   OH231603   6.215   6.604   8.007  0.0530  0.2877 -0.6751
 3323TIP3    H131604   6.278   6.554   7.954  0.7062 -0.8421  1.1087
 3323TIP3    H231605   6.140   6.546   8.016  0.6489 -0.2700  1.0601
 3324TIP3   OH231606   0.709   2.356   1.136 -0.0215  0.2294 -0.1347
 3324TIP3    H131607   0.772   2.426   1.120 -1.4231  1.2691 -1.4485
 3324TIP3    H231608   0.704   2.349   1.231  0.5495  1.5511  0.0166
 3325TIP3   OH231609   2.924   4.297   3.312  0.7418  0.0048  0.1616
 3325TIP3    H131610   2.923   4.214   3.263  0.3180  1.0138 -1.6052
 3325TIP3    H231611   2.839   4.299   3.357  0.0890  0.1517 -1.0259
 3326TIP3   OH231612   1.687   3.184   0.053  0.7184  0.1954  0.1426
 3326TIP3    H131613   1.697   3.227   0.138  0.5010  0.6281 -0.0488
 3326TIP3    H231614   1.702   3.254  -0.011 -0.3643  0.1596 -0.1695
 3327TIP3   OH231615   4.395   3.431   8.047  0.2141 -0.4674 -0.2842
 3327TIP3    H131616   4.365   3.517   8.078 -2.0399 -0.4735 -2.0845
 3327TIP3    H231617   4.410   3.445   7.953  3.5823 -1.1850  0.0505
 3328TIP3   OH231618   2.371   4.621   8.000 -0.2061  0.1147  0.2284
 3328TIP3    H131619   2.465   4.608   7.991 -0.3120 -0.7419  0.2714
 3328TIP3    H231620   2.343   4.658   7.917  0.1760  0.4350  0.2428
 3329TIP3   OH231621   2.254   6.390   0.221 -0.2435  0.3598  0.2017
 3329TIP3    H131622   2.286   6.320   0.279 -0.6340 -0.2267 -0.2893
 3329TIP3    H231623   2.308   6.466   0.244  0.0791 -0.0560  0.8489
 3330TIP3   OH231624   5.650   0.673   1.522  0.7023  0.0136  0.0266
 3330TIP3    H131625   5.680   0.592   1.562  1.2716  0.2195  0.0250
 3330TIP3    H231626   5.620   0.648   1.435  1.2049 -0.1428 -0.1047
 3331TIP3   OH231627   0.558   0.090   7.625  0.1554  0.3890  0.7475
 3331TIP3    H131628   0.615   0.148   7.575 -1.3707  1.2567 -0.0529
 3331TIP3    H231629   0.580   0.002   7.594  1.8302  0.5896  1.2921
 3332TIP3   OH231630   6.676   3.260   8.204 -0.2572  0.1808  0.3179
 3332TIP3    H131631   6.666   3.184   8.261 -1.1114 -0.0591 -0.1450
 3332TIP3    H231632   6.589   3.300   8.202 -0.3215 -0.0019 -1.0763
 3333TIP3   OH231633   0.597   3.676   7.796 -0.9504  0.5961  0.0709
 3333TIP3    H131634   0.675   3.726   7.773 -1.0375 -0.1294 -2.0561
 3333TIP3    H231635   0.570   3.710   7.881 -0.1641  3.1114 -0.6133
 3334TIP3   OH231636   6.480   0.689   1.990  0.2756  0.0025 -0.2892
 3334TIP3    H131637   6.503   0.662   2.078 -1.6342 -1.2425 -0.0978
 3334TIP3    H231638   6.553   0.660   1.935  1.1798  0.2179  0.7854
 3335TIP3   OH231639   2.583   2.861   2.608 -0.4527  0.1624  0.1350
 3335TIP3    H131640   2.593   2.772   2.642 -0.6779  0.2590  0.4608
 3335TIP3    H231641   2.533   2.907   2.676 -0.6193  0.4486 -0.1792
 3336TIP3   OH231642   3.997   5.299   1.175 -0.4294  0.6000  0.5391
 3336TIP3    H131643   3.993   5.207   1.201  2.4718 -0.1564 -1.2658
 3336TIP3    H231644   3.977   5.299   1.082  0.6754  1.6002  0.2707
 3337TIP3   OH231645   2.524   1.687   0.096 -0.2385  0.3243  0.7076
 3337TIP3    H131646   2.485   1.601   0.113  1.6222 -0.3108  2.2010
 3337TIP3    H231647   2.514   1.734   0.179  0.0791  0.9783  0.3790
 3338TIP3   OH231648   5.019   1.549   0.777 -0.1444  0.1433  0.0229
 3338TIP3    H131649   5.098   1.549   0.831 -1.4583  1.3866  2.1065
 3338TIP3    H231650   4.994   1.457   0.770 -0.1290 -0.0478  1.9169
 3339TIP3   OH231651   6.414   5.940   8.297  0.2234 -0.0053  0.1510
 3339TIP3    H131652   6.479   5.987   8.349  0.6207  0.8960 -1.1190
 3339TIP3    H231653   6.343   6.003   8.285 -0.6013 -0.7583  0.9609
 3340TIP3   OH231654   6.660   5.415   0.646 -0.0780  0.1918 -0.1054
 3340TIP3    H131655   6.663   5.421   0.741 -0.7845 -1.0521  0.0138
 3340TIP3    H231656   6.684   5.324   0.627  0.3372  0.5058 -1.1271
 3341TIP3   OH231657   2.198   5.391   0.314 -0.0558  0.1799  0.1968
 3341TIP3    H131658   2.179   5.353   0.400  1.3732 -1.8744 -0.3038
 3341TIP3    H231659   2.137   5.349   0.254  1.4345 -1.3716 -0.3387
 3342TIP3   OH231660   2.111   3.097   2.080  0.3131  0.0791  0.1066
 3342TIP3    H131661   2.032   3.143   2.111  0.1926 -0.2275  0.2612
 3342TIP3    H231662   2.100   3.092   1.985  1.1379  1.8704 -0.1289
 3343TIP3   OH231663   1.469   2.742   0.073  0.1840  0.3834 -0.6222
 3343TIP3    H131664   1.453   2.828   0.111  1.1509  1.0350 -1.6401
 3343TIP3    H231665   1.399   2.687   0.108  0.3353  1.2321  1.1219
 3344TIP3   OH231666   6.605   4.324   8.821 -0.1606  0.4256 -0.1861
 3344TIP3    H131667   6.676   4.260   8.824  0.0962  0.7378  1.1078
 3344TIP3    H231668   6.620   4.380   8.897 -0.7737  1.6109 -0.9048
 3345TIP3   OH231669   3.943   6.516   7.624 -0.1818 -0.8023 -0.3799
 3345TIP3    H131670   3.999   6.510   7.701 -0.1275 -1.4385 -0.4698
 3345TIP3    H231671   3.998   6.557   7.557  0.3440 -1.8852 -0.6235
 3346TIP3   OH231672   4.241   4.706   2.693 -0.2623  0.8879 -0.5727
 3346TIP3    H131673   4.290   4.663   2.623 -1.7995 -0.2327 -1.0157
 3346TIP3    H231674   4.308   4.733   2.756  1.0123  0.4989 -1.7101
 3347TIP3   OH231675   6.504   4.463   1.353  0.4938  0.1253  0.1341
 3347TIP3    H131676   6.545   4.394   1.300  1.7780  0.3037  0.8337
 3347TIP3    H231677   6.544   4.544   1.321  0.9274  0.2783  1.0350
 3348TIP3   OH231678   1.479   2.904   2.664 -0.4187 -0.0867 -0.2298
 3348TIP3    H131679   1.537   2.977   2.686 -1.0735  0.0931  0.9661
 3348TIP3    H231680   1.397   2.925   2.708 -0.3921 -1.8917  0.7635
 3349TIP3   OH231681   4.618   2.605   8.197  0.7564  0.1206 -0.3811
 3349TIP3    H131682   4.703   2.560   8.203  2.1260  2.6978  1.5617
 3349TIP3    H231683   4.603   2.639   8.285 -1.9480  0.4696 -0.8917
 3350TIP3   OH231684   3.491   0.153   9.008 -1.0864  0.0791  0.2482
 3350TIP3    H131685   3.536   0.232   8.976 -2.2337  1.0169  0.8730
 3350TIP3    H231686   3.405   0.184   9.035 -1.3768 -1.3158  0.9928
 3351TIP3   OH231687   0.123   4.407   3.026  0.4447  0.3673  0.3070
 3351TIP3    H131688   0.200   4.448   3.066 -0.3910  2.0509  0.2956
 3351TIP3    H231689   0.088   4.475   2.968 -1.2585 -0.2307  0.5943
 3352TIP3   OH231690   3.194   1.596   3.531  0.3231 -0.0651 -0.3772
 3352TIP3    H131691   3.115   1.568   3.578  0.0382  1.5977  0.1831
 3352TIP3    H231692   3.231   1.514   3.497 -1.4947 -0.9106 -0.4511
 3353TIP3   OH231693   3.717   3.064   2.945 -0.2408  0.2466 -0.6665
 3353TIP3    H131694   3.633   3.033   2.976  0.7191  0.9990  3.2242
 3353TIP3    H231695   3.701   3.155   2.918 -0.4507  1.0203  1.8224
 3354TIP3   OH231696   0.612   0.093   3.115  0.1192  0.4630 -0.8536
 3354TIP3    H131697   0.615   0.119   3.207  2.7791 -1.1442 -0.3722
 3354TIP3    H231698   0.627   0.175   3.067 -1.1560  1.2986  0.0942
 3355TIP3   OH231699   1.362   3.118   8.310  0.2031  0.1114  0.0919
 3355TIP3    H131700   1.283   3.168   8.332 -0.3414 -0.0447 -1.3912
 3355TIP3    H231701   1.339   3.072   8.229  1.3669 -1.0071  0.3719
 3356TIP3   OH231702   1.371   4.838   8.762 -0.1985 -0.0566  0.0247
 3356TIP3    H131703   1.334   4.797   8.684  0.1047  1.2602 -0.8486
 3356TIP3    H231704   1.384   4.766   8.824 -1.9762 -0.8875 -0.5146
 3357TIP3   OH231705   4.150   2.191   1.881 -0.1855 -0.1654  0.3682
 3357TIP3    H131706   4.133   2.285   1.883 -1.4311 -0.3339 -0.8438
 3357TIP3    H231707   4.213   2.179   1.810 -0.5678 -0.3080  0.0474
 3358TIP3   OH231708   4.739   0.162   2.734 -0.2327 -0.5462 -0.7744
 3358TIP3    H131709   4.700   0.248   2.720  0.3669  0.0098  0.7901
 3358TIP3    H231710   4.679   0.119   2.795  0.0608 -0.8151 -0.6788
 3359TIP3   OH231711   5.755   3.007   8.799  0.4259 -0.1937  0.4121
 3359TIP3    H131712   5.724   2.921   8.826 -1.7039  0.7436  1.1986
 3359TIP3    H231713   5.770   3.055   8.880  1.5848  0.2141 -0.0136
 3360TIP3   OH231714   3.856   5.651   2.471  0.1487  0.3833  0.2415
 3360TIP3    H131715   3.938   5.657   2.521  0.1020  0.4015  0.3168
 3360TIP3    H231716   3.852   5.734   2.423  0.9222 -0.2329 -0.9346
 3361TIP3   OH231717   6.074   2.157   8.877 -0.5531  0.3658  0.0818
 3361TIP3    H131718   6.079   2.061   8.883 -1.1489  0.3718  0.9990
 3361TIP3    H231719   5.990   2.173   8.834 -0.3706  0.4766 -0.2334
 3362TIP3   OH231720   1.029   1.497   0.735 -0.3200 -0.2714  0.1682
 3362TIP3    H131721   1.064   1.527   0.819 -1.0180 -0.7304  0.6319
 3362TIP3    H231722   1.035   1.401   0.739  0.3679 -0.2765 -0.6312
 3363TIP3   OH231723   6.589   3.341   8.934  0.1063  0.1512  0.1186
 3363TIP3    H131724   6.595   3.402   8.860  1.6695 -0.3785 -0.2249
 3363TIP3    H231725   6.673   3.296   8.935  0.1507  0.1762  2.2691
 3364TIP3   OH231726   2.301   0.557   0.692 -0.5048 -0.1889 -0.2575
 3364TIP3    H131727   2.337   0.621   0.630 -1.6904  1.7070  0.9142
 3364TIP3    H231728   2.356   0.565   0.770  0.9019 -2.4753 -0.9274
 3365TIP3   OH231729   5.044   2.107   8.304  0.2741 -0.5125 -0.1608
 3365TIP3    H131730   5.079   2.123   8.216  0.0506 -0.2229 -0.1991
 3365TIP3    H231731   4.976   2.174   8.315 -0.7047 -1.4629 -0.3193
 3366TIP3   OH231732   2.088   2.453   8.979 -0.0882 -0.1276  0.7217
 3366TIP3    H131733   2.100   2.365   8.944 -0.5584  0.0511  0.0912
 3366TIP3    H231734   2.108   2.511   8.905  0.7171  0.3112  1.2727
 3367TIP3   OH231735   6.232   0.481   2.247  0.3222 -0.0132  0.1741
 3367TIP3    H131736   6.185   0.557   2.281 -0.8390 -0.6375  0.0157
 3367TIP3    H231737   6.174   0.407   2.263  1.9356 -1.0749  1.4043
 3368TIP3   OH231738   0.262   2.459   0.319 -0.7900  0.2357 -0.0246
 3368TIP3    H131739   0.187   2.482   0.263 -0.0764  0.8253 -0.7644
 3368TIP3    H231740   0.339   2.483   0.267 -0.0957  2.3936  1.8204
 3369TIP3   OH231741   2.673   3.620   2.644 -0.1144 -0.1474  0.4769
 3369TIP3    H131742   2.608   3.668   2.593  1.8834  0.5281 -1.6282
 3369TIP3    H231743   2.680   3.535   2.599  1.9328  0.5852 -0.7098
 3370TIP3   OH231744   3.417   4.447   0.317 -0.7678 -0.2341 -0.0554
 3370TIP3    H131745   3.464   4.526   0.343  0.2337  0.5429 -3.6572
 3370TIP3    H231746   3.483   4.378   0.321 -0.7844 -0.2431  0.0605
 3371TIP3   OH231747   6.124   4.005   2.701 -0.1682  0.0483 -0.7433
 3371TIP3    H131748   6.170   3.979   2.780  1.4595  1.3659 -1.1892
 3371TIP3    H231749   6.081   3.925   2.670  1.0805 -1.0325  0.2090
 3372TIP3   OH231750   3.015   6.305   1.712 -0.4705 -0.2189 -0.9342
 3372TIP3    H131751   3.072   6.317   1.788  0.5631 -0.2607 -1.6814
 3372TIP3    H231752   3.019   6.388   1.666 -0.9755 -0.2450 -1.0295
 3373TIP3   OH231753   2.319   0.167   8.609  0.1661  0.0350 -0.1743
 3373TIP3    H131754   2.350   0.232   8.673 -0.9429  1.5158 -1.0811
 3373TIP3    H231755   2.326   0.211   8.525 -1.0053 -0.8782 -0.7781
 3374TIP3   OH231756   0.279   5.571   7.635 -0.0705  0.3058 -0.7018
 3374TIP3    H131757   0.247   5.655   7.670  0.8403  0.0460  0.8605
 3374TIP3    H231758   0.203   5.513   7.641  0.0600  0.2537  1.0043
 3375TIP3   OH231759   0.527   0.970   7.985 -0.1419 -0.4002  0.7375
 3375TIP3    H131760   0.447   0.951   7.937  0.9462  0.6537 -1.6103
 3375TIP3    H231761   0.553   0.886   8.023 -1.1969 -1.2005 -0.2709
 3376TIP3   OH231762   6.164   4.510   0.760 -0.6340 -0.2119 -0.1868
 3376TIP3    H131763   6.168   4.592   0.711 -0.6480 -1.5258 -2.5573
 3376TIP3    H231764   6.070   4.489   0.765 -0.5492 -0.9452 -1.2314
 3377TIP3   OH231765   4.557   4.978   0.938  0.1807 -0.1851 -0.3102
 3377TIP3    H131766   4.493   5.049   0.924  0.7570  0.8637  1.8820
 3377TIP3    H231767   4.639   5.024   0.957  0.4496 -1.3762  1.6973
 3378TIP3   OH231768   4.731   6.324   8.801 -0.6532  0.4602  0.3102
 3378TIP3    H131769   4.656   6.383   8.801 -0.9735  0.0581  0.5811
 3378TIP3    H231770   4.730   6.283   8.715 -0.9901  0.1417  0.4685
 3379TIP3   OH231771   0.212   3.817   2.501  0.1731 -0.0446  0.2942
 3379TIP3    H131772   0.189   3.729   2.532  1.7785 -0.5104  0.2609
 3379TIP3    H231773   0.210   3.811   2.406  0.1669 -0.0264  0.2931
 3380TIP3   OH231774   2.501   5.039   3.426 -0.3042 -0.3297 -0.0933
 3380TIP3    H131775   2.577   5.047   3.368  0.1542 -1.3266  0.3504
 3380TIP3    H231776   2.467   5.129   3.432  0.2433 -0.0334 -1.0731
 3381TIP3   OH231777   4.252   6.427   2.409 -0.7839  1.1736  0.3579
 3381TIP3    H131778   4.271   6.463   2.323 -1.7345 -0.8937 -0.7835
 3381TIP3    H231779   4.166   6.461   2.432 -0.1175  2.5249  1.0049
 3382TIP3   OH231780   1.553   2.764   1.423  0.0279 -0.3460  0.6761
 3382TIP3    H131781   1.622   2.774   1.488  1.6146  0.8115 -1.0700
 3382TIP3    H231782   1.536   2.853   1.392 -0.3673 -0.8857 -0.7548
 3383TIP3   OH231783   2.260   1.731   2.138  0.3028  0.1326  0.1089
 3383TIP3    H131784   2.301   1.815   2.158  0.3782  0.0230  0.4239
 3383TIP3    H231785   2.286   1.713   2.047  0.9365  0.0801  0.2924
 3384TIP3   OH231786   2.370   3.160   2.473  0.4554  0.1665  0.0922
 3384TIP3    H131787   2.382   3.141   2.380 -0.5329  0.2995 -0.0706
 3384TIP3    H231788   2.321   3.084   2.507 -1.2265  1.1587 -0.0074
 3385TIP3   OH231789   2.956   5.834   8.900 -0.7186  0.4809  0.1651
 3385TIP3    H131790   2.975   5.804   8.989 -0.3109  1.7601  0.5324
 3385TIP3    H231791   2.953   5.753   8.848  0.4008 -0.1891  1.0871
 3386TIP3   OH231792   3.951   0.991   0.526  0.5566 -0.0778 -0.0663
 3386TIP3    H131793   3.962   1.023   0.437 -0.1386  2.4902  0.6925
 3386TIP3    H231794   3.871   0.938   0.523  0.3976  0.1926 -0.9105
 3387TIP3   OH231795   2.112   4.528   8.443 -0.1137  0.0534 -0.2919
 3387TIP3    H131796   2.072   4.612   8.423 -2.6360 -0.7715  0.8663
 3387TIP3    H231797   2.039   4.472   8.469  1.4898 -2.4672 -0.8328
 3388TIP3   OH231798   5.192   4.884   2.812 -0.1706  0.6963 -0.2513
 3388TIP3    H131799   5.134   4.906   2.885 -0.9604  1.0713 -0.9716
 3388TIP3    H231800   5.280   4.891   2.848 -0.5616  0.5090  0.7598
 3389TIP3   OH231801   2.862   3.299   1.297  0.0846  0.0311 -0.6278
 3389TIP3    H131802   2.912   3.378   1.277  2.6109 -0.8336  1.6902
 3389TIP3    H231803   2.915   3.227   1.262 -0.0471 -0.8541  0.8922
 3390TIP3   OH231804   0.989   0.385   2.421  0.5592 -0.2294  0.5193
 3390TIP3    H131805   0.985   0.293   2.448 -0.5621 -0.0132  1.1291
 3390TIP3    H231806   0.959   0.434   2.497  4.0225  0.8983  1.3084
 3391TIP3   OH231807   2.815   2.285   1.456 -0.4995  0.3665  0.1202
 3391TIP3    H131808   2.845   2.200   1.424  0.6917  0.6133  0.5551
 3391TIP3    H231809   2.891   2.323   1.499 -0.5147  2.3522 -1.4615
 3392TIP3   OH231810   3.188   1.782   8.917  0.3128  0.3664 -0.1259
 3392TIP3    H131811   3.116   1.786   8.855  0.4666 -1.3948 -0.4585
 3392TIP3    H231812   3.267   1.795   8.863  0.4972 -1.8361 -0.4864
 3393TIP3   OH231813   3.677   1.191   8.268  0.2040  0.5583 -0.8099
 3393TIP3    H131814   3.614   1.175   8.198  0.3659 -1.4640 -0.5542
 3393TIP3    H231815   3.642   1.144   8.343  2.1393 -0.9421 -0.7545
 3394TIP3   OH231816   1.302   1.099   0.290  0.2436  0.4618  0.3448
 3394TIP3    H131817   1.362   1.146   0.349 -0.0229  1.0331  0.1675
 3394TIP3    H231818   1.353   1.082   0.212 -0.1581  2.0494 -0.3103
 3395TIP3   OH231819   1.687   5.117   1.892 -0.2454 -0.3192 -0.4512
 3395TIP3    H131820   1.770   5.157   1.917 -1.2461  1.3225  0.3874
 3395TIP3    H231821   1.632   5.125   1.970 -1.3258 -1.0690 -1.1086
 3396TIP3   OH231822   2.760   3.647   2.921 -0.4235  0.5017  0.3398
 3396TIP3    H131823   2.764   3.563   2.967  1.0879  1.1597  1.4818
 3396TIP3    H231824   2.694   3.633   2.853  1.3028 -2.2811 -0.9213
 3397TIP3   OH231825   0.947   0.141   8.078 -0.0209  0.2610  0.0311
 3397TIP3    H131826   0.943   0.236   8.063 -0.2296  0.2642  0.1039
 3397TIP3    H231827   0.861   0.119   8.111 -0.1514 -0.0489 -0.5097
 3398TIP3   OH231828   3.512   0.488   8.021 -0.0867  0.0545 -0.0675
 3398TIP3    H131829   3.480   0.512   7.934  0.6903 -2.3511 -1.0796
 3398TIP3    H231830   3.606   0.478   8.011 -0.3247 -3.4625  0.1281
 3399TIP3   OH231831   4.245   3.923   9.033  0.4938  0.3251  0.0631
 3399TIP3    H131832   4.302   3.850   9.057 -0.1955 -0.7518 -1.4293
 3399TIP3    H231833   4.300   3.979   8.977  1.0223  0.9903  1.2103
 3400TIP3   OH231834   4.898   4.119   0.297  0.1125  0.2514  0.1522
 3400TIP3    H131835   4.820   4.132   0.352  0.5032  0.3154  0.6965
 3400TIP3    H231836   4.862   4.098   0.211 -0.5608 -2.4783  0.9798
 3401TIP3   OH231837   6.595   1.991   0.325  0.5558 -0.1990  0.4554
 3401TIP3    H131838   6.651   1.913   0.319  0.9992  0.0958  0.7345
 3401TIP3    H231839   6.639   2.056   0.270  1.1693  0.4366  1.6740
 3402TIP3   OH231840   3.558   4.879   1.849 -0.2099  0.1213  0.5832
 3402TIP3    H131841   3.604   4.896   1.931  2.9889  1.2259 -1.2607
 3402TIP3    H231842   3.503   4.956   1.835  1.8448  1.5890  0.1419
 3403TIP3   OH231843   3.123   1.221   2.457  0.2553  0.0088 -0.5846
 3403TIP3    H131844   3.200   1.259   2.500 -0.0277  0.1176 -0.1651
 3403TIP3    H231845   3.140   1.232   2.363 -1.1162  3.9211 -0.5417
 3404TIP3   OH231846   2.920   3.175   2.309  0.0791 -0.2133 -0.0365
 3404TIP3    H131847   2.887   3.243   2.368 -0.6403 -1.8090  1.4676
 3404TIP3    H231848   3.015   3.191   2.305 -0.1462  1.2188 -0.1996
 3405TIP3   OH231849   3.773   2.645   1.566 -0.2287 -0.3409 -0.2030
 3405TIP3    H131850   3.769   2.737   1.591  1.8476 -0.5993  1.3402
 3405TIP3    H231851   3.728   2.599   1.637 -0.5506 -0.5975 -0.5652
 3406TIP3   OH231852   4.323   6.535   2.667  0.2979  0.4141  0.2575
 3406TIP3    H131853   4.307   6.502   2.579 -0.2378 -0.2961  0.6140
 3406TIP3    H231854   4.391   6.602   2.655 -1.6514  2.3015 -1.0650
 3407TIP3   OH231855   2.280   3.364   8.757 -0.0537 -0.5755  0.4265
 3407TIP3    H131856   2.349   3.429   8.747  0.2026 -1.1499 -2.3041
 3407TIP3    H231857   2.307   3.292   8.700 -2.6742 -0.9975 -0.4112
 3408TIP3   OH231858   1.730   0.961   7.843  0.2001  0.1047  0.6985
 3408TIP3    H131859   1.732   0.865   7.836 -0.6848 -0.0330  1.8942
 3408TIP3    H231860   1.761   0.978   7.932  1.8339  1.0558  0.0051
 3409TIP3   OH231861   4.553   2.636   2.344  0.2097  0.9305  0.0782
 3409TIP3    H131862   4.530   2.604   2.431 -1.7933  2.2139  0.0862
 3409TIP3    H231863   4.632   2.588   2.321  0.5884  0.2975  2.4495
 3410TIP3   OH231864   2.103   2.081   0.262 -0.1400 -0.7199  0.1071
 3410TIP3    H131865   2.024   2.050   0.218  0.2832 -0.8645 -0.5684
 3410TIP3    H231866   2.174   2.057   0.202  0.2075  1.5728 -0.4693
 3411TIP3   OH231867   4.622   3.078   2.829 -0.4522 -0.1367 -0.0100
 3411TIP3    H131868   4.563   3.133   2.778 -1.0044 -0.9882 -0.3117
 3411TIP3    H231869   4.679   3.037   2.764 -0.9103 -0.9285  0.0651
 3412TIP3   OH231870   4.304   3.087   3.200  0.3651 -0.1396  0.1582
 3412TIP3    H131871   4.275   3.062   3.112 -0.8743 -1.1222  0.8159
 3412TIP3    H231872   4.344   3.007   3.235  2.4676  0.7322 -0.1172
 3413TIP3   OH231873   1.092   3.420   8.609 -0.0948  0.2106 -0.1353
 3413TIP3    H131874   1.128   3.417   8.521  1.3616 -0.1115  0.4562
 3413TIP3    H231875   1.116   3.336   8.648 -0.6545  0.3860  0.6128
 3414TIP3   OH231876   5.948   0.112   2.075  0.0571  0.0805 -0.2385
 3414TIP3    H131877   5.942   0.148   1.986  2.9627  1.5216  0.0382
 3414TIP3    H231878   5.870   0.147   2.120 -1.6383 -0.9458 -2.2208
 3415TIP3   OH231879   3.244   4.634   1.619 -0.1453 -0.3693 -0.5368
 3415TIP3    H131880   3.235   4.730   1.618  2.5091  0.1047  2.6277
 3415TIP3    H231881   3.321   4.617   1.564 -0.5444 -0.7174 -1.0001
 3416TIP3   OH231882   0.547   2.748   8.519 -0.6962  0.4855  0.3770
 3416TIP3    H131883   0.629   2.736   8.472 -1.0142  1.5563 -0.4992
 3416TIP3    H231884   0.572   2.784   8.604 -0.2683  0.8854  0.0820
 3417TIP3   OH231885   3.009   6.629   0.592 -0.5646 -0.1185  0.2440
 3417TIP3    H131886   3.093   6.675   0.595 -0.8835  0.4993 -0.1152
 3417TIP3    H231887   2.971   6.643   0.679  0.1643 -1.2953  0.7687
 3418TIP3   OH231888   5.266   3.887   8.933  0.7226  0.1458  0.3971
 3418TIP3    H131889   5.284   3.920   9.021  0.9828  0.7533  0.1186
 3418TIP3    H231890   5.322   3.811   8.924 -0.4191 -0.8541  1.3218
 3419TIP3   OH231891   4.383   1.530   7.694  0.8557  0.2801  0.1850
 3419TIP3    H131892   4.289   1.517   7.700  0.7091  1.1738  0.0275
 3419TIP3    H231893   4.393   1.622   7.667  1.7804  0.3963  0.8768
 3420TIP3   OH231894   2.904   6.233   2.087  0.2467 -0.1154 -0.5908
 3420TIP3    H131895   2.928   6.145   2.059 -0.7743 -0.2711 -1.0261
 3420TIP3    H231896   2.820   6.222   2.132 -0.1312  0.6890 -1.0660
 3421TIP3   OH231897   1.233   1.212   3.015 -0.0266 -0.3058  0.2130
 3421TIP3    H131898   1.152   1.185   3.060  0.1905 -1.2983  0.0477
 3421TIP3    H231899   1.249   1.142   2.951  0.7834  0.0450  0.0174
 3422TIP3   OH231900   1.769   1.851   8.924 -0.2533  0.5411  0.3080
 3422TIP3    H131901   1.704   1.864   8.993 -3.8912 -1.5851 -2.3578
 3422TIP3    H231902   1.778   1.756   8.917 -0.1628  0.6649 -2.1724
 3423TIP3   OH231903   4.318   0.091   0.322 -0.3505 -0.3091 -0.3247
 3423TIP3    H131904   4.228   0.078   0.352  0.0497 -0.1406  0.9838
 3423TIP3    H231905   4.330   0.186   0.321 -0.1653 -0.3323 -0.4394
 3424TIP3   OH231906   1.672   6.655   8.799 -0.0516  0.4472  0.0272
 3424TIP3    H131907   1.731   6.583   8.777  0.1440  0.1565  1.4464
 3424TIP3    H231908   1.597   6.614   8.840  0.8475  1.1266  2.5148
 3425TIP3   OH231909   2.947   3.710   0.824 -0.3004 -0.1913  0.0181
 3425TIP3    H131910   2.935   3.804   0.829 -0.2419 -0.1138 -1.0588
 3425TIP3    H231911   2.954   3.691   0.730  1.3317 -1.0514  0.2779
 3426TIP3   OH231912   2.687   3.759   3.140 -0.0011  0.0516 -0.4880
 3426TIP3    H131913   2.732   3.726   3.063 -2.0503  2.0340 -2.6951
 3426TIP3    H231914   2.697   3.690   3.205  1.2557 -2.0188 -2.7278
 3427TIP3   OH231915   2.306   4.283   0.109 -0.1108 -0.0651  0.6007
 3427TIP3    H131916   2.379   4.230   0.143  0.3826 -1.0859 -1.8544
 3427TIP3    H231917   2.346   4.369   0.092  0.3971 -0.4493 -0.2013
 3428TIP3   OH231918   3.878   1.738   0.580  0.2699 -0.2656 -0.0092
 3428TIP3    H131919   3.824   1.683   0.637 -1.4555  0.3166 -0.9973
 3428TIP3    H231920   3.889   1.687   0.500  0.2540  0.0563 -0.2206
 3429TIP3   OH231921   0.582   0.016   0.656  0.0648 -0.8527  0.3405
 3429TIP3    H131922   0.515  -0.019   0.715  0.5431 -0.3739  1.1948
 3429TIP3    H231923   0.537   0.028   0.573 -0.7686 -1.0531  0.7540
 3430TIP3   OH231924   2.953   5.407   2.403  0.0855 -0.0980 -0.0497
 3430TIP3    H131925   2.871   5.455   2.411 -0.4603 -1.0049  0.0446
 3430TIP3    H231926   2.953   5.373   2.314 -1.1157 -2.5882  0.8123
 3431TIP3   OH231927   5.118   4.994   2.400  0.0989 -0.0602 -0.4394
 3431TIP3    H131928   5.077   5.066   2.352  0.7525 -0.5602 -1.7806
 3431TIP3    H231929   5.109   5.020   2.492 -2.8825  0.0389 -0.6436
 3432TIP3   OH231930   5.897   2.213   3.183  0.0449 -0.1605 -0.9221
 3432TIP3    H131931   5.807   2.224   3.152 -0.3888  0.2178  0.4007
 3432TIP3    H231932   5.888   2.183   3.274  1.2617 -2.3674 -1.4571
 3433TIP3   OH231933   3.839   6.310   0.637  0.9325 -0.7944  0.2000
 3433TIP3    H131934   3.909   6.294   0.573  1.2615  1.1209  0.0201
 3433TIP3    H231935   3.809   6.399   0.617 -0.6655 -1.0891  1.1362
 3434TIP3   OH231936   0.698   0.780   8.795  0.6723  0.0240 -0.1786
 3434TIP3    H131937   0.651   0.718   8.852  1.5156 -1.2249 -0.7767
 3434TIP3    H231938   0.634   0.807   8.731  0.0886  0.3411  0.5262
 3435TIP3   OH231939   6.519   3.794   1.234 -0.3780  0.4412 -0.0027
 3435TIP3    H131940   6.501   3.848   1.311 -0.7549 -0.1517  0.3340
 3435TIP3    H231941   6.433   3.759   1.209 -0.4738  1.6298 -1.4670
 3436TIP3   OH231942   0.625   6.001   8.003 -0.1123  0.2343 -0.2143
 3436TIP3    H131943   0.648   5.909   7.993  0.4560  0.4118 -0.6065
 3436TIP3    H231944   0.699   6.040   8.049  0.6152  0.9040 -1.8732
 3437TIP3   OH231945   2.816   2.702   0.282 -0.6256 -0.2752  0.2108
 3437TIP3    H131946   2.852   2.788   0.305  2.5546 -1.2666 -0.5450
 3437TIP3    H231947   2.760   2.719   0.206  1.5252  0.9555 -1.2043
 3438TIP3   OH231948   0.927   2.889   8.701 -0.2300  0.2752 -0.7653
 3438TIP3    H131949   0.934   2.794   8.687  1.3838  0.2530 -0.0326
 3438TIP3    H231950   0.983   2.927   8.633  1.0717  0.5528  0.4114
 3439TIP3   OH231951   4.627   2.183   1.487 -0.2014  0.1001  0.3621
 3439TIP3    H131952   4.686   2.117   1.450  0.5666  0.3947  1.0260
 3439TIP3    H231953   4.583   2.137   1.559 -0.0573  0.1631  0.4898
 3440TIP3   OH231954   3.503   2.375   2.400  0.3293  0.4305  0.0562
 3440TIP3    H131955   3.487   2.468   2.415  0.0808  0.5746 -0.9643
 3440TIP3    H231956   3.472   2.361   2.310  1.6100 -0.3383 -0.2783
 3441TIP3   OH231957   4.659   1.229   2.622  0.2255  0.1069  0.0618
 3441TIP3    H131958   4.641   1.308   2.672 -0.2783 -0.0505  0.1320
 3441TIP3    H231959   4.663   1.159   2.687 -0.0867 -0.0447 -0.0780
 3442TIP3   OH231960   4.981   1.045   0.851  0.1356  0.4527 -0.3670
 3442TIP3    H131961   4.946   1.077   0.934  2.2221 -2.1346  1.6807
 3442TIP3    H231962   5.073   1.073   0.851  0.9148 -1.8996 -0.4054
 3443TIP3   OH231963   5.617   2.373   8.492  0.0134  0.3299 -0.1069
 3443TIP3    H131964   5.582   2.286   8.474  2.7622 -0.5659 -1.7234
 3443TIP3    H231965   5.680   2.389   8.422 -1.3367  4.2814 -0.7219
 3444TIP3   OH231966   5.688   6.055   8.505 -0.6608  0.1323  0.0948
 3444TIP3    H131967   5.746   5.980   8.496  0.5173  0.9436  0.7033
 3444TIP3    H231968   5.603   6.018   8.529 -0.2781 -1.0339 -0.2991
 3445TIP3   OH231969   0.045   3.344   3.233  0.0312  0.3335  0.0620
 3445TIP3    H131970   0.105   3.374   3.301 -1.8994 -1.5018  2.7975
 3445TIP3    H231971   0.095   3.277   3.186  1.4891  1.7927 -0.5446
 3446TIP3   OH231972   5.133   4.684   1.207 -0.4437  0.3595 -0.2779
 3446TIP3    H131973   5.134   4.591   1.185  0.5880  0.4894 -0.8237
 3446TIP3    H231974   5.043   4.711   1.190 -0.6444 -0.4335 -0.5322
 3447TIP3   OH231975   1.360   1.710   8.786  0.4488  0.3484  0.3816
 3447TIP3    H131976   1.365   1.712   8.882  3.1105  3.3767  0.3645
 3447TIP3    H231977   1.428   1.648   8.760  0.2858  0.1429  0.4419
 3448TIP3   OH231978   3.188   4.697   9.016  0.1949 -0.3352 -0.5361
 3448TIP3    H131979   3.115   4.671   9.072 -0.3969  1.4294 -0.4084
 3448TIP3    H231980   3.200   4.624   8.955 -2.5217 -0.2138 -1.3540
 3449TIP3   OH231981   4.807   2.907   0.739  0.0834  0.7895 -0.1493
 3449TIP3    H131982   4.895   2.933   0.765 -0.1953  0.5109  1.1317
 3449TIP3    H231983   4.811   2.899   0.644  1.3851  0.9635 -0.1197
 3450TIP3   OH231984   5.262   2.466   0.472 -0.0601  0.3105  0.1106
 3450TIP3    H131985   5.355   2.487   0.460  0.5738 -0.8248  2.4390
 3450TIP3    H231986   5.250   2.384   0.426  0.6799 -0.6226  1.4875
 3451TIP3   OH231987   4.425   0.700   8.597  0.0411 -0.8525  0.3898
 3451TIP3    H131988   4.447   0.765   8.664 -0.1744 -1.2471  0.8517
 3451TIP3    H231989   4.387   0.751   8.526  0.3318 -0.4177  0.5410
 3452TIP3   OH231990   1.546   2.777   2.424  0.7474 -0.1241 -0.7258
 3452TIP3    H131991   1.528   2.825   2.505 -0.8941  0.4005 -1.3603
 3452TIP3    H231992   1.497   2.695   2.433 -0.6223  0.5424 -1.7351
 3453TIP3   OH231993   4.096   4.499   8.262  0.1669 -0.3501 -0.4255
 3453TIP3    H131994   4.042   4.423   8.241 -1.1398  0.6303 -0.7150
 3453TIP3    H231995   4.174   4.489   8.208 -0.8730 -0.4757 -1.9440
 3454TIP3   OH231996   0.235   4.121   0.733  0.4408  0.0905  0.2198
 3454TIP3    H131997   0.172   4.105   0.663 -0.1783 -0.9932  0.9939
 3454TIP3    H231998   0.181   4.130   0.812  1.2836 -2.6183  1.2112
 3455TIP3   OH231999   5.322   6.181   0.981 -0.2778 -0.0876  0.1868
 3455TIP3    H132000   5.340   6.207   0.890  0.0362  0.3294  0.3635
 3455TIP3    H232001   5.336   6.262   1.031  2.2157 -0.9058  0.9566
 3456TIP3   OH232002   4.876   0.485   1.791  0.2385 -0.6283 -0.3603
 3456TIP3    H132003   4.785   0.503   1.768 -0.2179 -0.9040  1.1114
 3456TIP3    H232004   4.884   0.512   1.882  0.4917 -4.2383  0.8469
 3457TIP3   OH232005   2.649   4.193   2.735  0.5605  0.7687 -0.3767
 3457TIP3    H132006   2.567   4.172   2.689  0.2442 -1.2673  0.9852
 3457TIP3    H232007   2.715   4.198   2.666 -0.2064 -0.5096 -1.2336
 3458TIP3   OH232008   4.535   1.798   1.634 -0.0747 -0.2002  0.1580
 3458TIP3    H132009   4.453   1.776   1.590 -0.2704 -0.4139  0.6225
 3458TIP3    H232010   4.548   1.728   1.699 -0.3418  0.6606  1.1690
 3459TIP3   OH232011   2.437   5.843   8.585  0.0993  0.2987  0.1613
 3459TIP3    H132012   2.468   5.933   8.587  0.9884  0.0190 -0.4994
 3459TIP3    H232013   2.491   5.800   8.519  0.3215 -0.9495  1.1032
 3460TIP3   OH232014   1.025   4.598   2.349  0.0975  0.1211  0.7946
 3460TIP3    H132015   1.098   4.598   2.287  0.3167  1.3070  1.0223
 3460TIP3    H232016   0.947   4.588   2.294  0.3585  0.0689  0.4283
 3461TIP3   OH232017   6.088   6.444   1.368 -0.4093  0.0682  0.3280
 3461TIP3    H132018   6.014   6.449   1.428 -1.1038 -0.4261 -0.4670
 3461TIP3    H232019   6.137   6.367   1.397 -1.6434 -1.1560 -0.7047
 3462TIP3   OH232020   4.396   5.338   0.699 -0.1102  0.3454 -0.0556
 3462TIP3    H132021   4.341   5.417   0.695  1.6007  1.5785 -0.5771
 3462TIP3    H232022   4.485   5.372   0.701  0.6582 -1.5977  0.5523
 3463TIP3   OH232023   0.190   3.099   0.727  0.4392  0.3155  0.0553
 3463TIP3    H132024   0.249   3.032   0.762 -0.4505  0.0113  1.0347
 3463TIP3    H232025   0.183   3.163   0.797 -0.6335  0.1815  0.0866
 3464TIP3   OH232026   3.460   3.434   0.900  0.0522 -0.1720 -0.0282
 3464TIP3    H132027   3.527   3.371   0.928  1.2650  0.0552 -2.2157
 3464TIP3    H232028   3.498   3.520   0.919  0.2783 -0.0488 -0.9914
 3465TIP3   OH232029   2.585   6.637   8.285  0.3661 -0.5123 -0.2139
 3465TIP3    H132030   2.640   6.580   8.231 -0.8338  0.5765 -2.7506
 3465TIP3    H232031   2.497   6.603   8.273 -0.2560  1.2771 -1.1032
 3466TIP3   OH232032   2.844   5.023   7.860  0.1217 -0.2951 -0.3154
 3466TIP3    H132033   2.940   5.030   7.852 -0.0357  1.3974 -1.2138
 3466TIP3    H232034   2.814   5.013   7.770 -0.6582  1.4180 -0.2849
 3467TIP3   OH232035   4.133   3.074   9.063  0.1536 -0.1649 -0.1291
 3467TIP3    H132036   4.072   3.019   9.112  0.8693  0.3709  1.4156
 3467TIP3    H232037   4.208   3.017   9.044  0.3410 -0.0793  0.3491
 3468TIP3   OH232038   3.391   0.246   0.446 -0.0386 -0.0909 -0.0576
 3468TIP3    H132039   3.389   0.339   0.424  1.1874  0.2862  1.2762
 3468TIP3    H232040   3.399   0.244   0.541 -0.8571 -1.5864  0.0059
 3469TIP3   OH232041   5.820   2.250   0.865 -0.5220 -0.3213  0.0514
 3469TIP3    H132042   5.727   2.275   0.864  0.0855  2.2075 -0.0219
 3469TIP3    H232043   5.819   2.156   0.847 -3.2968 -1.3750  4.3040
 3470TIP3   OH232044   0.380   1.262   1.206 -0.0283  0.2586 -0.5758
 3470TIP3    H132045   0.447   1.323   1.236 -0.0653  0.4237 -0.8307
 3470TIP3    H232046   0.346   1.222   1.286  1.8493 -1.3946 -0.5404
 3471TIP3   OH232047   0.821   4.445   8.610 -0.1679  0.1311  0.6035
 3471TIP3    H132048   0.736   4.487   8.623  0.8629  2.6476 -0.0594
 3471TIP3    H232049   0.859   4.440   8.698 -0.1124  1.1755  0.6598
 3472TIP3   OH232050   2.488   6.181   2.429 -0.4448  0.2825 -0.6629
 3472TIP3    H132051   2.434   6.217   2.359  0.5428  1.0681 -1.0408
 3472TIP3    H232052   2.509   6.256   2.484  0.2258 -0.0191 -0.4976
 3473TIP3   OH232053   4.432   3.550   0.162 -0.5543 -0.1993  0.2672
 3473TIP3    H132054   4.336   3.545   0.163 -0.5080 -1.8159 -0.8023
 3473TIP3    H232055   4.461   3.473   0.210  0.1939 -0.9922 -1.3855
 3474TIP3   OH232056   4.518   2.330   1.300 -0.0614  0.0885  0.0806
 3474TIP3    H132057   4.565   2.295   1.376  1.0808  1.8907  0.2595
 3474TIP3    H232058   4.574   2.309   1.225  0.5406  1.3037  0.1684
 3475TIP3   OH232059   0.131   2.495   8.633 -0.5432  0.3497  0.2837
 3475TIP3    H132060   0.101   2.530   8.549  1.5831 -1.1852 -1.2321
 3475TIP3    H232061   0.196   2.559   8.664  1.0061 -0.5640 -0.9050
 3476TIP3   OH232062   3.945   3.113   8.531  0.6719 -0.0338  0.0361
 3476TIP3    H132063   4.004   3.043   8.504  0.0641 -1.0059  1.1040
 3476TIP3    H232064   3.987   3.151   8.609 -0.6135 -1.5532  1.5670
 3477TIP3   OH232065   6.664   2.198   0.191 -0.1809  0.0191 -0.4872
 3477TIP3    H132066   6.591   2.183   0.131  0.8242 -2.8344 -1.1163
 3477TIP3    H232067   6.713   2.270   0.151 -1.4923  0.6086 -1.1070
 3478TIP3   OH232068   4.405   5.266   2.828 -0.3725  0.3966  0.5506
 3478TIP3    H132069   4.467   5.325   2.869  0.3947 -0.6293  0.9171
 3478TIP3    H232070   4.426   5.269   2.735 -0.4347  0.8056  0.5510
 3479TIP3   OH232071   3.397   2.085   0.321  0.2881 -0.7063 -0.2515
 3479TIP3    H132072   3.493   2.083   0.323  0.3520 -0.5232 -1.7815
 3479TIP3    H232073   3.375   2.067   0.229 -0.9356  4.7136 -1.3373
 3480TIP3   OH232074   0.371   4.924   8.925 -0.5201 -0.1633  0.1773
 3480TIP3    H132075   0.319   4.877   8.990  0.5553 -1.1261  0.3841
 3480TIP3    H232076   0.384   5.011   8.963 -1.1660 -0.2298  0.5632
 3481TIP3   OH232077   4.400   2.749   1.015 -0.0979  0.0488 -0.1338
 3481TIP3    H132078   4.333   2.683   0.998 -2.5262  2.2086  0.4134
 3481TIP3    H232079   4.367   2.828   0.974  2.1552  1.2384  0.1915
 3482TIP3   OH232080   4.148   5.097   1.459  0.3781  0.2140  0.0206
 3482TIP3    H132081   4.201   5.147   1.396 -0.7453  3.5537  1.5101
 3482TIP3    H232082   4.060   5.134   1.452 -0.0910 -0.1915  2.5953
 3483TIP3   OH232083   4.326   0.834   8.402  0.1554 -0.5190 -0.1218
 3483TIP3    H132084   4.232   0.840   8.386  0.2292  0.3958 -0.2768
 3483TIP3    H232085   4.365   0.891   8.336  0.8617 -1.3381 -0.4195
 3484TIP3   OH232086   2.806   5.545   0.404  0.1230  0.6518  0.0677
 3484TIP3    H132087   2.900   5.530   0.407 -0.0926 -0.8804 -0.2347
 3484TIP3    H232088   2.797   5.640   0.393  1.6103  0.8555  0.4547
 3485TIP3   OH232089   4.822   5.420   8.880 -0.3563  0.3015 -0.2693
 3485TIP3    H132090   4.817   5.515   8.871 -1.3904  0.2744 -0.0484
 3485TIP3    H232091   4.912   5.399   8.855 -0.7330  1.0882 -2.5551
 3486TIP3   OH232092   3.657   1.776   8.323  0.4113 -0.2227  0.3782
 3486TIP3    H132093   3.698   1.851   8.280 -1.7488  0.4883 -0.6197
 3486TIP3    H232094   3.669   1.704   8.262  0.6739 -0.1716  0.3673
 3487TIP3   OH232095   2.073   4.328   0.904  0.1146  0.0458  0.0756
 3487TIP3    H132096   2.021   4.267   0.852  0.9631  0.5549 -1.4264
 3487TIP3    H232097   2.009   4.388   0.942 -0.5073 -0.1923 -0.5785
 3488TIP3   OH232098   5.462   4.431   2.722 -0.1085  0.2042 -0.4011
 3488TIP3    H132099   5.420   4.452   2.638 -1.7332 -1.2412 -0.0036
 3488TIP3    H232100   5.406   4.471   2.788  0.5438  0.3870  0.0477
 3489TIP3   OH232101   0.785   3.194   2.305  0.5616  0.2633  0.0510
 3489TIP3    H132102   0.690   3.203   2.312  0.3341  0.5913 -2.4986
 3489TIP3    H232103   0.799   3.113   2.255  1.6110  0.2537  0.3204
 3490TIP3   OH232104   0.985   4.471   8.052 -0.6018  0.0821 -0.0487
 3490TIP3    H132105   0.928   4.532   8.006 -2.5055  0.1858  2.2546
 3490TIP3    H232106   1.067   4.473   8.003 -1.6573  2.0431 -1.8864
 3491TIP3   OH232107   5.837   4.448   0.739 -0.3183 -0.3969  0.4095
 3491TIP3    H132108   5.755   4.495   0.757 -1.1234 -1.8735  0.7618
 3491TIP3    H232109   5.842   4.443   0.644 -0.7477 -0.4693  0.3880
 3492TIP3   OH232110   4.776   5.985   0.345  0.6724 -0.6398  0.4715
 3492TIP3    H132111   4.783   5.984   0.250 -0.6748 -0.8858  0.3530
 3492TIP3    H232112   4.706   5.923   0.365  1.5971 -1.3479  1.7026
 3493TIP3   OH232113   4.698   2.336   0.882  0.0367  0.1983  0.5512
 3493TIP3    H132114   4.633   2.400   0.853 -1.6026 -0.4749  2.5244
 3493TIP3    H232115   4.765   2.389   0.926  0.0675  0.7756 -0.1712
 3494TIP3   OH232116   1.574   6.083   1.792  0.3611 -0.2989 -0.3979
 3494TIP3    H132117   1.629   6.110   1.865  2.3546 -3.0612 -0.7416
 3494TIP3    H232118   1.534   6.001   1.821 -0.7516 -0.2032 -1.5457
 3495TIP3   OH232119   1.906   0.819   8.299 -0.0624 -0.7494  0.2767
 3495TIP3    H132120   1.816   0.813   8.332  0.4021  1.1866  2.1986
 3495TIP3    H232121   1.898   0.866   8.216 -1.1769 -4.8772 -2.2233
 3496TIP3   OH232122   3.323   2.891   0.552  0.5042 -0.1139 -0.4251
 3496TIP3    H132123   3.256   2.945   0.595  1.5004  1.0723 -0.3191
 3496TIP3    H232124   3.403   2.909   0.601  0.5216 -3.3007  0.9520
 3497TIP3   OH232125   5.464   5.217   0.998  0.3381  0.4805 -0.3239
 3497TIP3    H132126   5.470   5.293   1.056  0.0198  1.4347 -1.5087
 3497TIP3    H232127   5.387   5.169   1.028  1.8327 -0.7054  1.9237
 3498TIP3   OH232128   6.457   1.977   0.913 -0.3898  0.1287 -0.1904
 3498TIP3    H132129   6.371   2.016   0.899  0.0659  1.3975  0.4185
 3498TIP3    H232130   6.495   2.027   0.986  1.1666  0.1211 -0.9522
 3499TIP3   OH232131   1.843   2.522   1.633 -0.0203 -0.5826 -0.9209
 3499TIP3    H132132   1.807   2.610   1.644  0.4130 -0.4636 -0.4222
 3499TIP3    H232133   1.823   2.500   1.542  0.1627  0.1660 -1.1556
 3500TIP3   OH232134   0.636   6.070   3.120 -0.3977  0.2748 -0.0420
 3500TIP3    H132135   0.682   6.133   3.176 -0.2940  1.3966 -1.3195
 3500TIP3    H232136   0.696   6.056   3.046 -0.7978 -0.6746 -0.2004
 3501TIP3   OH232137   0.618   3.469   8.093 -0.1111  0.8811 -0.3432
 3501TIP3    H132138   0.581   3.540   8.145 -0.2074  0.6421 -0.0862
 3501TIP3    H232139   0.711   3.491   8.086  0.2263  0.0749  1.3065
 3502TIP3   OH232140   5.757   0.960   1.327 -0.2128 -0.3955  0.0474
 3502TIP3    H132141   5.810   0.887   1.358  0.3579  0.1525  0.4124
 3502TIP3    H232142   5.753   0.949   1.232 -0.8758 -1.3772  0.1781
 3503TIP3   OH232143   4.396   0.671   8.928  0.2823  0.4629 -0.1840
 3503TIP3    H132144   4.318   0.634   8.886  0.5842 -0.0644 -0.2802
 3503TIP3    H232145   4.469   0.630   8.884  0.6098 -0.3126  1.0391
 3504TIP3   OH232146   4.911   0.505   8.756 -0.6158  0.3486  0.2767
 3504TIP3    H132147   4.854   0.577   8.729  0.5413  1.0102 -0.4660
 3504TIP3    H232148   4.922   0.452   8.677 -0.5506 -0.0281  0.5342
 3505TIP3   OH232149   4.149   1.189   0.330  0.7885 -0.0125  0.3768
 3505TIP3    H132150   4.195   1.115   0.290  1.3193 -0.3748  1.6108
 3505TIP3    H232151   4.068   1.198   0.280  1.9002  0.2493 -1.4786
 3506TIP3   OH232152   1.833   6.142   8.633  0.3266 -0.5215 -0.0014
 3506TIP3    H132153   1.780   6.189   8.568 -1.8856 -0.7762  1.5193
 3506TIP3    H232154   1.786   6.060   8.648  1.2617 -0.8564  1.2771
 3507TIP3   OH232155   6.552   3.508   1.569 -0.5743 -1.0142 -0.0032
 3507TIP3    H132156   6.602   3.519   1.488 -0.8291 -3.1541 -0.5171
 3507TIP3    H232157   6.465   3.543   1.548 -0.3568 -0.6696 -0.3329
 3508TIP3   OH232158   4.505   1.860   8.357 -0.3593  0.9210 -0.3989
 3508TIP3    H132159   4.554   1.863   8.275 -1.3004 -1.9669 -1.2082
 3508TIP3    H232160   4.449   1.782   8.349 -0.0589  0.1127  3.2199
 3509TIP3   OH232161   0.948   0.675   8.748  0.5183 -0.0852  0.1195
 3509TIP3    H132162   0.874   0.736   8.750 -1.3606 -2.2543  0.2215
 3509TIP3    H232163   1.007   0.712   8.682 -0.8336  1.4953 -0.2694
 3510TIP3   OH232164   4.409   5.705   0.590  0.1544  0.0091  0.0169
 3510TIP3    H132165   4.425   5.711   0.684 -0.1090  1.3500  0.0014
 3510TIP3    H232166   4.491   5.672   0.554  0.8374  1.0347  0.5677
 3511TIP3   OH232167   2.442   5.228   3.008  0.1366  0.4154 -0.0922
 3511TIP3    H132168   2.511   5.279   3.049  1.4718  1.1237 -3.0156
 3511TIP3    H232169   2.479   5.140   2.998  0.2163  0.5181 -0.7070
 3512TIP3   OH232170   4.737   3.481   8.554  0.3827 -0.3597 -0.4828
 3512TIP3    H132171   4.706   3.395   8.526 -0.4603 -0.7651  1.4709
 3512TIP3    H232172   4.789   3.463   8.632 -0.0158  0.9093  0.1102
 3513TIP3   OH232173   1.577   4.370   8.430  0.2803  0.0963  0.1714
 3513TIP3    H132174   1.540   4.425   8.361  2.9229  0.2554 -1.2380
 3513TIP3    H232175   1.553   4.414   8.512 -1.1418  1.0471 -0.7180
 3514TIP3   OH232176   4.333   3.610   3.545 -0.5727 -0.2329  0.5191
 3514TIP3    H132177   4.397   3.671   3.582  2.1189 -2.6074  0.0981
 3514TIP3    H232178   4.358   3.601   3.453 -2.4899 -0.1304 -0.0628
 3515TIP3   OH232179   4.102   2.067   8.926  0.4869 -0.0546 -0.4060
 3515TIP3    H132180   4.011   2.067   8.958 -0.0211 -1.0516 -1.7545
 3515TIP3    H232181   4.129   1.976   8.931  0.8096 -0.0396 -1.6101
 3516TIP3   OH232182   2.375   4.611   2.381  0.2013 -0.1574 -0.0092
 3516TIP3    H132183   2.284   4.607   2.411 -0.2563 -0.8141 -1.3773
 3516TIP3    H232184   2.427   4.580   2.455 -0.6713  0.4300  0.8590
 3517TIP3   OH232185   5.716   2.710   0.771  0.0151 -0.2079  0.0155
 3517TIP3    H132186   5.650   2.776   0.750 -0.1616 -1.2671 -3.2872
 3517TIP3    H232187   5.796   2.740   0.728  0.1301 -1.6748 -0.8770
 3518TIP3   OH232188   6.320   2.341   1.628  0.1393  0.2190  0.0749
 3518TIP3    H132189   6.239   2.379   1.660  0.8378  0.7104  1.3147
 3518TIP3    H232190   6.300   2.248   1.617 -0.1700  0.0309  1.9282
 3519TIP3   OH232191   5.455   2.751   8.007 -0.3214 -0.3426 -0.0351
 3519TIP3    H132192   5.535   2.742   8.059  0.3661 -0.3665 -1.0428
 3519TIP3    H232193   5.398   2.681   8.038  0.4871 -1.0172 -0.0330
 3520TIP3   OH232194   3.468   2.930   8.060 -0.1058  0.2646 -0.4416
 3520TIP3    H132195   3.550   2.960   8.019  0.7931  0.5216  1.4250
 3520TIP3    H232196   3.486   2.840   8.087  0.1590  0.8219  1.3655
 3521TIP3   OH232197   4.151   5.320   8.196  0.0109 -0.0045  0.5573
 3521TIP3    H132198   4.143   5.240   8.248  0.7062  0.6957  1.7988
 3521TIP3    H232199   4.159   5.290   8.106 -0.3224 -1.2998  0.9434
 3522TIP3   OH232200   1.766   4.825   1.489 -0.2396  0.4047  0.7901
 3522TIP3    H132201   1.730   4.846   1.576 -0.9603  0.2698  0.5337
 3522TIP3    H232202   1.776   4.909   1.446 -0.4122  0.4306  0.8007
 3523TIP3   OH232203   2.525   4.650   8.957  0.1165  0.7593  0.0718
 3523TIP3    H132204   2.597   4.668   8.896 -0.0753 -1.2912 -0.8412
 3523TIP3    H232205   2.497   4.561   8.936 -0.2021  0.0699  2.9211
 3524TIP3   OH232206   0.745   1.446   0.707  0.2864  0.0479 -0.5555
 3524TIP3    H132207   0.834   1.477   0.722  1.1058 -1.8340 -1.2726
 3524TIP3    H232208   0.747   1.408   0.619 -1.5179  0.9283 -1.0292
 3525TIP3   OH232209   0.111   4.144   8.973  0.3864  0.3989 -0.1358
 3525TIP3    H132210   0.189   4.194   8.948  0.4932  0.8043  0.9867
 3525TIP3    H232211   0.144   4.068   9.021  0.0782  0.9421  0.9734
 3526TIP3   OH232212   2.264   2.937   8.586 -0.2661  0.5170  0.6437
 3526TIP3    H132213   2.244   2.868   8.649 -0.2796  1.6106  1.8957
 3526TIP3    H232214   2.332   2.901   8.530 -1.0996 -0.9144  0.5275
 3527TIP3   OH232215   2.681   1.442   8.762  0.2573 -0.3135  0.2320
 3527TIP3    H132216   2.640   1.528   8.754 -0.2796 -0.4515  1.3459
 3527TIP3    H232217   2.708   1.420   8.673  0.4555  1.0283 -0.0554
 3528TIP3   OH232218   1.367   1.714   8.454 -0.1001 -0.5184 -0.0908
 3528TIP3    H132219   1.319   1.673   8.383 -1.0970 -0.0672  0.3019
 3528TIP3    H232220   1.336   1.670   8.533  2.0024 -1.9886  0.0151
 3529TIP3   OH232221   4.519   4.451   1.442  0.2464  0.2434 -0.5139
 3529TIP3    H132222   4.605   4.488   1.460  0.6524 -0.0059 -1.8544
 3529TIP3    H232223   4.486   4.502   1.368 -1.1204  0.8710  0.4799
 3530TIP3   OH232224   2.144   5.405   2.209 -0.2421  0.0985  0.7409
 3530TIP3    H132225   2.154   5.426   2.116 -0.3500  1.8142  1.0740
 3530TIP3    H232226   2.149   5.490   2.253 -0.1902 -0.6828  2.3096
 3531TIP3   OH232227   1.900   3.398   1.632  0.4787 -0.1318 -0.2541
 3531TIP3    H132228   1.851   3.346   1.695 -0.6446  1.2083  0.0166
 3531TIP3    H232229   1.992   3.378   1.650  0.1202 -0.8517  0.8398
 3532TIP3   OH232230   5.565   1.291   0.712 -0.6141 -0.2677 -0.4930
 3532TIP3    H132231   5.590   1.257   0.627 -0.0352  0.2379 -0.5293
 3532TIP3    H232232   5.475   1.322   0.700 -0.4575  0.0087 -0.9841
 3533TIP3   OH232233   2.219   3.129   0.368  0.5582 -0.4563 -0.2351
 3533TIP3    H132234   2.170   3.176   0.300  1.4130 -0.5666 -0.9523
 3533TIP3    H232235   2.293   3.091   0.321  1.6242  0.1429  0.9055
 3534TIP3   OH232236   2.072   0.683   0.161  0.0609 -0.1912 -0.4342
 3534TIP3    H132237   2.067   0.631   0.080 -1.5730  0.1009 -0.5499
 3534TIP3    H232238   2.014   0.639   0.222 -0.5008  0.8528 -0.1775
 3535TIP3   OH232239   0.924   5.092   2.505 -0.5484  0.0061  0.3079
 3535TIP3    H132240   0.953   5.094   2.414  0.7557 -2.7564  0.5432
 3535TIP3    H232241   1.003   5.068   2.554 -1.0536  2.0784  2.3008
 3536TIP3   OH232242   2.573   0.111   2.404 -0.2368 -0.2679  0.1215
 3536TIP3    H132243   2.616   0.180   2.354  0.3762 -0.1668  0.7704
 3536TIP3    H232244   2.545   0.047   2.338  0.3008  0.0041 -0.3769
 3537TIP3   OH232245   4.978   4.767   1.453  0.8680 -0.3195 -0.4750
 3537TIP3    H132246   5.073   4.781   1.448  0.5624  1.5768 -2.1741
 3537TIP3    H232247   4.941   4.854   1.465 -0.7113 -0.9073 -0.8033
 3538TIP3   OH232248   2.474   5.732   0.486  0.1565  0.3945  0.1832
 3538TIP3    H132249   2.550   5.751   0.541 -0.6000  2.0975  0.6848
 3538TIP3    H232250   2.433   5.656   0.528  2.5358 -1.7918 -1.1401
 3539TIP3   OH232251   1.077   4.381   0.713  0.0852 -0.3611 -0.2744
 3539TIP3    H132252   1.096   4.314   0.779 -0.8585  0.6394  1.0650
 3539TIP3    H232253   0.993   4.355   0.676  0.7446 -1.0748 -1.3279
 3540TIP3   OH232254   0.137   4.339   2.625  0.3840  0.4705 -0.0028
 3540TIP3    H132255   0.228   4.330   2.651  0.3068 -1.5618 -0.2246
 3540TIP3    H232256   0.088   4.293   2.694 -0.5961  2.3776  0.6402
 3541TIP3   OH232257   6.586   2.180   3.184  0.2517 -0.2175  0.2695
 3541TIP3    H132258   6.544   2.114   3.128  0.6025  0.4450 -0.8075
 3541TIP3    H232259   6.624   2.130   3.256 -0.2268 -1.0987 -0.0710
 3542TIP3   OH232260   0.238   3.405   1.535 -0.0747  0.1567 -0.3460
 3542TIP3    H132261   0.264   3.461   1.462  0.0269 -1.6645 -1.7891
 3542TIP3    H232262   0.187   3.335   1.494  0.6119 -1.3334  1.2090
 3543TIP3   OH232263   3.127   0.468   3.124 -0.6893  0.0116 -0.0871
 3543TIP3    H132264   3.062   0.531   3.092 -0.2992 -0.0606 -1.0640
 3543TIP3    H232265   3.199   0.475   3.061 -0.0029 -0.3371  0.6451
 3544TIP3   OH232266   5.008   3.935   2.946 -0.6264 -0.0298  0.1655
 3544TIP3    H132267   4.973   4.021   2.923  0.3756 -0.1336 -2.0329
 3544TIP3    H232268   5.076   3.953   3.011  0.7711  1.0974 -1.5251
 3545TIP3   OH232269   0.214   0.573   8.493  0.2153 -0.0620 -0.0222
 3545TIP3    H132270   0.152   0.525   8.438  2.4786 -1.1318 -1.8255
 3545TIP3    H232271   0.275   0.507   8.525 -0.9463  0.5412  3.9058
 3546TIP3   OH232272   6.299   5.758   1.795  0.4134 -0.2273 -0.2106
 3546TIP3    H132273   6.380   5.798   1.766  0.3514  0.5012  0.5827
 3546TIP3    H232274   6.272   5.810   1.871 -0.6322 -0.6463 -0.2749
 3547TIP3   OH232275   2.300   3.956   0.965  0.0205 -0.9369 -0.5728
 3547TIP3    H132276   2.330   3.914   1.046  0.6311 -0.8908 -0.7657
 3547TIP3    H232277   2.258   4.036   0.994  0.3829 -0.8402 -0.3064
 3548TIP3   OH232278   5.617   2.913   2.129 -0.8764 -0.0104  0.5225
 3548TIP3    H132279   5.606   2.877   2.217 -2.6336  0.7388  0.6574
 3548TIP3    H232280   5.638   3.005   2.142 -1.5892  0.2136  0.1872
 3549TIP3   OH232281   6.132   5.524   0.668 -0.0530 -0.0933  0.0049
 3549TIP3    H132282   6.039   5.544   0.677  0.1890  0.5854  1.2156
 3549TIP3    H232283   6.171   5.554   0.750  1.2854 -0.0792 -0.6094
 3550TIP3   OH232284   3.045   6.094   7.543 -0.0290 -0.5355  0.1014
 3550TIP3    H132285   3.040   6.037   7.466 -1.0417  0.6493 -0.7716
 3550TIP3    H232286   3.135   6.085   7.574  0.7978 -0.1391 -1.9893
 3551TIP3   OH232287   2.628   5.154   1.209  0.1611  0.2347  0.1029
 3551TIP3    H132288   2.647   5.209   1.134 -1.0023 -1.1279 -1.2471
 3551TIP3    H232289   2.533   5.159   1.219  0.2903  0.4255  1.5418
 3552TIP3   OH232290   6.313   3.233   1.677  0.0105  0.4575 -0.3355
 3552TIP3    H132291   6.316   3.275   1.591 -0.0083  0.0017 -0.5606
 3552TIP3    H232292   6.338   3.142   1.660 -0.0713  0.3473  0.1300
 3553TIP3   OH232293   0.544   0.443   1.423 -0.4504  0.1364 -0.2987
 3553TIP3    H132294   0.602   0.367   1.434  0.1822  0.1640 -2.8250
 3553TIP3    H232295   0.493   0.423   1.345 -1.5167  1.5624 -0.0011
 3554TIP3   OH232296   3.024   2.425   8.502 -0.2237 -0.2788 -0.1896
 3554TIP3    H132297   3.116   2.450   8.513 -0.2821 -0.6324  1.3941
 3554TIP3    H232298   3.011   2.420   8.408  0.6232  2.5620 -0.5592
 3555TIP3   OH232299   3.461   1.498   1.984  0.0876  0.3391  0.2846
 3555TIP3    H132300   3.384   1.551   2.004 -0.1712 -0.3912  1.3220
 3555TIP3    H232301   3.428   1.409   1.977  0.8071  0.0447  0.5534
 3556TIP3   OH232302   0.406   4.283   2.815 -0.2289 -0.2285 -0.2884
 3556TIP3    H132303   0.426   4.368   2.855  0.9857 -0.3832 -0.5261
 3556TIP3    H232304   0.400   4.222   2.888  1.0893 -0.3354 -0.2304
 3557TIP3   OH232305   2.118   5.908   0.656 -0.0800  0.6230  0.0048
 3557TIP3    H132306   2.191   5.861   0.617 -0.5524  0.0972 -0.2472
 3557TIP3    H232307   2.145   5.922   0.747  0.3154  0.3980 -0.0748
 3558TIP3   OH232308   4.036   0.417   0.847 -0.6226  0.0094  0.2490
 3558TIP3    H132309   3.999   0.403   0.934 -1.3219 -1.9674 -0.3234
 3558TIP3    H232310   3.962   0.405   0.787 -0.1113  1.1384 -0.6549
 3559TIP3   OH232311   6.265   2.552   8.853  0.4984  0.4504 -0.4528
 3559TIP3    H132312   6.222   2.609   8.916  0.0840  0.1184 -0.4287
 3559TIP3    H232313   6.220   2.468   8.862 -0.6209  0.7870 -2.2465
 3560TIP3   OH232314   1.185   0.602   8.034 -0.4973 -0.6881  0.1060
 3560TIP3    H132315   1.223   0.687   8.058  0.4509 -1.3138  0.8803
 3560TIP3    H232316   1.254   0.557   7.987  0.1667 -2.2325  2.3887
 3561TIP3   OH232317   2.676   4.439   1.134 -0.0645 -0.8597 -0.1122
 3561TIP3    H132318   2.733   4.424   1.059  0.2416  1.0342 -0.3185
 3561TIP3    H232319   2.587   4.425   1.101  0.1449 -1.4281 -0.4433
 3562TIP3   OH232320   1.428   2.626   8.256  0.0146  0.1979  0.6416
 3562TIP3    H132321   1.406   2.683   8.182  0.0678  1.8754  1.8653
 3562TIP3    H232322   1.346   2.583   8.278 -0.4911  1.2339  0.8569
 3563TIP3   OH232323   0.943   0.496   2.669  0.1710  0.0041  0.3703
 3563TIP3    H132324   0.911   0.407   2.688  1.3745 -0.4488  0.3373
 3563TIP3    H232325   0.894   0.552   2.729 -3.1835 -0.1868 -1.8926
 3564TIP3   OH232326   6.327   6.256   1.756 -0.6647 -0.0585  0.1705
 3564TIP3    H132327   6.316   6.205   1.836 -1.5344 -0.4504 -0.1818
 3564TIP3    H232328   6.287   6.341   1.775  1.2821  0.7409  0.9485
 3565TIP3   OH232329   0.770   3.317   1.470 -0.4218 -0.1602 -0.4572
 3565TIP3    H132330   0.685   3.344   1.437 -0.5828 -1.2258 -0.9660
 3565TIP3    H232331   0.808   3.266   1.398 -0.2710 -1.5282  0.5664
 3566TIP3   OH232332   3.839   2.797   0.260 -0.0873  0.3761  0.2376
 3566TIP3    H132333   3.914   2.806   0.318 -0.2081  0.5472  0.3692
 3566TIP3    H232334   3.785   2.729   0.301 -0.9552  1.5904  1.1890
 3567TIP3   OH232335   4.629   3.719   8.609 -0.3340 -0.5009  0.4961
 3567TIP3    H132336   4.550   3.726   8.557 -0.6734  1.8823  1.2024
 3567TIP3    H232337   4.678   3.648   8.569 -2.1369 -1.0392 -0.8862
 3568TIP3   OH232338   0.533   6.310   0.538  0.5697  0.1051  0.1585
 3568TIP3    H132339   0.480   6.273   0.609  0.6010 -0.6365 -0.1958
 3568TIP3    H232340   0.483   6.386   0.508  0.8856  0.8436  1.4220
 3569TIP3   OH232341   1.068   5.687   0.314 -0.3007 -0.2602  0.0227
 3569TIP3    H132342   1.157   5.711   0.339 -0.3300  1.1978 -1.1053
 3569TIP3    H232343   1.066   5.592   0.320  0.7993 -0.2089  1.7130
 3570TIP3   OH232344   4.932   2.550   8.780  0.5585  0.2597  0.0403
 3570TIP3    H132345   4.925   2.465   8.825 -0.1213 -0.3695 -1.2182
 3570TIP3    H232346   4.988   2.602   8.837 -0.8090 -0.2754  1.9917
 3571TIP3   OH232347   2.284   4.038   8.925  0.2269 -1.1397  0.4155
 3571TIP3    H132348   2.374   4.048   8.892  0.0460  3.7802  0.7061
 3571TIP3    H232349   2.294   4.030   9.020  0.4597  1.1922  0.6471
 3572TIP3   OH232350   3.641   1.009   1.696  0.0456  0.3921  0.5293
 3572TIP3    H132351   3.572   1.067   1.663 -0.4757 -1.1258 -1.1876
 3572TIP3    H232352   3.663   1.045   1.782 -2.9491  0.8630  1.1918
 3573TIP3   OH232353   3.379   1.921   1.974 -0.5103  0.3095  0.4679
 3573TIP3    H132354   3.342   1.908   2.062  1.1343 -0.1516  1.1392
 3573TIP3    H232355   3.466   1.881   1.979 -0.6458 -0.3651 -1.6009
 3574TIP3   OH232356   3.431   0.055   0.935 -0.2165  0.3788 -0.2107
 3574TIP3    H132357   3.515   0.034   0.976 -1.1248  2.4833  3.0477
 3574TIP3    H232358   3.406  -0.026   0.890  1.3210 -1.9706  2.7780
 3575TIP3   OH232359   5.152   4.992   1.415 -0.4725 -0.1477  0.1493
 3575TIP3    H132360   5.220   4.973   1.350 -1.4207 -3.0578 -0.1263
 3575TIP3    H232361   5.072   5.004   1.364 -0.9219 -0.8153  0.6872
 3576TIP3   OH232362   6.669   4.853   2.066  0.2277 -0.2993 -0.2372
 3576TIP3    H132363   6.592   4.896   2.104  0.6518 -1.8871  2.6708
 3576TIP3    H232364   6.741   4.914   2.083 -0.1022  0.5231 -1.6452
 3577TIP3   OH232365   6.009   2.697   1.574 -0.1190 -0.4163 -0.1560
 3577TIP3    H132366   6.082   2.667   1.628  0.6930 -0.3201 -1.1635
 3577TIP3    H232367   6.036   2.783   1.543 -0.1810 -0.8215 -1.3874
 3578TIP3   OH232368   0.966   5.631   8.197  0.1648  0.4308  0.0032
 3578TIP3    H132369   0.904   5.559   8.190  0.8120 -0.1320  0.0208
 3578TIP3    H232370   1.039   5.596   8.247  1.1558  0.6364 -1.2594
 3579TIP3   OH232371   5.386   2.388   1.756  0.7021 -0.0088 -0.0245
 3579TIP3    H132372   5.455   2.425   1.811  1.0033  1.8566 -1.5533
 3579TIP3    H232373   5.430   2.362   1.675 -0.2710  0.6205 -0.7828
 3580TIP3   OH232374   0.313   0.030   0.499  0.3911 -0.1109 -0.0552
 3580TIP3    H132375   0.316   0.082   0.419 -1.8934  0.3542  0.1051
 3580TIP3    H232376   0.240   0.066   0.549  0.3837 -1.8012  1.2599
 3581TIP3   OH232377   2.946   5.972   1.949  0.4997 -0.0235  0.7605
 3581TIP3    H132378   2.903   5.958   2.033 -0.1678  1.0681  0.6180
 3581TIP3    H232379   3.010   5.901   1.943 -1.1102 -1.5671  1.0601
 3582TIP3   OH232380   5.243   4.151   7.871  0.2276  0.8522  0.6575
 3582TIP3    H132381   5.194   4.115   7.796 -0.1123 -0.7158  1.5876
 3582TIP3    H232382   5.282   4.231   7.837  0.8149 -0.2514 -1.4858
 3583TIP3   OH232383   1.277   0.481   1.806 -0.4718  0.5389  0.1580
 3583TIP3    H132384   1.305   0.515   1.892 -0.9824 -0.0961  0.5860
 3583TIP3    H232385   1.355   0.490   1.751  0.1665  0.0568  0.9573
 3584TIP3   OH232386   6.362   5.486   0.473  0.0803 -0.1848  0.4300
 3584TIP3    H132387   6.290   5.443   0.519  0.9122 -0.4831  1.4886
 3584TIP3    H232388   6.419   5.519   0.543  2.4301 -2.3768 -0.2954
 3585TIP3   OH232389   3.560   1.300   2.868  0.1297  0.2888  0.0962
 3585TIP3    H132390   3.544   1.267   2.956  0.0310 -0.1728 -0.0936
 3585TIP3    H232391   3.488   1.361   2.851  0.5961  1.0103  0.6471
 3586TIP3   OH232392   6.056   6.217   0.272 -0.1975 -0.3095  0.3809
 3586TIP3    H132393   6.014   6.192   0.353 -1.1267  2.8053  1.0048
 3586TIP3    H232394   6.134   6.266   0.299 -1.3959  2.2431 -0.4094
 3587TIP3   OH232395   5.254   3.531   0.594  0.0956  0.3607  0.2940
 3587TIP3    H132396   5.303   3.491   0.523 -0.7266  1.3546 -0.8742
 3587TIP3    H232397   5.254   3.625   0.573  0.2274  0.7344  1.8458
 3588TIP3   OH232398   6.022   3.410   8.361 -0.4797  0.2572  0.5153
 3588TIP3    H132399   5.977   3.475   8.307 -0.3989 -0.1181 -0.0091
 3588TIP3    H232400   6.115   3.421   8.340 -0.3599  0.7104  1.2449
 3589TIP3   OH232401   5.980   2.845   8.923 -0.5874 -0.2731  0.0424
 3589TIP3    H132402   5.938   2.929   8.939  0.7940  0.5607 -0.5162
 3589TIP3    H232403   5.998   2.844   8.829 -0.0525 -0.9147  0.1382
 3590TIP3   OH232404   0.815   3.736   8.945  0.6441 -0.0435  0.0832
 3590TIP3    H132405   0.853   3.688   8.871  0.4587  0.2140 -0.1871
 3590TIP3    H232406   0.841   3.827   8.929 -0.2377  0.1697 -0.2115
 3591TIP3   OH232407   3.534   0.267   2.373 -0.0153  0.0848  0.2954
 3591TIP3    H132408   3.439   0.269   2.384 -0.1427  0.6238 -0.7501
 3591TIP3    H232409   3.554   0.175   2.358 -0.2713 -0.1423  1.3225
 3592TIP3   OH232410   4.055   5.397   2.527 -0.2429 -0.1286  0.2849
 3592TIP3    H132411   3.979   5.400   2.584 -0.7720 -0.1081 -0.4136
 3592TIP3    H232412   4.124   5.442   2.577 -0.9924  0.8462  0.4630
 3593TIP3   OH232413   2.416   3.595   8.738  0.1830  0.9976  0.6506
 3593TIP3    H132414   2.479   3.591   8.811  0.4463 -2.0374  0.3722
 3593TIP3    H232415   2.468   3.619   8.662  0.6582  0.3463  0.7671
 3594TIP3   OH232416   6.703   2.000   2.051 -0.2643 -0.5717 -0.8276
 3594TIP3    H132417   6.771   2.028   1.990 -0.7352  0.6501 -0.8173
 3594TIP3    H232418   6.623   1.998   1.999 -0.7536  0.9131 -0.1970
 3595TIP3   OH232419   1.781   0.232   7.263 -0.4441 -0.1332  0.0520
 3595TIP3    H132420   1.702   0.260   7.217 -2.4429 -3.1915  1.3614
 3595TIP3    H232421   1.808   0.152   7.218  0.2423 -0.6577  1.3664
 3596TIP3   OH232422   1.227   1.575   2.411  0.1521  0.0599 -0.2338
 3596TIP3    H132423   1.137   1.585   2.443 -0.0623  1.4447 -1.1634
 3596TIP3    H232424   1.277   1.641   2.460  0.3184  0.4410 -0.9099
 3597TIP3   OH232425   2.585   4.673   1.224 -0.1267  0.1287  0.6206
 3597TIP3    H132426   2.580   4.739   1.155 -1.6131 -0.8107 -0.2353
 3597TIP3    H232427   2.636   4.601   1.185 -0.3111 -0.0883  0.7760
 3598TIP3   OH232428   1.122   0.996   1.125 -0.1667 -0.6977  0.7212
 3598TIP3    H132429   1.050   1.020   1.183 -0.9242 -0.8205 -0.1463
 3598TIP3    H232430   1.149   0.909   1.156 -0.8462 -0.9471  0.6382
 3599TIP3   OH232431   3.633   4.886   1.347 -0.7215  0.7690 -0.2518
 3599TIP3    H132432   3.644   4.800   1.386  1.6598  0.1988 -1.9875
 3599TIP3    H232433   3.653   4.947   1.418  1.2240 -0.1888  0.0776
 3600TIP3   OH232434   1.782   3.001   8.964  0.2489 -0.2661 -0.6174
 3600TIP3    H132435   1.803   2.922   9.015  0.9357  0.5506  0.4099
 3600TIP3    H232436   1.737   3.058   9.026  0.3863  0.4318 -1.1496
 3601TIP3   OH232437   2.931   2.744   7.715  0.0433  0.1311 -0.0474
 3601TIP3    H132438   2.932   2.792   7.633  0.2062  0.5122  0.1758
 3601TIP3    H232439   2.903   2.808   7.780 -1.0592 -0.4128  0.0434
 3602TIP3   OH232440   2.093   5.243   8.412  0.1122 -0.2445 -0.0363
 3602TIP3    H132441   2.150   5.256   8.337 -0.0115  1.3817  0.1173
 3602TIP3    H232442   2.064   5.331   8.437  0.3131 -0.6971  2.0487
 3603TIP3   OH232443   5.369   4.942   2.591  0.1768  0.1066  0.4255
 3603TIP3    H132444   5.410   4.862   2.625 -0.1497  0.6960  2.3170
 3603TIP3    H232445   5.311   4.971   2.661  0.7805  2.3856  0.0471
 3604TIP3   OH232446   5.689   1.121   2.005  0.2309 -0.4123  0.0476
 3604TIP3    H132447   5.781   1.099   2.013 -0.3416 -2.3484  2.9454
 3604TIP3    H232448   5.670   1.174   2.083 -0.8674  1.0840 -1.1757
 3605TIP3   OH232449   6.150   3.332   1.430  0.3470 -0.0101 -0.1954
 3605TIP3    H132450   6.094   3.408   1.448  0.2287  0.0742 -0.8855
 3605TIP3    H232451   6.159   3.331   1.334 -1.5800 -2.2099 -0.4492
 3606TIP3   OH232452   4.874   2.907   1.703  0.1478 -0.5123  0.1116
 3606TIP3    H132453   4.860   2.907   1.608 -3.5705  0.3986  0.4851
 3606TIP3    H232454   4.913   2.992   1.721  1.3465 -0.8890 -0.6164
 3607TIP3   OH232455   2.370   2.276   0.397  0.6605  0.4217  0.3395
 3607TIP3    H132456   2.410   2.363   0.399  0.8656  0.3359  0.0661
 3607TIP3    H232457   2.337   2.266   0.308  2.3744 -0.5469 -0.2425
 3608TIP3   OH232458   6.709   6.245   1.567  0.1203  0.2062 -0.4268
 3608TIP3    H132459   6.802   6.235   1.547  0.6167  2.1539  0.6971
 3608TIP3    H232460   6.690   6.338   1.553 -1.6821 -0.1482 -0.6653
 3609TIP3   OH232461   3.960   5.932   1.350 -0.5710 -0.4748  0.1709
 3609TIP3    H132462   3.872   5.913   1.381 -0.0065 -0.4812  1.8411
 3609TIP3    H232463   3.946   5.994   1.278 -1.9333 -0.4344  0.4366
 3610TIP3   OH232464   5.558   0.194   1.311 -0.0564 -0.4919 -0.3232
 3610TIP3    H132465   5.482   0.143   1.283 -0.8119 -0.9016  2.2626
 3610TIP3    H232466   5.569   0.260   1.242 -2.0542 -1.1303 -1.3208
 3611TIP3   OH232467   5.800   4.255   0.148 -0.5586  0.1739 -0.0666
 3611TIP3    H132468   5.768   4.278   0.061  0.4011  1.8807  0.0022
 3611TIP3    H232469   5.720   4.234   0.198 -1.4955  2.7543 -0.3455
 3612TIP3   OH232470   5.383   5.286   2.200 -0.0791  0.1254 -0.5530
 3612TIP3    H132471   5.348   5.223   2.137  1.3047 -1.2675  0.0223
 3612TIP3    H232472   5.440   5.343   2.149  0.4285 -0.5096 -0.7013
 3613TIP3   OH232473   4.947   4.079   8.940  0.2001 -0.2187 -0.5947
 3613TIP3    H132474   4.908   4.089   8.853  1.4411 -0.9502 -1.2711
 3613TIP3    H232475   4.953   3.985   8.954  0.5997 -0.1157 -0.0042
 3614TIP3   OH232476   1.654   4.006   3.302  0.1663  0.1936  0.1180
 3614TIP3    H132477   1.598   4.053   3.240  0.2317  0.2287  0.0847
 3614TIP3    H232478   1.683   4.074   3.363 -0.6019 -0.0009  0.7110
 3615TIP3   OH232479   6.607   3.391   2.118 -0.2366 -0.3662  0.0807
 3615TIP3    H132480   6.551   3.356   2.049  1.1591 -1.9032 -0.3188
 3615TIP3    H232481   6.549   3.402   2.194 -2.3784  3.5627 -1.8038
 3616TIP3   OH232482   4.512   3.042   7.578 -0.0525 -0.6939 -0.1840
 3616TIP3    H132483   4.498   3.024   7.671  0.2530 -1.6264 -0.3121
 3616TIP3    H232484   4.470   2.969   7.532 -1.9010  0.7065 -0.8799
 3617TIP3   OH232485   3.117   6.448   2.485 -0.4530  0.2877  0.0652
 3617TIP3    H132486   3.179   6.380   2.512  0.6964  0.5947 -1.6549
 3617TIP3    H232487   3.036   6.400   2.466  0.3371 -0.6536 -1.1217
 3618TIP3   OH232488   1.974   3.891   2.922  0.3624  0.2974  0.0885
 3618TIP3    H132489   1.936   3.912   3.008 -0.3036 -1.1581  0.1830
 3618TIP3    H232490   1.957   3.968   2.869  0.6422  1.1650  1.2105
 3619TIP3   OH232491   4.397   0.758   1.602  0.0364  0.6443  0.0155
 3619TIP3    H132492   4.379   0.759   1.508 -0.6083  1.5886  0.1352
 3619TIP3    H232493   4.363   0.674   1.632 -1.4446  1.1159 -0.2938
 3620TIP3   OH232494   3.800   4.486   9.018 -0.0547 -0.1114 -0.2013
 3620TIP3    H132495   3.743   4.496   8.942 -0.4026 -1.7325 -0.1864
 3620TIP3    H232496   3.827   4.394   9.016  2.2735  0.5170  0.0090
 3621TIP3   OH232497   1.250   2.691   8.861  0.3347  0.1177 -0.3971
 3621TIP3    H132498   1.253   2.761   8.795  0.9513  1.1262  0.6600
 3621TIP3    H232499   1.336   2.651   8.857 -0.3640 -1.3693 -1.7651
 3622TIP3   OH232500   0.858   4.146   9.046 -0.0780 -0.7047 -0.0273
 3622TIP3    H132501   0.772   4.159   9.005  0.7981 -0.7531 -2.0140
 3622TIP3    H232502   0.840   4.096   9.125 -1.9075 -0.4561 -0.2448
 3623TIP3   OH232503   1.635   5.958   7.595 -0.3025  0.4854  0.3248
 3623TIP3    H132504   1.714   6.011   7.602  0.8100 -0.9728 -0.5711
 3623TIP3    H232505   1.576   5.994   7.661  0.9542  1.8533  0.7522
 3624TIP3   OH232506   3.130   6.237   3.072 -0.3611  0.1828  0.5345
 3624TIP3    H132507   3.052   6.185   3.087 -0.8783 -0.1707 -2.6819
 3624TIP3    H232508   3.100   6.328   3.075 -0.2274  0.1864  2.3595
 3625TIP3   OH232509   4.075   2.033   8.478 -0.4533 -0.3910 -0.0696
 3625TIP3    H132510   4.033   2.069   8.557 -0.7923  1.1345 -0.8862
 3625TIP3    H232511   4.123   1.956   8.508 -0.0407  0.5231  1.7377
 3626TIP3   OH232512   2.951   1.617   1.883 -0.3381 -0.1589  0.5520
 3626TIP3    H132513   2.932   1.532   1.843 -0.1010 -0.1146  0.3469
 3626TIP3    H232514   2.896   1.619   1.961 -0.3811 -0.4803  0.5315
 3627TIP3   OH232515   5.313   1.975   1.046 -0.0352  0.2110 -0.3793
 3627TIP3    H132516   5.272   2.058   1.070 -0.1285  0.2650 -0.7299
 3627TIP3    H232517   5.246   1.909   1.063  0.0367  0.2059 -0.1057
 3628TIP3   OH232518   6.503   1.510   2.902  0.1518 -0.1473 -0.5793
 3628TIP3    H132519   6.476   1.482   2.989 -0.4549  0.9026 -0.4108
 3628TIP3    H232520   6.492   1.605   2.903  0.3999 -0.0920 -1.7174
 3629TIP3   OH232521   0.154   5.544   2.755 -0.3919 -0.1577 -0.2349
 3629TIP3    H132522   0.231   5.487   2.765 -2.3224 -3.2319 -1.3797
 3629TIP3    H232523   0.144   5.555   2.660 -1.5921 -0.1760 -0.1268
 3630TIP3   OH232524   2.741   5.337   1.049  0.2678 -0.5053  0.4845
 3630TIP3    H132525   2.822   5.298   1.017 -0.9273 -1.0186 -2.2216
 3630TIP3    H232526   2.720   5.405   0.985 -1.1286  0.0475  1.4720
 3631TIP3   OH232527   0.203   4.830   0.076 -0.1171 -0.3109 -0.1461
 3631TIP3    H132528   0.180   4.771   0.147 -1.3965  1.6017  1.1222
 3631TIP3    H232529   0.262   4.894   0.115  1.4914 -0.8351 -1.5626
 3632TIP3   OH232530   6.582   0.021   0.247 -0.1390 -0.1654  0.3016
 3632TIP3    H132531   6.587   0.104   0.294 -2.0376  0.0934  0.1002
 3632TIP3    H232532   6.594   0.044   0.155 -1.3581  0.0132  0.1693
 3633TIP3   OH232533   3.943   1.394   0.671  0.7536 -0.3780 -0.0861
 3633TIP3    H132534   4.000   1.333   0.717  0.4035 -0.1172  0.7041
 3633TIP3    H232535   3.888   1.433   0.739  0.9557  0.8110 -0.5811
 3634TIP3   OH232536   5.370   4.721   0.655  0.7197 -0.0688 -0.3748
 3634TIP3    H132537   5.433   4.775   0.703  1.1052 -1.7457  1.0736
 3634TIP3    H232538   5.289   4.730   0.704  0.3384  0.4707 -1.0821
 3635TIP3   OH232539   2.573   3.344   1.728  0.6940 -0.0607  0.3273
 3635TIP3    H132540   2.606   3.305   1.648 -1.2921 -1.4688  0.1347
 3635TIP3    H232541   2.559   3.436   1.706  1.5716 -0.1028 -0.4638
 3636TIP3   OH232542   2.809   5.083   0.066 -0.5146  0.4884 -0.0388
 3636TIP3    H132543   2.729   5.057   0.020 -2.3651  1.5077  2.3995
 3636TIP3    H232544   2.873   5.016   0.041 -2.1480 -0.4844 -1.9403
 3637TIP3   OH232545   6.493   2.005   8.892 -0.1339 -0.0159  0.0208
 3637TIP3    H132546   6.420   1.946   8.877  0.2688 -0.2308 -1.1331
 3637TIP3    H232547   6.551   1.993   8.817 -0.1053  1.9399 -0.3167
 3638TIP3   OH232548   4.415   2.623   2.950  0.2780 -0.5816 -0.1817
 3638TIP3    H132549   4.322   2.639   2.965  0.7616  0.0787  2.6140
 3638TIP3    H232550   4.458   2.703   2.981  1.8538 -1.2826 -0.4795
 3639TIP3   OH232551   4.595   5.143   0.592 -0.2573  0.2848  0.1183
 3639TIP3    H132552   4.577   5.152   0.498 -0.8067  1.2718  0.3002
 3639TIP3    H232553   4.551   5.218   0.632  0.0696 -0.0581  1.1582
 3640TIP3   OH232554   4.152   0.824   8.712 -0.5127  0.3705 -0.0308
 3640TIP3    H132555   4.178   0.815   8.620 -1.5005 -0.8294 -0.2150
 3640TIP3    H232556   4.065   0.784   8.716 -0.5159  0.4907  1.4094
 3641TIP3   OH232557   4.144   2.439   8.537  0.1917  0.0540  0.1665
 3641TIP3    H132558   4.175   2.375   8.601 -3.3606 -2.0161  0.0917
 3641TIP3    H232559   4.160   2.398   8.452 -3.3658 -1.6826  0.1430
 3642TIP3   OH232560   3.011   4.390   7.589 -0.4689 -0.5965 -0.3394
 3642TIP3    H132561   2.995   4.352   7.502  1.1730  1.1038 -1.4515
 3642TIP3    H232562   3.080   4.336   7.627 -0.9385 -1.1269 -0.2309
 3643TIP3   OH232563   2.146   1.893   2.392  0.2461  0.0413 -0.0808
 3643TIP3    H132564   2.214   1.830   2.367  0.7323  0.5450 -0.0560
 3643TIP3    H232565   2.099   1.850   2.464  0.1293 -0.5754 -0.5239
 3644TIP3   OH232566   2.344   3.587   2.636  0.1196 -0.5200 -0.2349
 3644TIP3    H132567   2.408   3.648   2.601  2.0435 -0.8658  2.3727
 3644TIP3    H232568   2.290   3.640   2.694 -0.1428 -0.7455 -0.2699
 3645TIP3   OH232569   2.803   4.482   2.928 -0.1446 -0.0612  0.1998
 3645TIP3    H132570   2.806   4.543   2.854  3.0781 -1.3264 -0.8919
 3645TIP3    H232571   2.859   4.523   2.995 -1.0791 -0.0679  1.0054
 3646TIP3   OH232572   0.054   5.966   3.032  0.3394 -0.0616 -0.1046
 3646TIP3    H132573  -0.039   5.963   3.010  0.2249  1.0468  0.1586
 3646TIP3    H232574   0.096   6.001   2.953  0.4255  0.1985  0.0552
 3647TIP3   OH232575   2.482   6.312   1.176  0.1438  0.2232  0.0055
 3647TIP3    H132576   2.506   6.297   1.084  0.5937 -0.2686  0.1984
 3647TIP3    H232577   2.481   6.224   1.215  0.7857  0.5051  0.6771
 3648TIP3   OH232578   3.669   1.126   0.824  0.1285 -0.4292 -0.2894
 3648TIP3    H132579   3.656   1.208   0.777  4.0613  0.7053  0.2240
 3648TIP3    H232580   3.662   1.151   0.917 -0.2576 -1.0710 -0.1387
 3649TIP3   OH232581   4.493   4.161   1.390  0.3358  0.0503  0.2780
 3649TIP3    H132582   4.429   4.105   1.435 -1.1751  0.6557 -1.0133
 3649TIP3    H232583   4.474   4.249   1.421 -0.4223  0.4143 -1.1598
 3650TIP3   OH232584   2.737   5.146   8.755  0.4566  0.2567 -0.1843
 3650TIP3    H132585   2.732   5.121   8.848 -0.2448  0.0602 -0.2670
 3650TIP3    H232586   2.798   5.219   8.754  1.2370 -0.3615  0.2967
 3651TIP3   OH232587   5.695   3.839   2.891 -0.3842  0.2746 -0.6880
 3651TIP3    H132588   5.742   3.760   2.866  0.1878  0.1297  0.7666
 3651TIP3    H232589   5.763   3.903   2.913 -0.8353  0.4803  0.1952
 3652TIP3   OH232590   5.763   1.628   2.410 -0.1403  0.4626  0.3708
 3652TIP3    H132591   5.775   1.671   2.495 -0.6666  2.0964 -0.3457
 3652TIP3    H232592   5.773   1.534   2.429  0.8216  0.8650  2.0246
 3653TIP3   OH232593   6.196   6.299   2.481  0.0919 -0.1322  0.0893
 3653TIP3    H132594   6.259   6.231   2.459 -0.0974 -0.3114  0.1026
 3653TIP3    H232595   6.242   6.355   2.543  0.6298  0.3716 -0.7349
 3654TIP3   OH232596   4.708   1.366   1.212  0.1300  0.3581 -0.2298
 3654TIP3    H132597   4.638   1.376   1.276  0.6300  2.0557  0.1043
 3654TIP3    H232598   4.663   1.360   1.128 -0.4604 -0.0517  0.1100
 3655TIP3   OH232599   1.726   2.400   2.082 -0.3322 -0.0503  0.5271
 3655TIP3    H132600   1.764   2.488   2.079 -1.5061  0.5482  1.9538
 3655TIP3    H232601   1.633   2.413   2.066 -0.4758 -1.1003  0.4033
 3656TIP3   OH232602   4.188   2.756   0.236  0.1885 -0.3029  0.0413
 3656TIP3    H132603   4.158   2.793   0.319 -1.3285 -0.1275 -0.5515
 3656TIP3    H232604   4.249   2.821   0.201 -1.0475  0.8030 -0.1220
 3657TIP3   OH232605   0.777   3.491   1.105 -0.2294 -0.5526  0.2891
 3657TIP3    H132606   0.683   3.472   1.115 -0.1268 -0.3923  1.9126
 3657TIP3    H232607   0.805   3.515   1.193  1.2520 -0.1483 -0.2725
 3658TIP3   OH232608   2.556   4.208   0.557  0.1443 -0.3160 -0.1912
 3658TIP3    H132609   2.612   4.130   0.558  1.1849  0.4132 -0.4697
 3658TIP3    H232610   2.476   4.180   0.602  0.5919 -1.4754 -0.0776
 3659TIP3   OH232611   4.571   1.465   2.691  0.4610  0.1888  0.1307
 3659TIP3    H132612   4.578   1.537   2.753 -0.9106  0.0932  0.4323
 3659TIP3    H232613   4.503   1.409   2.727  0.5728 -0.5610 -0.7860
 3660TIP3   OH232614   1.297   5.693   2.198  0.4247 -0.2329  0.5922
 3660TIP3    H132615   1.210   5.718   2.165  1.0043  0.6307 -0.3507
 3660TIP3    H232616   1.344   5.665   2.120  1.6801  1.3651  0.7188
 3661TIP3   OH232617   2.059   6.482   0.512 -0.1218 -0.2211  0.0133
 3661TIP3    H132618   1.999   6.500   0.585  2.1562 -0.2153  1.9951
 3661TIP3    H232619   2.095   6.567   0.489  1.4775 -0.5856  1.0379
 3662TIP3   OH232620   1.258   4.811   0.739 -0.4189  0.1901  0.7087
 3662TIP3    H132621   1.177   4.856   0.764 -1.1493 -0.3425 -0.6350
 3662TIP3    H232622   1.250   4.724   0.777 -0.7649 -0.0539  0.1058
 3663TIP3   OH232623   1.079   0.502   0.717 -0.3295 -0.4539 -0.6074
 3663TIP3    H132624   1.071   0.580   0.772  2.1589 -0.7767  0.3278
 3663TIP3    H232625   1.108   0.536   0.632  0.6118 -0.3046 -0.2437
 3664TIP3   OH232626   1.873   6.027   8.087 -0.2939 -0.4570 -0.4093
 3664TIP3    H132627   1.875   6.025   8.183 -0.5361 -2.1567 -0.3976
 3664TIP3    H232628   1.960   6.057   8.061 -0.9097  2.2011  0.3192
 3665TIP3   OH232629   2.370   1.970   2.195 -0.3598  0.6915  0.4165
 3665TIP3    H132630   2.364   1.996   2.287 -0.1395  1.1351  0.3098
 3665TIP3    H232631   2.464   1.969   2.176 -0.3239 -0.7253  0.5601
 3666TIP3   OH232632   3.114   4.652   3.489 -0.0871  0.0499 -0.3914
 3666TIP3    H132633   3.150   4.564   3.484 -0.1185  0.1039 -2.5561
 3666TIP3    H232634   3.190   4.709   3.498 -0.0482 -0.1560  0.7088
 3667TIP3   OH232635   0.881   5.772   8.954  0.2714  0.1907  0.2295
 3667TIP3    H132636   0.807   5.713   8.969  1.4983 -1.0556  1.7985
 3667TIP3    H232637   0.909   5.754   8.864 -0.8421  0.1476 -0.1245
 3668TIP3   OH232638   0.516   1.977   8.489 -0.2001 -0.5527  0.8496
 3668TIP3    H132639   0.564   2.048   8.531 -1.0765  1.8228 -1.8214
 3668TIP3    H232640   0.425   1.990   8.515 -0.4158 -0.4408  0.0804
 3669TIP3   OH232641   1.953   4.156   0.745 -0.3011  0.4211 -0.3905
 3669TIP3    H132642   1.859   4.151   0.765 -0.4094  1.3141 -0.6433
 3669TIP3    H232643   1.962   4.110   0.661 -0.6003  0.8042 -0.6337
 3670TIP3   OH232644   2.434   4.918   2.942  0.0144  0.9461 -0.0687
 3670TIP3    H132645   2.418   4.908   3.036  2.7411  1.0159  0.4940
 3670TIP3    H232646   2.360   4.969   2.911 -0.1872  2.3265  2.3767
 3671TIP3   OH232647   6.369   4.662   1.110 -0.7977 -0.3639  0.3453
 3671TIP3    H132648   6.305   4.721   1.072 -0.2815 -0.1224 -0.1629
 3671TIP3    H232649   6.352   4.664   1.204 -0.4414  1.0125  0.3942
 3672TIP3   OH232650   4.981   1.899   2.360  0.2709 -0.0208 -0.7815
 3672TIP3    H132651   4.950   1.892   2.270 -0.8303  2.6180 -0.7204
 3672TIP3    H232652   5.076   1.908   2.352  0.0889  1.3634 -1.8243
 3673TIP3   OH232653   3.690   0.555   1.463 -0.4996  0.4940 -0.2663
 3673TIP3    H132654   3.708   0.544   1.557 -2.1913 -0.8192 -0.0471
 3673TIP3    H232655   3.645   0.639   1.457  0.9054  1.2918 -0.1377
 3674TIP3   OH232656   0.297   4.535   3.206  0.7362 -0.5504  0.5598
 3674TIP3    H132657   0.307   4.511   3.298  1.0110  0.9508  0.9594
 3674TIP3    H232658   0.268   4.626   3.208  1.6517 -0.1837 -0.8397
 3675TIP3   OH232659   3.656   3.437   7.564 -0.0390  0.9292 -0.3350
 3675TIP3    H132660   3.738   3.411   7.522  1.0280  1.5254  1.2958
 3675TIP3    H232661   3.604   3.357   7.565  0.9996  0.2303 -0.3170
 3676TIP3   OH232662   3.077   6.575   1.048  0.3104 -0.2528 -0.3510
 3676TIP3    H132663   3.025   6.497   1.067 -1.1783  0.8303  0.2862
 3676TIP3    H232664   3.123   6.594   1.130 -2.1311  1.5110  0.7305
 3677TIP3   OH232665   0.785   2.313   2.615 -0.3650 -0.2702  0.1436
 3677TIP3    H132666   0.731   2.388   2.594  0.7354  0.7751  0.9417
 3677TIP3    H232667   0.873   2.336   2.584 -0.1184 -1.4676 -0.1293
 3678TIP3   OH232668   1.429   3.661   0.014 -0.8620  0.7486 -0.2603
 3678TIP3    H132669   1.346   3.645   0.061 -1.2221 -0.0193 -1.1147
 3678TIP3    H232670   1.403   3.707  -0.066 -0.6117 -0.3833 -1.0224
 3679TIP3   OH232671   5.115   3.647   2.790  0.4131 -0.4459 -0.0034
 3679TIP3    H132672   5.195   3.688   2.755 -0.0766 -0.3509 -1.0400
 3679TIP3    H232673   5.064   3.720   2.825  0.2322 -0.3506 -0.4581
 3680TIP3   OH232674   0.225   3.660   0.446 -0.4307 -0.1430  0.1895
 3680TIP3    H132675   0.176   3.585   0.479  2.2256 -1.6651  0.9374
 3680TIP3    H232676   0.225   3.723   0.518 -0.6540 -0.4389  0.4479
 3681TIP3   OH232677   5.030   4.327   1.218 -0.6629  0.1034 -0.0332
 3681TIP3    H132678   5.081   4.248   1.234 -2.0460 -0.6745  0.7774
 3681TIP3    H232679   4.985   4.344   1.300 -1.1236  1.1880 -0.4878
 3682TIP3   OH232680   5.482   4.687   7.481  0.0447  0.0801  0.4356
 3682TIP3    H132681   5.434   4.765   7.453  0.5388  0.5810  0.9397
 3682TIP3    H232682   5.420   4.638   7.535 -0.0748  0.4428  0.6298
 3683TIP3   OH232683   6.164   1.025   1.273 -0.3403 -0.0639 -0.3911
 3683TIP3    H132684   6.253   0.998   1.296  0.5913  1.0886 -2.4310
 3683TIP3    H232685   6.112   0.944   1.276  0.6339 -0.6773  1.2450
 3684TIP3   OH232686   6.556   5.944   0.193  0.4701 -0.1753 -0.3122
 3684TIP3    H132687   6.583   5.860   0.231  2.9909  1.0199  0.8057
 3684TIP3    H232688   6.496   5.920   0.123  2.7564 -3.0735 -1.5160
 3685TIP3   OH232689   1.932   0.187   8.910 -0.5267 -0.5999 -0.4231
 3685TIP3    H132690   1.918   0.243   8.834  0.3611 -0.1818 -0.2874
 3685TIP3    H232691   1.957   0.102   8.873 -0.2417 -0.4381 -0.6053
 3686TIP3   OH232692   2.569   2.406   1.486 -0.8454  0.3463  0.1717
 3686TIP3    H132693   2.519   2.340   1.437  0.0010  0.6021 -1.0911
 3686TIP3    H232694   2.655   2.365   1.500 -0.1780  1.2991 -0.9754
 3687TIP3   OH232695   4.094   2.340   1.036  0.0577 -0.4029 -0.5790
 3687TIP3    H132696   4.149   2.338   1.114 -1.8326 -1.0056  0.8203
 3687TIP3    H232697   4.046   2.423   1.042 -0.6594 -0.7962 -0.6667
 3688TIP3   OH232698   5.444   3.497   3.422  0.0333 -0.0795 -0.2425
 3688TIP3    H132699   5.523   3.453   3.453 -0.2209 -0.1077  0.3800
 3688TIP3    H232700   5.382   3.426   3.406 -0.3134  0.0288  0.5771
 3689TIP3   OH232701   2.255   2.221   3.447 -0.8313 -0.2892 -0.1517
 3689TIP3    H132702   2.175   2.262   3.415 -1.5826 -1.4850  0.1332
 3689TIP3    H232703   2.249   2.228   3.543 -1.1709 -1.3892 -0.0798
 3690TIP3   OH232704   3.232   2.069   0.578  0.0933  0.2446  0.5029
 3690TIP3    H132705   3.244   1.981   0.616  0.3892  0.1310  0.1470
 3690TIP3    H232706   3.183   2.054   0.497 -0.4019  0.4739  0.7529
 3691TIP3   OH232707   4.599   3.463   3.344  0.1463 -0.1158  0.4708
 3691TIP3    H132708   4.553   3.541   3.312 -0.6401  0.2143  2.2466
 3691TIP3    H232709   4.686   3.495   3.369  0.2172 -0.0559  0.1536
 3692TIP3   OH232710   6.384   4.742   0.737 -0.1872  0.8909  0.0444
 3692TIP3    H132711   6.450   4.761   0.804 -1.0348  0.9225  0.9043
 3692TIP3    H232712   6.434   4.713   0.661  0.7648 -0.0125  0.9785
 3693TIP3   OH232713   3.164   5.905   2.650 -0.7249 -0.4433 -0.0054
 3693TIP3    H132714   3.198   5.840   2.712  0.6604 -1.2258 -1.4897
 3693TIP3    H232715   3.224   5.979   2.657 -1.0593 -0.1885  0.1816
 3694TIP3   OH232716   3.328   5.638   3.092  0.2632 -0.2201  0.2584
 3694TIP3    H132717   3.284   5.616   3.174  0.8521 -0.5241  0.5058
 3694TIP3    H232718   3.392   5.568   3.081  1.5053  0.8380  0.5319
 3695TIP3   OH232719   3.249   3.915   0.014  0.1794 -0.2877  0.0745
 3695TIP3    H132720   3.337   3.896  -0.019 -0.2333 -0.1401 -1.1385
 3695TIP3    H232721   3.219   3.832   0.052  0.2092 -0.8098 -0.9977
 3696TIP3   OH232722   5.924   6.426   1.854 -0.0417 -0.2419 -0.4698
 3696TIP3    H132723   5.962   6.496   1.908 -1.5276  0.2324  0.0129
 3696TIP3    H232724   5.929   6.460   1.765 -0.8820  0.5893 -0.2271
 3697TIP3   OH232725   1.386   4.960   0.071 -0.3048 -0.8619 -0.0933
 3697TIP3    H132726   1.352   5.014  -0.001  0.6362 -0.6985 -0.4183
 3697TIP3    H232727   1.418   5.023   0.136 -0.1699 -1.0219 -0.0031
 3698TIP3   OH232728   2.975   1.476   3.630 -0.1113 -0.4202 -0.4300
 3698TIP3    H132729   2.973   1.381   3.638 -0.0541 -0.4400 -0.6619
 3698TIP3    H232730   2.895   1.506   3.673  0.2291 -0.5264  0.3011
 3699TIP3   OH232731   1.294   3.677   8.493 -0.3567  0.2820 -0.3801
 3699TIP3    H132732   1.203   3.705   8.507 -0.1333 -0.1449  2.4495
 3699TIP3    H232733   1.287   3.588   8.460 -0.9350  1.2750 -3.2591
 3700TIP3   OH232734   2.292   6.642   7.330 -0.4631  0.2882  0.2792
 3700TIP3    H132735   2.326   6.706   7.268  0.7222  0.3663  0.9848
 3700TIP3    H232736   2.278   6.562   7.278 -1.5107  0.9532 -0.5047
 3701TIP3   OH232737   1.001   1.882   2.433 -0.0494  0.3736  0.0785
 3701TIP3    H132738   1.083   1.931   2.423  0.8275 -0.4800  2.4629
 3701TIP3    H232739   1.028   1.797   2.469 -1.7831 -0.9090 -1.4266
 3702TIP3   OH232740   3.047   5.379   0.580  0.1096 -0.3298  0.1178
 3702TIP3    H132741   3.091   5.373   0.495  1.5966 -0.3679  0.8579
 3702TIP3    H232742   3.044   5.289   0.612 -0.0363 -0.2598  0.3049
 3703TIP3   OH232743   0.097   1.544   1.940  0.5756 -0.7987  0.0022
 3703TIP3    H132744   0.107   1.611   2.008  1.1085  0.3130 -1.1390
 3703TIP3    H232745   0.010   1.507   1.956 -0.1055  0.7827  0.1276
 3704TIP3   OH232746   3.970   6.712   2.017 -0.1516  0.4301 -0.0851
 3704TIP3    H132747   3.974   6.618   2.037  0.9345  0.4461 -0.1517
 3704TIP3    H232748   3.891   6.743   2.061 -1.0161 -0.6762 -0.7924
 3705TIP3   OH232749   6.551   3.592   0.183  0.1435  0.4942 -0.2427
 3705TIP3    H132750   6.570   3.501   0.206 -0.0156  0.8339  1.3805
 3705TIP3    H232751   6.624   3.642   0.221  0.1796  1.0626 -1.0356
 3706TIP3   OH232752   4.467   1.269   1.819  0.0285  0.5267  0.6194
 3706TIP3    H132753   4.404   1.331   1.781  0.0702  1.5903  2.2102
 3706TIP3    H232754   4.534   1.325   1.858  1.7511 -0.5877 -0.6170
 3707TIP3   OH232755   5.526   3.920   0.760  0.1831  0.2586  0.1551
 3707TIP3    H132756   5.527   3.911   0.855  0.3517  1.4002  0.2675
 3707TIP3    H232757   5.562   3.837   0.728  1.3444  0.3555  1.1299
 3708TIP3   OH232758   4.355   6.172   8.438 -0.2971  0.0592 -0.0410
 3708TIP3    H132759   4.284   6.209   8.490  0.2671  0.3936  0.4993
 3708TIP3    H232760   4.393   6.247   8.392 -0.1420 -0.0810 -0.1443
 3709TIP3   OH232761   5.460   0.377   2.680 -0.5467 -0.0933  0.5739
 3709TIP3    H132762   5.445   0.426   2.600 -2.5205 -0.9311  0.3769
 3709TIP3    H232763   5.476   0.287   2.650 -0.1453 -0.1971  1.0784
 3710TIP3   OH232764   2.262   0.786   0.917 -0.7357 -0.3933 -0.3418
 3710TIP3    H132765   2.316   0.726   0.968 -1.4693  0.4434  1.5103
 3710TIP3    H232766   2.214   0.730   0.856  2.3761 -1.1419 -2.3668
 3711TIP3   OH232767   4.482   6.414   8.375  0.5417  0.1542  0.6322
 3711TIP3    H132768   4.523   6.481   8.430 -0.6217  2.1335 -0.7846
 3711TIP3    H232769   4.444   6.463   8.302 -1.1830 -1.9561  0.0115
 3712TIP3   OH232770   0.397   3.147   1.204 -0.7388 -0.2127  0.1166
 3712TIP3    H132771   0.354   3.181   1.126 -2.5390  0.4391  1.3159
 3712TIP3    H232772   0.365   3.057   1.212  1.3592 -1.1583 -1.1709
 3713TIP3   OH232773   0.884   5.041   7.577  0.3061  0.3747 -0.5199
 3713TIP3    H132774   0.963   5.070   7.532  0.7650 -0.1832 -0.0801
 3713TIP3    H232775   0.824   5.115   7.570  1.2675  1.2454  0.1377
 3714TIP3   OH232776   1.990   6.558   2.348  0.2843 -0.3397 -0.4522
 3714TIP3    H132777   1.960   6.563   2.439  0.3322 -1.7282 -0.3396
 3714TIP3    H232778   1.923   6.508   2.303 -0.4416  1.4998 -1.5395
 3715TIP3   OH232779   2.755   2.351   7.933 -0.0628  0.3055 -0.1021
 3715TIP3    H132780   2.701   2.428   7.952  0.3689  1.1811 -2.1944
 3715TIP3    H232781   2.808   2.377   7.857  1.1585 -1.5571  0.0634
 3716TIP3   OH232782   3.057   0.576   0.258 -0.6685 -0.1786  0.0069
 3716TIP3    H132783   3.011   0.607   0.336 -1.5635  0.2592 -0.6673
 3716TIP3    H232784   3.145   0.554   0.289 -1.0295 -0.1040  1.1502
 3717TIP3   OH232785   3.237   4.216   0.907  0.3443 -0.3504  0.3701
 3717TIP3    H132786   3.253   4.123   0.892  1.3898  0.1516 -2.0654
 3717TIP3    H232787   3.144   4.228   0.887  0.3628 -0.7559  0.0427
 3718TIP3   OH232788   0.465   1.726   2.654 -0.4656  0.5035  0.1960
 3718TIP3    H132789   0.479   1.763   2.741 -1.3459  1.5931 -0.1002
 3718TIP3    H232790   0.396   1.661   2.666  0.6020 -0.6097  0.5906
 3719TIP3   OH232791   4.796   1.806   1.538 -0.4653  0.6436 -0.5855
 3719TIP3    H132792   4.839   1.771   1.616  0.3420 -0.9910 -1.7203
 3719TIP3    H232793   4.706   1.821   1.566 -0.2313 -0.0726  0.6257
 3720TIP3   OH232794   4.208   0.577   0.144 -0.5536 -0.3284  0.3755
 3720TIP3    H132795   4.168   0.630   0.212 -0.1115  0.1159  0.2958
 3720TIP3    H232796   4.290   0.621   0.124 -0.5346 -0.6218 -0.2317
 3721TIP3   OH232797   3.499   2.291   0.081 -0.3305 -0.3757 -0.2675
 3721TIP3    H132798   3.526   2.367   0.030  3.1841 -0.9385  0.4876
 3721TIP3    H232799   3.444   2.327   0.150  1.4808  1.6117  0.2579
 3722TIP3   OH232800   4.351   6.694   1.166 -0.4170 -0.2921 -0.5411
 3722TIP3    H132801   4.400   6.776   1.156 -1.7838  0.6162 -0.0671
 3722TIP3    H232802   4.333   6.666   1.076  0.6167 -0.4531 -0.7165
 3723TIP3   OH232803   2.649   1.031   1.406  0.3462  0.2958  0.5580
 3723TIP3    H132804   2.674   0.946   1.442  1.6637  0.3456 -0.1827
 3723TIP3    H232805   2.706   1.043   1.330 -0.3782  1.4795  0.1737
 3724TIP3   OH232806   2.709   5.285   0.303  0.0497  0.7832  0.1311
 3724TIP3    H132807   2.755   5.345   0.363  0.7166 -0.4643  0.8998
 3724TIP3    H232808   2.759   5.289   0.222  0.0726  1.2813  0.1665
 3725TIP3   OH232809   5.244   5.217   8.941 -0.6280 -0.0102 -0.5344
 3725TIP3    H132810   5.190   5.255   8.872 -0.3123  1.6350  0.0818
 3725TIP3    H232811   5.226   5.270   9.018 -1.8343 -2.4974  1.0350
 3726TIP3   OH232812   1.602   4.352   8.018 -0.9469  0.8340  0.6950
 3726TIP3    H132813   1.561   4.282   7.967  0.6913  0.1140  0.2967
 3726TIP3    H232814   1.564   4.433   7.983 -1.9189  0.2171  0.2770
 3727TIP3   OH232815   3.157   5.786   1.899 -0.2614 -0.3663  0.1647
 3727TIP3    H132816   3.137   5.694   1.885  0.3440 -0.5850  0.6794
 3727TIP3    H232817   3.224   5.786   1.967 -0.4805  0.4700  0.3942
 3728TIP3   OH232818   4.565   4.936   8.509 -0.5873 -0.1204 -0.5278
 3728TIP3    H132819   4.556   5.019   8.463  0.1799  0.9652  1.1544
 3728TIP3    H232820   4.643   4.896   8.471 -0.6995  0.1448 -1.0410
 3729TIP3   OH232821   2.514   2.657   1.380  0.1942 -0.3346  0.1743
 3729TIP3    H132822   2.496   2.727   1.443 -0.5551 -1.6542  1.4582
 3729TIP3    H232823   2.566   2.593   1.428  0.6956 -0.7827 -0.9237
 3730TIP3   OH232824   4.092   3.746   1.682  1.3290  0.5054  0.6305
 3730TIP3    H132825   4.062   3.836   1.675 -1.3206 -0.3263  0.0926
 3730TIP3    H232826   4.098   3.729   1.776  0.8596  0.9720  0.7507
 3731TIP3   OH232827   4.805   2.984   2.642  0.0960 -0.8303 -0.8894
 3731TIP3    H132828   4.894   3.000   2.675  0.2902 -1.1023 -1.2837
 3731TIP3    H232829   4.806   3.019   2.553 -0.0619 -1.2497 -1.0536
 3732TIP3   OH232830   4.669   6.193   8.572  0.1555 -0.1541  0.6249
 3732TIP3    H132831   4.650   6.128   8.504  2.4128  0.7007 -0.9297
 3732TIP3    H232832   4.605   6.263   8.556  0.6596  0.0378 -0.6550
 3733TIP3   OH232833   0.541   5.249   2.195  0.0586  0.0100  0.1785
 3733TIP3    H132834   0.521   5.286   2.110  1.1100 -1.5162 -0.7933
 3733TIP3    H232835   0.636   5.235   2.194  0.0211 -0.5045  1.3928
 3734TIP3   OH232836   0.544   6.729   1.406 -0.6962 -0.3999 -0.4230
 3734TIP3    H132837   0.581   6.696   1.324 -0.4719 -0.7003 -0.2022
 3734TIP3    H232838   0.535   6.651   1.461  1.4822  0.0992  0.7553
 3735TIP3   OH232839   0.833   0.935   0.254  0.2458  0.3898  0.2718
 3735TIP3    H132840   0.821   0.925   0.160 -0.5128 -0.5197  0.4444
 3735TIP3    H232841   0.880   1.017   0.264  1.1643  0.0409 -0.9529
 3736TIP3   OH232842   5.019   5.262   3.318 -0.2245 -0.3415  0.0968
 3736TIP3    H132843   4.935   5.298   3.291 -0.1719 -0.0938  0.2559
 3736TIP3    H232844   5.083   5.330   3.295  0.2784 -1.5494 -2.3720
 3737TIP3   OH232845   2.092   2.659   0.985 -0.3227  0.1261 -0.4707
 3737TIP3    H132846   2.066   2.586   0.928 -0.4573  0.0102 -0.2637
 3737TIP3    H232847   2.038   2.648   1.064  0.0200  0.1585 -0.2308
 3738TIP3   OH232848   4.341   1.381   0.260  0.4366  1.0062 -0.1330
 3738TIP3    H132849   4.267   1.323   0.280 -0.7417  0.9398 -3.8110
 3738TIP3    H232850   4.418   1.328   0.280 -0.5563 -0.3100  0.4171
 3739TIP3   OH232851   1.652   5.170   7.952 -0.1754  0.0307 -0.0523
 3739TIP3    H132852   1.690   5.229   7.886  0.1767  0.4578  0.5217
 3739TIP3    H232853   1.609   5.102   7.901  2.3115 -1.1283 -0.7618
 3740TIP3   OH232854   3.974   5.216   0.912 -0.1956 -0.2984  0.7683
 3740TIP3    H132855   3.912   5.144   0.900  2.0491 -1.9492 -2.3812
 3740TIP3    H232856   3.943   5.285   0.854 -1.0904  0.4313  2.0696
 3741TIP3   OH232857   4.572   1.800   0.110 -0.0697 -0.2535 -0.2783
 3741TIP3    H132858   4.624   1.798   0.029  0.7240  0.2223  0.2120
 3741TIP3    H232859   4.631   1.767   0.177 -1.1044 -1.8145 -0.0744
 3742TIP3   OH232860   3.964   0.055   2.361  0.1311  0.5438 -0.1456
 3742TIP3    H132861   4.059   0.060   2.348  0.1263 -0.0768 -0.5045
 3742TIP3    H232862   3.941   0.137   2.404  1.3887 -0.9027  3.6539
 3743TIP3   OH232863   2.069   1.396   8.341 -0.1341 -0.4011  0.3055
 3743TIP3    H132864   2.079   1.346   8.422  0.8022  0.2519  0.6045
 3743TIP3    H232865   2.074   1.487   8.368  0.5621 -0.1758 -0.5297
 3744TIP3   OH232866   0.712   0.898   0.802  0.2606  0.7014  0.0182
 3744TIP3    H132867   0.663   0.885   0.721  1.2769 -0.6855 -0.4186
 3744TIP3    H232868   0.773   0.824   0.805  1.6104  1.8016  1.0426
 3745TIP3   OH232869   4.521   2.512   0.772 -0.3090 -0.4163 -0.1899
 3745TIP3    H132870   4.444   2.567   0.786 -0.2332 -0.5468  0.8095
 3745TIP3    H232871   4.595   2.572   0.771 -0.2562 -0.4697  0.5900
 3746TIP3   OH232872   3.190   2.863   1.523  0.4594  0.7004 -0.3471
 3746TIP3    H132873   3.173   2.869   1.429 -2.6765 -1.6825 -0.0979
 3746TIP3    H232874   3.130   2.928   1.562 -1.8484 -1.5514  0.1170
 3747TIP3   OH232875   0.192   4.526   1.519  0.3574  0.3637  0.8042
 3747TIP3    H132876   0.259   4.561   1.577  0.4846 -0.4468  1.1645
 3747TIP3    H232877   0.184   4.434   1.545 -1.1819  0.5322  1.0581
 3748TIP3   OH232878   2.376   0.543   0.182  0.4541  0.4231  0.5396
 3748TIP3    H132879   2.441   0.576   0.121  0.3569  0.9058  0.6886
 3748TIP3    H232880   2.297   0.530   0.129  0.8958 -0.9707  0.1872
 3749TIP3   OH232881   1.709   1.607   1.882 -0.3846 -0.4326  0.1641
 3749TIP3    H132882   1.730   1.522   1.843  0.1736 -0.7284  1.0888
 3749TIP3    H232883   1.677   1.587   1.969  0.9600  0.3513  0.8774
 3750TIP3   OH232884   3.551   0.860   8.352  0.4739  0.4717  0.8050
 3750TIP3    H132885   3.499   0.780   8.347  1.2281 -0.0384  0.8774
 3750TIP3    H232886   3.497   0.926   8.310 -0.6758  0.2017  1.7735
 3751TIP3   OH232887   3.055   6.496   3.140 -0.6376 -0.4816 -0.1376
 3751TIP3    H132888   3.135   6.548   3.153 -2.0268  1.5083  0.9933
 3751TIP3    H232889   3.002   6.550   3.081 -2.5618 -0.0463  1.8809
 3752TIP3   OH232890   1.629   6.438   3.212  0.3969  0.2007 -0.4623
 3752TIP3    H132891   1.619   6.511   3.150 -0.6527 -0.1052 -0.6654
 3752TIP3    H232892   1.705   6.463   3.265 -0.7880  2.1452  0.4211
 3753TIP3   OH232893   1.410   1.526   0.775  0.6647 -1.1618 -0.2921
 3753TIP3    H132894   1.378   1.439   0.799 -0.3652 -0.3574  1.5177
 3753TIP3    H232895   1.496   1.511   0.738  0.3927 -2.9710 -0.2794
 3754TIP3   OH232896   5.570   0.786   1.029  0.2736 -0.4410  0.1037
 3754TIP3    H132897   5.639   0.795   0.963 -0.1867 -2.0973 -0.6647
 3754TIP3    H232898   5.496   0.835   0.993  0.5531  0.0575  0.1982
 3755TIP3   OH232899   6.543   1.194   2.707  0.0140  0.2476  0.7242
 3755TIP3    H132900   6.489   1.265   2.673 -0.5180 -1.0417 -1.3729
 3755TIP3    H232901   6.633   1.220   2.687 -0.2456 -0.1175 -1.1037
 3756TIP3   OH232902   0.418   2.657   8.127  0.4750  0.2710 -0.7124
 3756TIP3    H132903   0.483   2.727   8.120  0.5753  0.0955 -1.6684
 3756TIP3    H232904   0.349   2.694   8.182  1.0378  0.7230 -0.2946
 3757TIP3   OH232905   4.884   5.437   7.553  0.2991 -0.2179  0.5836
 3757TIP3    H132906   4.971   5.402   7.535 -0.0941 -1.6684  1.3219
 3757TIP3    H232907   4.866   5.412   7.643 -1.2185 -0.7262  0.1836
 3758TIP3   OH232908   5.859   1.029   1.080  0.0677 -0.3297  0.1437
 3758TIP3    H132909   5.938   1.056   1.033 -0.0838 -2.6361 -1.6591
 3758TIP3    H232910   5.790   1.087   1.047  0.3854 -0.5707 -1.0213
 3759TIP3   OH232911   4.045   3.078   8.181 -0.1442  0.1963 -0.0836
 3759TIP3    H132912   4.066   3.035   8.265 -0.5236 -0.1715 -0.1697
 3759TIP3    H232913   3.970   3.134   8.201 -1.1375 -0.9331 -0.4502
 3760TIP3   OH232914   0.097   1.347   2.690 -0.4155 -0.0623  0.2822
 3760TIP3    H132915   0.169   1.378   2.746 -0.9030  0.4325  0.6447
 3760TIP3    H232916   0.061   1.427   2.651 -2.4992  0.0316  2.1977
 3761TIP3   OH232917   2.578   6.416   1.956  0.0926 -0.1304  0.5176
 3761TIP3    H132918   2.544   6.377   1.875  0.2410 -1.4378  1.0495
 3761TIP3    H232919   2.500   6.440   2.006 -0.1151 -2.1780  1.2891
 3762TIP3   OH232920   6.657   4.692   3.115 -0.1012 -0.1465 -0.1218
 3762TIP3    H132921   6.592   4.761   3.124  0.7518  0.8159 -1.1249
 3762TIP3    H232922   6.633   4.647   3.034  1.4945  1.3742 -1.5032
 3763TIP3   OH232923   4.324   4.413   8.147  0.4867  0.3857  0.3255
 3763TIP3    H132924   4.290   4.408   8.058  2.0129 -2.0473 -0.2063
 3763TIP3    H232925   4.411   4.452   8.137  1.3520 -1.4412  0.4842
 3764TIP3   OH232926   3.593   5.826   1.843 -0.3102 -0.3701  0.2693
 3764TIP3    H132927   3.540   5.848   1.766  0.2765 -0.7493 -0.2634
 3764TIP3    H232928   3.535   5.775   1.899  0.0387 -2.5907 -1.2609
 3765TIP3   OH232929   4.027   0.192   8.366 -0.3109  0.2139 -0.1114
 3765TIP3    H132930   4.059   0.222   8.452  1.7124  0.9440 -1.0557
 3765TIP3    H232931   3.944   0.237   8.355  0.6992  2.3222  0.3196
 3766TIP3   OH232932   6.032   1.877   7.530  0.8052 -0.1668  0.8439
 3766TIP3    H132933   6.087   1.903   7.604  1.1943  2.4779 -0.2654
 3766TIP3    H232934   5.949   1.850   7.570  1.9496 -1.6693  2.3669
 3767TIP3   OH232935   0.259   0.064   7.236  0.4686  0.3109 -0.0291
 3767TIP3    H132936   0.313   0.096   7.164 -1.0291 -0.7270 -1.7134
 3767TIP3    H232937   0.313  -0.003   7.278 -0.1012 -2.2717 -3.0139
 3768TIP3   OH232938   3.430   3.435   0.058 -0.0936 -0.0553  0.1177
 3768TIP3    H132939   3.391   3.472  -0.022  1.1415  0.8896 -0.0748
 3768TIP3    H232940   3.498   3.377   0.026  1.3242  1.3521  0.4539
 3769TIP3   OH232941   3.196   3.234   2.270 -0.1668 -0.0586  0.3574
 3769TIP3    H132942   3.289   3.210   2.268 -0.8960 -3.1608 -1.0450
 3769TIP3    H232943   3.178   3.267   2.182 -0.6787 -0.6862  0.2261
 3770TIP3   OH232944   2.150   4.179   1.114 -0.1207 -0.0037 -0.1910
 3770TIP3    H132945   2.084   4.166   1.182  0.8493  2.0104  1.2646
 3770TIP3    H232946   2.108   4.239   1.052  0.5311  1.9780  1.1860
 3771TIP3   OH232947   4.426   4.763   0.084 -0.0028  0.0528  0.0649
 3771TIP3    H132948   4.343   4.763   0.132  0.6911  1.4460  1.3594
 3771TIP3    H232949   4.411   4.821   0.009  0.1306  1.2994  0.9723
 3772TIP3   OH232950   1.274   1.982   1.138 -0.2643 -0.1006 -0.8394
 3772TIP3    H132951   1.286   1.887   1.142  2.7481  0.1975 -0.5539
 3772TIP3    H232952   1.344   2.017   1.193 -2.1911  2.2879  0.2538
 3773TIP3   OH232953   1.521   4.934   2.348 -0.2420  0.4473 -0.2897
 3773TIP3    H132954   1.461   4.979   2.407 -0.2751  3.0837 -2.1432
 3773TIP3    H232955   1.604   4.933   2.396 -0.7800  0.4684  0.6746
 3774TIP3   OH232956   4.256   1.986   3.274 -0.1104  0.2387  0.1919
 3774TIP3    H132957   4.340   1.966   3.232 -0.6665  0.0046 -0.8323
 3774TIP3    H232958   4.199   1.913   3.248 -0.7820  0.6690  0.4461
 3775TIP3   OH232959   1.061   1.076   7.900  0.1092 -0.1223  0.9418
 3775TIP3    H132960   1.033   1.167   7.897  1.3118  0.2910  1.5170
 3775TIP3    H232961   1.059   1.047   7.809 -0.9566  0.2476  0.8335
 3776TIP3   OH232962   2.439   0.806   1.382  0.3811 -0.0885  0.0027
 3776TIP3    H132963   2.532   0.783   1.384  1.3269  3.2407  2.2715
 3776TIP3    H232964   2.434   0.880   1.322 -1.2010 -1.1857 -1.3290
 3777TIP3   OH232965   0.856   1.992   0.190  0.2205 -0.0111  0.2040
 3777TIP3    H132966   0.939   2.036   0.168  0.1212 -0.4877 -1.2566
 3777TIP3    H232967   0.830   1.950   0.108 -0.4662 -1.5206  1.1638
 3778TIP3   OH232968   3.056   2.189   1.150  0.1632 -0.1206  0.3183
 3778TIP3    H132969   3.045   2.110   1.099  0.4172 -1.7028  2.5459
 3778TIP3    H232970   3.076   2.257   1.086  3.2809 -2.4726 -1.4692
 3779TIP3   OH232971   5.788   5.571   7.966  0.1597 -0.1159  0.1912
 3779TIP3    H132972   5.783   5.491   8.018  1.5344 -3.4082 -4.1720
 3779TIP3    H232973   5.881   5.577   7.940 -0.6489  0.2750 -3.0850
 3780TIP3   OH232974   5.195   1.685   1.699  0.5008 -0.5023  0.1817
 3780TIP3    H132975   5.250   1.647   1.768  0.7175 -0.5141  0.0040
 3780TIP3    H232976   5.123   1.622   1.688  1.0605 -1.0629 -0.3762
 3781TIP3   OH232977   1.852   6.114   7.574  0.1430  0.0289 -0.6002
 3781TIP3    H132978   1.939   6.154   7.576 -0.5630  1.6555  0.5602
 3781TIP3    H232979   1.813   6.148   7.493 -1.0268  3.2462  1.1223
 3782TIP3   OH232980   4.187   1.995   0.619 -0.4599  0.2216  0.0861
 3782TIP3    H132981   4.177   1.977   0.712  1.1889 -0.9896  0.0765
 3782TIP3    H232982   4.133   1.930   0.575 -1.3660  0.8955  0.1802
 3783TIP3   OH232983   1.761   2.420   0.726  0.1456 -0.0554 -0.6066
 3783TIP3    H132984   1.713   2.408   0.644  1.0948  0.3937 -1.2476
 3783TIP3    H232985   1.751   2.513   0.746 -1.6715 -0.5075  0.8269
 3784TIP3   OH232986   6.467   3.638   0.498 -0.8268 -0.4940  0.4894
 3784TIP3    H132987   6.517   3.578   0.552  1.1702  0.3934 -0.2816
 3784TIP3    H232988   6.376   3.624   0.524 -0.3126 -2.9227  1.2029
 3785TIP3   OH232989   3.682   4.074   1.606 -0.4846  0.1900  0.7818
 3785TIP3    H132990   3.741   4.043   1.537 -1.7841 -1.8206  0.5049
 3785TIP3    H232991   3.720   4.041   1.687 -0.9804 -0.7380  0.6438
 3786TIP3   OH232992   3.482   3.900   0.666 -0.3021 -0.0224 -0.0611
 3786TIP3    H132993   3.399   3.900   0.713 -0.4662  0.8466 -0.3236
 3786TIP3    H232994   3.548   3.882   0.733 -0.5711  0.7790  0.4326
 3787TIP3   OH232995   1.682   0.162   0.093 -0.5261  0.0812  0.4701
 3787TIP3    H132996   1.595   0.147   0.129 -0.9403 -0.7787 -0.8584
 3787TIP3    H232997   1.685   0.112   0.012  0.8675  0.8694 -0.0152
 3788TIP3   OH232998   2.329   0.159   1.400  0.3064 -0.1967  0.2638
 3788TIP3    H132999   2.296   0.244   1.427  1.5271  1.8057 -3.7248
 3788TIP3    H233000   2.424   0.165   1.410  0.4128 -1.0943 -0.0546
 3789TIP3   OH233001   2.642   4.588   8.040 -0.0348  0.5245  0.6017
 3789TIP3    H133002   2.648   4.500   8.077 -0.3892 -0.4966 -1.5805
 3789TIP3    H233003   2.732   4.620   8.037  0.3602 -0.6032 -0.3798
 3790TIP3   OH233004   4.397   5.771   2.433  0.4200 -0.2552 -0.4126
 3790TIP3    H133005   4.453   5.700   2.403  0.3438  0.0224 -1.2450
 3790TIP3    H233006   4.434   5.850   2.393  0.0305  0.0711 -0.1490
 3791TIP3   OH233007   6.103   5.611   3.430  0.3619 -0.1896  0.0894
 3791TIP3    H133008   6.095   5.574   3.518  0.7564 -0.8484 -0.1483
 3791TIP3    H233009   6.086   5.705   3.442 -0.3526 -0.3942  0.7455
 3792TIP3   OH233010   3.213   4.827   8.566  0.2405  0.4158 -0.1528
 3792TIP3    H133011   3.134   4.864   8.603 -0.2570  0.0468 -0.8155
 3792TIP3    H233012   3.259   4.788   8.641 -1.6745 -2.0211 -0.1339
 3793TIP3   OH233013   4.131   3.144   3.410 -0.3409  0.6014 -0.1350
 3793TIP3    H133014   4.186   3.111   3.338 -0.1673 -0.8058  0.5943
 3793TIP3    H233015   4.046   3.159   3.370 -0.4763 -0.9312 -0.5085
 3794TIP3   OH233016   4.153   6.145   0.196 -0.0352 -0.7252  0.1887
 3794TIP3    H133017   4.247   6.137   0.213 -0.0338  0.8598  1.1207
 3794TIP3    H233018   4.148   6.173   0.105  0.4077 -0.6788  0.1737
 3795TIP3   OH233019   5.261   5.964   3.080  0.1014 -0.2112  0.0141
 3795TIP3    H133020   5.204   5.981   3.155 -0.9868 -1.7461 -0.4331
 3795TIP3    H233021   5.299   5.878   3.098  1.4141  0.2804 -0.2581
 3796TIP3   OH233022   5.154   3.110   1.207  0.3671 -0.1672 -0.2810
 3796TIP3    H133023   5.194   3.189   1.170  2.1003  0.5693  2.8052
 3796TIP3    H233024   5.218   3.041   1.193  0.1484 -0.3540 -0.3779
 3797TIP3   OH233025   6.247   3.776   3.413  0.2825 -0.5484 -0.2313
 3797TIP3    H133026   6.233   3.853   3.469  1.8883 -0.8088  0.5956
 3797TIP3    H233027   6.341   3.759   3.419  0.3401 -1.1773 -2.2851
 3798TIP3   OH233028   4.727   2.668   0.832  0.4356 -0.2848 -0.0073
 3798TIP3    H133029   4.759   2.754   0.804  2.1641 -1.3218 -1.4166
 3798TIP3    H233030   4.734   2.670   0.927  2.7835  0.3302 -0.1405
 3799TIP3   OH233031   6.151   2.014   1.234  0.1331  0.0005  0.4467
 3799TIP3    H133032   6.188   1.955   1.169 -1.2676 -1.0265  0.5384
 3799TIP3    H233033   6.104   1.956   1.295 -1.1308  1.1779  0.6421
 3800TIP3   OH233034   2.292   2.294   1.704 -0.1916 -0.0925 -0.1814
 3800TIP3    H133035   2.368   2.333   1.748 -0.6946 -1.5842  2.1898
 3800TIP3    H233036   2.234   2.368   1.686 -0.9784  0.5021  3.8455
 3801TIP3   OH233037   0.451   0.319   2.743  0.1502 -0.0338 -0.2714
 3801TIP3    H133038   0.517   0.271   2.692 -1.4417 -0.1268 -2.3717
 3801TIP3    H233039   0.376   0.325   2.685 -0.8913  2.1357  1.1842
 3802TIP3   OH233040   3.666   4.018   2.346  0.2667 -0.4232  0.0868
 3802TIP3    H133041   3.719   4.098   2.345 -0.0432 -0.1991  0.7315
 3802TIP3    H233042   3.623   4.017   2.260 -0.8543  0.8933  0.5816
 3803TIP3   OH233043   4.888   5.282   1.628 -0.4666 -0.2565  0.3882
 3803TIP3    H133044   4.881   5.339   1.704  1.2350 -1.3603  1.4265
 3803TIP3    H233045   4.966   5.313   1.581 -2.5472  1.6934 -2.1176
 3804TIP3   OH233046   4.346   3.577   0.884 -0.3059 -0.2091 -0.0838
 3804TIP3    H133047   4.420   3.529   0.923 -1.1227 -0.7196  0.8818
 3804TIP3    H233048   4.282   3.509   0.864 -1.5825  0.4635  1.5343
 3805TIP3   OH233049   4.409   6.169   2.941  0.3718 -0.1114 -0.0103
 3805TIP3    H133050   4.353   6.121   2.880  3.1385 -0.4837 -2.4758
 3805TIP3    H233051   4.443   6.101   3.000  0.5131 -0.4026 -0.4178
 3806TIP3   OH233052   5.927   1.451   8.532 -0.1091  0.2027 -0.3488
 3806TIP3    H133053   5.906   1.366   8.570 -0.5753  0.7386  0.6311
 3806TIP3    H233054   5.900   1.444   8.440 -0.7163 -0.5113 -0.1247
 3807TIP3   OH233055   5.537   1.352   1.592  0.5311 -0.5134  0.7355
 3807TIP3    H133056   5.489   1.270   1.581  0.4739 -0.3148 -0.6680
 3807TIP3    H233057   5.609   1.346   1.529 -0.2513  1.0688 -0.3415
 3808TIP3   OH233058   5.406   1.430   8.247  0.2694  0.0303  0.2808
 3808TIP3    H133059   5.373   1.341   8.258 -0.7312  0.4900  1.1646
 3808TIP3    H233060   5.486   1.434   8.299  0.5577 -0.4660 -0.1172
 3809TIP3   OH233061   3.848   2.101   8.998  0.2471 -0.3471  0.6653
 3809TIP3    H133062   3.764   2.097   9.043  0.1557  0.4490  0.5808
 3809TIP3    H233063   3.847   2.186   8.954  1.0545 -0.3779  0.5787
 3810TIP3   OH233064   4.930   4.527   2.133 -0.0799 -0.0580 -0.4957
 3810TIP3    H133065   4.853   4.577   2.161 -1.0364 -1.7846  0.0820
 3810TIP3    H233066   5.004   4.578   2.165 -1.0100  1.0436 -0.0216
 3811TIP3   OH233067   0.773   3.550   1.638  0.5446 -0.2590  0.2739
 3811TIP3    H133068   0.743   3.460   1.623 -0.8596  0.5109 -2.0599
 3811TIP3    H233069   0.868   3.543   1.642  0.6787 -1.6033 -2.5641
 3812TIP3   OH233070   0.188   6.635   8.226  0.0914 -0.1074 -0.0908
 3812TIP3    H133071   0.168   6.729   8.233  2.1541  0.3697  0.1861
 3812TIP3    H233072   0.135   6.605   8.153 -0.9468  1.1709  0.0870
 3813TIP3   OH233073   2.463   6.654   1.767  0.3003 -0.0090 -0.5172
 3813TIP3    H133074   2.397   6.592   1.798  2.8713 -2.0928  1.1751
 3813TIP3    H233075   2.415   6.713   1.708 -3.1000 -1.1013  0.9425
 3814TIP3   OH233076   4.645   6.465   0.397  0.0547 -0.6582  0.2972
 3814TIP3    H133077   4.695   6.510   0.466 -0.9221  1.1755 -0.1352
 3814TIP3    H233078   4.673   6.507   0.316  0.7631 -2.4048 -0.4201
 3815TIP3   OH233079   0.306   1.621   7.778  0.6631 -0.7760 -0.6258
 3815TIP3    H133080   0.396   1.603   7.751  0.9187  0.2359 -0.4983
 3815TIP3    H233081   0.264   1.657   7.700  0.7602  0.0330 -0.3082
 3816TIP3   OH233082   1.438   4.837   2.118 -0.0150 -0.1809 -0.2445
 3816TIP3    H133083   1.521   4.801   2.086 -0.6205 -1.7189 -0.1920
 3816TIP3    H233084   1.457   4.862   2.208  0.8576  1.2085 -0.7872
 3817TIP3   OH233085   1.609   2.393   1.070 -0.7320 -0.3085 -0.2327
 3817TIP3    H133086   1.519   2.392   1.039  0.1351 -0.9450 -3.0406
 3817TIP3    H233087   1.632   2.300   1.081 -0.6125 -0.1368  1.3083
 3818TIP3   OH233088   0.513   0.077   2.280  0.0260 -0.1816 -0.2007
 3818TIP3    H133089   0.428   0.115   2.258 -1.4428 -2.1866  1.5457
 3818TIP3    H233090   0.571   0.153   2.289 -2.2386  1.5302  1.2058
 3819TIP3   OH233091   0.291   2.722   0.461  0.0517 -0.1240 -0.4501
 3819TIP3    H133092   0.308   2.638   0.417 -1.6215 -0.8897  0.2622
 3819TIP3    H233093   0.371   2.740   0.511  1.4205  0.0243 -2.5877
 3820TIP3   OH233094   4.201   4.179   7.622 -0.1581 -0.3646  0.0082
 3820TIP3    H133095   4.109   4.201   7.608 -0.3693 -0.9849  0.3829
 3820TIP3    H233096   4.201   4.085   7.639  0.6707 -0.5846 -1.1017
 3821TIP3   OH233097   6.359   2.252   8.427 -0.7818 -0.0423  0.4737
 3821TIP3    H133098   6.434   2.302   8.394 -0.8392 -1.2358 -1.6661
 3821TIP3    H233099   6.372   2.249   8.522  1.7644 -0.0010  0.1983
 3822TIP3   OH233100   5.226   3.736   0.312  0.7583 -0.1623  0.1388
 3822TIP3    H133101   5.260   3.807   0.366 -1.1306 -0.2421  1.5290
 3822TIP3    H233102   5.159   3.778   0.256 -0.3937 -0.8043  0.9941
 3823TIP3   OH233103   0.533   1.601   1.640 -0.0168  0.1249 -0.3514
 3823TIP3    H133104   0.602   1.558   1.590 -0.1039  0.2621 -0.5920
 3823TIP3    H233105   0.499   1.533   1.698  0.8292  0.2491  0.3096
 3824TIP3   OH233106   5.342   6.432   1.125  0.4805  0.4171  0.0149
 3824TIP3    H133107   5.266   6.439   1.183 -0.5392 -0.0103 -1.2311
 3824TIP3    H233108   5.417   6.430   1.185 -0.6166 -2.0035  1.4441
 3825TIP3   OH233109   0.465   2.093   0.614 -0.2033  0.4156  0.0795
 3825TIP3    H133110   0.375   2.117   0.635  0.4254  1.6810  1.5840
 3825TIP3    H233111   0.484   2.139   0.533 -0.5131  1.2484  0.4661
 3826TIP3   OH233112   5.011   6.577   0.572  0.2656  0.2982 -0.0647
 3826TIP3    H133113   5.008   6.628   0.491 -0.3973 -0.0597 -0.2785
 3826TIP3    H233114   4.919   6.561   0.592  0.4625 -1.9840 -0.7546
 3827TIP3   OH233115   5.884   3.790   8.502  0.1036  0.4141  0.4287
 3827TIP3    H133116   5.880   3.819   8.411 -1.4904  1.1060  0.6983
 3827TIP3    H233117   5.852   3.864   8.553  0.6946 -0.0671  1.5473
 3828TIP3   OH233118   1.343   0.444   2.620  0.1549 -0.4227 -0.3118
 3828TIP3    H133119   1.375   0.459   2.710  1.0055 -1.1340 -0.4815
 3828TIP3    H233120   1.346   0.531   2.579 -0.1495 -0.1066  0.3104
 3829TIP3   OH233121   3.193   1.969   2.719 -0.6571 -0.1279  0.3304
 3829TIP3    H133122   3.161   1.946   2.806  1.9068 -1.7458  0.9526
 3829TIP3    H233123   3.209   1.886   2.676  0.2309  0.6164 -0.8457
 3830TIP3   OH233124   3.531   3.317   7.871 -0.0822 -0.2578 -0.5902
 3830TIP3    H133125   3.543   3.280   7.784 -0.0085 -1.0459 -0.2564
 3830TIP3    H233126   3.454   3.272   7.906 -0.4758  0.4843 -0.4671
 3831TIP3   OH233127   5.210   1.901   2.157  0.2801  0.4864 -0.3855
 3831TIP3    H133128   5.279   1.891   2.223  0.0771  1.0016 -0.0881
 3831TIP3    H233129   5.246   1.965   2.095 -0.3560  1.6188  0.3738
 3832TIP3   OH233130   6.470   3.289   2.691  0.0938 -0.3464  0.1386
 3832TIP3    H133131   6.548   3.257   2.645  1.9946  2.0491  1.4062
 3832TIP3    H233132   6.460   3.231   2.766  1.2624 -0.2107  0.4327
 3833TIP3   OH233133   3.247   0.233   1.041  0.2025  0.5725  0.1671
 3833TIP3    H133134   3.281   0.164   0.985  1.1861 -0.0357  1.4844
 3833TIP3    H233135   3.270   0.314   0.996  1.0502  0.0970 -0.2652
 3834TIP3   OH233136   5.141   4.244   8.845 -0.3152 -0.3420  0.0671
 3834TIP3    H133137   5.126   4.280   8.758 -0.2422 -0.7324 -0.1083
 3834TIP3    H233138   5.065   4.190   8.863 -0.0174 -0.8014 -0.0367
 3835TIP3   OH233139   5.911   6.233   8.282 -0.6485 -0.0514  0.1264
 3835TIP3    H133140   5.847   6.248   8.351 -0.3891 -2.0675  0.8511
 3835TIP3    H233141   5.912   6.316   8.233 -0.5708  1.5916  2.7038
 3836TIP3   OH233142   6.677   4.374   1.868  0.5429 -0.6827  0.0971
 3836TIP3    H133143   6.758   4.422   1.849 -0.1429  0.2500 -0.6023
 3836TIP3    H233144   6.615   4.406   1.803 -0.3725 -1.4425  0.5701
 3837TIP3   OH233145   1.632   2.657   3.440 -0.9239 -0.1004 -0.0040
 3837TIP3    H133146   1.577   2.700   3.505 -1.4134  0.2454 -0.6246
 3837TIP3    H233147   1.575   2.649   3.363 -0.2450 -0.1543 -0.5099
 3838TIP3   OH233148   2.188   2.265   7.764  0.7743 -0.0388 -0.0748
 3838TIP3    H133149   2.196   2.204   7.690 -0.3340 -1.5941  1.0166
 3838TIP3    H233150   2.099   2.253   7.795  0.3449  2.5657 -0.1013
 3839TIP3   OH233151   5.523   2.558   0.540 -0.3276  0.2544 -0.1169
 3839TIP3    H133152   5.605   2.592   0.504 -0.8136  0.1871 -1.3076
 3839TIP3    H233153   5.491   2.628   0.596 -0.6560  1.2373 -1.5196
 3840TIP3   OH233154   0.622   0.218   2.575  0.2854  0.4218  0.2834
 3840TIP3    H133155   0.632   0.295   2.520  0.4986 -0.3285 -0.7690
 3840TIP3    H233156   0.710   0.202   2.610  0.5058 -0.0484 -0.4791
 3841TIP3   OH233157   0.829   2.423   0.449  0.2727  0.4347  0.1289
 3841TIP3    H133158   0.874   2.429   0.365  0.1474  2.3559  0.1664
 3841TIP3    H233159   0.873   2.488   0.505  0.9578 -1.4180  1.8745
 3842TIP3   OH233160   2.123   3.446   2.101  0.4412 -0.3546  0.7543
 3842TIP3    H133161   2.068   3.374   2.131  0.0392  0.3197  1.7094
 3842TIP3    H233162   2.167   3.477   2.180 -0.5778  1.4242  0.6714
 3843TIP3   OH233163   2.660   4.674   8.727  0.2538 -0.4202  0.1813
 3843TIP3    H133164   2.682   4.760   8.690 -0.4478 -0.3514 -0.0886
 3843TIP3    H233165   2.588   4.642   8.671  0.3503 -1.0726  0.4322
 3844TIP3   OH233166   0.176   4.291   0.257 -0.1482  0.0059  1.0261
 3844TIP3    H133167   0.103   4.230   0.247  1.1195 -1.2675 -1.4792
 3844TIP3    H233168   0.253   4.241   0.230  0.9572  2.6743 -1.2299
 3845TIP3   OH233169   1.975   6.318   7.817 -0.1944  0.0353 -0.4247
 3845TIP3    H133170   1.978   6.352   7.906 -0.6977  0.3926 -0.5380
 3845TIP3    H233171   2.002   6.392   7.762  1.5553 -0.5990 -0.4841
 3846TIP3   OH233172   6.245   3.199   2.251  0.6654  0.2777 -0.3492
 3846TIP3    H133173   6.207   3.242   2.175 -0.7332  0.9889  0.7082
 3846TIP3    H233174   6.280   3.270   2.305  0.0779 -0.0523  0.4881
 3847TIP3   OH233175   0.260   6.199   8.726  0.3480 -0.2252  0.2973
 3847TIP3    H133176   0.211   6.281   8.721 -0.7825 -0.8463  0.7857
 3847TIP3    H233177   0.216   6.141   8.664  1.8604 -0.1245 -0.9112
 3848TIP3   OH233178   3.983   3.304   0.003  0.4908 -0.7352 -0.1975
 3848TIP3    H133179   4.026   3.224  -0.029  0.4746  0.0756 -2.3836
 3848TIP3    H233180   3.976   3.360  -0.074 -0.8144  0.8119  0.9868
 3849TIP3   OH233181   2.866   2.022   1.408 -0.2500  0.3312  0.2488
 3849TIP3    H133182   2.791   1.969   1.435 -0.7014  0.3232 -0.9654
 3849TIP3    H233183   2.927   1.958   1.370 -1.3547  0.7689 -2.4419
 3850TIP3   OH233184   2.936   3.150   0.812 -0.5289 -0.6344 -0.3956
 3850TIP3    H133185   2.854   3.180   0.850 -0.6106 -1.8120  0.3858
 3850TIP3    H233186   2.956   3.215   0.744 -1.9341 -0.1675 -0.3852
 3851TIP3   OH233187   4.879   5.019   1.510  0.3270  0.1667  0.4068
 3851TIP3    H133188   4.896   5.112   1.529 -0.0508  0.2821  0.1974
 3851TIP3    H233189   4.857   4.981   1.594 -1.6106  0.7348  0.1911
 3852TIP3   OH233190   3.359   0.439   1.607  0.3377 -0.3021  0.9647
 3852TIP3    H133191   3.449   0.408   1.618  0.0865 -1.1211  0.7708
 3852TIP3    H233192   3.326   0.390   1.532 -0.3047 -0.0825  1.0977
 3853TIP3   OH233193   5.658   1.170   1.001  0.7233  0.2346  0.6025
 3853TIP3    H133194   5.573   1.143   1.036  1.0344 -1.4708  0.1149
 3853TIP3    H233195   5.645   1.172   0.906  1.3345 -0.4365  0.5002
 3854TIP3   OH233196   4.732   1.154   0.017 -0.2810 -0.0021 -0.6321
 3854TIP3    H133197   4.820   1.187  -0.004 -0.5018  0.7970 -0.3727
 3854TIP3    H233198   4.680   1.234   0.029 -0.4544 -0.3868  1.6878
 3855TIP3   OH233199   4.160   4.022   1.540 -0.2539  0.3167 -0.0649
 3855TIP3    H133200   4.223   4.080   1.583 -0.2616 -0.3525  0.8878
 3855TIP3    H233201   4.185   4.023   1.448  0.2614  1.1684  0.0725
 3856TIP3   OH233202   6.490   1.178   1.972 -0.4446 -0.3049 -0.0398
 3856TIP3    H133203   6.534   1.097   1.945 -0.7368 -0.4855  0.0196
 3856TIP3    H233204   6.439   1.153   2.050  1.7404  0.5734  1.7840
 3857TIP3   OH233205   1.336   0.667   0.921 -0.1984 -0.0499 -0.0722
 3857TIP3    H133206   1.316   0.723   0.846  0.2359  2.0081  1.2354
 3857TIP3    H233207   1.409   0.711   0.964 -1.4041 -0.2753  2.3931
 3858TIP3   OH233208   0.159   0.407   8.809  0.1873  0.0402  0.2508
 3858TIP3    H133209   0.094   0.374   8.747 -1.2470 -1.2832  2.3354
 3858TIP3    H233210   0.154   0.502   8.801 -1.8975 -0.0399  0.2244
 3859TIP3   OH233211   5.406   5.941   8.598  0.5619 -0.0032  0.1059
 3859TIP3    H133212   5.323   5.947   8.646  1.6102 -1.5136  2.3459
 3859TIP3    H233213   5.402   5.856   8.554  0.6563  0.2040 -0.3035
 3860TIP3   OH233214   2.925   4.560   1.992  0.4813 -0.4046  0.2595
 3860TIP3    H133215   2.994   4.627   2.003  0.1753 -0.2381  1.2834
 3860TIP3    H233216   2.973   4.477   1.994  0.5845 -0.3371  1.9476
 3861TIP3   OH233217   5.677   1.048   8.483  0.4985 -0.2284  0.0757
 3861TIP3    H133218   5.587   1.048   8.516  0.6662 -0.9299  0.5440
 3861TIP3    H233219   5.677   1.118   8.417  0.0827  1.0387  1.3436
 3862TIP3   OH233220   5.156   0.448   1.572  0.0397  0.3393 -0.4318
 3862TIP3    H133221   5.209   0.406   1.504  0.3685  0.6460 -0.3653
 3862TIP3    H233222   5.072   0.403   1.567  0.1355  0.1992 -0.8859
 3863TIP3   OH233223   4.280   5.839   0.408 -1.0101 -0.0453  0.1576
 3863TIP3    H133224   4.321   5.785   0.476  1.1784  0.3374 -0.7573
 3863TIP3    H233225   4.261   5.777   0.337 -0.7499 -0.0199  0.0628
 3864TIP3   OH233226   4.709   0.280   1.536  0.0574  0.0333 -0.3434
 3864TIP3    H133227   4.755   0.348   1.487  1.4404 -0.3152  0.4120
 3864TIP3    H233228   4.764   0.264   1.613 -0.5426 -1.5055 -0.1933
 3865TIP3   OH233229   0.285   1.727   8.872 -0.0838 -0.0033  0.6802
 3865TIP3    H133230   0.305   1.820   8.860  0.3309  0.0929  2.0090
 3865TIP3    H233231   0.286   1.713   8.967 -1.0989 -1.1645  0.5550
 3866TIP3   OH233232   0.341   5.760   2.517 -0.0428  0.1774  0.3947
 3866TIP3    H133233   0.341   5.685   2.458  1.3878  0.3911  0.0746
 3866TIP3    H233234   0.433   5.769   2.544 -0.0815  2.0827  0.0522
 3867TIP3   OH233235   1.691   1.924   1.302  0.0292 -0.6198  0.2195
 3867TIP3    H133236   1.741   1.891   1.377  0.9029  0.0318 -0.0618
 3867TIP3    H233237   1.750   1.914   1.227 -0.1141  0.5173 -0.0590
 3868TIP3   OH233238   6.203   1.977   0.661  0.2926 -0.1063  0.1267
 3868TIP3    H133239   6.199   1.882   0.675  1.3247 -0.4228 -1.4927
 3868TIP3    H233240   6.255   1.988   0.581  0.0781  1.8268  0.1964
 3869TIP3   OH233241   2.658   6.470   8.580 -0.8810 -0.1026  0.0174
 3869TIP3    H133242   2.618   6.383   8.585 -2.1714  0.3694 -1.4104
 3869TIP3    H233243   2.584   6.530   8.574 -0.0072  0.8774 -1.7351
 3870TIP3   OH233244   6.239   5.589   8.434  0.4014  0.1945 -0.0106
 3870TIP3    H133245   6.323   5.632   8.454 -1.0823  1.7178  3.9614
 3870TIP3    H233246   6.256   5.496   8.448  1.7306  0.2812 -0.7876
 3871TIP3   OH233247   0.486   4.263   1.521 -0.0078  0.1687 -0.5568
 3871TIP3    H133248   0.467   4.303   1.606  4.4860 -0.0267  0.8048
 3871TIP3    H233249   0.457   4.172   1.531  2.9149 -0.6742  2.0793
 3872TIP3   OH233250   5.191   0.793   0.038  0.6286 -0.1809 -0.0578
 3872TIP3    H133251   5.212   0.749  -0.045 -0.1732 -1.2229  0.2591
 3872TIP3    H233252   5.110   0.840   0.020  1.8376  1.8186 -0.5914
 3873TIP3   OH233253   3.297   6.089   7.617  0.2801 -0.6942 -0.1914
 3873TIP3    H133254   3.343   6.156   7.668 -0.7573  1.6985 -2.1553
 3873TIP3    H233255   3.357   6.068   7.545 -0.0383 -0.6106 -0.4862
 3874TIP3   OH233256   6.020   0.468   8.960  0.1531  0.0033  0.0481
 3874TIP3    H133257   6.016   0.374   8.943 -0.8631  0.3403 -1.8481
 3874TIP3    H233258   6.005   0.509   8.875 -2.9090  1.8790  1.3067
 3875TIP3   OH233259   2.278   2.084   0.029  0.6971 -0.6410  0.5005
 3875TIP3    H133260   2.271   1.989   0.022  1.1976 -0.6040 -0.5905
 3875TIP3    H233261   2.252   2.117  -0.057 -0.8345  0.3016  1.2746
 3876TIP3   OH233262   5.883   6.464   1.130 -0.8722  0.5304  0.0405
 3876TIP3    H133263   5.962   6.451   1.183 -0.9291  1.4829  0.3847
 3876TIP3    H233264   5.909   6.438   1.042 -0.4321  0.0094  0.3187
 3877TIP3   OH233265   3.513   1.131   7.819  0.3876  0.6212 -0.1061
 3877TIP3    H133266   3.598   1.174   7.814 -0.0540  1.4318 -3.2584
 3877TIP3    H233267   3.452   1.202   7.840  0.3770  0.1725  1.4614
 3878TIP3   OH233268   0.162   2.193   1.589  0.0352  0.5261  0.4591
 3878TIP3    H133269   0.080   2.156   1.557  1.1385  0.2100 -2.2887
 3878TIP3    H233270   0.135   2.259   1.653 -2.4740  1.4397 -1.3953
 3879TIP3   OH233271   1.834   4.406   2.433  0.4418  0.5518 -0.6180
 3879TIP3    H133272   1.843   4.317   2.397 -0.6700  0.0534  0.2760
 3879TIP3    H233273   1.854   4.464   2.359  0.5816 -0.4366 -1.3796
 3880TIP3   OH233274   1.694   1.252   1.885  0.1973 -0.2135  0.5554
 3880TIP3    H133275   1.669   1.241   1.977 -1.2351  3.4561  0.7553
 3880TIP3    H233276   1.612   1.256   1.837  0.8163  0.6592 -0.4878
 3881TIP3   OH233277   1.176   4.386   2.583  0.3701 -0.4594  0.2014
 3881TIP3    H133278   1.142   4.362   2.497 -0.5582  1.6681 -0.0991
 3881TIP3    H233279   1.127   4.330   2.644 -1.3754  0.2578 -0.4594
 3882TIP3   OH233280   5.471   6.278   7.533 -0.3857 -0.2052  0.1019
 3882TIP3    H133281   5.473   6.336   7.609 -1.7058 -1.2561  0.9780
 3882TIP3    H233282   5.402   6.314   7.477  0.4914  0.4861 -0.5847
 3883TIP3   OH233283   2.403   4.324   7.761 -0.2509 -0.2052 -0.4308
 3883TIP3    H133284   2.359   4.386   7.703  0.5678  0.9497  0.1581
 3883TIP3    H233285   2.489   4.311   7.722 -0.5759 -1.3640 -0.8068
 3884TIP3   OH233286   6.563   1.755   2.636  0.6248  0.2561  0.1135
 3884TIP3    H133287   6.533   1.744   2.726 -0.8552 -0.7304 -0.4430
 3884TIP3    H233288   6.558   1.849   2.620 -0.3695  0.3154  0.6793
 3885TIP3   OH233289   6.081   2.279   8.331  0.0108  0.1127  0.6000
 3885TIP3    H133290   6.159   2.264   8.385 -0.0110 -0.1196  0.5703
 3885TIP3    H233291   6.090   2.217   8.259  0.3545  0.8555 -0.0129
 3886TIP3   OH233292   4.557   1.101   2.406  0.9573  0.0073  0.0669
 3886TIP3    H133293   4.610   1.151   2.467  0.0056  0.2942  0.6847
 3886TIP3    H233294   4.587   1.011   2.416  0.3275 -0.0683  1.5075
 3887TIP3   OH233295   6.388   3.492   8.601 -0.3324  0.2053 -0.9045
 3887TIP3    H133296   6.299   3.527   8.603  0.2032  1.6276  1.0423
 3887TIP3    H233297   6.377   3.397   8.612 -1.6054  0.3169 -1.0695
 3888TIP3   OH233298   3.934   1.816   3.464 -1.0438  0.1392  0.5867
 3888TIP3    H133299   3.864   1.765   3.424 -0.8651 -0.2532  0.7619
 3888TIP3    H233300   3.889   1.872   3.527 -1.2234  0.0408  0.5485
 3889TIP3   OH233301   4.684   3.686   2.747 -0.5506  0.2854  0.0278
 3889TIP3    H133302   4.687   3.779   2.726 -2.2906  0.1933 -0.7592
 3889TIP3    H233303   4.601   3.656   2.712  0.1886 -1.6807 -0.1516
 3890TIP3   OH233304   2.913   1.451   2.436  0.6094 -1.0749  0.0817
 3890TIP3    H133305   2.978   1.495   2.491 -0.7725  1.0835  0.0814
 3890TIP3    H233306   2.948   1.363   2.424  2.7571 -0.4618  1.3491
 3891TIP3   OH233307   3.484   5.528   0.838  0.2246 -0.0622 -0.1100
 3891TIP3    H133308   3.423   5.536   0.911  0.5975  1.4450  0.0695
 3891TIP3    H233309   3.567   5.559   0.873  0.5191  0.2220 -1.0422
 3892TIP3   OH233310   2.028   4.656   2.696  0.0864 -0.0241  0.1705
 3892TIP3    H133311   1.949   4.701   2.726  0.3113 -0.3461  1.2732
 3892TIP3    H233312   2.092   4.672   2.765  0.9426  0.0920 -0.6369
 3893TIP3   OH233313   5.557   2.068   1.985 -0.4555 -0.3981  0.0852
 3893TIP3    H133314   5.489   2.005   1.959  0.5589 -3.1839  3.5171
 3893TIP3    H233315   5.632   2.045   1.930 -0.7713 -0.6231 -0.2657
 3894TIP3   OH233316   6.305   6.084   1.987  0.1813 -0.6832 -0.0960
 3894TIP3    H133317   6.390   6.111   2.021  0.5207  0.3672 -1.6971
 3894TIP3    H233318   6.243   6.117   2.053  0.8833  0.3500  0.0895
 3895TIP3   OH233319   3.294   0.384   2.171 -0.2881 -0.8730 -0.2214
 3895TIP3    H133320   3.335   0.298   2.173 -0.3763 -0.9093  1.2628
 3895TIP3    H233321   3.365   0.444   2.151  0.1240 -1.1340  0.4152
 3896TIP3   OH233322   2.043   3.389   8.634  0.4550  0.2129 -0.2776
 3896TIP3    H133323   2.136   3.381   8.657  0.4674 -1.0008 -0.6695
 3896TIP3    H233324   2.000   3.320   8.684  0.1213 -0.7663 -1.8432
 3897TIP3   OH233325   6.258   5.193   0.278 -0.2075  0.4323  0.3723
 3897TIP3    H133326   6.169   5.210   0.311 -0.3480 -1.3642  1.0447
 3897TIP3    H233327   6.307   5.166   0.356 -0.0391 -2.0393 -0.4808
 3898TIP3   OH233328   4.937   0.000   2.669  0.4922 -0.5070  0.0185
 3898TIP3    H133329   4.994   0.019   2.594  1.3653 -1.9605  0.2824
 3898TIP3    H233330   4.888   0.081   2.683  2.6317  0.8789 -0.1036
 3899TIP3   OH233331   3.105   0.360   8.655  0.3378 -0.4880 -0.3497
 3899TIP3    H133332   3.070   0.442   8.620  0.3785 -0.5097 -0.4418
 3899TIP3    H233333   3.200   0.368   8.643  0.2058 -1.5161 -2.4915
 3900TIP3   OH233334   4.935   2.124   8.566 -0.0716 -0.1838  0.4014
 3900TIP3    H133335   5.005   2.089   8.510 -1.1960  0.3606 -1.4235
 3900TIP3    H233336   4.879   2.049   8.584 -1.3685  0.1690 -1.8174
 3901TIP3   OH233337   6.292   3.030   8.082 -0.1194  0.6322  0.2337
 3901TIP3    H133338   6.198   3.046   8.093 -0.0622  1.2055 -0.0785
 3901TIP3    H233339   6.316   3.082   8.006  0.0456 -1.0407 -0.9240
 3902TIP3   OH233340   1.280   3.950   1.779 -0.0932 -0.4258  0.1484
 3902TIP3    H133341   1.260   3.916   1.866  0.0690 -1.7592 -0.3269
 3902TIP3    H233342   1.264   4.045   1.787 -2.4113 -0.8220  0.9590
 3903TIP3   OH233343   1.085   0.908   8.636 -0.0133 -0.0800  0.5287
 3903TIP3    H133344   1.090   0.970   8.709 -3.3139 -0.5410  1.3213
 3903TIP3    H233345   1.047   0.959   8.564  1.9467  0.0096 -0.5176
 3904TIP3   OH233346   1.175   4.317   8.919  0.0866  0.3930  0.2376
 3904TIP3    H133347   1.178   4.380   8.847 -0.7869 -1.2580 -1.3029
 3904TIP3    H233348   1.249   4.259   8.905 -0.0865  0.0563  0.6729
 3905TIP3   OH233349   5.868   1.357   1.800 -0.5223 -0.1631  0.0010
 3905TIP3    H133350   5.775   1.338   1.811 -0.6007  0.6015  0.7253
 3905TIP3    H233351   5.900   1.286   1.744 -2.3513  1.6340 -3.6337
 3906TIP3   OH233352   1.016   2.019   1.316 -0.2743 -0.5068 -0.0200
 3906TIP3    H133353   0.954   2.008   1.244 -1.6167  0.1747  0.9961
 3906TIP3    H233354   1.094   2.054   1.275 -0.7325 -0.8743 -1.2566
 3907TIP3   OH233355   6.099   2.092   8.144 -0.4314  0.1176 -0.5800
 3907TIP3    H133356   6.191   2.074   8.165 -0.5322  0.6402  0.3724
 3907TIP3    H233357   6.080   2.035   8.069  0.1288 -1.4685  0.4191
 3908TIP3   OH233358   2.459   5.448   0.199  0.7198 -0.4749  0.7883
 3908TIP3    H133359   2.533   5.457   0.259  0.6340 -0.7625  0.9365
 3908TIP3    H233360   2.388   5.416   0.254 -0.2159  2.0409  1.2029
 3909TIP3   OH233361   0.087   5.235   2.665 -0.5053 -0.0710 -0.7087
 3909TIP3    H133362   0.089   5.293   2.589 -1.2061  0.0285 -0.6582
 3909TIP3    H233363   0.043   5.286   2.733  0.1322 -0.1534 -0.2319
 3910TIP3   OH233364   3.248   0.739   1.641 -0.3606 -0.0051 -0.4319
 3910TIP3    H133365   3.296   0.705   1.565 -2.3972 -2.4050 -0.7661
 3910TIP3    H233366   3.235   0.663   1.697  0.7965  1.6289  2.2918
 3911TIP3   OH233367   1.478   4.150   8.242  0.3916  0.3100  0.1626
 3911TIP3    H133368   1.563   4.107   8.232 -0.0002 -0.0551 -2.2850
 3911TIP3    H233369   1.500   4.242   8.261  1.2659 -0.1736  1.6133
 3912TIP3   OH233370   4.256   2.762   2.585  0.6013 -0.3859 -0.1062
 3912TIP3    H133371   4.199   2.755   2.509  0.1707 -0.0698  0.1784
 3912TIP3    H233372   4.284   2.673   2.603 -1.0348 -0.7871  0.6641
 3913TIP3   OH233373   2.277   2.356   0.143  0.4395 -0.5565  0.5493
 3913TIP3    H133374   2.191   2.393   0.122 -0.1143 -1.0424  1.8507
 3913TIP3    H233375   2.293   2.290   0.076  0.5107  0.5953 -0.5985
 3914TIP3   OH233376   5.118   3.792   8.592  0.1483 -0.2233 -1.0124
 3914TIP3    H133377   5.145   3.884   8.597 -1.3085  0.3998 -3.1974
 3914TIP3    H233378   5.059   3.788   8.517 -1.9828 -2.4428  0.6276
 3915TIP3   OH233379   2.554   2.950   8.943 -0.3987  0.5623 -0.9084
 3915TIP3    H133380   2.574   2.938   9.036 -3.5252  3.3046  0.3171
 3915TIP3    H233381   2.638   2.967   8.902  1.0904 -0.8468  1.3636
 3916TIP3   OH233382   2.367   2.482   1.074  0.3180 -0.5133 -0.0899
 3916TIP3    H133383   2.420   2.403   1.062  1.4022  0.0194  0.9644
 3916TIP3    H233384   2.287   2.452   1.117  0.1952 -1.1905 -0.7749
 3917TIP3   OH233385   0.894   2.482   0.731 -0.4469  0.0435 -0.1633
 3917TIP3    H133386   0.823   2.418   0.722 -1.4655  1.2427 -1.1795
 3917TIP3    H233387   0.854   2.554   0.780  0.7585 -0.1836  1.2104
 3918TIP3   OH233388   1.515   3.783   8.627 -0.1185 -0.2538  0.9514
 3918TIP3    H133389   1.571   3.798   8.551 -0.3915 -1.2001  0.5446
 3918TIP3    H233390   1.432   3.755   8.590 -0.7754  0.8350  1.5609
 3919TIP3   OH233391   4.012   5.292   0.337  0.2940  0.3531  0.5899
 3919TIP3    H133392   4.065   5.353   0.286 -0.0702  0.7204  0.6458
 3919TIP3    H233393   3.966   5.347   0.400 -0.7500  0.1390  0.0349
 3920TIP3   OH233394   4.514   2.050   1.722 -0.0400 -0.1200 -0.0382
 3920TIP3    H133395   4.544   2.062   1.812  1.7026  0.5871 -0.6486
 3920TIP3    H233396   4.523   1.956   1.705  1.0987 -0.0552  0.0928
 3921TIP3   OH233397   1.324   2.510   2.151  0.1040 -0.4550  0.0748
 3921TIP3    H133398   1.360   2.492   2.064 -0.3657 -0.1709 -0.1837
 3921TIP3    H233399   1.384   2.467   2.211  0.0375 -1.2765 -0.4278
 3922TIP3   OH233400   5.633   0.108   2.952  0.0808 -0.2241 -0.4479
 3922TIP3    H133401   5.595   0.021   2.967 -0.7832  0.2921  0.5004
 3922TIP3    H233402   5.647   0.143   3.039 -1.3024  1.2999 -0.7837
 3923TIP3   OH233403   0.345   0.450   2.298  0.1690  0.0650  0.3173
 3923TIP3    H133404   0.386   0.464   2.384  1.4055  1.1991 -0.4121
 3923TIP3    H233405   0.405   0.492   2.236 -2.1181  1.9079 -0.8261
 3924TIP3   OH233406   2.591   0.529   1.774  0.0308  0.5938  0.5029
 3924TIP3    H133407   2.679   0.561   1.795 -0.3084  1.3092  0.8598
 3924TIP3    H233408   2.599   0.434   1.775  0.5940  0.6435  1.4475
 3925TIP3   OH233409   0.495   6.491   1.549  0.5609 -0.0950  0.6175
 3925TIP3    H133410   0.404   6.503   1.574  0.0461  0.5254 -1.4015
 3925TIP3    H233411   0.499   6.401   1.517  0.0990  0.5094 -1.2833
 3926TIP3   OH233412   4.952   3.677   7.333  0.1128 -0.0779 -0.3562
 3926TIP3    H133413   5.023   3.741   7.337  0.9803 -0.9957 -0.7378
 3926TIP3    H233414   4.945   3.643   7.422  0.3629 -0.2035 -0.3836
 3927TIP3   OH233415   3.851   5.473   2.808 -0.6563  0.5445  0.2066
 3927TIP3    H133416   3.804   5.547   2.847 -0.4792  0.8081 -0.0695
 3927TIP3    H233417   3.909   5.442   2.878  0.2485  1.5216 -0.0706
 3928TIP3   OH233418   1.076   4.428   1.067  0.5131 -0.2598  0.4326
 3928TIP3    H133419   1.170   4.436   1.082  0.4129 -0.4453  1.1650
 3928TIP3    H233420   1.047   4.518   1.046  1.0104 -0.3662 -0.8032
 3929TIP3   OH233421   3.094   4.848   0.233  0.8030 -0.5904 -0.1361
 3929TIP3    H133422   3.185   4.839   0.262  0.7692 -1.3829 -0.2370
 3929TIP3    H233423   3.048   4.778   0.280  0.6479 -1.5646 -1.6597
 3930TIP3   OH233424   6.604   5.440   1.990  0.0483 -0.2415  0.0258
 3930TIP3    H133425   6.606   5.496   2.068 -0.8440  0.2076 -0.2606
 3930TIP3    H233426   6.629   5.353   2.022  1.0907  0.2281  0.5454
 3931TIP3   OH233427   0.005   1.171   8.309 -0.1201 -0.1189  0.0298
 3931TIP3    H133428  -0.058   1.101   8.294 -1.1394  0.6422  0.6335
 3931TIP3    H233429  -0.001   1.190   8.402 -1.6490  2.3627 -0.4713
 3932TIP3   OH233430   5.473   3.290   3.232  0.3008  0.4842  0.0837
 3932TIP3    H133431   5.452   3.230   3.161  0.9631  0.6969 -0.2955
 3932TIP3    H233432   5.555   3.255   3.269  0.1907  0.6223  0.4635
 3933TIP3   OH233433   5.006   4.551   0.654  0.0195  0.7244  0.4199
 3933TIP3    H133434   5.050   4.622   0.608  2.1477 -1.5135 -1.2833
 3933TIP3    H233435   4.990   4.485   0.586 -0.1892 -1.1904  2.2270
 3934TIP3   OH233436   6.488   6.256   0.718  0.2416  0.0003  0.1598
 3934TIP3    H133437   6.530   6.339   0.738  1.5113 -0.7121  0.5162
 3934TIP3    H233438   6.514   6.237   0.628 -0.3238  0.1479 -0.0376
 3935TIP3   OH233439   4.019   6.359   8.344 -0.4634 -0.1486  0.8542
 3935TIP3    H133440   3.951   6.341   8.279  1.4221  0.4800 -1.3940
 3935TIP3    H233441   4.037   6.453   8.335  3.1831 -0.8783 -1.2810
 3936TIP3   OH233442   5.881   0.769   0.957  0.5249 -0.1846 -0.0955
 3936TIP3    H133443   5.870   0.853   1.002 -0.3186 -0.0391 -0.5634
 3936TIP3    H233444   5.902   0.793   0.866  0.9881 -0.4855 -0.0735
 3937TIP3   OH233445   2.746   4.278   8.757 -0.2337  0.4047 -0.5674
 3937TIP3    H133446   2.801   4.314   8.827 -2.9475 -0.1449  2.0512
 3937TIP3    H233447   2.731   4.352   8.698  0.1975  1.5951  0.7566
 3938TIP3   OH233448   3.860   4.667   0.117  0.3207  0.4158  0.2863
 3938TIP3    H133449   3.829   4.594   0.064  0.5325  1.2310 -0.9891
 3938TIP3    H233450   3.947   4.686   0.083  0.2675  1.2681  0.6011
 3939TIP3   OH233451   1.395   1.860   8.101 -0.3204 -0.2262  0.0087
 3939TIP3    H133452   1.458   1.789   8.086  1.0636  0.9026  0.2586
 3939TIP3    H233453   1.415   1.924   8.033  1.4169  1.8499  2.2852
 3940TIP3   OH233454   2.376   4.644   1.000  0.5128  0.1892  0.3284
 3940TIP3    H133455   2.322   4.577   0.958 -0.9864  0.7928  1.2131
 3940TIP3    H233456   2.461   4.636   0.957 -0.2796 -0.7470 -1.1686
 3941TIP3   OH233457   2.440   4.588   8.361  0.3373  0.4261 -0.1102
 3941TIP3    H133458   2.412   4.541   8.282  0.0755 -0.2183  0.3626
 3941TIP3    H233459   2.401   4.675   8.352 -2.2868 -0.5832  0.7699
 3942TIP3   OH233460   2.530   6.698   7.728  0.4713 -0.1238 -0.6722
 3942TIP3    H133461   2.515   6.792   7.720 -0.8627 -0.2481  0.2127
 3942TIP3    H233462   2.606   6.682   7.671 -0.0424  1.2689 -1.8215
 3943TIP3   OH233463   1.331   6.297   8.091 -0.2751  0.4368  0.3393
 3943TIP3    H133464   1.296   6.227   8.036  0.9467  0.3269 -0.3305
 3943TIP3    H233465   1.275   6.296   8.169 -0.9266 -0.5792 -0.1132
 3944TIP3   OH233466   4.419   0.757   0.093  0.3948  0.0748 -0.1516
 3944TIP3    H133467   4.411   0.703   0.014 -1.7085 -0.5567  0.4192
 3944TIP3    H233468   4.511   0.782   0.096  0.8321 -1.1160 -1.9994
 3945TIP3   OH233469   3.259   5.328   7.701  0.1663 -0.6146 -0.4615
 3945TIP3    H133470   3.283   5.413   7.664 -0.2977  0.4920  1.6373
 3945TIP3    H233471   3.343   5.284   7.717  0.4036 -0.6322 -1.6672
 3946TIP3   OH233472   2.306   4.035   1.846  0.2610 -0.1771  0.2940
 3946TIP3    H133473   2.226   3.994   1.814  0.4662  0.0983 -0.5956
 3946TIP3    H233474   2.279   4.081   1.925 -0.9191  1.5056 -1.0024
 3947TIP3   OH233475   1.241   3.245   2.520  0.1584  0.6656  0.2754
 3947TIP3    H133476   1.318   3.256   2.576  0.6250  2.0349 -0.5798
 3947TIP3    H233477   1.205   3.160   2.546  1.3262  0.4832  1.4483
 3948TIP3   OH233478   6.152   4.801   1.001 -0.2262 -0.9795  0.2806
 3948TIP3    H133479   6.171   4.871   0.939 -1.1518  0.6192  1.7278
 3948TIP3    H233480   6.060   4.814   1.025  0.2280 -1.2412  2.3406
 3949TIP3   OH233481   4.410   5.506   8.578 -0.8033  0.5732 -1.1898
 3949TIP3    H133482   4.363   5.582   8.544  0.9369  1.6942 -1.2333
 3949TIP3    H233483   4.434   5.456   8.500 -1.3357  0.3412 -1.2107
 3950TIP3   OH233484   4.077   3.339   8.067  0.0512  0.0154 -0.0398
 3950TIP3    H133485   4.011   3.358   8.134 -0.4425 -1.6936  0.0242
 3950TIP3    H233486   4.046   3.257   8.027  1.1157  0.2341 -1.3586
 3951TIP3   OH233487   3.875   3.896   1.849 -0.2109  0.1899 -0.5127
 3951TIP3    H133488   3.946   3.957   1.869 -0.1267 -0.1352  0.2021
 3951TIP3    H233489   3.884   3.826   1.913 -0.0744 -0.7809 -1.5557
 3952TIP3   OH233490   2.373   0.107   0.126 -0.3455  0.1913  0.1175
 3952TIP3    H133491   2.447   0.116   0.185 -0.1645 -0.7679  0.0650
 3952TIP3    H233492   2.301   0.152   0.170  0.4786  1.9870 -0.2772
 3953TIP3   OH233493   3.631   3.521   8.587 -0.3646  0.8294 -0.3487
 3953TIP3    H133494   3.686   3.512   8.510  0.5031 -0.7040  0.3846
 3953TIP3    H233495   3.592   3.434   8.599  1.2998  0.3031  2.1568
 3954TIP3   OH233496   2.262   0.700   2.776  0.0641  0.8964 -0.5636
 3954TIP3    H133497   2.337   0.730   2.827 -0.6376  1.0509  0.3871
 3954TIP3    H233498   2.257   0.606   2.793 -0.2442  0.9694 -0.2503
 3955TIP3   OH233499   0.832   1.087   8.987 -0.0047 -0.4154  0.1390
 3955TIP3    H133500   0.818   1.000   9.026 -0.7108 -0.2025  0.3761
 3955TIP3    H233501   0.744   1.125   8.982  0.4853  1.1399  2.0143
 3956TIP3   OH233502   1.560   1.729   0.122  0.1619  0.4811 -0.8605
 3956TIP3    H133503   1.621   1.677   0.174  0.2681 -0.3755 -1.8056
 3956TIP3    H233504   1.605   1.812   0.107  0.2731  0.6023  0.0869
 3957TIP3   OH233505   2.566   2.666   2.816 -0.4405 -0.1156  0.4693
 3957TIP3    H133506   2.630   2.600   2.843  1.0628  0.4804 -1.4432
 3957TIP3    H233507   2.600   2.748   2.849  0.1249  0.2796 -1.0126
 3958TIP3   OH233508   4.176   4.532   7.918 -0.0396  0.4707 -0.2529
 3958TIP3    H133509   4.121   4.471   7.869  0.6055  0.9946 -1.6902
 3958TIP3    H233510   4.122   4.611   7.927 -0.2485  0.2888  0.1066
 3959TIP3   OH233511   3.029   2.922   7.495  0.1387 -0.0999 -0.4562
 3959TIP3    H133512   3.095   2.935   7.428  0.2491  1.8660 -0.0290
 3959TIP3    H233513   3.034   3.000   7.550 -2.0425 -0.2119  0.0158
 3960TIP3   OH233514   5.871   4.611   0.303  0.7124 -0.2948 -0.4922
 3960TIP3    H133515   5.789   4.608   0.253 -0.1674  1.1134  0.7875
 3960TIP3    H233516   5.877   4.524   0.342 -0.4735 -0.2578 -0.1695
 3961TIP3   OH233517   3.071   5.274   1.927 -0.0811 -0.7425 -0.1098
 3961TIP3    H133518   3.138   5.321   1.977  0.4596 -1.6513  0.0335
 3961TIP3    H233519   3.086   5.182   1.947  1.1265 -1.3019 -3.0496
 3962TIP3   OH233520   3.271   3.737   2.743  0.4504  0.0952 -0.2850
 3962TIP3    H133521   3.200   3.693   2.696 -0.7266  0.6822  0.8634
 3962TIP3    H233522   3.264   3.829   2.719  0.9478  0.1306 -0.3105
 3963TIP3   OH233523   1.811   5.226   0.849 -0.0671  0.4802 -0.0855
 3963TIP3    H133524   1.878   5.173   0.806 -0.8635 -0.2872 -0.4139
 3963TIP3    H233525   1.839   5.231   0.941  0.3728  0.0562 -0.1950
 3964TIP3   OH233526   0.851   2.722   2.144  0.3146  0.4111  0.5039
 3964TIP3    H133527   0.822   2.665   2.073  2.9773  2.6069 -2.6741
 3964TIP3    H233528   0.788   2.794   2.145  0.0203  0.1522  0.6996
 3965TIP3   OH233529   1.896   6.009   8.376 -0.0090 -0.2721  0.5516
 3965TIP3    H133530   1.921   6.054   8.456 -0.2040 -0.2655  0.6101
 3965TIP3    H233531   1.816   5.961   8.399 -0.4836  0.3100  0.1695
 3966TIP3   OH233532   3.729   0.144   2.668 -0.0476 -0.1181  0.0668
 3966TIP3    H133533   3.810   0.174   2.626  0.0917  0.4341  0.7048
 3966TIP3    H233534   3.721   0.052   2.642  0.8707 -0.2285  0.1207
 3967TIP3   OH233535   1.159   1.527   7.984 -0.3533  0.0656 -0.1923
 3967TIP3    H133536   1.199   1.557   7.903 -2.4224 -0.1551 -1.3648
 3967TIP3    H233537   1.065   1.529   7.967 -0.7909 -1.9734  1.4709
 3968TIP3   OH233538   5.374   2.673   0.259  0.1334 -0.2180 -0.6192
 3968TIP3    H133539   5.335   2.606   0.315 -0.3373 -0.6133 -1.4069
 3968TIP3    H233540   5.300   2.708   0.209  0.0380  2.1574  1.0247
 3969TIP3   OH233541   4.600   2.138   3.250  0.0696 -0.3084 -0.4472
 3969TIP3    H133542   4.622   2.172   3.337  0.3882 -0.2316 -0.5540
 3969TIP3    H233543   4.571   2.048   3.266 -3.2632  0.7251  0.1512
 3970TIP3   OH233544   4.544   4.122   2.749  0.3252 -0.4720 -0.4289
 3970TIP3    H133545   4.597   4.060   2.700  0.6478  1.0635 -2.1361
 3970TIP3    H233546   4.491   4.068   2.808  1.0921 -2.2836 -1.3453
 3971TIP3   OH233547   5.894   1.733   2.150 -0.0620 -0.6948  0.0720
 3971TIP3    H133548   5.868   1.702   2.237  1.1822 -0.5431  0.5144
 3971TIP3    H233549   5.862   1.666   2.090 -0.3608 -1.1265  0.7017
 3972TIP3   OH233550   5.848   1.978   0.843  0.4307 -0.2105 -0.1305
 3972TIP3    H133551   5.939   1.959   0.863  0.5613  0.2282 -0.3134
 3972TIP3    H233552   5.814   1.896   0.808 -0.1511 -1.4581  3.0146
 3973TIP3   OH233553   1.128   5.950   2.948  0.5989 -1.1324 -0.1785
 3973TIP3    H133554   1.222   5.965   2.949  0.7894 -1.6695 -3.1584
 3973TIP3    H233555   1.105   5.938   3.041  3.1232  0.6656  0.7681
 3974TIP3   OH233556   3.877   1.145   7.640  0.0816  0.3007 -0.5955
 3974TIP3    H133557   3.803   1.091   7.612 -1.2363  0.9300  1.4970
 3974TIP3    H233558   3.865   1.227   7.593 -1.0047  0.6668  0.2852
 3975TIP3   OH233559   5.544   4.722   2.717  0.6816  0.2469 -0.1062
 3975TIP3    H133560   5.532   4.629   2.735  1.5989  0.0992 -0.1989
 3975TIP3    H233561   5.610   4.725   2.648 -0.4377  0.9295 -1.1652
 3976TIP3   OH233562   2.363   0.677   0.455 -0.0288  0.3780  0.9000
 3976TIP3    H133563   2.394   0.758   0.495 -0.2586 -0.0054  1.8846
 3976TIP3    H233564   2.333   0.703   0.367  2.5433  0.8765  0.0785
 3977TIP3   OH233565   2.723   3.988   0.500 -0.2312 -0.4577  0.2285
 3977TIP3    H133566   2.697   3.899   0.523 -0.4231 -0.2187  0.9825
 3977TIP3    H233567   2.796   3.977   0.439 -0.4045 -1.1290  0.1385
 3978TIP3   OH233568   2.907   4.820   3.406 -0.3407 -0.4153 -0.2228
 3978TIP3    H133569   2.992   4.788   3.436 -0.1033 -0.2457 -0.7011
 3978TIP3    H233570   2.859   4.742   3.378 -0.2107 -0.4736 -0.2814
 3979TIP3   OH233571   6.238   4.552   8.643 -0.6345  0.3203 -0.0489
 3979TIP3    H133572   6.225   4.596   8.727  0.9144  3.5897 -1.3626
 3979TIP3    H233573   6.314   4.495   8.659 -0.5557  0.6520  0.8424
 3980TIP3   OH233574   4.321   1.642   0.192  0.4882 -0.4928 -0.1157
 3980TIP3    H133575   4.376   1.707   0.235 -2.5948  0.7659  2.2732
 3980TIP3    H233576   4.348   1.559   0.231 -0.2267  0.2881  2.1969
 3981TIP3   OH233577   4.307   4.844   1.410 -0.1334  0.0770  0.0537
 3981TIP3    H133578   4.260   4.927   1.407 -0.7067 -0.1762  1.2932
 3981TIP3    H233579   4.309   4.821   1.503  0.7081 -0.9062 -0.1901
 3982TIP3   OH233580   1.867   1.978   2.428  0.1770  0.4931 -0.5921
 3982TIP3    H133581   1.921   1.976   2.507  0.4009 -1.7805 -0.7483
 3982TIP3    H233582   1.787   1.932   2.452  0.7010 -1.2422 -1.9470
 3983TIP3   OH233583   3.341   1.293   0.440  0.2141 -0.1745 -0.4196
 3983TIP3    H133584   3.408   1.268   0.376 -0.3156 -3.0066 -0.0149
 3983TIP3    H233585   3.372   1.254   0.522 -0.6490  0.7291  0.3506
 3984TIP3   OH233586   4.179   4.412   1.234 -0.2101 -0.6045 -0.1875
 3984TIP3    H133587   4.188   4.431   1.141  0.3197  0.6873  0.1077
 3984TIP3    H233588   4.096   4.451   1.259  0.2943  0.2780  0.1577
 3985TIP3   OH233589   5.330   5.416   1.866 -0.1811 -0.4186 -0.6256
 3985TIP3    H133590   5.406   5.435   1.921  0.4843 -0.9755 -1.3276
 3985TIP3    H233591   5.296   5.502   1.841  0.7602 -0.1599 -1.0309
 3986TIP3   OH233592   2.439   5.950   3.374  0.4066 -0.1392  0.4992
 3986TIP3    H133593   2.464   5.895   3.299 -0.4449 -2.6142  1.9202
 3986TIP3    H233594   2.349   5.924   3.393  0.2435  1.2409  1.7115
 3987TIP3   OH233595   5.786   1.686   3.359  0.6340 -0.4046  0.2053
 3987TIP3    H133596   5.719   1.650   3.302  2.6202 -2.0960 -1.2355
 3987TIP3    H233597   5.853   1.720   3.298  0.4684  2.7019  1.5323
 3988TIP3   OH233598   6.058   1.370   3.202 -0.7054 -0.0513  0.1344
 3988TIP3    H133599   6.087   1.459   3.181 -0.0065 -0.2652  0.1447
 3988TIP3    H233600   5.964   1.371   3.185 -1.1706  1.3458  2.3926
 3989TIP3   OH233601   4.836   6.464   1.739  0.1147  0.0964  0.5731
 3989TIP3    H133602   4.898   6.520   1.785  0.4167 -0.5522  0.9741
 3989TIP3    H233603   4.772   6.524   1.702  0.3123  0.6886  1.1794
 3990TIP3   OH233604   2.809   2.959   8.837 -0.0066 -0.4583 -0.4033
 3990TIP3    H133605   2.776   2.901   8.769 -0.6928 -0.7605  0.1768
 3990TIP3    H233606   2.841   2.901   8.906  0.8257 -0.1577 -0.5158
 3991TIP3   OH233607   1.422   3.163   3.561  0.3770  0.1041 -0.4633
 3991TIP3    H133608   1.489   3.215   3.517  0.5359 -0.2394 -0.6354
 3991TIP3    H233609   1.422   3.194   3.651 -1.4065  2.3029 -1.1320
 3992TIP3   OH233610   0.440   0.999   8.257  0.2336 -0.0091 -0.0041
 3992TIP3    H133611   0.346   1.001   8.274  0.1728 -0.1466 -0.3039
 3992TIP3    H233612   0.448   1.022   8.164  0.6535  2.2906  0.5329
 3993TIP3   OH233613   5.350   1.124   8.210  0.1954 -0.5702  0.0391
 3993TIP3    H133614   5.285   1.093   8.272  1.6901 -1.8974  1.0097
 3993TIP3    H233615   5.329   1.079   8.128 -0.0315 -1.0971  0.3821
 3994TIP3   OH233616   0.031   0.813   7.689  0.1466  0.5680 -0.5691
 3994TIP3    H133617   0.060   0.896   7.653 -0.8203  1.6149  0.9269
 3994TIP3    H233618  -0.064   0.822   7.700 -0.0407 -0.8694 -0.6964
 3995TIP3   OH233619   3.741   2.010   8.158  0.3409 -0.0034  0.3580
 3995TIP3    H133620   3.792   2.088   8.179 -0.8707  2.0594 -3.3792
 3995TIP3    H233621   3.651   2.034   8.181  0.0588 -0.6207 -0.0859
 3996TIP3   OH233622   2.914   2.496   8.201 -0.4806 -0.3117  0.1554
 3996TIP3    H133623   2.839   2.484   8.258  0.0104  0.9005  1.0945
 3996TIP3    H233624   2.897   2.439   8.126 -1.5994 -1.1870  1.0551
 3997TIP3   OH233625   3.839   0.464   2.231  0.1485  0.3433 -0.2255
 3997TIP3    H133626   3.826   0.509   2.147 -0.2418  0.1314 -0.2797
 3997TIP3    H233627   3.933   0.469   2.246  0.1911  0.5862 -0.5658
 3998TIP3   OH233628   0.741   6.424   8.474 -0.5215  0.2866  0.3523
 3998TIP3    H133629   0.750   6.505   8.423  2.5042  0.8259  1.5295
 3998TIP3    H233630   0.733   6.453   8.565  1.2503 -0.6616  0.8666
 3999TIP3   OH233631   4.414   1.588   9.022  0.0387  0.2320  0.1737
 3999TIP3    H133632   4.474   1.601   8.948  1.1011  1.0406  1.1397
 3999TIP3    H233633   4.428   1.664   9.078 -0.7463 -0.3606  1.2109
 4000TIP3   OH233634   0.105   0.252   7.735  0.5337  0.0950  0.2369
 4000TIP3    H133635   0.045   0.324   7.756  2.4514  1.5329  1.0273
 4000TIP3    H233636   0.110   0.252   7.640 -0.4485  0.1588  0.1703
 4001TIP3   OH233637   1.509   3.913   1.660 -0.1584  0.5487  0.0499
 4001TIP3    H133638   1.507   3.822   1.631  0.5721 -0.0051  1.6030
 4001TIP3    H233639   1.422   3.928   1.698 -0.0788  0.3077  0.3277
 4002TIP3   OH233640   0.983   3.331   1.052 -0.1054  0.2309  0.0986
 4002TIP3    H133641   0.905   3.387   1.057 -0.1470  0.4784 -2.3427
 4002TIP3    H233642   0.984   3.284   1.136 -1.8173  1.5836  0.9407
 4003TIP3   OH233643   0.794   0.835   9.089  0.3415  0.2685  0.2373
 4003TIP3    H133644   0.807   0.793   9.004 -0.5852  0.8236 -0.1919
 4003TIP3    H233645   0.723   0.786   9.130  0.1903  0.5591  0.3218
 4004TIP3   OH233646   5.684   5.723   1.122  0.3377  0.0429  0.0436
 4004TIP3    H133647   5.714   5.728   1.213 -1.6438  0.5800  0.7275
 4004TIP3    H233648   5.677   5.815   1.094  1.2630 -0.1248 -0.7831
 4005TIP3   OH233649   3.348   1.196   0.691 -0.8303  0.3156  0.1406
 4005TIP3    H133650   3.254   1.212   0.681 -1.0888 -1.3067 -0.2665
 4005TIP3    H233651   3.366   1.212   0.784 -1.8520 -0.9201  0.5732
 4006TIP3   OH233652   6.577   6.517   0.511  0.2038  0.2179 -0.1018
 4006TIP3    H133653   6.510   6.555   0.455 -1.1148 -2.6123 -0.5685
 4006TIP3    H233654   6.610   6.592   0.562 -0.7353  2.3137 -2.3551
 4007TIP3   OH233655   6.466   0.488   0.672 -0.0605  0.1984  0.7338
 4007TIP3    H133656   6.412   0.415   0.642  4.0199 -2.4681 -0.8914
 4007TIP3    H233657   6.493   0.532   0.591 -0.0096  1.6418  1.5160
 4008TIP3   OH233658   1.008   1.781   3.025 -0.2462 -0.0550 -0.8294
 4008TIP3    H133659   0.944   1.719   3.060  0.3884 -1.3411 -1.8608
 4008TIP3    H233660   1.054   1.815   3.102 -0.9294 -0.4998 -0.2149
 4009TIP3   OH233661   1.847   6.215   8.971  0.0610 -0.4269  0.5807
 4009TIP3    H133662   1.828   6.129   8.933  0.1277 -0.7099  1.1821
 4009TIP3    H233663   1.806   6.277   8.910  0.3790 -0.8557 -0.0899
 4010TIP3   OH233664   2.763   3.946   2.828  0.2777  0.3310  0.1690
 4010TIP3    H133665   2.669   3.934   2.814  0.7843 -1.6083 -2.3913
 4010TIP3    H233666   2.783   4.031   2.788 -0.2965  0.5855  0.4087
 4011TIP3   OH233667   2.562   4.337   2.038 -0.3628 -0.1697  0.4435
 4011TIP3    H133668   2.555   4.290   2.121  1.5403  2.2198  2.1085
 4011TIP3    H233669   2.612   4.278   1.981 -1.2251 -1.6251  1.1529
 4012TIP3   OH233670   2.412   1.472   2.321  0.6072 -0.1869  0.1084
 4012TIP3    H133671   2.386   1.521   2.243  4.3947 -0.1539 -1.3345
 4012TIP3    H233672   2.485   1.521   2.358 -0.9575 -0.2907  3.7413
 4013TIP3   OH233673   3.147   2.432   0.955 -0.6271  0.3954 -0.1064
 4013TIP3    H133674   3.079   2.413   0.891 -2.0682 -0.6980  1.6269
 4013TIP3    H233675   3.107   2.497   1.014 -0.6649 -1.1127  1.6079
 4014TIP3   OH233676   1.073   1.119   0.051 -0.0318  0.0263 -0.1824
 4014TIP3    H133677   0.989   1.117   0.006 -0.6309  0.6104  0.8883
 4014TIP3    H233678   1.101   1.027   0.054 -0.4850 -0.1400 -0.7708
 4015TIP3   OH233679   0.537   6.191   0.271  0.1144 -0.1383  0.2888
 4015TIP3    H133680   0.540   6.238   0.355 -0.4724 -0.5251  0.5283
 4015TIP3    H233681   0.625   6.155   0.261  0.4649  0.7057  0.2793
 4016TIP3   OH233682   5.291   1.356   1.122  0.0835 -0.1883 -0.3134
 4016TIP3    H133683   5.348   1.279   1.125  1.2826  0.7019  0.3027
 4016TIP3    H233684   5.203   1.321   1.140  0.6586 -1.3629  0.3416
 4017TIP3   OH233685   3.276   3.518   8.652 -0.0305  0.3260  0.2234
 4017TIP3    H133686   3.283   3.613   8.651 -1.1331  0.4256  0.6025
 4017TIP3    H233687   3.322   3.490   8.573  0.5636  1.1454  0.2649
 4018TIP3   OH233688   2.275   5.339   1.740  0.0824  0.7123  0.3109
 4018TIP3    H133689   2.358   5.326   1.694 -0.1476  1.6763 -0.4021
 4018TIP3    H233690   2.248   5.251   1.765  1.6656  0.4290  1.1963
 4019TIP3   OH233691   3.009   5.116   0.642 -0.0317 -0.2745 -0.0581
 4019TIP3    H133692   2.924   5.081   0.616 -0.0333 -1.1658  1.0664
 4019TIP3    H233693   3.052   5.044   0.688  0.1442  1.0507  1.9724
 4020TIP3   OH233694   4.942   1.696   2.872 -0.2635 -0.2827 -0.4664
 4020TIP3    H133695   4.950   1.691   2.776  0.1289  1.8162 -0.6035
 4020TIP3    H233696   4.870   1.758   2.886  0.4150  0.2983  0.5692
 4021TIP3   OH233697   3.369   0.044   8.633 -0.6260  0.4983 -0.0763
 4021TIP3    H133698   3.369   0.037   8.538  0.9014  0.5135 -0.1030
 4021TIP3    H233699   3.276   0.041   8.657 -1.0533  0.7412 -1.5695
 4022TIP3   OH233700   3.037   5.887   7.282 -0.2234 -0.3221  0.0894
 4022TIP3    H133701   2.996   5.863   7.199  0.8618  0.0861 -0.5863
 4022TIP3    H233702   3.113   5.830   7.290 -0.3225 -0.3684  0.8194
 4023TIP3   OH233703   2.547   3.894   1.858  0.2841  0.1773  0.3761
 4023TIP3    H133704   2.458   3.929   1.861 -0.6173 -1.9727  0.5009
 4023TIP3    H233705   2.564   3.881   1.765 -0.6969 -2.0391  0.4459
 4024TIP3   OH233706   3.599   5.933   8.631 -0.2293 -0.0745  0.0724
 4024TIP3    H133707   3.538   5.874   8.677  1.2428 -1.2123  0.6474
 4024TIP3    H233708   3.680   5.883   8.625  0.4597  1.1565 -1.2783
 4025TIP3   OH233709   4.384   0.617   1.090  0.8895 -0.0164 -0.4799
 4025TIP3    H133710   4.424   0.579   1.168 -0.7413  0.8926  0.8706
 4025TIP3    H233711   4.340   0.543   1.047  2.3269 -0.6442 -0.9348
 4026TIP3   OH233712   6.211   6.307   2.174 -0.3492 -0.5557  0.1590
 4026TIP3    H133713   6.127   6.310   2.129 -0.3258 -1.0084  0.0819
 4026TIP3    H233714   6.191   6.329   2.265 -0.4314  0.1277 -0.0177
 4027TIP3   OH233715   5.147   5.994   0.792  0.2974  0.4561 -0.0089
 4027TIP3    H133716   5.073   5.978   0.733 -2.3124  1.8269  2.6653
 4027TIP3    H233717   5.201   6.057   0.745 -1.8714  1.7870 -0.8465
 4028TIP3   OH233718   6.646   2.862   8.565 -0.8094  0.9271  0.2003
 4028TIP3    H133719   6.651   2.781   8.616 -2.2058 -0.9903 -2.4439
 4028TIP3    H233720   6.571   2.908   8.601 -2.8820 -1.2361 -1.1100
 4029TIP3   OH233721   2.661   2.282   0.414 -0.4974  0.0413 -0.6378
 4029TIP3    H133722   2.691   2.192   0.426 -1.3034 -0.0498  1.0415
 4029TIP3    H233723   2.581   2.287   0.467  0.6823  2.3261  1.0612
 4030TIP3   OH233724   1.961   0.120   7.626 -0.3440 -0.4523  0.8553
 4030TIP3    H133725   1.894   0.186   7.606 -0.4148 -0.3823  1.3266
 4030TIP3    H233726   1.992   0.143   7.713  0.7855 -0.0686  0.3738
 4031TIP3   OH233727   6.391   1.304   8.422 -0.1874  0.2362 -0.1298
 4031TIP3    H133728   6.362   1.394   8.432 -2.1010 -0.3012 -0.5241
 4031TIP3    H233729   6.486   1.310   8.414 -0.2948  2.2155 -0.3143
 4032TIP3   OH233730   0.263   0.794   2.025 -0.2967  0.4632  0.3610
 4032TIP3    H133731   0.275   0.853   1.950  0.4668  1.0772  0.9444
 4032TIP3    H233732   0.346   0.800   2.073  1.6038 -4.2396 -1.7307
 4033TIP3   OH233733   4.957   3.112   1.391  0.1007  0.3302 -0.3426
 4033TIP3    H133734   5.026   3.093   1.328  0.4348  0.8723 -0.1425
 4033TIP3    H233735   4.989   3.187   1.441 -0.7771  0.8000 -0.4715
 4034TIP3   OH233736   5.860   1.975   3.345  0.2485 -0.0166  0.2981
 4034TIP3    H133737   5.838   1.916   3.417  0.6499 -0.3633  0.1448
 4034TIP3    H233738   5.872   1.917   3.270 -2.1736  0.4975 -0.5580
 4035TIP3   OH233739   4.896   1.305   0.780 -0.2762  0.2078 -0.0816
 4035TIP3    H133740   4.923   1.263   0.862  0.7328 -1.0229 -0.9997
 4035TIP3    H233741   4.830   1.246   0.744  0.9682 -0.5311 -1.2587
 4036TIP3   OH233742   0.212   0.272   2.905  0.0867  0.4978 -0.1537
 4036TIP3    H133743   0.253   0.275   2.819 -0.8036 -0.5414 -0.6450
 4036TIP3    H233744   0.125   0.234   2.889 -1.1182  2.6275  0.8327
 4037TIP3   OH233745   3.773   0.326   0.130  0.4232  0.3042  0.4495
 4037TIP3    H133746   3.866   0.339   0.110 -0.1504  1.2894 -1.8662
 4037TIP3    H233747   3.753   0.238   0.099  0.3878  0.4389  0.0838
 4038TIP3   OH233748   3.054   2.150   2.529 -0.0878  0.0100 -0.4953
 4038TIP3    H133749   3.146   2.158   2.502  0.0001 -1.0033 -0.5245
 4038TIP3    H233750   3.058   2.106   2.615 -0.2986  3.8558  1.7057
 4039TIP3   OH233751   0.711   5.815   8.305  0.0268 -0.6849 -0.1278
 4039TIP3    H133752   0.617   5.805   8.289  0.1411 -3.8971  0.3574
 4039TIP3    H233753   0.746   5.852   8.225 -1.5467 -0.0831 -0.5758
 4040TIP3   OH233754   2.000   6.696   8.739  0.2782  0.1595 -0.3475
 4040TIP3    H133755   2.006   6.656   8.826  0.9501 -0.3204 -0.5964
 4040TIP3    H233756   2.083   6.672   8.697 -0.4432 -0.4805 -1.4749
 4041TIP3   OH233757   5.279   1.192   0.296 -0.3597 -0.1060 -0.4885
 4041TIP3    H133758   5.370   1.183   0.266  1.0005  1.0753  2.8344
 4041TIP3    H233759   5.258   1.107   0.333  0.5488  0.3918  1.3260
 4042TIP3   OH233760   2.589   2.918   1.148  0.0209 -0.0998 -0.2969
 4042TIP3    H133761   2.593   3.012   1.166 -1.4535  0.2075 -1.3685
 4042TIP3    H233762   2.639   2.907   1.067  0.4784 -0.3009  0.0099
 4043TIP3   OH233763   6.008   2.275   1.715 -0.3308 -0.1258 -1.3772
 4043TIP3    H133764   5.914   2.267   1.733 -0.4494  2.3371 -0.5311
 4043TIP3    H233765   6.046   2.192   1.746 -1.9313 -0.2577  0.3960
 4044TIP3   OH233766   6.022   5.298   2.516 -0.1221  0.2748  0.2621
 4044TIP3    H133767   5.997   5.216   2.559 -0.2926  0.8124  1.2399
 4044TIP3    H233768   6.114   5.310   2.541 -0.0113  0.2322 -0.1262
 4045TIP3   OH233769   6.704   0.392   1.588 -0.0622 -0.0664  0.2575
 4045TIP3    H133770   6.711   0.300   1.562 -2.1768 -1.4266  3.6832
 4045TIP3    H233771   6.773   0.404   1.653  0.1361  0.7340 -0.0947
 4046TIP3   OH233772   5.378   6.286   1.732 -0.1321  0.1689 -0.0199
 4046TIP3    H133773   5.333   6.358   1.775  0.5394  0.3823  0.3378
 4046TIP3    H233774   5.389   6.220   1.801  2.0031  0.9890  0.4869
 4047TIP3   OH233775   2.248   0.618   8.665  0.5087  0.0948 -0.0563
 4047TIP3    H133776   2.185   0.674   8.621  0.5969 -0.0354 -0.3522
 4047TIP3    H233777   2.254   0.653   8.754  0.0070  0.0941 -0.0203
 4048TIP3   OH233778   4.143   2.709   1.199  0.0150 -0.4489 -0.1870
 4048TIP3    H133779   4.096   2.718   1.282 -0.1831 -0.2698 -0.3142
 4048TIP3    H233780   4.221   2.763   1.210  0.2078 -0.7759  0.0393
 4049TIP3   OH233781   0.687   0.226   1.446  0.5293 -0.2858  0.2959
 4049TIP3    H133782   0.764   0.223   1.503  0.3392 -0.5340  0.5392
 4049TIP3    H233783   0.671   0.134   1.423  1.8850 -0.0527 -1.8855
 4050TIP3   OH233784   1.057   2.138   2.152  0.3774  0.3400 -0.1607
 4050TIP3    H133785   0.963   2.156   2.158  0.2689 -0.4787  0.6901
 4050TIP3    H233786   1.095   2.185   2.226  0.4215 -0.7356  0.5043
 4051TIP3   OH233787   5.325   2.185   2.084 -0.6879 -0.0634 -0.5117
 4051TIP3    H133788   5.419   2.169   2.093 -1.0343 -1.4041  1.5780
 4051TIP3    H233789   5.302   2.148   1.998  0.6274 -0.0487 -0.8880
 4052TIP3   OH233790   3.850   1.306   1.936  0.3818  0.1349  0.4516
 4052TIP3    H133791   3.872   1.364   1.864  2.6343 -2.8069 -1.4453
 4052TIP3    H233792   3.928   1.305   1.992 -0.9105  1.4853  2.4190
 4053TIP3   OH233793   2.139   4.900   3.077 -0.6929 -0.0990  0.5453
 4053TIP3    H133794   2.049   4.903   3.111 -0.6854  1.5711  0.5188
 4053TIP3    H233795   2.193   4.887   3.155 -0.8236  1.5039  0.9476
 4054TIP3   OH233796   0.269   3.752   0.190  0.7083  0.0723  0.6825
 4054TIP3    H133797   0.254   3.675   0.136 -1.0526  0.7901  0.0887
 4054TIP3    H233798   0.249   3.723   0.279 -2.8891  0.4796  0.1576
 4055TIP3   OH233799   2.935   3.625   0.566  0.0367  0.0095  0.2859
 4055TIP3    H133800   2.981   3.682   0.504  0.9823  0.1976  1.1369
 4055TIP3    H233801   2.842   3.635   0.543  0.3135  0.6825 -0.5869
 4056TIP3   OH233802   5.285   4.187   0.984 -0.0710  0.0656  0.0151
 4056TIP3    H133803   5.343   4.150   1.050  0.7642  1.7980  0.2948
 4056TIP3    H233804   5.337   4.190   0.904  0.3709  1.8375  0.3208
 4057TIP3   OH233805   2.739   4.903   8.627  0.3608  0.1869  0.4069
 4057TIP3    H133806   2.680   4.907   8.552  3.0453 -0.7683 -1.8991
 4057TIP3    H233807   2.720   4.983   8.676 -2.2786  0.2749 -0.5981
 4058TIP3   OH233808   2.647   5.500   8.666 -0.2522 -0.1192 -0.5413
 4058TIP3    H133809   2.628   5.592   8.681  0.7541 -0.0534  0.4289
 4058TIP3    H233810   2.669   5.465   8.752 -0.4906 -1.2410 -0.9162
 4059TIP3   OH233811   2.583   0.058   1.403 -0.0169 -0.1446  0.2161
 4059TIP3    H133812   2.625   0.057   1.316 -0.4483 -1.4912 -0.0006
 4059TIP3    H233813   2.646   0.014   1.460 -0.4744 -0.8133  0.2108
 4060TIP3   OH233814   1.000   0.125   3.268  0.1350 -0.1971  0.3106
 4060TIP3    H133815   1.076   0.180   3.290  0.8071 -1.7279  2.0785
 4060TIP3    H233816   1.009   0.048   3.324 -2.3622 -0.7728  0.0463
 4061TIP3   OH233817   5.962   5.115   1.501 -0.4263  0.2802 -0.0916
 4061TIP3    H133818   5.921   5.029   1.494  0.6520 -0.4519  1.6320
 4061TIP3    H233819   5.999   5.131   1.414  1.0906 -1.9806  0.0252
 4062TIP3   OH233820   3.082   3.902   8.655  0.6211 -0.1404 -0.6392
 4062TIP3    H133821   3.088   3.821   8.604  0.6713  0.0562 -0.9422
 4062TIP3    H233822   3.166   3.908   8.700  0.2443 -0.7926  0.1901
 4063TIP3   OH233823   6.068   4.624   1.998 -0.2417 -0.0886 -0.0527
 4063TIP3    H133824   5.974   4.644   2.001 -0.4358 -0.7978 -0.9796
 4063TIP3    H233825   6.104   4.667   2.075 -0.8854  2.5287 -1.0895
 4064TIP3   OH233826   0.563   0.961   0.386 -0.1255  0.3158  0.2641
 4064TIP3    H133827   0.593   0.977   0.476  2.2916 -1.5399 -0.1006
 4064TIP3    H233828   0.644   0.948   0.336 -1.4631 -0.2021 -1.8872
 4065TIP3   OH233829   3.617   5.136   0.173 -0.2135 -0.2330  0.0357
 4065TIP3    H133830   3.672   5.062   0.196 -0.5370 -0.4123  0.2471
 4065TIP3    H233831   3.641   5.205   0.235  1.1512  0.3604 -1.1048
 4066TIP3   OH233832   0.789   2.635   2.820  0.0802 -0.6078  0.2635
 4066TIP3    H133833   0.882   2.631   2.841 -0.0134 -0.0664  0.7941
 4066TIP3    H233834   0.752   2.695   2.884 -0.7972 -1.5217  0.6363
 4067TIP3   OH233835   0.609   1.212   1.664 -0.2298  0.1233  0.1509
 4067TIP3    H133836   0.611   1.280   1.731 -2.4890 -1.0585  1.5683
 4067TIP3    H233837   0.653   1.137   1.703  1.5375  0.4621 -1.0893
 4068TIP3   OH233838   2.067   1.938   3.027  0.3271 -0.3091 -0.5333
 4068TIP3    H133839   2.082   2.002   2.957  1.3833  1.8711  1.5174
 4068TIP3    H233840   1.981   1.962   3.063 -0.3629 -1.6289 -1.2624
 4069TIP3   OH233841   4.736   3.008   2.116 -0.6185 -0.2546  0.2218
 4069TIP3    H133842   4.724   3.100   2.139 -0.5529  0.1157 -1.1248
 4069TIP3    H233843   4.827   2.989   2.138  0.4665  1.0459 -2.6527
 4070TIP3   OH233844   3.090   0.601   0.786 -0.3346 -0.1362  0.4785
 4070TIP3    H133845   3.117   0.606   0.878 -1.1072 -0.4606  0.7247
 4070TIP3    H233846   3.140   0.671   0.743 -2.2877  2.2243  1.7396
 4071TIP3   OH233847   2.446   4.018   1.564  0.0994 -0.1765  0.0051
 4071TIP3    H133848   2.541   4.010   1.577  0.8063  3.6129 -1.6554
 4071TIP3    H233849   2.417   3.928   1.546  3.4493 -1.3819 -0.0835
 4072TIP3   OH233850   6.244   1.681   2.810 -0.1564 -0.5357  0.0935
 4072TIP3    H133851   6.182   1.751   2.830  1.0608  0.8854 -0.8519
 4072TIP3    H233852   6.329   1.717   2.836  0.6825 -1.0468 -1.7541
 4073TIP3   OH233853   3.137   1.506   1.016  0.5508 -0.5048 -0.4737
 4073TIP3    H133854   3.053   1.532   1.053  0.7993 -1.5101  0.8537
 4073TIP3    H233855   3.163   1.580   0.962 -0.4491  0.4696  0.3369
 4074TIP3   OH233856   0.897   1.159   2.067 -0.6309 -0.1221 -0.2446
 4074TIP3    H133857   0.940   1.203   2.140 -0.9509 -1.1667  0.6009
 4074TIP3    H233858   0.910   1.066   2.084  0.2038 -0.4044 -2.0879
 4075TIP3   OH233859   1.690   5.510   8.635  0.2755 -0.0200 -0.1650
 4075TIP3    H133860   1.778   5.542   8.651  0.4995 -1.2293  1.1903
 4075TIP3    H233861   1.679   5.436   8.695 -2.4551  1.4538  1.3840
 4076TIP3   OH233862   1.452   2.829   3.590  0.8281 -0.3987 -0.2308
 4076TIP3    H133863   1.394   2.888   3.541  0.6217 -1.1344 -0.8826
 4076TIP3    H233864   1.395   2.788   3.655  1.3362  1.4830  1.5048
 4077TIP3   OH233865   5.619   6.232   7.779  0.2655 -0.2303 -0.2128
 4077TIP3    H133866   5.685   6.259   7.843  0.0931  0.1757 -0.2026
 4077TIP3    H233867   5.554   6.303   7.780  0.9513  0.4910 -1.8237
 4078TIP3   OH233868   1.790   5.470   0.370 -0.3887 -0.2533 -0.1148
 4078TIP3    H133869   1.696   5.460   0.382 -0.2283  0.0349  1.5722
 4078TIP3    H233870   1.827   5.453   0.457  1.1867 -1.2518 -0.9411
 4079TIP3   OH233871   5.679   5.249   1.220  0.2399  0.5091 -0.1874
 4079TIP3    H133872   5.633   5.328   1.193  1.3133  0.5328 -2.0686
 4079TIP3    H233873   5.710   5.269   1.309 -1.6865  1.1794  0.3896
 4080TIP3   OH233874   1.155   6.714   0.094  0.9041  0.2437 -0.3131
 4080TIP3    H133875   1.142   6.657   0.170  1.3560  0.7295  0.1478
 4080TIP3    H233876   1.077   6.770   0.092  0.3243 -0.5733 -0.9410
 4081TIP3   OH233877   3.330   0.028   0.267  0.0420  0.1236 -0.2381
 4081TIP3    H133878   3.363   0.077   0.342 -0.3650 -0.2348  0.1828
 4081TIP3    H233879   3.310   0.095   0.201  1.8904  0.3348 -0.6393
 4082TIP3   OH233880   5.190   3.187   0.121  0.8584  0.3249  0.5120
 4082TIP3    H133881   5.129   3.121   0.089 -1.0642  1.1445  2.2457
 4082TIP3    H233882   5.135   3.246   0.174  2.8238  2.2364  0.5404
 4083TIP3   OH233883   2.905   5.511   8.552 -0.6835  0.2277  0.4458
 4083TIP3    H133884   2.968   5.497   8.623  0.5678 -0.3865 -0.7405
 4083TIP3    H233885   2.819   5.498   8.593  0.0713 -2.0535  1.4481
 4084TIP3   OH233886   5.820   3.533   0.481 -0.0675  0.3040 -0.2303
 4084TIP3    H133887   5.849   3.621   0.457  2.1136 -0.4243 -0.4853
 4084TIP3    H233888   5.880   3.474   0.436 -0.6047 -1.2950  1.0242
 4085TIP3   OH233889   3.023   4.516   0.835  0.1740  0.2413  0.3141
 4085TIP3    H133890   3.118   4.520   0.844  0.0948 -0.4650  1.7996
 4085TIP3    H233891   2.990   4.570   0.907 -0.5619  1.0181 -0.5838
 4086TIP3   OH233892   4.593   5.586   2.573 -0.3205  0.2775 -0.2858
 4086TIP3    H133893   4.600   5.589   2.478  0.9833  1.2278 -0.1850
 4086TIP3    H233894   4.528   5.518   2.591  1.1855 -1.6656 -1.7742
 4087TIP3   OH233895   1.672   1.205   0.172  0.1629 -0.2686 -0.0133
 4087TIP3    H133896   1.702   1.211   0.081  1.0153  0.4754  0.3043
 4087TIP3    H233897   1.700   1.118   0.201 -1.6886 -1.2531 -0.9805
 4088TIP3   OH233898   6.293   0.010   1.829 -0.0571  0.0080 -0.2465
 4088TIP3    H133899   6.232   0.073   1.868  0.4859  1.0831 -1.0762
 4088TIP3    H233900   6.372   0.018   1.883  0.5682  1.2347 -1.2759
 4089TIP3   OH233901   4.911   3.337   8.137 -0.1519 -0.2847 -0.7155
 4089TIP3    H133902   4.971   3.322   8.210  0.6968 -0.1796 -1.3709
 4089TIP3    H233903   4.834   3.285   8.158  0.0587 -0.2112  0.2777
 4090TIP3   OH233904   6.153   1.217   8.655  0.0818  0.1084  0.5050
 4090TIP3    H133905   6.239   1.226   8.614  1.0516 -0.9658  2.1648
 4090TIP3    H233906   6.171   1.176   8.740 -2.0700 -0.0766  0.9395
 4091TIP3   OH233907   1.518   2.904   1.022 -0.0304 -0.3373 -0.5972
 4091TIP3    H133908   1.489   2.877   0.935 -1.3428 -0.6061 -0.1045
 4091TIP3    H233909   1.497   2.998   1.026  2.1236  0.2396 -1.3585
 4092TIP3   OH233910   2.335   2.136   1.461 -0.6734 -0.3974  0.4761
 4092TIP3    H133911   2.337   2.191   1.539  2.2341 -1.2311  1.0935
 4092TIP3    H233912   2.319   2.047   1.493 -0.6906 -0.5832 -0.0276
 4093TIP3   OH233913   3.635   3.701   1.876 -0.8737 -0.2715 -0.0281
 4093TIP3    H133914   3.645   3.763   1.804  0.4925 -0.0551  0.3192
 4093TIP3    H233915   3.713   3.715   1.931 -1.3970 -1.1055  0.9701
 4094TIP3   OH233916   4.525   4.258   9.009 -0.0433  0.4116  0.8446
 4094TIP3    H133917   4.508   4.314   8.934 -0.5550 -1.4264 -0.4654
 4094TIP3    H233918   4.466   4.291   9.078 -1.2840  0.6415 -0.2987
 4095TIP3   OH233919   4.460   5.871   1.638  0.1555  0.1123 -0.2089
 4095TIP3    H133920   4.391   5.842   1.698 -0.3113 -3.1259 -2.1153
 4095TIP3    H233921   4.538   5.874   1.693 -0.7824  0.2613  1.1959
 4096TIP3   OH233922   0.144   1.893   0.404  0.1579  0.4100  0.9634
 4096TIP3    H133923   0.231   1.861   0.379 -0.2397  0.6160 -0.8249
 4096TIP3    H233924   0.150   1.988   0.399 -0.2963  0.4135  0.2956
 4097TIP3   OH233925   6.288   3.570   2.192  0.5791  0.0582  0.2263
 4097TIP3    H133926   6.345   3.531   2.258  1.2205 -0.2611 -0.5022
 4097TIP3    H233927   6.245   3.642   2.237 -0.3666 -1.2380  1.5150
 4098TIP3   OH233928   1.076   5.792   2.740 -0.3085  0.3142 -0.0096
 4098TIP3    H133929   1.164   5.785   2.704  0.7702  0.4845  2.3825
 4098TIP3    H233930   1.086   5.848   2.817 -2.4361 -0.0045  0.5756
 4099TIP3   OH233931   6.613   5.904   2.272  0.2803 -0.3741  0.3901
 4099TIP3    H133932   6.562   5.825   2.292 -0.2147 -0.3732 -0.8041
 4099TIP3    H233933   6.699   5.887   2.311  0.3952 -1.8076 -0.4125
 4100TIP3   OH233934   4.236   5.061   8.553  0.1108 -0.1994 -0.5797
 4100TIP3    H133935   4.267   4.979   8.590  1.0347  0.6322  0.5446
 4100TIP3    H233936   4.249   5.126   8.622 -3.3026  0.4316 -0.3141
 4101TIP3   OH233937   4.507   1.803   1.119 -0.0900  0.0470  0.5656
 4101TIP3    H133938   4.434   1.747   1.094  0.4541 -0.8345  0.8870
 4101TIP3    H233939   4.541   1.763   1.200  2.2376 -1.0333 -0.8335
 4102TIP3   OH233940   4.841   5.696   8.809 -0.3176 -0.2256 -0.4189
 4102TIP3    H133941   4.931   5.724   8.789 -0.8352  1.7043 -0.2349
 4102TIP3    H233942   4.810   5.656   8.728  0.2756  0.2631 -0.8924
 4103TIP3   OH233943   4.377   5.429   8.009 -0.6984  0.6585  0.0119
 4103TIP3    H133944   4.348   5.341   7.984 -0.7843 -0.2424  2.8920
 4103TIP3    H233945   4.295   5.475   8.029 -0.5237  0.3312  1.5587
 4104TIP3   OH233946   5.250   2.730   0.001 -0.4159 -0.2881 -0.1097
 4104TIP3    H133947   5.230   2.640  -0.024 -2.0025  0.2852 -1.0349
 4104TIP3    H233948   5.193   2.784  -0.055 -0.3793  1.2504  1.2609
 4105TIP3   OH233949   4.609   4.810   1.236 -0.3796  0.2775  0.7502
 4105TIP3    H133950   4.674   4.803   1.166  0.4899  2.2382  1.2611
 4105TIP3    H233951   4.542   4.746   1.214  0.8751 -0.5956 -0.7514
 4106TIP3   OH233952   2.970   6.269   0.716  0.2312  0.4734 -0.1067
 4106TIP3    H133953   3.013   6.313   0.643  0.1994  0.4097 -0.1638
 4106TIP3    H233954   2.921   6.197   0.676 -0.5279  0.9863 -0.1276
 4107TIP3   OH233955   3.679   2.088   0.771  0.3187  0.1980 -0.0740
 4107TIP3    H133956   3.677   2.110   0.864 -1.4130  1.0075 -0.2692
 4107TIP3    H233957   3.658   2.170   0.727  0.1694 -0.4040 -1.1473
 4108TIP3   OH233958   4.965   2.064   2.127  0.0230 -0.0441  0.0826
 4108TIP3    H133959   4.992   2.069   2.036 -0.6244 -1.0052 -0.1809
 4108TIP3    H233960   5.020   1.996   2.165  2.9493  2.8010  1.4475
 4109TIP3   OH233961   3.575   4.527   2.007  0.0230  0.0052 -0.3648
 4109TIP3    H133962   3.483   4.516   1.985  0.3746 -0.5035 -1.6957
 4109TIP3    H233963   3.617   4.554   1.925  1.2497 -1.0177 -0.1220
 4110TIP3   OH233964   5.848   3.572   8.214 -0.8999 -0.4569 -0.2510
 4110TIP3    H133965   5.849   3.574   8.118  1.6509  0.7715 -0.2859
 4110TIP3    H233966   5.867   3.662   8.240 -0.1199 -1.0601  1.3654
 4111TIP3   OH233967   5.995   2.396   2.874 -0.2765  0.4803  0.1796
 4111TIP3    H133968   5.943   2.394   2.955  0.2379  0.2009  0.5121
 4111TIP3    H233969   6.046   2.315   2.877 -0.6191  0.2243 -0.6814
 4112TIP3   OH233970   2.385   5.799   2.215  0.5781 -0.3140  0.2317
 4112TIP3    H133971   2.425   5.720   2.180  0.4817 -0.3863  0.2809
 4112TIP3    H233972   2.320   5.824   2.150  1.7955  0.7185 -0.6145
 4113TIP3   OH233973   2.380   4.590   2.108 -0.0312 -0.4302  0.3481
 4113TIP3    H133974   2.302   4.642   2.088  0.5631  0.6862  0.8282
 4113TIP3    H233975   2.393   4.603   2.202  1.3772  0.3209  0.0742
 4114TIP3   OH233976   5.608   6.579   1.640  0.0799  0.1127 -0.3149
 4114TIP3    H133977   5.624   6.486   1.655  1.7457  0.6041  1.1831
 4114TIP3    H233978   5.695   6.618   1.633 -0.5410  1.8042  0.7592
 4115TIP3   OH233979   2.648   4.872   2.058 -0.5146 -0.0451 -0.4143
 4115TIP3    H133980   2.630   4.847   2.149  0.8033  0.0181 -0.1134
 4115TIP3    H233981   2.594   4.949   2.043  0.3884  0.8798  0.8431
 4116TIP3   OH233982   5.127   5.090   8.230  0.0102 -0.9921  0.3543
 4116TIP3    H133983   5.147   5.179   8.201 -0.7229 -1.1910 -0.8006
 4116TIP3    H233984   5.188   5.035   8.181 -0.4758 -1.2350  0.0121
 4117TIP3   OH233985   4.307   0.382   2.779  0.0821  0.3430  0.6528
 4117TIP3    H133986   4.364   0.336   2.841  0.8999 -0.1455 -0.4319
 4117TIP3    H233987   4.323   0.475   2.796  1.4065  0.2112  0.1960
 4118TIP3   OH233988   6.381   3.765   8.468 -0.0399 -0.2100 -0.3951
 4118TIP3    H133989   6.327   3.747   8.391 -2.6378  0.1533  1.2039
 4118TIP3    H233990   6.419   3.681   8.492 -0.4057 -0.6198 -1.2341
 4119TIP3   OH233991   6.369   5.498   0.170  0.5520 -0.2474  0.4095
 4119TIP3    H133992   6.394   5.423   0.224  0.6702  0.5566  1.4920
 4119TIP3    H233993   6.303   5.544   0.221 -0.7903 -0.5214 -0.9901
 4120TIP3   OH233994   6.446   0.758   1.498  0.0409 -0.4663  0.2250
 4120TIP3    H133995   6.380   0.701   1.539 -0.9031  0.4801  0.0694
 4120TIP3    H233996   6.530   0.724   1.530 -0.4311 -2.4522 -0.5329
 4121TIP3   OH233997   4.064   6.253   0.489 -0.7803 -0.2232  0.0116
 4121TIP3    H133998   4.071   6.338   0.445  0.2778 -1.6815 -2.8471
 4121TIP3    H233999   4.153   6.218   0.488 -1.1020 -1.1927  1.6015
 4122TIP3   OH234000   5.876   3.636   7.698 -0.6913  0.2296  0.1105
 4122TIP3    H134001   5.899   3.556   7.650 -1.0942 -1.0330  1.9164
 4122TIP3    H234002   5.788   3.658   7.666  0.2714  1.2870 -2.0075
 4123TIP3   OH234003   6.449   4.315   1.999  0.2745 -0.4550 -0.4607
 4123TIP3    H134004   6.538   4.306   1.967  0.0957 -0.1772 -1.0510
 4123TIP3    H234005   6.403   4.365   1.931 -0.6116 -1.5478 -0.6890
 4124TIP3   OH234006   4.807   1.260   8.412 -0.1870 -0.0236  0.1257
 4124TIP3    H134007   4.729   1.314   8.396 -0.8268  0.1208  3.1086
 4124TIP3    H234008   4.788   1.177   8.368 -0.2283  1.2783 -2.5163
 4125TIP3   OH234009   2.442   1.117   1.888 -0.3845  0.2554 -0.6460
 4125TIP3    H134010   2.428   1.024   1.906 -0.1495  0.2384 -0.5502
 4125TIP3    H234011   2.534   1.124   1.865 -0.3658  0.4873 -0.5109
 4126TIP3   OH234012   5.665   2.596   2.874 -0.3846  0.6463  0.7442
 4126TIP3    H134013   5.670   2.643   2.957  0.1570  0.2343  0.9574
 4126TIP3    H234014   5.663   2.504   2.899  0.9351  0.4710  0.2853
 4127TIP3   OH234015   4.596   5.306   9.025  0.3420 -0.2044  0.0761
 4127TIP3    H134016   4.681   5.339   8.998  0.2404  0.5226  0.6356
 4127TIP3    H234017   4.541   5.313   8.946  1.4884 -3.2682 -1.1516
 4128TIP3   OH234018   5.505   0.785   3.514  0.0070 -0.0279  0.2842
 4128TIP3    H134019   5.548   0.700   3.500  0.6103  0.1501  1.0366
 4128TIP3    H234020   5.573   0.850   3.496 -0.2310  0.2842  0.4974
 4129TIP3   OH234021   1.307   2.227   8.860  0.4550  0.2057 -0.4785
 4129TIP3    H134022   1.370   2.164   8.825  0.4118  0.1272 -0.4185
 4129TIP3    H234023   1.285   2.192   8.947  0.4022  0.2840 -0.4602
 4130TIP3   OH234024   4.457   3.273   1.215  0.2885  0.7027 -0.3158
 4130TIP3    H134025   4.417   3.339   1.271 -0.0628  0.8923 -0.7813
 4130TIP3    H234026   4.542   3.254   1.256 -0.3200  0.1969  0.7629
 4131TIP3   OH234027   3.764   3.511   8.369 -0.5722  0.2115  0.0967
 4131TIP3    H134028   3.840   3.548   8.323 -0.0645 -0.1065  0.6703
 4131TIP3    H234029   3.718   3.460   8.302 -0.4985  0.7211 -0.3495
 4132TIP3   OH234030   2.667   2.184   8.766  0.1255 -0.2558  0.3561
 4132TIP3    H134031   2.681   2.108   8.822 -0.9409  0.7801  2.1338
 4132TIP3    H234032   2.752   2.228   8.764  0.8046 -1.5260 -0.8451
 4133TIP3   OH234033   0.777   5.361   2.434 -0.4816 -0.0917  0.0136
 4133TIP3    H134034   0.831   5.329   2.362 -1.3086  1.9813 -1.6454
 4133TIP3    H234035   0.820   5.443   2.461 -0.9085 -0.1859  1.0047
 4134TIP3   OH234036   0.766   4.605   7.619 -0.2450  0.5917 -0.3460
 4134TIP3    H134037   0.775   4.510   7.622 -0.7266  0.5503 -0.0648
 4134TIP3    H234038   0.672   4.620   7.632 -0.3729  1.0497 -1.6462
 4135TIP3   OH234039   4.731   4.889   0.566  0.1198 -0.2318 -0.0210
 4135TIP3    H134040   4.724   4.848   0.652 -1.2326 -0.3341 -0.1661
 4135TIP3    H234041   4.683   4.972   0.574  0.7116  0.1599 -0.4393
 4136TIP3   OH234042   4.590   1.588   0.772  0.2302  0.5857 -0.2466
 4136TIP3    H134043   4.548   1.607   0.689  0.6746  0.3842 -0.5273
 4136TIP3    H234044   4.654   1.520   0.751 -0.7330 -0.6167  0.5483
 4137TIP3   OH234045   1.435   2.907   0.754  0.4855  0.3040 -0.3390
 4137TIP3    H134046   1.364   2.857   0.713 -0.1122  0.6072  0.3020
 4137TIP3    H234047   1.485   2.943   0.680 -0.5183  0.7742 -0.8212
 4138TIP3   OH234048   5.579   4.350   9.041 -0.1825  0.2022  0.1053
 4138TIP3    H134049   5.572   4.258   9.067  0.2389  0.1788  0.1514
 4138TIP3    H234050   5.512   4.362   8.973 -0.2260 -0.1413  0.0887
 4139TIP3   OH234051   0.246   6.495   2.427 -0.1837 -0.1393  0.6362
 4139TIP3    H134052   0.221   6.586   2.412  0.0156 -0.0807  0.6483
 4139TIP3    H234053   0.339   6.492   2.403 -0.1336 -0.2877  0.8468
 4140TIP3   OH234054   3.047   1.623   1.594  1.5149 -0.2873 -0.3199
 4140TIP3    H134055   3.100   1.703   1.600  1.8922 -0.6205  2.7711
 4140TIP3    H234056   3.015   1.609   1.683 -2.2027 -1.2481 -1.6160
 4141TIP3   OH234057   2.800   4.055   3.129  0.1439  0.1910 -1.0104
 4141TIP3    H134058   2.887   4.015   3.134  0.2060  0.4171 -0.0762
 4141TIP3    H234059   2.749   4.007   3.195 -0.8670 -0.9574 -2.5664
 4142TIP3   OH234060   4.207   0.898   9.003  0.2387 -0.3821  0.1310
 4142TIP3    H134061   4.140   0.868   8.941 -0.6775 -0.6979  1.2297
 4142TIP3    H234062   4.248   0.818   9.035 -1.4330 -0.5124  2.2150
 4143TIP3   OH234063   5.980   3.177   1.770 -0.1990  0.4279 -0.0443
 4143TIP3    H134064   5.885   3.180   1.782 -0.2407  1.0122 -0.4885
 4143TIP3    H234065   6.006   3.269   1.767  0.3512  0.2681 -0.1437
 4144TIP3   OH234066   0.870   0.107   0.479 -0.8286 -0.3048 -0.4450
 4144TIP3    H134067   0.860   0.015   0.454  2.3262 -1.5021  2.1103
 4144TIP3    H234068   0.839   0.111   0.569 -1.3879  1.3218 -0.6737
 4145TIP3   OH234069   3.251   2.568   1.304  0.5364 -0.2960  0.4315
 4145TIP3    H134070   3.166   2.554   1.263  0.6482  1.4013 -0.4475
 4145TIP3    H234071   3.277   2.481   1.336 -1.2991 -0.9246  0.3098
 4146TIP3   OH234072   5.288   5.834   8.917 -0.1661 -0.1194  0.6183
 4146TIP3    H134073   5.321   5.920   8.892  0.8548 -0.6684  0.0192
 4146TIP3    H234074   5.213   5.853   8.973 -0.0933  1.1551  0.3172
 4147TIP3   OH234075   0.771   4.214   0.921  0.1073 -0.8590  0.2837
 4147TIP3    H134076   0.782   4.277   0.992 -1.6230 -0.4099  0.1806
 4147TIP3    H234077   0.846   4.155   0.930 -0.5777 -1.4410  3.1376
 4148TIP3   OH234078   2.052   1.277   0.272 -0.3492  0.1152  0.8612
 4148TIP3    H134079   2.091   1.309   0.191  0.3309  1.0060  1.5218
 4148TIP3    H234080   2.004   1.198   0.246 -0.6704  0.7251 -0.5184
 4149TIP3   OH234081   2.974   1.782   0.033  0.1062  0.5167  0.4356
 4149TIP3    H134082   2.957   1.704  -0.020 -3.7363  0.0112  2.0539
 4149TIP3    H234083   2.974   1.855  -0.029  1.6386 -0.5179 -0.8471
 4150TIP3   OH234084   6.379   3.139   2.917 -0.5651  0.2083 -0.8502
 4150TIP3    H134085   6.391   3.128   3.011  1.2021 -0.3023 -1.1007
 4150TIP3    H234086   6.294   3.181   2.909 -1.4655 -1.1437  0.8844
 4151TIP3   OH234087   6.676   1.270   0.100  0.0452 -0.1238 -0.5507
 4151TIP3    H134088   6.602   1.328   0.119  1.5154  1.0886  1.9529
 4151TIP3    H234089   6.750   1.329   0.086  0.9226 -1.3530 -1.3231
 4152TIP3   OH234090   3.360   6.331   0.308 -0.0768  0.0917  0.0563
 4152TIP3    H134091   3.332   6.355   0.219 -0.1561 -1.3514 -0.3240
 4152TIP3    H234092   3.426   6.396   0.330  0.2760  0.2092 -1.2470
 4153TIP3   OH234093   6.609   6.556   8.364 -0.1226  0.3723 -0.1941
 4153TIP3    H134094   6.591   6.591   8.277  0.4319 -0.1422 -0.5281
 4153TIP3    H234095   6.699   6.523   8.358 -0.7392 -1.5012 -0.0447
 4154TIP3   OH234096   0.336   2.356   8.064 -0.2590  0.4371 -0.0015
 4154TIP3    H134097   0.268   2.420   8.046  0.0968  0.5231 -1.0913
 4154TIP3    H234098   0.332   2.343   8.159  0.1800  2.6355  0.3630
 4155TIP3   OH234099   1.717   4.830   1.831 -0.4848 -0.1769  0.4550
 4155TIP3    H134100   1.800   4.855   1.791  1.6016 -0.5845  4.0160
 4155TIP3    H234101   1.694   4.904   1.888 -2.3751 -0.2608 -0.1254
 4156TIP3   OH234102   5.880   3.790   0.436  0.1654 -0.9511  0.2501
 4156TIP3    H134103   5.929   3.812   0.515 -1.0030  0.8734  0.5315
 4156TIP3    H234104   5.882   3.869   0.383 -0.4576 -1.6097 -0.7933
 4157TIP3   OH234105   1.103   0.561   0.079 -0.6795 -0.2401 -0.1745
 4157TIP3    H134106   1.051   0.579   0.158  1.5876 -0.0541  1.3918
 4157TIP3    H234107   1.162   0.637   0.072  1.5360 -1.8317  0.0627
 4158TIP3   OH234108   5.682   0.190   3.197 -0.3774 -0.3606 -0.3903
 4158TIP3    H134109   5.629   0.194   3.277  1.7800  0.8517  1.0789
 4158TIP3    H234110   5.773   0.195   3.228  0.5988 -1.2275 -2.8581
 4159TIP3   OH234111   0.657   0.802   2.018 -0.4981  0.8155  0.6961
 4159TIP3    H134112   0.578   0.855   2.023 -0.0269  1.3954  3.0410
 4159TIP3    H234113   0.717   0.842   2.081  1.7362  0.4701 -1.0670
 4160TIP3   OH234114   1.540   6.319   0.525  0.0030 -0.3433  0.5140
 4160TIP3    H134115   1.584   6.250   0.574 -2.1620 -0.7825  1.9674
 4160TIP3    H234116   1.455   6.328   0.567 -0.3395  2.2569 -0.5248
 4161TIP3   OH234117   2.140   0.485   0.450  0.6959  0.3609 -0.1573
 4161TIP3    H134118   2.212   0.547   0.438  1.1398  0.0389  0.8145
 4161TIP3    H234119   2.169   0.426   0.520 -1.3378  1.5207  1.7919
 4162TIP3   OH234120   2.083   5.261   1.522  0.4004 -0.4721 -0.9653
 4162TIP3    H134121   2.105   5.224   1.607 -0.3855 -0.7509 -0.8779
 4162TIP3    H234122   1.989   5.279   1.526  0.7169  1.4132 -1.0530
 4163TIP3   OH234123   3.974   5.347   1.617  0.1098 -0.1259 -0.9105
 4163TIP3    H134124   3.947   5.425   1.665  1.9798  1.1532 -1.8012
 4163TIP3    H234125   3.931   5.354   1.532 -1.0025 -0.9455 -0.4371
 4164TIP3   OH234126   6.347   6.185   8.808  0.1411  0.0086  0.2798
 4164TIP3    H134127   6.435   6.154   8.830  1.0022  2.2912  0.2497
 4164TIP3    H234128   6.297   6.176   8.890  0.8359  0.1304  0.7223
 4165TIP3   OH234129   2.166   2.866   1.374 -0.7702  0.4708 -0.1295
 4165TIP3    H134130   2.158   2.773   1.350 -0.4849  0.6490 -0.9866
 4165TIP3    H234131   2.179   2.910   1.290 -1.2104  1.3246  0.2465
 4166TIP3   OH234132   2.829   6.242   2.923 -0.2337  0.0375 -0.4983
 4166TIP3    H134133   2.846   6.334   2.941 -1.9263  0.4272 -0.7481
 4166TIP3    H234134   2.831   6.200   3.009  1.7900  0.0398 -0.4950
 4167TIP3   OH234135   6.121   1.805   8.212 -0.0811  0.9051 -0.3139
 4167TIP3    H134136   6.114   1.899   8.232  2.1925  0.9820  0.4462
 4167TIP3    H234137   6.214   1.792   8.193 -0.3766 -1.1888 -0.5298
 4168TIP3   OH234138   6.058   2.005   3.071  0.0518  0.3495  0.0916
 4168TIP3    H134139   6.134   2.032   3.123 -1.0677  1.0519  1.4381
 4168TIP3    H234140   5.985   2.055   3.108 -1.5549 -2.1220  0.5133
 4169TIP3   OH234141   4.176   1.841   0.059  0.1265  0.3264 -0.5373
 4169TIP3    H134142   4.244   1.788   0.101  0.0038  0.2263 -0.4630
 4169TIP3    H234143   4.196   1.931   0.086  0.0401  0.2615 -0.2464
 4170TIP3   OH234144   6.289   5.414   2.237 -0.5920 -0.2926 -0.5259
 4170TIP3    H134145   6.289   5.382   2.147  1.0945 -0.6028 -0.4421
 4170TIP3    H234146   6.203   5.456   2.247 -0.7038  0.0142 -2.3649
 4171TIP3   OH234147   1.298   1.763   2.607 -0.2758  0.6638  0.0119
 4171TIP3    H134148   1.253   1.738   2.688  0.3169 -0.7729 -0.0772
 4171TIP3    H234149   1.264   1.850   2.587 -2.1032  0.1361  0.6055
 4172TIP3   OH234150   1.363   2.653   2.992 -0.6874  0.0998  0.8113
 4172TIP3    H134151   1.404   2.590   2.933 -1.7572  1.2236 -1.2563
 4172TIP3    H234152   1.401   2.738   2.967 -2.4146  0.8303  0.5069
 4173TIP3   OH234153   3.502   6.695   8.325 -0.1404  0.6754  0.1020
 4173TIP3    H134154   3.448   6.683   8.246  1.3883 -0.2077 -0.8521
 4173TIP3    H234155   3.591   6.679   8.296  0.5813  1.3410  1.8190
 4174TIP3   OH234156   4.047   0.796   0.233  0.1990 -0.0820  0.1886
 4174TIP3    H134157   3.957   0.771   0.212  0.0022 -0.2678  1.2000
 4174TIP3    H234158   4.060   0.879   0.189 -0.5434  0.0503  0.2090
 4175TIP3   OH234159   5.263   1.665   8.320 -0.3225 -0.1753  0.6909
 4175TIP3    H134160   5.320   1.705   8.386 -1.3335 -0.3569  1.7049
 4175TIP3    H234161   5.294   1.575   8.312  2.8801  0.9830 -2.6235
 4176TIP3   OH234162   4.945   3.848   0.837  0.3083 -0.2993  0.7044
 4176TIP3    H134163   4.909   3.791   0.769 -0.2528 -1.4366  1.9132
 4176TIP3    H234164   4.997   3.790   0.893 -2.4905 -0.3233  3.5770
 4177TIP3   OH234165   2.781   0.477   8.377  0.0665  0.2325  0.5038
 4177TIP3    H134166   2.793   0.402   8.436 -0.6082  1.0186  1.6852
 4177TIP3    H234167   2.721   0.535   8.424  0.9457  1.7518 -0.1645
 4178TIP3   OH234168   3.761   6.001   1.596  0.3297  0.0041 -0.1099
 4178TIP3    H134169   3.679   6.006   1.647  0.4908 -2.7316  0.5733
 4178TIP3    H234170   3.759   5.914   1.556  1.2698  1.2252 -3.0793
 4179TIP3   OH234171   6.282   0.358   0.927 -0.0147 -0.1976 -0.4890
 4179TIP3    H134172   6.289   0.318   0.840  0.5186  0.9760 -1.0067
 4179TIP3    H234173   6.360   0.328   0.974  0.9460  1.0118 -1.2326
 4180TIP3   OH234174   4.720   0.331   2.083 -0.0441 -0.4993  0.5188
 4180TIP3    H134175   4.652   0.397   2.068  0.3052 -0.2908 -0.1944
 4180TIP3    H234176   4.802   0.377   2.064  0.1368 -1.5265 -1.4943
 4181TIP3   OH234177   5.435   4.219   8.571  0.1177 -0.1657 -0.2931
 4181TIP3    H134178   5.367   4.267   8.524 -1.8769 -2.1351  0.4098
 4181TIP3    H234179   5.483   4.173   8.502  0.4964  0.8932 -0.7611
 4182TIP3   OH234180   0.829   5.078   8.711  0.3967  0.7506 -0.2457
 4182TIP3    H134181   0.914   5.045   8.740 -1.0382 -1.7568  1.4735
 4182TIP3    H234182   0.818   5.042   8.623  0.6365  0.0949 -0.0149
 4183TIP3   OH234183   0.900   6.568   8.067  0.3761 -0.5192  0.4243
 4183TIP3    H134184   0.922   6.499   8.004  0.6389  1.4325 -1.7738
 4183TIP3    H234185   0.981   6.584   8.115  0.4555 -1.3596  0.5836
 4184TIP3   OH234186   2.410   0.532   1.420  0.7613  0.4276 -0.0196
 4184TIP3    H134187   2.403   0.608   1.362  2.9985 -1.3131 -2.8855
 4184TIP3    H234188   2.487   0.485   1.388 -0.1831 -2.7578  1.9488
 4185TIP3   OH234189   3.462   3.258   8.935 -0.4197  0.3198  0.0254
 4185TIP3    H134190   3.445   3.178   8.984  3.9679 -0.1765  1.1248
 4185TIP3    H234191   3.435   3.237   8.845 -0.4001 -2.0003  0.4983
 4186TIP3   OH234192   3.456   4.791   2.429  0.1916  0.6802  0.0031
 4186TIP3    H134193   3.464   4.854   2.501  0.3979 -0.2955  0.8695
 4186TIP3    H234194   3.430   4.843   2.354  0.7028  1.8471  0.6054
 4187TIP3   OH234195   0.254   3.030   3.162 -0.1244  0.5969 -0.3076
 4187TIP3    H134196   0.316   2.998   3.096 -0.6549  0.2079 -0.6306
 4187TIP3    H234197   0.309   3.073   3.227  0.4914  0.2227 -0.5627
 4188TIP3   OH234198   6.366   2.881   8.953  0.0515  0.4263  0.1969
 4188TIP3    H134199   6.285   2.830   8.951 -0.2847  0.9212 -1.9853
 4188TIP3    H234200   6.435   2.815   8.960 -0.4898 -0.0612  1.1413
 4189TIP3   OH234201   2.219   2.157   2.446  0.0790  0.3609 -0.2162
 4189TIP3    H134202   2.175   2.075   2.424  0.0504  0.2107  0.3909
 4189TIP3    H234203   2.311   2.133   2.457 -0.0046  0.3148  0.4357
 4190TIP3   OH234204   4.702   5.790   3.463 -0.1338  0.5294  0.5953
 4190TIP3    H134205   4.679   5.796   3.370 -0.6598 -1.8890  0.5179
 4190TIP3    H234206   4.640   5.848   3.507 -0.5802  0.8800 -0.4611
 4191TIP3   OH234207   2.828   6.099   1.718  0.5706 -0.2731  0.3170
 4191TIP3    H134208   2.856   6.060   1.801  1.2071  0.4999  0.4775
 4191TIP3    H234209   2.883   6.177   1.708  0.7953 -0.5754 -1.0310
 4192TIP3   OH234210   3.277   1.397   2.630  0.2530 -0.2769 -0.2548
 4192TIP3    H134211   3.364   1.421   2.598  1.1823  0.6383  2.7238
 4192TIP3    H234212   3.230   1.480   2.638 -0.1113 -0.5294  0.3016
 4193TIP3   OH234213   3.160   0.916   3.080 -0.0374  0.4109 -0.2762
 4193TIP3    H134214   3.075   0.900   3.039 -0.0466 -0.3273  0.0139
 4193TIP3    H234215   3.202   0.830   3.083  1.4748  1.0076 -2.0504
 4194TIP3   OH234216   3.679   1.840   1.598  0.2750 -0.7715 -0.0094
 4194TIP3    H134217   3.700   1.906   1.664 -2.2796  0.9669 -0.7675
 4194TIP3    H234218   3.635   1.771   1.646  0.2992 -0.4987  0.4049
 4195TIP3   OH234219   5.037   4.093   3.682 -0.7831  0.8111  0.0703
 4195TIP3    H134220   5.123   4.059   3.656 -0.6259 -0.8063  2.4090
 4195TIP3    H234221   5.024   4.170   3.626  1.4298  0.1508 -1.4966
 4196TIP3   OH234222   0.565   1.019   2.669  0.3882  0.5868  0.2173
 4196TIP3    H134223   0.580   1.114   2.667  0.9246  0.5001 -1.5511
 4196TIP3    H234224   0.651   0.981   2.687  0.2949  0.4218  0.3155
 4197TIP3   OH234225   6.467   1.512   0.155  0.2208 -0.5358 -0.1553
 4197TIP3    H134226   6.533   1.547   0.215 -0.2796 -0.2795  0.2561
 4197TIP3    H234227   6.435   1.588   0.107 -0.4180 -0.5162  0.2907
 4198TIP3   OH234228   6.463   2.301   2.207 -0.0828 -0.3287 -0.4210
 4198TIP3    H134229   6.510   2.265   2.283 -0.6467  1.8822  1.0595
 4198TIP3    H234230   6.530   2.350   2.159 -0.1591  0.0457 -0.1519
 4199TIP3   OH234231   2.191   6.010   1.544  0.3173  0.0251 -0.3844
 4199TIP3    H134232   2.136   6.049   1.476 -2.4450 -1.8082  0.6103
 4199TIP3    H234233   2.185   5.916   1.528  2.5155 -0.2949  0.3487
 4200TIP3   OH234234   0.821   4.361   1.140  0.2357 -0.4571  0.0170
 4200TIP3    H134235   0.913   4.381   1.126 -0.2051  0.6183 -1.6746
 4200TIP3    H234236   0.791   4.427   1.202  0.6359 -0.9550  0.7561
 4201TIP3   OH234237   1.199   4.668   2.131  0.0227  0.1896  0.3084
 4201TIP3    H134238   1.285   4.709   2.132  2.1683 -3.8281  0.8283
 4201TIP3    H234239   1.149   4.716   2.065  2.9519  2.1039 -0.6615
 4202TIP3   OH234240   6.082   6.090   8.510  0.2912 -0.3264  0.4224
 4202TIP3    H134241   6.059   6.004   8.546 -0.3503 -0.1350  0.4939
 4202TIP3    H234242   6.017   6.106   8.442  1.0575 -0.3620 -0.3307
 4203TIP3   OH234243   0.781   1.855   2.817 -0.5209 -0.3585  0.0581
 4203TIP3    H134244   0.692   1.844   2.852  0.3225 -4.1283  1.4363
 4203TIP3    H234245   0.802   1.770   2.778  1.9090  0.9772 -1.8228
 4204TIP3   OH234246   6.600   4.612   0.191  0.5038  0.1855  0.4878
 4204TIP3    H134247   6.605   4.683   0.127  0.1409  1.7040  2.0365
 4204TIP3    H234248   6.683   4.620   0.240  1.4023 -1.8272 -0.6149
 4205TIP3   OH234249   5.719   4.838   1.743  0.1202  0.3260 -0.2061
 4205TIP3    H134250   5.637   4.795   1.766 -0.5711  1.4312 -0.5080
 4205TIP3    H234251   5.694   4.929   1.726  1.5269  0.8539  0.4068
 4206TIP3   OH234252   4.194   1.325   3.024  0.2979  0.3831  0.2199
 4206TIP3    H134253   4.272   1.271   3.007 -0.2396  0.1811 -1.9197
 4206TIP3    H234254   4.152   1.282   3.099  1.4550 -0.3834  0.4726
 4207TIP3   OH234255   1.862   3.150   1.170  0.4159  0.1833 -0.6554
 4207TIP3    H134256   1.948   3.149   1.128 -0.1741 -1.3079 -1.9148
 4207TIP3    H234257   1.812   3.081   1.126 -2.1870  2.4408 -1.5395
 4208TIP3   OH234258   4.327   1.336   8.919 -0.0638  0.1806 -0.1690
 4208TIP3    H134259   4.325   1.366   8.828 -0.2864 -0.1891 -0.2892
 4208TIP3    H234260   4.355   1.413   8.969  0.9883  0.1245 -0.6503
 4209TIP3   OH234261   4.962   3.816   8.837 -0.1416  0.1459  0.7096
 4209TIP3    H134262   4.885   3.822   8.780 -0.2711  0.0092  0.8694
 4209TIP3    H234263   5.034   3.797   8.777  0.2429  2.7874  0.2081
 4210TIP3   OH234264   3.332   5.802   7.498  0.0595 -0.0527 -0.3004
 4210TIP3    H134265   3.382   5.883   7.488 -1.5998  0.8243 -2.2218
 4210TIP3    H234266   3.327   5.766   7.409 -1.2466 -1.0244  0.1347
 4211TIP3   OH234267   5.125   3.435   8.627 -0.1844  0.2553 -0.1958
 4211TIP3    H134268   5.089   3.456   8.713 -0.7844 -0.3605 -0.2870
 4211TIP3    H234269   5.176   3.355   8.640  1.1775  1.1168 -0.0702
 4212TIP3   OH234270   3.825   4.937   0.247  0.5730 -0.0910  0.1053
 4212TIP3    H134271   3.913   4.937   0.209  0.7275 -1.4163  0.4381
 4212TIP3    H234272   3.836   4.904   0.335 -0.2491 -0.1355  0.2030
 4213TIP3   OH234273   0.502   4.639   2.655  0.1618  0.0145 -0.2276
 4213TIP3    H134274   0.490   4.726   2.617 -1.1776  0.2192  0.5869
 4213TIP3    H234275   0.436   4.585   2.612  2.0011 -1.0425 -1.8778
 4214TIP3   OH234276   2.686   6.275   8.875 -0.5328 -0.1225  0.9670
 4214TIP3    H134277   2.638   6.252   8.796  0.7124 -0.6984  0.3614
 4214TIP3    H234278   2.687   6.195   8.927  1.6869 -0.8349 -0.0502
 4215TIP3   OH234279   6.133   3.973   0.084 -0.1700 -0.1001  0.3283
 4215TIP3    H134280   6.226   3.972   0.063  0.5251  0.5769  2.9905
 4215TIP3    H234281   6.111   4.066   0.095 -0.9876 -0.2840  0.3697
 4216TIP3   OH234282   5.094   2.727   0.555  0.7420 -0.0940  0.3740
 4216TIP3    H134283   5.012   2.769   0.531  1.3266  1.2058  0.5810
 4216TIP3    H234284   5.132   2.700   0.471  0.0843 -0.7713  0.2826
 4217TIP3   OH234285   4.300   0.488   3.717 -0.1375  0.9959 -0.0932
 4217TIP3    H134286   4.269   0.398   3.724  0.8425  0.7995  2.4328
 4217TIP3    H234287   4.220   0.541   3.711 -0.7970  0.1408  0.9727
 4218TIP3   OH234288   0.998   2.718   1.781  0.0296  0.8038  0.0337
 4218TIP3    H134289   0.969   2.657   1.713 -1.1405 -0.3128  1.4586
 4218TIP3    H234290   1.083   2.750   1.751  0.4236 -1.1293 -1.0329
 4219TIP3   OH234291   5.879   4.909   2.086  0.2285  0.0142 -0.0097
 4219TIP3    H134292   5.841   4.825   2.063  1.4016 -0.0580 -1.8878
 4219TIP3    H234293   5.888   4.955   2.003  1.2856  1.2746  0.7588
 4220TIP3   OH234294   1.020   2.267   8.814  0.6096 -0.5848  0.1507
 4220TIP3    H134295   1.115   2.264   8.824  0.8108 -1.2906 -1.6181
 4220TIP3    H234296   0.988   2.297   8.899  2.4047 -0.3033  0.7727
 4221TIP3   OH234297   1.283   0.706   0.298 -0.0416 -0.1993 -0.1880
 4221TIP3    H134298   1.367   0.726   0.340 -0.3066  1.0561 -0.2104
 4221TIP3    H234299   1.224   0.688   0.371 -0.1598  0.6042 -0.0743
 4222TIP3   OH234300   6.715   5.368   1.526 -0.3810 -0.1096 -0.4448
 4222TIP3    H134301   6.654   5.439   1.543 -1.4928 -1.0522 -0.4206
 4222TIP3    H234302   6.718   5.318   1.607  1.1180  0.4106 -0.1465
 4223TIP3   OH234303   1.768   1.080   1.028 -0.2820 -0.7892  0.1656
 4223TIP3    H134304   1.843   1.038   0.988  0.5279  1.4770 -0.8768
 4223TIP3    H234305   1.797   1.100   1.118  0.1850 -0.3997 -0.0672
 4224TIP3   OH234306   5.762   1.705   1.091 -0.3261 -0.0351  0.0904
 4224TIP3    H134307   5.750   1.696   1.186 -0.4816  1.7708  0.2785
 4224TIP3    H234308   5.697   1.769   1.064  0.6656  0.5716 -0.9828
 4225TIP3   OH234309   0.286   1.108   2.359  0.0661 -0.0543  0.2464
 4225TIP3    H134310   0.326   1.189   2.391  1.2751 -0.5157 -0.0319
 4225TIP3    H234311   0.298   1.045   2.429 -1.0763  0.0394  0.5538
 4226TIP3   OH234312   3.501   0.388   3.298  0.1890 -0.4511  0.3373
 4226TIP3    H134313   3.531   0.304   3.263 -0.1310 -0.5954  0.4079
 4226TIP3    H234314   3.522   0.385   3.391  1.8870  0.3022  0.0210
 4227TIP3   OH234315   6.455   6.435   2.089  0.1133  0.5252  1.2772
 4227TIP3    H134316   6.507   6.355   2.091  2.4123  1.9136  0.5461
 4227TIP3    H234317   6.370   6.409   2.125  0.4275 -2.4406  0.1245
 4228TIP3   OH234318   1.954   0.196   8.303 -0.1693 -0.1469  0.0813
 4228TIP3    H134319   1.879   0.174   8.248  1.2978  2.8798 -3.5018
 4228TIP3    H234320   1.915   0.233   8.382 -2.3966 -1.7161 -0.1792
 4229TIP3   OH234321   3.825   1.483   1.666 -0.3763 -0.6602  0.0636
 4229TIP3    H134322   3.888   1.418   1.633 -0.6211 -0.5005 -0.7580
 4229TIP3    H234323   3.750   1.474   1.607 -0.0644  0.9670 -0.6156
 4230TIP3   OH234324   5.379   2.606   2.081  0.1457  0.2539  0.1592
 4230TIP3    H134325   5.424   2.540   2.134 -0.0852 -1.4841 -1.7088
 4230TIP3    H234326   5.300   2.627   2.130 -1.2814 -3.0574 -0.4457
 4231TIP3   OH234327   5.494   2.879   0.383 -0.0316  0.0753  0.1385
 4231TIP3    H134328   5.441   2.813   0.337 -0.3837  0.9956 -0.8088
 4231TIP3    H234329   5.572   2.890   0.328  0.1207  0.3021  0.3992
 4232TIP3   OH234330   2.433   5.706   1.264 -0.8919 -0.0019 -0.3292
 4232TIP3    H134331   2.414   5.797   1.240  0.0445  0.2716 -0.0984
 4232TIP3    H234332   2.452   5.710   1.358  0.9033 -0.1061 -0.6470
 4233TIP3   OH234333   3.191   3.228   8.065 -0.7496  0.4036  0.3318
 4233TIP3    H134334   3.194   3.308   8.117 -1.1388 -0.2364  1.3738
 4233TIP3    H234335   3.138   3.250   7.989  0.7684  1.6925 -0.4311
 4234TIP3   OH234336   4.197   5.652   0.219  0.5082  0.0425 -0.6212
 4234TIP3    H134337   4.139   5.707   0.167  0.5652 -0.1046 -0.8420
 4234TIP3    H234338   4.215   5.576   0.163  0.1218 -0.3860 -0.1751
 4235TIP3   OH234339   4.537   5.006   8.790  0.7789  0.2470 -0.2941
 4235TIP3    H134340   4.531   4.967   8.702  0.0608 -0.8368  0.2156
 4235TIP3    H234341   4.450   4.995   8.827  1.0694  0.7286  0.5439
 4236TIP3   OH234342   2.403   6.686   1.145 -0.0461  0.8035 -0.0716
 4236TIP3    H134343   2.409   6.734   1.228 -1.6996  1.2565 -0.1861
 4236TIP3    H234344   2.490   6.646   1.135  0.0008  0.1783  2.1941
 4237TIP3   OH234345   4.684   3.812   8.859 -0.2016 -0.4317 -0.4146
 4237TIP3    H134346   4.660   3.901   8.834  0.0517  0.1263  1.2389
 4237TIP3    H234347   4.662   3.759   8.783  0.9285  1.2184 -1.9718
 4238TIP3   OH234348   0.045   1.599   7.489  0.5017  0.1130  0.1408
 4238TIP3    H134349   0.060   1.551   7.408  0.0929  0.7313 -0.3135
 4238TIP3    H234350  -0.050   1.613   7.491  0.1897 -1.7330  1.7988
 4239TIP3   OH234351   1.648   4.897   0.302 -0.3791  0.8248  0.0464
 4239TIP3    H134352   1.565   4.893   0.349  0.5071  1.0090  1.6989
 4239TIP3    H234353   1.635   4.841   0.225 -1.3322 -0.9126  1.4030
 4240TIP3   OH234354   0.040   2.912   0.205 -0.5617  0.5815 -0.6280
 4240TIP3    H134355  -0.022   2.940   0.137 -0.5701  0.8642 -0.5019
 4240TIP3    H234356   0.020   2.966   0.281  0.5716  1.4636 -0.9278
 4241TIP3   OH234357   5.824   6.424   8.521  0.1583 -0.2720  0.6417
 4241TIP3    H134358   5.908   6.469   8.529  1.7482 -2.9910  0.5560
 4241TIP3    H234359   5.819   6.368   8.599 -1.0705 -0.9346  0.1226
 4242TIP3   OH234360   3.847   5.377   0.054  0.0941  0.3765  0.0478
 4242TIP3    H134361   3.782   5.332   0.109  0.9314  0.7953  1.4141
 4242TIP3    H234362   3.853   5.465   0.091  1.8768  0.1604  0.3522
 4243TIP3   OH234363   5.537   0.468   8.839  0.1990 -0.1332 -0.1597
 4243TIP3    H134364   5.597   0.411   8.790 -0.7615 -0.5120 -0.9159
 4243TIP3    H234365   5.530   0.427   8.925 -0.0406 -0.8566 -0.5156
 4244TIP3   OH234366   0.949   0.602   8.435 -0.3344  0.1922  0.1619
 4244TIP3    H134367   0.962   0.515   8.472 -1.3208  0.1226  0.3563
 4244TIP3    H234368   1.038   0.637   8.427  0.0082 -0.4091  1.0809
 4245TIP3   OH234369   3.767   4.682   1.481  0.4966 -0.0280 -0.0349
 4245TIP3    H134370   3.833   4.627   1.438  0.5722 -0.9346  1.1596
 4245TIP3    H234371   3.707   4.619   1.522  1.8131  0.6601  3.2904
 4246TIP3   OH234372   1.796   6.614   2.542 -0.6136 -0.1084  0.4314
 4246TIP3    H134373   1.772   6.692   2.592  0.2536 -0.0540  0.7664
 4246TIP3    H234374   1.714   6.588   2.499 -0.9474  0.8902  0.4320
 4247TIP3   OH234375   6.409   3.378   2.394  0.2120 -0.2549 -0.1411
 4247TIP3    H134376   6.464   3.455   2.405 -0.6838  0.3403  0.2347
 4247TIP3    H234377   6.370   3.362   2.480 -0.0187 -0.8167 -0.3405
 4248TIP3   OH234378   0.857   4.175   1.916  0.2884  0.3641 -0.4240
 4248TIP3    H134379   0.859   4.079   1.923 -1.5169  0.2720 -0.7622
 4248TIP3    H234380   0.795   4.193   1.846 -0.7285  1.8084  0.7804
 4249TIP3   OH234381   0.306   5.775   8.970  0.0544  0.2169 -0.4669
 4249TIP3    H134382   0.347   5.799   9.053 -1.1299  0.7075 -0.0069
 4249TIP3    H234383   0.329   5.846   8.911 -0.9046  0.9922  0.0568
 4250TIP3   OH234384   3.892   3.711   0.133  0.2372 -0.3408 -0.4504
 4250TIP3    H134385   3.836   3.672   0.201 -2.2081  2.4548 -0.6556
 4250TIP3    H234386   3.914   3.798   0.167  0.6556  0.3497 -2.3605
 4251TIP3   OH234387   6.168   1.440   0.922  0.6289 -0.0976  0.1459
 4251TIP3    H134388   6.247   1.415   0.969  0.9754 -0.7981 -0.7760
 4251TIP3    H234389   6.101   1.449   0.990  0.9386 -1.7711  0.7152
 4252TIP3   OH234390   4.234   3.978   3.186 -0.0684  0.3539 -0.1245
 4252TIP3    H134391   4.273   3.962   3.272  0.9450 -2.8143 -1.0541
 4252TIP3    H234392   4.140   3.965   3.200 -0.0817  1.2118  0.7300
 4253TIP3   OH234393   4.202   3.720   2.858 -0.2881 -0.2003 -0.4048
 4253TIP3    H134394   4.187   3.627   2.838 -0.9472 -0.0967 -0.4096
 4253TIP3    H234395   4.151   3.767   2.793 -0.4685  0.1638 -0.0053
 4254TIP3   OH234396   1.000   6.257   1.631 -0.1902  0.2434  0.7429
 4254TIP3    H134397   1.012   6.163   1.644 -0.4759  0.3662  1.9772
 4254TIP3    H234398   1.052   6.298   1.700 -0.7982  0.9738  0.7802
 4255TIP3   OH234399   6.132   4.716   0.347 -0.1768  0.6399  0.3017
 4255TIP3    H134400   6.036   4.716   0.357 -0.6176 -1.8798 -2.3796
 4255TIP3    H234401   6.161   4.640   0.396  0.2971  0.7057  0.1281
 4256TIP3   OH234402   5.310   4.577   8.948  0.1011  0.6077 -0.3095
 4256TIP3    H134403   5.329   4.584   9.041 -0.0792  0.3023 -0.2473
 4256TIP3    H234404   5.346   4.656   8.909 -0.5966  1.1610  0.1468
 4257TIP3   OH234405   3.167   3.498   0.293 -0.2012  0.2076  0.2715
 4257TIP3    H134406   3.181   3.411   0.255 -1.2782 -0.1486  0.6588
 4257TIP3    H234407   3.172   3.484   0.387 -1.5294  0.3367  0.3788
 4258TIP3   OH234408   5.315   3.365   1.241 -0.6502  0.3284 -0.3000
 4258TIP3    H134409   5.306   3.321   1.326  2.9437 -0.1889 -0.0040
 4258TIP3    H234410   5.285   3.455   1.257 -0.0171  0.2514  1.5634
 4259TIP3   OH234411   0.559   3.400   2.588 -0.3961  0.4891 -0.4421
 4259TIP3    H134412   0.610   3.480   2.574 -0.6168  1.4360  3.1099
 4259TIP3    H234413   0.613   3.348   2.648 -1.5982 -0.6108 -0.2837
 4260TIP3   OH234414   6.675   4.162   2.755 -0.5360  0.0018 -0.3952
 4260TIP3    H134415   6.592   4.114   2.761 -1.1317  1.1662  2.4860
 4260TIP3    H234416   6.742   4.095   2.763 -1.3393 -0.5997  3.7604
 4261TIP3   OH234417   1.974   0.399   8.080 -0.6700  0.3281 -0.0363
 4261TIP3    H134418   2.048   0.379   8.023 -1.0069 -0.7722 -0.1129
 4261TIP3    H234419   1.961   0.320   8.132 -0.6103  1.1791  1.3221
 4262TIP3   OH234420   1.928   1.851   8.671  0.0409 -0.9708 -0.1406
 4262TIP3    H134421   1.932   1.944   8.650  1.3667 -0.3793  2.3745
 4262TIP3    H234422   1.860   1.844   8.738  0.5425 -1.6612  0.3157
 4263TIP3   OH234423   4.333   6.106   2.065  0.0472 -0.3182  0.3998
 4263TIP3    H134424   4.346   6.047   1.990 -1.3673 -0.6697  0.4153
 4263TIP3    H234425   4.291   6.183   2.027 -0.2603 -0.3090  0.7566
 4264TIP3   OH234426   4.572   4.482   2.029 -0.0699  0.0585  0.6696
 4264TIP3    H134427   4.486   4.511   1.998 -0.4824 -0.5782  1.1701
 4264TIP3    H234428   4.635   4.537   1.983 -0.7275  0.1914 -0.0914
 4265TIP3   OH234429   5.200   4.729   8.681  0.1359 -0.2552  0.0259
 4265TIP3    H134430   5.188   4.823   8.674 -2.2632 -0.4692  0.2765
 4265TIP3    H234431   5.200   4.712   8.776  0.7604 -0.4891 -0.0123
 4266TIP3   OH234432   4.306   5.856   7.729 -0.7554 -0.1892  0.0848
 4266TIP3    H134433   4.278   5.898   7.648  0.3448  2.7075  1.0842
 4266TIP3    H234434   4.399   5.840   7.717 -0.5818  0.2561  0.7302
 4267TIP3   OH234435   6.067   0.276   0.421 -0.1810  0.5326 -0.0583
 4267TIP3    H134436   6.054   0.182   0.434  1.3144  0.3125 -0.0405
 4267TIP3    H234437   6.157   0.285   0.390 -0.6199  1.8859 -1.0735
 4268TIP3   OH234438   1.945   2.329   0.444  0.0648 -0.1056 -0.3793
 4268TIP3    H134439   1.981   2.249   0.480 -0.9519 -0.0728  0.7706
 4268TIP3    H234440   1.998   2.400   0.482  0.6417 -0.1892 -1.0047
 4269TIP3   OH234441   5.985   0.530   8.414 -0.0076  0.0978 -0.1270
 4269TIP3    H134442   5.914   0.588   8.439 -0.9740 -1.0999  0.0127
 4269TIP3    H234443   5.948   0.471   8.349  1.7805  1.4975 -2.5927
 4270TIP3   OH234444   1.608   0.193   8.908  0.2848  0.9720 -0.2234
 4270TIP3    H134445   1.520   0.175   8.941  0.0636 -0.7719 -1.6316
 4270TIP3    H234446   1.618   0.136   8.832  3.3507 -0.3361  0.9752
 4271TIP3   OH234447   0.700   5.877   1.499 -0.4942 -0.1101  0.0792
 4271TIP3    H134448   0.650   5.901   1.577  0.8700  1.3188  0.5598
 4271TIP3    H234449   0.704   5.781   1.502 -1.4304 -0.1391  1.1269
 4272TIP3   OH234450   1.594   3.284   0.289  0.3594  0.0321  0.7569
 4272TIP3    H134451   1.539   3.316   0.360 -0.3585 -0.2323  0.3317
 4272TIP3    H234452   1.540   3.292   0.211  0.3894 -1.5637  0.5378
 4273TIP3   OH234453   5.972   1.252   1.298  0.1028  0.0826 -0.5875
 4273TIP3    H134454   5.928   1.173   1.268  1.0102 -0.2910 -0.9739
 4273TIP3    H234455   6.062   1.224   1.317  0.2577  0.8776 -0.0810
 4274TIP3   OH234456   0.377   0.805   7.485  0.2265  0.2233  0.2568
 4274TIP3    H134457   0.396   0.863   7.411  1.9544 -2.0586 -1.2497
 4274TIP3    H234458   0.445   0.737   7.480 -1.7128 -2.0119  1.8064
 4275TIP3   OH234459   3.309   1.834   2.237 -0.8105  0.0707  0.1907
 4275TIP3    H134460   3.234   1.841   2.295 -0.3250  3.0487  0.6251
 4275TIP3    H234461   3.385   1.841   2.295 -0.3177  2.5079 -0.6303
 4276TIP3   OH234462   5.578   6.356   0.627  0.1301 -0.0711  0.0404
 4276TIP3    H134463   5.512   6.399   0.681  0.8367 -0.8726  1.5829
 4276TIP3    H234464   5.647   6.422   0.615  0.3929 -0.1806  0.9070
 4277TIP3   OH234465   6.172   1.775   1.566  0.4470  0.4484 -0.4261
 4277TIP3    H134466   6.260   1.798   1.536  1.7463  1.8755  3.7717
 4277TIP3    H234467   6.177   1.681   1.585  1.3258  0.6373  0.3648
 4278TIP3   OH234468   2.855   0.630   1.794 -0.2379  0.3316  0.4095
 4278TIP3    H134469   2.919   0.585   1.740 -1.8061 -2.1098  0.4144
 4278TIP3    H234470   2.841   0.571   1.869  1.8296  3.5326  3.6568
 4279TIP3   OH234471   1.029   2.187   0.150  0.0878  0.1396  0.4723
 4279TIP3    H134472   1.111   2.172   0.103  0.3009  0.8977  0.5883
 4279TIP3    H234473   1.046   2.265   0.203 -0.2547 -0.4917  1.5465
 4280TIP3   OH234474   5.412   4.267   3.177  0.1759  0.4525 -0.0527
 4280TIP3    H134475   5.500   4.230   3.171  0.6471  1.5027  0.1666
 4280TIP3    H234476   5.371   4.248   3.093  0.1090 -1.2564  0.3398
 4281TIP3   OH234477   4.769   2.017   1.316 -0.3055  0.2536 -0.2564
 4281TIP3    H134478   4.687   1.987   1.278  0.3101 -0.3855 -1.1258
 4281TIP3    H234479   4.799   1.943   1.369 -0.2654  0.4701  0.0258
 4282TIP3   OH234480   1.921   1.047   0.470 -0.5287 -0.0566  0.0320
 4282TIP3    H134481   1.828   1.043   0.493 -0.4515  0.1565  0.3929
 4282TIP3    H234482   1.958   0.966   0.506 -0.3016  0.5349  1.1715
 4283TIP3   OH234483   3.688   0.779   0.659  0.0564 -0.6518  0.2975
 4283TIP3    H134484   3.772   0.796   0.703  0.2012  0.6636 -0.4301
 4283TIP3    H234485   3.639   0.860   0.670 -0.7452 -1.0704 -0.1175
 4284TIP3   OH234486   5.730   5.981   2.381 -0.6599  0.4916 -0.6396
 4284TIP3    H134487   5.655   5.932   2.415  2.0198 -1.9889  2.3629
 4284TIP3    H234488   5.749   5.939   2.297 -1.5560 -0.0871 -0.5688
 4285TIP3   OH234489   2.571   2.854   2.312  0.7732  0.1489 -0.1437
 4285TIP3    H134490   2.537   2.867   2.400 -0.7216 -1.2115 -0.4856
 4285TIP3    H234491   2.494   2.860   2.255  1.7677  1.4624 -1.4302
 4286TIP3   OH234492   0.834   6.060   0.249  0.9862  0.1527  0.0435
 4286TIP3    H134493   0.839   5.979   0.198 -0.4148 -1.3997  2.1873
 4286TIP3    H234494   0.919   6.066   0.293  0.4659 -1.1928  1.2806
 4287TIP3   OH234495   2.145   2.380   1.209 -0.0652 -0.2634 -0.0579
 4287TIP3    H134496   2.068   2.435   1.198 -0.4370 -0.8805 -0.5969
 4287TIP3    H234497   2.111   2.291   1.212  0.6876 -0.6305 -1.4028
 4288TIP3   OH234498   2.735   5.912   2.163  0.1981 -0.3231  0.5449
 4288TIP3    H134499   2.658   5.937   2.111  0.6133  0.6438  0.3666
 4288TIP3    H234500   2.706   5.921   2.253  0.0448 -0.1293  0.4779
 4289TIP3   OH234501   3.787   1.918   1.248  0.0974  0.7714  0.0531
 4289TIP3    H134502   3.825   1.963   1.172 -2.2877  1.4966 -0.8007
 4289TIP3    H234503   3.855   1.856   1.275  1.0116  0.3868 -2.7649
 4290TIP3   OH234504   3.607   1.194   1.441 -0.0629 -0.3886 -0.5306
 4290TIP3    H134505   3.613   1.193   1.345  2.5607  1.9483 -0.4941
 4290TIP3    H234506   3.640   1.280   1.467  1.0323 -1.6048  2.5690
 4291TIP3   OH234507   5.904   5.712   2.598 -0.7699  0.2213 -0.2805
 4291TIP3    H134508   5.848   5.769   2.651 -1.1994  0.3870 -0.8998
 4291TIP3    H234509   5.913   5.632   2.650 -2.3069 -0.1495 -0.5306
 4292TIP3   OH234510   0.373   3.343   0.129  0.9709  0.6334 -0.6541
 4292TIP3    H134511   0.434   3.322   0.200  1.2451  1.2532 -0.6942
 4292TIP3    H234512   0.407   3.425   0.093  0.2578  0.8462 -0.8485
 4293TIP3   OH234513   5.545   5.588   8.462 -0.4075 -0.4196 -0.2234
 4293TIP3    H134514   5.628   5.578   8.415  0.0663 -0.4667  0.6042
 4293TIP3    H234515   5.550   5.526   8.534 -0.1608  1.1693  1.1971
 4294TIP3   OH234516   0.569   4.765   8.421  0.3224  0.3280 -0.0243
 4294TIP3    H134517   0.627   4.842   8.420 -0.6044  1.1046 -2.7398
 4294TIP3    H234518   0.614   4.701   8.367 -0.3791  0.1552 -0.4096
 4295TIP3   OH234519   5.495   4.439   0.448  0.0014 -0.1144  0.0502
 4295TIP3    H134520   5.456   4.360   0.410 -1.5625  0.4710  0.3750
 4295TIP3    H234521   5.423   4.501   0.454  0.9623  0.9666  0.8463
 4296TIP3   OH234522   4.546   2.702   0.437  0.5711 -0.0525  0.4818
 4296TIP3    H134523   4.508   2.665   0.357  0.8946 -1.6731  1.0538
 4296TIP3    H234524   4.636   2.669   0.438  0.9115  0.8588  0.9607
 4297TIP3   OH234525   0.786   4.506   9.033  0.1555 -0.4544  0.8083
 4297TIP3    H134526   0.700   4.528   8.997  0.6858  1.1214  0.4107
 4297TIP3    H234527   0.840   4.487   8.956 -0.1177 -2.7105  1.1125
 4298TIP3   OH234528   5.007   0.672   1.636  0.7915  0.8225 -0.0993
 4298TIP3    H134529   4.955   0.632   1.705  0.1647  1.2363 -0.3330
 4298TIP3    H234530   5.080   0.611   1.624 -0.6355 -0.7728 -1.1077
 4299TIP3   OH234531   2.257   5.903   0.895 -0.1043  0.4830  0.6692
 4299TIP3    H134532   2.263   5.808   0.883  0.7682  0.7278 -1.2362
 4299TIP3    H234533   2.177   5.916   0.946 -0.6654 -1.2246  0.2926
 4300TIP3   OH234534   5.314   1.087   8.973 -1.1192  0.0136  0.6084
 4300TIP3    H134535   5.363   1.007   8.952  0.7555  1.4585 -0.9188
 4300TIP3    H234536   5.356   1.120   9.052 -0.2402  0.7255 -0.1356
 4301TIP3   OH234537   3.359   3.067   0.040  0.2837  0.1756  0.1511
 4301TIP3    H134538   3.313   2.996  -0.006  0.2950 -0.1226  0.5866
 4301TIP3    H234539   3.383   3.028   0.124  1.1851  0.3864 -0.0019
 4302TIP3   OH234540   5.321   2.989   7.552 -0.1882  0.0046  0.0905
 4302TIP3    H134541   5.398   2.972   7.497  0.6062 -1.6044  1.6003
 4302TIP3    H234542   5.287   2.902   7.572 -3.0038  0.6886 -1.2615
 4303TIP3   OH234543   4.021   0.321   3.095  0.1412 -0.1933 -0.0998
 4303TIP3    H134544   3.954   0.266   3.137 -1.8468  1.7976 -0.4342
 4303TIP3    H234545   4.018   0.296   3.003 -0.9561  0.5925 -0.2993
 4304TIP3   OH234546   2.847   2.667   8.502 -0.3577  0.4812 -0.7407
 4304TIP3    H134547   2.908   2.686   8.573 -2.0894 -0.7540  1.2094
 4304TIP3    H234548   2.874   2.581   8.469  0.1253  0.8209 -1.2559
 4305TIP3   OH234549   3.880   1.166   0.276 -0.2068 -0.2874 -0.1715
 4305TIP3    H134550   3.825   1.088   0.265 -1.2497  0.7064 -2.8617
 4305TIP3    H234551   3.838   1.214   0.347 -1.7267 -0.4886 -0.8784
 4306TIP3   OH234552   5.155   5.421   7.495 -0.3408  0.4456 -0.0814
 4306TIP3    H134553   5.144   5.484   7.424 -0.4997  0.3896 -0.1059
 4306TIP3    H234554   5.219   5.462   7.554  0.6599 -0.0039 -0.8362
 4307TIP3   OH234555   2.853   0.162   0.184  0.1051  0.1697 -0.3105
 4307TIP3    H134556   2.826   0.251   0.206 -1.1579  0.0573 -1.2822
 4307TIP3    H234557   2.827   0.151   0.092 -1.4107 -1.7917  0.2837
 4308TIP3   OH234558   5.163   2.574   8.253  0.0555  0.3534  0.0944
 4308TIP3    H134559   5.185   2.534   8.169 -0.8233  1.0263 -0.4648
 4308TIP3    H234560   5.095   2.518   8.290 -0.9198  1.1055 -0.5258
 4309TIP3   OH234561   1.831   0.523   8.287  0.1154 -0.3030 -0.5106
 4309TIP3    H134562   1.751   0.562   8.252 -0.2245 -1.7271 -1.4184
 4309TIP3    H234563   1.894   0.528   8.216  0.0455 -1.4163 -0.6733
 4310TIP3   OH234564   1.956   5.035   0.718 -0.0092 -0.2004 -0.1902
 4310TIP3    H134565   2.051   5.025   0.723  0.0807  0.9759  3.3641
 4310TIP3    H234566   1.920   4.953   0.752 -0.1258  0.4694  1.3651
 4311TIP3   OH234567   6.616   4.711   1.285 -0.5257  0.2526 -0.1783
 4311TIP3    H134568   6.570   4.692   1.204 -2.3806 -0.0899  0.8928
 4311TIP3    H234569   6.707   4.689   1.267 -0.8081  0.5885 -2.2670
 4312TIP3   OH234570   5.877   2.722   2.719 -0.0819 -0.2133  0.4592
 4312TIP3    H134571   5.798   2.669   2.723  0.4745 -1.1782 -0.7126
 4312TIP3    H234572   5.880   2.753   2.628  0.9488 -0.3043  0.4504
 4313TIP3   OH234573   1.692   3.851   8.410 -0.1310  0.1949  0.0082
 4313TIP3    H134574   1.717   3.786   8.344 -1.3643 -0.8046  0.4754
 4313TIP3    H234575   1.667   3.928   8.359 -0.5840 -0.3885 -0.6859
 4314TIP3   OH234576   2.756   3.346   2.480 -0.4732  0.0044 -0.2642
 4314TIP3    H134577   2.666   3.375   2.469 -1.0675 -1.9250 -0.8984
 4314TIP3    H234578   2.760   3.316   2.571  0.6750  3.5419  1.0369
 4315TIP3   OH234579   0.250   0.629   3.319  0.3234  0.1298 -0.2872
 4315TIP3    H134580   0.184   0.685   3.359 -1.1242 -1.2420 -0.6358
 4315TIP3    H234581   0.277   0.570   3.389  0.4053  0.0096 -0.4199
 4316TIP3   OH234582   1.644   1.145   7.658  0.3298  0.6034 -0.0881
 4316TIP3    H134583   1.720   1.191   7.621  0.8661  0.2867  0.6081
 4316TIP3    H234584   1.682   1.083   7.721 -0.3916 -0.6626 -0.8628
 4317TIP3   OH234585   0.983   1.618   2.519  0.3005 -0.2913 -0.6355
 4317TIP3    H134586   0.994   1.535   2.566  0.3074  0.9690  1.6841
 4317TIP3    H234587   0.892   1.642   2.533  0.8424  1.1612  0.6378
 4318TIP3   OH234588   6.393   3.245   1.048  0.9022 -0.2224  0.4787
 4318TIP3    H134589   6.308   3.213   1.017  0.4159 -0.1752  1.6916
 4318TIP3    H234590   6.432   3.170   1.092  0.5084  0.3405  1.8363
 4319TIP3   OH234591   0.085   4.767   0.849  0.0898  0.6416 -0.0514
 4319TIP3    H134592   0.114   4.739   0.763 -1.7906  1.0977 -0.8892
 4319TIP3    H234593   0.153   4.827   0.879 -0.4814  2.6413 -2.4435
 4320TIP3   OH234594   0.778   4.026   0.195 -0.0866 -0.2979  0.0882
 4320TIP3    H134595   0.801   4.035   0.287 -0.2087 -1.5993  0.2623
 4320TIP3    H234596   0.684   4.011   0.195  0.2662 -2.9703 -0.0092
 4321TIP3   OH234597   6.681   0.790   1.289 -0.3278 -0.3572 -0.0831
 4321TIP3    H134598   6.593   0.821   1.270 -0.8598 -0.8589  1.4446
 4321TIP3    H234599   6.705   0.835   1.370  1.0214  0.1227 -0.7055
 4322TIP3   OH234600   6.154   6.516   9.058  0.1780 -0.5399 -0.2069
 4322TIP3    H134601   6.129   6.482   8.972 -0.9871  0.8231 -0.4453
 4322TIP3    H234602   6.248   6.533   9.051  0.0224 -0.0711 -1.3619
 4323TIP3   OH234603   2.869   4.544   2.432  0.4299 -0.1021 -0.5445
 4323TIP3    H134604   2.869   4.639   2.439  1.0558  0.0220 -1.8142
 4323TIP3    H234605   2.808   4.525   2.360  0.1894 -0.6704 -0.1978
 4324TIP3   OH234606   0.426   3.798   3.529  0.0301  0.2490  0.0840
 4324TIP3    H134607   0.412   3.877   3.581  2.8779 -0.1383  1.6239
 4324TIP3    H234608   0.520   3.797   3.512 -0.2671 -1.6839 -1.8034
 4325TIP3   OH234609   0.999   0.244   2.064  0.1661 -0.1688  0.0227
 4325TIP3    H134610   1.043   0.313   2.113  0.2252 -0.3380  0.2097
 4325TIP3    H234611   1.024   0.259   1.973 -2.3223  1.9824 -0.4349
 4326TIP3   OH234612   0.288   3.588   1.359  0.4022 -0.2015  0.3301
 4326TIP3    H134613   0.297   3.629   1.273 -0.6980  0.7881  0.6625
 4326TIP3    H234614   0.321   3.654   1.421  0.5504 -0.6330  0.7182
 4327TIP3   OH234615   2.640   4.484   0.074 -0.2646 -0.2217 -0.1216
 4327TIP3    H134616   2.581   4.509   0.145 -0.4105 -0.1266 -0.2748
 4327TIP3    H234617   2.604   4.528  -0.003  0.8697  1.0992  0.0606
 4328TIP3   OH234618   1.903   3.635   2.959 -0.1773 -0.2326  0.5012
 4328TIP3    H134619   1.914   3.570   2.890  1.6222  0.2366  0.3142
 4328TIP3    H234620   1.941   3.715   2.923 -0.7103  0.4520  1.4195
 4329TIP3   OH234621   3.261   6.470   0.072 -0.0106  0.0125  0.0738
 4329TIP3    H134622   3.208   6.546   0.094  0.0989  0.5189 -1.3265
 4329TIP3    H234623   3.198   6.402   0.049 -0.1420 -0.6346  2.1141
 4330TIP3   OH234624   3.518   5.377   0.057 -0.2082  0.6192  0.0244
 4330TIP3    H134625   3.436   5.354   0.015  0.5027 -1.1973 -0.4737
 4330TIP3    H234626   3.527   5.315   0.130  0.7994  0.6410 -0.0561
 4331TIP3   OH234627   5.292   0.377   0.181 -0.3914  0.4293  0.3517
 4331TIP3    H134628   5.378   0.419   0.183 -0.1350 -0.0886  1.3632
 4331TIP3    H234629   5.296   0.312   0.252 -1.0658 -0.7017 -0.6162
 4332TIP3   OH234630   6.422   2.435   2.751 -0.3643 -0.2071 -0.5411
 4332TIP3    H134631   6.393   2.424   2.842  1.7460  2.6973  0.6351
 4332TIP3    H234632   6.511   2.401   2.750 -0.1413  0.3763 -1.3635
 4333TIP3   OH234633   1.604   1.961   0.006  0.0078  0.0086 -0.3766
 4333TIP3    H134634   1.509   1.955   0.002 -0.0598  0.4535  0.4410
 4333TIP3    H234635   1.621   2.049   0.037  0.6684 -0.4087  0.4683
 4334TIP3   OH234636   1.214   4.783   7.956 -0.5231 -0.3031 -0.1220
 4334TIP3    H134637   1.210   4.871   7.994  0.9288 -0.2574 -0.0262
 4334TIP3    H234638   1.153   4.786   7.882 -1.9648  0.1765  1.0331
 4335TIP3   OH234639   4.433   6.257   1.640 -0.2849  0.7288 -0.4790
 4335TIP3    H134640   4.392   6.189   1.586  0.2826  0.7891 -0.9953
 4335TIP3    H234641   4.399   6.339   1.604  0.4599  0.7876 -1.0538
 4336TIP3   OH234642   2.856   5.743   1.352  0.7387 -0.0153  0.5702
 4336TIP3    H134643   2.864   5.787   1.436  0.3939  0.5028  0.3305
 4336TIP3    H234644   2.766   5.760   1.324  1.6546  2.2709 -1.2599
 4337TIP3   OH234645   2.332   1.868   1.523 -0.2762  0.0124  0.1265
 4337TIP3    H134646   2.270   1.865   1.597  0.0223  0.6901  0.4136
 4337TIP3    H234647   2.395   1.799   1.542  0.2806  0.7210  0.9609
 4338TIP3   OH234648   3.708   5.774   1.433  0.3555 -0.1013 -0.1952
 4338TIP3    H134649   3.666   5.851   1.395  2.5147  0.6256 -1.2745
 4338TIP3    H234650   3.719   5.714   1.359  0.6400 -0.5511  0.2083
 4339TIP3   OH234651   6.437   2.359   0.980  0.0301 -0.1778  0.1347
 4339TIP3    H134652   6.421   2.345   0.887 -3.7475 -1.8148  0.8465
 4339TIP3    H234653   6.486   2.282   1.008 -0.5789 -0.6865 -0.1712
 4340TIP3   OH234654   3.763   0.568   8.022 -0.0121 -0.1265  0.2417
 4340TIP3    H134655   3.821   0.572   8.097  0.3425 -1.7853  0.0943
 4340TIP3    H234656   3.792   0.639   7.964  0.6854  0.1885  0.9750
 4341TIP3   OH234657   0.394   4.070   3.368 -0.1552 -0.2819  0.1643
 4341TIP3    H134658   0.366   4.055   3.459 -0.0853 -0.6834  0.1219
 4341TIP3    H234659   0.315   4.056   3.317 -0.0300 -0.7864  0.1009
 4342TIP3   OH234660   5.496   3.202   0.227  0.2504  0.1465  0.7240
 4342TIP3    H134661   5.574   3.165   0.186 -0.1844 -1.9615  1.6871
 4342TIP3    H234662   5.424   3.173   0.173  0.0686  2.2391 -0.2654
 4343TIP3   OH234663   2.153   0.056   7.871  0.2148  0.1573  0.3361
 4343TIP3    H134664   2.222   0.026   7.930 -0.2379  1.5719  1.6354
 4343TIP3    H234665   2.155  -0.006   7.798  2.4144 -0.2087  0.6542
 4344TIP3   OH234666   2.650   0.203   0.866 -0.0817  0.3182  0.2749
 4344TIP3    H134667   2.666   0.120   0.819 -0.2282  0.0706  0.6623
 4344TIP3    H234668   2.674   0.271   0.803  1.4455 -0.0307  0.4547
 4345TIP3   OH234669   0.867   3.840   3.128  0.0473  0.2996 -0.1183
 4345TIP3    H134670   0.846   3.907   3.192  0.1639  0.6362 -0.4320
 4345TIP3    H234671   0.945   3.873   3.083  0.4309 -0.2900  0.0909
 4346TIP3   OH234672   0.103   5.730   8.377 -0.2337 -0.1563 -0.3422
 4346TIP3    H134673   0.142   5.666   8.317  1.4262 -0.1824  0.7013
 4346TIP3    H234674   0.140   5.814   8.349 -3.6455  0.7616 -2.7674
 4347TIP3   OH234675   4.138   6.001   1.628 -0.2556 -0.1025 -0.3990
 4347TIP3    H134676   4.095   5.931   1.579 -1.2949  0.5600 -0.4631
 4347TIP3    H234677   4.193   6.046   1.564  2.8575 -2.6339  0.2112
 4348TIP3   OH234678   3.108   5.577   1.584 -0.4808 -0.4573 -0.0542
 4348TIP3    H134679   3.043   5.540   1.524 -2.0287  0.6881  0.8391
 4348TIP3    H234680   3.064   5.577   1.669  0.8037  0.1058  0.6332
 4349TIP3   OH234681   4.056   4.029   0.777 -0.4753  0.4134  0.0882
 4349TIP3    H134682   4.110   3.951   0.768  0.7646  1.0653  1.3626
 4349TIP3    H234683   4.035   4.055   0.688 -0.4940 -1.0836 -0.3621
 4350TIP3   OH234684   4.427   5.431   8.839 -0.2106 -0.1239 -0.3548
 4350TIP3    H134685   4.381   5.439   8.756  0.6562  1.1850 -0.7318
 4350TIP3    H234686   4.467   5.517   8.854 -2.2042  0.4543  2.5441
 4351TIP3   OH234687   6.563   3.277   0.119 -0.3935  0.8451  0.5006
 4351TIP3    H134688   6.546   3.332   0.043  1.1069  2.2771  1.1220
 4351TIP3    H234689   6.566   3.188   0.085 -1.1988  1.3053 -0.8456
 4352TIP3   OH234690   1.197   2.901   2.827  0.4724 -0.4467  0.1260
 4352TIP3    H134691   1.162   2.854   2.902  2.3178  0.9665  1.9555
 4352TIP3    H234692   1.185   2.993   2.849  4.3091  0.1103  0.4530
 4353TIP3   OH234693   5.786   4.485   2.948  0.3048  0.5009 -0.4395
 4353TIP3    H134694   5.855   4.432   2.907 -1.4243 -0.2609 -2.5574
 4353TIP3    H234695   5.827   4.520   3.027  2.4154 -1.7309 -0.4037
 4354TIP3   OH234696   4.658   2.848   9.053 -0.1721 -0.2772 -0.3028
 4354TIP3    H134697   4.684   2.781   9.116 -1.2071 -1.0278 -0.6431
 4354TIP3    H234698   4.699   2.820   8.971  0.7355  0.4125 -0.1103
 4355TIP3   OH234699   3.057   1.928   0.898 -0.3074 -0.3804  0.2704
 4355TIP3    H134700   3.108   2.008   0.906 -2.2795  0.9343  0.4371
 4355TIP3    H234701   3.122   1.858   0.896  1.4900  1.2098  0.0213
 4356TIP3   OH234702   5.631   3.194   2.223  0.1298  0.0371  0.2953
 4356TIP3    H134703   5.609   3.276   2.178 -1.6372 -0.4997  0.0943
 4356TIP3    H234704   5.600   3.206   2.312 -0.9150 -0.6841  0.0506
 4357TIP3   OH234705   4.896   6.450   2.724  0.3318  0.4205  0.1785
 4357TIP3    H134706   4.871   6.444   2.816  1.0597 -1.5532  0.2819
 4357TIP3    H234707   4.895   6.544   2.705 -0.6718  0.8031  1.9485
 4358TIP3   OH234708   5.173   3.067   7.339 -0.0327 -0.1178  0.5301
 4358TIP3    H134709   5.124   3.149   7.332 -1.6148 -1.0063  0.7396
 4358TIP3    H234710   5.184   3.054   7.433  1.9678  0.8031  0.4811
 4359TIP3   OH234711   1.192   1.938   7.896  0.7346 -0.0690  0.0747
 4359TIP3    H134712   1.227   1.931   7.984  1.0932 -0.1601 -0.0704
 4359TIP3    H234713   1.202   2.030   7.873 -0.2140  0.1450  0.4689
 4360TIP3   OH234714   2.526   0.527   9.016 -0.2229  0.6410  0.5619
 4360TIP3    H134715   2.598   0.561   8.962 -1.1998  1.4757 -0.2696
 4360TIP3    H234716   2.450   0.581   8.991 -1.1044 -0.1202  1.5149
 4361TIP3   OH234717   3.885   6.699   0.233  0.2549 -0.0723 -0.3601
 4361TIP3    H134718   3.803   6.743   0.210 -0.2602 -0.4222  0.7366
 4361TIP3    H234719   3.928   6.683   0.149 -0.4921  0.6964 -0.9078
 4362TIP3   OH234720   3.680   2.614   0.826 -0.2765 -0.3229 -0.3455
 4362TIP3    H134721   3.664   2.577   0.912  0.7724 -2.5395 -1.0414
 4362TIP3    H234722   3.769   2.649   0.831  0.3884 -1.8468 -0.9279
 4363TIP3   OH234723   5.211   5.173   0.326  0.2433  0.3371  0.4050
 4363TIP3    H134724   5.303   5.157   0.348  1.1912  2.9987 -1.0863
 4363TIP3    H234725   5.176   5.087   0.302  2.5102 -0.6464  0.3866
 4364TIP3   OH234726   1.030   2.826   3.648  0.0302 -0.4321 -0.3301
 4364TIP3    H134727   1.117   2.789   3.664 -0.1415 -0.9891 -0.6721
 4364TIP3    H234728   0.993   2.773   3.578 -0.8479 -0.6304  0.2596
 4365TIP3   OH234729   1.943   3.438   2.759 -0.0598  0.7066 -0.0166
 4365TIP3    H134730   2.034   3.410   2.749  0.9412  2.2564  3.3513
 4365TIP3    H234731   1.922   3.480   2.676  1.3677 -1.8014 -1.8122
 4366TIP3   OH234732   4.158   1.910   1.673  0.0167  0.2727 -0.5531
 4366TIP3    H134733   4.070   1.874   1.669 -0.7411  1.8914  0.5878
 4366TIP3    H234734   4.202   1.860   1.742 -0.8241  1.0650  0.5870
 4367TIP3   OH234735   3.374   1.834   8.389  0.2851 -0.5004  0.1012
 4367TIP3    H134736   3.466   1.807   8.387  0.6129  0.5899 -0.2020
 4367TIP3    H234737   3.327   1.758   8.354  1.0268 -1.1976  0.5579
 4368TIP3   OH234738   3.769   3.318   1.649 -0.2140  0.1938 -0.0178
 4368TIP3    H134739   3.861   3.333   1.628  0.0437  0.1605  1.0278
 4368TIP3    H234740   3.721   3.372   1.587  0.4097 -1.3572 -1.9740
 4369TIP3   OH234741   2.546   1.204   8.514  0.8913  0.6669 -0.2969
 4369TIP3    H134742   2.461   1.247   8.523 -0.0966 -0.8885 -1.5785
 4369TIP3    H234743   2.538   1.152   8.434  1.9092 -2.0457  1.2317
 4370TIP3   OH234744   3.829   5.502   0.447  0.7576 -0.1369 -0.0050
 4370TIP3    H134745   3.897   5.562   0.477  1.9583 -0.8932 -1.1095
 4370TIP3    H234746   3.752   5.527   0.497  2.2730 -0.4444  2.6554
 4371TIP3   OH234747   1.391   4.148   0.198  0.2898 -0.3324 -0.2356
 4371TIP3    H134748   1.412   4.082   0.265 -0.8599 -0.3929  0.0935
 4371TIP3    H234749   1.318   4.109   0.148  2.1136 -0.9591 -2.5691
 4372TIP3   OH234750   0.070   3.682   8.990  0.1853  0.1001  0.3015
 4372TIP3    H134751   0.098   3.619   9.056  1.3199 -0.3678 -0.5944
 4372TIP3    H234752   0.032   3.629   8.920 -0.0042  0.5116  0.0822
 4373TIP3   OH234753   2.696   0.640   1.284  0.4298 -0.0481  0.2592
 4373TIP3    H134754   2.768   0.642   1.220  1.8700 -1.5849  1.7309
 4373TIP3    H234755   2.738   0.657   1.368 -0.6606 -2.2821  1.3405
 4374TIP3   OH234756   4.931   0.217   1.063  0.4793 -0.5487  0.0596
 4374TIP3    H134757   4.921   0.166   0.982  1.0237 -1.5718  0.6122
 4374TIP3    H234758   4.842   0.245   1.084  0.1815 -1.1801 -0.3239
 4375TIP3   OH234759   4.896   5.331   2.962 -0.2328  0.3569 -0.0191
 4375TIP3    H134760   4.948   5.411   2.952  0.5638  0.0387  1.3578
 4375TIP3    H234761   4.846   5.345   3.042 -2.6707  0.8249 -1.5276
 4376TIP3   OH234762   0.508   3.978   2.220  0.4501 -0.1889 -0.7319
 4376TIP3    H134763   0.554   3.928   2.287  1.7564  0.0200 -1.4515
 4376TIP3    H234764   0.546   4.066   2.224 -2.2150  1.0298  0.9266
 4377TIP3   OH234765   4.714   1.001   2.813 -0.4580  0.6008 -0.0062
 4377TIP3    H134766   4.700   1.084   2.859 -1.0208  1.3299 -1.4369
 4377TIP3    H234767   4.654   0.940   2.856 -1.3159  1.3819 -0.0630
 4378TIP3   OH234768   2.302   5.047   0.209  0.1857  0.6386 -0.0565
 4378TIP3    H134769   2.231   5.024   0.269  0.8410 -0.0686  0.4712
 4378TIP3    H234770   2.260   5.054   0.124 -0.5602  0.4768  0.2908
 4379TIP3   OH234771   6.132   3.598   8.588  0.5163  0.1619 -0.2445
 4379TIP3    H134772   6.119   3.644   8.505  0.0694 -1.5211 -1.1413
 4379TIP3    H234773   6.057   3.540   8.596 -0.1994  1.2540  2.0606
 4380TIP3   OH234774   0.000   6.361   0.186  0.1175 -0.2771 -0.0478
 4380TIP3    H134775  -0.001   6.272   0.152 -3.3640 -0.0419 -0.9015
 4380TIP3    H234776  -0.032   6.415   0.114 -0.8087  1.2191  1.4081
 4381TIP3   OH234777   2.776   1.266   0.973 -0.0629  0.0957 -0.1719
 4381TIP3    H134778   2.871   1.271   0.981 -0.0430  0.4104 -0.6017
 4381TIP3    H234779   2.760   1.252   0.880 -0.3970 -1.1130  0.0456
 4382TIP3   OH234780   4.669   5.677   3.000 -0.2456 -0.8140 -0.5228
 4382TIP3    H134781   4.597   5.712   2.948  1.1168  0.7306 -1.4481
 4382TIP3    H234782   4.660   5.720   3.085 -1.3771 -1.9342 -0.0371
 4383TIP3   OH234783   5.941   6.649   8.853 -0.2448 -0.3419 -0.3646
 4383TIP3    H134784   5.858   6.657   8.807 -0.6332 -1.3879  0.1408
 4383TIP3    H234785   5.963   6.556   8.849 -0.6413 -0.6156  2.1133
 4384TIP3   OH234786   6.264   2.850   3.155  0.6299 -0.0729 -0.6410
 4384TIP3    H134787   6.298   2.934   3.186  0.6246 -1.0239  2.2259
 4384TIP3    H234788   6.341   2.794   3.151  0.1978 -0.8293  0.8778
 4385TIP3   OH234789   6.118   3.268   8.907 -0.5289 -0.6036  0.3725
 4385TIP3    H134790   6.189   3.310   8.955 -1.2090 -0.1174  0.9893
 4385TIP3    H234791   6.064   3.229   8.976 -1.0818 -0.6008 -0.0563
 4386TIP3   OH234792   4.643   3.940   7.951  0.5417 -0.3449 -0.2464
 4386TIP3    H134793   4.562   3.912   7.909 -0.0443  0.5166  0.2810
 4386TIP3    H234794   4.670   3.864   8.003 -2.2995  0.6274  3.0886
 4387TIP3   OH234795   4.358   4.162   1.665  0.1478 -0.2800  0.0647
 4387TIP3    H134796   4.367   4.254   1.691  0.0174 -0.0001 -0.8715
 4387TIP3    H234797   4.446   4.127   1.671  0.1388 -0.1955  0.7835
 4388TIP3   OH234798   4.673   6.666   1.458 -0.0616  0.0384  0.1530
 4388TIP3    H134799   4.754   6.703   1.422 -0.6376  1.0596 -0.1341
 4388TIP3    H234800   4.686   6.668   1.553  0.0484  0.6980  0.1296
 4389TIP3   OH234801   6.473   1.627   8.786  0.3522  0.2010  0.5075
 4389TIP3    H134802   6.395   1.682   8.793 -1.5090 -2.1324 -0.4327
 4389TIP3    H234803   6.546   1.688   8.790 -1.5689  2.8039 -1.0586
 4390TIP3   OH234804   2.277   4.311   8.462 -0.5820  0.1559  0.5357
 4390TIP3    H134805   2.210   4.254   8.424 -1.1558  0.9660  0.3019
 4390TIP3    H234806   2.234   4.396   8.471  0.4999  0.7610  0.1318
 4391TIP3   OH234807   0.377   5.373   2.638 -0.6942 -0.2905  0.2595
 4391TIP3    H134808   0.423   5.300   2.680  1.9153 -0.2744 -2.2531
 4391TIP3    H234809   0.385   5.355   2.544  1.8771  4.0757 -0.6394
 4392TIP3   OH234810   2.482   2.138   1.975  0.0833  0.2338 -0.2197
 4392TIP3    H134811   2.501   2.225   1.939 -0.3367  0.8217  0.9304
 4392TIP3    H234812   2.537   2.132   2.054 -0.2598 -0.3444 -0.0199
 4393TIP3   OH234813   2.851   4.025   7.684  0.6244 -0.1311  0.1395
 4393TIP3    H134814   2.777   3.985   7.638 -0.9536 -0.3900  2.7486
 4393TIP3    H234815   2.911   3.952   7.702 -0.1118 -0.5473  0.9565
 4394TIP3   OH234816   2.558   0.801   2.195  0.2466 -0.1340 -0.2644
 4394TIP3    H134817   2.497   0.875   2.188  0.1222 -0.2440 -0.3332
 4394TIP3    H234818   2.633   0.826   2.141 -0.2063 -0.4739 -1.0549
 4395TIP3   OH234819   5.661   2.952   0.161  0.0010  0.0188 -0.0377
 4395TIP3    H134820   5.742   2.941   0.112  0.1683  0.8700  0.0229
 4395TIP3    H234821   5.594   2.963   0.093  0.2968  1.6261 -0.1080
 4396TIP3   OH234822   5.000   1.710   8.221 -0.2196 -0.2602 -0.2681
 4396TIP3    H134823   5.092   1.714   8.245  0.0111 -2.8454 -0.4583
 4396TIP3    H234824   5.000   1.704   8.125 -0.3884 -2.7695 -0.1569
 4397TIP3   OH234825   5.347   1.435   0.626 -0.0137 -0.2180  0.1769
 4397TIP3    H134826   5.271   1.399   0.581 -1.1772  0.1301  1.7729
 4397TIP3    H234827   5.335   1.530   0.621  0.0254 -0.1714  0.8905
 4398TIP3   OH234828   5.602   1.887   0.564  0.7350 -0.3762  0.2726
 4398TIP3    H134829   5.663   1.921   0.499  0.5656  0.8455  0.7283
 4398TIP3    H234830   5.657   1.867   0.640  0.8693 -1.3824 -0.0758
 4399TIP3   OH234831   4.349   0.641   0.411  0.0385 -1.0630 -0.2800
 4399TIP3    H134832   4.418   0.631   0.345  0.7505 -1.8151  0.5505
 4399TIP3    H234833   4.389   0.696   0.478 -0.0024 -1.8850  0.4245
 4400TIP3   OH234834   3.332   5.899   0.386 -0.6353 -0.5293 -0.0709
 4400TIP3    H134835   3.264   5.963   0.365  0.3443  0.0014 -1.9240
 4400TIP3    H234836   3.412   5.951   0.392 -0.2921 -1.1848  1.7490
 4401TIP3   OH234837   0.626   6.685   0.338 -0.3971  0.1366  0.3280
 4401TIP3    H134838   0.652   6.665   0.248 -2.6728 -2.4979  0.1259
 4401TIP3    H234839   0.590   6.774   0.333 -1.3659 -0.3088 -1.6114
 4402TIP3   OH234840   1.886   6.162   0.515  0.2273  0.3200 -0.3998
 4402TIP3    H134841   1.854   6.238   0.563 -0.2314  0.3205 -0.6993
 4402TIP3    H234842   1.843   6.087   0.558 -0.7741  0.3736 -1.2620
 4403TIP3   OH234843   3.248   5.382   8.654 -0.5566 -0.7984  0.0199
 4403TIP3    H134844   3.308   5.310   8.676  0.7431  0.2587  0.0306
 4403TIP3    H234845   3.253   5.389   8.559 -0.3069 -0.4210  0.0575
 4404TIP3   OH234846   4.291   0.664   1.919  0.3809 -0.2098  0.1804
 4404TIP3    H134847   4.293   0.607   1.842 -0.9492 -1.2026  0.8387
 4404TIP3    H234848   4.267   0.750   1.885  1.0025 -0.3578 -0.6562
 4405TIP3   OH234849   6.656   2.014   1.527 -0.3765 -0.0056  0.0342
 4405TIP3    H134850   6.696   2.042   1.445 -0.8618 -0.6849 -0.4399
 4405TIP3    H234851   6.641   1.920   1.516 -0.3825 -0.1200  0.9289
 4406TIP3   OH234852   3.061   1.569   2.843  0.3300 -0.2019 -0.0046
 4406TIP3    H134853   3.066   1.606   2.755  0.0375  1.4721  0.6478
 4406TIP3    H234854   3.152   1.569   2.874  0.4832 -1.1482 -0.4330
 4407TIP3   OH234855   3.739   6.351   2.516  0.2030 -0.2517 -0.3158
 4407TIP3    H134856   3.776   6.284   2.574 -1.8857 -0.7995  0.4735
 4407TIP3    H234857   3.715   6.423   2.574 -4.0984 -1.7262  0.1379
 4408TIP3   OH234858   5.334   1.185   1.863 -0.1368  0.5181  0.5600
 4408TIP3    H134859   5.270   1.189   1.792  0.7202  0.9797 -0.2142
 4408TIP3    H234860   5.409   1.138   1.824  0.2094  0.4778  1.2647
 4409TIP3   OH234861   1.982   2.762   1.824 -0.3612  0.4116 -0.2591
 4409TIP3    H134862   2.060   2.801   1.786 -0.1024 -0.6093 -0.7940
 4409TIP3    H234863   1.979   2.673   1.789 -1.1995  0.0959  0.5592
 4410TIP3   OH234864   3.697   0.642   9.056 -0.5130  0.0615  0.8546
 4410TIP3    H134865   3.713   0.736   9.050 -1.7313  0.3129  1.2011
 4410TIP3    H234866   3.605   0.636   9.082 -0.8774 -1.2563 -0.6634
 4411TIP3   OH234867   3.588   5.787   1.095  0.0457 -0.2090 -0.9074
 4411TIP3    H134868   3.564   5.742   1.014 -0.2611 -0.1195 -0.8692
 4411TIP3    H234869   3.509   5.836   1.119 -0.0162 -0.5978 -0.3111
 4412TIP3   OH234870   2.290   5.625   2.888  0.2215 -0.1734 -0.0214
 4412TIP3    H134871   2.233   5.696   2.917  0.8628  1.0214 -1.5299
 4412TIP3    H234872   2.375   5.644   2.929  0.6061  0.4285 -1.0412
 4413TIP3   OH234873   1.840   0.363   1.786  0.2184  0.0110 -0.1154
 4413TIP3    H134874   1.892   0.436   1.751 -0.6500  0.3039 -0.8461
 4413TIP3    H234875   1.790   0.332   1.710  0.0285 -0.8638  0.3639
 4414TIP3   OH234876   1.491   4.609   2.360  0.1592  0.0267  0.2585
 4414TIP3    H134877   1.554   4.677   2.380 -0.1665  0.5693 -0.5372
 4414TIP3    H234878   1.412   4.634   2.409  0.2753 -0.1888  0.5623
 4415TIP3   OH234879   2.149   3.522   1.410  0.0291 -0.4461 -0.3290
 4415TIP3    H134880   2.146   3.478   1.494 -1.1682  0.1927 -0.0121
 4415TIP3    H234881   2.141   3.452   1.345  2.1016 -1.0663  0.0117
 4416TIP3   OH234882   6.259   0.550   1.972  0.3869  0.3787 -0.7177
 4416TIP3    H134883   6.348   0.584   1.957  0.4435  2.4854  3.0510
 4416TIP3    H234884   6.249   0.553   2.067 -2.8361 -2.3807 -0.8148
 4417TIP3   OH234885   4.421   5.030   0.330 -0.3294 -0.3769 -0.7222
 4417TIP3    H134886   4.332   5.029   0.295 -0.1135  0.8634 -1.3735
 4417TIP3    H234887   4.476   5.045   0.254  0.4966 -1.5713 -0.3923
 4418TIP3   OH234888   4.830   1.578   2.561  0.1232 -0.6961 -0.2800
 4418TIP3    H134889   4.742   1.542   2.574 -0.2798  0.2222 -0.3979
 4418TIP3    H234890   4.888   1.514   2.601 -0.4703 -2.1094 -1.5921
 4419TIP3   OH234891   0.799   0.467   8.230 -0.3236 -0.2887  0.0292
 4419TIP3    H134892   0.849   0.513   8.297 -0.1092  1.9491 -1.5557
 4419TIP3    H234893   0.715   0.449   8.271 -1.1815  3.3607  0.2443
 4420TIP3   OH234894   6.493   6.450   2.432  0.8426 -0.5347  0.6458
 4420TIP3    H134895   6.440   6.524   2.399 -0.4620 -1.6660  0.0934
 4420TIP3    H234896   6.542   6.487   2.505 -1.7076  0.3170  2.0628
 4421TIP3   OH234897   2.676   0.498   0.955 -0.2477 -0.1422  0.4181
 4421TIP3    H134898   2.708   0.586   0.935 -1.7989 -0.2144 -3.1658
 4421TIP3    H234899   2.740   0.462   1.017  1.1877  2.9470  0.9098
 4422TIP3   OH234900   0.026   5.469   8.683 -0.3411 -0.6749  0.6934
 4422TIP3    H134901   0.011   5.441   8.773 -0.4400 -0.5846  0.7059
 4422TIP3    H234902   0.058   5.559   8.690  0.5243 -0.9720  0.6818
 4423TIP3   OH234903   4.120   4.403   8.894  0.2298  0.8521 -0.0921
 4423TIP3    H134904   4.142   4.343   8.965 -1.6069  1.8121  1.3962
 4423TIP3    H234905   4.066   4.352   8.835 -1.2117  0.9111  1.0981
 4424TIP3   OH234906   6.289   6.175   8.205  0.0320 -0.1304  0.7040
 4424TIP3    H134907   6.280   6.266   8.233 -0.3406 -0.1860  0.7664
 4424TIP3    H234908   6.252   6.172   8.117  0.6730 -0.0806  0.4261
 4425TIP3   OH234909   0.753   5.490   2.911  0.0962 -0.1999  0.4043
 4425TIP3    H134910   0.719   5.468   2.824 -3.0192  1.0934  1.1663
 4425TIP3    H234911   0.771   5.584   2.905 -0.4035 -0.0482  1.1995
 4426TIP3   OH234912   0.859   1.086   3.357 -0.5593 -0.5573  0.5907
 4426TIP3    H134913   0.852   1.032   3.436  1.0544 -0.9751  0.4691
 4426TIP3    H234914   0.945   1.126   3.363 -1.3181  1.2600  0.1652
 4427TIP3   OH234915   3.903   2.722   2.253  0.0370  0.4100 -0.1791
 4427TIP3    H134916   3.887   2.767   2.337  0.9319  0.8096 -0.2059
 4427TIP3    H234917   3.998   2.707   2.252 -0.1943 -1.2292 -0.3143
 4428TIP3   OH234918   4.108   1.245   1.298 -0.0843  0.1610 -0.7575
 4428TIP3    H134919   4.057   1.210   1.371  0.1341  0.4923 -0.4416
 4428TIP3    H234920   4.075   1.199   1.221 -0.3211 -0.1879 -0.4504
 4429TIP3   OH234921   1.764   5.869   1.916  0.3327  0.4142 -0.1486
 4429TIP3    H134922   1.801   5.956   1.898  1.0719  0.5218  1.6524
 4429TIP3    H234923   1.777   5.820   1.835 -0.2440  2.0238 -1.2587
 4430TIP3   OH234924   1.179   0.865   0.091  0.1139 -0.3946  0.4796
 4430TIP3    H134925   1.267   0.898   0.076 -0.3800  0.3066 -0.9562
 4430TIP3    H234926   1.184   0.826   0.179  0.9241  2.7955  1.9982
 4431TIP3   OH234927   5.964   5.775   7.704 -0.5870  0.3276  0.6539
 4431TIP3    H134928   6.043   5.733   7.738 -0.9296 -0.1891  0.8266
 4431TIP3    H234929   5.901   5.704   7.694 -2.1435  1.0968  3.6165
 4432TIP3   OH234930   3.308   0.795   3.516 -0.0547  0.2383  0.4180
 4432TIP3    H134931   3.266   0.719   3.475  2.4165 -0.8763 -0.2697
 4432TIP3    H234932   3.359   0.757   3.588  1.7352  1.1192 -0.3413
 4433TIP3   OH234933   0.848   6.026   2.978 -0.4045 -0.4332  0.1168
 4433TIP3    H134934   0.942   6.038   2.989 -0.3838  0.8252 -1.1303
 4433TIP3    H234935   0.838   5.933   2.956  0.6711 -0.3392 -0.8588
 4434TIP3   OH234936   2.402   1.707   3.230  0.0152  0.7361  0.4433
 4434TIP3    H134937   2.435   1.621   3.256 -0.4131 -0.2724 -2.0099
 4434TIP3    H234938   2.477   1.752   3.192 -0.1914  0.6344 -0.0970
 4435TIP3   OH234939   6.422   4.881   1.711 -0.1339 -0.2899  0.0291
 4435TIP3    H134940   6.336   4.839   1.713 -1.3451  2.0180 -0.1793
 4435TIP3    H234941   6.458   4.857   1.625 -0.8064 -0.8436 -0.1082
 4436TIP3   OH234942   5.022   4.449   1.512  0.1382 -0.0474  0.0645
 4436TIP3    H134943   5.006   4.543   1.522 -0.9062 -0.4256  3.8394
 4436TIP3    H234944   5.116   4.439   1.528  0.2749  0.3638 -0.4701
 4437TIP3   OH234945   2.574   0.111   0.334 -0.2126 -0.1675  0.0692
 4437TIP3    H134946   2.667   0.135   0.328 -0.2395 -0.2696 -1.1599
 4437TIP3    H234947   2.550   0.128   0.425  0.6507  1.2191  0.0655
 4438TIP3   OH234948   0.526   4.191   3.165 -0.3141 -0.3698 -0.1674
 4438TIP3    H134949   0.502   4.159   3.252 -0.9488 -1.5327 -0.7516
 4438TIP3    H234950   0.619   4.211   3.172 -0.5832  0.6246  1.0783
 4439TIP3   OH234951   3.854   2.818   2.814  0.6659  0.2813 -0.0931
 4439TIP3    H134952   3.795   2.850   2.882  1.0151  2.3323 -0.6793
 4439TIP3    H234953   3.868   2.726   2.835 -0.4111  0.4926  1.7304
 4440TIP3   OH234954   0.847   5.558   2.182  0.6883  0.0571 -0.0023
 4440TIP3    H134955   0.879   5.478   2.141 -0.0296 -0.9640  1.3533
 4440TIP3    H234956   0.926   5.612   2.195  1.1462 -0.3151 -1.1149
 4441TIP3   OH234957   5.178   3.435   7.189  0.4464 -0.4954  0.3990
 4441TIP3    H134958   5.180   3.393   7.275 -0.0976  1.1717  1.2576
 4441TIP3    H234959   5.085   3.448   7.171  0.5806 -0.3843 -0.2216
 4442TIP3   OH234960   3.917   0.816   0.801 -0.5004 -0.5551  0.4110
 4442TIP3    H134961   3.935   0.910   0.796 -0.2811 -0.5563  1.0659
 4442TIP3    H234962   4.002   0.777   0.822 -0.8781 -0.7456  1.6553
 4443TIP3   OH234963   1.541   0.885   2.316  0.1797 -0.0570 -0.1024
 4443TIP3    H134964   1.598   0.925   2.251  1.3788  1.1326  1.5915
 4443TIP3    H234965   1.570   0.923   2.400  0.4708 -3.4410  1.4787
 4444TIP3   OH234966   3.485   5.692   8.697 -0.0770  0.4385  0.1764
 4444TIP3    H134967   3.408   5.641   8.670  1.7231 -0.9327 -2.9255
 4444TIP3    H234968   3.503   5.664   8.786 -0.7119 -2.4890 -0.5153
 4445TIP3   OH234969   5.376   4.822   1.080 -0.6872 -0.0950 -0.0048
 4445TIP3    H134970   5.309   4.756   1.092  0.3018 -1.4222 -1.3818
 4445TIP3    H234971   5.455   4.772   1.057  0.1989  1.5227 -0.6484
 4446TIP3   OH234972   0.310   2.016   8.808 -0.7697  0.2855 -0.4182
 4446TIP3    H134973   0.267   1.995   8.726  1.3407  3.6104 -2.6073
 4446TIP3    H234974   0.295   2.110   8.820  0.7922  0.3221  1.8835
 4447TIP3   OH234975   0.811   4.072   3.313 -0.2204 -0.4490 -0.0333
 4447TIP3    H134976   0.797   4.093   3.221 -1.4587  1.0560  0.4546
 4447TIP3    H234977   0.859   4.146   3.348  1.2797 -1.5392  0.3260
 4448TIP3   OH234978   3.858   4.545   0.815  0.4078  0.2467 -0.6166
 4448TIP3    H134979   3.945   4.554   0.775  0.3471 -0.8849 -1.0481
 4448TIP3    H234980   3.855   4.613   0.881  1.8249 -0.0012 -0.2514
 4449TIP3   OH234981   3.747   5.976   8.004 -0.2829  0.4258  0.4699
 4449TIP3    H134982   3.652   5.979   7.995 -0.1437  0.8018 -1.2912
 4449TIP3    H234983   3.778   5.953   7.916  1.3293  2.4195  0.4587
 4450TIP3   OH234984   5.421   6.454   0.864 -0.0596 -0.1342  0.1235
 4450TIP3    H134985   5.386   6.443   0.953 -1.4438  0.1045 -0.3697
 4450TIP3    H234986   5.345   6.482   0.812  0.2994 -2.0043 -1.5194
 4451TIP3   OH234987   4.308   2.290   1.616 -0.0698  0.3657 -0.4793
 4451TIP3    H134988   4.379   2.228   1.635  0.1396  0.6585 -0.2922
 4451TIP3    H234989   4.335   2.371   1.660 -1.5597 -0.1439  1.4958
 4452TIP3   OH234990   6.437   0.940   7.829  0.3468 -0.4408  0.0779
 4452TIP3    H134991   6.399   0.967   7.745  0.8851 -0.7413 -0.2660
 4452TIP3    H234992   6.422   1.015   7.887  0.3753 -0.0486 -0.4143
 4453TIP3   OH234993   4.907   5.661   1.545  0.3456 -0.2095 -0.0350
 4453TIP3    H134994   4.989   5.614   1.530  0.2208  0.0847 -1.9231
 4453TIP3    H234995   4.934   5.752   1.556  0.3652 -0.3074  0.7958
 4454TIP3   OH234996   4.693   2.722   2.622 -0.3508  0.2753 -0.0182
 4454TIP3    H134997   4.744   2.756   2.548  0.0070  2.8362  1.2986
 4454TIP3    H234998   4.713   2.781   2.694  0.4622 -2.9568  2.6303
 4455TIP3   OH234999   3.063   3.093   0.343  0.1761  0.1717 -0.0155
 4455TIP3    H135000   3.123   3.168   0.336 -1.0016  1.5640  3.0002
 4455TIP3    H235001   2.979   3.133   0.364 -1.4519 -1.8548 -2.2094
 4456TIP3   OH235002   6.105   1.917   2.803 -0.2399 -1.0598  0.1274
 4456TIP3    H135003   6.076   1.971   2.876 -2.4315 -1.3355 -0.4621
 4456TIP3    H235004   6.158   1.976   2.749  1.3478 -0.8358  1.8217
 4457TIP3   OH235005   0.179   2.586   2.400 -0.4492 -0.0861 -0.8428
 4457TIP3    H135006   0.169   2.540   2.483 -0.7178  0.3204 -0.6446
 4457TIP3    H235007   0.237   2.660   2.420 -1.7720  0.9309 -0.6335
 4458TIP3   OH235008   6.282   3.875   0.679 -0.4029  0.0877 -0.3868
 4458TIP3    H135009   6.202   3.893   0.629  0.7050  1.2217 -1.8520
 4458TIP3    H235010   6.317   3.794   0.641  0.2955  0.8029 -1.3147
 4459TIP3   OH235011   3.560   5.024   9.015  0.0934 -0.2007  0.0995
 4459TIP3    H135012   3.467   5.002   9.013  0.1616 -1.1105  3.0904
 4459TIP3    H235013   3.576   5.054   9.104  2.6902 -0.0598 -0.3392
 4460TIP3   OH235014   0.074   2.121   1.286  0.1465 -0.2499  0.0236
 4460TIP3    H135015   0.144   2.064   1.254  1.0145  0.3981  0.7206
 4460TIP3    H235016   0.115   2.207   1.294 -0.9427  0.3101 -0.2865
 4461TIP3   OH235017   4.425   1.607   8.024 -0.5138 -0.5126 -0.5566
 4461TIP3    H135018   4.398   1.666   7.953 -0.6528  2.1657  1.5789
 4461TIP3    H235019   4.343   1.580   8.065 -0.4262  2.0931  1.6345
 4462TIP3   OH235020   0.787   2.154   2.875 -0.5646 -0.0169  0.2337
 4462TIP3    H135021   0.695   2.134   2.892 -0.3055 -1.2531  0.2727
 4462TIP3    H235022   0.785   2.239   2.831 -1.5923  0.9685  2.0321
 4463TIP3   OH235023   0.038   1.705   0.557 -1.0654 -0.0790  0.3579
 4463TIP3    H135024   0.085   1.757   0.492 -2.9590  1.6421  0.2590
 4463TIP3    H235025   0.039   1.759   0.636  0.6097 -1.8409  1.6231
 4464TIP3   OH235026   4.944   2.411   2.549  0.0759  0.2367 -0.5095
 4464TIP3    H135027   4.890   2.415   2.470 -1.7386  0.8613  0.7031
 4464TIP3    H235028   4.921   2.328   2.590  1.4685 -0.3779 -0.8851
 4465TIP3   OH235029   2.238   5.076   1.760  0.5817 -0.1596  0.4270
 4465TIP3    H135030   2.275   5.033   1.836 -0.8065 -0.3616  1.0065
 4465TIP3    H235031   2.263   5.020   1.686 -2.1948 -2.7464  1.2659
 4466TIP3   OH235032   0.117   2.515   8.050  0.6106  0.2792  0.4324
 4466TIP3    H135033   0.056   2.494   7.979 -0.4955 -0.6657  1.5978
 4466TIP3    H235034   0.121   2.610   8.051 -0.1662  0.3322 -0.2366
 4467TIP3   OH235035   1.987   6.647   1.061 -1.0698 -0.2223  0.4264
 4467TIP3    H135036   2.043   6.622   0.988 -0.9664 -0.3663  0.5528
 4467TIP3    H235037   2.046   6.646   1.137 -1.3751 -0.9805  0.6638
 4468TIP3   OH235038   5.224   4.206   0.609 -0.5639  0.3301  0.2473
 4468TIP3    H135039   5.167   4.276   0.577 -0.1398  0.3052 -0.5661
 4468TIP3    H235040   5.284   4.250   0.669 -0.3234  0.6545 -0.2313
 4469TIP3   OH235041   1.283   6.119   8.543 -0.7324  0.0423 -0.1316
 4469TIP3    H135042   1.250   6.040   8.499 -0.0336 -0.6202  0.4928
 4469TIP3    H235043   1.224   6.131   8.618  0.2641 -1.0023  0.8478
 4470TIP3   OH235044   2.517   5.252   0.806  0.5689  0.3261 -0.2376
 4470TIP3    H135045   2.543   5.331   0.758  0.0936 -0.0212 -1.0844
 4470TIP3    H235046   2.586   5.188   0.786 -1.2592 -0.8933 -3.2334
 4471TIP3   OH235047   0.579   0.465   3.293 -0.2305  0.3766 -0.1299
 4471TIP3    H135048   0.618   0.380   3.310  0.3822  0.4116 -1.2630
 4471TIP3    H235049   0.615   0.492   3.209 -0.1754  1.8976  0.3432
 4472TIP3   OH235050   6.303   6.302   0.374  0.0333  0.1999 -0.2810
 4472TIP3    H135051   6.325   6.396   0.373 -0.5776  0.3439 -0.9350
 4472TIP3    H235052   6.375   6.262   0.423 -1.1645  1.3633  2.6240
 4473TIP3   OH235053   3.165   5.098   8.172 -0.1778  0.3226  0.1695
 4473TIP3    H135054   3.232   5.085   8.104 -0.6846 -2.1754  0.0736
 4473TIP3    H235055   3.093   5.142   8.127  0.7178  1.5864 -0.0991
 4474TIP3   OH235056   4.723   3.977   8.468  0.2600 -0.0307  0.1262
 4474TIP3    H135057   4.667   3.909   8.506  1.2477 -0.5807  0.6412
 4474TIP3    H235058   4.710   3.968   8.374  0.2420 -0.8378  0.1949
 4475TIP3   OH235059   4.911   4.088   2.554  0.4314 -0.1364 -0.0588
 4475TIP3    H135060   5.006   4.081   2.546  0.6602  1.2974  0.9507
 4475TIP3    H235061   4.897   4.160   2.616 -1.3305  0.5466 -1.1612
 4476TIP3   OH235062   3.215   0.203   3.041 -0.5334 -0.2494  0.7099
 4476TIP3    H135063   3.308   0.222   3.034 -0.7474  0.4714 -0.4982
 4476TIP3    H235064   3.179   0.276   3.090 -0.5481 -0.2242  0.6622
 4477TIP3   OH235065   2.716   3.953   2.389 -0.6766  0.4780 -0.1454
 4477TIP3    H135066   2.754   3.916   2.469 -0.1813  0.7632 -0.2447
 4477TIP3    H235067   2.682   3.877   2.341 -0.9100  0.2987  0.3004
 4478TIP3   OH235068   2.633   0.664   0.720 -0.4582 -0.2542 -0.1902
 4478TIP3    H135069   2.651   0.571   0.736 -0.1501 -0.0244  0.8983
 4478TIP3    H235070   2.683   0.710   0.788 -2.4835  0.5631  0.8474
 4479TIP3   OH235071   4.358   4.156   2.412  0.1521  0.0914 -0.2402
 4479TIP3    H135072   4.317   4.187   2.493 -1.7915 -0.2471 -1.0415
 4479TIP3    H235073   4.450   4.178   2.422 -0.0597  0.1800  2.0047
 4480TIP3   OH235074   1.530   3.228   2.403  0.3095 -0.0376 -0.8168
 4480TIP3    H135075   1.558   3.172   2.475  0.3550  1.8956  0.7690
 4480TIP3    H235076   1.437   3.208   2.392  0.0167  0.3810  0.5825
 4481TIP3   OH235077   3.601   4.334   1.590  0.2192 -0.5647 -0.2683
 4481TIP3    H135078   3.614   4.242   1.613  0.1344 -1.0152 -1.8993
 4481TIP3    H235079   3.512   4.354   1.619  0.4229 -0.8308  0.5603
 4482TIP3   OH235080   6.566   4.842   2.760  0.3499 -0.5149  0.1604
 4482TIP3    H135081   6.605   4.899   2.826 -1.7531  1.3642 -0.1112
 4482TIP3    H235082   6.639   4.819   2.702  1.5709  0.6019  1.2014
 4483TIP3   OH235083   3.030   5.496   2.685  0.1278  0.0053 -0.3878
 4483TIP3    H135084   3.016   5.478   2.592 -0.2673 -1.8032 -0.0131
 4483TIP3    H235085   3.027   5.591   2.692  0.7089  0.1990 -2.3042
 4484TIP3   OH235086   3.387   3.740   1.967 -0.1677 -0.0644  0.6604
 4484TIP3    H135087   3.477   3.730   1.938 -0.3651  0.5392 -0.2013
 4484TIP3    H235088   3.349   3.805   1.907 -1.3225 -0.7064  0.6532
 4485TIP3   OH235089   4.122   4.839   0.781 -0.4319  0.1205  0.0509
 4485TIP3    H135090   4.137   4.928   0.752 -0.8361  0.6578  1.4088
 4485TIP3    H235091   4.175   4.785   0.723  0.9677  1.3565  0.1253
 4486TIP3   OH235092   2.391   0.505   0.944  0.2928 -0.5505 -0.1592
 4486TIP3    H135093   2.364   0.460   1.024  1.2648 -0.6159  0.1574
 4486TIP3    H235094   2.487   0.502   0.947  0.3750  0.9828 -0.4406
 4487TIP3   OH235095   2.785   6.297   8.275  0.5338  0.3302  0.2914
 4487TIP3    H135096   2.758   6.217   8.321  1.5579 -1.2455 -1.7115
 4487TIP3    H235097   2.704   6.330   8.236  0.2333 -0.1835  0.4679
 4488TIP3   OH235098   6.437   1.364   8.115  0.4620 -0.1139  0.5815
 4488TIP3    H135099   6.522   1.369   8.160  0.2096 -0.9548  1.1807
 4488TIP3    H235100   6.429   1.272   8.090  0.5911  0.3360 -1.2143
 4489TIP3   OH235101   5.654   3.376   0.611 -0.5791  0.1335  0.1949
 4489TIP3    H135102   5.682   3.466   0.596 -0.2849  0.6920  3.3758
 4489TIP3    H235103   5.588   3.360   0.543  0.2636  2.2640 -1.2265
 4490TIP3   OH235104   1.698   1.856   8.147  0.1917 -0.1069  0.4420
 4490TIP3    H135105   1.697   1.947   8.118 -0.6268 -0.0827  0.5192
 4490TIP3    H235106   1.658   1.807   8.075  2.3271 -0.6955 -0.4358
 4491TIP3   OH235107   1.677   3.263   1.342 -0.0569 -0.4102 -0.2253
 4491TIP3    H135108   1.704   3.351   1.369  0.3397 -1.1859  2.1318
 4491TIP3    H235109   1.737   3.240   1.271  0.4391  0.8438 -0.2376
 4492TIP3   OH235110   0.030   0.792   2.545  0.1740  0.0709  0.1357
 4492TIP3    H135111  -0.026   0.742   2.486  1.1479 -0.5796 -0.2429
 4492TIP3    H235112   0.045   0.875   2.499  0.0337  0.0014 -0.0374
 4493TIP3   OH235113   5.759   5.681   8.723  0.5148  0.0339  0.3342
 4493TIP3    H135114   5.715   5.733   8.656  0.4992  1.1254  1.1491
 4493TIP3    H235115   5.818   5.623   8.674  0.6431  0.9283 -0.6112
 4494TIP3   OH235116   2.473   5.161   0.392  0.4186 -0.0822  0.2324
 4494TIP3    H135117   2.450   5.121   0.308 -0.0391 -1.4339  0.9582
 4494TIP3    H235118   2.564   5.189   0.382  0.5702 -0.8065 -0.5189
 4495TIP3   OH235119   4.781   3.503   2.972  0.2062  0.6879 -0.3638
 4495TIP3    H135120   4.756   3.545   2.890  1.3316  0.6968 -0.7286
 4495TIP3    H235121   4.824   3.572   3.023 -1.6517  1.0471  0.8450
 4496TIP3   OH235122   6.380   3.716   1.005 -0.2172 -0.8021  0.0453
 4496TIP3    H135123   6.336   3.765   0.935  2.8743 -0.5686 -1.9448
 4496TIP3    H235124   6.403   3.633   0.965  1.3474 -0.7971  0.8496
 4497TIP3   OH235125   3.835   0.028   8.795  0.1181 -0.1973 -0.3882
 4497TIP3    H135126   3.875  -0.051   8.758  0.1319 -1.6320  2.4181
 4497TIP3    H235127   3.742   0.018   8.778 -0.0222 -1.4663  0.9198
 4498TIP3   OH235128   3.144   1.662   7.777 -0.0963 -0.0530 -0.3154
 4498TIP3    H135129   3.094   1.743   7.787 -1.5301 -1.2025  3.2343
 4498TIP3    H235130   3.095   1.612   7.711 -0.5456  0.9698 -0.7834
 4499TIP3   OH235131   2.152   0.958   2.329  0.3308 -0.0557  0.4125
 4499TIP3    H135132   2.178   0.900   2.400  0.4886  0.8789  1.1497
 4499TIP3    H235133   2.078   0.914   2.286  1.9905 -1.9728 -0.6500
 4500TIP3   OH235134   0.748   0.789   7.326 -0.4869  0.0246  0.2314
 4500TIP3    H135135   0.793   0.734   7.262 -1.1511 -2.4037  1.7197
 4500TIP3    H235136   0.810   0.795   7.399  0.3638  2.9562 -0.5714
 4501TIP3   OH235137   5.707   2.436   0.165  0.1668 -0.2065  0.3426
 4501TIP3    H135138   5.717   2.503   0.232  0.9490 -0.9883  1.0184
 4501TIP3    H235139   5.746   2.475   0.086  0.2795  0.2687  0.6303
 4502TIP3   OH235140   2.144   5.083   7.571  0.3371 -0.0294  0.2515
 4502TIP3    H135141   2.113   4.993   7.563 -2.1742  0.5987  2.0466
 4502TIP3    H235142   2.188   5.086   7.656 -0.0160  0.5425  0.4181
 4503TIP3   OH235143   2.532   0.573   8.489 -0.2002 -0.3879 -0.5186
 4503TIP3    H135144   2.516   0.651   8.436 -0.0765  1.2569  1.7310
 4503TIP3    H235145   2.447   0.551   8.527  0.2280  0.3423  0.9665
 4504TIP3   OH235146   1.163   0.350   8.354  0.0690 -0.3755 -0.5904
 4504TIP3    H135147   1.141   0.300   8.432 -1.2345  0.2765 -0.5107
 4504TIP3    H235148   1.231   0.411   8.382  0.1262 -0.6370 -0.1578
 4505TIP3   OH235149   3.108   5.884   0.968  0.6363 -0.2651 -0.0431
 4505TIP3    H135150   3.111   5.894   1.063  1.1415  2.8648 -0.2605
 4505TIP3    H235151   3.023   5.844   0.950 -0.3558  0.9168  1.6771
 4506TIP3   OH235152   5.170   6.408   2.753  0.5853  0.9742 -0.2259
 4506TIP3    H135153   5.190   6.449   2.669  2.3908 -2.2882 -1.5728
 4506TIP3    H235154   5.074   6.403   2.755  0.5088  0.0205 -2.7531
 4507TIP3   OH235155   6.567   2.907   8.090 -0.4806 -0.0509 -0.3174
 4507TIP3    H135156   6.472   2.901   8.086 -0.4632 -0.3636 -0.2961
 4507TIP3    H235157   6.590   2.976   8.027 -0.7529  0.3564  0.0305
 4508TIP3   OH235158   1.984   6.653   1.664  0.2321 -0.2386 -0.2650
 4508TIP3    H135159   2.075   6.634   1.687  0.3519  1.6816  1.0530
 4508TIP3    H235160   1.978   6.630   1.571  2.1383 -0.1822 -0.4377
 4509TIP3   OH235161   1.045   4.843   1.999  0.1933 -0.1402 -0.1934
 4509TIP3    H135162   0.951   4.855   1.996 -0.0619 -1.8512  0.1411
 4509TIP3    H235163   1.078   4.893   1.924 -1.1835 -1.2215 -1.5641
 4510TIP3   OH235164   5.622   3.548   2.105 -0.0813  0.5514 -0.0410
 4510TIP3    H135165   5.692   3.485   2.091 -2.9379 -2.7510 -1.0563
 4510TIP3    H235166   5.621   3.602   2.025  2.1273  1.7506  0.6521
 4511TIP3   OH235167   4.197   2.718   2.243  0.2743  0.5389  0.3201
 4511TIP3    H135168   4.211   2.634   2.287  0.6829  1.4398  1.9746
 4511TIP3    H235169   4.279   2.765   2.254  0.7814  0.4234 -2.3777
 4512TIP3   OH235170   0.684   3.715   2.961  0.3869  0.1634  0.5689
 4512TIP3    H135171   0.722   3.627   2.963  1.2694  0.4050 -1.8532
 4512TIP3    H235172   0.730   3.763   3.030  1.3713 -0.7418  0.5623
 4513TIP3   OH235173   0.169   5.466   3.186 -0.7624  0.2826  0.3601
 4513TIP3    H135174   0.144   5.549   3.226  1.3553  1.4756 -0.6124
 4513TIP3    H235175   0.265   5.472   3.178 -0.7110 -1.6663 -1.0205
 4514TIP3   OH235176   2.078   3.063   8.406 -0.1141  0.0716 -0.0449
 4514TIP3    H135177   2.125   3.010   8.471 -1.2033 -0.1259  0.6133
 4514TIP3    H235178   2.061   3.002   8.334 -1.2915 -0.4916  0.6767
 4515TIP3   OH235179   2.203   5.582   2.619 -0.2782 -0.3130  0.2986
 4515TIP3    H135180   2.113   5.550   2.616 -0.9021  1.2790  0.8007
 4515TIP3    H235181   2.221   5.594   2.712  0.0391  0.4563  0.1458
 4516TIP3   OH235182   1.676   0.723   8.572  0.0666  0.3195  0.0485
 4516TIP3    H135183   1.636   0.734   8.485 -1.1164 -3.2964 -0.0734
 4516TIP3    H235184   1.742   0.654   8.559 -1.1492 -1.3854  2.1892
 4517TIP3   OH235185   4.553   3.030   0.399  0.0934  0.1102  0.3909
 4517TIP3    H135186   4.569   3.085   0.476  0.0163  0.0799  0.4285
 4517TIP3    H235187   4.621   3.057   0.336  0.6838 -0.4500  0.7786
 4518TIP3   OH235188   4.579   1.561   8.804 -0.3914 -0.3404 -0.4398
 4518TIP3    H135189   4.564   1.608   8.722  3.7032 -1.4517 -2.0704
 4518TIP3    H235190   4.594   1.470   8.777  2.1890 -0.5306  1.3093
 4519TIP3   OH235191   3.059   1.143   0.029  0.3581  0.4673  0.1676
 4519TIP3    H135192   3.121   1.198  -0.018 -0.1105  0.9640  0.1243
 4519TIP3    H235193   2.990   1.203   0.057 -0.3078 -0.1484 -0.1363
 4520TIP3   OH235194   5.820   4.781   0.677 -0.5077  0.2926 -0.3151
 4520TIP3    H135195   5.827   4.864   0.629  0.4523  0.0654 -0.5978
 4520TIP3    H235196   5.909   4.745   0.675 -1.0420 -1.0831 -0.8263
 4521TIP3   OH235197   4.883   0.632   1.123  0.3378 -0.0340  0.2095
 4521TIP3    H135198   4.947   0.668   1.184  0.2595  0.0017  0.2712
 4521TIP3    H235199   4.910   0.541   1.109  1.8999  0.6605 -1.7414
 4522TIP3   OH235200   4.829   0.367   2.400  0.1637  0.1714  0.1189
 4522TIP3    H135201   4.831   0.368   2.496  1.0128  0.2501  0.1050
 4522TIP3    H235202   4.830   0.274   2.377  3.7987  0.0548  0.1592
 4523TIP3   OH235203   5.295   1.262   1.444  0.6768 -0.3833  0.3859
 4523TIP3    H135204   5.360   1.197   1.421 -0.5943 -1.0134 -1.6723
 4523TIP3    H235205   5.346   1.339   1.471  2.2271 -1.1561 -0.2389
 4524TIP3   OH235206   0.667   5.941   0.507 -0.2817 -0.3658  0.2314
 4524TIP3    H135207   0.580   5.955   0.469 -0.8697  0.6876  1.8383
 4524TIP3    H235208   0.655   5.958   0.601  2.1048  2.1956  0.2114
 4525TIP3   OH235209   6.643   1.034   2.393  0.3622 -0.5198  0.0213
 4525TIP3    H135210   6.710   1.058   2.457 -0.0834  0.7282  0.0611
 4525TIP3    H235211   6.585   1.111   2.390  1.0884  0.0298 -2.8330
 4526TIP3   OH235212   6.725   0.122   7.944 -0.3656 -0.0712 -0.0527
 4526TIP3    H135213   6.773   0.121   7.862 -0.8496  0.9687 -0.3661
 4526TIP3    H235214   6.634   0.105   7.919 -0.7322  1.5305  0.0860
 4527TIP3   OH235215   4.617   2.460   3.028  0.3004 -0.1861  0.1696
 4527TIP3    H135216   4.543   2.513   2.997 -0.1581 -0.6065  0.5401
 4527TIP3    H235217   4.635   2.400   2.956  0.4840  0.1115 -0.0404
 4528TIP3   OH235218   0.615   6.644   0.057  0.2996  0.3834 -0.2925
 4528TIP3    H135219   0.543   6.599   0.101  1.0729  0.6462  1.3286
 4528TIP3    H235220   0.575   6.722   0.019 -1.0962 -1.5708 -3.2513
 4529TIP3   OH235221   0.241   5.033   1.857 -0.2083 -0.1155 -0.1273
 4529TIP3    H135222   0.226   4.957   1.913 -0.4533 -1.5852 -2.0910
 4529TIP3    H235223   0.295   4.999   1.785  0.7109  1.8693 -0.4436
 4530TIP3   OH235224   4.113   2.492   1.958  0.2904  0.0746 -0.0617
 4530TIP3    H135225   4.082   2.578   1.929 -1.6941  0.0510  1.7386
 4530TIP3    H235226   4.208   2.501   1.964  0.2232  1.7856 -0.9370
 4531TIP3   OH235227   4.445   6.445   0.099  0.2588 -0.0136  0.2572
 4531TIP3    H135228   4.539   6.455   0.108  0.2890 -1.2347  1.8513
 4531TIP3    H235229   4.434   6.377   0.033  0.5127 -0.0526  0.2570
 4532TIP3   OH235230   6.323   0.311   0.325 -0.1685 -0.1421 -0.0723
 4532TIP3    H135231   6.419   0.311   0.335 -0.3080  0.4626  1.7158
 4532TIP3    H235232   6.300   0.403   0.315 -0.6254 -0.1749  0.5830
 4533TIP3   OH235233   3.741   5.158   1.471 -0.2948 -0.0217 -0.7345
 4533TIP3    H135234   3.668   5.198   1.517 -0.7278 -0.3122 -1.1620
 4533TIP3    H235235   3.784   5.230   1.426 -2.5380 -0.2588 -3.5757
 4534TIP3   OH235236   2.952   4.988   1.680 -0.2834 -0.0469 -0.2500
 4534TIP3    H135237   2.953   5.081   1.657 -0.4533 -0.1673 -0.7613
 4534TIP3    H235238   3.024   4.951   1.630  0.0279 -0.1252  0.2518
 4535TIP3   OH235239   4.639   2.174   3.514  0.3616  0.0536  0.0569
 4535TIP3    H135240   4.663   2.093   3.559  2.8665 -0.7456 -2.4845
 4535TIP3    H235241   4.706   2.237   3.541  0.0764  0.4576 -0.1715
 4536TIP3   OH235242   0.683   4.531   2.821  0.0335 -0.1278  0.1501
 4536TIP3    H135243   0.631   4.530   2.902 -0.4540 -1.4345 -0.1495
 4536TIP3    H235244   0.629   4.580   2.759  0.7044  1.4668  0.7664
 4537TIP3   OH235245   0.510   4.421   8.375  0.5761 -0.8613  0.1898
 4537TIP3    H135246   0.561   4.487   8.327  0.7443 -0.4063  0.9758
 4537TIP3    H235247   0.464   4.471   8.442 -1.7944 -1.0957 -1.1689
 4538TIP3   OH235248   2.725   6.014   2.782 -0.3499  0.1944  0.2293
 4538TIP3    H135249   2.786   6.061   2.840 -0.2254  1.1016 -0.6221
 4538TIP3    H235250   2.643   6.063   2.790  0.3251  1.9189 -2.2508
 4539TIP3   OH235251   0.782   2.178   2.113 -0.6385  0.2192  0.1055
 4539TIP3    H135252   0.746   2.124   2.183 -2.4529  0.7422 -0.3790
 4539TIP3    H235253   0.732   2.154   2.035  0.8286  0.2018 -0.8684
 4540TIP3   OH235254   3.914   0.556   3.010  0.1235  0.2546 -0.4446
 4540TIP3    H135255   3.983   0.622   3.020 -0.9975  1.5367 -0.8444
 4540TIP3    H235256   3.938   0.487   3.072  0.3706  1.8912  1.3813
 4541TIP3   OH235257   2.194   0.844   1.216  0.2341  0.3180 -0.0296
 4541TIP3    H135258   2.204   0.933   1.251 -1.6926  0.2944  0.7126
 4541TIP3    H235259   2.191   0.855   1.121  0.9054  0.9336  0.0134
 4542TIP3   OH235260   3.859   5.635   0.136 -0.1323 -0.3110  0.1450
 4542TIP3    H135261   3.848   5.702   0.203 -1.3519 -0.0775 -0.2574
 4542TIP3    H235262   3.928   5.668   0.079  0.2400 -0.0630  0.7412
 4543TIP3   OH235263   4.079   0.602   0.474 -0.2706 -0.0374  0.5397
 4543TIP3    H135264   4.042   0.651   0.400  0.1296  0.0010  0.3599
 4543TIP3    H235265   4.171   0.627   0.476 -0.0407 -0.8229  0.4085
 4544TIP3   OH235266   0.184   5.374   8.464  0.6942  0.1212  0.1087
 4544TIP3    H135267   0.127   5.368   8.387  0.7134  1.0213  0.0131
 4544TIP3    H235268   0.128   5.412   8.532  1.8447  3.8149 -0.7717
 4545TIP3   OH235269   5.694   0.929   0.775 -0.0220 -0.0588 -0.3014
 4545TIP3    H135270   5.616   0.933   0.719  0.1766  0.3461 -0.5452
 4545TIP3    H235271   5.759   0.983   0.731 -0.8767  3.0292  1.9130
 4546TIP3   OH235272   4.169   3.348   0.825 -1.0186  0.6881 -1.1860
 4546TIP3    H135273   4.212   3.286   0.767 -1.4049 -0.2037 -0.5373
 4546TIP3    H235274   4.181   3.311   0.913 -1.7057  1.2628 -0.8437
 4547TIP3   OH235275   3.956   1.038   0.060  0.3406 -0.7382  0.4541
 4547TIP3    H135276   3.961   1.094   0.137  0.4368 -0.3304  0.1500
 4547TIP3    H235277   4.027   1.067   0.004 -0.6185 -0.0582 -0.4433
 4548TIP3   OH235278   5.413   0.913   2.921  0.2663 -0.6850  0.3699
 4548TIP3    H135279   5.420   0.983   2.855 -1.0938 -1.1508 -0.2949
 4548TIP3    H235280   5.452   0.951   2.999 -0.2580  0.7608 -0.0327
 4549TIP3   OH235281   6.686   1.854   2.330  0.0303  0.3160 -0.1571
 4549TIP3    H135282   6.759   1.904   2.366 -0.9436  0.5113  1.6285
 4549TIP3    H235283   6.611   1.914   2.333 -0.2038  0.1801 -2.1229
 4550TIP3   OH235284   4.510   0.266   2.925  0.1269  0.3354  0.0109
 4550TIP3    H135285   4.517   0.198   2.992 -1.4749  1.0125  0.9165
 4550TIP3    H235286   4.572   0.334   2.953  0.5675 -0.0457 -0.0317
 4551TIP3   OH235287   3.074   5.721   2.235  0.2326 -0.6548 -0.1533
 4551TIP3    H135288   3.067   5.806   2.277 -0.8910 -0.0868 -1.3992
 4551TIP3    H235289   3.134   5.671   2.290 -0.5715  0.2947  1.6605
 4552TIP3   OH235290   0.745   5.170   0.564  0.3089 -0.3806 -0.2405
 4552TIP3    H135291   0.783   5.181   0.477  0.8880 -1.6310 -0.1747
 4552TIP3    H235292   0.761   5.078   0.585 -0.7255 -0.3453  0.7714
 4553TIP3   OH235293   5.087   1.607   2.365 -0.3626  0.3862 -0.3858
 4553TIP3    H135294   5.034   1.683   2.390 -0.4894  0.4110 -0.7183
 4553TIP3    H235295   5.103   1.561   2.447 -0.2824  0.7739 -0.1803
 4554TIP3   OH235296   6.409   2.225   8.688 -0.0149  0.0874  0.2726
 4554TIP3    H135297   6.391   2.147   8.742  0.4017 -1.4341 -1.6580
 4554TIP3    H235298   6.425   2.295   8.751 -1.3777 -1.1557  2.0932
 4555TIP3   OH235299   4.748   0.899   0.509  0.0434  0.0644 -0.5325
 4555TIP3    H135300   4.767   0.848   0.587 -0.2874  0.6844 -0.0389
 4555TIP3    H235301   4.655   0.884   0.492  0.4061 -1.1242 -1.5932
 4556TIP3   OH235302   0.354   5.314   0.209 -0.3599  0.5036 -0.0755
 4556TIP3    H135303   0.275   5.366   0.224 -1.1267 -0.5944 -0.1523
 4556TIP3    H235304   0.386   5.341   0.123 -1.5477 -0.1174 -0.7414
 4557TIP3   OH235305   1.003   5.534   0.039 -0.4216 -0.7905  0.5105
 4557TIP3    H135306   1.072   5.589   0.076 -0.9668  1.0640 -1.0845
 4557TIP3    H235307   1.036   5.509  -0.048 -2.4190  1.8189 -1.1822
 4558TIP3   OH235308   0.219   6.064   2.478  0.2924  0.2853  0.0161
 4558TIP3    H135309   0.229   6.099   2.389  0.7069 -0.0141 -0.0629
 4558TIP3    H235310   0.188   5.975   2.465  0.2998  0.2599  0.1728
 4559TIP3   OH235311   3.334   1.012   2.648  0.8309 -0.3134 -0.1031
 4559TIP3    H135312   3.239   1.024   2.638  0.7356 -1.1347 -0.2260
 4559TIP3    H235313   3.353   1.045   2.736  0.6160  0.8520 -0.4672
 4560TIP3   OH235314   0.735   3.665   8.377 -0.3340  0.1644 -0.3832
 4560TIP3    H135315   0.659   3.674   8.320 -1.2708 -2.2166  0.3857
 4560TIP3    H235316   0.771   3.579   8.356  0.3825  0.0090  1.3298
 4561TIP3   OH235317   4.534   1.865   3.177 -0.3806 -0.3871 -0.0218
 4561TIP3    H135318   4.604   1.807   3.208  0.6989  1.0948  0.4285
 4561TIP3    H235319   4.475   1.807   3.128  0.3637 -1.9389  0.8468
 4562TIP3   OH235320   3.307   3.834   8.752 -0.3643 -0.0933 -0.1355
 4562TIP3    H135321   3.336   3.861   8.839  0.3649  1.2970 -0.7769
 4562TIP3    H235322   3.387   3.832   8.700 -0.7665 -1.1122 -0.7411
 4563TIP3   OH235323   4.429   5.732   2.869 -0.1398  0.2401  0.1333
 4563TIP3    H135324   4.375   5.810   2.872 -0.4238  0.0812 -0.8198
 4563TIP3    H235325   4.399   5.683   2.793 -0.1194 -0.9184  0.8419
 4564TIP3   OH235326   0.139   0.183   7.482  0.1180 -0.3449 -0.5273
 4564TIP3    H135327   0.121   0.103   7.530  3.3402 -0.9807 -0.1484
 4564TIP3    H235328   0.135   0.157   7.390 -0.1872 -0.6030 -0.4415
 4565TIP3   OH235329   0.084   0.601   3.061 -0.4041  0.3744 -0.4262
 4565TIP3    H135330   0.099   0.640   3.147 -0.4324 -0.3555 -0.0794
 4565TIP3    H235331   0.170   0.569   3.034 -0.3235  0.9447 -0.8423
 4566TIP3   OH235332   1.194   4.949   3.296 -0.6418  0.1884 -0.1676
 4566TIP3    H135333   1.231   5.017   3.239  0.5737  0.4473  0.8822
 4566TIP3    H235334   1.227   4.867   3.260 -0.9531  0.2472 -0.5991
 4567TIP3   OH235335   3.637   1.485   2.316 -0.1135 -0.1105 -0.8045
 4567TIP3    H135336   3.660   1.518   2.229  1.2454  1.4958  0.0798
 4567TIP3    H235337   3.721   1.480   2.362 -0.6876 -1.8594  0.1418
 4568TIP3   OH235338   2.805   4.772   1.464 -0.6715 -0.5733 -0.2536
 4568TIP3    H135339   2.786   4.808   1.551  0.4956 -1.0646  0.2271
 4568TIP3    H235340   2.851   4.843   1.418 -1.3740 -0.2797 -0.5070
 4569TIP3   OH235341   4.785   6.168   0.558 -0.2956 -0.9529  0.4956
 4569TIP3    H135342   4.796   6.238   0.494  4.3374  0.4507  2.4753
 4569TIP3    H235343   4.815   6.089   0.513  2.0455 -0.1382  0.4981
 4570TIP3   OH235344   3.417   6.336   2.570 -0.0048  0.0019  0.9917
 4570TIP3    H135345   3.505   6.302   2.561 -0.6355 -1.8653  1.4661
 4570TIP3    H235346   3.429   6.428   2.595  1.7653  0.3791 -0.9344
 4571TIP3   OH235347   2.317   5.142   1.153 -0.3289 -0.0574  0.5704
 4571TIP3    H135348   2.260   5.093   1.213 -1.6782  0.3752 -0.3079
 4571TIP3    H235349   2.337   5.079   1.083 -0.0255 -0.1021  0.6985
 4572TIP3   OH235350   4.300   6.308   3.165 -0.1193 -0.2387  0.0823
 4572TIP3    H135351   4.345   6.375   3.216  1.1634 -0.2750 -0.9794
 4572TIP3    H235352   4.365   6.276   3.103 -0.9579 -1.8653 -0.0105
 4573TIP3   OH235353   3.221   2.043   8.689  0.8196  0.4318  0.2465
 4573TIP3    H135354   3.306   2.080   8.666  0.0362  1.3021 -1.4276
 4573TIP3    H235355   3.171   2.046   8.607 -1.0334  0.5455  1.3353
 4574TIP3   OH235356   0.867   0.509   1.093  0.4114 -0.1642  0.6910
 4574TIP3    H135357   0.932   0.460   1.043 -1.3272 -1.3512 -0.5231
 4574TIP3    H235358   0.918   0.572   1.144  2.4034 -0.3124 -1.0087
 4575TIP3   OH235359   4.525   6.494   8.815 -0.2793 -0.1229  0.1153
 4575TIP3    H135360   4.552   6.586   8.812 -1.3678  0.1838 -0.8193
 4575TIP3    H235361   4.431   6.497   8.831 -0.2705 -1.0980  0.4325
 4576TIP3   OH235362   2.633   4.913   2.784  0.5356 -0.6777 -0.3708
 4576TIP3    H135363   2.559   4.922   2.844  0.7226  0.7140 -0.3102
 4576TIP3    H235364   2.594   4.921   2.697  0.6107  0.2580 -0.3343
 4577TIP3   OH235365   1.541   0.014   0.414 -0.3720 -0.4069  0.5365
 4577TIP3    H135366   1.505   0.093   0.373 -0.7102 -1.1155 -0.5850
 4577TIP3    H235367   1.494  -0.058   0.372 -2.5853 -1.1778  3.8752
 4578TIP3   OH235368   4.847   3.295   3.376  0.4341 -0.1191 -0.5735
 4578TIP3    H135369   4.866   3.203   3.357 -0.3906  0.0598 -2.3836
 4578TIP3    H235370   4.757   3.308   3.347  0.9088  1.5372 -1.4086
 4579TIP3   OH235371   0.699   2.660   0.869 -0.6460  0.5162 -0.8276
 4579TIP3    H135372   0.698   2.754   0.854 -1.1383  0.5850 -0.3738
 4579TIP3    H235373   0.624   2.627   0.820 -0.0059  0.2444 -1.6596
 4580TIP3   OH235374   2.503   5.522   2.526  0.2176  0.0151  0.5032
 4580TIP3    H135375   2.506   5.438   2.570  0.5663 -0.2235  0.0381
 4580TIP3    H235376   2.417   5.525   2.485  0.4682 -0.4345 -0.0771
 4581TIP3   OH235377   4.589   5.145   3.251 -0.0950  0.2195  0.3638
 4581TIP3    H135378   4.597   5.114   3.341 -0.0016  0.0787  0.3066
 4581TIP3    H235379   4.588   5.065   3.198 -0.2622  0.2976  0.2492
 4582TIP3   OH235380   0.362   0.536   2.960 -0.2098 -0.6886 -0.2581
 4582TIP3    H135381   0.346   0.444   2.982 -1.5763 -0.6211 -0.9019
 4582TIP3    H235382   0.319   0.548   2.876  2.2857 -0.1481 -1.5491
 4583TIP3   OH235383   0.803   1.974   8.378 -0.2825  0.0865  0.0936
 4583TIP3    H135384   0.751   1.945   8.453  1.0207  2.1248  1.9070
 4583TIP3    H235385   0.891   1.988   8.414  1.2026 -1.7258 -2.5107
 4584TIP3   OH235386   6.463   1.349   8.792  0.7259 -0.0568 -0.0263
 4584TIP3    H135387   6.400   1.336   8.863 -1.5683  0.3587 -1.8390
 4584TIP3    H235388   6.483   1.442   8.794  0.1033  0.0921 -0.3231
 4585TIP3   OH235389   1.972   3.296   0.815  0.0576 -0.1078 -0.1638
 4585TIP3    H135390   1.939   3.385   0.816 -0.3724 -0.2573 -0.8045
 4585TIP3    H235391   1.958   3.265   0.726  1.1417 -0.4706 -0.2231
 4586TIP3   OH235392   1.373   1.414   3.174 -0.3646 -0.1300  0.0330
 4586TIP3    H135393   1.440   1.404   3.241 -1.0201  0.4432  0.7882
 4586TIP3    H235394   1.345   1.324   3.155  1.0855 -0.4339 -0.8053
 4587TIP3   OH235395   3.861   4.503   1.949  0.8358 -0.1996 -0.0483
 4587TIP3    H135396   3.812   4.558   1.889  0.3885 -0.7488 -0.1893
 4587TIP3    H235397   3.873   4.420   1.902  0.3217 -0.6997  0.6771
 4588TIP3   OH235398   5.248   2.162   1.406 -0.7330  0.5162 -0.0443
 4588TIP3    H135399   5.256   2.199   1.318  3.2158 -0.3986 -0.2855
 4588TIP3    H235400   5.190   2.087   1.396  0.1556  0.0353 -2.0595
 4589TIP3   OH235401   3.089   6.645   2.007  0.2397 -0.2712  0.1161
 4589TIP3    H135402   3.013   6.590   1.992 -1.0506  1.2538  0.8137
 4589TIP3    H235403   3.142   6.596   2.070 -0.7838 -0.7998  0.5883
 4590TIP3   OH235404   1.072   0.807   0.755  0.0418 -0.0950 -0.5282
 4590TIP3    H135405   1.115   0.877   0.805 -0.0608  0.9347 -1.8353
 4590TIP3    H235406   1.140   0.772   0.699  0.3229 -1.7041  0.7378
 4591TIP3   OH235407   2.784   4.400   0.882 -0.0264  0.3387 -0.3074
 4591TIP3    H135408   2.764   4.359   0.797 -1.3000  1.3175 -0.5160
 4591TIP3    H235409   2.875   4.428   0.874 -0.2694  0.8605 -1.5716
 4592TIP3   OH235410   4.986   3.048   8.894  0.5464 -0.0926  0.0609
 4592TIP3    H135411   4.896   3.065   8.865  0.2006 -2.0880 -0.2191
 4592TIP3    H235412   5.040   3.100   8.835 -0.3248 -1.1751 -1.7914
 4593TIP3   OH235413   5.541   4.508   0.793  0.5362  0.0818 -0.1718
 4593TIP3    H135414   5.507   4.592   0.763  0.7563 -0.0352 -0.7632
 4593TIP3    H235415   5.544   4.453   0.714 -0.7457 -0.8814  0.4116
 4594TIP3   OH235416   6.379   1.420   2.666 -0.3254  0.1424  0.0967
 4594TIP3    H135417   6.426   1.434   2.748 -0.8039 -0.6450  0.5098
 4594TIP3    H235418   6.347   1.507   2.642  0.6736  0.5569  0.2035
 4595TIP3   OH235419   4.023   1.710   8.407  0.2094  0.7985  0.8186
 4595TIP3    H135420   4.070   1.758   8.476 -0.7138 -2.1172  3.7263
 4595TIP3    H235421   3.937   1.693   8.444 -0.2524 -1.1344 -0.9642
 4596TIP3   OH235422   0.487   1.047   8.893  0.7334  0.2420  0.0290
 4596TIP3    H135423   0.458   0.972   8.945  1.1373 -0.3542 -0.5927
 4596TIP3    H235424   0.416   1.064   8.832 -0.1252  1.4921  1.3001
 4597TIP3   OH235425   3.912   0.263   2.515  0.2353 -0.1933 -0.1598
 4597TIP3    H135426   4.005   0.289   2.513  0.0668  0.4225 -0.2864
 4597TIP3    H235427   3.866   0.341   2.546 -0.4076  0.0488 -1.6356
 4598TIP3   OH235428   2.035   5.262   2.939 -0.2551  0.1307 -0.1350
 4598TIP3    H135429   1.975   5.334   2.923 -0.8825 -0.5302 -0.8542
 4598TIP3    H235430   2.101   5.298   2.999  0.3423  1.7745 -1.6729
 4599TIP3   OH235431   5.149   4.097   1.798 -0.3838 -0.4018 -0.4612
 4599TIP3    H135432   5.073   4.074   1.745 -1.4424  1.2391  0.2775
 4599TIP3    H235433   5.143   4.191   1.810  0.3139 -0.5877  1.8107
 4600TIP3   OH235434   2.722   2.022   0.498  0.5996 -0.4460  0.1097
 4600TIP3    H135435   2.811   2.015   0.465  0.7293  1.9517 -0.1989
 4600TIP3    H235436   2.732   2.020   0.593  1.0074 -0.1127  0.0775
 4601TIP3   OH235437   1.798   6.222   7.344  0.3999 -0.3086  0.0092
 4601TIP3    H135438   1.885   6.260   7.342  0.7766 -1.0584  0.9224
 4601TIP3    H235439   1.739   6.295   7.330  1.1567  0.3420  0.1499
 4602TIP3   OH235440   6.059   0.954   2.409  0.0260  0.3753 -0.5417
 4602TIP3    H135441   6.135   0.897   2.410  0.0228  0.2796  2.1442
 4602TIP3    H235442   6.078   1.020   2.477 -1.4328  1.5284 -1.2005
 4603TIP3   OH235443   1.871   3.225   8.807 -0.0562  0.0430 -0.0160
 4603TIP3    H135444   1.811   3.287   8.849  0.2988 -0.3919  1.1652
 4603TIP3    H235445   1.838   3.139   8.832 -2.2473 -0.5030 -3.8921
 4604TIP3   OH235446   2.421   1.120   8.009  0.6684  0.4089  0.1027
 4604TIP3    H135447   2.407   1.028   7.985  2.8224 -0.0767  0.5417
 4604TIP3    H235448   2.336   1.161   7.995  0.3477 -0.9859 -3.1308
 4605TIP3   OH235449   4.674   1.998   2.010  0.1079  0.2329  0.1604
 4605TIP3    H135450   4.711   1.912   2.032 -2.3948 -0.6369  1.3008
 4605TIP3    H235451   4.749   2.048   1.977  2.3786 -1.2718  2.5840
 4606TIP3   OH235452   6.336   6.685   2.152 -0.0353  0.4839  0.5036
 4606TIP3    H135453   6.374   6.723   2.231  0.9362  0.2808  0.1548
 4606TIP3    H235454   6.392   6.609   2.133 -0.6069  0.1945 -0.0483
 4607TIP3   OH235455   3.701   2.421   0.339  0.0871 -0.0190  0.2282
 4607TIP3    H135456   3.704   2.325   0.342  0.0040 -0.0072  0.9289
 4607TIP3    H235457   3.784   2.449   0.377  0.3004  0.1879 -0.3832
 4608TIP3   OH235458   1.378   5.198   1.993 -0.0378 -0.4012  0.4605
 4608TIP3    H135459   1.362   5.107   1.969  2.2067 -0.7769  0.1732
 4608TIP3    H235460   1.460   5.196   2.042  1.2891  1.7110 -1.4747
 4609TIP3   OH235461   5.800   0.093   1.408 -0.8585 -0.0855 -0.2130
 4609TIP3    H135462   5.723   0.138   1.374  0.4783  0.9001 -2.1727
 4609TIP3    H235463   5.830   0.039   1.334  1.4121  1.0819 -0.2405
 4610TIP3   OH235464   0.083   1.071   2.174  0.5045 -0.1562  0.2694
 4610TIP3    H135465   0.008   1.045   2.227  0.9469 -3.3156 -0.4397
 4610TIP3    H235466   0.155   1.077   2.236  0.1222  0.8007  0.6432
 4611TIP3   OH235467   2.466   1.247   1.655 -0.0869  0.1631  0.2594
 4611TIP3    H135468   2.501   1.322   1.703  0.3939  0.3161 -0.3214
 4611TIP3    H235469   2.448   1.182   1.723 -0.7027  0.8749  0.7883
 4612TIP3   OH235470   6.097   2.980   2.312  0.1413 -0.0667  0.0115
 4612TIP3    H135471   6.153   3.054   2.290  0.5845 -0.3419  0.1982
 4612TIP3    H235472   6.107   2.970   2.407  0.8973 -1.0101 -0.1531
 4613TIP3   OH235473   6.209   2.665   2.343  0.3177  0.0805  0.1148
 4613TIP3    H135474   6.162   2.727   2.399  1.5647  0.7877  0.4009
 4613TIP3    H235475   6.275   2.626   2.400  1.3012  0.4771 -0.7174
 4614TIP3   OH235476   6.325   3.672   7.683 -0.1976  0.3479 -0.0727
 4614TIP3    H135477   6.300   3.590   7.640  0.0478  0.6001 -0.6944
 4614TIP3    H235478   6.290   3.741   7.626  1.8530  0.7125 -0.9473
 4615TIP3   OH235479   0.041   1.650   3.349 -0.6608 -0.2902  0.0035
 4615TIP3    H135480   0.012   1.608   3.430  0.9406 -2.2613 -0.3732
 4615TIP3    H235481   0.092   1.725   3.378  0.4692 -1.3590  0.8752
 4616TIP3   OH235482   1.297   5.319   7.793  0.1687  0.8738  0.2281
 4616TIP3    H135483   1.280   5.396   7.738 -1.7389  1.1346  1.0988
 4616TIP3    H235484   1.211   5.294   7.826  1.0462 -0.2605  1.7834
 4617TIP3   OH235485   3.076   3.810   0.395  0.3322 -0.1987  0.3671
 4617TIP3    H135486   3.040   3.895   0.370  0.3134 -0.3993 -0.3185
 4617TIP3    H235487   3.080   3.761   0.313 -0.1133 -1.0364  0.8363
 4618TIP3   OH235488   1.494   2.111   7.990 -0.4961  0.2035  0.5196
 4618TIP3    H135489   1.590   2.110   7.980 -0.3245 -0.2494  1.9418
 4618TIP3    H235490   1.471   2.204   7.981  0.1287  0.3705  0.5421
 4619TIP3   OH235491   5.587   6.070   2.831  0.1019 -0.2557  0.2426
 4619TIP3    H135492   5.524   6.139   2.812 -1.2077 -1.7512 -1.0289
 4619TIP3    H235493   5.662   6.089   2.774  0.3009  0.8222  0.8480
 4620TIP3   OH235494   6.081   4.407   8.282 -0.0076 -0.4061  1.2496
 4620TIP3    H135495   6.002   4.356   8.300 -0.5999 -0.0334 -0.1138
 4620TIP3    H235496   6.129   4.354   8.218 -0.4300  0.5167  0.1274
 4621TIP3   OH235497   3.101   6.168   8.622  0.4610 -0.7452  0.1506
 4621TIP3    H135498   3.069   6.169   8.712 -0.3947  0.1330 -0.1425
 4621TIP3    H235499   3.080   6.255   8.588  2.0997 -0.5367 -0.4517
 4622TIP3   OH235500   0.709   4.569   1.303 -0.2049  0.4758  0.2303
 4622TIP3    H135501   0.731   4.564   1.396 -1.7243  0.8031  0.6258
 4622TIP3    H235502   0.625   4.525   1.295 -0.3407  0.9019 -0.9075
 4623TIP3   OH235503   5.132   6.256   8.984  0.3650  0.4465  0.0980
 4623TIP3    H135504   5.102   6.344   9.010  0.4586  0.7257 -0.7101
 4623TIP3    H235505   5.086   6.239   8.902  1.4928  0.3652 -0.5264
 4624TIP3   OH235506   3.682   3.559   3.302 -0.2038 -0.5351 -0.6145
 4624TIP3    H135507   3.613   3.565   3.369  0.2023  1.5792 -0.3225
 4624TIP3    H235508   3.637   3.524   3.225 -1.6378  0.7367 -0.4094
 4625TIP3   OH235509   2.334   1.930   0.908 -0.6175  0.3884 -0.1995
 4625TIP3    H135510   2.425   1.900   0.904 -0.5709  0.6358 -1.3723
 4625TIP3    H235511   2.330   2.004   0.846 -1.4582  0.8043  0.3312
 4626TIP3   OH235512   3.926   2.227   0.556 -0.3296 -0.2263 -1.0769
 4626TIP3    H135513   3.892   2.140   0.536  1.2470 -0.8259 -1.2978
 4626TIP3    H235514   4.015   2.211   0.587 -1.0654  1.0166  2.1239
 4627TIP3   OH235515   5.893   3.470   8.901 -0.2663  0.3321  0.1739
 4627TIP3    H135516   5.925   3.408   8.967 -2.1521  0.2202  1.0590
 4627TIP3    H235517   5.954   3.543   8.906  0.0620 -0.0058  1.5259
 4628TIP3   OH235518   3.716   1.571   2.060  0.1280 -0.1045  0.2834
 4628TIP3    H135519   3.623   1.548   2.070  0.8973 -2.9799  1.7074
 4628TIP3    H235520   3.743   1.527   1.979  0.0993  1.5268 -0.6622
 4629TIP3   OH235521   4.448   6.511   0.894 -0.5089 -0.1529  0.4429
 4629TIP3    H135522   4.369   6.500   0.843 -1.8301  2.8656  1.5472
 4629TIP3    H235523   4.506   6.562   0.838 -0.5253  0.0916  0.6434
 4630TIP3   OH235524   1.227   2.718   0.720  0.7028  0.4699  0.4363
 4630TIP3    H135525   1.176   2.637   0.731  1.7323 -0.5982 -1.8730
 4630TIP3    H235526   1.218   2.764   0.803 -0.5581 -1.6525  1.5575
 4631TIP3   OH235527   4.752   0.782   1.766 -0.2738  0.4008  0.0546
 4631TIP3    H135528   4.696   0.841   1.715 -0.8758  1.0936  1.4758
 4631TIP3    H235529   4.692   0.715   1.799 -0.4088  1.3491  1.8871
 4632TIP3   OH235530   3.094   4.861   1.488  0.0318  0.1852 -0.2365
 4632TIP3    H135531   3.081   4.939   1.435 -0.2028 -0.1002 -0.6053
 4632TIP3    H235532   3.153   4.806   1.437  1.7711  0.9334  0.8787
 4633TIP3   OH235533   0.022   0.123   8.234  0.0923 -0.0115  0.6415
 4633TIP3    H135534  -0.064   0.138   8.272 -0.2939 -1.2468  0.3130
 4633TIP3    H235535   0.006   0.116   8.140  0.8228  1.5060  0.3753
 4634TIP3   OH235536   0.517   0.092   8.947  0.2947 -0.3036  0.2635
 4634TIP3    H135537   0.522   0.185   8.972  2.6606  0.4204 -2.3066
 4634TIP3    H235538   0.605   0.072   8.916 -0.4378 -3.1741 -0.1707
 4635TIP3   OH235539   5.851   6.726   1.642 -0.0261 -0.8435  0.3310
 4635TIP3    H135540   5.841   6.779   1.564  0.7633  0.1909  0.9059
 4635TIP3    H235541   5.935   6.683   1.632 -0.2957 -1.3545  0.2397
 4636TIP3   OH235542   1.088   4.248   2.794  0.0849  0.0213 -0.1123
 4636TIP3    H135543   1.140   4.293   2.861 -0.3009  1.8644 -0.9682
 4636TIP3    H235544   0.998   4.251   2.827 -0.0240  0.4329 -0.4286
 4637TIP3   OH235545   5.748   0.668   2.189  0.5750  0.7127 -0.3621
 4637TIP3    H135546   5.680   0.734   2.178  0.0512  0.0895 -0.9208
 4637TIP3    H235547   5.730   0.603   2.122 -2.0143 -2.6679  3.1537
 4638TIP3   OH235548   0.270   3.091   2.214 -0.0416 -0.2856  0.4796
 4638TIP3    H135549   0.232   3.008   2.243  0.1097 -0.1790  0.9919
 4638TIP3    H235550   0.208   3.124   2.149 -0.4760 -0.4573  0.7979
 4639TIP3   OH235551   2.685   4.635   1.926 -0.6568  0.1263  0.6121
 4639TIP3    H135552   2.770   4.610   1.964 -0.1752  2.0176  0.8545
 4639TIP3    H235553   2.655   4.708   1.980 -2.0563  0.0343 -0.0025
 4640TIP3   OH235554   5.169   2.146   2.488 -0.3098  0.2236  0.1631
 4640TIP3    H135555   5.073   2.145   2.490 -0.3644  1.3131 -0.9342
 4640TIP3    H235556   5.194   2.163   2.579 -1.0935 -1.3869  0.7233
 4641TIP3   OH235557   2.718   3.951   1.660  0.2406 -0.0777  0.7712
 4641TIP3    H135558   2.793   4.001   1.690 -1.3682  1.3527  2.6355
 4641TIP3    H235559   2.749   3.860   1.659  3.2149  0.7258 -2.6672
 4642TIP3   OH235560   3.374   6.135   8.744 -0.4647  0.8105 -0.3417
 4642TIP3    H135561   3.295   6.123   8.691 -1.3184  2.0075  0.6085
 4642TIP3    H235562   3.347   6.116   8.833  0.5245  0.4756 -0.1069
 4643TIP3   OH235563   2.094   1.406   0.034  0.6280 -0.0629  0.5570
 4643TIP3    H135564   2.063   1.349  -0.037  2.5216 -0.7401  0.2047
 4643TIP3    H235565   2.160   1.462  -0.007  1.6372 -0.3432  1.7232
 4644TIP3   OH235566   3.211   2.313   1.867  0.6489  0.0461 -0.5185
 4644TIP3    H135567   3.124   2.332   1.902  0.7799 -0.0646 -0.1373
 4644TIP3    H235568   3.198   2.236   1.811  0.2612  0.7815 -1.4732
 4645TIP3   OH235569   3.483   2.394   7.943 -0.1104 -1.1046 -0.6589
 4645TIP3    H135570   3.478   2.298   7.947 -1.4812 -1.0244  2.3330
 4645TIP3    H235571   3.425   2.424   8.013 -1.0351  1.9956 -2.5390
 4646TIP3   OH235572   2.886   0.841   0.421 -0.4878 -0.1705  0.0841
 4646TIP3    H135573   2.873   0.932   0.448 -0.2723 -0.0812 -0.1119
 4646TIP3    H235574   2.943   0.847   0.344  1.0233 -0.5690  1.1217
 4647TIP3   OH235575   1.070   4.219   7.801  0.2686 -0.6336  0.4962
 4647TIP3    H135576   1.085   4.138   7.753  0.4285 -0.9161  1.0143
 4647TIP3    H235577   1.151   4.269   7.789 -0.3496  0.0844 -1.0066
 4648TIP3   OH235578   4.706   5.670   2.258 -1.3309  1.1020 -0.3493
 4648TIP3    H135579   4.697   5.641   2.168 -2.4235 -2.7566  0.8099
 4648TIP3    H235580   4.791   5.715   2.261 -0.9522  0.7391 -3.0896
 4649TIP3   OH235581   4.849   2.887   7.934  0.2586 -1.0037  0.5891
 4649TIP3    H135582   4.804   2.897   8.018 -0.3223 -0.0319  0.1857
 4649TIP3    H235583   4.784   2.913   7.869  1.2561  0.0660 -0.0361
 4650TIP3   OH235584   6.543   6.117   3.207 -0.4475  0.0215  0.0756
 4650TIP3    H135585   6.522   6.072   3.288  0.8912 -0.7823  0.0025
 4650TIP3    H235586   6.486   6.076   3.141  1.2903 -2.2469 -0.1585
 4651TIP3   OH235587   4.355   3.822   8.690  0.4146 -0.4468 -1.0354
 4651TIP3    H135588   4.420   3.875   8.736 -0.0516 -0.0321 -0.8469
 4651TIP3    H235589   4.372   3.840   8.597  0.1980  0.1095 -0.9700
 4652TIP3   OH235590   3.161   0.994   0.905  0.2291  0.1605 -0.0443
 4652TIP3    H135591   3.151   0.983   0.810 -0.6013 -1.2984  0.1769
 4652TIP3    H235592   3.251   0.967   0.923  0.1365 -0.3543 -0.3285
 4653TIP3   OH235593   2.849   1.363   1.806  0.1657 -0.3790 -0.4213
 4653TIP3    H135594   2.855   1.358   1.711  2.9111 -0.5887 -0.2960
 4653TIP3    H235595   2.929   1.322   1.838  0.4646  1.7812  1.9269
 4654TIP3   OH235596   5.583   1.921   1.052  0.6398 -0.4877 -0.0444
 4654TIP3    H135597   5.501   1.964   1.077  0.5729 -0.2834 -0.5880
 4654TIP3    H235598   5.651   1.970   1.099  0.4906 -0.3335  0.0120
 4655TIP3   OH235599   0.966   5.329   2.078 -0.0671 -0.2083 -1.0261
 4655TIP3    H135600   0.880   5.313   2.040 -0.6894  1.9002 -0.6228
 4655TIP3    H235601   1.023   5.340   2.001 -0.0905 -1.6954 -1.2941
 4656TIP3   OH235602   4.165   0.798   8.148  0.0546 -0.3062 -0.3760
 4656TIP3    H135603   4.211   0.815   8.065 -1.2097  0.9569 -0.8463
 4656TIP3    H235604   4.141   0.884   8.181 -0.3640 -0.8482  0.7980
 4657TIP3   OH235605   4.460   2.214   0.094  0.0479  0.1267  0.6424
 4657TIP3    H135606   4.375   2.183   0.124 -0.3788  1.4214  0.8448
 4657TIP3    H235607   4.480   2.159   0.018 -2.1910  1.4592 -1.0320
 4658TIP3   OH235608   0.282   1.462   8.770 -0.1854 -0.6730 -0.0225
 4658TIP3    H135609   0.320   1.524   8.833 -0.0192 -2.6470  1.9651
 4658TIP3    H235610   0.193   1.448   8.801  0.6706 -3.6433  1.5507
 4659TIP3   OH235611   6.279   2.381   0.006 -0.1724  0.8378 -0.4474
 4659TIP3    H135612   6.184   2.375   0.009 -0.0771 -0.4075  1.1730
 4659TIP3    H235613   6.296   2.467  -0.033 -1.9580  1.6659  0.4605
 4660TIP3   OH235614   2.486   6.404   0.495  0.0908 -0.2969  0.1288
 4660TIP3    H135615   2.575   6.428   0.523  0.2690  0.4325 -1.0245
 4660TIP3    H235616   2.461   6.472   0.433 -0.8435 -1.1175 -0.4211
 4661TIP3   OH235617   5.147   6.037   3.328  0.0624  0.3391  0.0368
 4661TIP3    H135618   5.239   6.053   3.347  0.1575 -0.6459  0.5116
 4661TIP3    H235619   5.100   6.111   3.366  0.5678  0.2200  0.9144
 4662TIP3   OH235620   2.735   6.283   3.501  0.7690  0.4470  0.0535
 4662TIP3    H135621   2.755   6.189   3.506  0.4253  0.3489 -0.3665
 4662TIP3    H235622   2.795   6.317   3.436 -0.3117  0.1731 -1.1249
 4663TIP3   OH235623   1.335   3.486   1.517  0.3488 -0.1385  0.2766
 4663TIP3    H135624   1.378   3.492   1.431 -0.4628 -0.6384 -0.1758
 4663TIP3    H235625   1.301   3.397   1.520 -1.0622  0.3792  0.4173
 4664TIP3   OH235626   2.568   6.461   0.113 -0.3912 -0.7056 -0.0294
 4664TIP3    H135627   2.518   6.430   0.037 -1.8685  2.3414 -0.4374
 4664TIP3    H235628   2.636   6.517   0.075  0.6201 -1.3473  0.7941
 4665TIP3   OH235629   2.931   3.576   2.397  0.2781  0.0539 -0.2945
 4665TIP3    H135630   2.900   3.489   2.423  0.3164 -0.6079 -2.2897
 4665TIP3    H235631   2.865   3.608   2.337  0.5359  1.2069  0.0070
 4666TIP3   OH235632   4.673   3.053   3.582  0.7913 -0.3606  0.2455
 4666TIP3    H135633   4.700   3.107   3.656 -2.0440 -0.1194  1.2346
 4666TIP3    H235634   4.601   3.102   3.542 -1.0903 -2.7498  0.4608
 4667TIP3   OH235635   5.902   1.445   0.126 -0.1555 -0.2005 -0.1980
 4667TIP3    H135636   5.997   1.446   0.118 -0.1497 -1.0398 -0.2919
 4667TIP3    H235637   5.884   1.464   0.218  0.0736  0.5106 -0.2903
 4668TIP3   OH235638   0.601   4.556   2.001  0.6634  0.1771 -0.2037
 4668TIP3    H135639   0.533   4.595   1.946 -0.0782  0.4626  0.8906
 4668TIP3    H235640   0.568   4.469   2.023 -0.0313  0.8436  1.4955
 4669TIP3   OH235641   5.505   2.125   8.426  0.1813 -0.1776 -0.9293
 4669TIP3    H135642   5.555   2.054   8.385 -0.3586 -0.6631 -0.7569
 4669TIP3    H235643   5.448   2.157   8.356  0.7682  0.4224 -1.1456
 4670TIP3   OH235644   5.444   1.547   8.640 -0.5620 -0.5995  0.1332
 4670TIP3    H135645   5.477   1.539   8.730  1.2123  1.4438 -0.2436
 4670TIP3    H235646   5.523   1.543   8.585 -0.9243  2.8739 -0.9441
 4671TIP3   OH235647   3.633   2.568   1.098 -0.1067 -0.1687  0.8293
 4671TIP3    H135648   3.636   2.519   1.180 -0.0096  0.8937  1.4764
 4671TIP3    H235649   3.578   2.644   1.118  0.1621  0.2497 -0.0066
 4672TIP3   OH235650   4.001   3.169   1.947  0.6266 -0.2465 -0.6028
 4672TIP3    H135651   4.007   3.089   1.895 -0.7087 -0.3817 -0.5951
 4672TIP3    H235652   3.908   3.191   1.946  0.6502  0.0856  1.2363
 4673TIP3   OH235653   5.624   1.041   0.532  0.2742 -0.1898 -0.2120
 4673TIP3    H135654   5.631   0.986   0.453  1.3490 -3.1339  1.7741
 4673TIP3    H235655   5.685   1.113   0.515 -0.4412 -0.0288 -2.5392
 4674TIP3   OH235656   4.822   3.350   3.686  0.3271 -0.0995  0.1280
 4674TIP3    H135657   4.827   3.340   3.781  0.2112  0.1520  0.1625
 4674TIP3    H235658   4.730   3.371   3.669  0.2693 -0.5184 -0.0772
 4675TIP3   OH235659   5.320   4.130   2.933 -0.5104  0.2756  0.3913
 4675TIP3    H135660   5.342   4.132   2.840 -0.0879 -1.8153  0.3896
 4675TIP3    H235661   5.364   4.052   2.966 -0.6443  0.9738  2.3633
 4676TIP3   OH235662   3.458   4.455   0.647  0.1418 -0.1554  0.1984
 4676TIP3    H135663   3.402   4.400   0.593  1.2176  0.2683 -1.4140
 4676TIP3    H235664   3.440   4.544   0.618  0.7521  0.0793  0.5220
 4677TIP3   OH235665   1.424   3.672   2.517 -0.0722  0.0330  0.0548
 4677TIP3    H135666   1.403   3.579   2.506 -1.3001  0.3130 -0.1016
 4677TIP3    H235667   1.383   3.696   2.600  0.3551  0.3983  0.1582
 4678TIP3   OH235668   5.306   6.514   0.124  0.1940  0.1544 -0.0123
 4678TIP3    H135669   5.382   6.543   0.074 -0.0157  2.4309  0.8366
 4678TIP3    H235670   5.235   6.511   0.059  0.7607 -1.0309 -0.6134
 4679TIP3   OH235671   0.173   0.338   1.237 -0.0309  0.4866  0.2083
 4679TIP3    H135672   0.170   0.415   1.294  1.4890  0.0946  0.8626
 4679TIP3    H235673   0.260   0.300   1.252  0.0107 -0.2298 -1.5936
 4680TIP3   OH235674   3.462   5.214   8.794 -0.0219  0.2731  0.3248
 4680TIP3    H135675   3.480   5.126   8.761 -1.2486 -0.0640  0.4949
 4680TIP3    H235676   3.545   5.260   8.788  0.8694 -1.1816  1.1275
 4681TIP3   OH235677   5.099   4.017   7.493 -0.2337 -0.3238 -0.0296
 4681TIP3    H135678   5.159   3.954   7.454 -1.5976 -1.3683 -0.5189
 4681TIP3    H235679   5.075   4.076   7.421 -0.4930 -0.4655 -0.0601
 4682TIP3   OH235680   2.873   1.612   1.000  0.0461  0.1195 -0.1281
 4682TIP3    H135681   2.878   1.624   0.905 -0.3404 -0.5576 -0.2466
 4682TIP3    H235682   2.795   1.558   1.012 -0.9067  1.6374  0.7202
 4683TIP3   OH235683   5.714   1.967   8.345 -0.8096  0.6136  0.2630
 4683TIP3    H135684   5.782   1.902   8.357 -2.7847 -1.4947  0.7853
 4683TIP3    H235685   5.689   1.958   8.253  0.0988  1.9624 -0.1531
 4684TIP3   OH235686   1.476   6.046   8.730 -0.1611  0.9375 -0.1932
 4684TIP3    H135687   1.388   6.009   8.730  0.1123  0.0855  2.1588
 4684TIP3    H235688   1.534   5.969   8.730  0.5190  1.4437 -0.1000
 4685TIP3   OH235689   6.334   0.935   2.419 -0.4983  0.4819 -0.4466
 4685TIP3    H135690   6.350   0.855   2.368 -1.0273  0.7489 -1.0352
 4685TIP3    H235691   6.379   1.004   2.370  0.8594  0.3974  0.6110
 4686TIP3   OH235692   3.010   2.844   8.336 -0.5577  0.2375 -0.2002
 4686TIP3    H135693   2.955   2.789   8.392  1.1903  0.8287  2.2156
 4686TIP3    H235694   2.959   2.924   8.323 -0.2409  0.9223  2.2832
 4687TIP3   OH235695   0.533   6.165   3.371 -0.0421  0.6908 -0.7391
 4687TIP3    H135696   0.627   6.156   3.354  0.4506 -1.3144  2.2787
 4687TIP3    H235697   0.529   6.225   3.447 -1.2987  1.4537 -1.3814
 4688TIP3   OH235698   0.135   4.141   8.434  0.0152  0.3284 -0.7809
 4688TIP3    H135699   0.193   4.191   8.376  1.9058 -0.7319  0.0831
 4688TIP3    H235700   0.103   4.069   8.380 -1.6330  1.6275 -1.6401
 4689TIP3   OH235701   3.282   2.350   2.652  0.2023 -0.3809  0.3646
 4689TIP3    H135702   3.263   2.395   2.734 -0.1890  0.6974 -0.2951
 4689TIP3    H235703   3.231   2.398   2.587  1.8702 -0.1203 -0.7962
 4690TIP3   OH235704   2.821   3.426   8.202 -0.2761 -0.1091  0.4771
 4690TIP3    H135705   2.741   3.477   8.212 -1.7061 -2.3145  1.3006
 4690TIP3    H235706   2.795   3.352   8.146  1.2724 -0.6751  0.4663
 4691TIP3   OH235707   0.101   5.746   3.192 -0.1230 -0.2775  0.4753
 4691TIP3    H135708   0.086   5.789   3.107 -0.2001 -0.8230  0.2083
 4691TIP3    H235709   0.126   5.817   3.250  1.0906 -0.0424 -0.2950
 4692TIP3   OH235710   1.813   2.140   8.875 -0.1067  0.0029 -0.4561
 4692TIP3    H135711   1.810   2.049   8.906 -0.3210  0.3473  0.6028
 4692TIP3    H235712   1.895   2.146   8.826  1.0190 -0.2419  1.2755
 4693TIP3   OH235713   5.814   4.876   0.344  0.3736 -0.4018  0.6280
 4693TIP3    H135714   5.821   4.878   0.248  0.2022  0.1324  0.6241
 4693TIP3    H235715   5.818   4.783   0.366 -0.7274 -0.6168  0.0074
 4694TIP3   OH235716   0.826   4.292   2.816  0.4675 -0.3797  0.3522
 4694TIP3    H135717   0.759   4.360   2.827  0.4496 -0.0478 -1.4393
 4694TIP3    H235718   0.826   4.274   2.722  1.9574 -1.3467  0.5056
 4695TIP3   OH235719   5.199   0.251   8.997  0.2015  0.3557  0.2176
 4695TIP3    H135720   5.155   0.185   9.050  0.1789  0.0639 -0.1603
 4695TIP3    H235721   5.244   0.307   9.060 -1.0716  0.9356  0.6389
 4696TIP3   OH235722   3.470   0.198   0.704  0.2466  0.2493 -0.2135
 4696TIP3    H135723   3.562   0.186   0.677 -0.1030 -0.6294 -1.0854
 4696TIP3    H235724   3.463   0.148   0.785  0.1870 -1.0028 -0.9488
 4697TIP3   OH235725   5.900   3.703   2.076 -0.3781  0.3265 -0.0923
 4697TIP3    H135726   5.958   3.733   2.146 -2.1137 -2.1768  2.6830
 4697TIP3    H235727   5.929   3.614   2.058 -0.4215  0.6962 -2.1284
 4698TIP3   OH235728   4.759   6.316   9.087 -0.2205  0.7665 -0.0920
 4698TIP3    H135729   4.802   6.402   9.081 -2.4804  1.9747 -0.0497
 4698TIP3    H235730   4.715   6.305   9.003 -0.7452  0.1030  0.2622
 4699TIP3   OH235731   3.838   3.240   8.259 -0.1133 -0.3388  0.1818
 4699TIP3    H135732   3.854   3.234   8.353  2.0937 -2.1922 -0.2225
 4699TIP3    H235733   3.743   3.243   8.251 -0.3588 -0.1512  2.4611
 4700TIP3   OH235734   5.176   1.481   2.128 -0.1100 -0.0193  0.0179
 4700TIP3    H135735   5.148   1.518   2.212  1.1430  1.1339 -0.0405
 4700TIP3    H235736   5.157   1.387   2.136 -0.2875  0.1117  1.4666
 4701TIP3   OH235737   1.323   1.150   1.349 -0.2541  0.0674 -0.0196
 4701TIP3    H135738   1.267   1.085   1.307 -0.6877  1.0685 -1.0553
 4701TIP3    H235739   1.409   1.138   1.309 -0.9056  1.7274 -2.1380
 4702TIP3   OH235740   2.665   6.194   0.988 -0.0096  0.0006  0.1677
 4702TIP3    H135741   2.640   6.143   0.911 -1.9038  3.0776 -1.4672
 4702TIP3    H235742   2.749   6.235   0.964  0.8578 -1.2482  0.9617
 4703TIP3   OH235743   3.646   5.226   1.899 -0.0300  0.2474  0.1457
 4703TIP3    H135744   3.715   5.180   1.851  0.3118 -1.1465  1.8418
 4703TIP3    H235745   3.693   5.294   1.947 -0.1052  0.4610 -0.0823
 4704TIP3   OH235746   0.520   3.283   1.396  0.1612  0.6711 -0.4347
 4704TIP3    H135747   0.465   3.237   1.333  1.7781 -2.0980  0.0133
 4704TIP3    H235748   0.485   3.258   1.481 -0.2593  2.1042 -0.1512
 4705TIP3   OH235749   5.087   0.077   0.077 -0.2047 -0.3466 -0.0216
 4705TIP3    H135750   5.004   0.124   0.090 -1.2544 -1.1545 -2.9837
 4705TIP3    H235751   5.063  -0.015   0.079  1.0315 -0.6726  1.1052
 4706TIP3   OH235752   2.211   2.103   1.908  0.1873  0.2453 -0.0658
 4706TIP3    H135753   2.291   2.093   1.958 -0.0021 -0.3627  0.1231
 4706TIP3    H235754   2.228   2.177   1.850  0.7253  0.3939  0.2761
 4707TIP3   OH235755   2.638   6.540   1.139  0.6365  0.6939  0.0206
 4707TIP3    H135756   2.586   6.465   1.165 -0.4524  1.3824 -0.0902
 4707TIP3    H235757   2.725   6.523   1.174  0.9377 -1.5031 -1.6051
 4708TIP3   OH235758   2.618   1.529   0.773  0.6915 -0.3340  0.8462
 4708TIP3    H135759   2.602   1.482   0.692 -1.4117 -1.0762  1.6273
 4708TIP3    H235760   2.703   1.573   0.759  0.9973 -1.4586 -1.2235
 4709TIP3   OH235761   5.863   2.722   8.565  0.2619 -0.0238  0.4535
 4709TIP3    H135762   5.821   2.682   8.641 -0.4017  0.3912  0.3186
 4709TIP3    H235763   5.922   2.655   8.532  2.2255  0.5386  2.5954
 4710TIP3   OH235764   3.632   0.382   8.967 -0.4763 -0.6779 -0.0862
 4710TIP3    H135765   3.675   0.461   8.934 -1.9958 -0.2160 -1.0685
 4710TIP3    H235766   3.669   0.369   9.054  1.7624 -0.4435 -0.9279
 4711TIP3   OH235767   4.988   4.313   3.496  0.5731  0.2806 -0.7197
 4711TIP3    H135768   5.029   4.325   3.411  1.2587  0.1217 -0.4128
 4711TIP3    H235769   5.037   4.369   3.555 -0.5999  1.2642 -0.6290
 4712TIP3   OH235770   1.700   4.128   2.339  0.5164 -0.2961  0.4039
 4712TIP3    H135771   1.643   4.185   2.287  1.1202  0.9009  1.0207
 4712TIP3    H235772   1.646   4.051   2.358 -0.3093  0.0479 -0.4706
 4713TIP3   OH235773   2.944   2.033   8.576 -0.0275 -0.3985 -0.2621
 4713TIP3    H135774   2.862   2.053   8.531 -0.5704 -0.9478  0.4392
 4713TIP3    H235775   2.957   2.107   8.635 -0.0518 -0.3387 -0.3317
 4714TIP3   OH235776   1.470   2.144   1.982 -0.0177  0.1895 -0.4400
 4714TIP3    H135777   1.541   2.138   2.047 -0.2202  1.4642 -0.0648
 4714TIP3    H235778   1.392   2.119   2.031 -0.2106  1.4079 -0.0894
 4715TIP3   OH235779   6.064   5.965   1.915  0.4095 -0.5811  0.1679
 4715TIP3    H135780   6.151   6.004   1.913 -0.0669  0.4955 -0.0833
 4715TIP3    H235781   6.010   6.028   1.961 -0.4672 -0.7522 -0.5831
 4716TIP3   OH235782   3.463   2.949   0.273 -0.2081 -0.1647 -0.2114
 4716TIP3    H135783   3.411   2.917   0.346  1.5940 -3.4324 -0.1595
 4716TIP3    H235784   3.554   2.942   0.303  0.4948  0.0789 -2.1398
 4717TIP3   OH235785   1.465   2.399   0.623 -0.8720 -0.3690  0.2026
 4717TIP3    H135786   1.448   2.304   0.623 -1.1706 -0.3219  1.2544
 4717TIP3    H235787   1.500   2.417   0.710 -0.7539  0.4865 -0.0185
 4718TIP3   OH235788   3.923   3.091   2.722 -0.1456 -0.0806 -0.0339
 4718TIP3    H135789   3.916   3.006   2.766 -0.7915 -0.7523 -1.3628
 4718TIP3    H235790   4.017   3.104   2.711  0.0334  0.0827  1.4566
 4719TIP3   OH235791   1.701   0.356   1.059  0.4647  0.3265 -0.4372
 4719TIP3    H135792   1.697   0.416   0.985  1.0727  0.3978 -0.4159
 4719TIP3    H235793   1.712   0.413   1.136  0.8046  0.2020 -0.3925
 4720TIP3   OH235794   1.935   4.101   2.741 -0.5975 -0.3261  0.0843
 4720TIP3    H135795   1.929   4.063   2.653 -1.4810 -0.5690  0.2416
 4720TIP3    H235796   1.993   4.177   2.730  0.1508 -0.9569 -0.4919
 4721TIP3   OH235797   1.604   6.229   8.122 -0.2313  0.1595 -0.0157
 4721TIP3    H135798   1.513   6.231   8.095 -0.3852 -0.5820  0.4134
 4721TIP3    H235799   1.654   6.217   8.041 -0.6182 -1.0329 -0.0963
 4722TIP3   OH235800   4.277   6.656   0.096  0.2410 -0.5028  0.4044
 4722TIP3    H135801   4.321   6.733   0.133  2.1374  0.0015 -2.5886
 4722TIP3    H235802   4.342   6.586   0.103 -0.3957 -1.1013  0.4604
 4723TIP3   OH235803   1.530   1.014   8.212  0.5986  0.3321 -0.1045
 4723TIP3    H135804   1.483   1.073   8.271  0.5664 -0.1246  0.3314
 4723TIP3    H235805   1.610   1.062   8.190 -0.1104  1.1611 -0.9422
 4724TIP3   OH235806   5.519   4.193   1.457 -0.2271 -0.2816  0.2440
 4724TIP3    H135807   5.606   4.163   1.483  1.5011  2.4115 -1.8868
 4724TIP3    H235808   5.505   4.155   1.371 -0.5751  0.3229  0.0286
 4725TIP3   OH235809   0.894   0.587   7.199 -0.3486  0.3699 -0.6995
 4725TIP3    H135810   0.867   0.524   7.266  0.4386  0.5042 -0.2332
 4725TIP3    H235811   0.829   0.579   7.130 -0.6139 -0.5057 -0.3618
 4726TIP3   OH235812   0.496   3.452   1.132  0.5770  0.1056  0.1950
 4726TIP3    H135813   0.498   3.440   1.227  0.2968 -0.8801  0.0831
 4726TIP3    H235814   0.404   3.439   1.109  1.0103 -2.0737 -0.4922
 4727TIP3   OH235815   2.543   5.134   2.277 -0.2447  0.3916 -0.0395
 4727TIP3    H135816   2.513   5.218   2.312  0.8516  0.6781  0.2533
 4727TIP3    H235817   2.585   5.091   2.351  0.7616  0.3527 -0.6118
 4728TIP3   OH235818   5.956   6.185   9.066 -0.1151  0.8818  0.1629
 4728TIP3    H135819   6.026   6.123   9.046 -2.1235 -1.8037  0.8387
 4728TIP3    H235820   5.956   6.190   9.162 -2.2487 -1.1073  0.3674
 4729TIP3   OH235821   1.501   5.758   1.310 -0.3446 -0.3964 -0.0263
 4729TIP3    H135822   1.409   5.776   1.295 -0.2409  0.2343  0.0678
 4729TIP3    H235823   1.531   5.830   1.366  0.4224 -0.0953 -0.8039
 4730TIP3   OH235824   1.796   0.293   2.776  0.2322  0.2606  0.2869
 4730TIP3    H135825   1.837   0.213   2.744 -0.8692 -0.2254  0.0423
 4730TIP3    H235826   1.837   0.308   2.862  1.3150  0.1239 -0.1903
 4731TIP3   OH235827   6.402   0.888   1.260  0.1719 -0.8590 -0.0417
 4731TIP3    H135828   6.399   0.818   1.325 -3.8158  1.3830  2.5592
 4731TIP3    H235829   6.336   0.863   1.195  0.2186 -0.4875 -0.2328
 4732TIP3   OH235830   3.221   3.519   2.563 -0.2527 -0.7260  0.6141
 4732TIP3    H135831   3.284   3.589   2.546 -0.1247 -0.8054  0.7560
 4732TIP3    H235832   3.228   3.461   2.487 -0.0129 -0.8371  0.7184
 4733TIP3   OH235833   4.554   6.484   1.287  0.5131 -0.1131  0.6040
 4733TIP3    H135834   4.480   6.532   1.250  0.2265  0.2822  1.6660
 4733TIP3    H235835   4.602   6.550   1.337  0.5639 -0.7518  1.4117
 4734TIP3   OH235836   5.693   5.551   2.478 -0.4710 -0.1695 -0.2773
 4734TIP3    H135837   5.737   5.480   2.431  0.7677  0.3054  0.1170
 4734TIP3    H235838   5.761   5.618   2.489 -1.4336  0.7974 -0.0570
 4735TIP3   OH235839   5.555   6.320   0.182 -0.6043 -0.0086 -0.6426
 4735TIP3    H135840   5.559   6.393   0.121  0.4638 -0.6788 -1.4196
 4735TIP3    H235841   5.543   6.243   0.127 -2.8595 -0.3580  0.2385
 4736TIP3   OH235842   4.786   2.214   7.990  0.2580  0.1713 -0.2961
 4736TIP3    H135843   4.852   2.283   7.980 -1.3376  1.4649 -2.9819
 4736TIP3    H235844   4.831   2.134   7.962  1.0619  0.8032 -0.8470
 4737TIP3   OH235845   1.632   3.364   2.184  0.7167  0.2641  0.0545
 4737TIP3    H135846   1.631   3.288   2.242  3.7874  1.5200  2.0504
 4737TIP3    H235847   1.567   3.424   2.222 -0.0911 -0.4290 -0.1972
 4738TIP3   OH235848   2.050   2.503   0.140  0.3592  0.2827  0.3859
 4738TIP3    H135849   1.984   2.440   0.169  2.5472 -1.6967  1.4265
 4738TIP3    H235850   2.045   2.500   0.045 -1.0375  0.2029  0.4388
 4739TIP3   OH235851   0.219   4.458   1.862  0.1007  0.3834 -0.0034
 4739TIP3    H135852   0.242   4.374   1.821  0.8582  0.7756 -0.4101
 4739TIP3    H235853   0.284   4.519   1.828  0.5771  0.7900  1.5752
 4740TIP3   OH235854   4.109   0.862   1.766 -0.1037  0.1827  1.0394
 4740TIP3    H135855   4.107   0.828   1.676  0.5287  2.0777  0.2516
 4740TIP3    H235856   4.017   0.870   1.791 -0.3485  0.9378 -0.0081
 4741TIP3   OH235857   3.924   1.920   2.937  0.0166 -0.2562 -0.0774
 4741TIP3    H135858   3.882   1.975   2.871 -1.5657 -0.6653  0.5251
 4741TIP3    H235859   3.996   1.877   2.891 -0.2627  0.4325 -1.1905
 4742TIP3   OH235860   0.616   3.811   1.670  0.3459 -0.2287 -0.6493
 4742TIP3    H135861   0.659   3.726   1.681 -0.9210 -0.8345 -0.0969
 4742TIP3    H235862   0.576   3.829   1.755 -1.6351 -0.3911 -1.4852
 4743TIP3   OH235863   0.195   3.848   8.519 -0.1824  0.3055 -0.3519
 4743TIP3    H135864   0.211   3.928   8.569 -1.6895 -0.2822  1.1857
 4743TIP3    H235865   0.140   3.876   8.446 -2.6990  0.4242  1.4556
 4744TIP3   OH235866   2.260   2.816   1.108  0.5137 -0.2010 -0.6232
 4744TIP3    H135867   2.270   2.893   1.052 -1.2863  0.9926  0.5827
 4744TIP3    H235868   2.200   2.759   1.059 -1.7498  1.2188  0.3385
 4745TIP3   OH235869   1.246   2.579   0.099  0.2181  0.0727  0.2366
 4745TIP3    H135870   1.238   2.536   0.014  0.4548  1.7546 -0.6805
 4745TIP3    H235871   1.282   2.512   0.157 -0.3140 -1.2212 -0.8786
 4746TIP3   OH235872   0.300   4.222   8.239 -0.6548 -0.0851 -0.3661
 4746TIP3    H135873   0.274   4.314   8.230 -0.3996 -0.1896 -2.6590
 4746TIP3    H235874   0.394   4.221   8.221 -0.5692 -0.7557  0.0573
 4747TIP3   OH235875   0.347   2.407   7.648  0.1284  0.1616  0.0901
 4747TIP3    H135876   0.344   2.422   7.743  1.8292 -0.2164  0.2218
 4747TIP3    H235877   0.380   2.489   7.612 -0.5834  0.3291 -0.1952
 4748TIP3   OH235878   2.209   5.685   0.288  0.0836  0.2514 -0.2425
 4748TIP3    H135879   2.227   5.591   0.287  0.5639  0.3368 -1.0903
 4748TIP3    H235880   2.125   5.693   0.334 -1.7718 -0.9662 -3.0915
 4749TIP3   OH235881   1.766   6.246   2.581  0.2988  0.6577  0.6248
 4749TIP3    H135882   1.715   6.231   2.661  0.1146 -1.6212  0.1505
 4749TIP3    H235883   1.806   6.161   2.562  0.1745  1.0883 -1.8257
 4750TIP3   OH235884   6.630   2.528   2.307 -0.3305 -0.4470  0.3318
 4750TIP3    H135885   6.658   2.439   2.328  1.0992  0.1036  0.8182
 4750TIP3    H235886   6.699   2.585   2.341 -1.5901  0.9132  0.7283
 4751TIP3   OH235887   3.503   2.628   0.217 -0.2813 -0.2696 -0.1967
 4751TIP3    H135888   3.578   2.570   0.230 -0.4218 -0.8419 -1.7155
 4751TIP3    H235889   3.427   2.575   0.243 -0.1714  0.4465  1.7319
 4752TIP3   OH235890   1.295   5.772   0.969  0.2632  0.0706  0.8712
 4752TIP3    H135891   1.278   5.766   1.063 -0.8606  2.6813  0.9001
 4752TIP3    H235892   1.220   5.729   0.928  0.6036 -0.7969  1.1289
 4753TIP3   OH235893   5.594   0.671   0.674 -0.1223 -0.5704  0.1646
 4753TIP3    H135894   5.668   0.722   0.709  0.4106 -0.2173 -1.4277
 4753TIP3    H235895   5.600   0.586   0.719  0.6027 -0.1751  0.8379
 4754TIP3   OH235896   4.686   4.692   0.756  0.4771  0.0660 -0.1065
 4754TIP3    H135897   4.757   4.660   0.812  0.4228 -0.3874 -0.2928
 4754TIP3    H235898   4.607   4.681   0.808  0.4400 -0.2545 -0.2255
 4755TIP3   OH235899   4.445   0.678   3.562  0.7421 -0.1407  0.0490
 4755TIP3    H135900   4.510   0.637   3.505  0.0911  1.7761 -2.2243
 4755TIP3    H235901   4.403   0.604   3.607  3.0826 -1.5457  0.1087
 4756TIP3   OH235902   3.069   0.003   8.672 -0.2875  0.3750 -0.3432
 4756TIP3    H135903   2.990  -0.041   8.705  0.6731 -0.5268  0.8658
 4756TIP3    H235904   3.058   0.003   8.577 -1.3680 -0.4788 -0.2415
 4757TIP3   OH235905   2.606   3.822   3.726  0.5156 -0.7644  0.4666
 4757TIP3    H135906   2.534   3.805   3.665 -0.3428  0.0173  1.2354
 4757TIP3    H235907   2.682   3.784   3.683 -0.3406 -1.6116 -0.3751
 4758TIP3   OH235908   5.723   5.274   2.758 -0.6826  0.0494  0.3624
 4758TIP3    H135909   5.776   5.196   2.743  0.4911  0.7518  0.6763
 4758TIP3    H235910   5.636   5.241   2.779 -0.1001 -1.1856  0.9291
 4759TIP3   OH235911   0.933   3.786   0.179  0.0064  0.1079  0.2930
 4759TIP3    H135912   0.913   3.880   0.182 -1.9327 -0.2230 -0.8609
 4759TIP3    H235913   0.936   3.760   0.271 -1.5602  0.9049  0.6071
 4760TIP3   OH235914   3.524   0.281   2.802  0.1016 -0.1227  0.3709
 4760TIP3    H135915   3.544   0.229   2.881 -0.6651 -0.8311  0.1209
 4760TIP3    H235916   3.600   0.268   2.745  0.6049  0.2920  0.9355
 4761TIP3   OH235917   2.104   5.129   2.090 -0.3728  0.0207 -0.3059
 4761TIP3    H135918   2.139   5.088   2.170 -0.1808 -0.3753 -0.5882
 4761TIP3    H235919   2.182   5.154   2.040 -0.4544 -1.3089 -1.1672
 4762TIP3   OH235920   0.268   2.853   2.499 -0.4820  0.1837  0.1472
 4762TIP3    H135921   0.214   2.913   2.448 -1.1613  0.3998  1.0934
 4762TIP3    H235922   0.358   2.881   2.482 -0.7633  1.0829  0.0902
 4763TIP3   OH235923   3.568   2.444   8.285 -0.6885 -0.4454  0.1809
 4763TIP3    H135924   3.652   2.462   8.327  0.4375 -1.1534 -1.6208
 4763TIP3    H235925   3.503   2.451   8.355  0.9724 -0.8724  1.8287
 4764TIP3   OH235926   5.339   3.944   0.101  0.4938  0.5415  0.3239
 4764TIP3    H135927   5.391   3.893   0.163  1.2356 -0.2118 -0.8662
 4764TIP3    H235928   5.254   3.955   0.144  0.4560 -1.3291  0.8217
 4765TIP3   OH235929   3.783   3.740   1.590  0.2198 -0.3123 -0.1342
 4765TIP3    H135930   3.808   3.767   1.678  0.2774 -1.5451  0.2451
 4765TIP3    H235931   3.843   3.787   1.532  1.3968 -0.8747  0.5884
 4766TIP3   OH235932   1.311   6.731   3.257 -0.3622  0.8013  0.7887
 4766TIP3    H135933   1.233   6.686   3.290  0.5963  0.2424  2.3863
 4766TIP3    H235934   1.366   6.661   3.222 -1.2966  1.3514 -2.1255
 4767TIP3   OH235935   1.234   4.959   1.013 -0.7641  0.3859  0.1143
 4767TIP3    H135936   1.251   4.908   1.092  1.0617  0.9351  0.1130
 4767TIP3    H235937   1.258   4.901   0.940 -3.2863 -0.4480 -0.1471
 4768TIP3   OH235938   3.852   6.137   1.216 -0.0507  0.1871  0.3240
 4768TIP3    H135939   3.769   6.099   1.243  0.7866 -3.0999 -1.1947
 4768TIP3    H235940   3.844   6.150   1.122  1.3095 -0.7555  0.0427
 4769TIP3   OH235941   3.050   0.179   1.214  0.1583 -0.3700 -0.0028
 4769TIP3    H135942   3.105   0.189   1.137  0.6826 -3.3390 -0.1014
 4769TIP3    H235943   2.964   0.156   1.179 -0.8664  2.6066  0.2274
 4770TIP3   OH235944   6.618   6.207   2.429  0.8797  0.2107  0.6883
 4770TIP3    H135945   6.623   6.174   2.340  1.2903 -0.4210  0.9379
 4770TIP3    H235946   6.550   6.274   2.426  0.4580 -0.2342  0.0323
 4771TIP3   OH235947   3.746   5.384   8.718 -0.1725  0.5453 -0.6625
 4771TIP3    H135948   3.842   5.392   8.713  0.0397 -1.3234 -0.5166
 4771TIP3    H235949   3.716   5.399   8.628  0.2889  0.7840 -0.7819
 4772TIP3   OH235950   4.548   2.271   7.754  0.3613 -0.3262  0.0833
 4772TIP3    H135951   4.617   2.296   7.691  0.2380 -0.4741 -0.1142
 4772TIP3    H235952   4.536   2.177   7.739 -0.4793 -0.1357 -0.4750
 4773TIP3   OH235953   3.865   4.317   8.309  0.3839  0.0228  0.0270
 4773TIP3    H135954   3.898   4.243   8.258  5.4183  0.8512  1.5460
 4773TIP3    H235955   3.817   4.277   8.381  1.0070 -1.6683 -0.4545
 4774TIP3   OH235956   3.733   3.921   2.755 -0.2626  0.6232 -0.3771
 4774TIP3    H135957   3.742   3.835   2.796  0.0141  0.3325 -1.0317
 4774TIP3    H235958   3.817   3.964   2.771  0.7530 -0.3853 -2.6245
 4775TIP3   OH235959   0.329   0.944   1.493 -0.2151 -0.2316 -0.3551
 4775TIP3    H135960   0.238   0.923   1.474 -0.2366 -0.2118 -0.2763
 4775TIP3    H235961   0.379   0.905   1.421 -0.0993 -1.9260  0.5840
 4776TIP3   OH235962   0.788   6.477   1.736 -0.2956 -0.0185 -0.7567
 4776TIP3    H135963   0.791   6.560   1.783 -1.6216 -0.1806 -0.3223
 4776TIP3    H235964   0.723   6.491   1.667  0.7953 -0.1476 -1.8389
 4777TIP3   OH235965   3.243   2.098   8.406 -0.1917 -0.0963  0.0534
 4777TIP3    H135966   3.312   2.033   8.391 -1.0353 -0.4085 -3.1665
 4777TIP3    H235967   3.166   2.063   8.363 -1.6692  1.5013  1.2345
 4778TIP3   OH235968   1.946   1.825   0.368 -0.1573  0.1863  0.1580
 4778TIP3    H135969   1.972   1.852   0.456 -1.8170  0.8199  0.4841
 4778TIP3    H235970   1.870   1.878   0.348  0.1329 -0.0150 -1.6492
 4779TIP3   OH235971   5.672   3.658   3.679 -0.5230  0.7211 -0.1642
 4779TIP3    H135972   5.584   3.693   3.692 -1.3974 -2.2361  3.5920
 4779TIP3    H235973   5.709   3.651   3.767  2.0443 -1.4586 -1.2701
 4780TIP3   OH235974   3.978   0.008   3.209 -0.3392  0.0650  0.1797
 4780TIP3    H135975   4.058   0.009   3.262 -0.4938 -0.9947  0.4639
 4780TIP3    H235976   3.922   0.075   3.247  0.6504  1.2680 -0.4167
 4781TIP3   OH235977   1.919   1.574   0.911 -0.3195 -0.0785  0.1183
 4781TIP3    H135978   1.956   1.503   0.963 -0.8577 -0.5949 -0.1984
 4781TIP3    H235979   1.825   1.567   0.924 -0.3267  2.9944  3.2922
 4782TIP3   OH235980   5.460   5.925   2.593 -0.1304  0.1420  0.4854
 4782TIP3    H135981   5.474   5.831   2.601 -1.4769  0.0358  2.2544
 4782TIP3    H235982   5.407   5.948   2.669  1.4801  2.6226  0.9759
 4783TIP3   OH235983   3.980   3.137   3.034  0.6121 -0.0454 -0.0098
 4783TIP3    H135984   3.894   3.128   2.991 -0.1658 -1.3230  1.7279
 4783TIP3    H235985   4.031   3.063   3.001  0.5617 -0.1072  0.0505
 4784TIP3   OH235986   0.934   1.347   1.565  0.1901  0.1495 -0.2977
 4784TIP3    H135987   0.994   1.420   1.580 -0.1323  0.4488 -0.4781
 4784TIP3    H235988   0.911   1.317   1.653  0.3520  0.2393 -0.2245
 4785TIP3   OH235989   1.012   1.596   1.015 -0.1541 -0.1931 -0.8791
 4785TIP3    H135990   1.094   1.600   1.064 -0.3077  1.3203 -0.6860
 4785TIP3    H235991   0.963   1.524   1.055  0.6924 -0.4902 -0.3666
 4786TIP3   OH235992   5.504   3.183   2.490 -0.3543 -0.0266 -0.2066
 4786TIP3    H135993   5.459   3.136   2.560 -0.0650 -0.6149 -0.4099
 4786TIP3    H235994   5.487   3.276   2.508  0.2478 -0.1452  0.9920
 4787TIP3   OH235995   2.989   2.723   8.070  0.0388 -0.1539  0.4580
 4787TIP3    H135996   3.020   2.765   8.151  1.9086 -0.1312 -0.2330
 4787TIP3    H235997   2.976   2.632   8.095  0.1632 -0.0566  0.8969
 4788TIP3   OH235998   5.820   1.028   2.317 -0.0643 -0.1197  0.3852
 4788TIP3    H135999   5.904   0.983   2.311 -0.9757 -1.7601 -3.6238
 4788TIP3    H236000   5.767   0.971   2.374  0.9874  0.0538  1.5873
 4789TIP3   OH236001   2.759   1.683   2.790 -0.1932 -0.0725  0.1374
 4789TIP3    H136002   2.826   1.749   2.808 -1.4457  1.0875  0.8377
 4789TIP3    H236003   2.713   1.717   2.713  0.3990 -1.1645 -0.7092
 4790TIP3   OH236004   0.301   5.538   1.574  0.9614 -0.0501 -0.3109
 4790TIP3    H136005   0.352   5.461   1.551 -0.1613 -0.9965  0.2844
 4790TIP3    H236006   0.223   5.533   1.520 -0.3900 -0.8150  1.6105
 4791TIP3   OH236007   5.834   2.177   8.752 -0.0360 -0.3274 -0.0443
 4791TIP3    H136008   5.887   2.130   8.687 -0.6108 -2.7498  1.1175
 4791TIP3    H236009   5.747   2.137   8.745 -0.9278  1.4891  0.1620
 4792TIP3   OH236010   3.334   5.404   1.637  0.0530  0.5333 -0.7326
 4792TIP3    H136011   3.241   5.387   1.619  0.0330 -0.5398  0.2070
 4792TIP3    H236012   3.337   5.496   1.661 -0.5938  0.8548 -1.8224
 4793TIP3   OH236013   4.732   5.100   2.116  0.3889 -0.3272 -0.3691
 4793TIP3    H136014   4.817   5.144   2.113  0.8769 -1.1845  0.1380
 4793TIP3    H236015   4.754   5.007   2.109 -0.6712 -0.4654 -2.4464
 4794TIP3   OH236016   6.261   5.678   7.673 -0.3936  0.7283  0.4479
 4794TIP3    H136017   6.336   5.697   7.616 -1.1491  0.6286 -0.6254
 4794TIP3    H236018   6.260   5.583   7.681 -1.3757  0.5701 -0.9891
 4795TIP3   OH236019   4.812   2.561   1.248 -0.2926 -0.2042  0.1117
 4795TIP3    H136020   4.841   2.516   1.169  1.8930  0.9776  0.1501
 4795TIP3    H236021   4.880   2.541   1.313 -1.2521  0.0993  1.2521
 4796TIP3   OH236022   0.097   1.088   2.583  0.1143  0.4732  0.2803
 4796TIP3    H136023   0.101   1.178   2.615  3.0700  0.3496  0.5222
 4796TIP3    H236024   0.169   1.044   2.627  0.2787 -1.3682 -1.6779
 4797TIP3   OH236025   6.258   5.863   7.882 -0.0447 -0.0851 -0.2672
 4797TIP3    H136026   6.269   5.811   7.802  2.2119  1.6778 -1.2059
 4797TIP3    H236027   6.341   5.908   7.893 -1.3017  2.0006  1.4636
 4798TIP3   OH236028   0.843   1.909   9.010 -0.1868  0.5786 -0.0035
 4798TIP3    H136029   0.918   1.946   8.962 -0.3308 -0.4340 -1.0649
 4798TIP3    H236030   0.776   1.897   8.943 -0.2534 -1.2532  0.3446
 4799TIP3   OH236031   5.812   0.482   1.701 -0.1207 -0.5272 -0.7098
 4799TIP3    H136032   5.906   0.494   1.711 -0.3300 -0.1763  1.1395
 4799TIP3    H236033   5.798   0.388   1.711 -0.1265 -0.3840  0.8460
 4800TIP3   OH236034   0.395   3.103   8.470 -0.6862 -0.5825 -0.0258
 4800TIP3    H136035   0.462   3.155   8.514 -0.3011 -0.8682 -0.2751
 4800TIP3    H236036   0.319   3.160   8.467 -0.6503 -0.4839  0.8240
 4801TIP3   OH236037   6.566   0.815   1.021  0.1051 -0.3251  0.4448
 4801TIP3    H136038   6.531   0.727   1.005  0.8834 -0.8543  1.5496
 4801TIP3    H236039   6.658   0.809   0.996 -0.4745  1.0725 -2.4854
 4802TIP3   OH236040   0.981   6.492   1.494  0.0099 -0.5969  0.0331
 4802TIP3    H136041   1.008   6.410   1.535 -0.0169  0.4496  2.3017
 4802TIP3    H236042   0.893   6.508   1.528 -0.0960  0.2593 -0.5949
 4803TIP3   OH236043   0.964   2.470   1.364  0.4091  0.0112  0.0400
 4803TIP3    H136044   0.939   2.519   1.286 -1.9470 -0.9811  0.0940
 4803TIP3    H236045   0.990   2.384   1.332  0.0685 -0.1907  0.3084
 4804TIP3   OH236046   0.507   5.471   0.022 -0.3035  0.1439 -0.5523
 4804TIP3    H136047   0.587   5.448   0.070 -1.3832 -0.2897  1.1198
 4804TIP3    H236048   0.534   5.540  -0.038  1.3309 -0.0009 -0.0370
 4805TIP3   OH236049   1.034   6.730   2.784 -0.2824  0.1735  0.2026
 4805TIP3    H136050   1.076   6.711   2.868  2.2756 -0.3243 -1.0737
 4805TIP3    H236051   1.080   6.674   2.722 -1.6281  1.0343 -1.6628
 4806TIP3   OH236052   1.663   2.094   2.166  0.4172 -0.1005 -0.0817
 4806TIP3    H136053   1.691   2.186   2.176  1.1514 -0.4548  1.3791
 4806TIP3    H236054   1.744   2.048   2.143 -0.1331 -0.2602 -1.8143
 4807TIP3   OH236055   1.322   2.350   1.014 -0.3463 -0.0960  0.8291
 4807TIP3    H136056   1.295   2.407   0.943 -2.2149 -0.7299  0.9905
 4807TIP3    H236057   1.280   2.266   0.995  1.0730 -0.9803  1.4286
 4808TIP3   OH236058   6.608   5.372   0.082  0.2130 -0.1154  0.3572
 4808TIP3    H136059   6.591   5.355   0.174  0.5588  2.8642  1.0774
 4808TIP3    H236060   6.552   5.447   0.060  0.8530 -0.1240 -1.5745
 4809TIP3   OH236061   4.314   4.285   2.159 -0.0850 -0.4097  0.2258
 4809TIP3    H136062   4.302   4.243   2.244  0.0418  0.7639  0.8430
 4809TIP3    H236063   4.405   4.265   2.135  0.4542  0.7519  1.2246
 4810TIP3   OH236064   1.022   5.891   7.280 -0.0267 -0.5281  0.3198
 4810TIP3    H136065   1.107   5.918   7.245 -0.1244 -1.0389 -0.3248
 4810TIP3    H236066   0.960   5.952   7.242 -0.2409 -1.5972 -1.0958
 4811TIP3   OH236067   6.042   3.636   2.520 -0.2498 -0.1683 -0.5049
 4811TIP3    H136068   5.965   3.633   2.577  1.5947  0.4201  2.2776
 4811TIP3    H236069   6.063   3.544   2.502 -0.4798 -0.4104  0.4180
 4812TIP3   OH236070   2.594   3.419   0.302 -0.5189 -0.4547  0.3587
 4812TIP3    H136071   2.656   3.352   0.275  0.6402 -0.1689  2.1203
 4812TIP3    H236072   2.597   3.416   0.398 -3.4471 -0.6132  0.5259
 4813TIP3   OH236073   2.367   0.287   9.025  0.4588  0.3480  0.1291
 4813TIP3    H136074   2.444   0.342   9.013  1.8440 -1.3857  0.5699
 4813TIP3    H236075   2.386   0.237   9.105 -1.0229 -0.2969  0.1105
 4814TIP3   OH236076   2.723   5.435   7.126 -0.0126 -0.1743  0.4267
 4814TIP3    H136077   2.705   5.493   7.051 -1.2650 -2.1293 -0.8814
 4814TIP3    H236078   2.725   5.494   7.201  1.9025  1.9818 -1.1545
 4815TIP3   OH236079   5.126   0.458   8.087 -0.0714  0.0614 -0.0765
 4815TIP3    H136080   5.089   0.529   8.035  0.7148  1.9628  1.8266
 4815TIP3    H236081   5.067   0.449   8.162  0.0257 -1.0682 -0.1171
 4816TIP3   OH236082   5.794   1.333   2.452 -0.1898 -0.1174  0.6055
 4816TIP3    H136083   5.736   1.286   2.511  0.5045 -0.4267  1.0550
 4816TIP3    H236084   5.875   1.345   2.502  0.3381 -0.2004 -0.2111
 4817TIP3   OH236085   3.245   2.584   0.551  0.4078 -0.6656 -0.0627
 4817TIP3    H136086   3.320   2.621   0.598 -0.7061  0.7874  0.6441
 4817TIP3    H236087   3.283   2.512   0.500  1.7487 -2.3298  2.9580
 4818TIP3   OH236088   2.802   4.885   2.994 -0.3958 -0.3506  0.3852
 4818TIP3    H136089   2.738   4.885   3.065  0.0339 -0.1228  0.7778
 4818TIP3    H236090   2.749   4.883   2.914 -0.8785 -0.7378  0.7123
 4819TIP3   OH236091   4.504   1.533   3.268 -0.2658 -0.4195 -0.1053
 4819TIP3    H136092   4.594   1.564   3.254 -0.4820  0.2132 -0.1210
 4819TIP3    H236093   4.476   1.578   3.348 -0.8622  0.0396 -0.5712
 4820TIP3   OH236094   6.039   0.572   1.803  0.0918  0.1429  0.4406
 4820TIP3    H136095   5.983   0.637   1.844  0.3754  0.3376  0.5212
 4820TIP3    H236096   6.124   0.583   1.845  0.0565 -0.5079  0.7002
 4821TIP3   OH236097   6.208   4.230   8.513  0.5791  0.0313  0.2922
 4821TIP3    H136098   6.191   4.288   8.438  0.4968 -1.1800 -0.6569
 4821TIP3    H236099   6.128   4.235   8.565  0.3572  0.3607 -0.0723
 4822TIP3   OH236100   2.662   1.867   3.119 -0.7267  0.5713  0.1619
 4822TIP3    H136101   2.705   1.885   3.203  0.0130 -0.1899 -0.0335
 4822TIP3    H236102   2.730   1.880   3.054 -0.7139 -0.8314 -0.1423
 4823TIP3   OH236103   0.825   2.090   3.392 -0.1398  0.3367  0.4420
 4823TIP3    H136104   0.798   2.098   3.483 -0.1562  2.2757  0.3097
 4823TIP3    H236105   0.918   2.067   3.397  0.6806  3.2724  1.0812
 4824TIP3   OH236106   1.576   4.130   1.196 -0.0843  0.5803 -0.7386
 4824TIP3    H136107   1.570   4.205   1.256  3.1142  0.0180  0.4627
 4824TIP3    H236108   1.529   4.060   1.241 -0.1109  0.9223 -0.2246
 4825TIP3   OH236109   4.736   3.698   3.581  0.3803  0.5146  0.0628
 4825TIP3    H136110   4.762   3.778   3.627  1.5302 -0.2133  0.7252
 4825TIP3    H236111   4.641   3.699   3.582  0.3790  0.9854  1.6626
 4826TIP3   OH236112   4.003   2.658   1.447 -0.1282  0.1482 -0.1246
 4826TIP3    H136113   4.030   2.578   1.491  0.5102  0.0911 -0.6057
 4826TIP3    H236114   3.911   2.669   1.471 -0.8557 -1.8596 -1.6872
 4827TIP3   OH236115   5.536   1.510   2.770 -0.2980  0.0598 -0.1343
 4827TIP3    H136116   5.604   1.553   2.821 -0.7782  0.4363  0.1880
 4827TIP3    H236117   5.465   1.573   2.765 -0.1919  0.0911 -1.4185
 4828TIP3   OH236118   6.111   0.013   0.417 -0.4499  0.4085 -0.3157
 4828TIP3    H136119   6.113  -0.049   0.490 -0.5361  0.2188 -0.4751
 4828TIP3    H236120   6.086  -0.039   0.341 -2.6961  1.0255 -0.0613
 4829TIP3   OH236121   2.286   0.336   2.043 -0.0584  0.3560  0.4116
 4829TIP3    H136122   2.352   0.299   1.984  1.2846  1.2958  1.2582
 4829TIP3    H236123   2.208   0.283   2.029  0.9726 -1.0011 -0.3956
 4830TIP3   OH236124   6.261   1.822   1.072 -0.5596  0.1436 -0.3476
 4830TIP3    H136125   6.263   1.735   1.112 -1.2213  0.3170  0.0799
 4830TIP3    H236126   6.350   1.836   1.040  0.6971  0.8777  2.9888
 4831TIP3   OH236127   5.272   4.974   8.802 -0.3920  0.2287  0.2095
 4831TIP3    H136128   5.312   5.059   8.817 -0.5359  0.0226  1.8766
 4831TIP3    H236129   5.189   4.976   8.849 -0.3444 -0.8613  0.3795
 4832TIP3   OH236130   5.205   1.218   0.874 -0.1635  0.0847  0.1101
 4832TIP3    H136131   5.261   1.212   0.952 -1.6530 -0.0961  1.2150
 4832TIP3    H236132   5.221   1.306   0.840 -0.9882  0.9444  1.8389
 4833TIP3   OH236133   2.867   3.368   2.828 -0.2103  0.4746 -0.4534
 4833TIP3    H136134   2.858   3.279   2.794  2.1990 -0.0158 -0.0146
 4833TIP3    H236135   2.849   3.360   2.922 -1.1996  0.7116 -0.6139
 4834TIP3   OH236136   4.580   5.076   1.663  0.3207 -0.4630  0.4174
 4834TIP3    H136137   4.571   5.097   1.571  0.5752 -0.5076  0.3799
 4834TIP3    H236138   4.671   5.098   1.684  0.3322 -0.6768  0.5968
 4835TIP3   OH236139   4.933   4.346   2.633 -0.2870  0.6216 -0.1249
 4835TIP3    H136140   4.863   4.382   2.687  0.1977  1.0252  0.2503
 4835TIP3    H236141   4.903   4.358   2.543 -1.3893 -0.6457  0.0465
 4836TIP3   OH236142   6.270   5.843   2.354 -0.5153 -0.0375  0.0231
 4836TIP3    H136143   6.178   5.866   2.342 -0.3179  0.3767 -0.7648
 4836TIP3    H236144   6.295   5.801   2.272 -0.1028 -0.4937  0.3791
 4837TIP3   OH236145   4.178   1.163   9.062  0.6651  0.2653  0.4544
 4837TIP3    H136146   4.229   1.229   9.015  1.9699  0.2108  1.7279
 4837TIP3    H236147   4.213   1.079   9.032 -2.3858 -0.0990 -2.7688
 4838TIP3   OH236148   4.472   4.768   2.880  0.3734 -1.1641 -0.3670
 4838TIP3    H136149   4.473   4.864   2.879 -0.3812 -1.1353 -2.2202
 4838TIP3    H236150   4.494   4.745   2.970 -2.2588  0.7813  0.8984
 4839TIP3   OH236151   4.527   5.028   1.389 -0.3049  0.3951 -0.3847
 4839TIP3    H136152   4.435   5.003   1.402 -0.0963  0.0067  0.3820
 4839TIP3    H236153   4.563   4.962   1.331  0.3229 -1.3538  1.8586
 4840TIP3   OH236154   1.888   6.703   0.201  0.1057  0.7009  0.0751
 4840TIP3    H136155   1.860   6.693   0.292 -0.5536  0.2533 -0.1728
 4840TIP3    H236156   1.868   6.794   0.180  0.3595  0.8367  0.4084
 4841TIP3   OH236157   4.043   2.715   1.789 -0.7739 -0.4731  0.0420
 4841TIP3    H136158   4.100   2.786   1.818  1.6684 -2.8994  1.7736
 4841TIP3    H236159   4.080   2.686   1.706  0.4066 -1.7670  0.9569
 4842TIP3   OH236160   3.605   4.521   8.670 -0.4445  0.1576 -0.5889
 4842TIP3    H136161   3.699   4.524   8.690 -1.0471  1.5411  2.5748
 4842TIP3    H236162   3.577   4.435   8.700 -0.6321  0.7777  1.1072
 4843TIP3   OH236163   6.054   0.762   1.332  0.2371  0.0297  0.2790
 4843TIP3    H136164   6.051   0.669   1.311  0.3177  0.0618  0.1226
 4843TIP3    H236165   5.999   0.771   1.410  0.4505 -0.1940  0.4594
 4844TIP3   OH236166   0.881   4.775   8.888 -0.0227  0.2242 -0.2836
 4844TIP3    H136167   0.959   4.755   8.941 -0.0041 -1.2091 -0.8108
 4844TIP3    H236168   0.915   4.788   8.799 -0.2897  0.5843 -0.3359
 4845TIP3   OH236169   1.521   5.518   0.428  0.5962  1.0928 -0.4907
 4845TIP3    H136170   1.434   5.553   0.408 -0.7968 -1.3944  0.6653
 4845TIP3    H236171   1.556   5.578   0.494 -1.6211  0.5188  1.3448
 4846TIP3   OH236172   1.199   4.026   2.700  0.4658 -0.0694  0.0886
 4846TIP3    H136173   1.247   4.009   2.781 -0.7747  0.0143  0.8538
 4846TIP3    H236174   1.152   4.107   2.716  0.0621 -0.1501 -0.6517
 4847TIP3   OH236175   4.028   4.048   8.456  0.2514  0.2229  0.1764
 4847TIP3    H136176   3.943   4.004   8.451 -0.5321  1.7363 -0.3306
 4847TIP3    H236177   4.044   4.079   8.367  0.2992  1.7878  0.6929
 4848TIP3   OH236178   3.442   3.548   2.171 -0.4110  0.7696  0.5671
 4848TIP3    H136179   3.529   3.509   2.160 -1.0172 -0.2084 -1.1682
 4848TIP3    H236180   3.435   3.612   2.100 -1.3942  0.2198  0.1427
 4849TIP3   OH236181   5.039   4.372   8.576 -0.4982 -0.1498 -0.6446
 4849TIP3    H136182   5.121   4.417   8.557 -0.2194 -0.4310 -0.1458
 4849TIP3    H236183   5.028   4.310   8.504  1.2494 -2.1758  0.6972
 4850TIP3   OH236184   1.945   3.983   8.065 -0.6160  0.0330 -0.4645
 4850TIP3    H136185   1.968   3.892   8.046 -0.3142 -0.1558  0.7203
 4850TIP3    H236186   2.020   4.034   8.033 -0.2798 -0.2382 -0.1186
 4851TIP3   OH236187   2.772   5.779   8.051 -0.0913  0.5762  0.2041
 4851TIP3    H136188   2.805   5.754   7.964 -0.3580  1.4706 -0.1623
 4851TIP3    H236189   2.842   5.753   8.111  0.7468  1.2744 -0.4374
 4852TIP3   OH236190   2.032   1.606   2.602 -0.0357 -0.3326 -0.5626
 4852TIP3    H136191   2.079   1.530   2.568 -0.3021 -1.1329  0.8136
 4852TIP3    H236192   2.096   1.654   2.654  0.8151  1.7393 -3.2484
 4853TIP3   OH236193   6.311   4.520   3.416  0.3666 -0.3650  0.5235
 4853TIP3    H136194   6.349   4.596   3.371  0.4926  0.1587  1.4711
 4853TIP3    H236195   6.219   4.522   3.392  0.3478  0.1551  0.6215
 4854TIP3   OH236196   2.531   2.529   0.113 -0.1608 -0.2195 -0.6202
 4854TIP3    H136197   2.443   2.496   0.129  0.0947 -0.3477  0.6046
 4854TIP3    H236198   2.584   2.450   0.099 -0.0637 -0.1953 -0.3968
 4855TIP3   OH236199   6.084   1.334   2.025  0.0572 -0.3680  0.1470
 4855TIP3    H136200   6.136   1.372   2.096 -1.5821  2.3088  0.0141
 4855TIP3    H236201   6.017   1.282   2.070 -0.5190  0.7049  0.5437
 4856TIP3   OH236202   1.291   3.064   7.623  0.1386 -0.2190  0.4444
 4856TIP3    H136203   1.351   2.999   7.659  1.5763  1.5485  1.3601
 4856TIP3    H236204   1.204   3.025   7.634  0.9991 -2.4483 -0.0935
 4857TIP3   OH236205   3.312   6.240   2.801 -0.2294  0.6332  0.0391
 4857TIP3    H136206   3.366   6.268   2.727 -0.0374  0.0713 -0.0363
 4857TIP3    H236207   3.226   6.223   2.763 -0.6334  2.0863  0.2553
 4858TIP3   OH236208   5.144   1.132   2.883  0.0329  0.4754  0.0999
 4858TIP3    H136209   5.079   1.200   2.862  0.9798  1.5639  0.5511
 4858TIP3    H236210   5.228   1.178   2.879  0.6891 -0.6669  0.4928
 4859TIP3   OH236211   0.627   1.662   1.067 -0.4640  1.0117  0.4698
 4859TIP3    H136212   0.695   1.683   1.003  1.4314  0.4175  2.1774
 4859TIP3    H236213   0.603   1.572   1.047 -0.8118  1.2441 -0.1848
 4860TIP3   OH236214   4.200   5.528   0.714 -0.3126  0.6229 -0.0244
 4860TIP3    H136215   4.188   5.608   0.765  2.2400  1.5971 -0.7744
 4860TIP3    H236216   4.191   5.556   0.623 -0.3531 -0.1528 -0.2654
 4861TIP3   OH236217   1.335   6.009   9.019 -0.0366  0.3003  0.8239
 4861TIP3    H136218   1.309   6.005   9.111 -1.4609 -2.4543  0.4172
 4861TIP3    H236219   1.430   6.017   9.021  0.1779 -1.7556  2.6146
 4862TIP3   OH236220   0.307   3.220   2.780 -0.2622 -0.2740  0.2849
 4862TIP3    H136221   0.295   3.265   2.697  0.9536 -0.4511 -0.0079
 4862TIP3    H236222   0.219   3.211   2.816 -1.0064 -1.5594 -1.6994
 4863TIP3   OH236223   1.301   4.915   1.298  0.1957 -0.4594 -0.3309
 4863TIP3    H136224   1.361   4.983   1.331  1.5393 -1.2727 -1.0241
 4863TIP3    H236225   1.235   4.906   1.367  0.8605  0.4652  0.4566
 4864TIP3   OH236226   6.327   6.019   3.064  0.8593 -0.2596 -0.5260
 4864TIP3    H136227   6.369   5.942   3.026 -0.8646 -1.3725 -0.2449
 4864TIP3    H236228   6.268   5.985   3.130  0.5898  1.3708  0.1369
 4865TIP3   OH236229   2.459   2.038   2.471 -0.3752  0.0802  0.1456
 4865TIP3    H136230   2.517   2.101   2.513  1.0243 -1.8393  1.3058
 4865TIP3    H236231   2.426   1.984   2.543 -2.1939 -0.0324 -0.6996
 4866TIP3   OH236232   2.553   1.231   2.386 -0.2304  0.1149 -0.3115
 4866TIP3    H136233   2.489   1.295   2.354 -0.2145  0.7075  0.7978
 4866TIP3    H236234   2.601   1.278   2.455 -0.4211 -1.1851  0.7408
 4867TIP3   OH236235   3.560   2.481   8.911  0.6700  1.0106 -0.1820
 4867TIP3    H136236   3.507   2.552   8.875 -0.3833  0.4310  0.1523
 4867TIP3    H236237   3.542   2.406   8.854  1.5634  0.9407 -0.3799
 4868TIP3   OH236238   2.167   1.672   0.454 -0.8706 -0.2915  0.8738
 4868TIP3    H136239   2.121   1.667   0.538 -0.4444 -0.4705  1.0987
 4868TIP3    H236240   2.117   1.736   0.404 -0.9565  0.0415  1.3736
 4869TIP3   OH236241   3.702   0.466   2.472  0.4492 -0.4043  0.1408
 4869TIP3    H136242   3.636   0.397   2.470 -2.4904  2.1849 -0.8691
 4869TIP3    H236243   3.738   0.468   2.383 -1.0329  0.6504 -0.4757
 4870TIP3   OH236244   3.112   2.080   1.770  0.1766 -0.5010  0.1005
 4870TIP3    H136245   3.024   2.056   1.739 -0.2898  0.0235  0.9823
 4870TIP3    H236246   3.162   1.999   1.763  0.1313 -0.3906 -2.0763
 4871TIP3   OH236247   5.921   5.129   1.854  0.0624  0.0937  0.0633
 4871TIP3    H136248   5.986   5.060   1.842 -0.1656 -0.3050  1.0452
 4871TIP3    H236249   5.971   5.204   1.885  0.3914  0.5708 -1.5217
 4872TIP3   OH236250   5.301   0.138   7.960 -0.0842  0.5564 -0.1682
 4872TIP3    H136251   5.220   0.100   7.925  0.4484  0.7173 -1.6128
 4872TIP3    H236252   5.283   0.148   8.054 -1.3258 -0.4574 -0.2626
 4873TIP3   OH236253   6.167   3.124   8.351 -0.4901 -0.1158  0.5391
 4873TIP3    H136254   6.144   3.066   8.423  0.5316  2.5206  3.2152
 4873TIP3    H236255   6.084   3.139   8.306 -1.3825 -1.1185  1.7426
 4874TIP3   OH236256   4.552   3.419   0.992 -0.2808 -0.7678 -0.2613
 4874TIP3    H136257   4.531   3.378   1.076  2.0599 -0.1520  0.7178
 4874TIP3    H236258   4.599   3.352   0.943  0.3756 -0.4370 -0.1081
 4875TIP3   OH236259   5.031   2.964   0.903 -0.4275  0.1299  0.1844
 4875TIP3    H136260   5.092   3.028   0.866 -1.2872  0.9876  0.1955
 4875TIP3    H236261   4.980   3.014   0.967 -0.9488 -0.6363  0.3878
 4876TIP3   OH236262   0.251   0.371   2.558  0.0898 -0.0625 -0.2137
 4876TIP3    H136263   0.235   0.414   2.473  1.1408  1.5879  0.3682
 4876TIP3    H236264   0.182   0.305   2.565  0.8672 -1.3255 -3.0158
 4877TIP3   OH236265   5.888   1.436   0.825 -0.1077 -0.4862  0.1275
 4877TIP3    H136266   5.982   1.440   0.846  0.2143  0.4405 -1.3780
 4877TIP3    H236267   5.882   1.371   0.755 -0.4945 -0.0088 -0.2857
 4878TIP3   OH236268   3.855   1.928   8.780  0.3898 -0.1759  0.4342
 4878TIP3    H136269   3.848   1.956   8.871 -1.8266 -0.6731  0.4647
 4878TIP3    H236270   3.889   2.005   8.734  0.8232  0.3245  1.5581
 4879TIP3   OH236271   0.442   4.766   0.712 -0.0879 -0.6720 -0.4572
 4879TIP3    H136272   0.406   4.705   0.777 -1.7048 -1.1918 -1.7564
 4879TIP3    H236273   0.479   4.709   0.644  0.4704 -0.1722 -0.5700
 4880TIP3   OH236274   5.792   3.668   2.676 -0.5025 -0.6588  0.1088
 4880TIP3    H136275   5.797   3.763   2.662 -0.9615 -0.6719 -0.1565
 4880TIP3    H236276   5.703   3.644   2.649 -0.2406 -1.2391 -0.2677
 4881TIP3   OH236277   2.821   3.057   8.381 -0.2613 -0.9891 -0.3944
 4881TIP3    H136278   2.766   3.109   8.439  0.3911  0.9304 -1.3923
 4881TIP3    H236279   2.781   3.069   8.294 -0.2024 -2.3599 -0.6344
 4882TIP3   OH236280   2.708   5.990   3.524  0.2024  0.2715 -0.8942
 4882TIP3    H136281   2.629   5.961   3.479  0.9877  0.3180 -2.3969
 4882TIP3    H236282   2.778   5.938   3.484  0.9774  0.4465  0.1863
 4883TIP3   OH236283   4.834   3.795   0.393  0.4332  0.4651 -0.3016
 4883TIP3    H136284   4.806   3.884   0.413  0.8295  0.5038  0.0959
 4883TIP3    H236285   4.884   3.767   0.470  0.6792  0.0573 -0.6010
 4884TIP3   OH236286   5.195   1.830   8.882 -0.1418  1.0583 -0.0107
 4884TIP3    H136287   5.122   1.837   8.943 -0.0333 -0.8699  0.4029
 4884TIP3    H236288   5.167   1.765   8.818  0.9121  0.8528 -0.2779
 4885TIP3   OH236289   3.037   4.028   0.741 -0.1124 -0.5721 -0.1966
 4885TIP3    H136290   2.948   4.065   0.737  0.4792  0.9931  0.3515
 4885TIP3    H236291   3.082   4.064   0.665  0.2800 -0.7708 -0.0630
 4886TIP3   OH236292   2.986   3.621   1.425  0.1469 -0.7336  0.2214
 4886TIP3    H136293   3.038   3.586   1.353 -0.3575 -2.9813  0.8582
 4886TIP3    H236294   3.050   3.641   1.494  0.3201 -2.3591  0.5650
 4887TIP3   OH236295   5.648   6.297   1.715  0.1962 -0.1131 -0.5458
 4887TIP3    H136296   5.560   6.277   1.683  0.1497  0.8848 -1.0986
 4887TIP3    H236297   5.638   6.307   1.810 -0.1631 -0.5876 -0.5315
 4888TIP3   OH236298   2.404   6.283   0.723 -0.8539 -0.4912  0.2873
 4888TIP3    H136299   2.370   6.342   0.790 -1.2384  0.7337 -0.9302
 4888TIP3    H236300   2.422   6.340   0.648 -0.4934 -1.8176 -0.6742
 4889TIP3   OH236301   2.094   1.041   1.730 -0.3552  0.7482  1.0744
 4889TIP3    H136302   2.140   1.124   1.720  0.0353  0.4027 -0.2136
 4889TIP3    H236303   2.146   0.979   1.680 -2.2440  0.3764 -0.5404
 4890TIP3   OH236304   2.716   1.102   1.870 -0.4364  0.5416 -0.2462
 4890TIP3    H136305   2.768   1.182   1.858 -0.4908  0.5397 -0.4981
 4890TIP3    H236306   2.771   1.032   1.836  0.7660  0.0684  2.4080
 4891TIP3   OH236307   1.760   6.399   2.326 -0.0660  0.0460  0.6981
 4891TIP3    H136308   1.695   6.337   2.292  1.2206 -0.2434 -1.4141
 4891TIP3    H236309   1.796   6.355   2.403  0.8879 -1.9786 -0.8125
 4892TIP3   OH236310   5.287   3.391   1.743  0.1573 -0.6324  0.3318
 4892TIP3    H136311   5.260   3.324   1.806 -0.2137 -0.4876  0.3310
 4892TIP3    H236312   5.218   3.457   1.748  0.2523 -0.5039 -0.0507
 4893TIP3   OH236313   4.393   6.606   1.864 -0.5605 -0.2721  0.4462
 4893TIP3    H136314   4.316   6.643   1.820  0.2028  0.6271 -0.1912
 4893TIP3    H236315   4.466   6.623   1.803  0.3964  0.2866  1.6865
 4894TIP3   OH236316   5.198   2.256   3.096  0.0528  0.2461 -0.0534
 4894TIP3    H136317   5.214   2.220   3.183  2.0126 -3.1986 -1.6075
 4894TIP3    H236318   5.285   2.283   3.065 -0.7568  2.3782 -0.6509
 4895TIP3   OH236319   4.333   2.744   7.974 -0.6546 -0.4413 -0.0873
 4895TIP3    H136320   4.428   2.755   7.970 -0.0311 -2.6920  3.5392
 4895TIP3    H236321   4.318   2.657   7.936 -1.1018 -0.5136  0.2463
 4896TIP3   OH236322   0.321   5.498   0.720 -0.2985 -0.4382 -0.3467
 4896TIP3    H136323   0.306   5.591   0.732 -1.6110 -0.5062 -1.2347
 4896TIP3    H236324   0.376   5.472   0.794 -0.7275  0.8400  0.4379
 4897TIP3   OH236325   3.296   2.649   1.665 -0.0734  1.0604 -0.3889
 4897TIP3    H136326   3.380   2.694   1.650  0.0936  0.8949  0.0402
 4897TIP3    H236327   3.246   2.666   1.585  0.7666  0.2605 -1.1076
 4898TIP3   OH236328   4.240   5.697   8.255  0.2249  0.2489  0.4934
 4898TIP3    H136329   4.228   5.665   8.165 -0.6063  1.7455  0.0428
 4898TIP3    H236330   4.307   5.764   8.247  0.5393  0.0128  1.0976
 4899TIP3   OH236331   2.520   0.277   2.612  0.4013 -0.3609  0.0557
 4899TIP3    H136332   2.443   0.252   2.663 -1.5138  0.2332 -2.3546
 4899TIP3    H236333   2.554   0.195   2.578 -0.7155 -0.4615 -0.8800
 4900TIP3   OH236334   0.558   3.083   2.694  0.3469  0.4411 -1.1930
 4900TIP3    H136335   0.483   3.140   2.714 -0.6352 -0.1596 -2.9460
 4900TIP3    H236336   0.630   3.144   2.678  0.9911  1.0145  2.7425
 4901TIP3   OH236337   2.124   4.605   8.980 -0.1944 -0.8942 -0.3085
 4901TIP3    H136338   2.183   4.635   8.911 -1.6890 -0.2079 -1.3635
 4901TIP3    H236339   2.055   4.672   8.984 -2.3458 -2.8938 -1.0680
 4902TIP3   OH236340   0.976   4.914   7.811  0.4972  0.5081  0.3871
 4902TIP3    H136341   0.970   4.945   7.721  1.0597  0.3918  0.3032
 4902TIP3    H236342   0.975   4.993   7.865  1.0277  0.6255  0.2276
 4903TIP3   OH236343   3.244   0.192   8.372 -0.0447  0.8647 -0.4475
 4903TIP3    H136344   3.258   0.274   8.420  0.0846 -0.1164  1.3036
 4903TIP3    H236345   3.323   0.181   8.319 -0.4104  2.2377 -1.3255
 4904TIP3   OH236346   5.053   0.122   8.760 -0.0014 -0.2471  0.3790
 4904TIP3    H136347   5.127   0.140   8.818 -0.2975 -0.6146  0.8811
 4904TIP3    H236348   4.981   0.101   8.819 -0.6959  0.7601 -0.0828
 4905TIP3   OH236349   1.692   3.763   1.342 -0.0518 -0.4341  0.3331
 4905TIP3    H136350   1.629   3.834   1.327 -0.2936 -0.5480  0.7892
 4905TIP3    H236351   1.742   3.791   1.419  0.7314 -0.1594 -0.2536
 4906TIP3   OH236352   5.106   2.962   2.621 -0.7037 -0.2520 -0.0139
 4906TIP3    H136353   5.104   3.011   2.539 -1.1657  0.5077  0.4378
 4906TIP3    H236354   5.075   2.875   2.598 -2.1587  0.3432 -0.4092
 4907TIP3   OH236355   2.961   5.177   0.897 -0.0238 -0.1225 -0.0165
 4907TIP3    H136356   3.045   5.222   0.903  0.0223 -0.0466 -1.1476
 4907TIP3    H236357   2.947   5.164   0.803 -0.9098 -0.8227  0.2002
 4908TIP3   OH236358   5.719   3.714   1.834 -0.2600 -0.0688  0.2083
 4908TIP3    H136359   5.772   3.677   1.763 -0.9497 -2.3996  0.7986
 4908TIP3    H236360   5.631   3.722   1.796  0.1609  2.5915 -0.3852
 4909TIP3   OH236361   0.023   0.075   1.527  0.2385  0.4508  0.2729
 4909TIP3    H136362   0.088   0.092   1.459  0.8946  0.0560  0.7904
 4909TIP3    H236363  -0.027   0.000   1.495  2.1761 -1.3749  1.3199
 4910TIP3   OH236364   0.292   0.790   7.924  0.0580  0.0824  0.7136
 4910TIP3    H136365   0.234   0.865   7.910  1.3068  0.7925 -1.0673
 4910TIP3    H236366   0.266   0.754   8.009 -1.3690  1.8043  1.0540
 4911TIP3   OH236367   1.700   2.854   8.069 -0.2262 -0.0539 -0.0748
 4911TIP3    H136368   1.689   2.760   8.083 -2.5040 -0.0210 -1.2388
 4911TIP3    H236369   1.697   2.865   7.974 -1.1053  1.2887  0.0812
 4912TIP3   OH236370   6.326   5.999   0.566  0.1908 -0.2745  0.2207
 4912TIP3    H136371   6.349   5.968   0.654 -0.0897  0.2147  0.4677
 4912TIP3    H236372   6.303   5.919   0.518  0.3993 -0.5515  0.5732
 4913TIP3   OH236373   6.646   4.000   8.818 -0.4105 -0.2391  0.0220
 4913TIP3    H136374   6.713   3.936   8.795 -0.8288 -0.4410 -0.6469
 4913TIP3    H236375   6.689   4.056   8.883  0.6737  0.1036 -0.9364
 4914TIP3   OH236376   0.651   5.490   1.420 -0.3577 -0.3111  0.2375
 4914TIP3    H136377   0.590   5.498   1.494  0.9376  0.1062  1.2984
 4914TIP3    H236378   0.737   5.510   1.457  0.2796  0.3799 -1.4927
 4915TIP3   OH236379   4.870   2.003   1.014 -0.4673  0.4432  0.7326
 4915TIP3    H136380   4.912   1.984   1.099 -1.4543 -3.0054  0.5905
 4915TIP3    H236381   4.928   1.963   0.950 -0.8878  1.0733 -0.0579
 4916TIP3   OH236382   4.831   0.603   0.501 -0.3669 -0.1753  0.2909
 4916TIP3    H136383   4.908   0.555   0.468  0.3403  0.0150  1.5981
 4916TIP3    H236384   4.842   0.691   0.465  0.5241  0.0963  1.1741
 4917TIP3   OH236385   0.805   5.735   0.875  0.5320 -0.2494  0.1777
 4917TIP3    H136386   0.769   5.824   0.871  2.1407  0.3913 -1.3590
 4917TIP3    H236387   0.737   5.680   0.836 -0.5121  0.2642  1.2004
 4918TIP3   OH236388   5.039   4.825   0.882 -0.6508 -0.0141  0.4288
 4918TIP3    H136389   5.088   4.888   0.829 -1.0553 -0.8293 -0.9431
 4918TIP3    H236390   5.097   4.749   0.889 -1.0333 -0.3317  0.2155
 4919TIP3   OH236391   6.718   3.561   8.446 -0.5386 -0.2854  0.3686
 4919TIP3    H136392   6.759   3.642   8.479 -0.7041 -0.1735  0.3006
 4919TIP3    H236393   6.718   3.571   8.351 -0.2723 -0.5067  0.3455
 4920TIP3   OH236394   5.214   2.338   2.282  0.0092 -0.2376 -0.0285
 4920TIP3    H136395   5.240   2.286   2.206 -0.2230  0.5183 -0.6357
 4920TIP3    H236396   5.189   2.273   2.348 -3.4966 -0.9654 -1.8190
 4921TIP3   OH236397   0.104   0.401   8.289  0.0850 -0.1964  0.0698
 4921TIP3    H136398   0.061   0.434   8.210  0.9715 -0.7515 -0.6619
 4921TIP3    H236399   0.084   0.307   8.289 -1.0035  0.0032  1.2265
 4922TIP3   OH236400   3.831   0.133   1.278  0.1103 -0.7074 -0.1767
 4922TIP3    H136401   3.922   0.151   1.298 -0.0093 -0.8491  0.5271
 4922TIP3    H236402   3.785   0.146   1.361 -0.4554 -0.9911 -0.4377
 4923TIP3   OH236403   4.080   3.215   8.744  0.4720  0.1349  0.5723
 4923TIP3    H136404   4.108   3.139   8.795  0.6417 -1.5323 -1.8301
 4923TIP3    H236405   4.159   3.247   8.701  0.0882  0.5055  0.1183
 4924TIP3   OH236406   2.023   3.887   9.019  0.1462  0.1637  0.0354
 4924TIP3    H136407   2.074   3.841   9.086 -0.3612  2.1420  1.8595
 4924TIP3    H236408   1.935   3.892   9.054 -0.2335  0.8968 -0.9703
 4925TIP3   OH236409   6.691   4.011   2.211  0.3240  0.0321 -0.4975
 4925TIP3    H136410   6.777   3.988   2.176  0.5935  1.2477 -0.6869
 4925TIP3    H236411   6.695   3.987   2.303  1.1909  0.8589 -0.2979
 4926TIP3   OH236412   3.813   3.532   2.496 -0.0062  0.2583 -0.1695
 4926TIP3    H136413   3.840   3.515   2.586 -2.0375 -1.2001  0.2391
 4926TIP3    H236414   3.768   3.616   2.500 -0.0798  0.2027  0.1795
 4927TIP3   OH236415   5.226   0.377   2.464 -0.5312  0.1303  0.1549
 4927TIP3    H136416   5.253   0.290   2.436 -0.1903  0.5285 -0.8142
 4927TIP3    H236417   5.220   0.372   2.559  0.4418 -0.6834  0.1798
 4928TIP3   OH236418   6.546   6.015   2.872  0.0409  0.5714 -0.5401
 4928TIP3    H136419   6.593   6.036   2.792 -1.0372 -2.1709 -2.0211
 4928TIP3    H236420   6.454   6.035   2.852 -0.1836  0.2587  0.1377
 4929TIP3   OH236421   3.735   2.155   2.078 -0.3139 -0.3293 -0.1356
 4929TIP3    H136422   3.658   2.211   2.087  1.1036  1.5076  1.6635
 4929TIP3    H236423   3.803   2.199   2.129  1.8569 -2.0529 -1.3325
 4930TIP3   OH236424   4.181   4.131   1.278  0.1225 -0.1149 -0.4173
 4930TIP3    H136425   4.220   4.219   1.274 -0.1118 -0.0199 -0.6239
 4930TIP3    H236426   4.089   4.147   1.300  0.7463 -0.4675  3.0100
 4931TIP3   OH236427   4.675   0.110   8.147  0.0376  0.3930 -0.1820
 4931TIP3    H136428   4.742   0.051   8.180 -1.1313 -0.9040 -0.0595
 4931TIP3    H236429   4.715   0.152   8.071  1.1358 -0.0096  0.1614
 4932TIP3   OH236430   0.285   1.181   2.015  0.3052  0.0491 -0.4283
 4932TIP3    H136431   0.202   1.157   2.056 -0.5095  1.6173 -1.0884
 4932TIP3    H236432   0.262   1.250   1.953  2.1179  0.5504 -0.5898
 4933TIP3   OH236433   0.393   1.330   2.472  0.2184  0.0522 -0.0103
 4933TIP3    H136434   0.330   1.402   2.467  2.5628  2.2005 -2.2379
 4933TIP3    H236435   0.419   1.327   2.564 -1.8578  0.2136  0.6218
 4934TIP3   OH236436   5.662   5.197   7.776  0.1152 -0.3783 -0.7828
 4934TIP3    H136437   5.670   5.102   7.766  0.7107 -0.6900  1.8541
 4934TIP3    H236438   5.627   5.208   7.865 -1.3358  1.8619 -1.5400
 4935TIP3   OH236439   0.105   5.079   1.534 -0.2495 -0.2865  0.4886
 4935TIP3    H136440   0.079   5.054   1.622  0.0067  0.5757  0.8122
 4935TIP3    H236441   0.063   5.014   1.477 -1.0506 -0.3827  1.1835
 4936TIP3   OH236442   6.307   1.971   2.227  0.0481 -0.4728  0.4745
 4936TIP3    H136443   6.358   1.963   2.308  0.0706  1.5551  0.7154
 4936TIP3    H236444   6.360   2.027   2.171 -1.0456  0.0868 -0.0194
 4937TIP3   OH236445   4.517   6.341   0.588 -0.2512 -0.4093  0.0255
 4937TIP3    H136446   4.560   6.256   0.590  1.0866  0.2320 -0.3803
 4937TIP3    H236447   4.568   6.393   0.525 -0.7657  0.8319  0.5872
 4938TIP3   OH236448   1.522   0.531   0.588  0.1564 -0.1315  0.3246
 4938TIP3    H136449   1.603   0.492   0.621 -0.2212 -0.4050  0.9409
 4938TIP3    H236450   1.506   0.487   0.505  0.2563 -0.5915  0.5474
 4939TIP3   OH236451   3.221   4.118   8.941 -0.2550  0.0010  0.0002
 4939TIP3    H136452   3.248   4.198   8.987 -0.6157  0.3446 -0.3684
 4939TIP3    H236453   3.219   4.051   9.009 -0.9854  0.5442  0.5396
 4940TIP3   OH236454   0.721   6.602   8.287 -0.2613  0.9809  0.5813
 4940TIP3    H136455   0.713   6.695   8.266 -1.5825  0.4211 -1.7980
 4940TIP3    H236456   0.786   6.570   8.224 -0.4626  0.1429  0.7967
 4941TIP3   OH236457   1.682   2.101   0.913 -0.1292 -0.4268  0.7887
 4941TIP3    H136458   1.709   2.040   0.982  0.5813  1.1015  1.9170
 4941TIP3    H236459   1.763   2.126   0.869  0.2979  2.8028  3.0286
 4942TIP3   OH236460   3.861   2.306   1.660  0.0482 -0.2958 -0.1910
 4942TIP3    H136461   3.811   2.386   1.676  0.5344 -0.0245 -0.0108
 4942TIP3    H236462   3.939   2.336   1.613  0.7529 -0.5244  0.8156
 4943TIP3   OH236463   5.284   5.909   0.457  0.5914  0.6834 -0.6741
 4943TIP3    H136464   5.325   5.946   0.536 -1.2563 -0.2152  0.8017
 4943TIP3    H236465   5.327   5.825   0.444 -0.4899 -0.1182  0.6792
 4944TIP3   OH236466   3.357   4.963   1.332 -0.2573  0.2053  0.0891
 4944TIP3    H136467   3.441   4.917   1.323 -1.1185 -1.2856 -0.9433
 4944TIP3    H236468   3.353   4.990   1.423  0.5942 -1.2471  0.5847
 4945TIP3   OH236469   0.126   1.415   7.276  0.6648 -0.4155  0.0322
 4945TIP3    H136470   0.124   1.328   7.235 -0.6541 -0.3721 -0.0583
 4945TIP3    H236471   0.141   1.475   7.204 -2.2231 -0.2903 -0.5955
 4946TIP3   OH236472   0.198   4.146   3.006  0.5310  0.5510  0.2734
 4946TIP3    H136473   0.205   4.132   2.912  2.5636 -0.0789  0.4911
 4946TIP3    H236474   0.162   4.235   3.014 -2.2229 -0.3433 -1.0479
 4947TIP3   OH236475   2.926   0.546   2.796  0.2667  0.1457  0.2216
 4947TIP3    H136476   2.869   0.621   2.813  0.6681  0.3565  0.6789
 4947TIP3    H236477   2.890   0.475   2.850 -0.3557 -0.1229 -0.5206
 4948TIP3   OH236478   5.335   2.699   0.699 -0.7478 -0.1160  0.1469
 4948TIP3    H136479   5.250   2.689   0.656 -1.3935 -0.1577  1.3951
 4948TIP3    H236480   5.346   2.793   0.708 -1.0998 -0.1349  0.8151
 4949TIP3   OH236481   4.682   6.600   0.158 -0.8618 -0.2434 -0.2796
 4949TIP3    H136482   4.655   6.691   0.149 -0.9780 -0.0695  1.4705
 4949TIP3    H236483   4.763   6.594   0.108 -0.2028  1.1472  0.5592
 4950TIP3   OH236484   4.152   0.694   0.759 -0.6891 -0.0511 -0.0068
 4950TIP3    H136485   4.117   0.605   0.753  0.3848 -0.6200  1.4852
 4950TIP3    H236486   4.234   0.684   0.806 -0.7794  1.7973  0.6206
 4951TIP3   OH236487   3.486   3.859   8.965  0.6128 -0.1315  0.6693
 4951TIP3    H136488   3.537   3.897   9.036 -0.4163  0.7107  0.9859
 4951TIP3    H236489   3.518   3.769   8.956  2.2146  0.4097  0.7686
 4952TIP3   OH236490   6.490   3.317   1.884  0.1266  0.2645  0.8141
 4952TIP3    H136491   6.453   3.403   1.900  1.2670  0.9434 -0.0468
 4952TIP3    H236492   6.422   3.270   1.836 -0.8396  0.3567  2.0228
 4953TIP3   OH236493   1.268   1.743   0.854  0.5645  0.4947 -0.3224
 4953TIP3    H136494   1.268   1.738   0.949  0.5099  0.4626 -0.3242
 4953TIP3    H236495   1.305   1.660   0.825  0.4920  0.4659 -0.3316
 4954TIP3   OH236496   1.301   5.797   8.501  0.2228  0.1182 -0.3342
 4954TIP3    H136497   1.230   5.747   8.539 -0.0732  0.5974 -0.2459
 4954TIP3    H236498   1.368   5.800   8.569 -0.4872  1.3574  0.3409
 4955TIP3   OH236499   1.735   3.100   1.579  0.1053 -0.1466 -0.1989
 4955TIP3    H136500   1.780   3.028   1.534  0.6077 -0.6665  1.0967
 4955TIP3    H236501   1.698   3.153   1.508  0.9109 -0.9116 -1.2191
 4956TIP3   OH236502   0.403   0.982   3.529  0.3904 -0.0749  0.4695
 4956TIP3    H136503   0.334   0.916   3.540 -0.0855  0.2962 -0.1589
 4956TIP3    H236504   0.484   0.937   3.550  0.2658 -1.3476 -1.5002
 4957TIP3   OH236505   1.557   3.657   1.576 -0.3823  0.1966  0.2926
 4957TIP3    H136506   1.586   3.630   1.489  0.8733 -1.1229  1.0774
 4957TIP3    H236507   1.498   3.587   1.605 -1.8294  1.2501  0.0339
 4958TIP3   OH236508   2.646   2.052   2.224 -0.3105  0.2759 -0.0744
 4958TIP3    H136509   2.659   2.112   2.298  0.4412  1.5829 -1.2290
 4958TIP3    H236510   2.709   1.982   2.239 -1.5195 -0.5413  1.5402
 4959TIP3   OH236511   2.159   5.188   7.326  0.1795 -0.3887 -0.5485
 4959TIP3    H136512   2.163   5.124   7.254  1.7271  1.1353 -1.9194
 4959TIP3    H236513   2.175   5.136   7.405 -3.7723 -2.5141 -0.8779
 4960TIP3   OH236514   4.230   0.950   0.516 -0.3666  0.0244 -0.2732
 4960TIP3    H136515   4.254   0.913   0.431  0.1360 -0.0753 -0.0874
 4960TIP3    H236516   4.137   0.972   0.507 -0.3632 -0.1655 -0.7831
 4961TIP3   OH236517   3.956   4.240   8.675 -0.0431  0.1815 -0.0964
 4961TIP3    H136518   3.956   4.144   8.672 -0.4108  0.0139  2.5759
 4961TIP3    H236519   3.869   4.265   8.647  0.1941 -0.2107 -1.2377
 4962TIP3   OH236520   2.507   0.696   2.446  0.2022  0.0678 -0.1719
 4962TIP3    H136521   2.436   0.638   2.418  0.1063 -0.0416  0.2944
 4962TIP3    H236522   2.528   0.747   2.368 -1.4270  1.1822  0.0872
 4963TIP3   OH236523   2.736   4.017   0.201  0.7651 -0.5168 -0.3903
 4963TIP3    H136524   2.707   3.936   0.244 -0.7162  0.7816  1.2207
 4963TIP3    H236525   2.711   4.007   0.110  0.4974 -1.8131 -0.1922
 4964TIP3   OH236526   4.762   6.161   7.892 -0.0168  0.0149 -0.2332
 4964TIP3    H136527   4.841   6.171   7.944 -0.9385 -0.7880  1.4143
 4964TIP3    H236528   4.772   6.224   7.821  1.2000  1.3704  1.0549
 4965TIP3   OH236529   1.381   3.606   0.596 -0.3673  0.6725  0.0904
 4965TIP3    H136530   1.392   3.550   0.673 -0.9901  2.3965  1.4943
 4965TIP3    H236531   1.287   3.603   0.578 -0.3611  1.0431 -0.0071
 4966TIP3   OH236532   5.840   5.841   8.478  0.4029  0.1067  0.3242
 4966TIP3    H136533   5.873   5.797   8.400  0.8459 -0.2503  0.7076
 4966TIP3    H236534   5.885   5.798   8.551  0.2948  0.7066  0.7518
 4967TIP3   OH236535   6.520   5.180   7.988  0.8827  0.1806  0.1080
 4967TIP3    H136536   6.452   5.117   7.965 -0.4368  0.5541  2.6347
 4967TIP3    H236537   6.602   5.130   7.979  0.2601 -0.5739 -1.9879
 4968TIP3   OH236538   2.044   6.022   1.314  0.3196  0.0952 -0.0777
 4968TIP3    H136539   1.979   6.075   1.361 -0.4656  0.1935 -1.2363
 4968TIP3    H236540   1.992   5.961   1.263  1.1650 -0.1482 -0.6601
 4969TIP3   OH236541   0.981   4.989   0.512 -0.4733  0.0516  0.2532
 4969TIP3    H136542   1.059   4.942   0.539 -1.3990 -1.4414  0.4384
 4969TIP3    H236543   0.991   5.076   0.550  1.2797  0.0326 -0.1047
 4970TIP3   OH236544   0.135   5.644   2.023 -0.1425 -0.3020 -0.2675
 4970TIP3    H136545   0.122   5.738   2.016 -0.4448 -0.4020 -1.2818
 4970TIP3    H236546   0.131   5.613   1.932  0.4692 -1.2208  0.0096
 4971TIP3   OH236547   3.556   5.559   8.925  0.1390 -0.1109 -0.3054
 4971TIP3    H136548   3.632   5.525   8.878 -0.1955 -2.3864  0.7102
 4971TIP3    H236549   3.557   5.514   9.009 -2.8332 -0.9382 -0.6079
 4972TIP3   OH236550   1.596   1.044   8.954  0.0869  0.6380 -0.3965
 4972TIP3    H136551   1.574   0.971   8.896  0.5051  0.0797  0.1397
 4972TIP3    H236552   1.565   1.122   8.908 -0.8783  0.0740 -0.7220
 4973TIP3   OH236553   3.498   1.848   0.406 -0.6110 -0.1130  0.3038
 4973TIP3    H136554   3.448   1.923   0.375  0.1111 -0.5458 -2.1812
 4973TIP3    H236555   3.438   1.774   0.397 -0.0612 -0.4126 -1.3160
 4974TIP3   OH236556   6.728   1.780   0.951  0.5924  0.3210 -0.1708
 4974TIP3    H136557   6.717   1.821   0.865  1.0667 -0.1155 -0.4468
 4974TIP3    H236558   6.754   1.690   0.931 -1.4863 -0.4715  0.3946
 4975TIP3   OH236559   1.397   6.307   0.956  0.1193  0.4552 -0.0594
 4975TIP3    H136560   1.315   6.266   0.984 -0.5960  1.8287 -0.0922
 4975TIP3    H236561   1.451   6.308   1.035  0.3905 -1.0604 -0.1928
 4976TIP3   OH236562   1.167   2.135   0.941 -0.3204 -0.4310 -0.1600
 4976TIP3    H136563   1.188   2.093   0.858  4.6563  1.0885  0.0362
 4976TIP3    H236564   1.196   2.072   1.008 -1.3137 -0.3314  0.3867
 4977TIP3   OH236565   4.609   3.794   0.249  0.2374 -0.6169  0.1013
 4977TIP3    H136566   4.571   3.707   0.259 -1.8556  0.4667  3.6674
 4977TIP3    H236567   4.680   3.797   0.314  1.4573 -0.1655 -1.2015
 4978TIP3   OH236568   2.462   1.949   0.399 -0.0723  0.4668 -0.0490
 4978TIP3    H136569   2.406   2.026   0.407 -1.0123 -0.2538  0.4208
 4978TIP3    H236570   2.544   1.974   0.442 -0.2564  1.2996 -0.1660
 4979TIP3   OH236571   4.540   2.957   0.849  0.4911 -0.2376 -0.1946
 4979TIP3    H136572   4.546   2.886   0.912 -3.3821 -1.7662 -1.3068
 4979TIP3    H236573   4.618   2.945   0.793  1.6150 -1.5596  1.5367
 4980TIP3   OH236574   1.043   0.095   8.736 -0.3639 -0.0283 -0.2572
 4980TIP3    H136575   1.096   0.025   8.774  0.7738  0.6384 -0.5657
 4980TIP3    H236576   1.055   0.085   8.642 -0.4528  0.3785 -0.3104
 4981TIP3   OH236577   3.721   0.022   2.236  0.3139 -0.1271  0.2041
 4981TIP3    H136578   3.808   0.046   2.268  0.6883  0.2769 -1.0654
 4981TIP3    H236579   3.678  -0.017   2.312  1.5863 -0.3064  0.8671
 4982TIP3   OH236580   2.488   3.787   2.518 -0.1738 -0.0826  0.3132
 4982TIP3    H136581   2.432   3.864   2.527 -1.4399 -1.0380  0.7967
 4982TIP3    H236582   2.495   3.773   2.424  3.9318  3.3116 -0.1935
 4983TIP3   OH236583   1.170   6.109   2.353 -0.1084 -0.1791 -0.2757
 4983TIP3    H136584   1.184   6.019   2.383 -3.2413 -0.8825 -0.5107
 4983TIP3    H236585   1.165   6.102   2.258 -0.8464  0.1455 -0.2685
 4984TIP3   OH236586   2.225   3.390   0.793  0.3474  0.2152  0.3453
 4984TIP3    H136587   2.139   3.347   0.799  0.8546 -1.7700 -3.5936
 4984TIP3    H236588   2.205   3.479   0.766 -0.6581 -1.2060 -4.4310
 4985TIP3   OH236589   5.617   1.453   0.913 -0.0227  0.1789  0.0908
 4985TIP3    H136590   5.583   1.370   0.877 -1.0445  0.3658  0.5815
 4985TIP3    H236591   5.709   1.455   0.886 -0.0395 -1.0144 -0.1168
 4986TIP3   OH236592   4.428   4.255   8.697  1.0739  0.6760  0.2623
 4986TIP3    H136593   4.487   4.306   8.643  0.1454  0.3006 -1.1649
 4986TIP3    H236594   4.342   4.295   8.683  0.4779 -0.6843 -0.1789
 4987TIP3   OH236595   6.148   5.794   2.612 -0.4223 -0.1507 -0.1437
 4987TIP3    H136596   6.186   5.803   2.525  1.1981  2.6305  0.7316
 4987TIP3    H236597   6.060   5.760   2.596 -0.0652 -0.0470 -2.8062
 4988TIP3   OH236598   3.148   6.292   0.491 -0.3020  0.3496 -0.2203
 4988TIP3    H136599   3.112   6.212   0.452  0.6552  0.3299 -1.1095
 4988TIP3    H236600   3.209   6.325   0.425  0.6135  0.8769  0.8604
 4989TIP3   OH236601   0.772   0.473   8.768  0.2810 -0.1382  0.3410
 4989TIP3    H136602   0.816   0.420   8.835  1.5581 -1.4098 -1.4153
 4989TIP3    H236603   0.837   0.539   8.743 -1.0910  2.0215  2.0815
 4990TIP3   OH236604   5.779   3.256   7.353  0.8788 -0.2576  0.4052
 4990TIP3    H136605   5.685   3.269   7.341  0.9453 -1.0944 -1.4014
 4990TIP3    H236606   5.785   3.180   7.411  0.4069 -0.9265 -0.3959
 4991TIP3   OH236607   3.017   3.958   3.232  0.1279  0.0398  0.0843
 4991TIP3    H136608   3.100   3.998   3.257  1.2146 -1.3115 -1.1011
 4991TIP3    H236609   2.985   3.916   3.312  0.5284  0.6604  0.5788
 4992TIP3   OH236610   1.211   4.109   8.323  0.1365 -0.2394  0.0696
 4992TIP3    H136611   1.290   4.129   8.272 -0.3323  1.6556  0.0108
 4992TIP3    H236612   1.164   4.045   8.269 -0.0159  1.1950 -1.5998
 4993TIP3   OH236613   0.649   0.578   2.798 -0.3894  0.3936 -0.0310
 4993TIP3    H136614   0.563   0.542   2.777 -0.2725 -0.0834  0.2997
 4993TIP3    H236615   0.658   0.565   2.893  0.5667 -0.6946 -0.2558
 4994TIP3   OH236616   2.470   6.143   2.795 -0.3747 -0.4910 -0.1329
 4994TIP3    H136617   2.433   6.087   2.727 -0.1938  0.9204 -1.4414
 4994TIP3    H236618   2.420   6.121   2.874 -1.7696 -0.9435 -1.1106
 4995TIP3   OH236619   1.682   5.442   2.078 -0.6423  0.1732 -0.6537
 4995TIP3    H136620   1.716   5.522   2.118  0.9936 -0.6360 -0.3571
 4995TIP3    H236621   1.657   5.469   1.989 -0.1192  1.0228 -0.5549
 4996TIP3   OH236622   4.612   5.537   0.298  0.6444 -0.1538  0.0956
 4996TIP3    H136623   4.606   5.450   0.260 -1.5312 -0.7148  1.5384
 4996TIP3    H236624   4.607   5.597   0.224  0.9519 -1.2240 -0.8095
 4997TIP3   OH236625   1.430   4.739   0.225  0.0673  0.4439  0.2263
 4997TIP3    H136626   1.407   4.822   0.184 -2.0500 -0.4394 -0.4943
 4997TIP3    H236627   1.382   4.739   0.308  0.2939  0.0476  0.3606
 4998TIP3   OH236628   5.451   4.761   8.813 -0.0866  0.0705 -0.1905
 4998TIP3    H136629   5.380   4.823   8.795 -0.6641 -0.9654 -1.6772
 4998TIP3    H236630   5.500   4.756   8.732  1.0161 -0.1077  0.4688
 4999TIP3   OH236631   0.559   2.406   0.412 -0.4491  0.5610 -0.1914
 4999TIP3    H136632   0.523   2.328   0.370  0.1242  1.0532 -1.6659
 4999TIP3    H236633   0.649   2.412   0.379 -0.9906  2.7479 -1.4832
 5000TIP3   OH236634   0.782   0.455   1.763 -0.1054  0.1249 -0.4034
 5000TIP3    H136635   0.797   0.498   1.679  0.2234  2.5848  0.8270
 5000TIP3    H236636   0.788   0.361   1.743  0.3256  0.6267 -3.0268
 5001TIP3   OH236637   3.413   3.025   1.868 -0.3716 -0.0005 -0.1491
 5001TIP3    H136638   3.427   3.070   1.784  0.1755  0.1637  0.0228
 5001TIP3    H236639   3.378   3.093   1.926 -0.1451  0.0452 -0.0660
 5002TIP3   OH236640   3.031   3.872   2.366 -0.5743 -0.8179  0.5111
 5002TIP3    H136641   3.100   3.894   2.304  1.1207  0.0703  2.6104
 5002TIP3    H236642   3.041   3.779   2.383 -0.0482 -0.7391  0.6272
 5003TIP3   OH236643   5.714   2.224   1.760  0.1740 -0.4891  0.1375
 5003TIP3    H136644   5.692   2.295   1.821 -0.8540  0.5635 -1.3798
 5003TIP3    H236645   5.630   2.194   1.727  0.7183 -0.6540 -1.1523
 5004TIP3   OH236646   1.208   3.928   0.635  0.4187  0.5707  0.2613
 5004TIP3    H136647   1.291   3.963   0.667  0.7346 -0.3802  0.5424
 5004TIP3    H236648   1.168   3.888   0.713  0.0363  0.3869 -0.0260
 5005TIP3   OH236649   6.425   6.319   0.104  0.1993 -0.1684  0.1952
 5005TIP3    H136650   6.379   6.325   0.187  0.4908  0.8968  0.2834
 5005TIP3    H236651   6.406   6.400   0.059  2.3345  0.5373  0.4307
 5006TIP3   OH236652   6.158   0.565   3.101  0.8259 -0.0074 -0.5189
 5006TIP3    H136653   6.096   0.636   3.086  1.2419  0.5318  0.2409
 5006TIP3    H236654   6.103   0.490   3.123  0.4414  0.7875  1.4847
 5007TIP3   OH236655   1.497   5.047   1.412 -0.3483 -0.1817 -0.5925
 5007TIP3    H136656   1.486   5.043   1.507 -1.2781  1.9338 -0.5416
 5007TIP3    H236657   1.590   5.066   1.400  0.1561 -2.1993 -0.2321
 5008TIP3   OH236658   5.817   6.435   1.468 -0.7077 -0.0921  0.2221
 5008TIP3    H136659   5.753   6.492   1.427  0.5706  0.6074 -0.8971
 5008TIP3    H236660   5.792   6.346   1.440 -2.6675 -0.1539  1.9270
 5009TIP3   OH236661   0.899   2.979   2.609 -0.0584  0.3094  0.4368
 5009TIP3    H136662   0.897   2.995   2.704 -0.1179  1.2247  0.2885
 5009TIP3    H236663   0.807   2.981   2.583  0.0781  3.6038 -0.1807
 5010TIP3   OH236664   1.883   4.972   0.197 -0.2361 -0.6547  0.0359
 5010TIP3    H136665   1.802   4.976   0.247 -0.2197  2.8384 -0.0013
 5010TIP3    H236666   1.912   5.063   0.190  2.0279 -1.4486 -2.6888
 5011TIP3   OH236667   1.764   5.096   1.430  0.3570 -0.0348  0.4125
 5011TIP3    H136668   1.814   5.120   1.509 -0.4335  0.4217  0.7868
 5011TIP3    H236669   1.778   5.170   1.370  3.0317 -1.4833 -0.9246
 5012TIP3   OH236670   2.492   2.756   0.888  0.0211  0.3171 -0.7729
 5012TIP3    H136671   2.555   2.733   0.820  0.6935  0.8160 -0.3248
 5012TIP3    H236672   2.442   2.829   0.850  1.6188  1.8407 -0.0577
 5013TIP3   OH236673   3.543   5.602   1.548  0.1256  0.2185  0.7865
 5013TIP3    H136674   3.463   5.651   1.568  0.5545  1.1635  0.2466
 5013TIP3    H236675   3.597   5.664   1.499  1.5663 -0.1223  1.9028
 5014TIP3   OH236676   1.683   3.977   8.769 -0.2726  0.6498 -0.6521
 5014TIP3    H136677   1.614   3.930   8.722  1.1801  1.3253 -3.7045
 5014TIP3    H236678   1.696   3.927   8.849 -1.4869 -1.8736 -1.9207
 5015TIP3   OH236679   5.807   2.284   7.812  0.2361 -0.1067  0.0844
 5015TIP3    H136680   5.874   2.313   7.751  1.3806 -2.4323  0.1073
 5015TIP3    H236681   5.821   2.190   7.820 -1.6811 -0.3289  1.7707
 5016TIP3   OH236682   3.879   2.212   2.547  0.0597  1.1883 -0.1712
 5016TIP3    H136683   3.908   2.212   2.456 -1.2077  1.1082 -0.5805
 5016TIP3    H236684   3.926   2.286   2.587  0.8373  1.0493 -0.8077
 5017TIP3   OH236685   4.446   3.732   9.043 -0.6713 -0.1335  0.3346
 5017TIP3    H136686   4.512   3.798   9.067 -0.3162  0.3379 -1.7913
 5017TIP3    H236687   4.451   3.668   9.114  1.9915 -0.0382  0.3561
 5018TIP3   OH236688   2.465   4.954   1.373 -0.0386  0.3862  0.6799
 5018TIP3    H136689   2.515   4.943   1.292 -0.1316 -0.5103  0.7312
 5018TIP3    H236690   2.513   5.021   1.422 -0.9133  2.1916 -0.8311
 5019TIP3   OH236691   5.328   6.219   8.060 -0.6459  0.4036  0.2993
 5019TIP3    H136692   5.372   6.304   8.057  0.8871 -0.3792 -1.4760
 5019TIP3    H236693   5.376   6.169   8.127  0.5356 -0.0669 -0.8464
 5020TIP3   OH236694   2.066   3.050   1.799 -0.4834  0.4882  0.0662
 5020TIP3    H136695   1.987   3.002   1.822  0.3825 -0.3709  1.3566
 5020TIP3    H236696   2.115   2.991   1.741 -0.3244  0.6180  0.0651
 5021TIP3   OH236697   1.741   3.790   0.998 -0.5245  0.4061 -0.0444
 5021TIP3    H136698   1.752   3.885   1.001  1.6994  0.1984  0.2051
 5021TIP3    H236699   1.759   3.761   1.088  1.6457 -0.4425 -0.6905
 5022TIP3   OH236700   5.085   2.224   0.212 -0.0993  0.5048  0.3362
 5022TIP3    H136701   5.175   2.203   0.238  0.9853  1.8572 -2.0274
 5022TIP3    H236702   5.078   2.319   0.225 -1.6404  0.2728  1.5986
 5023TIP3   OH236703   4.639   3.299   2.111 -0.4954  0.1824 -0.2328
 5023TIP3    H136704   4.580   3.249   2.168 -1.5857  1.5643 -0.0804
 5023TIP3    H236705   4.676   3.365   2.169  0.9916 -0.4610 -0.4108
 5024TIP3   OH236706   5.839   1.228   2.712  0.1842 -0.1693 -0.7058
 5024TIP3    H136707   5.812   1.303   2.765 -0.3737 -0.0134 -1.2042
 5024TIP3    H236708   5.773   1.161   2.729 -0.3130  0.0760 -1.6223
 5025TIP3   OH236709   2.948   0.593   8.134  0.1959 -0.9573  0.2439
 5025TIP3    H136710   3.020   0.610   8.194  1.0779 -3.3515 -0.0407
 5025TIP3    H236711   2.889   0.535   8.183 -2.0548  1.5910  0.7716
 5026TIP3   OH236712   2.704   1.479   0.215  0.3179 -0.0091 -0.3427
 5026TIP3    H136713   2.713   1.486   0.120  0.2182  1.3232 -0.2747
 5026TIP3    H236714   2.641   1.546   0.238  2.0933  1.3271  0.9137
 5027TIP3   OH236715   2.486   4.867   0.456  0.1406  0.6370 -0.2745
 5027TIP3    H136716   2.452   4.956   0.447 -0.0838  0.6820  0.9524
 5027TIP3    H236717   2.526   4.848   0.371  1.1980  2.3254 -0.1783
 5028TIP3   OH236718   4.343   3.115   2.169  0.1992 -0.3137  0.1331
 5028TIP3    H136719   4.385   3.099   2.253  1.4101  0.1110 -0.3544
 5028TIP3    H236720   4.289   3.038   2.154  2.3842 -1.9126 -0.1033
 5029TIP3   OH236721   0.710   1.679   2.474 -0.4474  0.6256 -0.1147
 5029TIP3    H136722   0.669   1.641   2.552  1.3607 -0.8878  0.1799
 5029TIP3    H236723   0.712   1.773   2.491  1.8332  0.2080  2.7690
 5030TIP3   OH236724   5.970   5.768   1.063 -0.3231 -0.3160 -0.0561
 5030TIP3    H136725   5.997   5.786   1.153 -0.1863 -0.3496 -0.0905
 5030TIP3    H236726   5.875   5.757   1.068 -0.2834 -0.5897  0.1276
 5031TIP3   OH236727   2.007   4.726   8.622  0.0368  0.1905  0.1643
 5031TIP3    H136728   1.921   4.745   8.583 -0.6445  0.5008  1.7448
 5031TIP3    H236729   2.002   4.633   8.646  0.6233 -0.1198 -0.8576
 5032TIP3   OH236730   6.136   4.637   3.115  0.1689  0.3188  0.6253
 5032TIP3    H136731   6.054   4.591   3.132 -0.4815  1.7593  1.6213
 5032TIP3    H236732   6.116   4.729   3.132  1.9519  0.7327  0.6994
 5033TIP3   OH236733   0.257   1.877   1.533 -0.0746  0.3886  0.4670
 5033TIP3    H136734   0.311   1.880   1.455  0.6583  0.5038  0.9750
 5033TIP3    H236735   0.259   1.786   1.561 -3.0658 -0.4567 -1.5027
 5034TIP3   OH236736   1.785   6.129   1.317 -0.1269 -0.3572  0.7294
 5034TIP3    H136737   1.691   6.114   1.301 -0.1502 -0.0566  0.5795
 5034TIP3    H236738   1.819   6.160   1.234  0.0673 -0.2729  0.8407
 5035TIP3   OH236739   6.012   6.050   2.367 -0.0563 -0.7875  0.0162
 5035TIP3    H136740   5.933   6.091   2.332 -0.6728 -1.0303  1.0890
 5035TIP3    H236741   6.060   6.121   2.408  0.1845 -0.6809 -0.4395
 5036TIP3   OH236742   1.653   0.611   3.218 -0.3290 -0.2919 -0.1549
 5036TIP3    H136743   1.741   0.637   3.245 -0.3952  0.0895 -0.2942
 5036TIP3    H236744   1.598   0.685   3.243 -0.3976  0.0571 -1.2886
 5037TIP3   OH236745   1.467   2.614   0.819 -0.0007 -0.6551 -0.2934
 5037TIP3    H136746   1.382   2.618   0.774 -0.6835  0.3175  1.0116
 5037TIP3    H236747   1.530   2.641   0.753 -0.7853 -0.7524 -1.1070
 5038TIP3   OH236748   1.114   1.679   2.800 -0.0679 -0.0615  0.4859
 5038TIP3    H136749   1.091   1.586   2.798  0.5467 -0.2087 -0.0463
 5038TIP3    H236750   1.076   1.712   2.882 -0.6225 -0.6903  0.4888
 5039TIP3   OH236751   1.144   6.008   8.104 -0.0903 -0.3266  0.3758
 5039TIP3    H136752   1.220   5.966   8.145  0.0281  2.9799  4.1172
 5039TIP3    H236753   1.175   6.036   8.018  2.7939  0.2932  1.5133
 5040TIP3   OH236754   3.424   2.173   1.831 -0.0056  0.1237 -0.3732
 5040TIP3    H136755   3.396   2.110   1.898 -1.5272  1.6953  0.5598
 5040TIP3    H236756   3.353   2.237   1.827  1.2255  1.4949 -1.6564
 5041TIP3   OH236757   4.832   3.774   1.897  0.3879  0.2480  0.5028
 5041TIP3    H136758   4.837   3.770   1.801 -1.5712  0.7568  0.3374
 5041TIP3    H236759   4.774   3.702   1.921  0.0028  0.7838  1.2049
 5042TIP3   OH236760   5.882   3.938   1.854 -0.7242  0.2259  0.0848
 5042TIP3    H136761   5.804   3.993   1.863 -0.6209  0.1436  1.7617
 5042TIP3    H236762   5.857   3.854   1.892 -0.3318 -0.3584 -0.9000
 5043TIP3   OH236763   5.708   1.274   8.319  0.3628  0.1980 -0.0774
 5043TIP3    H136764   5.799   1.245   8.329  0.5534  1.0485  0.9110
 5043TIP3    H236765   5.715   1.366   8.294 -0.2282  0.2129 -0.2008
 5044TIP3   OH236766   0.488   1.003   2.011 -0.1364  0.2394  0.3189
 5044TIP3    H136767   0.421   1.071   2.003 -0.1857  0.0478 -0.9979
 5044TIP3    H236768   0.531   1.023   2.095 -0.7979  1.2906  0.4368
 5045TIP3   OH236769   1.807   2.019   3.066 -0.3188 -0.3629  0.6238
 5045TIP3    H136770   1.785   2.019   2.973  1.6798 -0.0132  0.0960
 5045TIP3    H236771   1.726   1.995   3.111 -1.1518 -1.1810 -1.2426
 5046TIP3   OH236772   2.713   0.342   2.278 -0.3421 -0.4090 -0.0302
 5046TIP3    H136773   2.740   0.393   2.355 -0.3047 -0.0451 -0.2843
 5046TIP3    H236774   2.647   0.396   2.236 -1.4891 -1.2885  0.5867
 5047TIP3   OH236775   6.033   4.001   2.092 -0.2500  0.3176  0.1799
 5047TIP3    H136776   6.010   3.988   2.000 -1.3330 -0.5267  0.5513
 5047TIP3    H236777   6.129   4.004   2.092 -0.1213 -1.7273 -0.7533
 5048TIP3   OH236778   2.321   3.305   1.564  0.3459  0.1371 -0.4131
 5048TIP3    H136779   2.274   3.309   1.647  0.0462 -0.0745 -0.5741
 5048TIP3    H236780   2.411   3.283   1.588  0.2668  0.1127 -0.1424
 5049TIP3   OH236781   0.332   5.331   2.366  0.7257  0.4126 -0.4336
 5049TIP3    H136782   0.404   5.279   2.330  0.9310  1.4432 -1.5748
 5049TIP3    H236783   0.289   5.368   2.289  1.3261  2.8935  0.3574
 5050TIP3   OH236784   2.698   0.791   0.206  0.4026  0.8807  0.0842
 5050TIP3    H136785   2.757   0.770   0.279  0.0336 -1.2198 -0.1876
 5050TIP3    H236786   2.649   0.868   0.237  0.7107  0.4283  1.7832
 5051TIP3   OH236787   1.680   4.584   8.738 -0.0804 -0.2890 -0.4609
 5051TIP3    H136788   1.738   4.612   8.809  1.1756  1.1047 -1.9504
 5051TIP3    H236789   1.600   4.555   8.783  1.6898 -2.2684  1.6582
 5052TIP3   OH236790   3.930   1.440   8.015 -0.1387 -0.2539  0.0350
 5052TIP3    H136791   3.987   1.373   7.979  0.4941  0.2161  0.1305
 5052TIP3    H236792   3.860   1.450   7.951  0.4799 -0.0688 -0.6203
 5053TIP3   OH236793   1.689   4.482   0.978  0.9335 -0.0180  0.3485
 5053TIP3    H136794   1.693   4.546   0.908  4.4575  1.0819  1.3334
 5053TIP3    H236795   1.779   4.449   0.986 -0.1447 -3.0717  1.7440
 5054TIP3   OH236796   2.945   0.585   8.619 -0.0563  0.5929 -0.4191
 5054TIP3    H136797   2.963   0.667   8.664 -0.9701  0.8265 -0.4511
 5054TIP3    H236798   2.958   0.604   8.526 -3.2250  1.6351 -0.7800
 5055TIP3   OH236799   1.205   5.087   2.340  0.8006  0.1950 -0.3042
 5055TIP3    H136800   1.151   5.037   2.280  1.3285  0.1636 -0.7635
 5055TIP3    H236801   1.197   5.041   2.424  1.0585 -0.5054 -0.6556
 5056TIP3   OH236802   4.534   6.435   2.261 -0.5546 -0.9614  0.4744
 5056TIP3    H136803   4.571   6.352   2.232  0.1761  0.0051 -1.5428
 5056TIP3    H236804   4.469   6.458   2.195  0.5184  0.8833 -0.0404
 5057TIP3   OH236805   1.003   4.737   1.490 -0.5970  0.0902 -0.4372
 5057TIP3    H136806   0.918   4.708   1.523 -0.5820  1.3828  0.8717
 5057TIP3    H236807   0.985   4.769   1.401 -1.2098 -0.8522 -0.6612
 5058TIP3   OH236808   5.780   2.428   9.002  0.3205 -0.3782  0.1083
 5058TIP3    H136809   5.875   2.416   8.996  0.8824  3.3277 -0.6059
 5058TIP3    H236810   5.749   2.421   8.911 -0.3115 -2.4222  0.4262
 5059TIP3   OH236811   1.297   3.723   2.041  0.2955  0.4138  0.9075
 5059TIP3    H136812   1.283   3.660   1.970  0.2124 -0.6468  1.8490
 5059TIP3    H236813   1.226   3.706   2.103  1.2018  0.3330  1.9557
 5060TIP3   OH236814   5.837   2.876   0.440 -0.3058  0.0689 -0.3647
 5060TIP3    H136815   5.850   2.948   0.379  0.8296 -1.0375 -1.4800
 5060TIP3    H236816   5.918   2.872   0.491 -0.3595 -0.3960 -0.3084
 5061TIP3   OH236817   2.669   5.885   0.645  0.8508 -0.2300 -0.7025
 5061TIP3    H136818   2.690   5.948   0.576  1.5606  0.6415  0.2698
 5061TIP3    H236819   2.595   5.925   0.691 -1.0456 -1.8188 -2.2142
 5062TIP3   OH236820   3.059   5.539   0.022  0.0038 -0.0682 -0.4457
 5062TIP3    H136821   3.047   5.633   0.031 -1.5715 -0.2215 -0.8128
 5062TIP3    H236822   3.010   5.501   0.095 -0.9040 -0.6718 -1.3371
 5063TIP3   OH236823   3.192   1.131   3.266 -0.0040  0.3240  0.7320
 5063TIP3    H136824   3.133   1.129   3.342 -0.5834 -1.4274  0.2760
 5063TIP3    H236825   3.184   1.044   3.227  1.4335  0.6951 -0.4766
 5064TIP3   OH236826   5.350   4.879   2.289  0.1074 -0.2587 -0.0370
 5064TIP3    H136827   5.400   4.817   2.340  2.7425  2.4744  1.0032
 5064TIP3    H236828   5.284   4.914   2.350 -0.6551 -1.1788 -0.3103
 5065TIP3   OH236829   6.561   4.143   0.429  0.0956  0.3140  0.0161
 5065TIP3    H136830   6.481   4.150   0.480 -0.0493  1.6277 -0.3735
 5065TIP3    H236831   6.535   4.160   0.339  0.5746 -0.7089 -0.3356
 5066TIP3   OH236832   0.094   5.735   1.351 -0.0743  0.4284 -0.1487
 5066TIP3    H136833   0.019   5.726   1.410 -1.7158  1.4613 -1.9580
 5066TIP3    H236834   0.133   5.819   1.374 -0.1589  0.4133  0.0510
 5067TIP3   OH236835   0.724   4.959   0.113  0.2003 -0.6354  0.4644
 5067TIP3    H136836   0.679   5.027   0.164 -0.3415 -0.1206 -0.6672
 5067TIP3    H236837   0.717   4.989   0.022  1.8906 -1.1085  0.1568
 5068TIP3   OH236838   3.881   4.950   1.177  0.7456 -0.2868  0.0178
 5068TIP3    H136839   3.968   4.990   1.168  0.5160  0.3522  0.5681
 5068TIP3    H236840   3.897   4.865   1.217  1.0857 -0.0115  0.4706
 5069TIP3   OH236841   5.407   5.093   1.625  0.3802 -0.4341 -0.4171
 5069TIP3    H136842   5.496   5.069   1.651  0.1413 -1.2417 -0.3405
 5069TIP3    H236843   5.405   5.080   1.530  1.4385  3.0966 -1.0774
 5070TIP3   OH236844   0.773   1.986   2.332  0.4241  0.3250 -0.4054
 5070TIP3    H136845   0.756   2.041   2.409 -0.2162  1.1993 -1.1410
 5070TIP3    H236846   0.846   1.931   2.358  0.4860  0.8847  0.6917
 5071TIP3   OH236847   4.586   1.378   0.001 -0.1300 -0.0171  0.0255
 5071TIP3    H136848   4.637   1.458   0.017  0.0281 -0.2328  0.6065
 5071TIP3    H236849   4.495   1.408  -0.001 -0.0704  0.1799  0.2349
 5072TIP3   OH236850   0.677   2.311   1.406  0.1149  0.6337 -0.1317
 5072TIP3    H136851   0.615   2.242   1.382  1.0235  0.7829 -3.3351
 5072TIP3    H236852   0.626   2.372   1.460 -1.9293 -0.2988 -0.9212
 5073TIP3   OH236853   4.643   5.006   2.613  0.4035  0.8359  0.0852
 5073TIP3    H136854   4.697   5.007   2.693  1.2725 -1.9924 -0.3359
 5073TIP3    H236855   4.700   4.967   2.547 -1.2380  0.4104 -1.1296
 5074TIP3   OH236856   2.631   4.789   0.121 -0.0533  0.0125  0.4048
 5074TIP3    H136857   2.610   4.741   0.041 -1.6588 -2.0326  1.8960
 5074TIP3    H236858   2.590   4.874   0.110  2.8190  1.2265 -2.3182
 5075TIP3   OH236859   5.535   1.028   7.684 -0.4103  0.3265  0.2079
 5075TIP3    H136860   5.506   1.080   7.609  1.6129  0.5011 -0.5087
 5075TIP3    H236861   5.627   1.009   7.666 -0.6642 -2.2039  1.1946
 5076TIP3   OH236862   1.524   2.832   8.919  0.7766  0.0941 -0.3596
 5076TIP3    H136863   1.493   2.823   9.009 -2.2960 -0.9457 -1.4103
 5076TIP3    H236864   1.550   2.744   8.893 -0.4422 -0.0451 -1.1587
 5077TIP3   OH236865   0.583   6.668   1.149 -0.2865  0.2740  0.0272
 5077TIP3    H136866   0.527   6.594   1.127  0.3289 -0.1781 -0.0520
 5077TIP3    H236867   0.574   6.728   1.075  1.2319 -0.9211 -1.1771
 5078TIP3   OH236868   2.262   0.557   8.043  0.4900 -0.1299  0.0350
 5078TIP3    H136869   2.226   0.568   8.131  0.6868 -0.9963  0.2318
 5078TIP3    H236870   2.217   0.481   8.007  0.1773  0.4052 -0.7456
 5079TIP3   OH236871   4.284   2.452   7.247  0.4165 -0.3746 -0.5278
 5079TIP3    H136872   4.268   2.535   7.201 -0.9035 -0.5541 -0.4387
 5079TIP3    H236873   4.217   2.450   7.315  2.2947 -0.1343  1.4433
 5080TIP3   OH236874   4.179   2.288   8.764  0.0211  0.7741 -0.2172
 5080TIP3    H136875   4.138   2.280   8.850  0.1997  1.3809 -0.0717
 5080TIP3    H236876   4.251   2.224   8.766 -0.1603  0.5718 -0.0315
 5081TIP3   OH236877   3.864   3.991   0.982 -0.1655 -0.5886 -0.3277
 5081TIP3    H136878   3.925   3.962   0.914 -0.0534 -0.9252 -0.0883
 5081TIP3    H236879   3.855   4.085   0.968  0.7248 -0.4622 -0.1231
 5082TIP3   OH236880   4.618   5.758   1.974 -0.4179 -0.6597 -0.3413
 5082TIP3    H136881   4.643   5.734   1.884 -2.2856 -0.6401 -0.9133
 5082TIP3    H236882   4.529   5.722   1.984 -1.0086  1.0332  0.8120
 5083TIP3   OH236883   5.766   5.891   1.336  0.6381  0.0384  0.1699
 5083TIP3    H136884   5.689   5.927   1.293  0.7997  1.4412  1.0098
 5083TIP3    H236885   5.821   5.967   1.356  2.9099 -1.0002 -1.5696
 5084TIP3   OH236886   1.479   2.777   0.401  0.2035  0.0733 -0.5378
 5084TIP3    H136887   1.564   2.814   0.377  1.3500 -1.4067  0.9287
 5084TIP3    H236888   1.492   2.682   0.394 -1.0698 -0.2075  0.5109
 5085TIP3   OH236889   0.986   2.897   0.521 -0.1562  0.7851  0.3038
 5085TIP3    H136890   1.034   2.848   0.587  0.3937  1.9857  0.8409
 5085TIP3    H236891   1.049   2.910   0.450 -1.0440 -1.3683 -0.9676
 5086TIP3   OH236892   1.383   0.580   2.040  0.0320 -0.7544  0.0117
 5086TIP3    H136893   1.335   0.621   2.111  1.2946 -0.0315  0.4913
 5086TIP3    H236894   1.475   0.595   2.062  0.6267  3.3851 -3.8048
 5087TIP3   OH236895   0.567   1.587   7.983 -0.3813 -0.0649 -0.1796
 5087TIP3    H136896   0.559   1.682   7.970  3.3688  0.6432  1.5149
 5087TIP3    H236897   0.566   1.551   7.894  0.9726  1.9011 -1.0639
 5088TIP3   OH236898   0.187   3.820   1.183  0.3640  0.4386  0.3553
 5088TIP3    H136899   0.234   3.875   1.120  1.1935 -1.1142 -0.4439
 5088TIP3    H236900   0.169   3.739   1.135  0.6843 -0.6480  1.9934
 5089TIP3   OH236901   2.206   4.128   8.074 -0.0876 -0.9157 -0.0712
 5089TIP3    H136902   2.295   4.147   8.043 -0.6474 -0.4251 -1.4685
 5089TIP3    H236903   2.192   4.190   8.145  0.6520 -0.9527  0.1228
 5090TIP3   OH236904   4.426   3.181   8.341  0.1230 -0.1524  0.1158
 5090TIP3    H136905   4.405   3.088   8.334 -1.5751  0.1384  0.8340
 5090TIP3    H236906   4.347   3.221   8.377 -0.4312  2.0834 -3.1414
 5091TIP3   OH236907   4.362   1.921   0.260  0.3670  0.3032  0.8307
 5091TIP3    H136908   4.433   1.902   0.198  2.4051  1.0369  2.8227
 5091TIP3    H236909   4.390   2.001   0.304 -1.7911  0.6730  1.6391
 5092TIP3   OH236910   3.292   3.622   7.616  0.3394  0.0236  0.0309
 5092TIP3    H136911   3.258   3.640   7.528  0.6468  0.9087  0.0872
 5092TIP3    H236912   3.294   3.526   7.621 -3.0864 -0.1509  0.4032
 5093TIP3   OH236913   5.323   6.624   0.381 -0.6151 -0.4392  0.2419
 5093TIP3    H136914   5.302   6.578   0.300  1.6921  2.6382 -2.4164
 5093TIP3    H236915   5.416   6.604   0.397 -1.0716 -1.1603  2.3613
 5094TIP3   OH236916   4.585   4.801   1.662  0.1797  0.2814  0.3214
 5094TIP3    H136917   4.552   4.891   1.657  2.3620  1.2090  1.4283
 5094TIP3    H236918   4.625   4.785   1.576  2.9905  1.7778  1.2400
 5095TIP3   OH236919   1.960   5.455   9.077 -0.1709 -0.0559  0.0798
 5095TIP3    H136920   2.033   5.512   9.100 -0.7521  0.9761 -0.5639
 5095TIP3    H236921   1.885   5.514   9.065 -0.9833 -1.0299  0.1781
 5096TIP3   OH236922   5.987   4.362   8.690 -0.0412  0.8899  0.1348
 5096TIP3    H136923   6.034   4.446   8.686  0.8065  0.3763 -1.2944
 5096TIP3    H236924   5.989   4.338   8.783  0.1494  2.1897  0.4897
 5097TIP3   OH236925   4.402   5.420   8.328  0.3314 -0.7308  0.5380
 5097TIP3    H136926   4.315   5.386   8.307 -0.2631  0.6323  0.7287
 5097TIP3    H236927   4.434   5.458   8.246  0.2524 -0.1758  0.7622
 5098TIP3   OH236928   3.299   5.661   1.014  0.8024  0.1626 -0.3376
 5098TIP3    H136929   3.288   5.673   1.108 -0.0547 -0.1427 -0.3905
 5098TIP3    H236930   3.233   5.718   0.975  0.7384 -0.1808 -0.7325
 5099TIP3   OH236931   4.794   4.324   1.598  0.3316  0.1712 -0.5211
 5099TIP3    H136932   4.869   4.354   1.548  0.3885  2.5917  0.8275
 5099TIP3    H236933   4.779   4.394   1.663 -1.8167 -1.1789  0.5695
 5100TIP3   OH236934   2.754   4.443   2.201 -0.0937  0.1687 -0.2275
 5100TIP3    H136935   2.812   4.449   2.125 -0.9266  2.0690 -0.7596
 5100TIP3    H236936   2.666   4.460   2.166 -0.4309  1.6353  1.2076
 5101TIP3   OH236937   4.991   2.935   2.134  0.6047  0.2506  0.0299
 5101TIP3    H136938   5.012   2.900   2.047  1.0810  0.9262 -0.1278
 5101TIP3    H236939   5.050   3.009   2.146 -1.1685  1.7647 -0.1342
 5102TIP3   OH236940   0.272   2.745   8.779  0.2411 -0.0671  0.2027
 5102TIP3    H136941   0.178   2.762   8.775  0.0252 -1.0856  0.5364
 5102TIP3    H236942   0.313   2.828   8.754 -0.7170  0.7556  1.2728
 5103TIP3   OH236943   2.592   1.505   1.381  0.2149  0.0229  0.2821
 5103TIP3    H136944   2.675   1.488   1.425 -0.4988 -1.9513  1.0016
 5103TIP3    H236945   2.614   1.506   1.288  1.2983  1.3489  0.5246
 5104TIP3   OH236946   6.562   4.875   0.329  0.1793 -0.4191 -0.1718
 5104TIP3    H136947   6.657   4.876   0.318  0.0578 -1.6946 -1.7559
 5104TIP3    H236948   6.545   4.935   0.401  2.2601 -0.8652  0.7647
 5105TIP3   OH236949   2.133   5.920   2.068 -0.0497 -0.0876 -0.0037
 5105TIP3    H136950   2.043   5.920   2.098  0.2965  1.2117  1.1342
 5105TIP3    H236951   2.135   5.986   1.998 -0.3343 -1.4040 -1.3132
 5106TIP3   OH236952   5.018   5.928   8.482 -0.4893  0.5442  0.5228
 5106TIP3    H136953   5.043   5.859   8.543  0.1795  0.4729  0.1810
 5106TIP3    H236954   5.101   5.966   8.453 -0.8494  2.0773  1.3648
 5107TIP3   OH236955   3.024   4.308   8.852 -0.2593 -0.1511 -0.0265
 5107TIP3    H136956   3.079   4.230   8.858  2.5519  1.6679 -0.5603
 5107TIP3    H236957   3.037   4.354   8.934  1.2791  1.6552 -1.2110
 5108TIP3   OH236958   2.705   0.587   8.766 -0.3424  0.6156 -0.0024
 5108TIP3    H136959   2.642   0.596   8.694 -0.0863 -0.9328 -0.4474
 5108TIP3    H236960   2.789   0.573   8.723  0.0111  0.8578  0.5974
 5109TIP3   OH236961   2.395   3.110   8.778 -0.3803  0.1448  0.6964
 5109TIP3    H136962   2.331   3.070   8.720 -0.2888  1.3286 -0.2721
 5109TIP3    H236963   2.438   3.037   8.821 -0.4129 -0.7895 -0.7828
 5110TIP3   OH236964   2.734   0.752   0.962 -0.3772 -0.6669 -0.4023
 5110TIP3    H136965   2.815   0.786   1.001 -0.9077 -0.3812  0.4965
 5110TIP3    H236966   2.665   0.806   1.001 -1.0583 -1.4177 -0.5510
 5111TIP3   OH236967   5.572   2.935   2.410 -0.0272 -0.0985  0.0167
 5111TIP3    H136968   5.497   2.877   2.425  0.1104 -0.1002  0.7149
 5111TIP3    H236969   5.535   3.023   2.410  0.0391 -0.0626  0.8951
 5112TIP3   OH236970   1.620   3.635   0.824 -0.3063  0.4431 -0.0384
 5112TIP3    H136971   1.582   3.683   0.751  1.0089  0.9795 -0.4055
 5112TIP3    H236972   1.666   3.701   0.876  0.6958 -0.2534 -0.0061
 5113TIP3   OH236973   1.049   2.090   7.592 -0.0705 -0.5652  0.0151
 5113TIP3    H136974   1.125   2.120   7.643  0.2399 -2.3204  0.6420
 5113TIP3    H236975   0.977   2.146   7.622  0.6888  0.2482  0.3701
 5114TIP3   OH236976   5.061   2.274   2.837 -0.0094  0.2127  0.3930
 5114TIP3    H136977   5.086   2.261   2.928  0.0727 -1.1688  0.1888
 5114TIP3    H236978   5.004   2.352   2.838  0.6978  0.7292  1.4795
 5115TIP3   OH236979   3.811   2.017   8.442  0.6116 -0.2460  0.1218
 5115TIP3    H136980   3.903   2.031   8.462  0.7984 -1.7971  0.4594
 5115TIP3    H236981   3.806   2.016   8.347  0.7773  0.7364  0.0906
 5116TIP3   OH236982   6.182   1.138   7.717 -0.8131 -0.6821 -0.2921
 5116TIP3    H136983   6.224   1.222   7.695  0.4699 -0.9365  1.0411
 5116TIP3    H236984   6.117   1.126   7.648 -0.4260  0.9820 -1.0168
 5117TIP3   OH236985   3.417   2.118   2.790  0.1665  0.3665  0.7456
 5117TIP3    H136986   3.424   2.023   2.795 -0.4610  0.3187  0.9073
 5117TIP3    H236987   3.323   2.134   2.781  0.0756  1.0320  2.5175
 5118TIP3   OH236988   5.241   6.553   2.553 -0.7900  0.2200  0.0261
 5118TIP3    H136989   5.182   6.607   2.500 -1.0602  0.5281  0.6365
 5118TIP3    H236990   5.302   6.515   2.489  0.4573  2.5515 -0.2750
 5119TIP3   OH236991   6.542   6.370   3.135  0.3050 -0.3056  0.1062
 5119TIP3    H136992   6.614   6.376   3.072 -0.0468  1.7676 -0.1709
 5119TIP3    H236993   6.549   6.281   3.171  2.0986 -0.6507 -0.9580
 5120TIP3   OH236994   1.965   0.059   2.690 -0.3952  0.4609  0.1294
 5120TIP3    H136995   2.017   0.025   2.618 -0.6362 -0.0251  0.1780
 5120TIP3    H236996   2.008   0.025   2.769 -1.5544 -1.1117  0.1350
 5121TIP3   OH236997   5.971   3.315   1.078 -0.0233  0.2232 -0.4460
 5121TIP3    H136998   5.991   3.227   1.110 -1.3153  0.0172 -0.1349
 5121TIP3    H236999   5.876   3.314   1.064  0.1228  1.1618 -1.6883
 5122TIP3   OH237000   3.842   5.527   7.648 -0.0785 -0.3247  0.6578
 5122TIP3    H137001   3.860   5.462   7.716  0.7267 -0.9421 -0.1112
 5122TIP3    H237002   3.921   5.581   7.645  0.1431 -0.6746 -0.1677
 5123TIP3   OH237003   2.247   1.986   3.266 -0.7011  0.1498  0.1824
 5123TIP3    H137004   2.308   2.046   3.225 -0.0560  0.2186  1.2050
 5123TIP3    H237005   2.219   2.031   3.346 -0.4352 -0.7700  0.8099
 5124TIP3   OH237006   5.383   2.474   8.048  0.2560 -0.8437  0.7129
 5124TIP3    H137007   5.342   2.472   7.961  0.7883  0.5487  0.4020
 5124TIP3    H237008   5.477   2.473   8.029  0.3731 -0.1287  1.2577
 5125TIP3   OH237009   6.680   4.400   0.553  0.1122 -0.0331  0.5848
 5125TIP3    H137010   6.773   4.408   0.531  0.0477 -0.8176 -0.0022
 5125TIP3    H237011   6.662   4.307   0.546 -0.2459 -0.1695  2.7206
 5126TIP3   OH237012   4.717   6.223   2.606  0.2122 -0.1297 -0.9214
 5126TIP3    H137013   4.650   6.273   2.652 -0.7344 -1.4486 -0.7907
 5126TIP3    H237014   4.800   6.260   2.637 -0.4176  0.1346  0.5690
 5127TIP3   OH237015   5.919   0.707   0.487 -0.4748  0.0455 -0.2368
 5127TIP3    H137016   5.969   0.759   0.550  0.3516 -0.0612 -0.7888
 5127TIP3    H237017   5.831   0.745   0.488 -0.2094  0.6514  0.2668
 5128TIP3   OH237018   4.472   4.140   8.069  0.2645  0.6772  0.2986
 5128TIP3    H137019   4.387   4.158   8.028 -0.4814 -0.5916  1.2015
 5128TIP3    H237020   4.525   4.104   7.998 -0.2870  0.5106 -0.0404
 5129TIP3   OH237021   6.273   2.087   2.646 -0.1817 -0.2023 -0.6387
 5129TIP3    H137022   6.361   2.113   2.673 -0.2949  0.5653 -0.9900
 5129TIP3    H237023   6.269   2.110   2.553 -1.4946  1.8543 -0.1349
 5130TIP3   OH237024   2.429   3.062   0.143 -0.3800  0.2388 -0.2047
 5130TIP3    H137025   2.360   3.026   0.087  1.0777 -1.1889 -1.1822
 5130TIP3    H237026   2.455   3.144   0.101  0.2227 -0.4784 -1.2925
 5131TIP3   OH237027   0.233   2.328   1.337 -0.3521  0.5071  0.1705
 5131TIP3    H137028   0.229   2.315   1.431  0.9726 -0.9331  0.0667
 5131TIP3    H237029   0.290   2.404   1.325  0.0103  0.2886  0.5121
 5132TIP3   OH237030   3.841   3.661   7.959 -0.2973  0.0628 -0.3793
 5132TIP3    H137031   3.779   3.641   7.889  1.7851 -0.3559 -2.2232
 5132TIP3    H237032   3.927   3.650   7.918  1.0086  1.6568  1.7481
 5133TIP3   OH237033   1.524   5.152   0.223  0.2297 -0.1903  0.5825
 5133TIP3    H137034   1.606   5.121   0.262 -0.5982 -0.8781  1.8468
 5133TIP3    H237035   1.468   5.172   0.298 -0.6784  0.5201 -0.2593
 5134TIP3   OH237036   1.680   3.444   8.544 -0.3495  0.1899  0.4087
 5134TIP3    H137037   1.709   3.516   8.599 -0.3243 -0.4962  1.3064
 5134TIP3    H237038   1.625   3.390   8.600 -0.1852 -0.6195 -0.1793
 5135TIP3   OH237039   2.840   6.048   8.688 -0.2432  0.7332  0.4131
 5135TIP3    H137040   2.767   6.103   8.660  0.7446  1.8512 -0.0800
 5135TIP3    H237041   2.870   6.087   8.770  0.5935  1.0860 -0.0442
 5136TIP3   OH237042   6.341   0.052   8.500 -0.5228  0.1120 -0.3594
 5136TIP3    H137043   6.340  -0.004   8.578 -0.2120  0.4014 -0.1464
 5136TIP3    H237044   6.339  -0.010   8.427  0.0879 -0.1945 -0.1299
 5137TIP3   OH237045   2.837   5.631   8.313  0.0457 -0.4800 -0.1945
 5137TIP3    H137046   2.894   5.611   8.387  0.1919 -0.1768 -0.2263
 5137TIP3    H237047   2.889   5.609   8.236  0.6433  1.1022 -0.2729
 5138TIP3   OH237048   0.164   6.666   7.648 -0.3564  0.3203  0.6365
 5138TIP3    H137049   0.232   6.634   7.589  0.7726 -0.0701  2.0974
 5138TIP3    H237050   0.130   6.588   7.691  0.7996  0.7950  2.5303
 5139TIP3   OH237051   2.887   4.654   0.056 -0.0841  0.1036 -0.4626
 5139TIP3    H137052   2.805   4.680   0.098 -1.4885 -2.1710 -1.5500
 5139TIP3    H237053   2.878   4.686  -0.034  0.0424 -0.4540 -0.6782
 5140TIP3   OH237054   4.171   5.617   7.996 -0.2455 -0.0168 -0.1836
 5140TIP3    H137055   4.094   5.585   8.042 -0.7088  0.1004 -0.8591
 5140TIP3    H237056   4.140   5.692   7.945  0.3523  0.1458 -0.3194
 5141TIP3   OH237057   0.549   0.537   8.586  0.0006  0.4182 -0.2847
 5141TIP3    H137058   0.626   0.562   8.638 -0.3969  0.6448  0.2083
 5141TIP3    H237059   0.503   0.620   8.569  0.0078  0.3185 -0.8114
 5142TIP3   OH237060   4.343   2.383   0.594 -0.1351 -0.0551 -0.1196
 5142TIP3    H137061   4.353   2.302   0.543  0.6585 -0.5110  0.7466
 5142TIP3    H237062   4.431   2.406   0.621 -0.5853 -0.1568  1.5608
 5143TIP3   OH237063   0.389   5.738   2.821  0.2573 -0.1633 -0.1487
 5143TIP3    H137064   0.309   5.758   2.774 -0.4967  0.3387  1.2674
 5143TIP3    H237065   0.390   5.643   2.828  0.4340 -0.2510 -1.2271
 5144TIP3   OH237066   1.681   2.297   3.081 -0.2162  0.9546  0.0632
 5144TIP3    H137067   1.747   2.351   3.124 -1.5523  1.2282  1.8847
 5144TIP3    H237068   1.721   2.210   3.076  0.1434  0.9978  1.5900
 5145TIP3   OH237069   4.682   0.883   2.070  0.1521  0.8830  0.0820
 5145TIP3    H137070   4.681   0.902   1.976  1.3604 -0.0524 -0.1615
 5145TIP3    H237071   4.736   0.952   2.108  0.4901  0.7125 -0.0766
 5146TIP3   OH237072   3.902   2.034   0.202  0.3666 -0.2377  0.3136
 5146TIP3    H137073   3.956   2.112   0.188 -1.8593  0.9577 -2.3586
 5146TIP3    H237074   3.942   1.967   0.147 -0.1486  0.2778 -0.6967
 5147TIP3   OH237075   3.541   2.817   0.033 -0.0837  0.4358 -0.2111
 5147TIP3    H137076   3.619   2.797  -0.018  0.5542  1.2857  0.4043
 5147TIP3    H237077   3.538   2.747   0.099 -0.2950 -0.0383 -0.7111
 5148TIP3   OH237078   4.958   2.216   1.273  0.1728 -0.6321 -0.7647
 5148TIP3    H137079   4.983   2.275   1.345 -2.4581  2.0934 -1.8827
 5148TIP3    H237080   4.880   2.171   1.305 -1.2210  0.8547 -1.9391
 5149TIP3   OH237081   4.006   5.050   0.483 -0.4460  0.7747  0.5020
 5149TIP3    H137082   4.088   5.076   0.526  0.7241 -0.2307 -1.0197
 5149TIP3    H237083   3.991   5.118   0.417 -0.1312  0.2858 -0.0799
 5150TIP3   OH237084   6.399   0.432   3.070 -0.1736 -0.0433 -0.4703
 5150TIP3    H137085   6.311   0.461   3.094  0.4632 -0.0398  2.1220
 5150TIP3    H237086   6.385   0.356   3.014 -1.8313 -0.3310  0.2740
 5151TIP3   OH237087   2.566   3.402   7.990 -0.6669  0.3947  0.4592
 5151TIP3    H137088   2.564   3.459   7.914 -0.0537 -0.6385 -0.3654
 5151TIP3    H237089   2.567   3.461   8.065  1.1445  1.5036 -0.3727
 5152TIP3   OH237090   5.489   5.924   1.306  0.3826 -0.1012 -0.4202
 5152TIP3    H137091   5.435   5.958   1.233 -0.5630 -1.8468 -0.5885
 5152TIP3    H237092   5.466   5.831   1.311  1.5460 -0.3341  1.1714
 5153TIP3   OH237093   3.635   5.600   8.490 -0.4351  0.5562 -0.1061
 5153TIP3    H137094   3.569   5.624   8.554 -0.5064  0.5638 -0.1831
 5153TIP3    H237095   3.661   5.682   8.449  0.9546  0.8196  1.2076
 5154TIP3   OH237096   2.468   2.015   8.149  0.3827  0.0847  0.0419
 5154TIP3    H137097   2.485   2.027   8.243 -1.0547  1.8007  0.1381
 5154TIP3    H237098   2.402   2.081   8.128  1.6644  0.7073 -2.4860
 5155TIP3   OH237099   4.341   4.299   2.656  0.0008  0.1510 -0.4122
 5155TIP3    H137100   4.355   4.393   2.647  0.1435  0.1583 -0.1439
 5155TIP3    H237101   4.424   4.266   2.692  0.3079 -0.2230 -1.4145
 5156TIP3   OH237102   2.852   3.521   1.016 -0.3061  0.4059  0.1159
 5156TIP3    H137103   2.884   3.579   0.947  0.2031 -1.0145 -0.8736
 5156TIP3    H237104   2.926   3.514   1.077  0.2035 -0.4129 -0.5725
 5157TIP3   OH237105   2.690   6.415   7.845 -0.0674 -0.2187  0.1341
 5157TIP3    H137106   2.607   6.457   7.825 -1.0096 -1.7781  0.5428
 5157TIP3    H237107   2.750   6.449   7.779 -0.5430  2.2454  0.8664
 5158TIP3   OH237108   2.922   1.883   2.438 -0.1288  0.3096  0.0631
 5158TIP3    H137109   2.967   1.962   2.470 -0.4949  0.0974  1.1634
 5158TIP3    H237110   2.985   1.812   2.454  0.0139  0.3161 -0.4777
 5159TIP3   OH237111   4.058   3.533   0.653  0.3050  0.3222  0.0852
 5159TIP3    H137112   4.101   3.472   0.713  0.7070  1.0853  0.5874
 5159TIP3    H237113   4.018   3.477   0.586  1.5518 -0.4404 -0.0494
 5160TIP3   OH237114   0.065   2.579   1.925  0.2247  0.7464  0.0568
 5160TIP3    H137115   0.028   2.580   1.837 -0.0021  0.1784  0.1402
 5160TIP3    H237116   0.070   2.486   1.948  1.4387  0.8230  0.1538
 5161TIP3   OH237117   4.566   4.397   8.502 -0.3511 -0.3598 -0.1142
 5161TIP3    H137118   4.650   4.387   8.457 -0.4994  0.9414 -0.7448
 5161TIP3    H237119   4.503   4.351   8.447 -0.5193  1.1611 -1.2583
 5162TIP3   OH237120   0.623   4.900   2.604 -0.3390 -0.0153 -0.2841
 5162TIP3    H137121   0.634   4.925   2.696 -2.0236 -0.2217  0.0180
 5162TIP3    H237122   0.592   4.979   2.560 -0.8301 -0.2490 -0.3737
 5163TIP3   OH237123   6.458   3.864   7.904 -0.1947  0.5465 -0.1666
 5163TIP3    H137124   6.502   3.785   7.873 -2.4144 -1.6038  1.7234
 5163TIP3    H237125   6.506   3.889   7.983 -0.0558  0.4904 -0.2333
 5164TIP3   OH237126   0.544   5.154   1.708 -0.2482 -0.4305  0.5215
 5164TIP3    H137127   0.484   5.086   1.737 -2.1920  0.2763 -1.5165
 5164TIP3    H237128   0.626   5.109   1.691 -1.5533 -2.3869 -1.0464
 5165TIP3   OH237129   4.566   0.599   1.819  0.5829 -0.2604  0.0094
 5165TIP3    H137130   4.503   0.582   1.749  0.6919  1.3197 -0.5094
 5165TIP3    H237131   4.523   0.568   1.899 -0.7656  0.5717 -0.3649
 5166TIP3   OH237132   3.742   0.219   0.409  0.5958 -0.2019 -0.3306
 5166TIP3    H137133   3.661   0.248   0.452  2.1600  1.8395  1.4884
 5166TIP3    H237134   3.736   0.256   0.321 -0.1570  0.5036 -0.0027
 5167TIP3   OH237135   6.237   1.511   2.184  0.3175  0.0417  0.1896
 5167TIP3    H137136   6.206   1.596   2.154 -0.5745  0.1392  1.3170
 5167TIP3    H237137   6.323   1.529   2.221  1.3885 -0.0636 -2.0728
 5168TIP3   OH237138   6.584   0.074   8.831 -0.4749 -0.4842 -0.2201
 5168TIP3    H137139   6.606   0.071   8.738 -2.0170 -0.5876 -0.6111
 5168TIP3    H237140   6.508   0.016   8.839 -0.9068  0.2142  0.9323
 5169TIP3   OH237141   2.333   0.338   8.360 -0.1081  0.2396 -0.3543
 5169TIP3    H137142   2.424   0.349   8.334 -0.1777  0.6843 -0.4262
 5169TIP3    H237143   2.293   0.424   8.344 -0.1060  0.6047  1.4042
 5170TIP3   OH237144   6.207   4.336   2.157 -0.1354  0.1378 -0.1383
 5170TIP3    H137145   6.151   4.401   2.200  0.5817  1.4207 -1.0776
 5170TIP3    H237146   6.278   4.387   2.118  1.1921 -1.3491  0.2174
 5171TIP3   OH237147   2.440   1.632   7.519  0.2656 -0.1301  0.0335
 5171TIP3    H137148   2.454   1.562   7.455 -0.2723 -1.6965  1.5377
 5171TIP3    H237149   2.492   1.705   7.487 -1.5487 -0.1040 -3.2634
 5172TIP3   OH237150   2.813   2.727   2.443  0.2621  0.3246 -0.9641
 5172TIP3    H137151   2.728   2.748   2.404  0.3433 -0.1607 -1.4128
 5172TIP3    H237152   2.828   2.635   2.420  1.7783  0.9103 -2.5393
 5173TIP3   OH237153   2.554   2.034   1.715  0.0211 -0.3025 -0.1683
 5173TIP3    H137154   2.552   2.023   1.810 -3.1246 -0.1957 -0.0940
 5173TIP3    H237155   2.485   2.098   1.697 -0.1543 -1.0646 -2.5658
 5174TIP3   OH237156   4.923   5.156   0.086  0.1667  0.0101 -0.2724
 5174TIP3    H137157   4.843   5.105   0.094 -0.5910  1.0510 -1.0393
 5174TIP3    H237158   4.974   5.109   0.020  0.6473 -1.1936  0.9067
 5175TIP3   OH237159   4.340   6.172   0.836 -0.0577 -0.2060 -0.0247
 5175TIP3    H137160   4.321   6.238   0.769  0.8189 -0.6573 -0.7354
 5175TIP3    H237161   4.331   6.088   0.790 -1.9475 -0.6715  1.0535
 5176TIP3   OH237162   6.558   1.948   8.055 -0.2335 -0.5690 -0.4480
 5176TIP3    H137163   6.479   1.897   8.034 -0.5949 -0.3257  0.2774
 5176TIP3    H237164   6.524   2.029   8.093  0.3586 -0.1374 -0.8297
 5177TIP3   OH237165   6.467   6.729   2.430  0.3172 -0.0040 -0.7814
 5177TIP3    H137166   6.426   6.764   2.509 -0.4486  0.3588 -1.3224
 5177TIP3    H237167   6.497   6.806   2.382 -1.3598 -0.0403 -1.9699
 5178TIP3   OH237168   0.472   6.431   2.777 -0.0686  0.3032  0.0474
 5178TIP3    H137169   0.480   6.378   2.856 -1.0990 -0.7317 -0.5214
 5178TIP3    H237170   0.396   6.397   2.732  1.8434 -0.7799 -2.6202
 5179TIP3   OH237171   6.178   2.294   3.119  0.0750 -0.2620  0.0291
 5179TIP3    H137172   6.235   2.227   3.155  0.5753  1.2734  2.3252
 5179TIP3    H237173   6.089   2.265   3.141  0.2921 -0.1843  1.0774
 5180TIP3   OH237174   0.546   3.799   1.274  0.5035  0.4731  0.1941
 5180TIP3    H137175   0.581   3.784   1.186 -1.7024 -0.1334 -0.6238
 5180TIP3    H237176   0.510   3.888   1.271 -1.3254 -0.2346 -0.1838
 5181TIP3   OH237177   4.579   4.479   2.442 -0.7891 -0.2037 -0.4783
 5181TIP3    H137178   4.600   4.527   2.362 -1.9528  0.9502 -0.1348
 5181TIP3    H237179   4.589   4.387   2.418  1.3795  0.1619 -1.1914
 5182TIP3   OH237180   6.291   1.938   0.215  0.7215 -0.0274 -0.2190
 5182TIP3    H137181   6.345   1.906   0.287 -2.4280 -0.9064  1.9017
 5182TIP3    H237182   6.293   2.033   0.224  3.1597  0.1077 -1.2709
 5183TIP3   OH237183   4.000   3.475   2.701  0.0608 -0.6424  1.2087
 5183TIP3    H137184   3.966   3.485   2.790 -1.5792 -2.1155  0.8219
 5183TIP3    H237185   4.018   3.381   2.693  0.8594 -0.4226  0.2045
 5184TIP3   OH237186   5.861   6.606   2.287  0.3282 -0.5958 -0.1213
 5184TIP3    H137187   5.836   6.534   2.229 -0.4137 -2.2531  2.1177
 5184TIP3    H237188   5.796   6.674   2.270 -1.8184 -2.2582  0.8635
 5185TIP3   OH237189   4.603   0.449   0.316 -0.2234  0.4601 -0.3223
 5185TIP3    H137190   4.655   0.489   0.385  1.8412 -1.6521 -0.5420
 5185TIP3    H237191   4.527   0.413   0.361 -0.1787  1.2913  0.4360
 5186TIP3   OH237192   5.604   3.788   8.866 -0.0186  0.1896  0.2578
 5186TIP3    H137193   5.603   3.795   8.961 -1.6880  0.2890  0.2639
 5186TIP3    H237194   5.697   3.782   8.843  0.4164  0.3551  1.8658
 5187TIP3   OH237195   6.212   0.751   1.061  0.2677 -0.1743 -0.6422
 5187TIP3    H137196   6.251   0.679   1.112  1.4525  0.4120 -0.6850
 5187TIP3    H237197   6.118   0.746   1.080  0.5096 -0.8690  0.4564
 5188TIP3   OH237198   3.620   4.497   1.208  0.0694 -0.0237  0.6880
 5188TIP3    H137199   3.588   4.459   1.126  1.2966 -0.7442  0.5054
 5188TIP3    H237200   3.714   4.510   1.193  0.2563  0.1268  1.8769
 5189TIP3   OH237201   5.144   3.495   0.243  0.5672  0.1416 -0.0800
 5189TIP3    H137202   5.174   3.515   0.155 -0.7343  1.0975 -0.3431
 5189TIP3    H237203   5.157   3.576   0.292  0.2719 -0.0414  0.3097
 5190TIP3   OH237204   6.165   2.700   9.060 -0.2000  0.4081 -0.1504
 5190TIP3    H137205   6.139   2.721   9.150  0.9075  0.8048  0.0882
 5190TIP3    H237206   6.103   2.748   9.005 -0.1977  1.0503  0.4047
 5191TIP3   OH237207   3.976   6.027   2.358  0.1624 -0.6331  0.1900
 5191TIP3    H137208   4.031   6.087   2.308 -2.5736  1.9802  0.0755
 5191TIP3    H237209   3.979   6.061   2.448  0.3254 -1.7379  0.6281
 5192TIP3   OH237210   6.521   1.134   1.134  0.4611  0.3403  0.2963
 5192TIP3    H137211   6.462   1.058   1.143  1.5823 -0.5415  0.3924
 5192TIP3    H237212   6.530   1.167   1.223 -0.1821  0.7147  0.2280
 5193TIP3   OH237213   0.484   2.398   2.472 -0.3444  0.8201  0.4032
 5193TIP3    H137214   0.520   2.453   2.404  0.0116  1.6103  1.2107
 5193TIP3    H237215   0.460   2.459   2.543  0.4241 -0.0801  1.4756
 5194TIP3   OH237216   1.193   3.943   1.322  0.1047  0.1022  0.4840
 5194TIP3    H137217   1.188   4.038   1.310 -0.0360  0.0971  0.5022
 5194TIP3    H237218   1.105   3.917   1.348 -0.2401 -0.2286 -0.9306
 5195TIP3   OH237219   3.772   0.670   0.237 -0.1649  0.5193 -0.3825
 5195TIP3    H137220   3.722   0.651   0.316  0.2664  0.4015 -0.1326
 5195TIP3    H237221   3.717   0.640   0.165  0.1808 -1.0017 -0.0331
 5196TIP3   OH237222   0.379   1.221   1.514  0.3113  0.0919 -0.2522
 5196TIP3    H137223   0.359   1.133   1.547 -1.6812  1.1255  1.5647
 5196TIP3    H237224   0.469   1.237   1.543  0.4408 -1.0629  0.0434
 5197TIP3   OH237225   5.005   1.633   0.192 -0.4773  0.6127 -0.2467
 5197TIP3    H137226   5.081   1.581   0.217  0.1465  0.2403 -2.6359
 5197TIP3    H237227   4.991   1.693   0.265  1.4966  0.0164  0.6681
 5198TIP3   OH237228   0.434   3.578   0.006  0.1389  0.0938  0.2732
 5198TIP3    H137229   0.520   3.616   0.026  0.0393 -0.1383  1.2085
 5198TIP3    H237230   0.389   3.645  -0.046  0.7124  0.4152  0.1859
 5199TIP3   OH237231   1.380   1.650   2.198 -0.0287  0.1790 -0.0396
 5199TIP3    H137232   1.402   1.743   2.207  0.5199  0.0587 -0.0883
 5199TIP3    H237233   1.315   1.634   2.265 -1.6888  1.0866 -1.3483
 5200TIP3   OH237234   3.350   2.019   3.308  0.3035 -0.2579 -0.5261
 5200TIP3    H137235   3.345   1.941   3.364 -3.3865 -0.9231 -1.5372
 5200TIP3    H237236   3.322   2.091   3.365  1.8957  0.0698 -0.1091
 5201TIP3   OH237237   6.223   2.825   2.119 -0.0177 -0.2718  0.5259
 5201TIP3    H137238   6.267   2.746   2.153 -0.8453 -1.3512 -0.7925
 5201TIP3    H237239   6.171   2.856   2.193  0.6832 -0.6878  1.2141
 5202TIP3   OH237240   0.360   4.605   0.984  0.2816  0.6851  0.0355
 5202TIP3    H137241   0.420   4.667   1.025  0.3396  0.3531  0.4638
 5202TIP3    H237242   0.333   4.547   1.055  0.1314  0.2957 -0.3319
 5203TIP3   OH237243   0.088   6.445   3.072 -0.0484  0.3840 -0.0307
 5203TIP3    H137244   0.058   6.489   3.152  2.4007  1.4775  0.3864
 5203TIP3    H237245   0.136   6.369   3.103 -1.1238 -0.5664 -0.6186
 5204TIP3   OH237246   2.265   4.888   1.545  0.0296 -0.3979 -0.6953
 5204TIP3    H137247   2.331   4.899   1.478  0.7670 -3.8290 -0.7491
 5204TIP3    H237248   2.186   4.861   1.498  0.2009 -1.6100 -0.3396
 5205TIP3   OH237249   0.810   6.073   8.942  0.3774  0.7537  0.4624
 5205TIP3    H137250   0.813   5.979   8.929 -0.2476  0.4096  2.4441
 5205TIP3    H237251   0.751   6.105   8.873 -1.8150 -0.7273  1.5340
 5206TIP3   OH237252   4.679   5.058   3.496  0.4198 -0.1847  0.3358
 5206TIP3    H137253   4.723   5.126   3.547  1.9833 -2.0341  1.5440
 5206TIP3    H237254   4.661   4.988   3.558  1.6045 -2.1700 -1.4316
 5207TIP3   OH237255   6.539   1.068   0.330  0.2877  0.9180 -0.7222
 5207TIP3    H137256   6.483   1.033   0.400  3.4633 -2.5699  0.3539
 5207TIP3    H237257   6.553   1.160   0.355 -1.8270  0.8625  0.9756
 5208TIP3   OH237258   5.439   0.892   1.636 -0.5435  0.2056 -0.1443
 5208TIP3    H137259   5.511   0.848   1.592 -1.2959  0.2816 -1.5117
 5208TIP3    H237260   5.476   0.976   1.665 -0.7449  1.6256 -3.4966
 5209TIP3   OH237261   0.603   5.670   8.947  0.3380 -0.1346 -0.0864
 5209TIP3    H137262   0.572   5.746   8.897  0.6622 -0.7773 -1.3110
 5209TIP3    H237263   0.619   5.603   8.881  0.2939 -1.1994  0.9537
 5210TIP3   OH237264   2.858   2.383   0.728 -0.2113  0.2767  0.4948
 5210TIP3    H137265   2.944   2.375   0.687 -0.4110  1.6960 -0.3018
 5210TIP3    H237266   2.804   2.426   0.661 -1.5204 -0.5100  1.0101
 5211TIP3   OH237267   0.723   2.717   1.861 -1.0033 -0.0142  0.1258
 5211TIP3    H137268   0.812   2.693   1.837 -1.2951 -0.7134 -0.2836
 5211TIP3    H237269   0.706   2.799   1.815 -0.5185  0.2130  0.3443
 5212TIP3   OH237270   2.209   2.346   8.585 -0.4670  0.5978 -0.4699
 5212TIP3    H137271   2.190   2.409   8.655  0.4782 -1.8020  2.1603
 5212TIP3    H237272   2.304   2.351   8.575 -0.6275  1.1636 -1.9226
 5213TIP3   OH237273   2.679   4.880   1.086 -0.1351  0.1904  0.1105
 5213TIP3    H137274   2.674   4.898   0.992  0.2292  0.8209  0.2055
 5213TIP3    H237275   2.674   4.967   1.127  2.1061  0.1389  0.5804
 5214TIP3   OH237276   2.332   3.204   8.477 -0.3701 -0.1327  0.4104
 5214TIP3    H137277   2.351   3.222   8.385  0.9664 -0.6494  0.5741
 5214TIP3    H237278   2.270   3.131   8.474 -1.0060  0.4036 -0.0809
 5215TIP3   OH237279   1.140   5.603   8.606  0.0385 -0.4232 -0.4654
 5215TIP3    H137280   1.088   5.674   8.644 -0.2700 -0.0648 -1.5142
 5215TIP3    H237281   1.087   5.525   8.621 -0.2592 -0.2311 -0.5019
 5216TIP3   OH237282   6.088   0.202   2.562 -0.1759  0.0688 -0.0716
 5216TIP3    H137283   6.154   0.223   2.628  0.1258  0.4602 -0.4967
 5216TIP3    H237284   6.016   0.262   2.580 -0.3213 -0.1983  0.2446
 5217TIP3   OH237285   5.637   0.055   8.966 -0.0580 -0.2689 -0.0942
 5217TIP3    H137286   5.617   0.139   8.926  0.1760  0.9844  2.2919
 5217TIP3    H237287   5.698   0.075   9.036  0.6333 -2.5484  0.0398
 5218TIP3   OH237288   1.514   2.620   1.772  0.1712 -0.6472  0.3259
 5218TIP3    H137289   1.583   2.668   1.726 -1.4871  1.2050 -0.3550
 5218TIP3    H237290   1.510   2.661   1.858  1.1573 -2.0302  1.0663
 5219TIP3   OH237291   6.390   0.286   2.111  0.0770  0.6294  0.3869
 5219TIP3    H137292   6.314   0.235   2.085 -0.4233  2.3510 -1.8678
 5219TIP3    H237293   6.355   0.359   2.161  0.4908  0.3622  1.0917
 5220TIP3   OH237294   6.662   3.328   0.362 -0.2464  0.6171  0.1424
 5220TIP3    H137295   6.623   3.302   0.278 -0.6731  0.3626  0.4133
 5220TIP3    H237296   6.602   3.292   0.428  1.3960 -1.3881  0.6454
 5221TIP3   OH237297   2.695   5.217   1.860  0.1505  0.3436  0.0357
 5221TIP3    H137298   2.661   5.131   1.836  0.7152 -0.2613  1.2990
 5221TIP3    H237299   2.778   5.225   1.813  0.6506 -0.3042  0.7805
 5222TIP3   OH237300   2.716   3.266   0.917  0.0171  0.7557  0.1833
 5222TIP3    H137301   2.725   3.352   0.957 -0.3100  1.2402 -0.7416
 5222TIP3    H237302   2.648   3.277   0.851  0.0319 -0.1929 -0.0142
 5223TIP3   OH237303   2.357   0.189   1.707 -0.2245  0.7426  0.0424
 5223TIP3    H137304   2.369   0.279   1.674 -1.4485  0.6111 -0.8748
 5223TIP3    H237305   2.262   0.182   1.720 -0.0037  0.0076  1.4322
 5224TIP3   OH237306   2.045   1.982   8.933  0.3388 -0.7855  0.1887
 5224TIP3    H137307   1.980   1.920   8.901 -0.1103 -0.8661  1.2128
 5224TIP3    H237308   2.036   1.979   9.029  0.3137  0.8377  0.2636
 5225TIP3   OH237309   4.532   5.935   2.244  0.5537  0.5204  0.4918
 5225TIP3    H137310   4.578   5.877   2.182  0.4526 -0.3058  1.1657
 5225TIP3    H237311   4.497   6.005   2.189 -0.6525 -0.8618 -0.6021
 5226TIP3   OH237312   1.520   2.910   3.019  0.1236 -0.0683  0.2950
 5226TIP3    H137313   1.459   2.975   3.053  0.6455 -0.0809  1.3133
 5226TIP3    H237314   1.587   2.961   2.974  2.2050  0.4860  3.6493
 5227TIP3   OH237315   3.381   0.461   2.978  0.0194 -0.0533 -0.6070
 5227TIP3    H137316   3.446   0.398   2.947  0.0643  0.3923 -1.4313
 5227TIP3    H237317   3.371   0.523   2.906 -2.3774 -0.9196 -1.1034
 5228TIP3   OH237318   4.957   1.832   0.380  0.0951  0.3037  0.6153
 5228TIP3    H137319   4.977   1.924   0.392 -0.9758  1.0349 -2.2225
 5228TIP3    H237320   5.008   1.787   0.447  2.0552  2.8007  0.9671
 5229TIP3   OH237321   5.267   6.369   3.347 -0.0770  0.1792 -0.0342
 5229TIP3    H137322   5.342   6.410   3.303  0.3504  0.5433  1.0199
 5229TIP3    H237323   5.306   6.297   3.398 -0.4795  0.2015  0.3030
 5230TIP3   OH237324   6.042   1.174   0.427 -0.0390  0.3065  0.1447
 5230TIP3    H137325   6.024   1.134   0.342  0.3788 -0.2226  0.2940
 5230TIP3    H237326   6.108   1.241   0.409 -0.4363  0.6496 -0.0448
 5231TIP3   OH237327   3.412   3.987   1.770  0.2548 -0.4564  0.1276
 5231TIP3    H137328   3.432   4.081   1.775 -1.1302 -0.0009 -1.7250
 5231TIP3    H237329   3.316   3.983   1.768  0.1809 -2.1300  2.6490
 5232TIP3   OH237330   6.017   6.677   2.506  0.0625 -0.0672  0.1281
 5232TIP3    H137331   6.024   6.772   2.519  0.0717 -0.2129  1.3013
 5232TIP3    H237332   5.967   6.668   2.425 -0.9950  0.9471  0.6324
 5233TIP3   OH237333   2.429   1.915   3.658  0.3710 -0.3889  0.3571
 5233TIP3    H137334   2.516   1.917   3.618  1.1559  0.9209  2.0277
 5233TIP3    H237335   2.376   1.973   3.603  0.8937 -0.1950  0.0512
 5234TIP3   OH237336   6.026   5.380   2.021 -0.7266 -0.2061 -0.1429
 5234TIP3    H137337   6.120   5.376   2.006 -0.6232 -1.4885  0.6704
 5234TIP3    H237338   6.017   5.427   2.104 -0.8472  0.4331 -0.5131
 5235TIP3   OH237339   2.305   5.037   8.614  0.6053  0.3391 -0.2390
 5235TIP3    H137340   2.257   5.039   8.531 -1.3064  1.3492  0.8164
 5235TIP3    H237341   2.375   5.101   8.603  0.9944 -0.2463 -1.3833
 5236TIP3   OH237342   1.486   3.191   1.021 -0.3108  0.5027  0.4113
 5236TIP3    H137343   1.430   3.206   0.945 -1.2579 -1.4112  0.6607
 5236TIP3    H237344   1.543   3.268   1.024 -1.7781  1.7243 -0.8592
 5237TIP3   OH237345   4.764   4.121   1.393 -0.0482  0.5585  0.0284
 5237TIP3    H137346   4.774   4.194   1.455  0.9059  0.5374 -0.0856
 5237TIP3    H237347   4.670   4.119   1.375 -0.4081  0.3904  1.6888
 5238TIP3   OH237348   4.620   1.550   2.226  0.2917  0.5571 -0.6823
 5238TIP3    H137349   4.688   1.486   2.251  1.9665  2.4839 -0.0642
 5238TIP3    H237350   4.574   1.568   2.308  0.9781  1.4125 -0.4692
 5239TIP3   OH237351   6.120   1.476   1.645  0.3763 -0.0237  0.3562
 5239TIP3    H137352   6.069   1.525   1.710 -1.3363 -1.3160  0.0344
 5239TIP3    H237353   6.196   1.443   1.694  0.9588  1.9112  0.8426
 5240TIP3   OH237354   4.646   3.547   0.515 -0.0301 -0.2756  0.7520
 5240TIP3    H137355   4.722   3.536   0.457 -0.9542 -1.3975 -0.3302
 5240TIP3    H237356   4.683   3.567   0.600  1.5478 -1.6049  0.4417
 5241TIP3   OH237357   0.941   2.610   8.629  0.2265 -0.2458 -0.9413
 5241TIP3    H137358   1.029   2.573   8.628 -0.1397 -1.1529 -1.9464
 5241TIP3    H237359   0.883   2.534   8.640 -0.6971 -0.5026 -5.5595
 5242TIP3   OH237360   5.758   5.347   8.117  0.0717 -0.2604  0.6382
 5242TIP3    H137361   5.693   5.281   8.093  0.4851  0.3434 -2.6995
 5242TIP3    H237362   5.842   5.306   8.094  0.3775  1.0632 -0.7832
 5243TIP3   OH237363   6.451   2.164   0.028 -0.5683 -0.1815 -0.4315
 5243TIP3    H137364   6.378   2.227   0.034  0.6543  1.2275  0.3604
 5243TIP3    H237365   6.435   2.117  -0.054 -1.3833  1.3965 -1.2411
 5244TIP3   OH237366   5.361   0.955   0.854  0.2930 -0.3908  0.4737
 5244TIP3    H137367   5.288   0.907   0.892  2.0258 -1.7123  2.3555
 5244TIP3    H237368   5.368   0.922   0.765  0.3257 -2.3540  1.1631
 5245TIP3   OH237369   3.632   5.643   2.629  0.0150 -0.2276 -0.4786
 5245TIP3    H137370   3.637   5.677   2.719 -0.2444 -0.1722 -0.4845
 5245TIP3    H237371   3.722   5.643   2.599  0.1383 -0.4944 -0.1248
 5246TIP3   OH237372   4.878   1.185   1.057 -0.1211  0.0479 -1.0352
 5246TIP3    H137373   4.802   1.218   1.105  0.3639 -0.1972 -0.0791
 5246TIP3    H237374   4.950   1.189   1.120  0.4736 -0.5362 -1.6627
 5247TIP3   OH237375   1.218   2.238   1.491  0.1786  0.2326  0.3223
 5247TIP3    H137376   1.283   2.167   1.483  0.6923  0.6897  0.3384
 5247TIP3    H237377   1.154   2.205   1.554  0.3236 -0.2831  0.2058
 5248TIP3   OH237378   6.623   3.035   2.536 -0.5484 -0.1939  0.4663
 5248TIP3    H137379   6.596   2.943   2.545 -0.8857 -0.0072  1.5179
 5248TIP3    H237380   6.619   3.052   2.442  0.1321 -1.4397  0.1944
 5249TIP3   OH237381   4.178   1.380   0.853 -0.1763 -0.1589 -0.7289
 5249TIP3    H137382   4.137   1.340   0.929  0.4956  0.4398 -0.0329
 5249TIP3    H237383   4.232   1.451   0.889 -0.5170  0.6899 -1.8395
 5250TIP3   OH237384   3.732   2.799   0.536 -0.1713 -0.3238  0.0026
 5250TIP3    H137385   3.810   2.799   0.592 -0.5849  0.3623  0.6037
 5250TIP3    H237386   3.669   2.854   0.583 -0.4284  0.5169 -1.2747
 5251TIP3   OH237387   0.080   4.788   3.583  0.3233  0.0546 -1.0039
 5251TIP3    H137388   0.039   4.852   3.641 -1.0364 -0.5265 -1.3064
 5251TIP3    H237389   0.152   4.837   3.542 -0.9558  1.5341 -1.5781
 5252TIP3   OH237390   5.005   5.959   0.535  0.2870  0.1474  0.0233
 5252TIP3    H137391   4.954   5.879   0.541 -0.5887  0.7182  0.3301
 5252TIP3    H237392   5.095   5.929   0.518  0.1717 -0.9320  1.2235
 5253TIP3   OH237393   1.981   3.979   0.528 -0.0122 -0.5888  0.1802
 5253TIP3    H137394   1.984   3.896   0.576 -1.1862 -0.9947 -0.4179
 5253TIP3    H237395   1.968   3.954   0.437 -1.1860  0.2561  0.0918
 5254TIP3   OH237396   2.541   0.015   8.899  0.0174  0.0599  0.0258
 5254TIP3    H137397   2.452   0.044   8.916 -0.7744 -1.0410 -1.8716
 5254TIP3    H237398   2.570   0.067   8.824  0.1555 -0.9745 -0.6787
 5255TIP3   OH237399   4.195   0.034   3.040 -0.0514 -0.2325 -0.3966
 5255TIP3    H137400   4.169   0.006   3.128 -1.6079 -3.6442 -1.7820
 5255TIP3    H237401   4.130   0.100   3.015  0.1075  0.3919  0.7478
 5256TIP3   OH237402   5.518   5.553   8.069  0.3838 -0.0471  0.0864
 5256TIP3    H137403   5.521   5.615   8.142  0.6455 -1.8699  1.7369
 5256TIP3    H237404   5.610   5.543   8.043  0.2643  0.7933 -0.6898
 5257TIP3   OH237405   0.894   1.757   0.421 -0.1740 -0.6331 -0.1026
 5257TIP3    H137406   0.961   1.692   0.398  0.3678 -0.4436  0.8541
 5257TIP3    H237407   0.940   1.841   0.413 -0.9424 -0.3353 -1.5827
 5258TIP3   OH237408   2.179   4.400   8.193 -0.0026 -0.2157 -0.5446
 5258TIP3    H137409   2.162   4.455   8.269  0.6304 -0.5584 -0.1481
 5258TIP3    H237410   2.207   4.462   8.125 -0.0763  0.0342 -0.3474
 5259TIP3   OH237411   5.415   6.142   3.449  0.1905 -0.4077  0.0553
 5259TIP3    H137412   5.393   6.052   3.472 -1.1681 -0.2409 -0.4793
 5259TIP3    H237413   5.508   6.141   3.431  0.0684 -1.8431 -0.5746
 5260TIP3   OH237414   3.711   4.657   0.621 -0.3066  0.2016  0.0056
 5260TIP3    H137415   3.748   4.590   0.679 -2.9972 -0.4819  1.0787
 5260TIP3    H237416   3.750   4.639   0.536  0.6120 -1.3931  0.7098
 5261TIP3   OH237417   4.085   5.864   7.904 -0.0595  0.0479  0.2789
 5261TIP3    H137418   4.091   5.957   7.925  0.5614  0.1981 -0.5231
 5261TIP3    H237419   4.170   5.842   7.867 -0.6012 -0.5690 -0.6363
 5262TIP3   OH237420   2.955   1.622   8.594  0.1297 -0.7276 -0.3647
 5262TIP3    H137421   2.866   1.616   8.558  0.7404 -0.5244 -1.9470
 5262TIP3    H237422   2.953   1.703   8.647 -0.1125  0.3457 -1.9380
 5263TIP3   OH237423   1.318   4.884   2.969 -0.3236 -0.0264 -0.0456
 5263TIP3    H137424   1.268   4.953   3.012 -0.5276  0.3153 -0.8026
 5263TIP3    H237425   1.356   4.927   2.892  0.1619 -0.5736 -0.1162
 5264TIP3   OH237426   4.572   5.167   7.908  0.3032 -0.2949 -0.3247
 5264TIP3    H137427   4.615   5.092   7.950  1.8235  0.6782 -0.0879
 5264TIP3    H237428   4.561   5.231   7.979  0.3627  0.2731 -0.8186
 5265TIP3   OH237429   3.314   1.096   2.164  0.5666 -0.3048  0.1852
 5265TIP3    H137430   3.395   1.145   2.178  0.3453 -0.2027  1.1947
 5265TIP3    H237431   3.335   1.006   2.190  0.0701 -0.0543  1.5762
 5266TIP3   OH237432   6.247   6.317   3.443  0.2697  0.8674 -0.2047
 5266TIP3    H137433   6.263   6.347   3.532 -0.6769 -0.1624  0.3319
 5266TIP3    H237434   6.233   6.223   3.451 -0.0865  0.8011 -1.4016
 5267TIP3   OH237435   6.073   5.586   1.750 -0.3735  0.0968  0.5231
 5267TIP3    H137436   6.166   5.605   1.761 -0.2245 -0.5884  0.5031
 5267TIP3    H237437   6.070   5.494   1.724 -1.0857 -0.0285  1.0048
 5268TIP3   OH237438   3.421   5.062   2.612  0.0667  0.6256  0.2313
 5268TIP3    H137439   3.495   5.002   2.625 -0.9218 -0.7449 -0.3070
 5268TIP3    H237440   3.436   5.131   2.677  0.5122 -0.9031  1.8587
 5269TIP3   OH237441   1.943   1.697   0.655  0.2541 -0.2913  0.2482
 5269TIP3    H137442   1.878   1.763   0.630  0.1016 -0.6469 -0.3200
 5269TIP3    H237443   1.906   1.656   0.733 -0.9874 -1.5321 -0.9143
 5270TIP3   OH237444   2.807   0.157   8.996  0.2240 -0.7739 -0.2743
 5270TIP3    H137445   2.759   0.199   8.925  1.1477 -1.5710 -1.4136
 5270TIP3    H237446   2.899   0.179   8.980  0.3650  0.1236  1.4431
 5271TIP3   OH237447   1.296   1.619   1.118  0.6167 -0.3458 -0.1700
 5271TIP3    H137448   1.307   1.524   1.121  1.5382 -0.2363  1.2089
 5271TIP3    H237449   1.362   1.652   1.179 -0.4942  1.1042  0.3113
 5272TIP3   OH237450   2.508   3.857   2.941 -0.1374 -0.2355 -0.1210
 5272TIP3    H137451   2.492   3.951   2.948 -0.1195 -0.2734  0.4411
 5272TIP3    H237452   2.581   3.841   3.001 -0.0481 -0.5844 -0.3230
 5273TIP3   OH237453   6.490   4.679   8.379 -0.0104 -0.0741  0.4070
 5273TIP3    H137454   6.424   4.748   8.387 -0.3541 -0.5832  2.6686
 5273TIP3    H237455   6.457   4.607   8.432  1.6842 -0.9014  0.4242
 5274TIP3   OH237456   4.089   6.676   1.548 -0.0321 -0.1582  0.1725
 5274TIP3    H137457   4.004   6.641   1.576  0.0829 -1.4220 -0.9698
 5274TIP3    H237458   4.126   6.714   1.628 -1.9082  0.9504  0.5644
 5275TIP3   OH237459   4.195   5.136   0.670 -0.0460  0.1812  0.1447
 5275TIP3    H137460   4.249   5.214   0.655 -1.2094  1.1613  0.8604
 5275TIP3    H237461   4.139   5.159   0.744  0.2554 -1.7173  1.0175
 5276TIP3   OH237462   1.460   2.228   8.376 -0.0904  0.2567 -0.3095
 5276TIP3    H137463   1.400   2.163   8.340 -0.5848  1.0489 -0.9396
 5276TIP3    H237464   1.431   2.240   8.466 -0.0264 -0.3521 -0.2013
 5277TIP3   OH237465   6.636   3.805   2.775 -0.2048  0.2695  0.6837
 5277TIP3    H137466   6.604   3.829   2.861 -1.0524  0.9197  0.1997
 5277TIP3    H237467   6.624   3.710   2.770 -0.4476  0.2748  1.1562
 5278TIP3   OH237468   2.726   4.838   1.711 -0.7125 -0.2844  0.3070
 5278TIP3    H137469   2.734   4.759   1.764  1.9420 -1.4261 -1.5629
 5278TIP3    H237470   2.803   4.890   1.734 -0.0745 -0.3172 -1.5631
 5279TIP3   OH237471   3.163   1.433   2.221  0.1263  0.1477  0.1694
 5279TIP3    H137472   3.202   1.493   2.285 -0.1315  1.1198 -0.5598
 5279TIP3    H237473   3.186   1.471   2.136  0.2383 -0.9821 -0.3186
 5280TIP3   OH237474   5.482   3.173   1.964 -0.5220 -0.5244 -0.2813
 5280TIP3    H137475   5.398   3.154   1.920 -0.9530  0.5700  0.0482
 5280TIP3    H237476   5.480   3.118   2.042 -0.4554 -1.2960 -0.8120
 5281TIP3   OH237477   2.929   0.312   0.875 -0.0254 -0.1483 -0.4904
 5281TIP3    H137478   2.924   0.329   0.781  1.9820  0.3740 -0.5398
 5281TIP3    H237479   2.975   0.388   0.911 -0.3335 -0.5708  0.8565
 5282TIP3   OH237480   0.787   5.270   2.709 -0.1486 -0.2825  0.1049
 5282TIP3    H137481   0.750   5.332   2.646  0.1492  1.2416  1.3584
 5282TIP3    H237482   0.855   5.224   2.660  0.4309  1.2247 -0.5840
 5283TIP3   OH237483   0.792   3.727   1.414  0.1602 -0.0769  0.4186
 5283TIP3    H137484   0.766   3.674   1.489  0.7338  0.2931  0.8958
 5283TIP3    H237485   0.713   3.774   1.389  0.0975  0.2226  1.1596
 5284TIP3   OH237486   6.575   5.799   1.779  0.0805 -0.0282 -0.0889
 5284TIP3    H137487   6.646   5.786   1.842  0.9037 -0.6085 -1.1148
 5284TIP3    H237488   6.585   5.890   1.751  1.9451 -0.7320 -1.9812
 5285TIP3   OH237489   2.221   5.624   0.935  0.2756  0.0965 -0.0959
 5285TIP3    H137490   2.234   5.536   0.970  2.3915  0.2991 -0.2570
 5285TIP3    H237491   2.126   5.636   0.937  0.0204 -1.6143  1.3075
 5286TIP3   OH237492   1.227   3.085   2.243  0.1554  0.0771 -0.4042
 5286TIP3    H137493   1.157   3.064   2.181  1.4757 -1.6227 -1.4348
 5286TIP3    H237494   1.230   3.011   2.303 -0.7095  1.4332  1.3949
 5287TIP3   OH237495   5.307   4.495   8.564  0.4455  0.7408 -0.2766
 5287TIP3    H137496   5.274   4.573   8.608 -0.2655 -0.5465  1.6390
 5287TIP3    H237497   5.387   4.473   8.612  0.2235 -0.1059 -0.2708
 5288TIP3   OH237498   4.381   3.121   8.019  0.1032 -0.4899  0.2270
 5288TIP3    H137499   4.360   3.156   7.932  0.7549  0.0586  0.2816
 5288TIP3    H237500   4.361   3.193   8.079 -1.1979 -1.1656  0.6344
 5289TIP3   OH237501   0.438   6.686   2.543 -0.1077 -0.0033 -0.1036
 5289TIP3    H137502   0.482   6.769   2.524  1.5802  0.0559  3.3437
 5289TIP3    H237503   0.510   6.623   2.554 -1.2906 -1.6002 -1.1703
 5290TIP3   OH237504   5.826   3.911   2.559  0.4164 -0.7817  0.0493
 5290TIP3    H137505   5.876   3.925   2.479  1.0214 -1.3940  0.3111
 5290TIP3    H237506   5.800   3.999   2.587  0.7634 -0.5135 -0.4625
 5291TIP3   OH237507   1.523   6.540   1.670 -0.1278  0.5223 -0.1565
 5291TIP3    H137508   1.548   6.624   1.708 -0.3890  0.5638 -0.0790
 5291TIP3    H237509   1.429   6.534   1.684 -0.3418  0.8152 -1.3272
 5292TIP3   OH237510   6.365   0.152   2.663 -0.0402 -0.2434 -0.1870
 5292TIP3    H137511   6.392   0.087   2.728  2.7158 -1.7117 -2.5945
 5292TIP3    H237512   6.405   0.233   2.692  1.2273 -0.8968 -0.0566
 5293TIP3   OH237513   5.857   3.467   7.215 -0.0055  0.4253  0.6544
 5293TIP3    H137514   5.779   3.494   7.167  0.6093  0.7562 -0.1718
 5293TIP3    H237515   5.831   3.385   7.258 -0.9575  0.7862  0.7917
 5294TIP3   OH237516   4.816   2.360   0.314 -0.3814  0.0286  0.3867
 5294TIP3    H137517   4.853   2.273   0.330 -0.8416 -0.1334  0.5932
 5294TIP3    H237518   4.870   2.419   0.365  0.6554  0.0169 -0.6551
 5295TIP3   OH237519   5.614   3.901   8.589 -0.0313  0.6329 -0.3659
 5295TIP3    H137520   5.572   3.816   8.575  1.6998 -0.2434 -0.4632
 5295TIP3    H237521   5.586   3.927   8.677 -0.5769 -0.0214 -0.3357
 5296TIP3   OH237522   5.245   5.851   2.231 -0.1064  0.1885 -0.5900
 5296TIP3    H137523   5.323   5.907   2.228  1.1893 -1.4480  0.3475
 5296TIP3    H237524   5.190   5.891   2.298  2.3329 -1.3445  2.6401
 5297TIP3   OH237525   0.309   3.371   2.529 -0.2617  0.3868 -0.3731
 5297TIP3    H137526   0.396   3.399   2.559  0.1815 -1.3673  0.0991
 5297TIP3    H237527   0.301   3.408   2.441  0.2339  2.0033  0.2288
 5298TIP3   OH237528   2.329   6.499   0.946 -0.4754  0.9560 -0.3269
 5298TIP3    H137529   2.312   6.541   1.030  0.8111  1.3890 -0.2587
 5298TIP3    H237530   2.305   6.564   0.881  0.9433  1.6030 -0.2311
 5299TIP3   OH237531   6.670   1.708   8.352  0.1005  0.4534 -0.2377
 5299TIP3    H137532   6.648   1.797   8.324  0.0758  0.6177  0.2943
 5299TIP3    H237533   6.587   1.672   8.382  0.2306  0.4791  0.1590
 5300TIP3   OH237534   6.084   3.190   8.637  0.5814  0.5719 -0.1100
 5300TIP3    H137535   6.074   3.095   8.643  1.4358  0.4379 -0.6110
 5300TIP3    H237536   6.101   3.218   8.727 -0.6421  0.3862  0.1944
 5301TIP3   OH237537   0.527   6.155   1.887 -0.4408 -0.1853 -0.2559
 5301TIP3    H137538   0.543   6.063   1.867 -0.2463 -0.2595  0.2138
 5301TIP3    H237539   0.615   6.195   1.889 -0.5899  0.2241 -1.4373
 5302TIP3   OH237540   2.187   4.506   1.445  0.3848  0.0308 -0.0838
 5302TIP3    H137541   2.247   4.564   1.398  2.3188 -0.9057  1.1334
 5302TIP3    H237542   2.241   4.434   1.475 -2.0413 -3.0051 -2.2831
 5303TIP3   OH237543   5.488   2.327   2.611 -0.5023 -0.2562  0.4170
 5303TIP3    H137544   5.566   2.380   2.625 -0.1405 -0.3450 -1.1091
 5303TIP3    H237545   5.422   2.389   2.580 -0.4139 -0.4857 -0.2650
 5304TIP3   OH237546   1.271   6.318   1.464  0.6442  0.1146 -0.0245
 5304TIP3    H137547   1.273   6.341   1.557 -0.6232  0.6923 -0.1160
 5304TIP3    H237548   1.227   6.392   1.422 -1.0066 -1.1976 -0.7269
 5305TIP3   OH237549   3.580   5.680   2.274 -0.4018 -0.0572  0.3979
 5305TIP3    H137550   3.668   5.714   2.289 -1.0517  1.2193  1.7016
 5305TIP3    H237551   3.531   5.709   2.351 -1.6144 -2.0138  0.4106
 5306TIP3   OH237552   4.203   6.296   7.717 -0.0442 -0.4615 -1.3526
 5306TIP3    H137553   4.190   6.391   7.721  1.5156 -0.2738  0.4216
 5306TIP3    H237554   4.296   6.285   7.702 -0.1058 -1.7140 -0.9324
 5307TIP3   OH237555   5.632   4.852   1.482 -0.2061 -0.0193  0.3837
 5307TIP3    H137556   5.697   4.824   1.418 -0.4112 -2.3348  1.0719
 5307TIP3    H237557   5.666   4.821   1.566 -0.4618  1.9910  1.2970
 5308TIP3   OH237558   4.554   6.335   2.793 -0.3575  0.7996  0.0869
 5308TIP3    H137559   4.515   6.262   2.841 -0.3563  1.0914  0.5387
 5308TIP3    H237560   4.488   6.405   2.799 -0.6377  0.6360 -0.8837
 5309TIP3   OH237561   2.184   0.262   0.226 -0.4673 -0.3501  0.0937
 5309TIP3    H137562   2.190   0.334   0.287  1.4703  0.5207 -1.0218
 5309TIP3    H237563   2.098   0.271   0.185 -0.7563  0.5484  0.8857
 5310TIP3   OH237564   4.053   4.704   3.177  0.3666 -0.0938 -0.0445
 5310TIP3    H137565   3.967   4.711   3.136 -0.6221 -1.2623  1.6945
 5310TIP3    H237566   4.037   4.657   3.259  2.5309  0.4528  0.7682
 5311TIP3   OH237567   0.551   0.420   2.023 -0.5121 -0.6805 -0.1715
 5311TIP3    H137568   0.553   0.482   1.949 -1.6408  0.3053  0.5789
 5311TIP3    H237569   0.641   0.417   2.053 -0.5211  1.1574  0.1781
 5312TIP3   OH237570   1.764   3.396   2.463  0.3565  0.2818  0.2599
 5312TIP3    H137571   1.764   3.356   2.550  0.9394 -0.2611  0.0168
 5312TIP3    H237572   1.686   3.361   2.421 -0.4043  1.2142  0.8533
 5313TIP3   OH237573   5.654   1.611   1.993 -0.2516 -0.2917 -0.0476
 5313TIP3    H137574   5.629   1.523   1.967  1.4058 -0.5175 -1.0212
 5313TIP3    H237575   5.681   1.654   1.911  0.0257  0.7496  0.5655
 5314TIP3   OH237576   5.270   3.593   9.066  0.3563 -0.1096 -0.5999
 5314TIP3    H137577   5.334   3.622   9.132  0.5007  0.1846 -0.8685
 5314TIP3    H237578   5.306   3.511   9.033  0.4946 -0.0462 -0.6072
 5315TIP3   OH237579   6.306   0.666   8.457 -0.3555 -0.1774 -0.3713
 5315TIP3    H137580   6.218   0.698   8.479 -0.4381 -0.8026  0.2473
 5315TIP3    H237581   6.364   0.739   8.480 -0.9153  1.4584 -3.6351
 5316TIP3   OH237582   4.391   4.438   0.090  0.3595  0.0700  0.5415
 5316TIP3    H137583   4.367   4.520   0.047 -0.4934 -0.0928  0.7043
 5316TIP3    H237584   4.408   4.462   0.181  0.5889  0.1378  0.4838
 5317TIP3   OH237585   1.227   3.957   7.832  0.1000  0.0218  0.3061
 5317TIP3    H137586   1.156   3.948   7.768  0.0453 -1.5139  0.5595
 5317TIP3    H237587   1.299   3.996   7.782 -0.6432  0.8715 -0.1407
 5318TIP3   OH237588   0.286   5.751   0.857  0.5708  0.4848 -0.0901
 5318TIP3    H137589   0.282   5.846   0.868  0.2441  0.5474 -0.7494
 5318TIP3    H237590   0.293   5.717   0.947 -1.5269  1.0112  0.3253
 5319TIP3   OH237591   2.703   1.647   0.464 -0.4309  0.3014  0.1148
 5319TIP3    H137592   2.723   1.695   0.384 -0.6949 -0.5384 -0.4702
 5319TIP3    H237593   2.607   1.643   0.466 -0.4660  1.2426  1.0411
 5320TIP3   OH237594   4.666   3.900   0.782  0.3313 -0.7081  0.4890
 5320TIP3    H137595   4.672   3.929   0.691 -0.9299  0.7794  0.8489
 5320TIP3    H237596   4.747   3.931   0.822 -0.2472  0.9282  0.4635
 5321TIP3   OH237597   6.370   2.466   0.390  0.1653 -0.3873 -0.5501
 5321TIP3    H137598   6.371   2.514   0.473  0.0343  0.2244 -0.8933
 5321TIP3    H237599   6.461   2.468   0.361 -0.2881  2.4475 -2.1082
 5322TIP3   OH237600   5.685   2.074   1.497 -0.2511  0.4005  0.3746
 5322TIP3    H137601   5.704   2.062   1.404 -0.1649 -2.0136  0.6398
 5322TIP3    H237602   5.769   2.060   1.541 -0.7998 -1.1885  0.9618
 5323TIP3   OH237603   2.827   4.007   8.218 -0.3379  0.6810 -0.3085
 5323TIP3    H137604   2.750   3.949   8.212  0.5357 -0.9477  2.2832
 5323TIP3    H237605   2.827   4.036   8.309  2.4449  0.0960 -0.0343
 5324TIP3   OH237606   3.292   5.328   8.984 -0.1888  0.2615 -0.0199
 5324TIP3    H137607   3.350   5.324   8.908 -0.0073 -1.6920  0.1771
 5324TIP3    H237608   3.211   5.286   8.955 -0.7888  1.1256  0.3389
 5325TIP3   OH237609   5.512   0.002   7.808  0.2654  0.2412 -0.0221
 5325TIP3    H137610   5.515   0.067   7.738 -2.3203 -0.6174 -1.0662
 5325TIP3    H237611   5.431   0.019   7.854 -0.2490 -1.8713 -0.0098
 5326TIP3   OH237612   4.954   0.228   1.661 -0.4261  0.3330  0.2216
 5326TIP3    H137613   4.999   0.154   1.702  1.2531  2.2603  2.0588
 5326TIP3    H237614   4.941   0.291   1.732 -0.6522  2.3430 -1.5066
 5327TIP3   OH237615   0.368   1.724   8.162  1.0300 -0.0810 -0.0199
 5327TIP3    H137616   0.275   1.703   8.172  1.3833 -0.9863  2.0470
 5327TIP3    H237617   0.403   1.652   8.110  1.1484 -1.6398  2.0949
 5328TIP3   OH237618   2.548   3.982   8.442 -0.6131 -0.6761  0.1039
 5328TIP3    H137619   2.577   3.918   8.378  0.0934 -0.9743  0.7096
 5328TIP3    H237620   2.510   4.053   8.390  0.0478 -0.8652 -0.6431
 5329TIP3   OH237621   5.108   0.017   2.420 -0.1419 -0.0718  0.3984
 5329TIP3    H137622   5.182   0.063   2.380 -0.6516 -0.0412 -0.5375
 5329TIP3    H237623   5.032   0.072   2.402 -0.6812 -1.0106 -0.3060
 5330TIP3   OH237624   1.624   0.775   8.314 -0.3986  0.2732  0.3643
 5330TIP3    H137625   1.596   0.731   8.234  1.8889  0.0525 -0.3626
 5330TIP3    H237626   1.590   0.864   8.306 -0.8387  0.0359 -0.4845
 5331TIP3   OH237627   4.875   4.742   2.881 -0.2888 -0.2473 -0.5961
 5331TIP3    H137628   4.912   4.695   2.806 -0.8694 -2.0675  0.2038
 5331TIP3    H237629   4.889   4.684   2.956 -1.1410  0.8182  0.4458
 5332TIP3   OH237630   1.123   0.260   1.818 -0.1304  0.1692  0.5016
 5332TIP3    H137631   1.077   0.257   1.734  0.6392 -1.5032  0.0957
 5332TIP3    H237632   1.187   0.331   1.808 -0.6998  0.6248  0.0424
 5333TIP3   OH237633   0.042   3.195   2.897 -0.3668 -0.2109  0.3129
 5333TIP3    H137634   0.012   3.286   2.898 -1.8248 -0.5666 -2.0614
 5333TIP3    H237635  -0.011   3.151   2.964  0.2601  0.6339  1.3859
 5334TIP3   OH237636   6.545   5.286   7.744 -0.1504 -0.6601  0.0937
 5334TIP3    H137637   6.521   5.265   7.834  0.2741 -0.7002  0.2025
 5334TIP3    H237638   6.466   5.323   7.706 -0.0192  0.4356  0.8265
 5335TIP3   OH237639   0.081   2.982   7.775  0.2391 -0.1300  0.6499
 5335TIP3    H137640  -0.008   3.000   7.804  0.5334  0.4041  1.2407
 5335TIP3    H237641   0.081   2.888   7.756 -0.9049  0.1653 -1.0101
 5336TIP3   OH237642   6.193   5.787   8.160  0.4034 -0.0200  0.2777
 5336TIP3    H137643   6.181   5.816   8.070 -2.7364  0.0057  0.5971
 5336TIP3    H237644   6.275   5.828   8.188  0.8950  0.8531 -2.1967
 5337TIP3   OH237645   3.792   1.577   8.547  0.5040 -0.1065 -0.2385
 5337TIP3    H137646   3.710   1.626   8.551  0.1436 -0.4755 -2.1310
 5337TIP3    H237647   3.825   1.579   8.637 -1.6045 -0.0023  0.6067
 5338TIP3   OH237648   4.836   0.870   8.085  0.2603 -0.5234  0.6992
 5338TIP3    H137649   4.860   0.948   8.035 -1.0331 -0.0002  0.8679
 5338TIP3    H237650   4.884   0.799   8.042  1.3040  0.3140  0.4259
 5339TIP3   OH237651   0.312   3.507   2.284 -0.0962 -0.1498 -0.3737
 5339TIP3    H137652   0.304   3.450   2.208 -0.7794 -0.0679 -0.3757
 5339TIP3    H237653   0.264   3.586   2.259 -0.1070 -0.0200  0.0460
 5340TIP3   OH237654   0.521   2.960   0.301  0.1797  0.5956 -0.0041
 5340TIP3    H137655   0.588   2.910   0.348 -0.1418  0.8186  0.7064
 5340TIP3    H237656   0.546   3.052   0.315  0.4596  0.6613 -0.8464
 5341TIP3   OH237657   6.623   2.337   8.874  0.3792  0.2084 -0.4815
 5341TIP3    H137658   6.575   2.254   8.876  1.2809 -0.3277  0.2838
 5341TIP3    H237659   6.660   2.345   8.962  1.0453  0.9804 -0.8163
 5342TIP3   OH237660   3.175   0.677   2.929  0.5215  0.5612 -0.3865
 5342TIP3    H137661   3.096   0.645   2.886  0.4976 -0.9568  0.7060
 5342TIP3    H237662   3.243   0.675   2.861  0.2279 -0.6928 -0.6569
 5343TIP3   OH237663   0.880   0.230   2.687  0.0966  0.0434 -0.6861
 5343TIP3    H137664   0.879   0.186   2.601  0.8672 -0.3978 -0.4712
 5343TIP3    H237665   0.947   0.185   2.737 -0.6788 -0.0187  0.3311
 5344TIP3   OH237666   2.560   6.558   7.464  0.3924  0.3681 -0.1105
 5344TIP3    H137667   2.611   6.595   7.391  0.7298 -0.2973 -0.2131
 5344TIP3    H237668   2.471   6.553   7.430  0.5349  0.1242 -0.4589
 5345TIP3   OH237669   4.174   3.937   7.740 -0.3134 -0.2913  0.1313
 5345TIP3    H137670   4.231   3.893   7.803 -0.2762  0.9981  1.0400
 5345TIP3    H237671   4.088   3.896   7.752 -0.3214 -0.0294  1.0919
 5346TIP3   OH237672   4.842   3.562   1.364 -0.2727  0.4778  0.3168
 5346TIP3    H137673   4.804   3.591   1.281  0.8519  4.0088  0.8408
 5346TIP3    H237674   4.936   3.559   1.347 -0.1500 -0.3028  1.0745
 5347TIP3   OH237675   2.463   4.766   3.480 -0.1937  0.0893 -0.5583
 5347TIP3    H137676   2.521   4.689   3.478  0.5791  0.2704  4.0093
 5347TIP3    H237677   2.523   4.841   3.482 -0.6005  0.4171  1.2708
 5348TIP3   OH237678   3.469   5.118   3.076  0.5987  0.0713  0.7145
 5348TIP3    H137679   3.510   5.035   3.050 -0.1439 -0.3141  0.7545
 5348TIP3    H237680   3.542   5.179   3.084  1.1612 -0.5902  0.7302
 5349TIP3   OH237681   6.220   4.981   8.542 -0.3793 -0.2877  0.1100
 5349TIP3    H137682   6.257   4.981   8.454 -0.1525 -3.3664  0.0900
 5349TIP3    H237683   6.295   4.962   8.599 -1.1366 -2.5905  0.4579
 5350TIP3   OH237684   3.129   2.115   8.952 -0.0066 -0.4739 -0.2972
 5350TIP3    H137685   3.155   2.205   8.930  0.9484 -0.9555 -1.2257
 5350TIP3    H237686   3.174   2.061   8.887 -1.8907 -1.5117 -0.8038
 5351TIP3   OH237687   0.591   1.988   8.863 -0.1843  0.0008  0.1730
 5351TIP3    H137688   0.502   1.999   8.829 -0.5663 -1.8767  0.4308
 5351TIP3    H237689   0.593   2.042   8.942 -0.6129  1.1858 -0.6078
 5352TIP3   OH237690   6.628   0.585   8.422  0.1129 -0.1341 -0.2815
 5352TIP3    H137691   6.624   0.548   8.334 -1.7512 -0.2019 -0.2031
 5352TIP3    H237692   6.581   0.522   8.476  0.2275  0.4842  0.5564
 5353TIP3   OH237693   5.150   5.861   8.201  0.4351  0.3298  0.3048
 5353TIP3    H137694   5.220   5.837   8.141 -0.6564 -1.9740 -0.1787
 5353TIP3    H237695   5.116   5.777   8.233 -0.8100  1.4163  2.0456
 5354TIP3   OH237696   2.667   2.562   1.093  0.2113 -0.0673  0.4512
 5354TIP3    H137697   2.685   2.468   1.102 -0.2608 -0.1964  0.0650
 5354TIP3    H237698   2.737   2.604   1.143  0.4074 -0.6252  0.6597
 5355TIP3   OH237699   5.738   1.745   0.791  0.0457  0.4243  0.8551
 5355TIP3    H137700   5.774   1.696   0.865  3.3040  0.0175 -0.8247
 5355TIP3    H237701   5.741   1.683   0.718 -0.3756  1.6673 -0.2424
 5356TIP3   OH237702   0.310   0.720   0.361  0.2014  0.3704  0.2420
 5356TIP3    H137703   0.380   0.745   0.420  2.1210  1.3969 -2.2871
 5356TIP3    H237704   0.280   0.802   0.322  0.0002 -0.3765 -1.2484
 5357TIP3   OH237705   4.108   0.310   8.594 -0.3326  0.3123  0.1064
 5357TIP3    H137706   4.202   0.323   8.584 -0.0438 -1.0385  0.8045
 5357TIP3    H237707   4.086   0.352   8.677 -0.2082 -0.0079  0.3008
 5358TIP3   OH237708   0.687   1.885   1.270 -0.3426 -0.1120  0.4323
 5358TIP3    H137709   0.634   1.882   1.350 -1.3850 -0.9106 -0.2628
 5358TIP3    H237710   0.775   1.858   1.299 -0.4848  0.4521  1.4508
 5359TIP3   OH237711   2.591   2.558   7.921 -0.4062 -0.0623 -0.1201
 5359TIP3    H137712   2.603   2.601   7.836 -0.1638 -1.3216 -0.7422
 5359TIP3    H237713   2.497   2.539   7.925 -0.8326  1.9458  0.8942
 5360TIP3   OH237714   0.391   1.126   0.183 -0.1902  0.0761 -0.8010
 5360TIP3    H137715   0.353   1.050   0.138  1.7226 -0.9832 -0.7426
 5360TIP3    H237716   0.440   1.089   0.256  0.3975  1.4181 -0.4791
 5361TIP3   OH237717   1.220   2.942   0.348 -0.4114 -0.1133 -0.2808
 5361TIP3    H137718   1.262   3.023   0.377 -0.6659  0.2544 -0.9045
 5361TIP3    H237719   1.290   2.876   0.351 -0.6059 -0.2754  1.8283
 5362TIP3   OH237720   5.509   4.563   2.027  0.2820  0.2472  0.0116
 5362TIP3    H137721   5.517   4.585   2.120 -0.2978  1.1664 -0.1429
 5362TIP3    H237722   5.426   4.516   2.020  0.2681  0.2823 -0.0616
 5363TIP3   OH237723   2.961   2.061   0.372 -0.5224  0.3334  0.1708
 5363TIP3    H137724   2.962   2.140   0.425 -1.2312  0.4763 -0.0177
 5363TIP3    H237725   2.932   2.090   0.286 -0.4488 -0.0782  0.0042
 5364TIP3   OH237726   5.021   5.529   1.143 -0.0385  0.7744 -0.3614
 5364TIP3    H137727   5.037   5.465   1.074  0.0923  0.4496 -0.0345
 5364TIP3    H237728   5.031   5.614   1.100 -0.7265  0.5802 -0.9151
 5365TIP3   OH237729   5.896   3.390   7.548 -0.4099  0.4565  0.2378
 5365TIP3    H137730   5.847   3.394   7.466  2.8433  1.1209 -1.8595
 5365TIP3    H237731   5.875   3.303   7.584 -1.5446 -0.0690 -1.5607
 5366TIP3   OH237732   1.311   1.693   7.718 -0.0896  0.3597  0.3353
 5366TIP3    H137733   1.405   1.684   7.733  0.3673 -2.2313 -3.0432
 5366TIP3    H237734   1.302   1.775   7.670  0.4483  0.5518  0.5567
 5367TIP3   OH237735   1.536   5.934   1.545 -0.2971  0.7524 -0.4704
 5367TIP3    H137736   1.467   5.998   1.530 -0.2045  1.1548  0.7179
 5367TIP3    H237737   1.586   5.969   1.618 -0.7241 -1.0307  0.7488
 5368TIP3   OH237738   6.539   0.610   3.352  0.6081  0.5316  0.1952
 5368TIP3    H137739   6.611   0.672   3.367 -0.2532  1.6511 -0.1320
 5368TIP3    H237740   6.475   0.660   3.300  0.1505 -0.8395 -0.6027
 5369TIP3   OH237741   3.579   3.780   3.085 -0.1578 -0.8370 -0.1262
 5369TIP3    H137742   3.638   3.827   3.143 -0.6100 -1.1551  0.6001
 5369TIP3    H237743   3.579   3.690   3.119  0.1439 -1.2051 -1.0618
 5370TIP3   OH237744   2.013   2.855   0.126  0.4215  0.8196  0.3866
 5370TIP3    H137745   1.926   2.814   0.121  0.1569  1.3079  0.9026
 5370TIP3    H237746   2.071   2.784   0.154  0.5960 -0.0750 -1.9949
 5371TIP3   OH237747   0.457   4.430   1.314  0.0942  0.1153  0.5457
 5371TIP3    H137748   0.475   4.379   1.393  0.9819  0.3696  0.5173
 5371TIP3    H237749   0.372   4.397   1.283  0.4942 -1.1086  0.7108
 5372TIP3   OH237750   2.874   3.639   3.631  0.6806  0.0388 -0.2379
 5372TIP3    H137751   2.928   3.570   3.669  1.9129 -0.3283 -2.4750
 5372TIP3    H237752   2.790   3.598   3.614  1.6152 -1.1654 -2.1686
 5373TIP3   OH237753   5.221   0.920   8.343 -0.5173  0.0171  0.3834
 5373TIP3    H137754   5.148   0.898   8.399 -1.2209 -0.1062 -0.5545
 5373TIP3    H237755   5.189   0.903   8.254  0.4578  0.4845 -0.0747
 5374TIP3   OH237756   3.275   1.754   0.087 -0.7829  0.4085  0.5984
 5374TIP3    H137757   3.261   1.664   0.115 -2.3430  0.3298 -0.3249
 5374TIP3    H237758   3.223   1.763   0.007 -1.6154  2.4250  1.2840
 5375TIP3   OH237759   4.539   4.038   8.810 -0.1209 -0.4428 -0.1516
 5375TIP3    H137760   4.499   4.116   8.772  0.4160 -0.3220 -0.4809
 5375TIP3    H237761   4.554   4.061   8.902  0.3014 -0.0474 -0.3140
 5376TIP3   OH237762   4.528   5.440   1.626 -0.4765 -0.0700  0.0294
 5376TIP3    H137763   4.442   5.463   1.592 -0.2560  0.3643 -0.2538
 5376TIP3    H237764   4.570   5.392   1.554 -0.1847  0.4361 -0.1448
 5377TIP3   OH237765   6.303   0.758   0.675 -0.0608 -0.0037 -0.1225
 5377TIP3    H137766   6.391   0.726   0.651  0.0663  0.2262  0.0345
 5377TIP3    H237767   6.266   0.688   0.728  0.3596  0.2587  0.5279
 5378TIP3   OH237768   4.598   1.321   8.672  0.0626  0.8421  1.0319
 5378TIP3    H137769   4.678   1.271   8.686 -0.9970 -0.7051  1.9665
 5378TIP3    H237770   4.541   1.261   8.623 -0.8903  1.5075  1.3046
 5379TIP3   OH237771   2.011   5.224   0.494  0.0137  0.2787 -0.4448
 5379TIP3    H137772   1.965   5.152   0.538 -2.2861  2.0955  0.3307
 5379TIP3    H237773   2.073   5.256   0.559  1.2103 -1.0820 -0.8712
 5380TIP3   OH237774   6.463   1.037   8.288  0.1452 -0.2534  0.1569
 5380TIP3    H137775   6.403   1.099   8.329 -0.6045 -1.2616  0.6237
 5380TIP3    H237776   6.408   0.986   8.229  1.0825  0.7207 -1.6747
 5381TIP3   OH237777   2.754   1.053   1.160  0.4765  0.3590 -0.4895
 5381TIP3    H137778   2.812   0.989   1.119  1.5933  1.3946 -0.5781
 5381TIP3    H237779   2.760   1.131   1.103 -0.0087  0.9107  0.1983
 5382TIP3   OH237780   4.080   4.553   3.408  0.0934  0.1940 -0.7482
 5382TIP3    H137781   4.014   4.608   3.450 -1.2400 -0.6602 -1.6477
 5382TIP3    H237782   4.119   4.503   3.480 -0.1403  0.8147 -0.1830
 5383TIP3   OH237783   2.452   3.787   0.291  1.0230 -0.1943 -0.2687
 5383TIP3    H137784   2.365   3.750   0.301  0.6700  0.8049  0.5995
 5383TIP3    H237785   2.494   3.771   0.376  2.4312 -2.4273 -1.2916
 5384TIP3   OH237786   5.598   2.006   8.103  0.2853 -0.2644  0.0984
 5384TIP3    H137787   5.548   1.924   8.100  0.4115 -0.3204 -2.0618
 5384TIP3    H237788   5.533   2.073   8.123  0.3857 -0.9374  3.2822
 5385TIP3   OH237789   6.054   5.923   1.607 -0.0847  0.0316  0.5996
 5385TIP3    H137790   6.010   6.003   1.633 -0.6028  0.0045 -0.1533
 5385TIP3    H237791   6.071   5.876   1.688  1.3191  1.4454  1.1822
 5386TIP3   OH237792   1.679   1.128   2.866 -0.0890  0.0956  0.1722
 5386TIP3    H137793   1.714   1.200   2.918  1.5067 -0.7967  0.4108
 5386TIP3    H237794   1.618   1.169   2.805  0.6038  1.6040  0.4529
 5387TIP3   OH237795   6.185   1.775   2.091  0.8040  0.4921 -0.2748
 5387TIP3    H137796   6.092   1.796   2.086  0.3116 -1.3751  0.2806
 5387TIP3    H237797   6.223   1.846   2.142 -0.4727  0.8388  0.2320
 5388TIP3   OH237798   4.614   3.335   0.284  0.1153  0.0310 -0.1645
 5388TIP3    H137799   4.662   3.268   0.332  0.3181  0.4533  0.2405
 5388TIP3    H237800   4.681   3.384   0.237  0.0793  0.5220  0.2757
 5389TIP3   OH237801   3.795   2.202   7.663  0.1760 -0.2865  0.7849
 5389TIP3    H137802   3.723   2.231   7.720 -0.8837 -0.9795 -0.1622
 5389TIP3    H237803   3.768   2.228   7.575  1.3515 -0.0736  0.4767
 5390TIP3   OH237804   3.608   3.919   8.134 -0.1044 -0.0056 -0.1867
 5390TIP3    H137805   3.522   3.946   8.165 -0.0824  0.2832 -0.3628
 5390TIP3    H237806   3.602   3.824   8.123 -0.9509  0.1961 -1.8259
 5391TIP3   OH237807   3.162   4.320   2.764 -0.2422  0.1716  0.6246
 5391TIP3    H137808   3.070   4.340   2.747 -0.3988 -0.5515  0.5982
 5391TIP3    H237809   3.186   4.257   2.696  0.3272  0.4921  0.5207
 5392TIP3   OH237810   5.384   3.465   3.709  0.0880 -0.1249  0.3091
 5392TIP3    H137811   5.362   3.549   3.668 -0.9373 -0.0580  0.9345
 5392TIP3    H237812   5.472   3.446   3.679 -0.6289 -0.1291 -1.9783
 5393TIP3   OH237813   4.639   4.756   7.706  0.2040  0.6023  0.1109
 5393TIP3    H137814   4.689   4.740   7.787  0.1863  1.7294  0.3532
 5393TIP3    H237815   4.605   4.670   7.683  0.9813  0.0848  0.7927
 5394TIP3   OH237816   5.700   1.277   0.019 -0.4209  0.1716 -0.0630
 5394TIP3    H137817   5.745   1.222  -0.045 -0.7597  2.1125 -2.0848
 5394TIP3    H237818   5.769   1.333   0.056 -0.4624  0.0459  0.2083
 5395TIP3   OH237819   0.023   0.708   2.150 -0.3250  0.0547  0.7866
 5395TIP3    H137820   0.041   0.626   2.103 -1.5157  0.0803  0.2422
 5395TIP3    H237821   0.095   0.766   2.125  0.7734 -0.9500  1.5210
 5396TIP3   OH237822   1.929   4.913   2.091 -0.3963  0.6973 -0.0906
 5396TIP3    H137823   1.975   4.995   2.074  1.0571 -0.1807 -0.5782
 5396TIP3    H237824   1.887   4.891   2.008  1.1443 -0.2077 -0.6502
 5397TIP3   OH237825   1.491   0.755   7.632  0.1173 -0.0081 -0.1594
 5397TIP3    H137826   1.568   0.811   7.639  0.7070 -0.7199 -0.7719
 5397TIP3    H237827   1.525   0.666   7.647 -0.8758 -0.1694  1.2750
 5398TIP3   OH237828   0.021   1.365   8.867 -0.3719 -0.1338 -0.8783
 5398TIP3    H137829  -0.062   1.322   8.889 -0.2521 -0.8579 -1.7394
 5398TIP3    H237830   0.050   1.405   8.948 -0.4971 -1.7125 -0.0046
 5399TIP3   OH237831   1.722   0.703   1.740  0.0513 -0.1265  0.1053
 5399TIP3    H137832   1.786   0.767   1.708  0.4394 -0.4303  0.2638
 5399TIP3    H237833   1.647   0.714   1.682 -0.2459  1.1024  0.6917
 5400TIP3   OH237834   5.869   1.953   1.979 -0.2379  0.3277  0.1578
 5400TIP3    H137835   5.891   1.874   2.029  3.6756  0.8763 -0.4250
 5400TIP3    H237836   5.816   1.920   1.905  0.2319 -1.5548  0.6021
 5401TIP3   OH237837   1.788   2.235   2.540 -0.4610  0.1581  0.2388
 5401TIP3    H137838   1.815   2.220   2.449  0.2956 -2.5598  0.8204
 5401TIP3    H237839   1.855   2.292   2.576  0.4442 -0.4879 -0.3744
 5402TIP3   OH237840   5.133   6.087   0.223 -0.1877  0.3890 -0.6182
 5402TIP3    H137841   5.127   6.182   0.232 -2.4006  0.2171  0.5175
 5402TIP3    H237842   5.151   6.055   0.311  0.3804 -0.2711 -0.9581
 5403TIP3   OH237843   3.388   3.719   8.277 -0.2970  0.2935 -0.0785
 5403TIP3    H137844   3.463   3.712   8.218 -2.5505 -0.9389 -3.0107
 5403TIP3    H237845   3.338   3.793   8.244 -1.4752 -0.2282  0.4741
 5404TIP3   OH237846   1.438   4.365   0.933 -0.4499  0.5852 -0.0287
 5404TIP3    H137847   1.530   4.388   0.935 -0.0001 -1.0286 -0.3626
 5404TIP3    H237848   1.424   4.329   0.845 -1.1249 -0.1810  0.3762
 5405TIP3   OH237849   6.061   2.579   1.275  0.6078 -0.2068 -0.7329
 5405TIP3    H137850   6.100   2.516   1.215  1.6782 -1.2484  0.9621
 5405TIP3    H237851   6.044   2.529   1.355 -2.7803  0.5924 -0.8086
 5406TIP3   OH237852   4.893   4.960   0.351 -0.0682  0.3936 -0.0483
 5406TIP3    H137853   4.842   4.949   0.431  1.0470 -0.0533  0.6212
 5406TIP3    H237854   4.846   5.026   0.301 -0.8735  0.5502  0.8933
 5407TIP3   OH237855   6.173   3.905   8.673  0.2533  0.0055  0.1014
 5407TIP3    H137856   6.169   3.832   8.735 -0.6451  0.6190  0.7775
 5407TIP3    H237857   6.125   3.873   8.596  0.8252 -0.5167 -0.0549
 5408TIP3   OH237858   0.212   4.356   0.518 -0.1748 -0.2281 -0.2199
 5408TIP3    H137859   0.292   4.306   0.534  0.2850  0.2433 -0.9975
 5408TIP3    H237860   0.199   4.350   0.423 -0.7910  0.1019 -0.1574
 5409TIP3   OH237861   5.994   4.558   8.951  0.7290 -0.3384  0.2400
 5409TIP3    H137862   6.017   4.624   8.885  2.4868 -2.3123 -1.2657
 5409TIP3    H237863   6.045   4.582   9.028  0.0345  0.9756  0.3239
 5410TIP3   OH237864   1.911   2.339   1.009 -0.2670 -0.3684 -0.2883
 5410TIP3    H137865   1.917   2.386   0.926 -0.2822 -1.2068 -0.7791
 5410TIP3    H237866   1.838   2.380   1.055  1.1437  1.6072  0.3093
 5411TIP3   OH237867   1.176   6.319   8.328 -0.0968  0.3147  0.5708
 5411TIP3    H137868   1.088   6.338   8.358  0.4978  1.6245  1.5534
 5411TIP3    H237869   1.214   6.264   8.397  0.4947  1.4010  1.1377
 5412TIP3   OH237870   5.295   0.167   2.235  0.0349 -0.1829  0.4531
 5412TIP3    H137871   5.323   0.129   2.151  1.1479 -0.6197  1.0051
 5412TIP3    H237872   5.324   0.258   2.231 -2.6697  0.7014 -0.8882
 5413TIP3   OH237873   1.300   5.309   0.131  1.0823 -0.4424 -0.1007
 5413TIP3    H137874   1.395   5.321   0.131  1.3295 -2.1529 -0.4740
 5413TIP3    H237875   1.285   5.241   0.066 -0.1742 -1.7515  1.4835
 5414TIP3   OH237876   2.423   5.699   7.119 -0.1299 -0.1944 -0.4446
 5414TIP3    H137877   2.342   5.657   7.147 -0.1481 -0.8624 -1.4472
 5414TIP3    H237878   2.474   5.709   7.200 -0.2096 -2.0023 -0.1331
 5415TIP3   OH237879   5.467   4.539   1.403 -0.1354 -0.4313 -0.0509
 5415TIP3    H137880   5.545   4.521   1.455 -0.0832 -1.3465 -0.4239
 5415TIP3    H237881   5.497   4.595   1.332  0.0277 -0.1567  0.2324
 5416TIP3   OH237882   2.364   2.490   0.797  0.2469 -0.3957  0.4586
 5416TIP3    H137883   2.377   2.488   0.892  1.5577 -0.5592  0.2920
 5416TIP3    H237884   2.319   2.573   0.781  2.7006  1.1557  0.9443
 5417TIP3   OH237885   1.208   1.104   2.718  0.6168  0.4153 -0.0549
 5417TIP3    H137886   1.232   1.011   2.712  2.0474  0.8306 -1.8150
 5417TIP3    H237887   1.115   1.104   2.742  0.9166 -1.4158  1.3523
 5418TIP3   OH237888   1.112   1.537   8.921  0.0987 -0.0459 -0.2547
 5418TIP3    H137889   1.108   1.605   8.988 -0.5033  0.5012 -0.8249
 5418TIP3    H237890   1.159   1.465   8.963 -0.7952  0.0402  0.9749
 5419TIP3   OH237891   6.684   0.281   1.990 -0.1672  0.4136  0.1412
 5419TIP3    H137892   6.702   0.188   1.984 -0.6295  0.3859 -1.4765
 5419TIP3    H237893   6.588   0.287   1.994 -0.1282  0.8013  0.5662
 5420TIP3   OH237894   6.003   2.241   1.098 -0.4310  0.1869  0.3151
 5420TIP3    H137895   5.958   2.247   1.013  1.9872  0.3586 -1.0231
 5420TIP3    H237896   6.053   2.160   1.092 -0.4444  0.0659  1.7186
 5421TIP3   OH237897   6.467   5.248   8.576  0.0668 -0.0646 -0.3944
 5421TIP3    H137898   6.523   5.188   8.626 -0.7193 -0.0577  0.5233
 5421TIP3    H237899   6.473   5.331   8.624  0.7064  0.4546 -1.3387
 5422TIP3   OH237900   6.621   6.337   1.283 -0.2335  0.1425 -0.1493
 5422TIP3    H137901   6.617   6.283   1.362  0.8214 -2.6367 -1.8135
 5422TIP3    H237902   6.537   6.320   1.239  0.7123 -1.5832 -1.4380
 5423TIP3   OH237903   0.085   5.799   2.449  0.9777 -0.2348  0.8467
 5423TIP3    H137904   0.033   5.721   2.470  0.6458 -0.0639  0.6657
 5423TIP3    H237905   0.171   5.764   2.424 -0.4428 -1.0137 -4.0081
 5424TIP3   OH237906   4.509   1.335   8.341  0.7546 -0.3233  0.0151
 5424TIP3    H137907   4.471   1.311   8.257  1.2604 -1.7297  0.1627
 5424TIP3    H237908   4.459   1.284   8.405  1.0246 -0.0260  0.4716
 5425TIP3   OH237909   5.322   2.224   0.351 -0.1558 -0.3175  0.2429
 5425TIP3    H137910   5.412   2.232   0.321 -0.0437  2.0150  1.0605
 5425TIP3    H237911   5.315   2.133   0.382  2.0689 -0.3722  0.7098
 5426TIP3   OH237912   3.336   6.616   2.346  0.1364  0.2941  0.7043
 5426TIP3    H137913   3.290   6.532   2.340 -1.3226  1.1431 -0.6810
 5426TIP3    H237914   3.347   6.631   2.440  0.0794 -1.2466  0.9791
 5427TIP3   OH237915   6.573   3.028   9.066  0.2111 -0.0726 -0.3272
 5427TIP3    H137916   6.582   3.070   8.980  1.0014 -1.1450 -0.7965
 5427TIP3    H237917   6.487   2.987   9.064  0.1027  0.1593 -0.4846
 5428TIP3   OH237918   4.770   5.979   8.390 -0.1427 -0.2686 -0.6700
 5428TIP3    H137919   4.851   5.955   8.434 -0.3473  1.3889  0.7095
 5428TIP3    H237920   4.786   5.956   8.298  1.1876 -1.6128 -0.1543
 5429TIP3   OH237921   6.322   5.424   1.526  0.5558 -0.0908 -0.3959
 5429TIP3    H137922   6.239   5.385   1.553  0.8265  0.5109  1.4116
 5429TIP3    H237923   6.380   5.414   1.601  1.4654  1.3355 -0.8562
 5430TIP3   OH237924   0.455   1.271   0.482 -0.0356 -0.5467 -0.0931
 5430TIP3    H137925   0.458   1.354   0.529 -3.0342  0.1140 -0.8084
 5430TIP3    H237926   0.453   1.204   0.551  0.5879  0.0872  0.5473
 5431TIP3   OH237927   0.500   0.797   0.640 -0.0097 -0.2727  0.2701
 5431TIP3    H137928   0.447   0.877   0.640 -0.8124 -0.7863 -0.2764
 5431TIP3    H237929   0.442   0.731   0.680 -0.0752 -1.0173 -1.0028
 5432TIP3   OH237930   3.906   3.313   7.465 -0.2568  0.1642  0.6535
 5432TIP3    H137931   3.987   3.343   7.506 -0.2927 -0.2833  1.0590
 5432TIP3    H237932   3.888   3.228   7.506 -0.9468  0.2747  0.5877
 5433TIP3   OH237933   3.207   1.606   8.026  0.5007  0.3087  0.2538
 5433TIP3    H137934   3.183   1.636   7.939 -0.5721 -0.3473  0.3031
 5433TIP3    H237935   3.283   1.659   8.050  0.1161  1.2823 -0.6190
 5434TIP3   OH237936   1.523   6.287   2.883 -0.3466  0.4721  1.1023
 5434TIP3    H137937   1.514   6.249   2.795 -0.3025 -0.0249  1.3104
 5434TIP3    H237938   1.444   6.260   2.929 -0.5137  0.9883  1.1260
 5435TIP3   OH237939   0.093   6.616   0.298 -0.3918 -0.3630 -0.2033
 5435TIP3    H137940   0.082   6.527   0.332 -0.4356 -0.2406  0.1003
 5435TIP3    H237941   0.004   6.652   0.295 -0.3476 -0.2476 -0.1106
 5436TIP3   OH237942   4.758   1.920   8.556 -0.1529 -0.0948 -0.0774
 5436TIP3    H137943   4.676   1.918   8.605 -0.3045 -0.6924 -0.3451
 5436TIP3    H237944   4.731   1.910   8.464  0.0388  2.0274 -0.4081
 5437TIP3   OH237945   6.343   0.998   1.563  0.6163 -1.0513  0.2472
 5437TIP3    H137946   6.390   0.923   1.526  0.7120 -0.8715  0.0003
 5437TIP3    H237947   6.411   1.065   1.574  0.4420 -0.8328  0.0056
 5438TIP3   OH237948   4.947   4.621   1.762 -0.4567  0.2426  0.0786
 5438TIP3    H137949   5.028   4.601   1.809 -1.0710  1.3721  1.7330
 5438TIP3    H237950   4.959   4.710   1.729 -0.7000  0.0998 -0.4046
 5439TIP3   OH237951   5.717   1.760   1.517  0.2457  0.5896  0.5250
 5439TIP3    H137952   5.728   1.668   1.544 -1.4929  0.5821  1.3596
 5439TIP3    H237953   5.802   1.785   1.481  0.1740 -2.0049 -1.7561
 5440TIP3   OH237954   3.505   3.103   1.159  0.5229 -0.4076  0.0272
 5440TIP3    H137955   3.567   3.041   1.120  1.5802 -1.0283  2.4864
 5440TIP3    H237956   3.558   3.179   1.182 -0.3757  0.5800 -1.0879
 5441TIP3   OH237957   0.344   6.127   8.084  0.0312 -0.0409 -0.5300
 5441TIP3    H137958   0.436   6.100   8.084  0.3693  1.0568  0.1645
 5441TIP3    H237959   0.298   6.053   8.044  1.4007  0.1010 -2.5451
 5442TIP3   OH237960   5.220   2.585   1.686 -0.1728 -0.3306  0.5767
 5442TIP3    H137961   5.262   2.503   1.711  0.5159 -0.7751 -1.8003
 5442TIP3    H237962   5.289   2.635   1.644 -1.4667 -0.1972 -1.5009
 5443TIP3   OH237963   1.594   3.387   3.478  0.2614 -0.0482  0.1572
 5443TIP3    H137964   1.649   3.330   3.532 -0.1381 -0.5303  0.0689
 5443TIP3    H237965   1.549   3.444   3.541 -0.4562 -0.8294  0.3836
 5444TIP3   OH237966   5.765   4.681   1.992 -0.1989  0.2071  0.1438
 5444TIP3    H137967   5.737   4.746   1.927  0.8624  2.1727  1.5426
 5444TIP3    H237968   5.684   4.645   2.027 -0.8213 -1.5777 -2.8056
 5445TIP3   OH237969   1.506   6.396   1.216  0.3366  0.2160  0.4794
 5445TIP3    H137970   1.587   6.411   1.265 -1.6341  1.3967  3.7048
 5445TIP3    H237971   1.454   6.475   1.231 -1.1561 -0.1088 -2.2411
 5446TIP3   OH237972   3.817   0.917   8.270 -0.0572  0.3922 -0.2271
 5446TIP3    H137973   3.837   0.978   8.341 -1.9572  1.3102 -0.4195
 5446TIP3    H237974   3.728   0.888   8.287  0.0158 -0.5978 -1.3782
 5447TIP3   OH237975   3.315   0.499   9.008  0.0717  0.5323  0.1832
 5447TIP3    H137976   3.259   0.576   9.021  0.0856  0.7171 -0.7164
 5447TIP3    H237977   3.376   0.501   9.081 -0.3820  0.9798  0.5551
 5448TIP3   OH237978   2.593   5.482   8.031 -0.0760 -0.3097 -0.1817
 5448TIP3    H137979   2.672   5.436   8.001 -0.0126 -0.2813 -0.0602
 5448TIP3    H237980   2.587   5.460   8.124  1.3678  1.9107  0.5127
 5449TIP3   OH237981   0.582   5.150   2.467  0.4904  0.1388  0.1427
 5449TIP3    H137982   0.549   5.156   2.378 -1.5806 -1.5837  0.7049
 5449TIP3    H237983   0.655   5.212   2.470  0.4744  0.4099 -2.6452
 5450TIP3   OH237984   4.486   0.791   0.589  0.2944 -0.0504  0.3469
 5450TIP3    H137985   4.500   0.765   0.680  3.3520  3.0215  0.9561
 5450TIP3    H237986   4.432   0.870   0.596  1.7791  1.0643 -0.2927
 5451TIP3   OH237987   4.124   1.793   1.920 -0.0085 -0.0621 -0.8064
 5451TIP3    H137988   4.091   1.881   1.941  2.2490  1.4420 -2.9024
 5451TIP3    H237989   4.191   1.777   1.986 -0.2701 -0.1160 -0.5518
 5452TIP3   OH237990   2.940   1.819   8.111  0.4198 -0.4669  0.0280
 5452TIP3    H137991   2.947   1.860   8.025  0.6065 -0.9939 -0.2131
 5452TIP3    H237992   2.970   1.887   8.172 -0.3288  0.1308 -0.2557
 5453TIP3   OH237993   3.760   1.768   2.686 -0.0505  0.2840 -0.3777
 5453TIP3    H137994   3.817   1.793   2.613  0.6535  1.6359  0.5965
 5453TIP3    H237995   3.814   1.710   2.740 -0.7803 -1.2454 -1.2079
 5454TIP3   OH237996   3.008   3.593   2.722 -0.4108  0.5913 -0.2074
 5454TIP3    H137997   2.965   3.516   2.759  0.2190  0.9846  1.4268
 5454TIP3    H237998   3.057   3.559   2.647 -0.1017 -0.6064  0.5185
 5455TIP3   OH237999   3.342   4.345   9.077  0.1634  0.2963 -0.0705
 5455TIP3    H138000   3.278   4.400   9.124 -1.4946 -0.7517 -0.9850
 5455TIP3    H238001   3.399   4.407   9.033 -0.2308  1.2754  0.7508
 5456TIP3   OH238002   3.233   0.196   7.915 -0.1506 -0.1682  0.0539
 5456TIP3    H138003   3.247   0.280   7.870 -2.3587  0.2416  0.0037
 5456TIP3    H238004   3.236   0.131   7.846  3.0624 -0.4108  0.2689
 5457TIP3   OH238005   6.171   2.357   0.644  0.1753 -0.7819 -0.0177
 5457TIP3    H138006   6.089   2.399   0.672  1.0232  0.7634  0.2727
 5457TIP3    H238007   6.150   2.317   0.560 -0.4264  1.1653 -0.8442
 5458TIP3   OH238008   5.424   3.111   0.500  0.1875  0.2927  0.0532
 5458TIP3    H138009   5.512   3.149   0.508 -0.0960  0.8923  0.3639
 5458TIP3    H238010   5.438   3.028   0.454  0.8906  0.4875 -0.0967
 5459TIP3   OH238011   5.286   3.807   2.036  0.1978  0.5968  0.9645
 5459TIP3    H138012   5.276   3.785   2.129  0.0430 -0.6803  0.6716
 5459TIP3    H238013   5.362   3.757   2.008  0.2051  0.9308  0.3823
 5460TIP3   OH238014   0.693   5.019   2.900 -0.4198  1.1802  0.2911
 5460TIP3    H138015   0.655   5.000   2.986  1.3245 -2.7434  0.3881
 5460TIP3    H238016   0.776   5.063   2.920 -0.0668  0.3731  0.6434
 5461TIP3   OH238017   6.354   2.010   8.275  0.1726  0.3243 -0.1598
 5461TIP3    H138018   6.335   1.989   8.366 -0.6594 -0.8391 -0.5838
 5461TIP3    H238019   6.397   2.096   8.279 -2.0592  1.4768  1.1464
 5462TIP3   OH238020   0.030   0.343   3.372  0.1278  0.4232 -0.0865
 5462TIP3    H138021  -0.053   0.358   3.418  0.5144  1.6192  0.2647
 5462TIP3    H238022   0.092   0.402   3.415  0.7216  0.9314 -1.5660
 5463TIP3   OH238023   5.670   2.193   2.218  0.3122  0.3393  0.1725
 5463TIP3    H138024   5.639   2.136   2.148 -0.1645 -0.2100  0.8143
 5463TIP3    H238025   5.759   2.162   2.236  0.7847  1.0696 -0.7813
 5464TIP3   OH238026   0.035   6.724   3.282  0.3614  0.6283  0.4650
 5464TIP3    H138027  -0.040   6.736   3.341 -1.2044  0.0308 -1.2872
 5464TIP3    H238028   0.065   6.635   3.298  0.3311  0.6710  0.7684
 5465TIP3   OH238029   5.111   0.686   0.548 -0.5744  0.1928 -0.1737
 5465TIP3    H138030   5.196   0.648   0.571 -0.3678  0.0425 -1.1445
 5465TIP3    H238031   5.072   0.709   0.632  0.3622  0.1250  0.2970
 5466TIP3   OH238032   4.450   4.721   0.959 -0.5807  0.4895  0.4958
 5466TIP3    H138033   4.486   4.810   0.955 -0.7301  0.5200 -0.2856
 5466TIP3    H238034   4.517   4.671   1.005 -0.0768  0.8103  0.1227
 5467TIP3   OH238035   2.146   4.138   2.523  0.4088 -0.1850  0.5008
 5467TIP3    H138036   2.184   4.127   2.610 -0.0732 -0.7557  0.6433
 5467TIP3    H238037   2.173   4.225   2.496 -0.8661  0.6962  1.9366
 5468TIP3   OH238038   0.437   6.057   2.656 -0.0453  0.0671 -0.3325
 5468TIP3    H138039   0.369   6.023   2.598 -0.2313  0.6576 -0.4610
 5468TIP3    H238040   0.390   6.096   2.729  0.1145  1.3982 -0.9237
 5469TIP3   OH238041   5.041   0.246   3.399 -0.1776  0.5335 -0.3661
 5469TIP3    H138042   4.961   0.285   3.436 -0.4455 -0.7707  0.4938
 5469TIP3    H238043   5.038   0.269   3.306 -0.6585  1.9595 -0.0201
 5470TIP3   OH238044   5.456   4.222   1.844 -0.0694 -0.5688 -0.1100
 5470TIP3    H138045   5.451   4.313   1.814 -2.4463  0.3453  2.5549
 5470TIP3    H238046   5.531   4.185   1.798 -0.0253  2.2256 -2.5586
 5471TIP3   OH238047   4.699   5.573   8.613 -0.5425  0.2029 -0.5632
 5471TIP3    H138048   4.767   5.516   8.577 -0.4113 -1.5266  2.0738
 5471TIP3    H238049   4.622   5.517   8.619 -0.1245 -0.2749  3.1144
 5472TIP3   OH238050   1.926   6.701   1.919  0.0588  0.5197 -0.7329
 5472TIP3    H138051   1.905   6.680   1.828 -0.6528 -2.6554  0.0290
 5472TIP3    H238052   1.895   6.625   1.969  0.9517  1.8763  2.1126
 5473TIP3   OH238053   6.638   5.340   0.348  0.1218  0.6239  0.4774
 5473TIP3    H138054   6.579   5.295   0.408 -0.6665 -1.0061 -1.4139
 5473TIP3    H238055   6.726   5.322   0.382 -0.3212  0.4500  1.5759
 5474TIP3   OH238056   1.783   0.141   1.333  0.0753  0.0136 -0.7309
 5474TIP3    H138057   1.878   0.129   1.331 -0.1652 -2.3756 -0.6785
 5474TIP3    H238058   1.748   0.053   1.336 -2.2030  0.8106 -1.6586
 5475TIP3   OH238059   3.734   6.365   1.840  0.3021  0.5238  0.3204
 5475TIP3    H138060   3.826   6.364   1.866 -0.0360  1.6887  1.6938
 5475TIP3    H238061   3.708   6.273   1.841  0.6613  0.3669  3.0291
 5476TIP3   OH238062   3.333   4.315   1.644 -0.5313  0.0413  0.0182
 5476TIP3    H138063   3.286   4.290   1.723 -0.2656  1.2333  0.5738
 5476TIP3    H238064   3.266   4.320   1.576 -1.0086  0.5412  0.5219
 5477TIP3   OH238065   6.088   5.340   1.674  0.2186  0.3227  0.6327
 5477TIP3    H138066   6.151   5.302   1.735 -0.0913 -0.2139  0.6182
 5477TIP3    H238067   6.034   5.267   1.645  0.5242  0.5288 -0.4922
 5478TIP3   OH238068   3.304   1.622   2.969 -0.1535  0.1614 -0.4213
 5478TIP3    H138069   3.382   1.577   2.937  0.6971  1.4987 -0.3179
 5478TIP3    H238070   3.337   1.681   3.037 -1.8107 -2.3446  2.8304
 5479TIP3   OH238071   4.672   6.678   7.539  0.1015  1.0198 -0.2388
 5479TIP3    H138072   4.693   6.600   7.488 -1.1498  0.1710  0.4999
 5479TIP3    H238073   4.589   6.709   7.503 -0.4751  0.7718  0.8338
 5480TIP3   OH238074   4.136   3.613   1.434  0.2545  0.4048  0.1770
 5480TIP3    H138075   4.152   3.673   1.361  0.3489  1.1141  0.7606
 5480TIP3    H238076   4.108   3.670   1.506 -1.8103 -0.4651  0.1336
 5481TIP3   OH238077   0.752   1.581   2.750 -0.0289  0.3715 -1.0696
 5481TIP3    H138078   0.693   1.561   2.823  0.9590  0.1743 -0.3003
 5481TIP3    H238079   0.834   1.538   2.774  0.4873  0.8147 -2.0190
 5482TIP3   OH238080   3.627   0.706   7.631 -0.2400 -0.0802  0.3750
 5482TIP3    H138081   3.606   0.706   7.538  0.4752  0.2834  0.2001
 5482TIP3    H238082   3.583   0.629   7.667 -2.6330  1.1549  0.2427
 5483TIP3   OH238083   2.801   6.499   2.072  0.0376 -0.1751  0.8926
 5483TIP3    H138084   2.717   6.493   2.027  0.4151 -1.0289  0.2947
 5483TIP3    H238085   2.848   6.420   2.046  0.3458 -0.6005  2.6253
 5484TIP3   OH238086   3.107   0.711   8.331  0.2763  0.4073  0.2210
 5484TIP3    H138087   3.105   0.770   8.407 -0.1758  1.0938 -0.3150
 5484TIP3    H238088   3.161   0.756   8.267  0.1607  0.1102 -0.0876
 5485TIP3   OH238089   2.404   4.923   0.995  0.6291 -0.1268  0.8858
 5485TIP3    H138090   2.456   4.916   0.915  1.3289 -1.2621  1.4164
 5485TIP3    H238091   2.359   4.838   1.001 -1.8236  1.0089  0.1110
 5486TIP3   OH238092   1.209   6.477   0.468  0.2025 -0.0010  0.4983
 5486TIP3    H138093   1.232   6.466   0.560  0.6688  0.0933  0.3923
 5486TIP3    H238094   1.192   6.571   0.460 -0.2062 -0.0667  0.5720
 5487TIP3   OH238095   1.453   4.457   2.085 -0.0295  0.4312  0.4020
 5487TIP3    H138096   1.440   4.501   2.169 -1.6572  2.0711 -0.6342
 5487TIP3    H238097   1.516   4.513   2.039  1.1391 -0.6544  0.6171
 5488TIP3   OH238098   2.323   6.462   2.075  0.0852 -0.3575  0.1926
 5488TIP3    H138099   2.284   6.376   2.083  1.2144 -0.8670  0.4371
 5488TIP3    H238100   2.284   6.513   2.146  0.3889 -1.0630  0.8743
 5489TIP3   OH238101   5.296   5.455   8.685 -0.1122  0.5080 -0.0570
 5489TIP3    H138102   5.390   5.439   8.679 -0.2658 -1.2936  1.4409
 5489TIP3    H238103   5.259   5.399   8.616 -0.2135 -0.9391  1.1070
 5490TIP3   OH238104   2.443   4.463   7.544 -0.0921 -0.9192 -0.0325
 5490TIP3    H138105   2.524   4.505   7.515 -0.6012 -0.5714 -0.9654
 5490TIP3    H238106   2.383   4.535   7.563 -1.1018 -1.1661 -2.0078
 5491TIP3   OH238107   2.716   1.066   9.078 -0.1977 -0.2494 -0.3257
 5491TIP3    H138108   2.690   1.068   9.170 -0.6660 -0.5414 -0.4538
 5491TIP3    H238109   2.791   1.006   9.076 -0.3946 -0.5024 -0.1886
 5492TIP3   OH238110   4.012   3.515   2.275 -0.5994  0.1414 -0.4571
 5492TIP3    H138111   3.934   3.531   2.327 -1.1198  3.0265 -1.9189
 5492TIP3    H238112   4.076   3.481   2.337 -1.7932  1.5361  1.6558
 5493TIP3   OH238113   4.286   0.331   1.298 -0.2402 -0.1115  0.1624
 5493TIP3    H138114   4.223   0.259   1.308  1.2754 -1.4043  1.0000
 5493TIP3    H238115   4.271   0.387   1.374  0.0793 -0.7929  0.7339
 5494TIP3   OH238116   4.954   6.705   0.328 -0.8443  0.3508 -0.4489
 5494TIP3    H138117   4.963   6.639   0.260 -0.9091 -0.3897  0.2463
 5494TIP3    H238118   4.904   6.776   0.287  0.1634  0.4692 -1.5371
 5495TIP3   OH238119   2.930   4.685   8.486  0.2998 -0.6997 -0.3179
 5495TIP3    H138120   2.849   4.686   8.435  0.7833  0.4106 -1.0935
 5495TIP3    H238121   2.978   4.762   8.457  2.2935 -2.0760 -0.9261
 5496TIP3   OH238122   6.404   1.773   0.414 -0.3510 -0.1601 -0.2591
 5496TIP3    H138123   6.431   1.797   0.503 -0.4116 -1.1696  0.0393
 5496TIP3    H238124   6.329   1.715   0.426 -1.6680  1.2929 -1.0414
 5497TIP3   OH238125   0.171   3.500   1.770 -0.8860  0.7539  0.3653
 5497TIP3    H138126   0.077   3.485   1.759 -0.7031  0.6241 -1.1069
 5497TIP3    H238127   0.210   3.468   1.689  0.1877  3.0114 -0.0655
 5498TIP3   OH238128   6.157   1.372   2.446  0.4982 -0.0776  0.0026
 5498TIP3    H138129   6.136   1.430   2.519  1.8801  0.9002 -0.3347
 5498TIP3    H238130   6.146   1.426   2.368 -0.4746 -0.9682 -0.4906
 5499TIP3   OH238131   1.882   0.830   0.907  0.0371 -0.3586  0.8008
 5499TIP3    H138132   1.970   0.800   0.887  0.8985  0.3479  3.2351
 5499TIP3    H238133   1.869   0.809   0.999 -1.7533  0.9124  0.9015
 5500TIP3   OH238134   0.931   3.964   1.324  0.1240 -0.0916  0.2961
 5500TIP3    H138135   0.884   3.883   1.340  1.0304 -0.8421 -0.7410
 5500TIP3    H238136   0.864   4.026   1.295 -0.9963  0.2842  3.2741
 5501TIP3   OH238137   0.743   5.874   2.020  0.0448 -0.2989  0.3928
 5501TIP3    H138138   0.834   5.861   2.047  0.6191 -0.1917 -1.3607
 5501TIP3    H238139   0.702   5.917   2.094  1.3606 -0.5529  1.3113
 5502TIP3   OH238140   5.192   2.212   1.131 -0.3236 -0.4623 -0.6092
 5502TIP3    H138141   5.209   2.295   1.086 -1.1395  0.1595  0.2002
 5502TIP3    H238142   5.097   2.210   1.143 -0.7184 -2.7438 -2.9445
 5503TIP3   OH238143   4.304   2.502   7.832 -0.3600  0.0465  0.3019
 5503TIP3    H138144   4.226   2.452   7.809 -1.0485 -1.2175  4.4664
 5503TIP3    H238145   4.376   2.441   7.817 -1.0095 -1.6769  3.3638
 5504TIP3   OH238146   0.140   1.005   8.923  0.6055  0.1842  0.2855
 5504TIP3    H138147   0.178   1.011   9.010  2.4303  1.4026 -0.5511
 5504TIP3    H238148   0.179   1.077   8.873 -2.0730  0.9300 -0.9584
 5505TIP3   OH238149   5.753   3.937   1.469  0.3845  0.4147  0.4467
 5505TIP3    H138150   5.678   3.884   1.496  0.0712  1.1603  1.0884
 5505TIP3    H238151   5.795   3.886   1.400  0.7800 -1.2419  1.8300
 5506TIP3   OH238152   6.571   0.384   8.811  0.3713 -0.1003  0.3394
 5506TIP3    H138153   6.487   0.406   8.771  0.7324  0.2978 -0.2128
 5506TIP3    H238154   6.577   0.289   8.802 -0.0089 -0.1320  0.3690
 5507TIP3   OH238155   2.194   5.050   3.427  0.4592  0.0324 -0.2983
 5507TIP3    H138156   2.284   5.023   3.409 -0.3011 -1.3164 -2.6142
 5507TIP3    H238157   2.153   4.973   3.467 -0.3770 -0.5168 -2.0851
 5508TIP3   OH238158   3.665   6.000   0.942  0.3279 -0.3348  0.0730
 5508TIP3    H138159   3.593   6.051   0.977  0.1861  0.9378 -1.9455
 5508TIP3    H238160   3.649   5.911   0.974 -1.5695  0.1171  0.4914
 5509TIP3   OH238161   1.916   4.498   1.657  0.0086  0.2687 -0.3141
 5509TIP3    H138162   1.895   4.419   1.708 -0.7581 -0.0969 -1.1817
 5509TIP3    H238163   2.008   4.516   1.679  0.6381 -1.6653 -1.1032
 5510TIP3   OH238164   4.990   4.209   7.697  0.6151  0.0565 -0.0900
 5510TIP3    H138165   5.025   4.167   7.618  1.9233  0.4755  0.2428
 5510TIP3    H238166   5.016   4.301   7.689  0.4960  0.1649  0.6745
 5511TIP3   OH238167   3.487   2.743   1.236 -0.2843 -0.0631  0.4191
 5511TIP3    H138168   3.393   2.729   1.243 -0.1083 -0.4724  2.2716
 5511TIP3    H238169   3.516   2.761   1.325  1.7300 -2.1009  0.2715
 5512TIP3   OH238170   4.874   5.322   1.282 -1.1213 -0.3187  0.6842
 5512TIP3    H138171   4.947   5.366   1.239 -1.3761 -1.2047 -0.7586
 5512TIP3    H238172   4.870   5.235   1.240 -2.7329 -0.4366  0.9996
 5513TIP3   OH238173   1.992   3.243   3.286  0.6508 -0.4415  0.5051
 5513TIP3    H138174   2.051   3.169   3.293 -0.0025 -0.8800  1.6945
 5513TIP3    H238175   2.024   3.306   3.351  1.7638  0.7700 -1.1252
 5514TIP3   OH238176   5.862   4.494   7.789  0.0577 -0.0890 -0.1480
 5514TIP3    H138177   5.876   4.536   7.705 -0.6227 -0.0335 -0.2405
 5514TIP3    H238178   5.773   4.459   7.784 -0.5107  1.0784  1.0305
 5515TIP3   OH238179   1.278   6.276   8.919 -0.6475  0.0376  0.0015
 5515TIP3    H138180   1.267   6.303   9.010  0.8712 -0.6910  0.4326
 5515TIP3    H238181   1.266   6.181   8.920  1.2725 -0.2563 -0.1656
 5516TIP3   OH238182   0.493   5.241   8.786 -0.5466 -0.0934  0.1739
 5516TIP3    H138183   0.473   5.185   8.862  2.5421  1.5651  2.4292
 5516TIP3    H238184   0.409   5.283   8.766 -2.3059 -3.2477  0.1953
 5517TIP3   OH238185   4.927   5.135   8.507 -0.2251 -0.3177  0.2004
 5517TIP3    H138186   4.853   5.125   8.568 -0.4459 -0.5326 -0.1028
 5517TIP3    H238187   4.981   5.057   8.521  0.9339  0.6860  1.7452
 5518TIP3   OH238188   5.521   3.011   8.184  0.3202 -0.2292  0.1614
 5518TIP3    H138189   5.608   3.037   8.154  0.5154  1.0907  1.7452
 5518TIP3    H238190   5.497   2.937   8.128  2.3712 -0.4942 -0.4250
 5519TIP3   OH238191   3.876   0.689   1.182  0.1292 -0.3802 -0.2106
 5519TIP3    H138192   3.909   0.606   1.218  0.7042 -0.6265 -1.2728
 5519TIP3    H238193   3.861   0.671   1.089 -0.6624  0.4431 -0.2609
 5520TIP3   OH238194   5.585   6.575   2.704  0.6719  0.1157  0.0546
 5520TIP3    H138195   5.601   6.486   2.671  1.4583 -0.6551  2.3156
 5520TIP3    H238196   5.592   6.567   2.799  0.9415  2.6511  0.3223
 5521TIP3   OH238197   3.626   5.371   0.358 -0.3163 -0.1771  0.3257
 5521TIP3    H138198   3.583   5.440   0.408 -1.7664 -1.0588  0.3737
 5521TIP3    H238199   3.716   5.401   0.347 -1.0365  2.0093 -0.1997
 5522TIP3   OH238200   4.005   0.358   0.370 -0.3060 -0.1312  0.1868
 5522TIP3    H138201   3.924   0.329   0.412 -0.8222  0.5917 -0.2720
 5522TIP3    H238202   4.021   0.445   0.408  0.5732 -0.5115  0.6972
 5523TIP3   OH238203   3.941   1.927   0.801  0.4361 -0.0036  0.7111
 5523TIP3    H138204   3.915   1.868   0.731  0.5522 -1.2650  1.7002
 5523TIP3    H238205   3.877   1.998   0.798  0.9642  0.4672 -1.2301
 5524TIP3   OH238206   4.129   4.475   2.097  0.1928 -0.0998  0.1660
 5524TIP3    H138207   4.173   4.389   2.097 -0.6855 -0.5989  2.1441
 5524TIP3    H238208   4.145   4.510   2.185 -2.1304  0.3378  0.4652
 5525TIP3   OH238209   5.775   0.926   8.220  0.0778  0.0649  0.1832
 5525TIP3    H138210   5.753   0.868   8.147  2.4243  0.8957 -1.3169
 5525TIP3    H238211   5.738   1.011   8.195  0.3910  0.2113  0.1982
 5526TIP3   OH238212   4.031   3.040   2.176 -0.0170  0.4927  0.1451
 5526TIP3    H138213   4.034   2.959   2.125  0.1429 -0.4564  1.5700
 5526TIP3    H238214   4.039   3.110   2.112  1.9449 -0.6691 -0.9757
 5527TIP3   OH238215   1.481   5.378   8.019  0.0108  0.2206  0.2230
 5527TIP3    H138216   1.540   5.307   7.996  0.6257  0.5722  0.6897
 5527TIP3    H238217   1.400   5.335   8.046  0.0260 -0.2600 -0.4623
 5528TIP3   OH238218   4.032   0.346   1.119  0.0413  0.1313 -0.1124
 5528TIP3    H138219   4.111   0.310   1.160  0.0310  0.9412  0.6398
 5528TIP3    H238220   3.987   0.392   1.190 -0.7520  0.2759 -0.7003
 5529TIP3   OH238221   2.515   0.929   0.993  0.1185  0.2589 -0.4869
 5529TIP3    H138222   2.496   1.003   1.051 -0.6579  2.0772 -2.8929
 5529TIP3    H238223   2.429   0.892   0.972  0.3342  0.0453 -0.9975
 5530TIP3   OH238224   2.023   6.503   8.040 -0.1106 -0.0071  0.1326
 5530TIP3    H138225   2.042   6.434   8.104 -0.1570  1.3958  1.7110
 5530TIP3    H238226   2.102   6.506   7.985  0.8144  0.1450  1.4177
 5531TIP3   OH238227   1.581   1.422   8.972 -0.4561 -0.0707 -0.5165
 5531TIP3    H138228   1.540   1.428   9.059  0.1252 -2.7337  0.0408
 5531TIP3    H238229   1.513   1.453   8.912 -1.5952  0.0209  0.7449
 5532TIP3   OH238230   2.082   1.260   0.612  0.2936 -0.2118  0.1321
 5532TIP3    H138231   2.022   1.218   0.551 -0.5372  3.7408 -2.1078
 5532TIP3    H238232   2.167   1.219   0.596 -0.6455 -1.7579 -1.0281
 5533TIP3   OH238233   0.074   4.777   8.060  0.1057  0.0446 -0.1019
 5533TIP3    H138234   0.040   4.731   7.983 -0.4848  1.4128 -0.7084
 5533TIP3    H238235   0.169   4.769   8.053  0.0832  0.5129 -1.2488
 5534TIP3   OH238236   1.270   0.263   0.536  0.4186  0.5887 -0.1905
 5534TIP3    H138237   1.247   0.306   0.618  0.3292  0.7013 -0.2757
 5534TIP3    H238238   1.348   0.309   0.506  2.3837 -1.4273  1.4220
 5535TIP3   OH238239   3.729   0.560   8.338  0.3437  0.2996  0.4122
 5535TIP3    H138240   3.683   0.633   8.380 -1.9570 -0.3288 -0.8359
 5535TIP3    H238241   3.812   0.598   8.308 -0.7378  2.4083 -0.1120
 5536TIP3   OH238242   1.294   4.005   2.137  0.4077  0.0958 -0.2516
 5536TIP3    H138243   1.306   3.919   2.098 -0.1291 -0.1709  0.1608
 5536TIP3    H238244   1.201   4.008   2.162  0.4713  0.7068 -0.0658
 5537TIP3   OH238245   6.278   5.877   0.819 -0.1174  0.2085 -0.2751
 5537TIP3    H138246   6.193   5.848   0.787 -0.2764 -0.0372  0.3470
 5537TIP3    H238247   6.334   5.799   0.814  0.1518  0.4368 -0.9360
 5538TIP3   OH238248   1.919   4.364   1.142  0.0413 -0.6158 -0.1014
 5538TIP3    H138249   1.951   4.291   1.195 -0.2983 -0.2666  0.6022
 5538TIP3    H238250   1.921   4.439   1.201 -2.3969 -0.6397  0.1164
 5539TIP3   OH238251   2.511   4.218   0.268 -0.2378 -0.0493  0.3805
 5539TIP3    H138252   2.507   4.168   0.350  1.9013 -0.2976  0.3793
 5539TIP3    H238253   2.598   4.201   0.234 -0.3178  1.7910 -0.8631
 5540TIP3   OH238254   0.991   1.981   8.796 -0.8789 -0.2827 -0.2559
 5540TIP3    H138255   0.978   2.076   8.799 -2.0402 -0.4558  0.5286
 5540TIP3    H238256   1.032   1.965   8.711  1.0162  1.1008  0.3221
 5541TIP3   OH238257   4.911   3.699   3.869 -0.2416  0.4848 -0.2655
 5541TIP3    H138258   4.854   3.622   3.865  0.1514  0.2181 -0.8775
 5541TIP3    H238259   4.999   3.663   3.870 -0.0547  0.8164  2.4439
 5542TIP3   OH238260   0.379   6.602   7.434  0.0234  0.2947 -0.0090
 5542TIP3    H138261   0.466   6.642   7.441  0.3857 -0.3786 -0.5726
 5542TIP3    H238262   0.395   6.508   7.444 -0.7221  0.2259  0.5275
 5543TIP3   OH238263   4.867   3.237   0.375 -0.3821 -0.2286 -0.2380
 5543TIP3    H138264   4.866   3.330   0.351 -0.2322 -0.1639 -0.0059
 5543TIP3    H238265   4.960   3.216   0.386 -0.4752  0.5432  3.1710
 5544TIP3   OH238266   0.992   1.431   2.847  0.3123 -0.3295  0.0788
 5544TIP3    H138267   0.941   1.408   2.924 -0.7281 -0.2983 -0.5773
 5544TIP3    H238268   0.986   1.354   2.791 -0.7410  0.3992 -0.8689
 5545TIP3   OH238269   2.839   0.187   7.148  0.0061 -0.2206 -0.6238
 5545TIP3    H138270   2.896   0.193   7.071  0.4278  0.4158 -0.2764
 5545TIP3    H238271   2.888   0.232   7.217 -0.3815 -0.7607  0.0120
 5546TIP3   OH238272   4.068   3.119   0.374 -0.2285 -0.0095 -0.4946
 5546TIP3    H138273   4.084   3.072   0.456 -1.3343  0.4845  0.0205
 5546TIP3    H238274   4.144   3.098   0.320  0.2915 -0.7314  0.4745
 5547TIP3   OH238275   6.542   1.061   0.858  0.2662  0.2293 -0.1600
 5547TIP3    H138276   6.583   0.974   0.854  0.8520  0.5197 -0.5536
 5547TIP3    H238277   6.483   1.056   0.933 -0.3123 -0.7699 -0.6624
 5548TIP3   OH238278   4.942   5.628   2.008 -0.7551 -0.2339  0.3808
 5548TIP3    H138279   4.862   5.596   1.967 -0.1287 -0.2720 -0.8375
 5548TIP3    H238280   4.969   5.702   1.953  0.8228 -1.1142 -0.0847
 5549TIP3   OH238281   2.613   2.895   8.132  0.5235  0.0852  0.6318
 5549TIP3    H138282   2.535   2.942   8.104  0.4582  1.4295  2.8483
 5549TIP3    H238283   2.579   2.817   8.176  0.4965 -0.1280  0.2370
 5550TIP3   OH238284   0.285   1.844   0.065  0.1992  0.7281  0.1411
 5550TIP3    H138285   0.249   1.779   0.126  0.5179 -0.1946 -0.6255
 5550TIP3    H238286   0.241   1.925   0.088 -2.0460 -0.2385 -0.4346
 5551TIP3   OH238287   6.284   5.330   8.361 -0.3056  0.0299  0.1407
 5551TIP3    H138288   6.284   5.261   8.295  2.1297  1.1617 -1.1805
 5551TIP3    H238289   6.340   5.296   8.431 -0.3924  0.0559  0.2238
 5552TIP3   OH238290   1.143   2.907   7.900  0.6712 -0.5841  0.2150
 5552TIP3    H138291   1.052   2.900   7.929  1.1571 -0.4051  1.8778
 5552TIP3    H238292   1.137   2.934   7.809 -0.9358 -0.2564  0.3877
 5553TIP3   OH238293   5.905   0.356   0.859  0.0247  0.3418 -0.5471
 5553TIP3    H138294   5.932   0.379   0.770  0.1792 -0.7306 -0.7929
 5553TIP3    H238295   5.844   0.283   0.847  1.9844 -1.5453  0.3122
 5554TIP3   OH238296   5.052   3.194   3.564 -0.8087  0.1519  0.6580
 5554TIP3    H138297   5.009   3.113   3.591 -0.1509 -0.1221  0.9176
 5554TIP3    H238298   5.120   3.166   3.503  0.1787  0.3733  1.6274
 5555TIP3   OH238299   2.844   5.496   1.564 -0.1666  0.0890  0.7232
 5555TIP3    H138300   2.769   5.448   1.529  0.0547 -0.7709  1.3752
 5555TIP3    H238301   2.806   5.558   1.626 -0.3152 -0.7136  1.4526
 5556TIP3   OH238302   2.990   0.063   1.461 -0.1498 -0.1685 -0.6214
 5556TIP3    H138303   3.024   0.116   1.389  0.5073 -0.6233 -0.6563
 5556TIP3    H238304   2.924   0.119   1.502 -0.3025  0.2159 -1.3744
 5557TIP3   OH238305   1.347   0.120   8.695 -0.0288 -0.5414  0.4545
 5557TIP3    H138306   1.300   0.204   8.702 -0.8039 -0.9377  0.1475
 5557TIP3    H238307   1.352   0.088   8.784  1.1406  0.2791  0.7130
 5558TIP3   OH238308   5.643   4.217   2.441 -0.0369  0.4738 -0.1508
 5558TIP3    H138309   5.651   4.313   2.444  0.2133  0.5070 -1.3037
 5558TIP3    H238310   5.718   4.189   2.388 -0.2115 -0.3494  0.0321
 5559TIP3   OH238311   3.381   1.591   0.452 -0.3528 -0.1343  0.4238
 5559TIP3    H138312   3.468   1.555   0.438 -0.9065 -0.9354 -1.2230
 5559TIP3    H238313   3.337   1.528   0.509 -0.1051 -0.1192  0.6327
 5560TIP3   OH238314   5.980   3.688   1.024 -0.4567  0.4727 -0.4999
 5560TIP3    H138315   5.898   3.650   0.992 -1.4826 -0.5778  2.9616
 5560TIP3    H238316   6.036   3.613   1.043  0.4854  1.0878 -0.7930
 5561TIP3   OH238317   5.669   5.163   0.559 -0.0385  0.0438  0.3664
 5561TIP3    H138318   5.620   5.210   0.626  1.4150  2.2651 -0.0311
 5561TIP3    H238319   5.736   5.225   0.530  0.6774 -1.5728 -1.6905
 5562TIP3   OH238320   4.417   4.538   0.331  0.0513  0.3213 -0.0492
 5562TIP3    H138321   4.439   4.625   0.364 -0.1771  0.0747  0.8014
 5562TIP3    H238322   4.466   4.478   0.388 -0.0285 -0.1168 -0.4353
 5563TIP3   OH238323   4.254   0.470   2.282  0.5680 -0.2399  0.4958
 5563TIP3    H138324   4.263   0.566   2.281  0.8524 -0.2422 -1.4424
 5563TIP3    H238325   4.180   0.453   2.224  1.3386 -1.2514 -0.2189
 5564TIP3   OH238326   0.479   1.357   2.715  0.1710 -0.1867 -0.0322
 5564TIP3    H138327   0.553   1.335   2.771 -0.4126 -1.8576  0.1248
 5564TIP3    H238328   0.425   1.415   2.768 -0.2563 -1.5582  1.0648
 5565TIP3   OH238329   3.279   2.160   8.095 -0.0524 -0.9430  0.1465
 5565TIP3    H138330   3.266   2.236   8.151  0.7255 -2.0623  1.9403
 5565TIP3    H238331   3.202   2.159   8.037  1.2451  2.7553 -1.9530
 5566TIP3   OH238332   5.317   3.216   8.377  0.0136  0.2723 -0.1543
 5566TIP3    H138333   5.354   3.221   8.289 -0.2289  1.9407 -0.1916
 5566TIP3    H238334   5.358   3.139   8.416 -0.3508 -0.8664 -1.9332
 5567TIP3   OH238335   0.761   3.898   0.704 -0.0187  0.0064  0.1267
 5567TIP3    H138336   0.782   3.808   0.728 -0.2099 -0.3814 -1.0858
 5567TIP3    H238337   0.666   3.903   0.710 -0.1012 -0.2034 -0.8570
 5568TIP3   OH238338   5.156   5.207   1.887  0.1075 -0.3728  0.4019
 5568TIP3    H138339   5.166   5.151   1.809  1.6922  0.2533  0.1210
 5568TIP3    H238340   5.227   5.270   1.880 -0.2762  0.2579  1.9160
 5569TIP3   OH238341   0.610   6.066   8.462 -0.4171  0.2507  0.2412
 5569TIP3    H138342   0.625   6.137   8.399 -1.1472  1.2369  1.1284
 5569TIP3    H238343   0.525   6.030   8.437 -0.8305  0.8134  0.7754
 5570TIP3   OH238344   0.192   2.132   1.954 -0.3586 -0.4010 -0.4286
 5570TIP3    H138345   0.148   2.098   1.876  2.2028 -0.3572 -1.9836
 5570TIP3    H238346   0.232   2.055   1.994  1.1336  0.0119 -1.0715
 5571TIP3   OH238347   0.257   0.954   1.784  0.4451 -0.0701 -0.0801
 5571TIP3    H138348   0.272   0.892   1.712  1.5480  0.5073 -0.3635
 5571TIP3    H238349   0.344   0.985   1.808  0.0232  0.3114  1.0156
 5572TIP3   OH238350   4.300   4.781   3.380  0.2240 -0.0270 -0.3480
 5572TIP3    H138351   4.263   4.853   3.432  0.4016  0.1499 -0.4648
 5572TIP3    H238352   4.225   4.725   3.360 -1.0114  2.6467 -4.4699
 5573TIP3   OH238353   5.621   0.085   2.593 -0.0039 -0.4862  0.6907
 5573TIP3    H138354   5.693   0.122   2.644  0.6435 -0.6549 -0.0810
 5573TIP3    H238355   5.616  -0.006   2.620 -1.0558 -0.0701  1.9861
 5574TIP3   OH238356   6.419   5.722   1.258  0.0137 -0.2404  0.3523
 5574TIP3    H138357   6.379   5.794   1.210 -1.8545 -1.0591  0.6122
 5574TIP3    H238358   6.389   5.733   1.348 -0.8226 -1.6862  0.2702
 5575TIP3   OH238359   6.391   2.226   0.720  0.3389 -0.1338 -0.2059
 5575TIP3    H138360   6.317   2.271   0.681  2.1342  2.5587 -0.7579
 5575TIP3    H238361   6.414   2.159   0.656 -0.0355  0.7221 -1.2732
 5576TIP3   OH238362   4.149   4.462   0.677 -0.1149  0.3969  0.1610
 5576TIP3    H138363   4.213   4.398   0.646  0.8165  0.3563  2.0312
 5576TIP3    H238364   4.177   4.545   0.640 -0.8716 -0.0916 -1.6315
 5577TIP3   OH238365   1.624   6.637   1.405 -0.6319  0.2101 -0.2425
 5577TIP3    H138366   1.580   6.616   1.487 -0.5123  0.8281 -0.0165
 5577TIP3    H238367   1.687   6.565   1.393  1.0051  1.2683  1.4209
 5578TIP3   OH238368   2.679   2.133   2.838  0.3585  0.1283 -0.4353
 5578TIP3    H138369   2.768   2.098   2.836  0.1744 -0.4298  0.5832
 5578TIP3    H238370   2.668   2.166   2.928 -0.9204 -1.0220 -0.1397
 5579TIP3   OH238371   3.551   1.234   2.212 -0.2846  0.5146  0.5772
 5579TIP3    H138372   3.535   1.320   2.250 -0.2744 -0.5836  3.2875
 5579TIP3    H238373   3.637   1.208   2.246  0.8604  0.3601 -2.1534
 5580TIP3   OH238374   1.515   1.917   2.713 -0.5360 -0.2721  0.2089
 5580TIP3    H138375   1.475   1.880   2.635 -0.7458  0.5231 -0.0744
 5580TIP3    H238376   1.446   1.913   2.779 -0.1697 -1.4932  0.5384
 5581TIP3   OH238377   0.948   0.376   1.319  0.1216 -0.8495 -0.1398
 5581TIP3    H138378   0.858   0.353   1.342  0.5423 -2.3598  0.1143
 5581TIP3    H238379   0.955   0.351   1.227  0.2544 -0.6398 -0.1861
 5582TIP3   OH238380   6.272   0.632   8.869 -0.1886 -0.0654  0.5157
 5582TIP3    H138381   6.285   0.691   8.795  1.1760  0.4759  1.1538
 5582TIP3    H238382   6.287   0.545   8.833  1.0106  0.2307  0.2641
 5583TIP3   OH238383   0.122   5.179   0.364  0.7718 -0.0799  0.1557
 5583TIP3    H138384   0.201   5.223   0.394  0.3913  0.6608  0.0782
 5583TIP3    H238385   0.141   5.154   0.274  0.7906  0.4152  0.0198
 5584TIP3   OH238386   2.031   4.368   2.786 -0.1097  0.2757  0.4012
 5584TIP3    H138387   2.029   4.449   2.735  1.3654 -0.4471 -0.8589
 5584TIP3    H238388   2.006   4.396   2.875 -0.6521  1.9133 -0.2222
 5585TIP3   OH238389   1.959   3.498   0.315 -0.1597 -0.3462 -0.1156
 5585TIP3    H138390   1.906   3.479   0.238 -0.5366 -1.4348  0.3958
 5585TIP3    H238391   1.900   3.483   0.389  0.6798 -1.0003  0.4427
 5586TIP3   OH238392   5.792   2.608   1.713 -0.4903  0.3141  0.3830
 5586TIP3    H138393   5.883   2.623   1.685  0.5834 -0.8348  2.9180
 5586TIP3    H238394   5.760   2.540   1.654  0.2002  0.8436 -0.6503
 5587TIP3   OH238395   4.715   3.679   1.157  0.2956 -0.9572  0.1178
 5587TIP3    H138396   4.735   3.758   1.108  0.4231 -0.5129  0.8633
 5587TIP3    H238397   4.680   3.618   1.092 -1.7850  0.4287 -0.1321
 5588TIP3   OH238398   3.871   6.258   0.250  0.1022  0.0917  0.2717
 5588TIP3    H138399   3.962   6.245   0.274 -0.1772 -2.9706  0.1368
 5588TIP3    H238400   3.874   6.306   0.168  1.6033 -0.1307  0.1705
 5589TIP3   OH238401   6.103   0.149   8.330  0.1399 -0.1424  0.2869
 5589TIP3    H138402   6.148   0.170   8.249 -0.3323 -1.2873 -0.2857
 5589TIP3    H238403   6.138   0.064   8.356 -1.3615 -0.8591  0.0477
 5590TIP3   OH238404   4.506   5.958   1.389 -0.1772 -0.2368  0.1386
 5590TIP3    H138405   4.423   5.961   1.342 -0.5696  0.1659  0.8254
 5590TIP3    H238406   4.482   5.935   1.479  0.4797 -0.3804  0.2832
 5591TIP3   OH238407   4.417   3.508   1.931 -0.5212  0.1298 -0.3843
 5591TIP3    H138408   4.450   3.430   1.886  3.0502  0.8412  0.6488
 5591TIP3    H238409   4.357   3.473   1.997  1.3874 -1.9244  0.4255
 5592TIP3   OH238410   6.150   3.298   2.962  0.2042  0.4210  0.0003
 5592TIP3    H138411   6.120   3.274   3.049 -1.2754 -0.8934 -0.8273
 5592TIP3    H238412   6.137   3.393   2.957  0.0597  0.4662  1.1098
 5593TIP3   OH238413   6.062   4.471   2.785  0.3327  0.1962  0.2620
 5593TIP3    H138414   6.144   4.508   2.751  0.3935 -0.7311 -0.6841
 5593TIP3    H238415   6.085   4.381   2.809 -0.6149 -0.3980 -0.9452
 5594TIP3   OH238416   1.697   4.741   8.023 -0.0848 -0.0911  0.0698
 5594TIP3    H138417   1.654   4.706   7.945 -2.1513  1.4176  0.4425
 5594TIP3    H238418   1.769   4.794   7.989  0.5319 -1.3539 -0.6656
 5595TIP3   OH238419   2.188   1.635   1.604  0.0260  0.1334 -0.2658
 5595TIP3    H138420   2.217   1.639   1.513 -1.1163 -1.1881 -0.7148
 5595TIP3    H238421   2.094   1.616   1.599  0.2428 -1.5693  1.1874
 5596TIP3   OH238422   4.687   3.615   0.806  0.0813 -0.0591 -0.1874
 5596TIP3    H138423   4.669   3.708   0.791  0.4366  0.9745  4.2710
 5596TIP3    H238424   4.600   3.575   0.817 -0.0113  0.2457  0.1878
 5597TIP3   OH238425   3.000   4.679   0.428  0.1750  0.2588 -0.0611
 5597TIP3    H138426   3.039   4.593   0.443 -0.4947 -0.0865 -0.2642
 5597TIP3    H238427   2.907   4.661   0.416  0.0089  1.0303  0.0423
 5598TIP3   OH238428   4.117   3.967   2.124  0.4583 -0.2570  0.3415
 5598TIP3    H138429   4.095   4.043   2.071  3.0765 -0.0338 -0.5551
 5598TIP3    H238430   4.211   3.975   2.140  0.6113 -2.7769  1.0998
 5599TIP3   OH238431   6.428   6.583   0.051 -0.5677  0.3910  0.2151
 5599TIP3    H138432   6.434   6.678   0.039 -1.3854  0.2238 -1.9556
 5599TIP3    H238433   6.514   6.550   0.026 -0.8731  0.4299 -0.9362
 5600TIP3   OH238434   2.513   6.383   2.601 -0.3694  0.1036 -0.3623
 5600TIP3    H138435   2.478   6.331   2.673  0.3020  1.6193  1.1519
 5600TIP3    H238436   2.547   6.462   2.643 -1.0854  1.6551 -2.5007
 5601TIP3   OH238437   1.010   6.319   2.417 -0.2686 -0.5066 -0.7760
 5601TIP3    H138438   1.085   6.259   2.409  0.1844 -0.4095  1.8290
 5601TIP3    H238439   0.933   6.264   2.404  0.1963 -1.3429 -0.1112
 5602TIP3   OH238440   4.824   6.660   7.861 -0.1394 -0.5223  0.3732
 5602TIP3    H138441   4.748   6.667   7.919 -0.1741 -0.0954  0.2802
 5602TIP3    H238442   4.787   6.642   7.775 -0.1760  0.2767  0.2138
 5603TIP3   OH238443   0.867   3.117   1.271  0.1090 -0.7607 -0.3720
 5603TIP3    H138444   0.802   3.069   1.221  1.2913 -1.7826 -0.9832
 5603TIP3    H238445   0.925   3.050   1.307  0.4374  0.0766  0.7254
 5604TIP3   OH238446   5.476   2.804   1.931  0.5393 -0.7777 -0.3223
 5604TIP3    H138447   5.428   2.734   1.976 -0.6253  0.3115  0.1976
 5604TIP3    H238448   5.540   2.835   1.996  0.6526 -0.9589 -0.3464
 5605TIP3   OH238449   5.727   0.265   2.166  0.1466 -0.5439 -0.5302
 5605TIP3    H138450   5.718   0.317   2.245 -0.3292 -0.4153 -0.6647
 5605TIP3    H238451   5.728   0.329   2.095  0.7076 -0.6497 -0.6250
 5606TIP3   OH238452   2.101   0.178   7.251  0.6078 -0.0360  0.6650
 5606TIP3    H138453   2.036   0.137   7.194 -0.2179  0.5663  1.1515
 5606TIP3    H238454   2.185   0.162   7.208 -0.0186  0.5784 -0.8195
 5607TIP3   OH238455   4.312   2.181   7.353  0.4770 -0.6559 -0.4582
 5607TIP3    H138456   4.360   2.256   7.319  1.4373 -1.4852 -0.9742
 5607TIP3    H238457   4.244   2.163   7.288 -1.7024  1.5234  1.0265
 5608TIP3   OH238458   2.139   4.972   7.187 -0.0450 -0.1527  0.1148
 5608TIP3    H138459   2.060   4.925   7.157 -1.0741  0.9785  0.9684
 5608TIP3    H238460   2.203   4.903   7.203 -1.6544 -1.3484  1.7607
 5609TIP3   OH238461   0.737   1.870   1.855 -0.5040 -0.0786  0.0262
 5609TIP3    H138462   0.731   1.962   1.881 -1.1368 -0.0586 -0.1762
 5609TIP3    H238463   0.797   1.870   1.781  2.0415 -0.2393  1.9355
 5610TIP3   OH238464   1.329   1.386   8.526  0.0342 -0.0169 -0.2057
 5610TIP3    H138465   1.236   1.384   8.549 -0.0839  2.6251 -0.2061
 5610TIP3    H238466   1.331   1.417   8.436  0.9232 -0.6269 -0.4063
 5611TIP3   OH238467   3.572   5.584   0.552 -0.0482 -0.2517  0.3286
 5611TIP3    H138468   3.597   5.632   0.631 -0.3545 -2.2719  1.7240
 5611TIP3    H238469   3.481   5.560   0.566 -0.5590  0.5694 -1.3310
 5612TIP3   OH238470   0.139   1.318   1.095  0.9597 -0.3353  0.1871
 5612TIP3    H138471   0.099   1.231   1.097  2.4058 -1.0222  0.4530
 5612TIP3    H238472   0.212   1.311   1.156  1.3948  0.9287 -0.1816
 5613TIP3   OH238473   2.667   4.725   0.633  0.9174 -0.3017  0.1925
 5613TIP3    H138474   2.622   4.771   0.562  0.8482 -0.2901  0.2433
 5613TIP3    H238475   2.675   4.635   0.602 -2.1770 -1.1657  1.5242
 5614TIP3   OH238476   1.384   4.452   8.222 -0.0718 -0.1515 -0.2928
 5614TIP3    H138477   1.318   4.406   8.274 -0.0765 -0.5820 -0.6680
 5614TIP3    H238478   1.362   4.431   8.131  1.1728 -1.1560 -0.3980
 5615TIP3   OH238479   3.943   2.738   0.791 -0.2334  0.2225 -0.4353
 5615TIP3    H138480   3.969   2.820   0.834 -2.8449  1.4704 -1.0300
 5615TIP3    H238481   4.018   2.716   0.735  0.5442  2.2001 -0.2668
 5616TIP3   OH238482   4.431   3.760   1.833 -0.1860 -0.0727 -0.2337
 5616TIP3    H138483   4.354   3.774   1.890 -0.6212 -0.0141 -0.8290
 5616TIP3    H238484   4.457   3.670   1.850 -1.2486 -0.5600 -1.0447
 5617TIP3   OH238485   4.076   3.002   1.480  0.2728  1.1619 -0.3729
 5617TIP3    H138486   4.014   2.936   1.511  0.7326  0.8571 -0.1018
 5617TIP3    H238487   4.150   2.997   1.541  1.5356  0.0350 -1.8976
 5618TIP3   OH238488   2.229   6.380   1.242  0.2444  0.0890 -0.4487
 5618TIP3    H138489   2.312   6.349   1.278  0.3965  1.3030  0.3106
 5618TIP3    H238490   2.203   6.313   1.179  0.0433 -2.0904  1.7914
 5619TIP3   OH238491   1.415   1.970   0.380  0.2758 -0.5644 -0.5574
 5619TIP3    H138492   1.386   1.879   0.375 -0.9650 -0.2598  0.5844
 5619TIP3    H238493   1.397   2.006   0.293 -1.0807 -0.8965 -0.4332
 5620TIP3   OH238494   6.169   4.617   0.067  0.3125  0.0339 -0.2405
 5620TIP3    H138495   6.146   4.679   0.137  1.5643  0.9301 -0.5869
 5620TIP3    H238496   6.222   4.550   0.110 -0.0221 -0.1377 -0.0922
 5621TIP3   OH238497   0.657   4.183   8.892 -0.3762  0.3760  0.4832
 5621TIP3    H138498   0.611   4.100   8.904 -0.5946  0.4859  0.4045
 5621TIP3    H238499   0.636   4.209   8.803 -0.6641  0.7338  0.6547
 5622TIP3   OH238500   2.008   2.479   0.794 -0.1514  0.1197  0.0815
 5622TIP3    H138501   1.921   2.455   0.763  0.4452 -1.1400 -0.7132
 5622TIP3    H238502   2.049   2.521   0.718 -1.2395  4.1957  1.4686
 5623TIP3   OH238503   3.606   2.710   3.017  0.7321 -0.7218 -0.2428
 5623TIP3    H138504   3.579   2.801   3.032  2.6401  0.3507 -2.5212
 5623TIP3    H238505   3.546   2.678   2.950 -0.8536 -1.7191  1.5676
 5624TIP3   OH238506   2.690   1.277   0.371 -0.2009  0.2456  0.2167
 5624TIP3    H138507   2.701   1.344   0.303 -3.5379  0.0033 -0.7273
 5624TIP3    H238508   2.655   1.325   0.446  0.8295  0.0642  0.8341
 5625TIP3   OH238509   2.858   5.804   0.362 -0.5950 -0.0113 -0.2664
 5625TIP3    H138510   2.915   5.880   0.346  1.9105 -1.7414 -0.1416
 5625TIP3    H238511   2.783   5.818   0.304  1.2329  1.1266 -2.5537
 5626TIP3   OH238512   2.641   0.657   2.727 -0.0595  0.0090  0.4923
 5626TIP3    H138513   2.576   0.652   2.658  0.3890  1.2708 -0.0642
 5626TIP3    H238514   2.595   0.699   2.800 -0.5480 -1.3718  1.0130
 5627TIP3   OH238515   0.790   1.376   0.447 -0.1959  0.1970  0.1793
 5627TIP3    H138516   0.735   1.387   0.370  0.4439  0.0204 -0.3186
 5627TIP3    H238517   0.857   1.313   0.420  0.5195  0.7463  0.6144
 5628TIP3   OH238518   3.460   6.624   9.043  0.2028  0.2851  0.2807
 5628TIP3    H138519   3.470   6.718   9.028  0.4508  0.3863  1.0145
 5628TIP3    H238520   3.366   6.610   9.049  0.1208  1.2286  4.2146
 5629TIP3   OH238521   6.030   0.789   8.562  0.5528 -0.6433  0.5641
 5629TIP3    H138522   5.951   0.792   8.615 -0.4303 -1.2493 -0.8214
 5629TIP3    H238523   6.101   0.808   8.624 -0.7181  0.6781  1.6737
 5630TIP3   OH238524   2.427   1.891   2.705 -0.0467  0.4081 -0.6803
 5630TIP3    H138525   2.396   1.949   2.775  2.5938  1.7509 -0.4904
 5630TIP3    H238526   2.522   1.886   2.719  0.2282 -1.2818 -2.7264
 5631TIP3   OH238527   3.309   5.211   1.179 -0.2270 -0.4114 -0.1210
 5631TIP3    H138528   3.304   5.123   1.215 -0.7074 -0.0517  0.7321
 5631TIP3    H238529   3.391   5.247   1.215 -1.4828  0.5115  2.0290
 5632TIP3   OH238530   3.604   6.484   0.373  0.7171  0.0599 -0.0717
 5632TIP3    H138531   3.697   6.467   0.390  0.2732 -0.3786  2.1644
 5632TIP3    H238532   3.588   6.571   0.411 -0.1157 -0.5386  0.9895
 5633TIP3   OH238533   0.432   3.249   1.652  0.2988  0.3909 -0.1626
 5633TIP3    H138534   0.375   3.312   1.607 -1.0656 -1.2847 -0.9093
 5633TIP3    H238535   0.393   3.241   1.739  0.3387  0.4328 -0.1413
 5634TIP3   OH238536   5.310   2.261   8.921 -0.3032 -0.0624  0.7784
 5634TIP3    H138537   5.320   2.214   8.839  0.2940  2.0779 -0.4503
 5634TIP3    H238538   5.387   2.238   8.972  1.6656  1.8893 -1.0909
 5635TIP3   OH238539   5.864   5.577   0.655  0.1355  0.6750  0.8825
 5635TIP3    H138540   5.825   5.648   0.604 -0.2473  1.3287  2.0350
 5635TIP3    H238541   5.801   5.563   0.726  0.7639 -0.0489  1.2998
 5636TIP3   OH238542   3.718   3.836   1.245  0.1313  0.0674 -0.1758
 5636TIP3    H138543   3.690   3.911   1.192 -1.0203  0.2688  0.6716
 5636TIP3    H238544   3.696   3.862   1.335 -0.2802 -1.2832  0.1313
 5637TIP3   OH238545   4.668   5.963   8.117  0.0024  0.0923 -0.2687
 5637TIP3    H138546   4.624   5.955   8.032 -4.0634 -1.8013  1.7446
 5637TIP3    H238547   4.678   6.057   8.130 -2.3345  0.5863 -1.4842
 5638TIP3   OH238548   0.233   6.024   0.950 -0.2687 -0.0563  0.2958
 5638TIP3    H138549   0.187   6.022   1.033  0.8414 -3.7638  1.0208
 5638TIP3    H238550   0.164   6.033   0.884 -1.3136  1.2315  1.5162
 5639TIP3   OH238551   2.908   0.144   7.798 -0.1284  0.5459  0.9009
 5639TIP3    H138552   2.905   0.111   7.708 -1.1077 -0.8039  1.3978
 5639TIP3    H238553   2.934   0.235   7.789 -2.2179  1.0485 -0.9275
 5640TIP3   OH238554   2.975   0.139   8.056 -0.8208  0.2730  0.0212
 5640TIP3    H138555   2.932   0.142   7.971 -0.4641 -2.4924 -0.3231
 5640TIP3    H238556   3.065   0.166   8.039 -0.9446  0.4777 -0.3139
 5641TIP3   OH238557   4.564   1.664   1.864 -0.3130 -0.4349 -0.1703
 5641TIP3    H138558   4.509   1.629   1.933 -0.2250  0.1585  0.2087
 5641TIP3    H238559   4.617   1.589   1.835  0.4593 -0.4582  1.1862
 5642TIP3   OH238560   5.778   3.529   0.916 -0.8360 -0.4635  0.1569
 5642TIP3    H138561   5.683   3.525   0.925 -0.5996 -1.9527  2.6587
 5642TIP3    H238562   5.802   3.448   0.870 -0.7267 -0.3848  0.0734
 5643TIP3   OH238563   1.166   0.557   1.097  0.8267  0.2281  0.1680
 5643TIP3    H138564   1.228   0.607   1.044  1.2222  1.0968  1.3904
 5643TIP3    H238565   1.207   0.471   1.106 -0.2147 -0.6381 -2.5841
 5644TIP3   OH238566   1.143   1.163   3.422  0.2857  0.0063  0.9789
 5644TIP3    H138567   1.196   1.228   3.468 -0.1158  0.0367  1.4103
 5644TIP3    H238568   1.204   1.120   3.362  0.7641  0.1327  1.3686
 5645TIP3   OH238569   4.277   5.565   2.614 -0.1549  0.1186  0.1582
 5645TIP3    H138570   4.322   5.616   2.546  1.5627  0.7011  1.6410
 5645TIP3    H238571   4.193   5.609   2.625  0.7848  1.9205  0.5168
 5646TIP3   OH238572   2.864   0.284   8.562  0.8105  0.1038 -0.6019
 5646TIP3    H138573   2.874   0.234   8.480  2.9046 -0.0109 -0.3331
 5646TIP3    H238574   2.953   0.294   8.594 -0.0216 -0.6209  2.1690
 5647TIP3   OH238575   5.599   1.360   1.866 -0.1196  0.1199 -0.7046
 5647TIP3    H138576   5.575   1.279   1.912  1.8362 -0.6341 -0.9055
 5647TIP3    H238577   5.570   1.346   1.776  2.9535 -1.7970 -1.5359
 5648TIP3   OH238578   2.819   3.306   1.838 -0.1749  0.2003  0.7084
 5648TIP3    H138579   2.740   3.333   1.792  0.4433  0.5303 -0.1882
 5648TIP3    H238580   2.789   3.278   1.924 -1.2456  0.4514  0.4223
 5649TIP3   OH238581   4.013   4.783   8.275 -0.0278 -0.3498 -0.0267
 5649TIP3    H138582   4.022   4.802   8.181 -2.5020  1.1136 -0.0541
 5649TIP3    H238583   4.022   4.688   8.281  0.6556 -0.4232 -1.6720
 5650TIP3   OH238584   4.977   5.051   8.851 -0.0424 -0.0114 -0.0881
 5650TIP3    H138585   4.951   4.972   8.899 -1.0939 -0.1842 -0.9027
 5650TIP3    H238586   4.894   5.094   8.829  0.4505  0.4634 -1.0813
 5651TIP3   OH238587   1.695   4.719   2.518  0.2970 -0.0158  0.2367
 5651TIP3    H138588   1.749   4.791   2.486 -1.0513  1.0378  0.2633
 5651TIP3    H238589   1.729   4.642   2.472  0.9509  0.8271 -0.7526
 5652TIP3   OH238590   5.032   2.490   2.155  0.2756  0.1637  0.2907
 5652TIP3    H138591   5.076   2.569   2.187 -0.7361  0.8238  0.1255
 5652TIP3    H238592   5.091   2.418   2.177  1.2916  0.9851  0.3061
 5653TIP3   OH238593   0.765   5.292   8.522 -0.1841  0.7731 -0.3040
 5653TIP3    H138594   0.759   5.386   8.536  0.8449  0.6862  0.8865
 5653TIP3    H238595   0.740   5.280   8.431 -0.9238  2.1261 -0.3048
 5654TIP3   OH238596   1.714   4.690   0.094  0.5318 -0.9284  0.2821
 5654TIP3    H138597   1.771   4.673   0.169 -0.1420  1.7534  1.5301
 5654TIP3    H238598   1.653   4.617   0.093  2.1874 -2.3868  0.6584
 5655TIP3   OH238599   3.748   2.941   2.444  0.0473  0.2076  0.6627
 5655TIP3    H138600   3.835   2.939   2.486  0.0495 -1.8672  0.6375
 5655TIP3    H238601   3.697   2.875   2.490 -0.9675  0.1242 -0.5198
 5656TIP3   OH238602   3.766   3.498   0.978  0.4544 -0.8077  0.4295
 5656TIP3    H138603   3.802   3.534   1.059 -0.9021  0.2072  0.6195
 5656TIP3    H238604   3.771   3.571   0.915 -2.3715 -0.1769  0.8294
 5657TIP3   OH238605   6.537   0.530   0.934  0.2213  0.6212  0.1371
 5657TIP3    H138606   6.629   0.506   0.919 -0.8091 -3.1956 -1.3133
 5657TIP3    H238607   6.502   0.542   0.846 -0.5860  2.8945  0.7044
 5658TIP3   OH238608   1.750   6.290   8.356  0.2781 -0.0496  0.8064
 5658TIP3    H138609   1.670   6.320   8.398 -0.9983 -2.2327  0.0927
 5658TIP3    H238610   1.722   6.257   8.271  2.3766  1.6216 -0.6667
 5659TIP3   OH238611   2.210   3.279   2.766  0.2748 -0.2924  0.0886
 5659TIP3    H138612   2.170   3.192   2.765  1.2880 -0.8234  1.9339
 5659TIP3    H238613   2.226   3.297   2.859  0.1461  1.8520 -0.2516
 5660TIP3   OH238614   4.179   2.584   0.523 -0.6881 -0.8729  0.2466
 5660TIP3    H138615   4.251   2.646   0.508 -2.0054  0.4445 -0.9299
 5660TIP3    H238616   4.222   2.506   0.557  1.2611 -0.0203 -0.1036
 5661TIP3   OH238617   5.015   0.051   0.739  0.1902  0.3522 -0.5289
 5661TIP3    H138618   4.955   0.118   0.705  1.2863  1.0165 -1.2259
 5661TIP3    H238619   5.004  -0.023   0.679  0.4733  0.6856 -1.0010
 5662TIP3   OH238620   5.424   1.716   7.600  0.7377 -0.4323 -0.6322
 5662TIP3    H138621   5.480   1.682   7.669  0.7628  0.4500 -0.1972
 5662TIP3    H238622   5.347   1.749   7.646  0.0159 -1.2837 -1.1856
 5663TIP3   OH238623   5.157   0.428   8.792  0.1019 -0.6019 -0.1889
 5663TIP3    H138624   5.173   0.348   8.843  1.2123 -0.8840 -0.9506
 5663TIP3    H238625   5.064   0.448   8.807 -0.2456 -2.1370 -0.1429
 5664TIP3   OH238626   0.357   2.823   0.137 -0.2779  0.2741  0.3732
 5664TIP3    H138627   0.273   2.862   0.162  0.5638  2.5652 -0.1419
 5664TIP3    H238628   0.418   2.851   0.205  0.5939  0.8641 -0.6141
 5665TIP3   OH238629   0.794   4.092   2.577 -0.2065  0.4071 -0.4719
 5665TIP3    H138630   0.837   4.119   2.496 -0.0528 -1.7375 -1.1764
 5665TIP3    H238631   0.712   4.141   2.578 -2.3814 -2.6131 -4.3345
 5666TIP3   OH238632   2.862   5.621   2.028 -0.4899 -0.2026  0.1502
 5666TIP3    H138633   2.909   5.637   2.110 -1.1584 -1.0070  0.7155
 5666TIP3    H238634   2.790   5.562   2.053 -0.8567 -0.2552 -0.9702
 5667TIP3   OH238635   3.006   3.357   8.991  0.5883  0.4111  0.1384
 5667TIP3    H138636   2.935   3.336   8.930  1.1990  3.5120 -1.8507
 5667TIP3    H238637   3.059   3.277   8.994 -0.5551 -0.5150 -1.8464
 5668TIP3   OH238638   3.976   6.035   8.693  0.1914  0.2124 -0.4054
 5668TIP3    H138639   3.982   5.939   8.701 -1.1450  0.1185 -0.3391
 5668TIP3    H238640   4.066   6.065   8.708  0.8648 -1.0950 -1.4841
 5669TIP3   OH238641   2.746   2.877   2.915  0.3660  0.7626 -0.3063
 5669TIP3    H138642   2.704   2.886   3.000 -0.0435  1.2689 -0.5585
 5669TIP3    H238643   2.832   2.838   2.935  0.6667  1.7740  0.4430
 5670TIP3   OH238644   6.191   2.147   0.904 -0.4941  0.4159  0.4424
 5670TIP3    H138645   6.165   2.073   0.850 -0.8579  0.6610  0.2835
 5670TIP3    H238646   6.232   2.208   0.842  0.1235  0.1972  0.6286
 5671TIP3   OH238647   2.493   2.350   8.594 -0.3069  0.5586 -0.2018
 5671TIP3    H138648   2.493   2.431   8.646 -4.4180 -0.0832  1.1033
 5671TIP3    H238649   2.546   2.289   8.645  1.2552  1.7930 -0.2517
 5672TIP3   OH238650   2.751   6.638   0.001 -0.0729 -0.0929 -0.4789
 5672TIP3    H138651   2.784   6.690   0.074  0.0303 -1.6289  0.6244
 5672TIP3    H238652   2.719   6.703  -0.062 -2.2752  1.3405  1.8904
 5673TIP3   OH238653   6.292   3.962   3.173  0.0424  0.0363 -0.2590
 5673TIP3    H138654   6.382   3.981   3.196  0.4224  0.1446 -1.7311
 5673TIP3    H238655   6.261   3.902   3.241  1.3598 -0.3480  0.0126
 5674TIP3   OH238656   2.497   4.560   0.324 -0.0883  0.5011 -0.0334
 5674TIP3    H138657   2.442   4.523   0.392 -0.3487 -1.2687 -1.1456
 5674TIP3    H238658   2.437   4.580   0.252  0.7061 -3.0220 -1.9437
 5675TIP3   OH238659   2.947   2.053   2.107  0.0283  0.7068 -0.7462
 5675TIP3    H138660   3.002   2.045   2.029  1.5342 -1.1468  0.4043
 5675TIP3    H238661   2.891   1.975   2.104  0.8204  0.0653  0.5100
 5676TIP3   OH238662   2.226   2.031   7.635  0.6490  0.4996 -0.6196
 5676TIP3    H138663   2.233   2.014   7.541  0.9267  1.8533 -0.8715
 5676TIP3    H238664   2.309   2.000   7.671  0.4857 -0.1528 -0.7910
 5677TIP3   OH238665   5.678   4.103   1.749 -0.4726  0.0982  0.2011
 5677TIP3    H138666   5.768   4.128   1.727 -0.2889 -1.2794 -0.7253
 5677TIP3    H238667   5.645   4.061   1.669 -1.9935  0.6927  0.4857
 5678TIP3   OH238668   3.500   3.631   1.237 -0.1173  0.3588  0.5139
 5678TIP3    H138669   3.428   3.679   1.195  0.8322  0.3569 -1.2223
 5678TIP3    H238670   3.577   3.686   1.222  0.3526  0.0818  1.8258
 5679TIP3   OH238671   4.671   6.144   1.768  0.2086  0.5562 -0.3672
 5679TIP3    H138672   4.755   6.123   1.726  0.5548 -0.0735  0.5990
 5679TIP3    H238673   4.648   6.230   1.734  0.8724  0.4159 -1.2196
 5680TIP3   OH238674   2.349   5.608   3.226  0.2715  0.0591  0.3309
 5680TIP3    H138675   2.323   5.698   3.208 -1.3976 -0.4569 -0.0122
 5680TIP3    H238676   2.365   5.606   3.321  0.5745  0.7618  0.3011
 5681TIP3   OH238677   0.130   2.876   2.290  0.5887 -0.0296 -0.4803
 5681TIP3    H138678   0.156   2.804   2.233  0.0252 -1.5161  1.0529
 5681TIP3    H238679   0.035   2.881   2.280  0.6492  0.6975 -0.7713
 5682TIP3   OH238680   5.435   1.822   1.796  0.3228 -0.0565  0.1445
 5682TIP3    H138681   5.389   1.822   1.712  1.3027 -0.4097 -0.4054
 5682TIP3    H238682   5.408   1.740   1.838 -1.5307  0.9168  0.9718
 5683TIP3   OH238683   4.399   5.389   3.229  0.9450  0.5694  0.1421
 5683TIP3    H138684   4.444   5.307   3.247  0.3549  0.0868 -0.5288
 5683TIP3    H238685   4.463   5.442   3.182  1.3226  0.4878  0.5635
 5684TIP3   OH238686   3.177   0.397   0.618  0.3725  0.8366 -0.4615
 5684TIP3    H138687   3.192   0.437   0.532 -3.6605  0.2704 -1.6732
 5684TIP3    H238688   3.144   0.469   0.672 -2.2835  0.2756 -1.1816
 5685TIP3   OH238689   3.220   6.304   1.897 -0.3508 -0.4171 -0.0597
 5685TIP3    H138690   3.220   6.344   1.984  0.9605 -0.2291 -0.1144
 5685TIP3    H238691   3.311   6.314   1.867 -0.9060  0.0599 -1.6995
 5686TIP3   OH238692   2.815   0.062   0.483  0.5087  0.3428  0.0018
 5686TIP3    H138693   2.851   0.079   0.396 -0.6953  0.7762 -0.4214
 5686TIP3    H238694   2.881   0.007   0.525  1.0884  0.0888 -1.1935
 5687TIP3   OH238695   1.434   3.536   2.247 -0.0017 -0.0111  0.1707
 5687TIP3    H138696   1.421   3.575   2.160  0.2496  0.1688  0.2123
 5687TIP3    H238697   1.349   3.545   2.290 -0.0097  0.2950  0.0979
 5688TIP3   OH238698   1.515   2.223   2.489  0.1786 -0.2776  0.2006
 5688TIP3    H138699   1.607   2.201   2.501 -0.0618 -0.5217  1.8387
 5688TIP3    H238700   1.468   2.157   2.539 -0.7356  1.5153  1.8587
 5689TIP3   OH238701   4.028   6.696   0.715 -0.0065  0.3502  0.5354
 5689TIP3    H138702   4.072   6.652   0.789  0.8557 -0.5412 -0.4690
 5689TIP3    H238703   4.091   6.763   0.687  2.0942 -2.5938 -2.5610
 5690TIP3   OH238704   5.370   3.307   8.720  0.0152 -0.4554 -0.1477
 5690TIP3    H138705   5.380   3.327   8.813 -1.1277 -1.3675  0.1923
 5690TIP3    H238706   5.444   3.352   8.678  1.5288 -1.3970  1.3731
 5691TIP3   OH238707   3.985   3.713   7.711 -0.4321 -0.0933  0.6445
 5691TIP3    H138708   4.048   3.657   7.755 -0.1946  0.4588  1.0304
 5691TIP3    H238709   3.995   3.694   7.618 -1.7789 -2.1569  0.8781
 5692TIP3   OH238710   3.564   6.538   2.156 -0.1322 -0.1783  0.6736
 5692TIP3    H138711   3.623   6.609   2.179 -0.2300  0.0815  0.1230
 5692TIP3    H238712   3.492   6.545   2.219 -0.1132  0.1713  0.6580
 5693TIP3   OH238713   0.703   3.830   3.471 -0.5712  0.2180  0.7197
 5693TIP3    H138714   0.704   3.911   3.421 -0.1196  0.8128  1.6675
 5693TIP3    H238715   0.792   3.794   3.461  0.2659  1.4898  2.8612
 5694TIP3   OH238716   0.370   1.521   1.994 -0.5928  0.0208 -0.5847
 5694TIP3    H138717   0.282   1.487   2.010 -0.7524  0.5073 -0.4100
 5694TIP3    H238718   0.392   1.567   2.075 -0.1595 -0.1384 -0.6114
 5695TIP3   OH238719   2.373   4.846   8.341  0.4493  0.3010 -0.2335
 5695TIP3    H138720   2.289   4.889   8.354  0.2455 -0.4700  1.1027
 5695TIP3    H238721   2.438   4.910   8.372  0.3233  0.5653 -0.5004
 5696TIP3   OH238722   1.765   5.693   2.153 -0.0467  0.3987 -0.3229
 5696TIP3    H138723   1.775   5.752   2.079  0.6431  1.8403  0.8554
 5696TIP3    H238724   1.812   5.737   2.225  0.6209 -1.6568  0.5729
 5697TIP3   OH238725   5.776   5.395   0.456 -0.2134 -0.4617  0.6933
 5697TIP3    H138726   5.810   5.477   0.492  0.9946 -0.7042  0.1772
 5697TIP3    H238727   5.684   5.414   0.436 -0.1718  0.5091  1.3346
 5698TIP3   OH238728   3.030   5.047   3.319  0.1632  0.4639  0.2955
 5698TIP3    H138729   2.989   4.969   3.354 -0.7572  0.9141  0.2485
 5698TIP3    H238730   2.957   5.104   3.294  0.7847  1.7552  1.2681
 5699TIP3   OH238731   2.849   2.162   8.141  0.5075 -0.6221  0.3222
 5699TIP3    H138732   2.919   2.145   8.078  0.2060 -1.0199  0.0959
 5699TIP3    H238733   2.792   2.225   8.097  0.1924 -1.0469  0.1195
 5700TIP3   OH238734   2.932   1.842   8.758 -0.2979  0.4825  0.4972
 5700TIP3    H138735   2.875   1.879   8.825 -1.3585 -0.6004  0.2421
 5700TIP3    H238736   2.953   1.915   8.701 -0.7646  1.0716  1.0625
 5701TIP3   OH238737   4.278   2.147   7.661  0.1525  0.2005  0.0862
 5701TIP3    H138738   4.301   2.151   7.568  0.7613 -0.8037  0.1788
 5701TIP3    H238739   4.358   2.119   7.705 -0.5612 -1.0109  0.6944
 5702TIP3   OH238740   6.420   1.786   0.042  0.2294  0.2460 -0.4448
 5702TIP3    H138741   6.382   1.833  -0.033  1.6221  1.9927 -0.1095
 5702TIP3    H238742   6.379   1.826   0.119  1.3397  0.8466 -0.1546
 5703TIP3   OH238743   3.942   6.425   8.011  0.3992 -0.2775  0.1242
 5703TIP3    H138744   3.846   6.419   8.015  0.2227 -0.2968 -2.6834
 5703TIP3    H238745   3.959   6.519   8.002  0.8918  0.0543  3.3195
 5704TIP3   OH238746   4.984   3.837   2.327 -0.4204  0.2025 -0.0687
 5704TIP3    H138747   5.053   3.875   2.382  1.5551 -0.7922 -1.7281
 5704TIP3    H238748   5.000   3.873   2.240 -1.9720 -0.1336 -0.5221
 5705TIP3   OH238749   5.124   3.158   0.434  0.3218  0.5110  0.9055
 5705TIP3    H138750   5.167   3.142   0.519  0.0104 -1.7098  0.7166
 5705TIP3    H238751   5.186   3.123   0.370 -0.9272 -1.0725  0.5062
 5706TIP3   OH238752   0.403   6.502   0.170 -0.0549 -0.3618 -0.3622
 5706TIP3    H138753   0.413   6.522   0.263 -0.0594 -1.5182 -0.0934
 5706TIP3    H238754   0.350   6.422   0.169 -0.8844  0.1749 -1.3998
 5707TIP3   OH238755   3.167   5.238   8.400 -0.4591 -0.6990 -0.1400
 5707TIP3    H138756   3.203   5.323   8.377  0.6789 -0.7556  1.2698
 5707TIP3    H238757   3.152   5.194   8.316  1.7947 -0.2396 -0.8412
 5708TIP3   OH238758   3.266   1.864   1.735 -0.3136 -0.2716 -0.6469
 5708TIP3    H138759   3.294   1.879   1.826  0.6013 -1.7994 -0.6489
 5708TIP3    H238760   3.346   1.845   1.688 -0.4416  2.7537 -2.3602
 5709TIP3   OH238761   3.583   4.207   0.061 -0.4717  0.3303  0.1759
 5709TIP3    H138762   3.615   4.286   0.105 -0.6084  0.9897 -0.8754
 5709TIP3    H238763   3.495   4.230   0.029 -0.3402 -0.0852 -0.5265
 5710TIP3   OH238764   2.174   0.631   7.720  0.4285 -0.0660 -0.0344
 5710TIP3    H138765   2.218   0.555   7.681 -0.4219  0.2427 -1.7198
 5710TIP3    H238766   2.081   0.618   7.699  0.1793  1.0522  0.3083
 5711TIP3   OH238767   3.212   1.709   0.858 -0.1592 -0.6401  0.5764
 5711TIP3    H138768   3.218   1.716   0.763 -0.4275 -1.0121  0.5302
 5711TIP3    H238769   3.302   1.717   0.888 -0.0624 -0.6155  0.2820
 5712TIP3   OH238770   5.188   1.219   2.085 -0.0584  0.2331 -0.3058
 5712TIP3    H138771   5.246   1.214   2.010  1.3671 -1.0540  0.8289
 5712TIP3    H238772   5.161   1.129   2.102  0.4756  0.3346  1.3056
 5713TIP3   OH238773   5.431   4.991   1.355 -0.6842 -0.9931  0.0455
 5713TIP3    H138774   5.434   4.986   1.259  0.4093  0.4716 -0.0338
 5713TIP3    H238775   5.517   4.958   1.383  0.1916  1.3398  0.3109
 5714TIP3   OH238776   3.805   5.807   0.351 -0.2531 -0.4114  0.1259
 5714TIP3    H138777   3.758   5.774   0.427 -2.0662  0.0009 -0.7673
 5714TIP3    H238778   3.888   5.839   0.386  0.0771 -2.6321  1.5163
 5715TIP3   OH238779   0.692   3.673   1.957  0.1443 -0.1652  0.1468
 5715TIP3    H138780   0.679   3.637   2.045 -0.2929  0.3749  0.3166
 5715TIP3    H238781   0.716   3.598   1.903 -1.1030 -0.7841  0.4098
 5716TIP3   OH238782   0.103   0.707   1.069  0.0995 -0.3278 -0.1043
 5716TIP3    H138783   0.110   0.782   1.008  0.6886 -0.4117 -0.1435
 5716TIP3    H238784   0.039   0.735   1.133 -1.5181 -0.7236 -1.4703
 5717TIP3   OH238785   3.223   5.308   0.922 -0.3243  0.5199  0.4013
 5717TIP3    H138786   3.285   5.286   0.991  0.0094  0.0238 -0.0573
 5717TIP3    H238787   3.262   5.275   0.841 -0.6227  1.2559 -0.0624
 5718TIP3   OH238788   1.799   4.174   2.973 -0.0421  0.7146 -0.3464
 5718TIP3    H138789   1.857   4.166   2.898  0.7056  0.6168  0.2376
 5718TIP3    H238790   1.719   4.128   2.947  0.8753 -0.8881 -0.4151
 5719TIP3   OH238791   6.003   4.685   8.251 -0.5256 -0.4077  0.2804
 5719TIP3    H138792   5.986   4.697   8.157 -1.6481 -0.8777  0.4101
 5719TIP3    H238793   6.043   4.598   8.257  0.1868 -0.1006  0.1843
 5720TIP3   OH238794   1.331   6.608   1.188 -0.1748 -0.0684  0.1059
 5720TIP3    H138795   1.271   6.671   1.226 -0.6207 -1.0399  1.0463
 5720TIP3    H238796   1.374   6.656   1.117  1.4550  2.1570  2.4296
 5721TIP3   OH238797   3.968   2.014   2.017  0.5719 -0.0914  0.0062
 5721TIP3    H138798   3.898   2.064   2.058  0.1602 -2.1354  1.9981
 5721TIP3    H238799   3.988   2.062   1.936 -3.4676  0.3194 -0.9659
 5722TIP3   OH238800   4.509   3.104   2.407 -0.0463 -0.1458 -0.5566
 5722TIP3    H138801   4.462   3.120   2.489 -0.9446 -2.1922 -0.5958
 5722TIP3    H238802   4.601   3.105   2.431 -0.2493  0.5240  0.2300
 5723TIP3   OH238803   0.489   6.258   2.157  0.3022  0.0263 -0.1922
 5723TIP3    H138804   0.457   6.178   2.198  0.3576  0.7480  1.3154
 5723TIP3    H238805   0.477   6.243   2.063 -1.9896 -0.7732  0.1698
 5724TIP3   OH238806   5.468   3.122   3.021 -0.2277 -0.2312 -0.4270
 5724TIP3    H138807   5.562   3.108   3.009 -0.1686 -0.9041  0.7009
 5724TIP3    H238808   5.429   3.034   3.017 -0.3419 -0.4506  2.6766
 5725TIP3   OH238809   3.654   4.676   0.285  0.4155 -0.7342  0.9377
 5725TIP3    H138810   3.705   4.699   0.207  1.6416 -2.2497  1.2436
 5725TIP3    H238811   3.572   4.724   0.275  1.3764  0.7537 -0.2349
 5726TIP3   OH238812   4.476   6.235   7.699 -0.3751 -0.6821  0.1801
 5726TIP3    H138813   4.539   6.234   7.627  0.1493 -3.2072  0.5727
 5726TIP3    H238814   4.495   6.315   7.747  1.0210 -0.2625 -1.0154
 5727TIP3   OH238815   5.621   4.200   8.060  0.2128 -0.4122  0.2088
 5727TIP3    H138816   5.528   4.181   8.071  0.1826 -1.0975 -0.9617
 5727TIP3    H238817   5.664   4.157   8.133 -0.4356  0.4569  1.1215
 5728TIP3   OH238818   4.119   6.077   8.286  0.2082 -0.2120 -0.5423
 5728TIP3    H138819   4.124   6.173   8.288 -0.0213 -0.0575 -3.1951
 5728TIP3    H238820   4.211   6.049   8.290  0.2669  0.0741  0.5063
 5729TIP3   OH238821   3.495   1.243   0.213  0.0031  0.0681 -0.3726
 5729TIP3    H138822   3.475   1.223   0.121 -0.0443  0.2563 -0.4023
 5729TIP3    H238823   3.525   1.333   0.212 -0.7871  0.3403 -0.0865
 5730TIP3   OH238824   4.776   2.145   3.006  0.2171 -0.7784 -0.1202
 5730TIP3    H138825   4.820   2.225   3.035 -0.0184 -0.1709 -1.3903
 5730TIP3    H238826   4.700   2.138   3.064  0.3379 -0.1848  0.1183
 5731TIP3   OH238827   6.096   3.783   2.305 -0.6195 -0.4279  0.0269
 5731TIP3    H138828   6.131   3.864   2.341 -2.0075  0.0867  0.2773
 5731TIP3    H238829   6.073   3.730   2.381  0.9841 -1.4012 -0.1306
 5732TIP3   OH238830   5.790   4.926   7.574 -0.0329 -0.1817  0.0978
 5732TIP3    H138831   5.725   4.877   7.523 -0.3822  0.2574  0.1172
 5732TIP3    H238832   5.779   4.896   7.664 -0.5352  0.2304  0.1802
 5733TIP3   OH238833   2.655   3.172   8.151 -0.0952  0.6941  0.6871
 5733TIP3    H138834   2.599   3.227   8.206 -2.1318  1.4752 -1.9537
 5733TIP3    H238835   2.612   3.087   8.151  0.3112  0.4872  0.8685
 5734TIP3   OH238836   3.048   5.506   0.862  0.6856  0.0989 -0.1027
 5734TIP3    H138837   3.126   5.473   0.907 -0.8146 -1.6589  1.3991
 5734TIP3    H238838   2.985   5.521   0.932 -1.7202 -2.6435 -1.4740
 5735TIP3   OH238839   6.626   2.604   8.650  0.3274  0.0617 -1.2585
 5735TIP3    H138840   6.569   2.590   8.575  2.9450 -0.2220 -3.3663
 5735TIP3    H238841   6.685   2.528   8.650  1.3661  0.8117  0.1277
 5736TIP3   OH238842   4.380   1.688   3.066  0.9462 -0.6601 -0.5144
 5736TIP3    H138843   4.412   1.619   3.124  0.0154 -1.0979 -0.5006
 5736TIP3    H238844   4.285   1.679   3.068  0.8530  0.0119 -1.2682
 5737TIP3   OH238845   2.510   0.885   0.563  0.0419  0.2055 -0.3540
 5737TIP3    H138846   2.558   0.966   0.579  1.8889 -0.8492 -0.2735
 5737TIP3    H238847   2.557   0.819   0.614 -1.7600 -0.8446  0.0636
 5738TIP3   OH238848   2.051   1.352   2.061 -0.3737  0.0272  0.0884
 5738TIP3    H138849   2.123   1.383   2.115 -1.0133  1.4623  0.1550
 5738TIP3    H238850   2.064   1.257   2.056  0.4566  0.0287  1.6321
 5739TIP3   OH238851   4.121   1.065   7.556  0.3564  0.1372 -0.4674
 5739TIP3    H138852   4.039   1.108   7.578  0.0085 -0.1361 -1.1783
 5739TIP3    H238853   4.182   1.136   7.540  0.2319  0.3440 -0.0362
 5740TIP3   OH238854   3.889   6.254   0.936  0.3734  0.3560  0.7114
 5740TIP3    H138855   3.838   6.330   0.908 -1.0906 -0.2866  1.5412
 5740TIP3    H238856   3.980   6.283   0.928  0.0977  0.6580 -3.3335
 5741TIP3   OH238857   5.868   5.479   0.144  0.2228  0.6358  0.1053
 5741TIP3    H138858   5.806   5.405   0.148  1.1491 -0.1810 -0.3171
 5741TIP3    H238859   5.842   5.528   0.067 -0.0903  0.4644  0.0994
 5742TIP3   OH238860   5.978   4.486   2.439  0.2157  0.4392  0.0276
 5742TIP3    H138861   5.990   4.419   2.506 -0.7239  1.1463  0.9492
 5742TIP3    H238862   5.970   4.568   2.489 -0.1794  1.0251 -0.9655
 5743TIP3   OH238863   6.395   3.989   9.090  0.1477 -0.5126 -0.1121
 5743TIP3    H138864   6.465   3.932   9.120 -0.9385 -2.1745 -0.5745
 5743TIP3    H238865   6.411   4.001   8.997 -0.5685 -1.5126 -0.3757
 5744TIP3   OH238866   5.498   0.623   0.108  0.3996 -0.8469 -0.1185
 5744TIP3    H138867   5.556   0.580   0.170  1.2788  0.9385  0.3659
 5744TIP3    H238868   5.422   0.649   0.160  0.6792 -0.2398 -0.0135
 5745TIP3   OH238869   0.855   6.328   0.329 -0.3758  0.5299 -0.5401
 5745TIP3    H138870   0.811   6.250   0.296 -0.4915  0.9824 -1.4993
 5745TIP3    H238871   0.794   6.364   0.393 -0.6138  0.1809 -0.5679
 5746TIP3   OH238872   3.749   0.856   2.045  0.3436 -0.6381  0.0389
 5746TIP3    H138873   3.746   0.943   2.006 -1.1595  0.7818  3.0563
 5746TIP3    H238874   3.810   0.864   2.118  0.5177 -2.2927  0.1285
 5747TIP3   OH238875   0.492   4.511   8.928  0.3306  0.1702 -0.6614
 5747TIP3    H138876   0.476   4.428   8.973  1.8361 -0.9762 -2.1285
 5747TIP3    H238877   0.521   4.570   8.998 -1.6857 -0.1931  0.5628
 5748TIP3   OH238878   2.712   1.662   8.440  0.4369  0.3596 -0.0132
 5748TIP3    H138879   2.636   1.605   8.424  0.2421  0.5640  0.1714
 5748TIP3    H238880   2.731   1.701   8.355  0.3269  0.3158 -0.0590
 5749TIP3   OH238881   3.859   1.066   8.483  0.0446 -0.0287  0.2200
 5749TIP3    H138882   3.937   1.078   8.538  0.9394  0.2537 -1.0803
 5749TIP3    H238883   3.791   1.117   8.528  1.2375  1.7772  0.0901
 5750TIP3   OH238884   2.265   4.504   3.083 -0.1404  0.1092 -0.3389
 5750TIP3    H138885   2.281   4.410   3.079  0.0656  0.1868 -1.4147
 5750TIP3    H238886   2.343   4.540   3.126 -0.7973 -0.3368  1.3097
 5751TIP3   OH238887   4.587   3.858   1.611  0.0616  0.8217  0.1694
 5751TIP3    H138888   4.604   3.952   1.617  0.6914  0.6956  0.4636
 5751TIP3    H238889   4.526   3.840   1.683 -0.9021  1.1818 -0.5444
 5752TIP3   OH238890   2.722   6.493   0.892  0.0494 -0.1859 -0.5401
 5752TIP3    H138891   2.674   6.492   0.974 -0.8808  1.5997 -1.0081
 5752TIP3    H238892   2.693   6.572   0.848 -0.0097 -1.4225 -2.9171
 5753TIP3   OH238893   3.066   4.445   0.018  0.3672 -0.2280 -0.3399
 5753TIP3    H138894   2.977   4.478   0.035  0.0962 -1.3970  0.6784
 5753TIP3    H238895   3.098   4.418   0.104  1.6409 -0.0295 -0.7358
 5754TIP3   OH238896   6.007   3.059   8.054  0.2352  0.0380  0.2290
 5754TIP3    H138897   5.938   3.122   8.073 -0.1265 -0.1675 -0.3745
 5754TIP3    H238898   6.014   3.059   7.959 -0.3009 -1.3839  0.1610
 5755TIP3   OH238899   5.008   5.093   2.909 -0.0321  0.0352 -0.3254
 5755TIP3    H138900   5.043   5.074   2.996  0.3409 -0.3699 -0.5620
 5755TIP3    H238901   4.971   5.181   2.916  1.1121  0.5058 -0.0955
 5756TIP3   OH238902   5.864   3.502   8.622  0.1434 -0.8357 -0.8867
 5756TIP3    H138903   5.861   3.595   8.600 -0.2580 -1.0072 -1.5681
 5756TIP3    H238904   5.876   3.501   8.717 -0.3777 -0.0939 -0.8044
 5757TIP3   OH238905   0.844   5.756   2.878  0.4060 -0.2637  0.4376
 5757TIP3    H138906   0.775   5.798   2.827 -0.6322 -1.3461  0.9039
 5757TIP3    H238907   0.925   5.780   2.833 -0.2204  1.3718  0.1140
 5758TIP3   OH238908   6.296   3.879   2.907  0.7672  0.0625 -0.3195
 5758TIP3    H138909   6.272   3.902   2.997  1.8435 -0.9495  0.2528
 5758TIP3    H238910   6.350   3.801   2.916 -0.6573 -1.2085 -1.9774
 5759TIP3   OH238911   0.111   4.617   2.703 -0.8131  0.5685  0.6578
 5759TIP3    H138912   0.151   4.543   2.657 -0.8581  0.9190  0.0341
 5759TIP3    H238913   0.163   4.693   2.676 -1.8678  1.0317 -0.1671
 5760TIP3   OH238914   2.203   5.283   9.004 -0.7655 -0.2194 -0.5929
 5760TIP3    H138915   2.160   5.287   8.918 -0.4740  1.3354 -0.7038
 5760TIP3    H238916   2.146   5.226   9.056 -2.5316  1.0707 -0.9989
 5761TIP3   OH238917   1.142   4.677   7.725 -0.6252  0.3154  0.3528
 5761TIP3    H138918   1.218   4.674   7.668  0.5481  0.7757  1.8325
 5761TIP3    H238919   1.067   4.682   7.665  0.4218 -1.0738 -1.1601
 5762TIP3   OH238920   6.686   0.276   3.118 -0.5921 -0.1378 -0.3610
 5762TIP3    H138921   6.733   0.291   3.200  1.6559  0.6030 -1.6765
 5762TIP3    H238922   6.606   0.327   3.125 -0.2492  0.2172  1.2129
 5763TIP3   OH238923   2.156   2.578   0.373  0.0024  0.0966  0.1164
 5763TIP3    H138924   2.118   2.553   0.289  0.3908  2.1671 -0.7185
 5763TIP3    H238925   2.249   2.555   0.365  0.0621  0.4011 -0.0647
 5764TIP3   OH238926   5.434   5.453   1.192 -0.1578  0.6402 -0.3549
 5764TIP3    H138927   5.340   5.451   1.209 -0.2994 -0.4967 -1.1471
 5764TIP3    H238928   5.448   5.533   1.141 -0.7742  0.5579 -0.6565
 5765TIP3   OH238929   2.381   1.507   2.631 -0.5098 -0.2727  0.4373
 5765TIP3    H138930   2.405   1.550   2.713 -0.9767  1.0642 -0.0906
 5765TIP3    H238931   2.446   1.537   2.568 -2.5540  2.2308 -0.6644
 5766TIP3   OH238932   3.695   4.413   2.523 -0.3992  0.0243  0.0958
 5766TIP3    H138933   3.618   4.405   2.579 -0.1671  2.4231  0.9042
 5766TIP3    H238934   3.663   4.454   2.443 -0.0471  0.7758  0.3263
 5767TIP3   OH238935   5.557   2.248   0.834 -0.3952  0.2531 -0.4498
 5767TIP3    H138936   5.548   2.152   0.836  0.8728  0.1370  1.1309
 5767TIP3    H238937   5.467   2.280   0.830 -0.8240 -0.9786 -3.2518
 5768TIP3   OH238938   1.953   3.212   3.007  0.2178  0.2941 -0.2246
 5768TIP3    H138939   1.884   3.278   3.001  0.2933  0.4543  0.5504
 5768TIP3    H238940   1.982   3.216   3.099  1.4654  0.4417 -0.6087
 5769TIP3   OH238941   5.095   5.109   2.637 -0.0823 -0.1643 -0.0070
 5769TIP3    H138942   5.137   5.193   2.656 -1.0600  0.4230 -0.3636
 5769TIP3    H238943   5.065   5.077   2.722 -0.1171  0.0693  0.0678
 5770TIP3   OH238944   4.900   5.355   0.256  0.3333 -0.3731 -0.3384
 5770TIP3    H138945   4.902   5.286   0.190 -0.6469  0.5269 -1.3598
 5770TIP3    H238946   4.911   5.436   0.206 -1.1893  0.3895  0.4699
 5771TIP3   OH238947   1.215   5.040   8.590  0.2946 -0.2303  0.0103
 5771TIP3    H138948   1.303   5.062   8.619  1.1406 -1.4599 -1.4884
 5771TIP3    H238949   1.210   5.072   8.500 -0.8997  0.0635  0.1545
 5772TIP3   OH238950   1.072   1.690   8.699 -0.4455 -0.3690 -0.1167
 5772TIP3    H138951   1.110   1.627   8.760  1.5273  0.7608 -0.1185
 5772TIP3    H238952   1.098   1.776   8.733 -0.4791  0.3409 -1.7834
 5773TIP3   OH238953   3.429   4.583   8.025  0.1062 -0.1745  0.5870
 5773TIP3    H138954   3.412   4.519   7.956  0.3413 -0.0544  0.4103
 5773TIP3    H238955   3.521   4.608   8.011 -0.8721  2.7775 -1.5667
 5774TIP3   OH238956   2.253   2.828   0.450  0.4129 -0.6548  0.1198
 5774TIP3    H138957   2.247   2.735   0.428  0.1063 -0.5015 -0.4561
 5774TIP3    H238958   2.325   2.861   0.397 -0.2257 -0.3187 -0.5509
 5775TIP3   OH238959   4.456   1.555   0.525  0.0554 -0.3624 -0.3930
 5775TIP3    H138960   4.505   1.544   0.443 -1.3267 -1.4733 -1.1059
 5775TIP3    H238961   4.414   1.470   0.539  1.4438 -0.6984  2.2895
 5776TIP3   OH238962   2.387   5.052   2.064 -0.2350  0.1752 -0.0089
 5776TIP3    H138963   2.429   5.106   1.997  0.2772 -0.3332 -0.1022
 5776TIP3    H238964   2.437   5.069   2.143  0.1225 -0.3963 -0.1099
 5777TIP3   OH238965   0.511   0.493   3.558 -0.2768  0.1975  0.4765
 5777TIP3    H138966   0.506   0.401   3.583 -1.1628 -0.0554 -0.5268
 5777TIP3    H238967   0.531   0.491   3.464  1.3870  1.0674  0.7775
 5778TIP3   OH238968   2.966   2.157   2.892 -0.7309  0.3227 -0.3197
 5778TIP3    H138969   2.956   2.223   2.824 -1.3441  2.3274  1.6236
 5778TIP3    H238970   3.055   2.169   2.924 -0.9021  0.3005  0.1624
 5779TIP3   OH238971   4.988   4.237   7.387 -0.1469 -0.1891  0.2747
 5779TIP3    H138972   5.024   4.311   7.338  1.1707 -0.5418  0.6763
 5779TIP3    H238973   4.893   4.251   7.385  0.0006  0.8295 -0.7223
 5780TIP3   OH238974   6.059   1.777   1.329 -0.2082  0.1071 -0.5382
 5780TIP3    H138975   6.102   1.701   1.290 -0.9707 -0.1719 -0.8541
 5780TIP3    H238976   6.097   1.784   1.417  0.2132 -0.3448 -0.6768
 5781TIP3   OH238977   3.757   3.889   0.487 -0.1383  1.0198 -0.5210
 5781TIP3    H138978   3.661   3.885   0.492 -0.2015  0.5390 -1.6979
 5781TIP3    H238979   3.780   3.975   0.521 -0.9100  0.7483  0.7313
 5782TIP3   OH238980   0.138   1.368   1.422 -0.2437  0.1307  1.2886
 5782TIP3    H138981   0.225   1.352   1.457  0.4294  2.3896  0.7994
 5782TIP3    H238982   0.096   1.425   1.486  0.7218  3.6654 -0.8916
 5783TIP3   OH238983   4.826   0.240   7.938  0.3936  0.0571 -0.4234
 5783TIP3    H138984   4.865   0.327   7.933  0.9616 -0.0318  1.5100
 5783TIP3    H238985   4.835   0.204   7.850  1.3429  1.4416 -0.9213
 5784TIP3   OH238986   4.756   0.363   8.367  0.3494  0.2805  0.5112
 5784TIP3    H138987   4.686   0.300   8.382  1.1834 -0.5931  0.8126
 5784TIP3    H238988   4.822   0.343   8.434  0.7799  1.2473  0.3960
 5785TIP3   OH238989   2.157   0.460   9.064 -0.0154 -0.4526  0.2166
 5785TIP3    H138990   2.064   0.440   9.071 -0.5305  0.1472 -3.2354
 5785TIP3    H238991   2.199   0.376   9.045 -0.0349 -0.5065  0.4088
 5786TIP3   OH238992   5.940   2.628   3.077 -0.0321  0.2837 -0.0320
 5786TIP3    H138993   5.902   2.555   3.126  0.5531 -0.8880 -1.2481
 5786TIP3    H238994   5.916   2.706   3.127 -1.1989 -0.6853  0.9807
 5787TIP3   OH238995   0.247   3.874   2.220 -0.7890 -0.0044  0.5204
 5787TIP3    H138996   0.331   3.921   2.219 -2.0535  2.5877 -2.6244
 5787TIP3    H238997   0.260   3.801   2.160 -0.5313 -0.1702  0.7743
 5788TIP3   OH238998   6.226   0.208   8.108  0.1385 -0.2772  0.7029
 5788TIP3    H138999   6.245   0.300   8.129  1.4167 -0.5232  0.6449
 5788TIP3    H239000   6.188   0.212   8.021 -0.1192  0.2257  0.8307
 5789TIP3   OH239001   0.228   6.620   0.866 -0.0977 -0.0713 -0.7634
 5789TIP3    H139002   0.198   6.543   0.817 -0.1014  0.6293 -1.9016
 5789TIP3    H239003   0.321   6.606   0.878 -0.4525 -1.2420  0.9017
 5790TIP3   OH239004   5.900   0.356   8.220 -0.0414  0.1210 -0.5045
 5790TIP3    H139005   5.880   0.341   8.128  2.4956  0.5265 -1.1972
 5790TIP3    H239006   5.973   0.298   8.240 -1.2311 -0.7858  1.6256
 5791TIP3   OH239007   0.548   0.166   1.894 -0.1029 -0.2583 -0.4312
 5791TIP3    H139008   0.458   0.134   1.903 -0.0690 -0.3162 -0.3089
 5791TIP3    H239009   0.551   0.245   1.948 -0.2353  0.0510 -0.8660
 5792TIP3   OH239010   1.457   3.342   0.060 -0.0358 -0.2029  0.5914
 5792TIP3    H139011   1.438   3.275  -0.006  0.7367 -0.2432  0.3988
 5792TIP3    H239012   1.413   3.421   0.027 -0.8377 -0.5718  0.7502
 5793TIP3   OH239013   4.603   0.028   8.788  0.9507  0.4001 -0.4489
 5793TIP3    H139014   4.692   0.002   8.811  0.2280 -0.7980  1.1699
 5793TIP3    H239015   4.603   0.123   8.798  1.7092  0.2858  0.8515
 5794TIP3   OH239016   3.909   2.468   8.391 -0.4824 -0.1604 -0.2034
 5794TIP3    H139017   3.989   2.463   8.443 -1.1906 -0.2579  0.8897
 5794TIP3    H239018   3.912   2.556   8.352 -0.2796  0.1710  0.5393
 5795TIP3   OH239019   4.449   5.018   2.188 -0.8941  0.8914 -0.3280
 5795TIP3    H139020   4.466   4.956   2.259 -2.4144  0.5667 -0.2220
 5795TIP3    H239021   4.369   4.986   2.147 -0.6225  1.6831 -1.5240
 5796TIP3   OH239022   4.803   6.541   2.974 -0.4270  0.0645  0.0738
 5796TIP3    H139023   4.763   6.465   3.014 -0.4501  0.1450  0.2038
 5796TIP3    H239024   4.793   6.611   3.039 -0.6809  0.2560 -0.1665
 5797TIP3   OH239025   3.569   1.183   8.550  0.3213 -0.2767 -0.6075
 5797TIP3    H139026   3.479   1.216   8.552  0.6091  0.4767  0.3198
 5797TIP3    H239027   3.561   1.091   8.576 -0.2407 -0.3779 -1.1099
 5798TIP3   OH239028   5.829   0.740   1.837  0.5480  0.2543 -0.1644
 5798TIP3    H139029   5.756   0.735   1.899  0.9889 -2.2785  0.2573
 5798TIP3    H239030   5.806   0.678   1.768  1.7381  0.3578 -0.6779
 5799TIP3   OH239031   1.376   2.682   1.080  0.4513  0.1653 -0.1320
 5799TIP3    H139032   1.446   2.747   1.084  0.1966  0.4398 -0.0271
 5799TIP3    H239033   1.387   2.639   0.996  1.0930 -0.1886  0.1282
 5800TIP3   OH239034   0.323   3.758   1.753  0.2658  0.4849  0.8475
 5800TIP3    H139035   0.377   3.748   1.675 -1.4666 -0.1991 -0.3299
 5800TIP3    H239036   0.264   3.682   1.751 -0.5819  1.0689  2.1894
 5801TIP3   OH239037   0.736   5.828   8.575 -0.6939 -0.7478 -0.3709
 5801TIP3    H139038   0.732   5.838   8.480 -2.1913 -2.2886 -0.5150
 5801TIP3    H239039   0.660   5.876   8.608 -0.2021 -0.2471  0.0517
 5802TIP3   OH239040   4.125   1.419   8.451 -0.6397 -0.3358  0.6771
 5802TIP3    H139041   4.081   1.504   8.442  1.2104  0.4364 -2.7615
 5802TIP3    H239042   4.105   1.373   8.370  0.6054 -2.1020  1.3190
 5803TIP3   OH239043   1.448   4.963   7.825  0.1755 -0.3580 -0.2526
 5803TIP3    H139044   1.362   4.969   7.867  0.5158  0.0571  0.3967
 5803TIP3    H239045   1.475   4.873   7.838 -0.3217 -0.5938 -0.7915
 5804TIP3   OH239046   0.525   4.849   1.068  0.0675 -0.0352  0.3257
 5804TIP3    H139047   0.546   4.917   1.005  0.6006  0.2082  0.7588
 5804TIP3    H239048   0.587   4.779   1.050  1.2937  0.6758  1.5908
 5805TIP3   OH239049   4.409   1.020   1.908 -0.4363  0.0638 -0.3133
 5805TIP3    H139050   4.457   0.959   1.850  0.4246  0.7135 -0.3078
 5805TIP3    H239051   4.458   1.102   1.901 -0.7803  0.3688  0.7457
 5806TIP3   OH239052   1.600   3.018   0.582 -0.0044 -0.3536 -0.6729
 5806TIP3    H139053   1.629   3.004   0.492  0.9416 -0.1948 -0.4090
 5806TIP3    H239054   1.648   3.095   0.611 -0.8351  0.0174 -0.2553
 5807TIP3   OH239055   2.540   5.024   1.768 -0.5692 -0.1167 -0.2560
 5807TIP3    H139056   2.604   4.954   1.751 -2.0424 -1.5470 -0.1142
 5807TIP3    H239057   2.510   5.049   1.681 -0.0238  0.3790 -0.3083
 5808TIP3   OH239058   5.859   2.018   7.842 -0.4786  0.2414 -0.2721
 5808TIP3    H139059   5.829   1.936   7.803  1.0017 -0.3555 -0.2006
 5808TIP3    H239060   5.945   1.997   7.879 -0.6420  1.4974  0.8853
 5809TIP3   OH239061   2.658   6.714   0.714  0.1199 -0.6908 -0.0121
 5809TIP3    H139062   2.617   6.769   0.648 -1.3485 -1.2593  0.3791
 5809TIP3    H239063   2.701   6.645   0.664 -0.3152 -0.6796 -0.4114
 5810TIP3   OH239064   4.138   0.744   3.043 -1.2805  0.1845 -0.1161
 5810TIP3    H139065   4.210   0.705   3.092 -1.8364  0.9738  1.3783
 5810TIP3    H239066   4.174   0.825   3.008 -0.2172 -1.3564 -2.9702
 5811TIP3   OH239067   3.232   1.796   0.588 -0.1285  0.0984 -0.1510
 5811TIP3    H139068   3.157   1.799   0.528  0.1427 -0.8230 -0.5483
 5811TIP3    H239069   3.284   1.722   0.557  0.8270  0.5889  0.2735
 5812TIP3   OH239070   4.248   1.045   2.650 -0.6198 -0.5103  0.4966
 5812TIP3    H139071   4.292   1.129   2.665  0.0244 -0.6816 -0.3361
 5812TIP3    H239072   4.263   1.027   2.557 -0.6295 -1.6166  0.6959
 5813TIP3   OH239073   5.650   1.140   8.075 -0.3858  0.5497 -0.0260
 5813TIP3    H139074   5.625   1.214   8.131 -2.4569 -1.1914  1.5390
 5813TIP3    H239075   5.573   1.125   8.019  0.9058  1.0082 -2.0115
 5814TIP3   OH239076   5.971   3.815   3.018  0.5560 -0.2348 -0.2726
 5814TIP3    H139077   5.902   3.823   3.084  1.3445  0.2133  0.5290
 5814TIP3    H239078   6.002   3.905   3.004 -1.0324  0.0072 -2.8970
 5815TIP3   OH239079   4.923   6.601   1.954  0.1504  0.5725 -0.5833
 5815TIP3    H139080   4.952   6.593   2.045 -0.6393 -0.0987 -0.3788
 5815TIP3    H239081   4.859   6.672   1.955 -0.7523 -0.2275 -0.3750
 5816TIP3   OH239082   4.114   1.420   0.062 -0.3284  0.1860  0.4489
 5816TIP3    H139083   4.200   1.455   0.088 -0.4304 -0.3702  1.6165
 5816TIP3    H239084   4.131   1.328   0.040 -0.3051  0.5590 -1.2337
 5817TIP3   OH239085   5.592   5.962   8.812 -0.4194 -0.2767  0.1429
 5817TIP3    H139086   5.528   5.948   8.743 -1.0105 -1.7933  0.9507
 5817TIP3    H239087   5.559   6.037   8.861 -0.4706  0.2365 -0.6544
 5818TIP3   OH239088   4.312   4.721   2.276  0.0039  0.2792  0.2158
 5818TIP3    H139089   4.383   4.746   2.336  1.0453 -0.5379 -0.6289
 5818TIP3    H239090   4.246   4.789   2.288  1.2359  1.4816  0.5246
 5819TIP3   OH239091   0.339   4.695   8.066 -0.3834 -0.4122  0.3626
 5819TIP3    H139092   0.357   4.615   8.017 -1.0578 -0.0594 -0.4984
 5819TIP3    H239093   0.424   4.737   8.075 -0.3465  0.0086 -1.4345
 5820TIP3   OH239094   3.633   4.759   8.918  0.3150 -0.8583  0.6748
 5820TIP3    H139095   3.588   4.830   8.965  0.5110  1.3021 -2.1897
 5820TIP3    H239096   3.713   4.744   8.968 -0.9464 -1.0253  2.8148
 5821TIP3   OH239097   6.133   2.058   1.841  0.2253  0.0762 -0.2921
 5821TIP3    H139098   6.213   2.093   1.880 -0.3398  1.4063 -0.2678
 5821TIP3    H239099   6.076   2.038   1.916  0.6326 -1.1746 -0.2941
 5822TIP3   OH239100   2.213   6.657   0.005 -0.1700  0.0211 -0.2776
 5822TIP3    H139101   2.224   6.695  -0.083 -1.4738 -0.6074 -0.7341
 5822TIP3    H239102   2.249   6.724   0.064 -0.0519  0.8296 -1.2304
 5823TIP3   OH239103   4.992   2.999   0.059 -0.3180 -0.4158  0.5358
 5823TIP3    H139104   4.911   3.037   0.095  0.4996  0.7267  1.2306
 5823TIP3    H239105   4.977   2.997  -0.036 -0.8889  0.4574  0.5937
 5824TIP3   OH239106   1.058   6.640   2.352 -0.6292 -0.1779 -0.2269
 5824TIP3    H139107   1.010   6.611   2.274  2.2997 -1.8625 -1.5950
 5824TIP3    H239108   1.099   6.722   2.326 -1.3212  0.3433  0.3078
 5825TIP3   OH239109   1.410   2.833   7.751 -0.8012 -0.1267  0.3076
 5825TIP3    H139110   1.362   2.764   7.796 -0.0141 -1.7919 -1.2668
 5825TIP3    H239111   1.500   2.825   7.784 -0.2664 -1.2238 -1.2911
 5826TIP3   OH239112   3.521   4.013   2.589  0.1084  0.0895  0.2356
 5826TIP3    H139113   3.571   3.948   2.639  0.4815 -0.0298 -0.2798
 5826TIP3    H239114   3.575   4.030   2.512  1.0228  2.5481  1.3124
 5827TIP3   OH239115   3.095   5.570   8.809  0.0903 -0.4568 -0.3616
 5827TIP3    H139116   3.161   5.533   8.750  2.0831  2.5670 -0.2216
 5827TIP3    H239117   3.129   5.552   8.896  0.4485  0.5760 -0.2785
 5828TIP3   OH239118   4.312   4.770   1.761  0.7304  0.8332 -0.0121
 5828TIP3    H139119   4.296   4.722   1.842 -2.3625  1.4690 -0.1368
 5828TIP3    H239120   4.407   4.766   1.749  1.2546  0.3377  3.3738
 5829TIP3   OH239121   5.904   4.023   8.660 -0.5877 -0.2686  0.0565
 5829TIP3    H139122   5.940   4.056   8.743  0.1857  1.3736 -0.8626
 5829TIP3    H239123   5.822   4.070   8.649 -0.3023  0.1276 -0.4611
 5830TIP3   OH239124   1.989   6.294   0.111  0.1128 -0.0254 -0.3250
 5830TIP3    H139125   1.938   6.265   0.035  0.2109 -0.5477 -0.1974
 5830TIP3    H239126   1.923   6.311   0.178 -0.0121  0.9496 -0.6887
 5831TIP3   OH239127   3.403   0.940   1.914  0.1819 -0.2312  0.0352
 5831TIP3    H139128   3.359   0.925   1.997  1.6190 -0.4555  0.7840
 5831TIP3    H239129   3.495   0.922   1.932  0.7750  1.3341 -1.1660
 5832TIP3   OH239130   3.623   4.046   2.069 -0.0827  0.1049 -0.2482
 5832TIP3    H139131   3.581   4.117   2.022 -0.0849 -0.3193 -0.9043
 5832TIP3    H239132   3.589   3.966   2.027 -0.0835 -0.2820  0.4735
 5833TIP3   OH239133   1.838   5.026   8.518 -0.7262 -0.0952 -0.6193
 5833TIP3    H139134   1.818   5.050   8.608  2.5132 -1.2905  0.5483
 5833TIP3    H239135   1.786   4.947   8.502 -0.2969 -0.6655  0.7216
 5834TIP3   OH239136   0.759   0.096   3.656  0.6502  0.4581 -0.1030
 5834TIP3    H139137   0.720   0.058   3.577 -0.3781 -0.3905  0.7640
 5834TIP3    H239138   0.701   0.169   3.678  0.4113  0.1490  0.3296
 5835TIP3   OH239139   4.569   4.198   2.051 -0.5594 -0.0189  0.1427
 5835TIP3    H139140   4.627   4.126   2.026  1.1454  1.4651 -0.3873
 5835TIP3    H239141   4.603   4.274   2.004 -3.7582  0.7120 -1.2200
 5836TIP3   OH239142   1.802   5.453   1.537  0.4236  0.5350  0.6177
 5836TIP3    H139143   1.725   5.403   1.563  0.4332  0.3356  0.2670
 5836TIP3    H239144   1.804   5.447   1.442  1.4043 -0.2384  0.6741
 5837TIP3   OH239145   0.603   0.355   8.400 -0.1253  0.1685 -0.0635
 5837TIP3    H139146   0.584   0.417   8.470 -0.1885  2.4082 -1.9785
 5837TIP3    H239147   0.524   0.352   8.347  0.8754  0.8537 -1.6974
 5838TIP3   OH239148   3.044   1.237   1.001  0.0759 -0.4723 -0.5027
 5838TIP3    H139149   3.076   1.151   0.974  0.5571 -0.2359 -0.6970
 5838TIP3    H239150   3.120   1.295   0.991 -0.4193  0.1048 -0.9880
 5839TIP3   OH239151   1.087   4.174   0.520 -0.1541  0.6375  0.0890
 5839TIP3    H139152   1.107   4.237   0.589 -0.9748  0.3946  0.5576
 5839TIP3    H239153   1.104   4.088   0.560  1.2008  0.5518 -0.6252
 5840TIP3   OH239154   5.388   3.021   2.652  0.3604 -0.2038 -0.0022
 5840TIP3    H139155   5.298   2.989   2.656  0.6385 -1.2434 -1.3314
 5840TIP3    H239156   5.423   3.006   2.740 -1.1784  1.6463  1.0057
 5841TIP3   OH239157   5.880   3.136   8.328  0.7096  0.1972 -0.4110
 5841TIP3    H139158   5.826   3.164   8.254 -0.4625  0.2795  0.4463
 5841TIP3    H239159   5.839   3.055   8.359  2.0153 -0.6084 -0.6989
 5842TIP3   OH239160   3.327   3.520   0.599 -0.2985 -0.1678 -0.6120
 5842TIP3    H139161   3.345   3.480   0.684  0.1801 -0.8785 -1.0384
 5842TIP3    H239162   3.290   3.606   0.620  1.9036  0.6307  0.3395
 5843TIP3   OH239163   5.447   3.828   1.023  0.2448  0.4077  0.1599
 5843TIP3    H139164   5.387   3.823   1.098 -2.5402  1.5338 -1.8120
 5843TIP3    H239165   5.478   3.739   1.010 -1.8635 -0.4717  0.6972
 5844TIP3   OH239166   1.436   0.235   1.153 -0.6304  0.2470  0.3203
 5844TIP3    H139167   1.528   0.250   1.130  0.1896 -1.8800  1.8152
 5844TIP3    H239168   1.412   0.158   1.101 -0.8580 -0.5193  1.5361
 5845TIP3   OH239169   2.994   0.641   1.359 -0.5959 -0.4150  0.1680
 5845TIP3    H139170   3.063   0.575   1.368 -0.0648  0.0895 -0.1410
 5845TIP3    H239171   3.041   0.724   1.348 -1.2512  0.1262  1.2330
 5846TIP3   OH239172   5.689   1.345   1.203  0.0005 -0.5598 -0.0343
 5846TIP3    H139173   5.685   1.265   1.150 -0.3121 -1.8365  1.8477
 5846TIP3    H239174   5.635   1.408   1.155 -0.8866 -1.8979 -0.8574
 5847TIP3   OH239175   6.715   0.709   0.624  0.3231 -0.2661  0.4261
 5847TIP3    H139176   6.704   0.672   0.536 -1.3296 -0.2226  0.5829
 5847TIP3    H239177   6.766   0.643   0.671  0.5031 -0.6767 -0.3191
 5848TIP3   OH239178   1.768   5.628   0.740 -0.1975  0.2120  0.1677
 5848TIP3    H139179   1.685   5.626   0.788  1.7746  2.3388  4.1558
 5848TIP3    H239180   1.822   5.562   0.782  1.6897  2.3145  1.2877
 5849TIP3   OH239181   1.669   5.940   7.915 -0.7495  0.0551  0.1165
 5849TIP3    H139182   1.606   6.003   7.882 -0.5182  0.9265  1.2646
 5849TIP3    H239183   1.721   5.989   7.979  0.6672 -0.8072 -0.3133
 5850TIP3   OH239184   3.753   4.861   0.936  0.0137 -0.0862 -0.1949
 5850TIP3    H139185   3.809   4.901   0.870 -1.7441  0.9792 -1.1397
 5850TIP3    H239186   3.794   4.881   1.020  1.3363  0.1086 -0.8761
 5851TIP3   OH239187   3.553   4.556   0.949  0.3525  0.5525 -0.4075
 5851TIP3    H139188   3.527   4.648   0.948 -2.0240 -0.0608 -1.1738
 5851TIP3    H239189   3.619   4.549   0.880 -0.9515  1.3444 -1.8127
 5852TIP3   OH239190   2.793   5.361   2.774 -0.4851  0.0491  0.2241
 5852TIP3    H139191   2.834   5.360   2.860 -0.1234 -3.1731  0.1295
 5852TIP3    H239192   2.862   5.395   2.716  0.5811 -1.1840  0.7144
 5853TIP3   OH239193   6.483   1.097   8.651 -0.1656 -0.2702 -0.1054
 5853TIP3    H139194   6.555   1.129   8.596 -0.2544 -1.3386 -0.8946
 5853TIP3    H239195   6.464   1.169   8.711  0.5417  0.6012 -0.8902
 5854TIP3   OH239196   3.375   2.332   8.485  0.1765 -0.0516 -0.6043
 5854TIP3    H139197   3.321   2.261   8.452  1.6360 -1.4075 -0.1885
 5854TIP3    H239198   3.459   2.292   8.503  0.7045  1.5499  0.7437
 5855TIP3   OH239199   5.122   2.775   3.401 -0.1651 -0.7363 -0.0718
 5855TIP3    H139200   5.066   2.767   3.478  1.0656  0.5073  0.9982
 5855TIP3    H239201   5.161   2.688   3.391 -0.4665 -0.9539  0.5880
 5856TIP3   OH239202   6.204   3.064   0.016 -1.0018 -0.2651  0.1964
 5856TIP3    H139203   6.235   3.029  -0.067  0.7081 -2.5835  1.6889
 5856TIP3    H239204   6.110   3.080   0.002 -0.8541 -1.0375 -2.0003
 5857TIP3   OH239205   4.686   3.204   0.907 -0.1310  0.4166 -0.6678
 5857TIP3    H139206   4.668   3.139   0.839 -0.7588  1.7380 -1.8224
 5857TIP3    H239207   4.748   3.160   0.966  1.1016 -0.5113 -2.5269
 5858TIP3   OH239208   1.932   1.373   1.821  0.0705 -0.3582  0.0663
 5858TIP3    H139209   1.975   1.385   1.906  0.3897  0.7826 -0.2324
 5858TIP3    H239210   1.855   1.320   1.840 -0.0374  0.1512  1.1271
 5859TIP3   OH239211   1.462   1.199   8.739 -0.4931 -0.2412 -0.1951
 5859TIP3    H139212   1.394   1.233   8.681 -0.9970 -0.1908  0.4165
 5859TIP3    H239213   1.513   1.140   8.684 -1.2876 -0.6013 -0.5654
 5860TIP3   OH239214   5.674   0.912   0.298 -0.4588  0.6408 -0.6606
 5860TIP3    H139215   5.584   0.881   0.286 -0.7712  1.1493  0.2470
 5860TIP3    H239216   5.713   0.907   0.211 -0.4978 -2.2217 -0.6147
 5861TIP3   OH239217   4.766   4.323   8.325  1.1408  0.4257  0.0382
 5861TIP3    H139218   4.778   4.384   8.252  1.1039 -0.6341 -0.8847
 5861TIP3    H239219   4.735   4.243   8.283  0.9540 -0.1509  1.2537
 5862TIP3   OH239220   3.633   0.038   0.136  0.4482  0.4214  0.6440
 5862TIP3    H139221   3.585  -0.032   0.180  0.3479  0.6865  0.9524
 5862TIP3    H239222   3.574   0.068   0.067  0.7073 -0.1695  0.1509
 5863TIP3   OH239223   6.004   1.789   0.968  0.0026  0.1814  0.3713
 5863TIP3    H139224   6.090   1.805   1.006 -0.6608  0.1545  1.9666
 5863TIP3    H239225   5.945   1.787   1.043 -1.0709 -2.1468 -0.4420
 5864TIP3   OH239226   0.674   1.725   0.284 -0.4072  0.7255 -0.5052
 5864TIP3    H139227   0.739   1.748   0.351 -0.2791 -0.0630 -0.3374
 5864TIP3    H239228   0.713   1.650   0.238 -1.0191  0.5022 -0.6693
 5865TIP3   OH239229   0.254   4.182   1.288  0.0871 -0.5522  0.4455
 5865TIP3    H139230   0.186   4.160   1.352 -0.5818 -0.2017 -0.1336
 5865TIP3    H239231   0.210   4.241   1.227  1.0829  0.1693  0.4102
 5866TIP3   OH239232   2.900   1.535   8.140 -0.4248 -0.4885  0.5327
 5866TIP3    H139233   2.922   1.628   8.131 -0.3757 -0.4853  0.6786
 5866TIP3    H239234   2.984   1.491   8.146 -0.4442 -0.5744  0.1668
 5867TIP3   OH239235   3.896   4.635   2.359 -0.3308 -0.5757 -0.0311
 5867TIP3    H139236   3.850   4.554   2.338  0.7466 -1.0023 -0.8260
 5867TIP3    H239237   3.912   4.630   2.453 -1.6363 -0.5503  0.2064
 5868TIP3   OH239238   0.580   3.919   8.867 -0.0512 -0.1987 -0.1019
 5868TIP3    H139239   0.503   3.886   8.821  0.5321 -2.1837  0.2647
 5868TIP3    H239240   0.601   3.852   8.932  0.9740  1.1072  0.9994
 5869TIP3   OH239241   0.462   1.382   0.143 -0.1801 -0.2186  0.3048
 5869TIP3    H139242   0.462   1.289   0.165  0.4694  0.3090  2.8409
 5869TIP3    H239243   0.377   1.414   0.172 -0.7492 -0.1235 -1.3373
 5870TIP3   OH239244   0.381   5.207   0.505  0.4787 -0.2478 -0.1632
 5870TIP3    H139245   0.429   5.290   0.501  0.1070 -0.0052  0.2187
 5870TIP3    H239246   0.421   5.152   0.439  0.2298  0.5122 -0.9622
 5871TIP3   OH239247   1.339   0.518   7.814  0.5224  0.2494  0.3507
 5871TIP3    H139248   1.292   0.463   7.750 -0.3299 -0.0316  1.1957
 5871TIP3    H239249   1.342   0.604   7.774 -3.9620  1.2716  1.6741
 5872TIP3   OH239250   2.431   6.683   2.719  0.5626 -0.0313  0.0317
 5872TIP3    H139251   2.365   6.652   2.781 -1.0604 -0.6876 -1.8664
 5872TIP3    H239252   2.514   6.649   2.752 -0.4076 -1.4399  1.1566
 5873TIP3   OH239253   5.331   1.609   1.942 -0.4008  0.3949 -0.4301
 5873TIP3    H139254   5.283   1.578   2.019 -0.6578 -0.2835 -0.8549
 5873TIP3    H239255   5.393   1.539   1.922  2.6226  2.2363  1.5978
 5874TIP3   OH239256   3.599   3.242   8.580 -0.1096 -0.3674 -0.2288
 5874TIP3    H139257   3.608   3.154   8.616  0.5062 -0.4600 -0.5951
 5874TIP3    H239258   3.575   3.229   8.489 -0.8531 -0.1425 -0.0690
 5875TIP3   OH239259   6.478   5.504   1.081 -0.2736  0.4537 -0.1351
 5875TIP3    H139260   6.469   5.447   1.158 -0.4588  0.0679 -0.4426
 5875TIP3    H239261   6.459   5.592   1.115  0.3756  0.3936  0.4213
 5876TIP3   OH239262   4.746   0.397   3.016  0.1329  0.1122  0.3583
 5876TIP3    H139263   4.780   0.343   3.088 -0.0198  0.9208  1.0393
 5876TIP3    H239264   4.825   0.435   2.976  0.2109 -0.2632  0.1481
 5877TIP3   OH239265   3.635   2.757   2.615 -0.1038 -0.5707  0.2506
 5877TIP3    H139266   3.637   2.741   2.709  1.5486 -0.7575  0.1961
 5877TIP3    H239267   3.694   2.692   2.577 -1.1955 -0.8907 -1.0007
 5878TIP3   OH239268   6.699   6.621   2.195  0.2077 -0.1002  0.2882
 5878TIP3    H139269   6.695   6.525   2.187  1.9987 -0.0206 -2.9341
 5878TIP3    H239270   6.783   6.637   2.238  0.2365  0.0561  0.1718
 5879TIP3   OH239271   1.745   4.766   3.444  0.1457 -0.1768 -0.2102
 5879TIP3    H139272   1.763   4.673   3.435  1.9170  0.2931 -2.6268
 5879TIP3    H239273   1.698   4.774   3.527  3.0900 -2.7810  1.9146
 5880TIP3   OH239274   5.200   5.344   2.397  0.2273 -0.2991  0.2404
 5880TIP3    H139275   5.246   5.337   2.480  0.8738  1.4161  0.0617
 5880TIP3    H239276   5.268   5.335   2.330  0.0548  0.4870 -0.0536
 5881TIP3   OH239277   2.526   5.756   7.358 -0.7335  0.3077  0.0040
 5881TIP3    H139278   2.613   5.716   7.356 -0.2535  0.9841  2.8674
 5881TIP3    H239279   2.539   5.839   7.404 -2.9592  0.1265  1.1091
 5882TIP3   OH239280   5.344   0.109   1.088  1.1335 -0.4787 -0.3560
 5882TIP3    H139281   5.282   0.040   1.065  1.3687 -0.8149 -0.0101
 5882TIP3    H239282   5.430   0.071   1.069  1.2440 -0.1406 -0.5219
 5883TIP3   OH239283   3.480   4.261   2.267 -0.4632 -0.5922  0.0331
 5883TIP3    H139284   3.529   4.339   2.293 -0.9482 -0.0923 -0.5445
 5883TIP3    H239285   3.548   4.198   2.242 -0.0691 -0.3747  0.5515
 5884TIP3   OH239286   1.741   2.634   1.019  0.2830  0.0900 -0.5922
 5884TIP3    H139287   1.737   2.659   0.927 -2.2783  0.8635 -0.3571
 5884TIP3    H239288   1.672   2.568   1.029  0.4548  0.0829  0.7785
 5885TIP3   OH239289   1.373   3.624   3.135 -0.6770  0.0946 -0.2942
 5885TIP3    H139290   1.280   3.627   3.111 -0.6925  1.1323 -0.1400
 5885TIP3    H239291   1.387   3.704   3.186  0.4771  0.3148 -0.9369
 5886TIP3   OH239292   3.814   3.801   2.437  0.0024  0.6183  0.0682
 5886TIP3    H139293   3.739   3.850   2.403 -0.4134  1.8536  2.5253
 5886TIP3    H239294   3.890   3.852   2.408 -0.2187  0.6107 -0.5456
 5887TIP3   OH239295   2.493   1.544   2.904  0.5712  0.1623 -0.3090
 5887TIP3    H139296   2.490   1.475   2.970  0.6703  0.1994 -0.2659
 5887TIP3    H239297   2.577   1.587   2.918  0.4284  0.4133 -0.2134
 5888TIP3   OH239298   6.343   5.630   2.723  0.3409  0.4335 -0.0288
 5888TIP3    H139299   6.273   5.694   2.709  0.8612  0.7500 -1.3223
 5888TIP3    H239300   6.384   5.656   2.805 -0.4097  0.8540  0.2232
 5889TIP3   OH239301   3.355   4.023   0.469  0.2381 -0.2592 -0.0276
 5889TIP3    H139302   3.407   3.985   0.539 -2.3758 -2.8198  0.7023
 5889TIP3    H239303   3.390   3.985   0.389 -0.0544 -1.4168  0.3871
 5890TIP3   OH239304   1.121   3.632   1.550 -0.6534 -0.1922 -0.1424
 5890TIP3    H139305   1.210   3.600   1.540  0.1379  1.9129 -0.3354
 5890TIP3    H239306   1.124   3.687   1.629 -1.8766 -0.4120  0.0790
 5891TIP3   OH239307   3.738   2.531   2.503  1.0247 -0.2859  0.1749
 5891TIP3    H139308   3.833   2.533   2.507  1.0439  0.8829 -0.7233
 5891TIP3    H239309   3.718   2.477   2.427  0.9618 -0.4046  0.2740
 5892TIP3   OH239310   6.536   5.094   0.527  0.4403 -0.5597  0.1673
 5892TIP3    H139311   6.461   5.075   0.584 -0.2408  0.9649 -0.1650
 5892TIP3    H239312   6.613   5.082   0.583 -0.2129  0.8949  1.4715
 5893TIP3   OH239313   1.767   1.005   2.413  0.0376 -0.6325  0.0805
 5893TIP3    H139314   1.791   1.042   2.498  0.0372 -2.5077  0.9405
 5893TIP3    H239315   1.830   0.934   2.399 -0.5310 -0.9340 -1.0530
 5894TIP3   OH239316   2.496   2.895   0.338  0.7397 -0.0118  0.4953
 5894TIP3    H139317   2.584   2.890   0.375  1.4658  0.4511 -1.0730
 5894TIP3    H239318   2.492   2.983   0.300 -0.4201 -0.0193  0.5870
 5895TIP3   OH239319   1.844   5.686   1.711 -0.4592  0.4504 -0.0404
 5895TIP3    H139320   1.799   5.616   1.663 -0.7400 -0.1260  1.0297
 5895TIP3    H239321   1.922   5.645   1.746 -1.4442  0.1665  1.9998
 5896TIP3   OH239322   1.482   3.943   1.366  0.0393  0.1748  0.2234
 5896TIP3    H139323   1.507   3.922   1.456  0.0335 -2.8515 -0.3586
 5896TIP3    H239324   1.386   3.950   1.369  0.1112  1.2018  0.6033
 5897TIP3   OH239325   5.443   1.894   1.482  0.0750 -0.8155  0.3146
 5897TIP3    H139326   5.490   1.945   1.416  1.1208 -0.4044  1.3371
 5897TIP3    H239327   5.511   1.840   1.523 -0.4040 -0.4579  1.6151
 5898TIP3   OH239328   6.408   6.660   2.853 -0.5257  0.1654 -0.0981
 5898TIP3    H139329   6.409   6.711   2.934 -2.2221  0.0217  0.0436
 5898TIP3    H239330   6.496   6.623   2.848 -0.0327  1.0722  1.0914
 5899TIP3   OH239331   3.511   6.477   1.398  0.0757 -0.0298  0.0335
 5899TIP3    H139332   3.470   6.539   1.459  0.7803  1.5692 -1.0526
 5899TIP3    H239333   3.456   6.481   1.320 -0.1795 -1.2153  0.1393
 5900TIP3   OH239334   0.555   0.739   3.645  0.4221 -0.3205  0.7890
 5900TIP3    H139335   0.566   0.648   3.618  0.3329  0.0860 -0.7213
 5900TIP3    H239336   0.466   0.744   3.679 -0.0748 -0.5151 -0.4358
 5901TIP3   OH239337   4.268   5.205   8.829 -0.0959 -0.6546  0.0975
 5901TIP3    H139338   4.322   5.283   8.818  0.7591 -1.0836  1.0108
 5901TIP3    H239339   4.192   5.235   8.879 -0.9154  0.0298 -1.5103
 5902TIP3   OH239340   4.189   5.505   1.129  0.3042  0.4741 -0.8602
 5902TIP3    H139341   4.169   5.572   1.195  0.2367  1.1804 -1.5889
 5902TIP3    H239342   4.144   5.427   1.161 -0.3619  1.0072 -0.4479
 5903TIP3   OH239343   2.198   1.472   0.760 -0.2308  0.0541 -0.1994
 5903TIP3    H139344   2.170   1.443   0.673 -0.6072 -0.9614  0.2430
 5903TIP3    H239345   2.134   1.434   0.820 -1.1327  2.3566  0.4106
 5904TIP3   OH239346   2.086   3.743   0.635 -0.0857 -0.4082 -0.9422
 5904TIP3    H139347   2.176   3.774   0.648  0.2232 -1.2495 -1.0030
 5904TIP3    H239348   2.093   3.674   0.569 -0.6091 -1.2396 -0.1579
 5905TIP3   OH239349   6.321   5.279   0.933  0.1487  0.0733  0.6649
 5905TIP3    H139350   6.336   5.345   0.865 -0.1824  0.4561  0.9609
 5905TIP3    H239351   6.370   5.203   0.903  1.2664  0.7325  0.7528
 5906TIP3   OH239352   1.288   4.499   0.585  0.2545  0.6396  0.7642
 5906TIP3    H139353   1.215   4.459   0.633 -0.9673  1.6122 -0.2229
 5906TIP3    H239354   1.293   4.448   0.504  2.2073 -0.8949  1.7614
 5907TIP3   OH239355   6.240   4.731   2.894 -0.4045 -0.2898  0.3215
 5907TIP3    H139356   6.195   4.667   2.949  0.8822 -1.4920  0.0398
 5907TIP3    H239357   6.248   4.688   2.809 -0.6667  0.7748 -0.2517
 5908TIP3   OH239358   1.277   3.016   3.168 -0.1883  0.6463  0.0483
 5908TIP3    H139359   1.271   2.987   3.259  0.1181  0.8451  0.1321
 5908TIP3    H239360   1.241   3.104   3.169 -0.8459  0.3899 -0.1544
 5909TIP3   OH239361   2.273   1.053   7.749 -0.1986 -0.3759 -0.3470
 5909TIP3    H139362   2.272   1.148   7.742  1.8485 -0.1672  1.2105
 5909TIP3    H239363   2.329   1.024   7.677  0.5503 -0.2588  0.1851
 5910TIP3   OH239364   6.617   6.080   1.781  0.6301 -0.0958 -0.2719
 5910TIP3    H139365   6.591   6.124   1.862  0.2076 -1.1986  0.2141
 5910TIP3    H239366   6.629   6.151   1.718 -1.0079  0.6388  0.1961
 5911TIP3   OH239367   2.505   0.509   2.215  0.1925 -0.1701  0.0397
 5911TIP3    H139368   2.415   0.494   2.246 -0.8997  0.6758 -2.4729
 5911TIP3    H239369   2.513   0.604   2.210  0.4626 -0.2468 -1.6865
 5912TIP3   OH239370   1.924   4.884   7.933  0.1390 -0.6733  0.6820
 5912TIP3    H139371   2.009   4.852   7.905  1.7336  2.1860  1.9212
 5912TIP3    H239372   1.942   4.940   8.009 -2.3322  2.9385 -1.0881
 5913TIP3   OH239373   3.087   3.483   1.215 -0.3025 -0.0704 -0.0634
 5913TIP3    H139374   3.136   3.546   1.163 -0.5561  1.6505  1.6780
 5913TIP3    H239375   3.149   3.413   1.233  0.9557  1.1451  0.4833
 5914TIP3   OH239376   0.533   2.927   8.980  0.1569 -0.6050  0.4287
 5914TIP3    H139377   0.448   2.934   8.935  0.2540 -1.0489  0.1741
 5914TIP3    H239378   0.510   2.928   9.073  0.0132  1.1680  0.4146
 5915TIP3   OH239379   2.039   5.032   8.120 -0.1259  0.7115  0.3457
 5915TIP3    H139380   2.017   5.113   8.073 -1.7957  0.5651  0.8322
 5915TIP3    H239381   2.102   5.060   8.187 -0.5023  1.5628  0.3556
 5916TIP3   OH239382   5.193   0.604   2.116 -0.0345 -0.0758  0.0744
 5916TIP3    H139383   5.238   0.688   2.111  1.3613 -0.7748  0.3235
 5916TIP3    H239384   5.146   0.607   2.200  1.0937 -0.0494  0.7202
 5917TIP3   OH239385   0.055   6.186   2.034  0.3649 -0.5157 -0.2708
 5917TIP3    H139386   0.081   6.252   2.098  0.1824 -1.4970  0.8391
 5917TIP3    H239387   0.125   6.189   1.968 -0.3805  1.7906 -1.0579
 5918TIP3   OH239388   1.881   2.760   8.438  0.0800  0.0678  0.1705
 5918TIP3    H139389   1.791   2.777   8.413  0.7377  0.1232 -2.4079
 5918TIP3    H239390   1.904   2.678   8.394  1.6458  0.6957 -0.2794
 5919TIP3   OH239391   5.126   4.386   0.976 -0.0978 -0.1147  0.5204
 5919TIP3    H139392   5.104   4.377   1.069  2.0640  1.9603  1.3347
 5919TIP3    H239393   5.178   4.307   0.957  1.7464  0.6698  1.9111
 5920TIP3   OH239394   3.203   6.385   8.358 -0.1579  0.8614  0.0412
 5920TIP3    H139395   3.112   6.382   8.390 -0.4287  2.3314 -0.4717
 5920TIP3    H239396   3.224   6.479   8.358  2.0296  0.4234  1.9233
 5921TIP3   OH239397   1.899   3.418   1.079 -0.4940 -0.4341  0.6725
 5921TIP3    H139398   1.906   3.322   1.080  0.1880 -0.3882  1.8897
 5921TIP3    H239399   1.969   3.448   1.137 -0.1155  0.8577 -0.4012
 5922TIP3   OH239400   2.920   2.473   7.732 -0.0973  0.4330  0.0580
 5922TIP3    H139401   2.904   2.566   7.718  1.3592  0.6122 -0.5451
 5922TIP3    H239402   2.999   2.453   7.681  0.4986 -0.7798  1.3681
 5923TIP3   OH239403   6.206   3.094   0.868  0.6670  0.8616  0.1862
 5923TIP3    H139404   6.297   3.067   0.856  0.3122 -0.5603  0.4362
 5923TIP3    H239405   6.163   3.016   0.903 -1.0508  0.8545 -1.7107
 5924TIP3   OH239406   2.803   3.772   8.462 -0.5334  0.3301 -0.4148
 5924TIP3    H139407   2.881   3.758   8.408 -0.4313 -0.2757 -0.1139
 5924TIP3    H239408   2.732   3.777   8.398 -0.1282  2.0749 -0.7913
 5925TIP3   OH239409   4.437   5.922   8.261 -0.0357 -0.7740 -0.0721
 5925TIP3    H139410   4.409   6.014   8.256  2.1817  0.1352  1.8275
 5925TIP3    H239411   4.526   5.923   8.226  0.4389 -1.9347  1.0299
 5926TIP3   OH239412   6.489   5.450   1.741  0.1324  0.1668  0.4755
 5926TIP3    H139413   6.512   5.543   1.735 -1.4519  0.8500  3.3089
 5926TIP3    H239414   6.538   5.419   1.817 -1.0277 -0.7281  0.8837
 5927TIP3   OH239415   4.074   0.487   2.041 -0.2799  0.2438 -0.1408
 5927TIP3    H139416   3.999   0.535   2.006 -0.6109 -0.2867 -0.1640
 5927TIP3    H239417   4.150   0.534   2.007 -0.5974  0.0964 -1.0840
 5928TIP3   OH239418   3.200   4.800   0.781  0.0403 -0.9263 -0.3193
 5928TIP3    H139419   3.105   4.807   0.769  0.0054 -0.4715  0.1783
 5928TIP3    H239420   3.219   4.859   0.854  0.5536 -1.8908  0.3383
 5929TIP3   OH239421   2.813   1.644   7.634 -0.8680 -0.3302  0.4816
 5929TIP3    H139422   2.902   1.630   7.603 -1.5023 -1.0100 -1.1137
 5929TIP3    H239423   2.796   1.737   7.617 -0.0962  0.0899  1.8604
 5930TIP3   OH239424   1.850   2.317   0.176 -0.2821  0.3225  0.2841
 5930TIP3    H139425   1.755   2.309   0.172 -0.3533  1.4984 -1.6707
 5930TIP3    H239426   1.870   2.315   0.269 -2.0689 -1.2980  0.6881
 5931TIP3   OH239427   6.154   0.050   8.923 -0.3937 -0.3394  0.0691
 5931TIP3    H139428   6.162   0.066   9.017 -1.9177  0.3063  0.1194
 5931TIP3    H239429   6.070   0.006   8.913  0.1167 -1.1280 -0.9299
 5932TIP3   OH239430   3.154   3.203   1.353  0.1305  0.2634  0.1197
 5932TIP3    H139431   3.218   3.154   1.302  0.6766 -0.8343  1.7702
 5932TIP3    H239432   3.203   3.232   1.430 -0.9297  0.9030  0.5729
 5933TIP3   OH239433   4.370   2.128   2.457 -0.1241 -0.0044  0.3784
 5933TIP3    H139434   4.286   2.161   2.491 -0.1997 -0.8813  1.0753
 5933TIP3    H239435   4.346   2.054   2.402  0.3049 -1.8669  2.5737
 5934TIP3   OH239436   2.389   1.914   3.018 -0.2597  0.3545 -0.1132
 5934TIP3    H139437   2.480   1.883   3.018 -0.1437  0.6544  1.1658
 5934TIP3    H239438   2.396   2.009   3.020 -0.6223  0.5705 -3.4754
 5935TIP3   OH239439   2.868   0.388   1.123 -0.4248 -0.0852 -0.0217
 5935TIP3    H139440   2.900   0.320   1.063  0.3727  0.3923 -0.1637
 5935TIP3    H239441   2.835   0.341   1.199  2.4862 -0.5906  1.0397
 5936TIP3   OH239442   3.627   6.726   1.106 -0.8691  0.5367 -0.1965
 5936TIP3    H139443   3.570   6.726   1.182  2.1954 -0.4694  2.2998
 5936TIP3    H239444   3.688   6.798   1.121 -0.0983  0.2272 -1.6388
 5937TIP3   OH239445   6.294   2.703   8.624  0.3295  0.3287 -0.2762
 5937TIP3    H139446   6.320   2.645   8.552 -2.4397  0.4464 -1.5090
 5937TIP3    H239447   6.288   2.646   8.700 -0.4678 -0.6558 -1.0462
 5938TIP3   OH239448   6.684   1.794   9.057  0.4941 -0.1510  0.0183
 5938TIP3    H139449   6.738   1.870   9.082  1.1862 -0.3340 -0.8650
 5938TIP3    H239450   6.595   1.820   9.079  0.8914  0.2923  1.2028
 5939TIP3   OH239451   5.693   4.420   1.568  0.0133  0.0122 -0.2606
 5939TIP3    H139452   5.754   4.403   1.640  1.2062  1.6040 -0.8396
 5939TIP3    H239453   5.726   4.368   1.495  0.3735  0.4374 -0.4078
 5940TIP3   OH239454   1.798   6.705   0.488  0.2397  0.0394  0.5162
 5940TIP3    H139455   1.805   6.646   0.563  1.3050  1.0149  1.2226
 5940TIP3    H239456   1.704   6.719   0.478  0.0246 -0.8943  1.0188
 5941TIP3   OH239457   4.399   3.215   2.664 -0.1350 -0.3630 -0.2938
 5941TIP3    H139458   4.373   3.300   2.700  0.5822 -0.5108  0.6112
 5941TIP3    H239459   4.340   3.152   2.706 -1.7834 -0.1990 -2.1857
 5942TIP3   OH239460   4.883   0.821   0.747 -0.1524 -0.0319 -0.3078
 5942TIP3    H139461   4.940   0.897   0.756 -1.0514  1.0507 -2.8636
 5942TIP3    H239462   4.825   0.824   0.823  1.7122  0.0663  1.1905
 5943TIP3   OH239463   4.106   6.142   2.952 -0.0960 -0.0382  0.2354
 5943TIP3    H139464   4.147   6.116   3.035 -0.0381  0.3297  0.3228
 5943TIP3    H239465   4.147   6.225   2.930 -1.3867  0.7629  0.7610
 5944TIP3   OH239466   5.390   2.953   1.182 -0.7996 -0.4067  0.7095
 5944TIP3    H139467   5.392   2.865   1.218 -1.6553  0.3743  2.7873
 5944TIP3    H239468   5.482   2.977   1.168 -0.5743 -2.4177 -2.1318
 5945TIP3   OH239469   4.353   3.221   8.666  0.0115  0.0382  0.6317
 5945TIP3    H139470   4.337   3.133   8.700 -0.9475 -0.1287 -0.1946
 5945TIP3    H239471   4.445   3.220   8.640  0.0383 -0.6864  0.7306
 5946TIP3   OH239472   2.053   3.831   1.272 -0.4639  0.1528  0.0539
 5946TIP3    H139473   2.036   3.796   1.359 -0.4659 -1.5333 -0.5836
 5946TIP3    H239474   2.146   3.855   1.272 -0.7794  1.4845  0.9234
 5947TIP3   OH239475   1.937   2.139   1.898  0.4350 -0.5369 -0.2095
 5947TIP3    H139476   1.889   2.066   1.859 -1.8496  1.9792 -2.5440
 5947TIP3    H239477   2.029   2.112   1.895 -0.3999 -3.8130  0.3557
 5948TIP3   OH239478   0.315   2.022   0.918 -0.0618  0.0344 -0.0413
 5948TIP3    H139479   0.410   2.017   0.920  0.1498  0.3632 -3.1138
 5948TIP3    H239480   0.286   1.996   1.005  2.8646  1.2362  1.3995
 5949TIP3   OH239481   5.694   4.464   1.005 -0.4828  0.2706 -0.0887
 5949TIP3    H139482   5.621   4.481   0.946 -0.9008  1.7727  0.7909
 5949TIP3    H239483   5.770   4.453   0.948 -1.1523 -0.0050 -0.9521
 5950TIP3   OH239484   3.839   5.428   2.250  0.7291 -0.6950  0.1537
 5950TIP3    H139485   3.868   5.497   2.309 -1.3925  1.2880 -0.9733
 5950TIP3    H239486   3.815   5.355   2.307  0.8344  0.3548  1.5611
 5951TIP3   OH239487   6.178   5.615   0.926  0.0083 -0.0888  0.1888
 5951TIP3    H139488   6.202   5.543   0.984 -0.4884  0.5792  1.2752
 5951TIP3    H239489   6.129   5.675   0.983 -0.5049  0.5919 -0.9404
 5952TIP3   OH239490   1.713   0.469   2.165  0.2734 -0.5468  0.0938
 5952TIP3    H139491   1.707   0.533   2.094  0.6549 -0.5552  0.0515
 5952TIP3    H239492   1.622   0.448   2.186  0.1160  0.7075  0.7395
 5953TIP3   OH239493   4.280   0.980   0.219 -0.2663 -0.6338 -0.4386
 5953TIP3    H139494   4.373   1.001   0.230 -0.6794  0.7212  0.8318
 5953TIP3    H239495   4.274   0.944   0.131  1.2903  0.3123 -0.9692
 5954TIP3   OH239496   4.630   1.478   0.318  0.4502 -0.0547 -0.7918
 5954TIP3    H139497   4.671   1.510   0.238  1.7136 -0.9982 -0.5544
 5954TIP3    H239498   4.657   1.386   0.324  1.4954  0.3390  1.3778
 5955TIP3   OH239499   6.230   2.727   8.194 -0.2995  0.5547 -0.3160
 5955TIP3    H139500   6.291   2.769   8.254 -0.0639 -0.2018 -0.0254
 5955TIP3    H239501   6.278   2.722   8.111  1.1136 -2.4626  0.5534
 5956TIP3   OH239502   1.445   2.019   8.768 -0.1271 -0.4392 -0.0183
 5956TIP3    H139503   1.429   1.926   8.780 -1.2256 -0.3311 -0.5372
 5956TIP3    H239504   1.530   2.023   8.725 -0.7637 -1.3048 -1.4259
 5957TIP3   OH239505   4.419   5.945   0.097 -0.5325 -0.1292 -0.2916
 5957TIP3    H139506   4.360   5.933   0.023  1.0182 -2.4909 -1.2640
 5957TIP3    H239507   4.470   5.864   0.101  1.3539  1.0297  1.6471
 5958TIP3   OH239508   6.288   0.368   8.752  0.4024 -0.3952 -0.0105
 5958TIP3    H139509   6.248   0.335   8.671  0.3047 -1.1820  0.3525
 5958TIP3    H239510   6.242   0.321   8.822 -1.3125  2.0886  0.6711
 5959TIP3   OH239511   3.017   3.598   7.965  0.0501  0.4496  0.7183
 5959TIP3    H139512   3.030   3.654   8.041  0.7828  1.6105 -0.2342
 5959TIP3    H239513   3.099   3.604   7.917 -0.3571 -0.3742 -0.1068
 5960TIP3   OH239514   3.489   3.875   0.267 -0.1808 -0.6643 -0.3164
 5960TIP3    H139515   3.427   3.805   0.247  1.3271 -1.4518 -2.5368
 5960TIP3    H239516   3.545   3.881   0.189  0.4329  2.2797  0.2353
 5961TIP3   OH239517   2.191   3.696   8.840  0.6732  0.2108  0.0852
 5961TIP3    H139518   2.195   3.689   8.936 -0.3374  1.9230  0.3094
 5961TIP3    H239519   2.273   3.657   8.810  0.6058 -1.2152  1.5723
 5962TIP3   OH239520   3.271   0.540   3.385 -0.0411  0.1025  0.9582
 5962TIP3    H139521   3.350   0.487   3.385  0.3417  0.6612  0.1977
 5962TIP3    H239522   3.217   0.503   3.315 -0.4721 -0.2806  1.4756
 5963TIP3   OH239523   4.987   3.464   8.870 -0.2314 -0.0485  0.4184
 5963TIP3    H139524   5.010   3.540   8.924  0.9261  0.4583 -0.7510
 5963TIP3    H239525   4.892   3.465   8.868 -0.2395  1.5981  0.1292
 5964TIP3   OH239526   6.419   0.053   0.520 -0.0962 -0.2104  0.3013
 5964TIP3    H139527   6.382  -0.003   0.451  0.0692 -1.4636  1.1911
 5964TIP3    H239528   6.428  -0.005   0.595 -1.5219  1.4492  1.8378
 5965TIP3   OH239529   0.616   3.470   2.179  0.3301  0.7727  0.1704
 5965TIP3    H139530   0.527   3.479   2.145  0.5142  2.6258  0.0331
 5965TIP3    H239531   0.614   3.391   2.232 -1.3922  0.7484  0.1321
 5966TIP3   OH239532   3.496   4.188   2.896  0.3593  0.0485  0.2256
 5966TIP3    H139533   3.433   4.149   2.957 -0.0973 -0.7867 -0.7386
 5966TIP3    H239534   3.531   4.113   2.847  0.3858  0.7220 -0.8149
 5967TIP3   OH239535   4.775   2.203   2.272  0.4723 -0.1647 -0.2226
 5967TIP3    H139536   4.846   2.171   2.216  0.5525  0.0209 -0.2267
 5967TIP3    H239537   4.733   2.124   2.305  0.6484 -0.2754 -0.2633
 5968TIP3   OH239538   4.474   4.761   0.454 -0.0351  0.0751  0.4434
 5968TIP3    H139539   4.458   4.854   0.438  1.0112 -0.0047 -1.3713
 5968TIP3    H239540   4.565   4.757   0.484  0.3699 -0.4266 -0.7681
 5969TIP3   OH239541   6.092   3.205   7.385 -0.8304 -0.0005 -0.2448
 5969TIP3    H139542   6.159   3.234   7.323 -1.5325  1.8621 -0.1668
 5969TIP3    H239543   6.010   3.213   7.338 -1.1796 -0.6944  0.2212
 5970TIP3   OH239544   0.433   0.207   1.275  0.2293  0.1900 -0.3395
 5970TIP3    H139545   0.482   0.141   1.322  0.5362  2.1652  2.3335
 5970TIP3    H239546   0.498   0.252   1.220  0.7036  0.4646  0.4395
 5971TIP3   OH239547   3.772   6.485   1.321  0.6382  0.7352  0.0300
 5971TIP3    H139548   3.805   6.468   1.409  1.9794  0.9294 -0.4143
 5971TIP3    H239549   3.677   6.471   1.327  0.8453 -0.2310  1.2511
 5972TIP3   OH239550   0.194   2.475   0.596  0.3600  0.2872 -0.6684
 5972TIP3    H139551   0.112   2.430   0.617  0.0756  0.6526 -0.9829
 5972TIP3    H239552   0.214   2.448   0.506 -0.3000  1.4830 -1.2038
 5973TIP3   OH239553   2.202   5.629   7.253 -0.5548 -0.1128  0.6306
 5973TIP3    H139554   2.131   5.679   7.291 -0.3317 -0.6719  1.8329
 5973TIP3    H239555   2.159   5.559   7.204 -0.8559  0.9759 -0.7378
 5974TIP3   OH239556   3.937   3.392   0.441 -0.0292  0.2919  0.5044
 5974TIP3    H139557   3.962   3.303   0.417 -0.4757 -0.2036  1.8140
 5974TIP3    H239558   3.853   3.406   0.397  0.0063  0.0447  0.3571
 5975TIP3   OH239559   5.441   3.039   8.830 -0.2751  0.6511  0.0551
 5975TIP3    H139560   5.500   3.085   8.890  0.0534 -0.7091  0.8107
 5975TIP3    H239561   5.416   3.106   8.766  0.1153  1.8964  1.1535
 5976TIP3   OH239562   4.891   1.703   1.774  0.0580  0.0155  0.0196
 5976TIP3    H139563   4.946   1.735   1.846  1.7976  0.5990 -1.4710
 5976TIP3    H239564   4.919   1.613   1.761 -0.3240 -0.1202  0.1320
 5977TIP3   OH239565   3.489   4.841   1.047 -0.1768 -0.1361  0.0946
 5977TIP3    H139566   3.576   4.851   1.011  0.2414 -1.0373  0.8072
 5977TIP3    H239567   3.497   4.870   1.138 -0.9090  0.8833 -0.1449
 5978TIP3   OH239568   2.255   4.919   2.610  0.0456 -0.8843  0.2517
 5978TIP3    H139569   2.221   4.954   2.693  2.0393  0.3178  0.6252
 5978TIP3    H239570   2.178   4.883   2.566 -1.3380 -0.0933  1.9006
 5979TIP3   OH239571   4.753   4.440   2.823  0.5142  0.3915 -0.1968
 5979TIP3    H139572   4.740   4.463   2.915 -1.1918 -1.3104  0.0303
 5979TIP3    H239573   4.674   4.472   2.778 -0.0237 -1.3099 -0.5395
 5980TIP3   OH239574   0.030   2.423   1.677 -0.3332 -0.3104  0.1328
 5980TIP3    H139575  -0.035   2.493   1.687 -1.7333 -1.3608 -1.0714
 5980TIP3    H239576  -0.007   2.365   1.610  1.2526 -1.6639  0.3495
 5981TIP3   OH239577   5.531   0.283   1.574  0.1799  0.1536 -0.4500
 5981TIP3    H139578   5.492   0.356   1.527  1.3096  2.6152  2.1787
 5981TIP3    H239579   5.598   0.249   1.514 -0.2284  1.4260 -1.6632
 5982TIP3   OH239580   1.878   2.270   2.297  0.6631  0.0494 -0.1851
 5982TIP3    H139581   1.835   2.323   2.229 -0.9022 -2.6752 -1.5326
 5982TIP3    H239582   1.954   2.232   2.253  0.1746 -0.9905 -0.1689
 5983TIP3   OH239583   4.740   3.642   9.083 -0.0837 -0.3586  0.1904
 5983TIP3    H139584   4.694   3.707   9.028  0.5694  0.8229  1.0023
 5983TIP3    H239585   4.831   3.670   9.080  0.1863 -1.1929  0.6533
 5984TIP3   OH239586   5.256   0.738   2.781 -0.6961 -0.5483  0.1264
 5984TIP3    H139587   5.238   0.815   2.728  0.6964 -1.1860 -1.3667
 5984TIP3    H239588   5.344   0.751   2.816  0.0910 -1.9650 -1.1900
 5985TIP3   OH239589   0.141   2.410   2.963  0.5905  0.3652 -0.1557
 5985TIP3    H139590   0.142   2.412   3.058 -0.1650  0.0710 -0.1355
 5985TIP3    H239591   0.233   2.413   2.938  0.8541 -0.7227  0.6023
 5986TIP3   OH239592   2.383   3.956   3.253  0.1155 -0.2231 -0.0196
 5986TIP3    H139593   2.396   3.985   3.163 -1.9734  0.5923 -0.1184
 5986TIP3    H239594   2.468   3.971   3.295  0.2083  2.6925 -0.9949
 5987TIP3   OH239595   2.373   6.113   0.043 -0.0578  0.4230 -0.8528
 5987TIP3    H139596   2.445   6.140   0.101  0.7606 -2.7128 -0.2202
 5987TIP3    H239597   2.327   6.044   0.092 -0.8967 -0.5895 -2.9228
 5988TIP3   OH239598   4.839   3.738   3.084  0.0246 -1.1843 -0.5528
 5988TIP3    H139599   4.885   3.783   3.013  1.0018 -1.9669 -0.4439
 5988TIP3    H239600   4.889   3.761   3.162 -1.2940  0.0175 -0.0338
 5989TIP3   OH239601   6.063   5.551   8.975  0.1022 -0.1344  0.9918
 5989TIP3    H139602   5.973   5.582   8.982 -0.2946 -1.3395  1.5368
 5989TIP3    H239603   6.116   5.619   9.017  0.1058  3.0847 -3.5663
 5990TIP3   OH239604   2.302   2.473   3.734 -0.0820 -0.8971 -0.4988
 5990TIP3    H139605   2.389   2.456   3.698 -0.1649 -2.7835  0.0487
 5990TIP3    H239606   2.270   2.549   3.685  1.5105 -0.7050 -1.3183
 5991TIP3   OH239607   1.253   2.159   0.509 -0.0597 -0.6583 -0.2662
 5991TIP3    H139608   1.229   2.125   0.595 -0.2963 -1.8012 -0.7621
 5991TIP3    H239609   1.333   2.112   0.486 -0.2768 -0.7382 -0.8888
 5992TIP3   OH239610   1.880   5.876   0.364  0.6870  0.3002  0.2703
 5992TIP3    H139611   1.810   5.815   0.340  0.1411  0.6860  0.8510
 5992TIP3    H239612   1.940   5.875   0.289 -0.8519  1.3049 -1.0319
 5993TIP3   OH239613   0.551   6.152   1.041  0.7509  0.0433 -0.1682
 5993TIP3    H139614   0.646   6.140   1.049  1.1943  2.7112 -0.4020
 5993TIP3    H239615   0.519   6.068   1.008  2.7605 -1.5211  1.5562
 5994TIP3   OH239616   5.043   5.768   0.234 -0.1457 -0.3515  0.1054
 5994TIP3    H139617   5.054   5.737   0.144  1.2453  0.0563  0.1082
 5994TIP3    H239618   4.997   5.852   0.225  0.5323 -0.0111 -0.2938
 5995TIP3   OH239619   6.392   0.965   2.683 -0.6963 -0.7019  0.0240
 5995TIP3    H139620   6.418   1.057   2.691  2.2288 -1.4685  0.3602
 5995TIP3    H239621   6.370   0.955   2.590  0.2986  0.0341 -0.3101
 5996TIP3   OH239622   2.110   5.848   0.069  0.0411  0.6752  0.0587
 5996TIP3    H139623   2.139   5.764   0.105 -2.2008  0.5009  1.6969
 5996TIP3    H239624   2.100   5.833  -0.024  2.0311 -0.1240 -0.0657
 5997TIP3   OH239625   1.960   3.125   2.742 -0.3548 -0.8798  0.2164
 5997TIP3    H139626   1.959   3.147   2.836  2.5458 -0.6930  0.2807
 5997TIP3    H239627   1.967   3.029   2.740  0.9884 -0.7988  0.2592
 5998TIP3   OH239628   2.883   4.700   8.883  0.0621 -0.2017 -0.4906
 5998TIP3    H139629   2.951   4.727   8.821  1.2402 -0.8879  0.4473
 5998TIP3    H239630   2.808   4.678   8.828  1.1113 -0.9192 -1.7084
 5999TIP3   OH239631   6.514   3.563   2.755 -0.0503  0.2148  0.0332
 5999TIP3    H139632   6.504   3.473   2.724  0.0490 -0.3819  1.6187
 5999TIP3    H239633   6.464   3.566   2.837 -0.9407  1.9150 -0.5190
 6000TIP3   OH239634   1.268   2.667   3.360 -0.0240 -0.3753 -0.0338
 6000TIP3    H139635   1.328   2.593   3.370 -0.1824 -0.1959  2.9650
 6000TIP3    H239636   1.321   2.744   3.375  0.2010  0.3193 -3.4277
 6001TIP3   OH239637   0.230   5.511   8.981  0.7755  0.0074 -0.0982
 6001TIP3    H139638   0.279   5.590   8.957  1.3295 -0.0758  0.7408
 6001TIP3    H239639   0.219   5.517   9.075  3.2028 -2.2172  0.4432
 6002TIP3   OH239640   4.721   3.415   8.821 -0.2344 -0.5613 -0.3302
 6002TIP3    H139641   4.633   3.448   8.836 -0.2206  1.4674 -3.6703
 6002TIP3    H239642   4.709   3.338   8.765  0.1202 -1.0174  0.2004
 6003TIP3   OH239643   3.182   6.115   0.856  0.6416  0.2220 -0.3435
 6003TIP3    H139644   3.161   6.030   0.893  1.5247  1.3291  3.1247
 6003TIP3    H239645   3.099   6.151   0.827 -0.5935  0.0384  2.6455
 6004TIP3   OH239646   3.752   6.226   8.233 -0.3786  0.6779  0.2881
 6004TIP3    H139647   3.778   6.214   8.324  0.9369  0.9451 -0.0258
 6004TIP3    H239648   3.753   6.138   8.195 -2.5374  0.3357  0.8959
 6005TIP3   OH239649   1.367   5.305   0.641  0.5892 -0.0601  0.5291
 6005TIP3    H139650   1.425   5.284   0.714  1.4154  0.3292 -0.0110
 6005TIP3    H239651   1.421   5.355   0.580 -0.5611  1.1261  0.4382
 6006TIP3   OH239652   3.514   2.140   8.227  0.7326  0.2828 -0.4545
 6006TIP3    H139653   3.515   2.235   8.225  3.0976  0.3066 -2.8400
 6006TIP3    H239654   3.429   2.116   8.190 -0.0293  1.4007  0.4877
 6007TIP3   OH239655   0.486   4.785   3.001  0.5101 -0.0243  0.4546
 6007TIP3    H139656   0.491   4.730   2.923  0.7072 -0.2954  0.6563
 6007TIP3    H239657   0.556   4.752   3.058  1.3285  1.0998  0.1464
 6008TIP3   OH239658   2.315   2.459   7.953  0.1526  0.0737  0.3383
 6008TIP3    H139659   2.327   2.408   7.873 -0.0452  1.1461 -0.3996
 6008TIP3    H239660   2.230   2.502   7.941  1.2016  2.1774 -0.0074
 6009TIP3   OH239661   6.082   0.258   2.275  0.0321 -0.6620 -0.5325
 6009TIP3    H139662   6.037   0.197   2.216 -1.0325 -0.3366 -0.0885
 6009TIP3    H239663   6.090   0.210   2.357  0.2194 -0.6075 -0.5193
 6010TIP3   OH239664   1.650   2.352   8.980  0.4204  0.0998 -0.1106
 6010TIP3    H139665   1.702   2.275   8.957 -0.2602 -0.5576  0.5002
 6010TIP3    H239666   1.620   2.335   9.069 -2.4040 -0.4475 -1.0552
 6011TIP3   OH239667   0.421   4.336   2.078  0.1684 -0.0317  0.7479
 6011TIP3    H139668   0.438   4.297   1.992 -1.0388  1.2562 -0.1247
 6011TIP3    H239669   0.352   4.281   2.116  0.0935 -0.1020  0.5146
 6012TIP3   OH239670   5.804   2.416   8.294 -0.0087  0.4164 -0.1812
 6012TIP3    H139671   5.886   2.440   8.338  0.1332  3.1071 -1.6447
 6012TIP3    H239672   5.815   2.324   8.271  1.4348 -0.0324  2.0117
 6013TIP3   OH239673   1.461   1.930   2.282  0.2984 -0.0326 -0.1187
 6013TIP3    H139674   1.529   1.976   2.233 -0.3643 -0.4767 -1.5275
 6013TIP3    H239675   1.509   1.878   2.347  1.1697  1.0163  0.1000
 6014TIP3   OH239676   3.371   3.459   8.346  0.4207  0.2694 -0.2493
 6014TIP3    H139677   3.288   3.440   8.301 -0.0289  0.9656  0.2532
 6014TIP3    H239678   3.370   3.555   8.356  0.9781  0.2121  0.3515
 6015TIP3   OH239679   1.461   1.386   0.133  0.4934 -0.1609 -0.2242
 6015TIP3    H139680   1.519   1.311   0.146 -0.6750 -1.2720 -1.1861
 6015TIP3    H239681   1.439   1.415   0.222  1.4170 -0.5720  0.1540
 6016TIP3   OH239682   1.818   4.353   8.283 -0.3522 -0.5146 -0.3278
 6016TIP3    H139683   1.738   4.369   8.333  0.2409  0.1935  0.4002
 6016TIP3    H239684   1.832   4.434   8.234  1.1239  0.2285  1.2427
 6017TIP3   OH239685   2.048   4.457   0.127 -0.2595 -0.1249  0.2278
 6017TIP3    H139686   2.086   4.536   0.166 -0.5554  0.3269 -0.3791
 6017TIP3    H239687   2.042   4.477   0.033  0.9433 -1.3832 -0.1534
 6018TIP3   OH239688   2.991   3.382   0.658  0.1187  0.6668 -0.2592
 6018TIP3    H139689   3.043   3.395   0.738 -1.1166  0.6879  0.5696
 6018TIP3    H239690   2.961   3.470   0.635  0.9091  0.7344 -1.0731
 6019TIP3   OH239691   2.047   0.574   2.247  0.2532 -0.4235 -1.0036
 6019TIP3    H139692   1.979   0.520   2.286  1.9710 -1.2779  0.9655
 6019TIP3    H239693   2.129   0.541   2.283  1.8345  0.1559 -3.7332
 6020TIP3   OH239694   1.031   3.078   8.487 -0.6807 -0.4482  0.4683
 6020TIP3    H139695   1.004   3.028   8.410 -2.4367  1.2776 -0.1154
 6020TIP3    H239696   1.058   3.163   8.451  0.6636 -0.3761  1.5760
 6021TIP3   OH239697   1.018   3.269   1.640 -0.7099 -0.0241 -0.2017
 6021TIP3    H139698   0.943   3.271   1.580 -0.5224 -0.2831 -0.4519
 6021TIP3    H239699   1.018   3.355   1.682 -2.0339 -0.5117  0.9021
 6022TIP3   OH239700   4.195   4.943   2.045  0.5928 -0.2381 -0.4725
 6022TIP3    H139701   4.158   4.992   1.971  2.2164 -1.5992 -2.3079
 6022TIP3    H239702   4.143   4.863   2.048  2.4409 -1.6128 -2.2847
 6023TIP3   OH239703   1.669   4.626   1.249 -0.2765  0.0009  0.4500
 6023TIP3    H139704   1.673   4.565   1.176  0.4796  2.3962 -1.6590
 6023TIP3    H239705   1.760   4.637   1.276 -0.2095  1.1931 -0.1629
 6024TIP3   OH239706   1.064   5.584   1.842 -0.2784  0.3133 -0.1240
 6024TIP3    H139707   1.141   5.527   1.832 -1.0531 -0.8272  0.2188
 6024TIP3    H239708   0.998   5.544   1.786 -0.5049  1.5382 -0.7572
 6025TIP3   OH239709   3.834   0.813   1.699 -0.4352 -0.0933  1.0459
 6025TIP3    H139710   3.775   0.887   1.715 -1.3376 -0.9949  2.0778
 6025TIP3    H239711   3.775   0.739   1.686  0.4805 -0.9451  1.6919
 6026TIP3   OH239712   5.860   2.966   1.402 -0.3746 -0.0038 -0.2007
 6026TIP3    H139713   5.930   3.011   1.450  0.8380 -1.4485 -0.5268
 6026TIP3    H239714   5.781   2.986   1.451  0.5859 -0.1143  1.4782
 6027TIP3   OH239715   6.450   4.218   0.172 -0.3187  0.2239  0.1949
 6027TIP3    H139716   6.415   4.145   0.121  1.3891 -0.7252  0.3318
 6027TIP3    H239717   6.544   4.216   0.156 -0.0117  1.2253  1.7101
 6028TIP3   OH239718   6.720   3.584   1.350  0.0626  0.3087  0.4383
 6028TIP3    H139719   6.814   3.593   1.336  0.4993 -1.8774  1.5793
 6028TIP3    H239720   6.681   3.625   1.273  1.8924  2.1369  0.3921
 6029TIP3   OH239721   0.401   1.628   2.282 -0.2601 -0.1132 -0.2265
 6029TIP3    H139722   0.363   1.595   2.364  0.8053  1.7221  1.1068
 6029TIP3    H239723   0.330   1.677   2.241 -0.7941 -1.0060 -0.3785
 6030TIP3   OH239724   1.194   0.214   2.680  0.0010  0.2554 -0.3857
 6030TIP3    H139725   1.261   0.152   2.650  1.8253  1.1401  1.5507
 6030TIP3    H239726   1.227   0.299   2.650 -0.3118  0.6918  0.4975
 6031TIP3   OH239727   1.778   4.197   8.577  0.0142  0.8352  0.4668
 6031TIP3    H139728   1.757   4.160   8.663  0.5919 -1.1691 -0.2008
 6031TIP3    H239729   1.705   4.170   8.521 -0.1305  1.7351  0.2091
 6032TIP3   OH239730   5.216   6.537   7.828  0.3741 -0.0708  0.0722
 6032TIP3    H139731   5.304   6.504   7.813  0.0232 -1.1504  0.3154
 6032TIP3    H239732   5.160   6.460   7.823 -0.4889  0.5065  0.5515
 6033TIP3   OH239733   0.689   2.410   8.858 -0.8897  0.1995  0.1124
 6033TIP3    H139734   0.754   2.459   8.908  0.0520 -0.6806 -0.1969
 6033TIP3    H239735   0.632   2.477   8.820 -0.9912  0.9305  1.4830
 6034TIP3   OH239736   1.222   1.453   7.646 -0.2902 -0.3312 -0.4771
 6034TIP3    H139737   1.291   1.418   7.590 -0.0346  1.2174 -1.1608
 6034TIP3    H239738   1.248   1.543   7.664 -1.5182 -0.1004  0.2745
 6035TIP3   OH239739   6.132   4.917   8.787 -0.4863 -0.6340  0.0867
 6035TIP3    H139740   6.157   4.895   8.697 -0.5201 -0.9865  0.1634
 6035TIP3    H239741   6.046   4.877   8.799 -0.4047 -0.7377  0.3320
 6036TIP3   OH239742   0.028   0.268   8.584  0.4510  0.0433  0.2084
 6036TIP3    H139743  -0.050   0.324   8.587  0.6062  0.3590 -1.0782
 6036TIP3    H239744  -0.007   0.179   8.577  0.1872  0.2081 -0.7108
 6037TIP3   OH239745   6.509   1.785   2.136  0.7059 -0.0203 -0.0154
 6037TIP3    H139746   6.582   1.806   2.194  2.8081 -0.9927 -2.1214
 6037TIP3    H239747   6.539   1.813   2.049 -1.6065 -0.1368 -0.9250
 6038TIP3   OH239748   0.218   3.548   1.098 -0.4662  0.1859  0.7831
 6038TIP3    H139749   0.159   3.475   1.117  1.2620 -1.4738  0.0129
 6038TIP3    H239750   0.202   3.568   1.005 -0.7105  0.6150  0.9116
 6039TIP3   OH239751   1.788   4.429   0.632  0.3511 -0.0766  0.2118
 6039TIP3    H139752   1.769   4.374   0.557 -0.4549  1.4438 -0.7389
 6039TIP3    H239753   1.876   4.463   0.615  0.6545 -0.6544  0.5680
 6040TIP3   OH239754   6.050   4.910   3.141 -0.4762  0.3760 -0.2143
 6040TIP3    H139755   6.092   4.885   3.223 -1.2771  0.6368  0.2925
 6040TIP3    H239756   5.958   4.921   3.164 -0.2721  3.3721 -0.4901
 6041TIP3   OH239757   6.110   3.179   0.606  0.1297 -0.0430 -0.6981
 6041TIP3    H139758   6.143   3.137   0.685  1.8006 -1.3727 -2.0526
 6041TIP3    H239759   6.052   3.114   0.566  0.4392  0.0479 -1.3099
 6042TIP3   OH239760   3.394   6.659   1.557  0.1053 -0.2862  0.7093
 6042TIP3    H139761   3.369   6.635   1.647  0.7496 -0.3917  0.8608
 6042TIP3    H239762   3.344   6.739   1.540  0.1384 -0.1417  1.2426
 6043TIP3   OH239763   6.520   5.038   0.124 -0.1384 -0.6296  0.2216
 6043TIP3    H139764   6.557   4.987   0.052  3.1713  0.0141  1.3142
 6043TIP3    H239765   6.531   4.982   0.201 -3.1578 -1.0961  0.4563
 6044TIP3   OH239766   1.153   3.003   2.561 -0.5463  0.1724  0.4778
 6044TIP3    H139767   1.171   2.948   2.637 -0.2035  0.4533  0.6039
 6044TIP3    H239768   1.060   2.990   2.544  0.0906 -2.7335 -1.3280
 6045TIP3   OH239769   5.470   4.486   1.752  0.2958 -0.3496  0.2292
 6045TIP3    H139770   5.512   4.478   1.666  0.1062  0.2492  0.0742
 6045TIP3    H239771   5.541   4.507   1.812  0.2939  0.1914  0.0487
 6046TIP3   OH239772   6.236   1.057   8.922  0.3635 -0.0059 -0.7895
 6046TIP3    H139773   6.226   1.130   8.983 -0.6281  0.0811 -1.0360
 6046TIP3    H239774   6.228   0.979   8.976 -1.1678  0.0660 -0.8698
 6047TIP3   OH239775   6.195   3.672   0.485 -0.2194 -0.0484 -0.1565
 6047TIP3    H139776   6.163   3.582   0.471 -1.1278  0.3032 -0.3857
 6047TIP3    H239777   6.155   3.722   0.414 -0.3783  0.6973  0.4535
 6048TIP3   OH239778   6.545   1.896   0.672  0.2086  0.0761  1.1894
 6048TIP3    H139779   6.515   1.806   0.667  1.3304 -0.2797  0.5424
 6048TIP3    H239780   6.509   1.929   0.755  0.0978 -1.0734  1.6170
 6049TIP3   OH239781   0.145   1.998   7.653  0.2087 -0.2171 -0.2107
 6049TIP3    H139782   0.066   2.022   7.701  0.0593  1.0489 -1.0557
 6049TIP3    H239783   0.171   2.078   7.607  0.6922 -1.2139 -1.7532
 6050TIP3   OH239784   3.752   0.908   9.039 -0.0091 -0.6383 -0.2176
 6050TIP3    H139785   3.801   0.978   9.081  0.4502 -0.4168 -1.1055
 6050TIP3    H239786   3.666   0.945   9.021  0.8125  0.3635 -2.3919
 6051TIP3   OH239787   1.144   2.506   0.836 -0.6390  0.5549  0.0153
 6051TIP3    H139788   1.074   2.455   0.796 -0.5949 -1.2355  2.0431
 6051TIP3    H239789   1.109   2.533   0.921  0.9276  0.0119  0.8766
 6052TIP3   OH239790   0.358   6.030   2.243 -0.0299 -0.3788  0.0858
 6052TIP3    H139791   0.442   6.017   2.285  0.6087  2.6798 -0.0090
 6052TIP3    H239792   0.327   5.941   2.222  2.1339 -1.6896  1.9982
 6053TIP3   OH239793   2.424   4.703   1.774  0.1599  0.0009 -0.1129
 6053TIP3    H139794   2.375   4.785   1.775  0.8663  0.4289 -0.1833
 6053TIP3    H239795   2.488   4.714   1.703 -0.5428 -1.0861 -0.9343
 6054TIP3   OH239796   3.340   0.433   0.876  0.1294  0.1709 -0.0632
 6054TIP3    H139797   3.366   0.523   0.858  0.6976  0.2006  0.8556
 6054TIP3    H239798   3.343   0.390   0.790  2.2892  0.4261 -0.1779
 6055TIP3   OH239799   2.848   1.666   0.714 -0.1385  0.0102 -0.0316
 6055TIP3    H139800   2.916   1.732   0.703  0.8510 -1.1029 -0.9134
 6055TIP3    H239801   2.818   1.648   0.625 -1.6307  0.5025  0.3534
 6056TIP3   OH239802   2.119   1.111   8.788  0.0997  0.6043  0.4712
 6056TIP3    H139803   2.057   1.162   8.840 -0.0261 -0.3563  1.2856
 6056TIP3    H239804   2.119   1.024   8.828  0.6584  0.0846 -0.6012
 6057TIP3   OH239805   2.820   6.087   0.514  0.1339  0.6842  0.0478
 6057TIP3    H139806   2.893   6.071   0.455  0.3398  2.9662 -0.4038
 6057TIP3    H239807   2.752   6.125   0.458 -0.6545  0.4435  0.8217
 6058TIP3   OH239808   0.069   5.293   3.017  0.3286  0.2499  0.5417
 6058TIP3    H139809   0.088   5.385   3.038  0.8625  0.1205  0.6522
 6058TIP3    H239810   0.118   5.243   3.082 -0.2255 -0.1109  0.6834
 6059TIP3   OH239811   6.225   6.150   9.051  0.0341  0.4310 -0.8974
 6059TIP3    H139812   6.292   6.212   9.078  2.2099 -2.4111  0.7179
 6059TIP3    H239813   6.200   6.104   9.131  1.8973 -3.8114 -2.4940
 6060TIP3   OH239814   3.069   6.706   0.193  0.3891  0.6503 -0.0029
 6060TIP3    H139815   3.001   6.770   0.170  0.8606  1.1220 -0.1315
 6060TIP3    H239816   3.129   6.755   0.250  1.5671  0.7992 -1.3117
 6061TIP3   OH239817   0.946   1.655   1.345  0.0929 -0.1763  0.5014
 6061TIP3    H139818   1.006   1.597   1.298 -1.3310 -3.4552  2.3953
 6061TIP3    H239819   1.002   1.724   1.380  2.3257 -1.5924 -0.0568
 6062TIP3   OH239820   1.635   5.918   2.902 -0.5635  0.0888  0.3444
 6062TIP3    H139821   1.726   5.896   2.923 -0.1641  0.0880 -1.2386
 6062TIP3    H239822   1.635   5.928   2.807 -2.4510 -0.9372  0.1977
 6063TIP3   OH239823   3.849   5.400   1.369 -0.2234 -0.3879 -0.3430
 6063TIP3    H139824   3.814   5.473   1.319  2.0962  2.2151  1.5505
 6063TIP3    H239825   3.917   5.362   1.312  0.0405  0.3292 -0.5138
 6064TIP3   OH239826   0.679   3.667   0.072  0.3376  0.6562  0.1008
 6064TIP3    H139827   0.718   3.689  -0.013 -1.1728  2.0629 -0.2585
 6064TIP3    H239828   0.754   3.666   0.133  1.2242  1.1369 -0.9448
 6065TIP3   OH239829   1.268   2.733   8.046 -0.1231  0.1149 -0.1678
 6065TIP3    H139830   1.230   2.804   7.994 -1.6746 -0.3853  0.2345
 6065TIP3    H239831   1.294   2.667   7.981  1.1774  0.9655 -0.5289
 6066TIP3   OH239832   1.979   3.669   1.972 -0.2836 -0.1837 -0.3459
 6066TIP3    H139833   2.010   3.579   1.980  2.0844  0.3578 -2.1483
 6066TIP3    H239834   1.912   3.666   1.905  2.0493 -0.2759 -2.8463
 6067TIP3   OH239835   2.111   2.229   8.837  0.1589 -0.0962  0.2473
 6067TIP3    H139836   2.176   2.216   8.769 -1.3288 -0.2018 -1.2179
 6067TIP3    H239837   2.105   2.144   8.881  1.3223  0.0534  0.7480
 6068TIP3   OH239838   0.632   2.591   2.351 -0.3656 -0.5612 -0.5924
 6068TIP3    H139839   0.672   2.615   2.434  0.5370 -3.5891 -0.0297
 6068TIP3    H239840   0.674   2.648   2.286  1.3346 -0.3814  0.6104
 6069TIP3   OH239841   0.537   2.628   1.591  0.5261  0.0156  0.1825
 6069TIP3    H139842   0.623   2.587   1.599  0.3937 -0.1985  0.4783
 6069TIP3    H239843   0.481   2.580   1.651  0.1181 -0.0589 -0.2574
 6070TIP3   OH239844   3.870   6.564   0.523 -0.2370  0.2787  0.4841
 6070TIP3    H139845   3.916   6.603   0.598 -0.5530  0.5399  0.5420
 6070TIP3    H239846   3.935   6.566   0.452 -0.0773  0.4207  0.6331
 6071TIP3   OH239847   2.478   4.076   3.579  0.4157 -0.1152 -0.4233
 6071TIP3    H139848   2.454   4.153   3.631 -0.1484 -1.4047  1.3269
 6071TIP3    H239849   2.531   4.023   3.638 -0.8135 -1.9712 -0.8812
 6072TIP3   OH239850   6.162   2.525   2.664 -0.2439 -0.0635  0.1553
 6072TIP3    H139851   6.240   2.477   2.693 -0.3374 -0.4311 -0.1963
 6072TIP3    H239852   6.100   2.456   2.639 -0.9230  0.2067  1.0490
 6073TIP3   OH239853   6.073   4.217   0.150  0.4531 -0.0030  0.6093
 6073TIP3    H139854   5.981   4.241   0.152  0.8051  1.6201 -0.6454
 6073TIP3    H239855   6.114   4.274   0.215  0.5520 -0.9579  1.4108
 6074TIP3   OH239856   5.702   2.900   8.388  0.2313 -0.1160 -0.1691
 6074TIP3    H139857   5.660   2.838   8.327  1.0733 -1.0523  0.1777
 6074TIP3    H239858   5.748   2.844   8.451 -0.4981  0.8321  1.2621
 6075TIP3   OH239859   2.905   1.201   3.113  0.6080  0.6429  0.8663
 6075TIP3    H139860   2.847   1.265   3.155 -2.5620 -2.1276  1.1219
 6075TIP3    H239861   2.931   1.143   3.184 -1.4923 -1.7362 -0.1869
 6076TIP3   OH239862   3.576   5.667   0.137  0.5455 -0.4040 -0.0661
 6076TIP3    H139863   3.668   5.691   0.152  0.4512 -0.3225  0.3915
 6076TIP3    H239864   3.580   5.577   0.105  0.8803  0.0948 -1.4874
 6077TIP3   OH239865   3.526   3.125   1.605 -0.4469 -0.5492 -0.1828
 6077TIP3    H139866   3.614   3.154   1.628 -0.2319 -1.0990 -0.2931
 6077TIP3    H239867   3.492   3.194   1.547  0.3298 -0.8648 -1.0336
 6078TIP3   OH239868   3.941   5.932   2.685 -0.2600  0.2955  0.3961
 6078TIP3    H139869   3.885   5.923   2.763 -0.4828  1.3866  0.3763
 6078TIP3    H239870   3.930   6.024   2.658  0.3700  0.1159 -0.5040
 6079TIP3   OH239871   6.209   4.315   8.005  0.0811 -0.0978  0.8152
 6079TIP3    H139872   6.259   4.292   7.927 -0.1747  0.8584  0.3598
 6079TIP3    H239873   6.119   4.324   7.974 -0.1163 -0.2398  1.3281
 6080TIP3   OH239874   4.089   2.902   7.948 -0.1170  0.3421 -0.0587
 6080TIP3    H139875   4.070   2.940   8.034 -0.7388 -0.3442  0.1190
 6080TIP3    H239876   4.152   2.832   7.965 -0.8990 -0.3706 -0.0312
 6081TIP3   OH239877   1.096   5.213   0.326 -0.2066 -0.5249  0.1849
 6081TIP3    H139878   1.073   5.137   0.272  1.7005 -1.5224  0.6475
 6081TIP3    H239879   1.100   5.286   0.264  0.9580 -1.4412 -0.9009
 6082TIP3   OH239880   1.619   6.104   2.192  0.5020 -0.8667  0.2297
 6082TIP3    H139881   1.584   6.017   2.209  1.1314 -0.8212  2.0247
 6082TIP3    H239882   1.541   6.161   2.188 -0.0129 -1.6556 -2.3608
 6083TIP3   OH239883   4.160   5.704   2.223  0.9587  0.4988 -0.2773
 6083TIP3    H139884   4.221   5.751   2.279 -1.1186  1.6596  1.1728
 6083TIP3    H239885   4.114   5.773   2.175  0.4589 -0.2921 -0.9666
 6084TIP3   OH239886   6.684   2.166   2.311 -0.6109  0.2643  0.0070
 6084TIP3    H139887   6.759   2.158   2.370 -1.2661 -1.5554  0.6807
 6084TIP3    H239888   6.702   2.103   2.241 -0.2553  1.7799 -1.3406
 6085TIP3   OH239889   1.390   5.040   2.728  0.2710 -0.4781 -0.0335
 6085TIP3    H139890   1.406   5.099   2.801 -1.2337 -1.6969  1.3556
 6085TIP3    H239891   1.473   5.039   2.679  0.8382  1.4938  0.7956
 6086TIP3   OH239892   1.639   5.150   3.015 -0.0248 -0.9017  0.4018
 6086TIP3    H139893   1.552   5.174   2.985  0.7217  0.0637 -1.1158
 6086TIP3    H239894   1.630   5.060   3.047 -1.9222 -0.2451  1.9314
 6087TIP3   OH239895   0.863   0.313   0.695  0.4841 -0.2279  0.4327
 6087TIP3    H139896   0.935   0.372   0.718  2.1872 -0.7793 -2.9375
 6087TIP3    H239897   0.818   0.358   0.623  0.0466 -1.7620 -0.2761
 6088TIP3   OH239898   4.549   5.692   8.892  0.3744  0.3772  0.1260
 6088TIP3    H139899   4.631   5.708   8.846  0.8654 -1.0388  0.4615
 6088TIP3    H239900   4.486   5.750   8.849  1.2619  0.5527 -0.9883
 6089TIP3   OH239901   3.413   1.778   8.749 -0.3744 -0.5413 -0.3746
 6089TIP3    H139902   3.363   1.710   8.704 -1.0639 -0.2474 -0.0640
 6089TIP3    H239903   3.504   1.761   8.724 -0.7651 -0.1161 -2.2414
 6090TIP3   OH239904   5.568   4.066   8.388 -0.4216 -0.3405  0.2086
 6090TIP3    H139905   5.644   4.072   8.331 -2.3403 -0.7631 -2.5566
 6090TIP3    H239906   5.591   3.997   8.451  1.6259 -0.1160 -0.2318
 6091TIP3   OH239907   5.578   5.344   8.614  0.1231 -0.0375  0.2799
 6091TIP3    H139908   5.593   5.317   8.704  1.0683 -0.4813  0.0073
 6091TIP3    H239909   5.562   5.263   8.567  0.6983  0.0769 -0.1320
 6092TIP3   OH239910   4.105   5.463   2.122 -0.1485 -0.3909 -1.0355
 6092TIP3    H139911   4.015   5.436   2.141  0.4585 -1.2381  0.7998
 6092TIP3    H239912   4.122   5.535   2.183  0.6057 -0.5898 -0.9996
 6093TIP3   OH239913   4.141   6.731   1.815  0.0085  0.5221 -0.2036
 6093TIP3    H139914   4.094   6.711   1.895  0.9466 -0.6354  0.0870
 6093TIP3    H239915   4.160   6.825   1.821 -1.0722  0.7169  0.2923
 6094TIP3   OH239916   4.270   4.543   2.484 -0.3530  0.3272  0.2999
 6094TIP3    H139917   4.299   4.591   2.407  1.1530  1.3439  1.4308
 6094TIP3    H239918   4.293   4.451   2.466  1.3566  0.7536  0.0988
 6095TIP3   OH239919   5.113   4.767   3.202 -0.5947 -0.0803  0.2102
 6095TIP3    H139920   5.092   4.859   3.184  0.6173  0.3247  0.7805
 6095TIP3    H239921   5.049   4.718   3.150 -0.6139  1.0744 -0.9232
 6096TIP3   OH239922   6.382   4.149   8.864  0.3209 -0.4763 -0.8341
 6096TIP3    H139923   6.328   4.201   8.924  2.1551 -1.2768  1.7100
 6096TIP3    H239924   6.450   4.210   8.834 -0.2287 -0.2339 -1.5818
 6097TIP3   OH239925   1.094   4.523   0.354  0.4693  0.3416  0.0778
 6097TIP3    H139926   1.059   4.461   0.417  1.4585  1.0864  1.4198
 6097TIP3    H239927   1.111   4.471   0.275 -0.4485 -0.6804  0.5284
 6098TIP3   OH239928   0.973   2.679   2.412  0.3852 -0.5541  0.2658
 6098TIP3    H139929   1.037   2.746   2.437 -2.0611  2.0785 -0.0560
 6098TIP3    H239930   0.977   2.677   2.316 -1.7663  1.6725  0.0288
 6099TIP3   OH239931   3.386   2.497   1.900 -0.0981 -0.1463  0.0025
 6099TIP3    H139932   3.344   2.559   1.841 -0.2473  0.4010  0.6651
 6099TIP3    H239933   3.336   2.417   1.891 -0.5521  0.1468 -0.0964
 6100TIP3   OH239934   4.125   6.250   9.038  0.4488  0.2994 -0.8445
 6100TIP3    H139935   4.046   6.303   9.050  0.1349 -0.1531 -0.8876
 6100TIP3    H239936   4.188   6.309   8.996  0.1570  0.6788 -0.7550
 6101TIP3   OH239937   6.059   2.476   2.243 -0.0134 -0.4142 -0.4506
 6101TIP3    H139938   5.974   2.519   2.252 -0.0624 -0.2263 -1.6332
 6101TIP3    H239939   6.123   2.545   2.261 -0.0864 -0.6764  0.9515
 6102TIP3   OH239940   2.517   1.102   8.866 -0.6195  0.1770 -0.0260
 6102TIP3    H139941   2.548   1.042   8.798 -0.2935  1.2398 -0.8471
 6102TIP3    H239942   2.587   1.102   8.932 -1.1397 -1.2026  0.5523
 6103TIP3   OH239943   1.965   4.378   2.153  0.1168  0.4623  0.2375
 6103TIP3    H139944   1.934   4.431   2.080 -1.0312 -0.0252  0.3338
 6103TIP3    H239945   1.949   4.288   2.125 -0.7626  0.2813  1.2446
 6104TIP3   OH239946   3.121   0.179   0.435  0.0857  0.6212  0.3348
 6104TIP3    H139947   3.038   0.224   0.449  0.5763  2.0599 -1.1236
 6104TIP3    H239948   3.187   0.238   0.473  0.6048  0.4279 -0.2437
 6105TIP3   OH239949   4.808   1.564   8.406  0.0560  0.7261  0.0909
 6105TIP3    H139950   4.867   1.603   8.341 -1.6418  2.4294 -0.5574
 6105TIP3    H239951   4.848   1.585   8.491  0.4722  1.7479 -0.3334
 6106TIP3   OH239952   5.988   3.540   1.527 -0.4222  0.2204 -0.0760
 6106TIP3    H139953   5.985   3.635   1.535  0.1818  0.1841  0.6870
 6106TIP3    H239954   5.897   3.512   1.538 -0.4103  0.6131  1.2642
 6107TIP3   OH239955   5.745   6.320   0.865 -0.0338 -0.1954 -0.9419
 6107TIP3    H139956   5.680   6.335   0.796 -1.5764 -4.5482 -0.7484
 6107TIP3    H239957   5.708   6.366   0.941  0.4768  2.6389 -2.2603
 6108TIP3   OH239958   0.175   4.358   1.075 -0.5691  1.1415 -0.8456
 6108TIP3    H139959   0.166   4.275   1.029  0.7521  1.3118 -1.4601
 6108TIP3    H239960   0.137   4.423   1.016 -0.4757  1.1339 -0.9133
 6109TIP3   OH239961   2.318   2.948   2.199  0.1276 -0.4559 -0.3371
 6109TIP3    H139962   2.252   2.974   2.135 -0.9570 -0.3055  0.7897
 6109TIP3    H239963   2.291   2.861   2.227  1.3972 -1.1084 -1.0937
 6110TIP3   OH239964   4.995   1.990   3.421 -0.0040 -0.4192 -0.0417
 6110TIP3    H139965   4.985   1.904   3.381  0.4930 -0.6016  0.2053
 6110TIP3    H239966   5.008   1.972   3.514 -1.0723 -0.0083  0.2028
 6111TIP3   OH239967   1.211   6.265   0.084  0.3629  0.2962 -1.2334
 6111TIP3    H139968   1.140   6.202   0.070  0.2135 -0.0537  0.7363
 6111TIP3    H239969   1.168   6.340   0.124  1.1835 -0.4352  1.2301
 6112TIP3   OH239970   4.085   3.874   8.672 -0.0819  0.1317 -0.2711
 6112TIP3    H139971   4.179   3.863   8.682 -0.2640 -0.8454  0.4595
 6112TIP3    H239972   4.076   3.931   8.595  1.1178  1.0767  0.2682
 6113TIP3   OH239973   1.494   5.266   1.261  0.1766  0.1429  0.6343
 6113TIP3    H139974   1.496   5.206   1.187  1.3412  0.9706 -0.0407
 6113TIP3    H239975   1.451   5.217   1.331  3.1584 -2.4011  0.9090
 6114TIP3   OH239976   4.045   0.232   2.840 -0.0542 -0.1307 -0.2107
 6114TIP3    H139977   4.131   0.275   2.848  0.6344 -1.5871  0.6553
 6114TIP3    H239978   4.060   0.158   2.781 -0.0176 -1.9221  1.9047
 6115TIP3   OH239979   5.124   2.307   1.847  0.1268  0.2947 -0.4919
 6115TIP3    H139980   5.215   2.335   1.834  0.0264  0.7315 -0.2610
 6115TIP3    H239981   5.079   2.385   1.881 -0.6308  0.4722 -1.8320
 6116TIP3   OH239982   1.910   0.788   3.303 -0.2313 -0.6163  0.5035
 6116TIP3    H139983   1.971   0.855   3.272  0.5785 -1.2969  0.5559
 6116TIP3    H239984   1.966   0.725   3.349 -0.9861 -1.2472  0.5837
 6117TIP3   OH239985   4.553   3.278   3.795 -0.2581  0.0200 -0.3972
 6117TIP3    H139986   4.596   3.323   3.869 -0.7784  1.0907 -0.7202
 6117TIP3    H239987   4.471   3.326   3.782 -0.1801 -0.1487 -1.6682
 6118TIP3   OH239988   2.211   6.243   1.732 -0.3610  0.4193  0.1532
 6118TIP3    H139989   2.288   6.289   1.697 -0.9797  0.5089 -1.1700
 6118TIP3    H239990   2.190   6.178   1.665 -1.6698  0.6615  0.3114
 6119TIP3   OH239991   1.980   1.563   1.453 -0.0074  0.1073 -0.0582
 6119TIP3    H139992   2.048   1.529   1.394 -0.2252 -1.5393  0.5911
 6119TIP3    H239993   1.905   1.579   1.396 -0.0334 -0.9274 -0.3330
 6120TIP3   OH239994   1.623   5.971   9.071  0.2971 -0.3115  0.1937
 6120TIP3    H139995   1.690   5.924   9.021 -0.0069 -0.2100 -0.3131
 6120TIP3    H239996   1.671   6.044   9.111  0.8273 -1.1856  1.2164
 6121TIP3   OH239997   6.569   4.003   1.873 -0.1415  0.6982  0.1265
 6121TIP3    H139998   6.661   3.976   1.875 -0.6395 -1.1521 -0.2721
 6121TIP3    H239999   6.534   3.979   1.959 -0.6839 -0.3628 -0.3669
 6122TIP3   OH240000   3.867   4.401   3.291  0.3638  0.0683 -0.6649
 6122TIP3    H140001   3.958   4.422   3.310  0.7035 -0.1194 -2.0255
 6122TIP3    H240002   3.867   4.307   3.273 -0.6731 -0.6870  2.5246
 6123TIP3   OH240003   6.266   0.957   0.893 -0.8358  0.1043 -0.3433
 6123TIP3    H140004   6.243   0.891   0.959 -0.2812  0.0084 -0.2400
 6123TIP3    H240005   6.324   0.911   0.832  0.2756  0.7033  0.2110
 6124TIP3   OH240006   2.445   6.585   2.420  0.2560  0.6780  0.1760
 6124TIP3    H140007   2.449   6.649   2.491 -1.3726 -0.3146  1.2301
 6124TIP3    H240008   2.450   6.500   2.464 -0.0761  0.0486 -0.9527
 6125TIP3   OH240009   4.847   5.044   0.955  0.0138 -0.2632 -0.2004
 6125TIP3    H140010   4.852   5.097   0.876 -2.0080 -0.1511 -0.2945
 6125TIP3    H240011   4.889   4.961   0.930 -0.6828 -0.2698 -1.4306
 6126TIP3   OH240012   5.961   0.073   7.967 -0.4782 -0.9677  0.5765
 6126TIP3    H140013   6.024   0.107   7.904 -1.8014  2.0047  0.6856
 6126TIP3    H240014   5.942  -0.016   7.937  0.9150 -0.6041 -1.6182
 6127TIP3   OH240015   1.174   3.891   2.444  0.5655 -0.0212 -0.1526
 6127TIP3    H140016   1.269   3.881   2.437  0.7701  0.8397  0.9887
 6127TIP3    H240017   1.161   3.919   2.535 -0.5588  2.3036 -0.9712
 6128TIP3   OH240018   2.089   0.217   1.673  0.6683  0.1850 -0.0479
 6128TIP3    H140019   2.051   0.131   1.654 -0.6307  1.1726 -2.2813
 6128TIP3    H240020   2.026   0.257   1.733  1.4408 -0.4906  1.2614
 6129TIP3   OH240021   4.024   6.649   9.089 -0.3211  0.1882 -0.3505
 6129TIP3    H140022   4.038   6.706   9.014 -1.4571 -1.5276 -1.9834
 6129TIP3    H240023   4.105   6.654   9.139 -0.2825  2.9499 -0.5480
 6130TIP3   OH240024   0.253   4.558   2.130  0.5552 -0.0387 -0.0870
 6130TIP3    H140025   0.321   4.492   2.117  0.2366 -0.0874 -1.7207
 6130TIP3    H240026   0.196   4.548   2.054  0.2689  1.8446 -0.1605
 6131TIP3   OH240027   2.365   3.023   8.175 -0.1613  0.1198  0.5981
 6131TIP3    H140028   2.381   3.081   8.101  0.3349 -0.8192 -0.0536
 6131TIP3    H240029   2.326   2.945   8.136 -1.8436  0.4150  1.5819
 6132TIP3   OH240030   6.039   4.269   3.205 -0.0316  0.4154  0.0626
 6132TIP3    H140031   6.061   4.233   3.291  2.0003 -0.5604 -0.7655
 6132TIP3    H240032   5.976   4.338   3.222 -0.0191 -0.0470  2.2761
 6133TIP3   OH240033   3.482   5.317   1.363  0.0972 -0.1222  0.0101
 6133TIP3    H140034   3.540   5.389   1.339  0.0302 -0.3003 -0.7371
 6133TIP3    H240035   3.442   5.344   1.445  0.4056  0.4909 -0.0339
 6134TIP3   OH240036   2.720   4.119   1.988 -0.1780  0.0104  0.7380
 6134TIP3    H140037   2.683   4.042   1.945 -0.2711  1.1838 -1.4324
 6134TIP3    H240038   2.767   4.084   2.063  1.6920 -2.4486 -1.3867
 6135TIP3   OH240039   2.979   5.078   2.575  0.3594 -0.5123  0.2542
 6135TIP3    H140040   3.036   5.123   2.512  0.1329 -1.4267 -0.6357
 6135TIP3    H240041   2.893   5.117   2.560  0.7070  0.9330  1.6604
 6136TIP3   OH240042   3.739   2.783   8.796 -0.1341  0.5614 -0.0622
 6136TIP3    H140043   3.751   2.866   8.842  0.3425 -1.0549  2.9608
 6136TIP3    H240044   3.819   2.733   8.814 -0.6052 -0.7756 -1.4176
 6137TIP3   OH240045   0.293   6.236   0.142  0.4432  0.7002  0.2563
 6137TIP3    H140046   0.248   6.205   0.221 -2.7616  1.7885 -0.9490
 6137TIP3    H240047   0.382   6.203   0.150 -0.4265 -1.3638  3.0859
 6138TIP3   OH240048   4.683   3.941   2.575 -0.1312 -0.2235 -0.3720
 6138TIP3    H140049   4.667   3.870   2.513 -0.0015 -1.3172  0.7930
 6138TIP3    H240050   4.760   3.985   2.541  0.2837 -1.1633 -0.7023
 6139TIP3   OH240051   0.754   4.929   0.704 -0.1099 -0.3456 -0.4444
 6139TIP3    H140052   0.722   4.841   0.686 -1.9473 -0.0488  1.0722
 6139TIP3    H240053   0.682   4.972   0.751  1.3529  1.4398  0.2989
 6140TIP3   OH240054   2.908   3.873   3.469 -0.7145  0.3852  0.3106
 6140TIP3    H140055   2.935   3.791   3.510 -1.4481  0.6812  1.4459
 6140TIP3    H240056   2.877   3.927   3.541 -0.4504  1.5882 -0.4477
 6141TIP3   OH240057   3.069   0.919   0.222  0.0767  0.0428  0.3055
 6141TIP3    H140058   3.122   0.874   0.157 -0.7276 -1.3950  0.6015
 6141TIP3    H240059   3.073   1.011   0.197 -1.0879 -0.5546 -2.4507
 6142TIP3   OH240060   3.359   1.328   7.913  0.3111 -0.1373  0.5199
 6142TIP3    H140061   3.359   1.404   7.971 -0.0082  1.3460 -1.3388
 6142TIP3    H240062   3.272   1.327   7.874  1.3592  0.5999 -1.9940
 6143TIP3   OH240063   0.424   1.839   1.844  0.2449  0.6812 -0.0604
 6143TIP3    H140064   0.380   1.780   1.783 -0.3103 -1.2195  2.0388
 6143TIP3    H240065   0.517   1.814   1.839  0.0987  0.0343  0.3675
 6144TIP3   OH240066   6.412   2.518   1.270  0.1262 -0.0084 -0.3374
 6144TIP3    H140067   6.348   2.448   1.267 -0.4776  0.4734  0.8086
 6144TIP3    H240068   6.483   2.488   1.213 -1.2008 -0.4376 -1.8509
 6145TIP3   OH240069   3.561   2.935   0.692  0.5073  0.2744  0.1493
 6145TIP3    H140070   3.565   3.031   0.684 -2.9412  0.5776  0.5378
 6145TIP3    H240071   3.550   2.919   0.785 -1.0306 -0.3024 -0.0971
 6146TIP3   OH240072   2.398   1.300   1.390  0.0143 -0.1865  0.0753
 6146TIP3    H140073   2.408   1.262   1.477  1.2406 -1.8122 -0.7357
 6146TIP3    H240074   2.477   1.353   1.378  1.0133 -1.8175 -0.8996
 6147TIP3   OH240075   5.541   5.123   8.865  0.7734  0.1352 -0.0206
 6147TIP3    H140076   5.526   5.087   8.953 -2.0047  1.0435 -0.0249
 6147TIP3    H240077   5.513   5.214   8.872 -0.4801 -0.0309 -2.0451
 6148TIP3   OH240078   6.590   5.210   3.170 -0.6119 -0.3079 -0.2304
 6148TIP3    H140079   6.674   5.239   3.206 -0.0348 -1.7786 -0.3622
 6148TIP3    H240080   6.558   5.286   3.121  1.0854 -0.0462 -0.9850
 6149TIP3   OH240081   5.302   1.388   2.678  0.0276 -0.4345  0.5831
 6149TIP3    H140082   5.378   1.432   2.639  0.0435 -1.6718 -0.9056
 6149TIP3    H240083   5.335   1.349   2.759  0.3269  1.1191  1.2426
 6150TIP3   OH240084   5.376   3.702   8.602 -0.6487  0.1925  0.3512
 6150TIP3    H140085   5.404   3.618   8.638 -0.3325  0.7224  1.3986
 6150TIP3    H240086   5.281   3.704   8.617 -0.6524  0.0415  0.3540
 6151TIP3   OH240087   4.426   0.998   8.176  0.7077  0.2757  0.5646
 6151TIP3    H140088   4.396   1.089   8.172 -0.5165 -0.0363  1.8636
 6151TIP3    H240089   4.395   0.959   8.095  1.4179  1.0468 -0.0983
 6152TIP3   OH240090   1.628   5.349   2.584  0.1706 -0.6992 -0.0937
 6152TIP3    H140091   1.641   5.424   2.642  1.6082 -0.5497 -0.5682
 6152TIP3    H240092   1.609   5.388   2.499 -1.1726 -0.9159  0.0759
 6153TIP3   OH240093   4.686   1.391   1.942 -0.2452 -0.1616  0.5071
 6153TIP3    H140094   4.721   1.305   1.963 -1.4691 -0.5244  1.1612
 6153TIP3    H240095   4.697   1.442   2.023  0.1438  0.1847  0.2384
 6154TIP3   OH240096   2.113   4.730   8.115  0.5539  0.2870  0.6114
 6154TIP3    H140097   2.104   4.816   8.157  0.7143  0.8903 -0.5436
 6154TIP3    H240098   2.183   4.743   8.051 -0.3824 -0.3120 -0.5631
 6155TIP3   OH240099   0.386   0.362   8.223 -0.4397  0.6956 -0.1935
 6155TIP3    H140100   0.301   0.369   8.266  0.0200  0.4490  0.7805
 6155TIP3    H240101   0.412   0.452   8.205  0.0593  0.9234  1.4858
 6156TIP3   OH240102   1.232   2.923   8.987 -0.1259  0.5141 -0.5256
 6156TIP3    H140103   1.188   2.921   9.072 -0.6777  1.3031 -0.7845
 6156TIP3    H240104   1.238   2.831   8.961  1.3179  0.1222  0.9926
 6157TIP3   OH240105   0.827   0.715   0.633 -0.2733  0.1405 -0.1977
 6157TIP3    H140106   0.881   0.642   0.602  0.5245  1.0565 -1.0551
 6157TIP3    H240107   0.890   0.776   0.671 -0.9642  0.2733  0.7834
 6158TIP3   OH240108   4.394   6.135   1.130  0.2512 -0.6131  0.3341
 6158TIP3    H140109   4.475   6.084   1.120  0.9914  0.7068 -0.7692
 6158TIP3    H240110   4.369   6.158   1.041  0.8504  2.2479  0.7870
 6159TIP3   OH240111   3.173   2.507   2.441 -0.1138  0.6469 -0.0845
 6159TIP3    H140112   3.256   2.554   2.436  0.6302 -0.7347 -1.7263
 6159TIP3    H240113   3.162   2.466   2.355 -1.9164 -0.1684  0.4687
 6160TIP3   OH240114   5.061   0.753   8.824 -0.2995 -0.0658 -0.3850
 6160TIP3    H140115   5.015   0.674   8.797 -1.3608 -0.7003  2.8272
 6160TIP3    H240116   5.154   0.729   8.819 -0.5706 -1.1341 -0.5291
 6161TIP3   OH240117   2.979   1.803   0.480 -0.3072 -0.8351 -0.5321
 6161TIP3    H140118   2.976   1.889   0.438  1.1802 -1.3234 -1.7474
 6161TIP3    H240119   2.957   1.741   0.410  1.9339 -1.6460 -0.6202
 6162TIP3   OH240120   0.759   3.381   1.927  0.0958  0.0831 -0.0184
 6162TIP3    H140121   0.774   3.296   1.885 -2.1045  0.0209 -0.7832
 6162TIP3    H240122   0.664   3.389   1.932  0.1763  3.1079 -1.2411
 6163TIP3   OH240123   0.036   6.336   0.447  0.5771  0.2966 -0.3561
 6163TIP3    H140124   0.019   6.317   0.355  0.7245 -1.6637 -0.0236
 6163TIP3    H240125  -0.042   6.383   0.477  0.5740  1.0607 -1.4761
 6164TIP3   OH240126   5.031   6.336   7.803 -0.3596 -0.7186  0.3961
 6164TIP3    H140127   4.960   6.305   7.746 -0.2759  0.6309 -0.4695
 6164TIP3    H240128   4.987   6.362   7.884 -0.5901 -1.7689  0.6313
 6165TIP3   OH240129   1.438   2.071   1.347 -0.1964 -0.3019 -0.4256
 6165TIP3    H140130   1.486   1.989   1.362 -2.0045 -1.8278 -2.3858
 6165TIP3    H240131   1.504   2.139   1.358  2.2561 -2.2066 -2.0085
 6166TIP3   OH240132   4.655   1.969   2.300 -0.0356  0.0325  0.1683
 6166TIP3    H140133   4.565   1.955   2.330  0.6645  0.3186  2.6520
 6166TIP3    H240134   4.675   1.893   2.247 -0.4773 -2.1482  2.9050
 6167TIP3   OH240135   1.264   0.362   1.373  0.0886 -0.2163 -0.0343
 6167TIP3    H140136   1.215   0.303   1.430  1.6822  0.6410  2.3812
 6167TIP3    H240137   1.312   0.304   1.314 -0.1562 -1.2373  0.7394
 6168TIP3   OH240138   1.732   5.872   8.626  0.0352 -0.2533  0.8692
 6168TIP3    H140139   1.789   5.802   8.593  2.5232  2.7801 -2.0303
 6168TIP3    H240140   1.655   5.869   8.570  0.7287  0.0611 -0.1251
 6169TIP3   OH240141   5.880   0.829   1.539  0.2274 -0.1889 -0.0423
 6169TIP3    H140142   5.849   0.906   1.586 -0.0835 -0.0130 -0.5337
 6169TIP3    H240143   5.811   0.764   1.552  0.4005 -0.3252  0.2101
 6170TIP3   OH240144   1.155   6.544   2.615 -0.1409  0.1283  0.1283
 6170TIP3    H140145   1.136   6.559   2.522 -1.7128  0.7285  0.5200
 6170TIP3    H240146   1.190   6.455   2.618  1.5486  0.6808 -1.2279
 6171TIP3   OH240147   1.602   5.926   8.367 -0.2496 -0.4557 -0.3285
 6171TIP3    H140148   1.525   5.874   8.343 -1.0327  0.5613 -0.0986
 6171TIP3    H240149   1.570   6.016   8.370  1.0759  0.0454 -0.6989
 6172TIP3   OH240150   5.742   6.692   1.174 -0.4721  0.0041  0.5450
 6172TIP3    H140151   5.806   6.622   1.163 -1.3314 -0.7303  0.1431
 6172TIP3    H240152   5.689   6.690   1.094 -2.1270 -0.5878  1.6094
 6173TIP3   OH240153   3.276   2.125   0.833 -0.7713 -0.0603 -0.4261
 6173TIP3    H140154   3.265   2.118   0.739  0.3490  0.0433 -0.5797
 6173TIP3    H240155   3.336   2.199   0.845  1.7537 -2.0560  0.1400
 6174TIP3   OH240156   3.351   5.207   0.701  0.2961  0.3047  0.0817
 6174TIP3    H140157   3.410   5.141   0.737  0.1625  0.7365  1.1323
 6174TIP3    H240158   3.352   5.191   0.606  1.6749 -0.0388  0.1282
 6175TIP3   OH240159   2.442   3.347   1.018  0.0896 -0.2805  0.2553
 6175TIP3    H140160   2.392   3.428   1.031  0.3971 -0.1116  0.4032
 6175TIP3    H240161   2.505   3.346   1.090  1.3991  0.3354 -0.8468
 6176TIP3   OH240162   4.238   3.588   8.297  0.4987  0.2763  0.3626
 6176TIP3    H140163   4.289   3.571   8.376  1.0628 -1.2848 -0.3020
 6176TIP3    H240164   4.284   3.660   8.254  2.1308 -0.9851 -0.1371
 6177TIP3   OH240165   1.148   3.170   2.859  0.0042 -0.4083 -0.6288
 6177TIP3    H140166   1.096   3.219   2.796  1.4467  1.0282 -0.7647
 6177TIP3    H240167   1.125   3.207   2.944 -0.2216 -0.7349 -0.5466
 6178TIP3   OH240168   2.186   4.332   8.931 -0.3139  0.6709  0.6672
 6178TIP3    H140169   2.209   4.283   9.010 -1.9539 -0.3943  0.5478
 6178TIP3    H240170   2.177   4.422   8.960  1.6749  0.7557  1.1323
 6179TIP3   OH240171   3.447   4.678   2.764 -0.0557 -0.0250 -0.0854
 6179TIP3    H140172   3.522   4.664   2.706  0.1494 -0.6893  0.3239
 6179TIP3    H240173   3.485   4.678   2.852 -0.3990  0.6857  0.0696
 6180TIP3   OH240174   0.619   0.479   2.456  0.2154 -0.0855  0.6941
 6180TIP3    H140175   0.662   0.483   2.371 -2.2638  1.5034 -0.6115
 6180TIP3    H240176   0.609   0.571   2.482 -1.4197 -0.4342  1.4229
 6181TIP3   OH240177   2.971   3.796   7.803  0.3923 -0.3824  0.3575
 6181TIP3    H140178   2.955   3.718   7.855  3.6337 -0.5509  1.3078
 6181TIP3    H240179   3.022   3.853   7.860  3.3766 -0.2261 -2.1961
 6182TIP3   OH240180   0.054   3.156   8.908  0.0538 -0.4371 -0.5939
 6182TIP3    H140181   0.106   3.209   8.848  1.8623 -2.2034 -0.7159
 6182TIP3    H240182   0.118   3.120   8.969 -1.6314  0.6591  1.9745
 6183TIP3   OH240183   1.417   3.690   7.627 -1.5048  0.0972  0.0063
 6183TIP3    H140184   1.412   3.598   7.653 -1.4416 -0.0741 -0.5750
 6183TIP3    H240185   1.350   3.699   7.560  0.1657 -0.1723 -1.8053
 6184TIP3   OH240186   4.711   5.586   1.019 -0.4907 -0.7140  0.1215
 6184TIP3    H140187   4.733   5.612   1.109 -0.8651 -0.9880  0.2948
 6184TIP3    H240188   4.667   5.502   1.029  0.5974 -1.3779 -0.4211
 6185TIP3   OH240189   2.083   0.407   7.417 -0.3606  0.3245  0.0959
 6185TIP3    H140190   2.143   0.344   7.457  0.2097  0.7428 -0.0760
 6185TIP3    H240191   2.054   0.364   7.336  0.6867  0.6036 -0.4532
 6186TIP3   OH240192   6.145   1.563   0.173 -0.1811 -0.0758 -0.7610
 6186TIP3    H140193   6.117   1.598   0.258  0.5654 -0.4838 -0.3356
 6186TIP3    H240194   6.169   1.639   0.122  1.9489  0.0480  0.3359
 6187TIP3   OH240195   1.967   5.015   2.552 -0.6851 -0.6842 -0.1796
 6187TIP3    H140196   1.906   5.056   2.614  0.2875  0.2168  0.2188
 6187TIP3    H240197   1.998   5.088   2.498  0.5283 -0.9966  0.0600
 6188TIP3   OH240198   6.317   1.300   0.040  0.2217  0.4854 -0.5564
 6188TIP3    H140199   6.342   1.392   0.055  0.5631  0.5103 -1.2636
 6188TIP3    H240200   6.226   1.304   0.013 -0.4013  0.4464  1.3696
 6189TIP3   OH240201   4.856   0.043   8.942  0.2773  0.0657 -0.0392
 6189TIP3    H140202   4.808   0.114   8.986  1.0891  1.3347 -1.1335
 6189TIP3    H240203   4.873  -0.020   9.012  0.2161  1.3072  1.1514
 6190TIP3   OH240204   2.297   5.262   0.557 -0.4691 -0.1310  0.8552
 6190TIP3    H140205   2.352   5.222   0.489 -1.6834 -1.1804  0.4727
 6190TIP3    H240206   2.346   5.248   0.638 -0.1135 -0.9440  0.5097
 6191TIP3   OH240207   3.215   5.806   0.633 -0.2811 -0.4110 -0.3200
 6191TIP3    H140208   3.282   5.818   0.566 -1.9909 -0.0862 -2.0774
 6191TIP3    H240209   3.144   5.865   0.607 -1.4561 -1.0762  1.1966
 6192TIP3   OH240210   1.782   1.845   1.682 -0.6973  0.3703 -0.7729
 6192TIP3    H140211   1.786   1.783   1.755  0.6807 -0.2708 -1.3586
 6192TIP3    H240212   1.741   1.923   1.719  1.3657  0.6496  1.1360
 6193TIP3   OH240213   0.418   6.639   3.050  0.4555  0.0655 -0.3271
 6193TIP3    H140214   0.445   6.549   3.068  0.2347  0.0846  0.0943
 6193TIP3    H240215   0.490   6.693   3.083  0.3935  0.0652 -0.1927
 6194TIP3   OH240216   0.036   1.077   1.059  0.0682 -0.1977 -0.2402
 6194TIP3    H140217  -0.059   1.091   1.050  0.2346  0.4202 -1.1957
 6194TIP3    H240218   0.057   1.016   0.988  0.3555 -0.5323  0.1263
 6195TIP3   OH240219   3.225   5.075   2.372 -0.0496 -0.2095 -0.7277
 6195TIP3    H140220   3.209   5.169   2.373  0.4434 -0.0991 -1.6797
 6195TIP3    H240221   3.288   5.060   2.442 -1.2216 -0.0597  0.3895
 6196TIP3   OH240222   5.434   2.925   1.496 -0.3584  0.4043  0.0694
 6196TIP3    H140223   5.517   2.963   1.466 -0.3451  0.8621  0.6660
 6196TIP3    H240224   5.460   2.852   1.552 -0.3251  1.0775  0.9598
 6197TIP3   OH240225   6.177   3.693   7.930 -0.0299 -0.5938  0.5779
 6197TIP3    H140226   6.255   3.654   7.970  0.0763 -0.5063  0.4598
 6197TIP3    H240227   6.183   3.668   7.838 -0.2906 -0.8231  0.6225
 6198TIP3   OH240228   3.609   6.293   0.836  0.3779 -0.0429  0.3523
 6198TIP3    H140229   3.616   6.370   0.893 -2.6848 -0.2446  1.1787
 6198TIP3    H240230   3.568   6.326   0.756 -0.5285 -0.7086  0.5285
 6199TIP3   OH240231   2.962   2.640   2.846 -0.9821 -0.3040  0.1012
 6199TIP3    H140232   2.920   2.560   2.877  0.3901 -1.0767  0.0458
 6199TIP3    H240233   3.056   2.620   2.849 -0.7023  0.2238 -2.7472
 6200TIP3   OH240234   1.649   5.054   2.639 -0.2984 -0.0654  0.0842
 6200TIP3    H140235   1.698   5.069   2.720 -1.2087  0.6690  0.5093
 6200TIP3    H240236   1.635   5.142   2.603  0.6026 -0.4037 -1.1979
 6201TIP3   OH240237   4.226   5.953   8.994 -0.0669 -0.1182 -0.1828
 6201TIP3    H140238   4.237   5.913   8.908 -1.1090 -0.4587 -0.1699
 6201TIP3    H240239   4.214   6.046   8.975  0.3743 -0.0920 -0.3519
 6202TIP3   OH240240   5.282   2.504   2.859 -0.2852 -0.4943 -0.4779
 6202TIP3    H140241   5.323   2.441   2.917 -0.0253 -1.5084 -1.7214
 6202TIP3    H240242   5.188   2.484   2.863 -0.4899  0.5483  0.8500
 6203TIP3   OH240243   3.696   3.317   2.366  0.4121  0.4125 -0.5628
 6203TIP3    H140244   3.718   3.402   2.404 -0.0809 -0.5403  2.0266
 6203TIP3    H240245   3.714   3.254   2.435 -1.7235 -1.3295 -1.4599
 6204TIP3   OH240246   5.936   6.160   0.802 -0.1682 -0.2938  0.1478
 6204TIP3    H140247   6.021   6.182   0.841 -0.6814  0.3947  0.9249
 6204TIP3    H240248   5.876   6.227   0.837 -1.3806 -1.7440  0.9741
 6205TIP3   OH240249   4.742   2.581   7.806  0.5594  0.2323  0.2107
 6205TIP3    H140250   4.761   2.488   7.795 -2.0374 -0.7213  2.8288
 6205TIP3    H240251   4.826   2.619   7.832  1.4997 -1.4932 -0.1203
 6206TIP3   OH240252   1.051   6.305   2.097 -0.1030  0.3147  0.3766
 6206TIP3    H140253   1.073   6.230   2.043 -0.2985  0.0704  0.6342
 6206TIP3    H240254   1.126   6.315   2.157 -0.1777  0.1890  0.4905
 6207TIP3   OH240255   4.923   0.044   1.448  0.2399  0.2902 -0.1401
 6207TIP3    H140256   4.940   0.127   1.492  0.2416  0.0420  0.3321
 6207TIP3    H240257   4.991  -0.015   1.480  0.2573  0.1184 -0.4969
 6208TIP3   OH240258   0.870   0.650   2.252 -0.2687  0.2919  0.1677
 6208TIP3    H140259   0.937   0.597   2.296 -0.4693  0.1633  0.3224
 6208TIP3    H240260   0.838   0.594   2.181 -0.1638  0.3787  0.0531
 6209TIP3   OH240261   5.837   2.191   8.156 -0.1970 -0.6062  0.4351
 6209TIP3    H140262   5.773   2.145   8.101 -0.1082  0.0641 -0.2502
 6209TIP3    H240263   5.922   2.155   8.129 -0.1622 -0.3545  0.2046
 6210TIP3   OH240264   0.151   6.397   0.690 -0.0755  0.0966  0.3399
 6210TIP3    H140265   0.228   6.341   0.703 -0.1906 -0.1451 -0.0227
 6210TIP3    H240266   0.121   6.377   0.602  0.2442  1.1822 -0.0297
 6211TIP3   OH240267   5.185   6.254   2.154  0.0176 -0.0247 -0.4932
 6211TIP3    H140268   5.146   6.185   2.101  0.2199  0.1692 -0.9005
 6211TIP3    H240269   5.131   6.331   2.138  0.4775  0.2087 -0.9506
 6212TIP3   OH240270   6.674   2.127   0.576 -1.2274 -0.2948 -0.1202
 6212TIP3    H140271   6.647   2.039   0.600  0.3024 -1.0459 -1.0321
 6212TIP3    H240272   6.695   2.122   0.483  2.6245 -0.0164  0.5935
 6213TIP3   OH240273   4.668   4.640   2.245 -0.2618  0.0902 -0.1695
 6213TIP3    H140274   4.685   4.724   2.202  0.7646 -0.4831 -0.9351
 6213TIP3    H240275   4.635   4.583   2.176  0.0434 -0.4345  0.1098
 6214TIP3   OH240276   2.677   2.212   2.532 -0.1834 -0.4540  0.9065
 6214TIP3    H140277   2.724   2.264   2.466 -0.1783 -0.2266  1.0895
 6214TIP3    H240278   2.664   2.272   2.605  2.2596 -1.4380  2.2646
 6215TIP3   OH240279   6.034   2.756   0.251 -0.0276 -0.1647 -0.3161
 6215TIP3    H140280   6.049   2.688   0.316 -0.7260 -0.9908 -0.9960
 6215TIP3    H240281   5.957   2.804   0.282 -0.7117 -0.9219 -0.8027
 6216TIP3   OH240282   2.860   5.999   8.417 -0.0325 -0.0459  0.3194
 6216TIP3    H140283   2.857   5.999   8.513 -0.2059 -1.3572  0.3302
 6216TIP3    H240284   2.945   6.039   8.396  0.2323 -0.2290  1.0271
 6217TIP3   OH240285   4.885   6.340   0.269 -0.2368  0.3086 -1.0409
 6217TIP3    H140286   4.818   6.331   0.202  0.3611  0.1554 -1.6276
 6217TIP3    H240287   4.937   6.415   0.240  1.4425 -1.1707 -2.0200
 6218TIP3   OH240288   2.098   1.996   0.560  0.6847 -0.0942  0.2353
 6218TIP3    H140289   2.124   1.993   0.468  0.2068 -2.6633  0.1096
 6218TIP3    H240290   2.179   2.012   0.607  1.2770 -0.7205 -0.5448
 6219TIP3   OH240291   1.747   0.419   0.657  0.7858 -0.1008  0.5420
 6219TIP3    H140292   1.722   0.337   0.700 -0.3246  0.3035  0.7123
 6219TIP3    H240293   1.801   0.393   0.583  1.3773 -0.9128  1.2359
 6220TIP3   OH240294   3.157   6.118   1.443  0.4229 -0.6605  0.3986
 6220TIP3    H140295   3.150   6.065   1.522  1.4209 -0.7250  0.4549
 6220TIP3    H240296   3.134   6.058   1.372  1.4086 -1.1551  0.4745
 6221TIP3   OH240297   0.525   2.624   2.055  0.3327 -0.2714  0.3351
 6221TIP3    H140298   0.501   2.546   2.105  0.1428 -0.3309  0.1512
 6221TIP3    H240299   0.563   2.590   1.974 -0.9929 -0.1968 -0.3614
 6222TIP3   OH240300   1.450   6.257   2.356 -0.1005 -0.0437  0.0710
 6222TIP3    H140301   1.379   6.194   2.369 -0.8956  0.6822 -0.6315
 6222TIP3    H240302   1.406   6.339   2.335  0.9175  0.7634  0.9613
 6223TIP3   OH240303   1.305   5.711   3.237  0.0159  0.0905  0.1572
 6223TIP3    H140304   1.299   5.807   3.237 -0.3602  0.0848 -0.9645
 6223TIP3    H240305   1.396   5.693   3.211 -0.4949  0.1737 -1.8939
 6224TIP3   OH240306   1.355   0.059   8.959  0.2972  0.0126  0.2093
 6224TIP3    H140307   1.412  -0.015   8.982  1.7335  1.2205  0.6349
 6224TIP3    H240308   1.299   0.071   9.035  0.5729 -0.1595  0.4396
 6225TIP3   OH240309   1.357   5.781   3.666 -0.2593  0.2831 -0.1320
 6225TIP3    H140310   1.293   5.804   3.599  0.4460  1.2385 -0.4949
 6225TIP3    H240311   1.365   5.686   3.660 -0.9609  0.2507 -0.7028
 6226TIP3   OH240312   4.329   4.624   1.994  0.2448 -0.6171 -0.9941
 6226TIP3    H140313   4.250   4.579   2.021  1.2730 -1.4172  0.8450
 6226TIP3    H240314   4.350   4.683   2.067  1.4528 -0.5722 -1.3515
 6227TIP3   OH240315   2.911   1.813   1.201 -0.2759  0.5303  0.0236
 6227TIP3    H140316   2.901   1.759   1.123  0.3357 -0.1159  0.3807
 6227TIP3    H240317   2.933   1.751   1.271 -1.1786  1.0534  0.7997
 6228TIP3   OH240318   4.994   6.460   8.829 -0.3819  0.3984 -0.1304
 6228TIP3    H140319   4.907   6.420   8.832 -1.1729  1.8969 -1.5427
 6228TIP3    H240320   5.009   6.492   8.918 -0.4091 -1.5371  0.6166
 6229TIP3   OH240321   3.822   5.226   8.289 -0.2293 -0.3204 -0.6019
 6229TIP3    H140322   3.900   5.181   8.319  0.8235  2.1429  0.6782
 6229TIP3    H240323   3.827   5.222   8.193  1.2740 -0.5400 -0.5366
 6230TIP3   OH240324   5.004   4.149   2.249 -0.0201  0.3195 -0.1071
 6230TIP3    H140325   4.995   4.099   2.330 -0.9270  0.2372 -0.2482
 6230TIP3    H240326   4.971   4.091   2.180 -1.4696  1.2137 -0.2253
 6231TIP3   OH240327   0.305   4.638   8.476  0.1324  0.2165 -0.0059
 6231TIP3    H140328   0.271   4.634   8.565  0.1118  0.6726  0.0093
 6231TIP3    H240329   0.231   4.612   8.421  0.8809 -2.6970  0.2397
 6232TIP3   OH240330   2.509   2.248   1.018  0.1769 -0.0553 -0.3048
 6232TIP3    H140331   2.478   2.174   0.966 -1.7469  0.4758  0.0328
 6232TIP3    H240332   2.553   2.207   1.093 -0.5555 -0.8587 -0.3054
 6233TIP3   OH240333   3.023   4.933   9.065 -0.1357 -0.0426  0.3420
 6233TIP3    H140334   3.052   4.904   9.151  1.3913  1.4179  0.3689
 6233TIP3    H240335   3.011   4.852   9.015  0.4111 -0.8504  1.4679
 6234TIP3   OH240336   0.108   4.934   8.296 -0.2047 -0.1902  0.3774
 6234TIP3    H140337   0.074   4.846   8.278  0.0393 -0.1079 -0.5134
 6234TIP3    H240338   0.062   4.991   8.234  0.8734  0.0545 -0.2188
 6235TIP3   OH240339   3.274   1.737   1.414  0.0242 -0.1098  0.7047
 6235TIP3    H140340   3.332   1.685   1.359 -1.7358  1.2760 -2.8429
 6235TIP3    H240341   3.198   1.681   1.430 -0.8829  0.4587 -1.2205
 6236TIP3   OH240342   2.045   3.902   1.779 -0.4067 -0.1070 -0.3939
 6236TIP3    H140343   1.983   3.844   1.822  1.1694 -0.7377  1.1229
 6236TIP3    H240344   2.122   3.848   1.763  2.1316  1.9565  3.3367
 6237TIP3   OH240345   6.235   3.296   0.197 -0.5907 -0.1797 -0.0214
 6237TIP3    H140346   6.317   3.263   0.235 -0.3409 -1.9506 -1.9448
 6237TIP3    H240347   6.243   3.280   0.103 -1.8021  2.6880 -0.7259
 6238TIP3   OH240348   4.704   0.211   0.887  0.2559 -0.1301  0.0399
 6238TIP3    H140349   4.691   0.301   0.856  1.0525  0.1767  0.5638
 6238TIP3    H240350   4.632   0.197   0.949 -0.0518  0.0331 -0.2749
 6239TIP3   OH240351   5.071   2.986   8.502 -0.7668 -0.4259  0.8410
 6239TIP3    H140352   5.069   2.910   8.560  3.0483 -1.3695  0.0257
 6239TIP3    H240353   5.090   2.950   8.415  1.2144  1.3602  0.4258
 6240TIP3   OH240354   2.527   5.720   7.927  0.0492  0.1032  0.7555
 6240TIP3    H140355   2.517   5.631   7.960 -0.2283 -0.0766  0.1994
 6240TIP3    H240356   2.605   5.753   7.972  1.3138 -1.0889 -0.4590
 6241TIP3   OH240357   5.725   0.957   2.774  0.0444  0.0452 -0.4525
 6241TIP3    H140358   5.754   0.961   2.865 -0.7485  1.6139 -0.2225
 6241TIP3    H240359   5.751   0.870   2.744  1.1311 -0.1639  0.9880
 6242TIP3   OH240360   4.981   0.823   2.373  0.7188 -0.0977 -0.0219
 6242TIP3    H140361   4.989   0.728   2.371  2.6121 -0.0910  2.5592
 6242TIP3    H240362   4.960   0.843   2.464 -0.7257  1.9524 -0.7270
 6243TIP3   OH240363   1.061   5.076   8.841 -0.3968  0.1651  0.6344
 6243TIP3    H140364   1.084   4.998   8.891 -2.8531 -1.7397 -1.0139
 6243TIP3    H240365   1.118   5.073   8.764  0.4576  0.8189  1.2121
 6244TIP3   OH240366   3.439   0.921   0.963 -0.7580 -0.0674  0.3080
 6244TIP3    H140367   3.502   0.937   0.894 -0.0992 -2.5976  0.2015
 6244TIP3    H240368   3.474   0.966   1.039  0.1958  0.1181 -0.2304
 6245TIP3   OH240369   2.374   1.565   0.939 -0.3209  0.4066 -0.5870
 6245TIP3    H140370   2.447   1.550   0.879  0.0853 -4.6683  0.6591
 6245TIP3    H240371   2.296   1.553   0.885 -0.1063  1.1078 -1.0557
 6246TIP3   OH240372   1.486   6.709   0.973  0.2747  0.1526 -0.0180
 6246TIP3    H140373   1.568   6.659   0.976  1.3458  1.8719  0.8872
 6246TIP3    H240374   1.463   6.711   0.880  1.0112 -0.7138 -0.2456
 6247TIP3   OH240375   1.387   3.457   0.825  0.2440  0.2080 -0.6870
 6247TIP3    H140376   1.463   3.472   0.881  1.4563 -1.1448 -1.9154
 6247TIP3    H240377   1.321   3.518   0.858  3.2099  4.8196 -2.3163
 6248TIP3   OH240378   0.087   4.591   2.372  0.0004  0.6324 -0.1076
 6248TIP3    H140379   0.101   4.573   2.279 -2.2312 -1.9419 -0.0888
 6248TIP3    H240380   0.026   4.523   2.400 -2.4174  3.5384  2.3823
 6249TIP3   OH240381   6.132   0.875   1.678  0.7054  0.5845 -0.2422
 6249TIP3    H140382   6.050   0.843   1.641  0.6312 -0.4672  0.7527
 6249TIP3    H240383   6.175   0.921   1.606 -1.4905  2.6621 -0.3413
 6250TIP3   OH240384   6.322   2.964   1.476 -0.4954 -0.2359 -0.2591
 6250TIP3    H140385   6.239   3.009   1.493 -0.1874  1.0681 -2.0013
 6250TIP3    H240386   6.300   2.898   1.410  0.0083  0.8185 -1.5257
 6251TIP3   OH240387   3.228   1.501   0.211 -0.1888 -0.1138 -0.0460
 6251TIP3    H140388   3.261   1.411   0.210 -1.4376 -0.6118 -1.4007
 6251TIP3    H240389   3.284   1.547   0.272  1.3108 -1.5188 -0.2997
 6252TIP3   OH240390   0.204   2.229   7.514 -0.4880  0.0802  0.1504
 6252TIP3    H140391   0.254   2.300   7.555  0.0577 -1.0356  1.5416
 6252TIP3    H240392   0.270   2.162   7.495 -1.1677 -0.5876  0.1041
 6253TIP3   OH240393   2.280   1.532   8.948  0.0073  0.1227  0.2310
 6253TIP3    H140394   2.325   1.464   8.898  0.8064  0.8104 -0.0140
 6253TIP3    H240395   2.211   1.563   8.891 -1.8063 -1.9633  1.1572
 6254TIP3   OH240396   6.683   5.414   0.934 -0.0284 -0.3132  0.0898
 6254TIP3    H140397   6.641   5.458   1.007  1.5371  0.2722  0.6841
 6254TIP3    H240398   6.663   5.321   0.948  0.0668 -0.1891  1.1499
 6255TIP3   OH240399   6.349   6.516   3.271  0.0800  0.2414 -0.1991
 6255TIP3    H140400   6.309   6.443   3.319 -0.6868  1.0739  0.4450
 6255TIP3    H240401   6.436   6.483   3.248  0.2917 -0.3806  1.3192
 6256TIP3   OH240402   2.275   3.688   1.801 -0.3917 -0.4251 -0.0872
 6256TIP3    H140403   2.213   3.670   1.872  0.7791  0.9512  1.3590
 6256TIP3    H240404   2.360   3.692   1.845  0.2223  1.7519 -1.3370
 6257TIP3   OH240405   2.822   1.938   1.779 -0.0881  0.1600 -0.1305
 6257TIP3    H140406   2.774   1.860   1.809 -1.5479  1.0810  0.0033
 6257TIP3    H240407   2.754   2.002   1.759  1.0876  1.4488 -0.1439
 6258TIP3   OH240408   4.339   0.641   2.867  0.0558 -0.7440  0.0893
 6258TIP3    H140409   4.275   0.657   2.936 -0.2695 -0.1923 -0.3372
 6258TIP3    H240410   4.320   0.706   2.800  2.0220  0.4461  0.6009
 6259TIP3   OH240411   5.737   4.526   8.852  0.2096  0.5075  0.1500
 6259TIP3    H140412   5.682   4.462   8.896  0.7144 -1.9323 -2.5236
 6259TIP3    H240413   5.821   4.521   8.897  0.7273 -1.9475 -0.9625
 6260TIP3   OH240414   2.767   6.479   0.610 -0.3862  0.3493  0.2195
 6260TIP3    H140415   2.855   6.459   0.579 -0.0602  1.1032  0.6387
 6260TIP3    H240416   2.765   6.446   0.700 -0.4986  0.4379  0.2495
 6261TIP3   OH240417   3.885   2.255   7.210  0.0302 -0.4494 -0.2951
 6261TIP3    H140418   3.816   2.218   7.264  0.3066 -1.1129 -0.3884
 6261TIP3    H240419   3.886   2.348   7.233  1.4738 -1.0363  2.2911
 6262TIP3   OH240420   3.375   4.028   8.234  0.3123  0.7757  0.1172
 6262TIP3    H140421   3.324   4.022   8.315  0.2700 -0.5083  0.0152
 6262TIP3    H240422   3.424   4.110   8.243  0.9139  0.2914  1.8174
 6263TIP3   OH240423   5.304   3.819   0.605 -0.0607 -0.4147  0.6185
 6263TIP3    H140424   5.391   3.817   0.645 -0.3870 -0.2706  1.3448
 6263TIP3    H240425   5.245   3.835   0.678 -0.7899 -1.4428  0.2770
 6264TIP3   OH240426   5.199   5.229   8.541 -0.1257  0.1841  0.2766
 6264TIP3    H140427   5.276   5.233   8.485  0.2411  1.6513  0.8408
 6264TIP3    H240428   5.149   5.154   8.508  1.1447 -0.3127 -0.5904
 6265TIP3   OH240429   4.603   0.841   2.487 -0.0935 -0.1785 -0.3688
 6265TIP3    H140430   4.690   0.817   2.518 -0.2160  2.2452  2.3391
 6265TIP3    H240431   4.547   0.769   2.515  0.7775 -0.9079 -0.4613
 6266TIP3   OH240432   5.625   2.365   8.013 -0.4898  0.6896 -0.2343
 6266TIP3    H140433   5.678   2.337   8.087 -0.3435  0.9362 -0.2433
 6266TIP3    H240434   5.688   2.375   7.941 -0.8907 -1.5870 -0.9842
 6267TIP3   OH240435   3.071   1.111   2.054 -0.3309  0.1092 -0.2604
 6267TIP3    H140436   3.058   1.024   2.017 -2.6780 -1.0809  2.8149
 6267TIP3    H240437   3.157   1.108   2.095 -0.0769 -0.4984 -0.8318
 6268TIP3   OH240438   2.383   5.378   2.792  0.4419 -0.1066 -0.0063
 6268TIP3    H140439   2.329   5.449   2.827  0.9193  0.5077 -0.4890
 6268TIP3    H240440   2.417   5.334   2.869 -0.7678 -0.5304  0.3078
 6269TIP3   OH240441   6.275   2.773   1.255 -0.0672  0.0341 -0.2071
 6269TIP3    H140442   6.197   2.724   1.280  0.3353 -0.0943  0.8389
 6269TIP3    H240443   6.344   2.706   1.249  0.0889  0.2233 -0.5802
 6270TIP3   OH240444   0.779   6.542   0.498 -0.4522 -0.5951  0.4391
 6270TIP3    H140445   0.762   6.552   0.591 -0.1171  1.3294  0.3349
 6270TIP3    H240446   0.727   6.611   0.457 -0.0821 -0.9971 -0.7454
 6271TIP3   OH240447   0.570   5.039   0.383 -0.5345  0.5011 -0.2059
 6271TIP3    H140448   0.629   4.966   0.400  0.4771  1.2583 -0.3483
 6271TIP3    H240449   0.614   5.115   0.421 -1.3278  1.1239 -0.4913
 6272TIP3   OH240450   5.660   4.575   0.138  0.6354 -0.1204 -0.4288
 6272TIP3    H140451   5.686   4.527   0.059 -0.2326 -1.8612  0.2872
 6272TIP3    H240452   5.565   4.573   0.137  0.6048 -0.7808  0.9935
 6273TIP3   OH240453   1.103   5.600   7.957 -0.3709  0.2247 -0.1801
 6273TIP3    H140454   1.057   5.606   8.040  1.1716 -0.1271  0.7349
 6273TIP3    H240455   1.061   5.526   7.912 -0.7120 -0.0801  0.6211
 6274TIP3   OH240456   1.935   5.623   8.682 -0.3007 -0.3652  0.0025
 6274TIP3    H140457   2.010   5.609   8.625 -0.3032  0.0734 -0.1177
 6274TIP3    H240458   1.970   5.675   8.755 -0.6384  0.5201 -0.4465
 6275TIP3   OH240459   1.773   0.694   7.850 -0.2268  0.4344  0.1263
 6275TIP3    H140460   1.696   0.684   7.907 -0.1292 -1.8697 -0.0575
 6275TIP3    H240461   1.766   0.621   7.788  1.5539  0.8275 -0.5796
 6276TIP3   OH240462   5.763   0.686   2.658 -0.5780 -0.2526  0.0393
 6276TIP3    H140463   5.737   0.606   2.613  0.7978  1.0815 -3.4971
 6276TIP3    H240464   5.846   0.664   2.699 -0.8550 -0.9616  0.2418
 6277TIP3   OH240465   5.906   4.296   7.979  0.5916  0.4838 -0.1104
 6277TIP3    H140466   5.816   4.263   7.984  0.6546  0.4501  1.5881
 6277TIP3    H240467   5.910   4.344   7.897 -0.2232 -1.6546 -1.4733
 6278TIP3   OH240468   5.786   6.067   1.999  0.1670 -0.5448 -0.2890
 6278TIP3    H140469   5.705   6.066   2.050 -1.1110  0.4338 -2.1488
 6278TIP3    H240470   5.761   6.029   1.914  1.3338  0.7989 -1.2947
 6279TIP3   OH240471   1.209   6.719   1.569 -0.6466  0.1019 -0.4690
 6279TIP3    H140472   1.292   6.755   1.539 -0.5166  0.2441  0.0408
 6279TIP3    H240473   1.152   6.722   1.493 -0.7821  1.7974 -0.3418
 6280TIP3   OH240474   0.935   1.307   1.837  0.4377 -0.1022  0.0999
 6280TIP3    H140475   0.909   1.231   1.889  0.5511 -0.0280  0.2667
 6280TIP3    H240476   0.953   1.375   1.902  0.6356 -0.0254 -0.0349
 6281TIP3   OH240477   2.598   6.002   1.652  0.4456 -0.5365  0.2451
 6281TIP3    H140478   2.545   5.983   1.729 -0.5587  3.1791  0.6738
 6281TIP3    H240479   2.684   6.025   1.687  0.2478  0.2754  0.2265
 6282TIP3   OH240480   2.932   1.567   8.911  0.2199 -0.1694  0.1683
 6282TIP3    H140481   2.948   1.630   8.841  0.6278 -0.5791 -0.1117
 6282TIP3    H240482   2.848   1.527   8.889  0.4574 -0.4633 -0.2161
 6283TIP3   OH240483   5.242   4.290   9.084 -0.1496  0.0929 -0.3320
 6283TIP3    H140484   5.236   4.375   9.041  1.1296 -0.1959 -1.1144
 6283TIP3    H240485   5.234   4.227   9.014 -0.0960 -0.4239  0.1209
 6284TIP3   OH240486   4.869   0.444   2.661 -0.0431 -0.0351 -0.2467
 6284TIP3    H140487   4.934   0.394   2.711  0.7015  0.7425 -0.4089
 6284TIP3    H240488   4.916   0.522   2.632 -0.7792  0.0611 -1.2301
 6285TIP3   OH240489   4.234   1.487   1.290  0.2591 -0.5934 -0.7351
 6285TIP3    H140490   4.319   1.450   1.267  0.3967 -0.0347 -1.1271
 6285TIP3    H240491   4.172   1.414   1.280  0.8867 -1.4001  0.9547
 6286TIP3   OH240492   3.632   1.692   3.333  0.2627  0.0391  0.5060
 6286TIP3    H140493   3.630   1.669   3.426 -0.8014  2.1578  1.0610
 6286TIP3    H240494   3.648   1.609   3.288 -1.2149 -1.4031  2.4679
 6287TIP3   OH240495   0.233   6.538   1.500  0.5780 -0.4498  0.0593
 6287TIP3    H140496   0.171   6.558   1.570  1.1772  0.6362  0.3055
 6287TIP3    H240497   0.237   6.618   1.448  2.0071 -0.3675  0.2512
 6288TIP3   OH240498   1.181   4.943   1.557 -0.1741 -0.3608  0.0419
 6288TIP3    H140499   1.117   4.872   1.545 -0.6260  0.0716 -0.1566
 6288TIP3    H240500   1.211   4.933   1.647 -0.2645 -0.7792  0.0302
 6289TIP3   OH240501   3.104   3.441   8.245 -0.1778 -0.4756  0.1988
 6289TIP3    H140502   3.076   3.435   8.336 -2.5396 -1.9431 -0.5263
 6289TIP3    H240503   3.023   3.455   8.196  0.9184 -0.5907 -1.7502
 6290TIP3   OH240504   5.571   1.099   1.737 -0.7242 -0.4158 -0.1486
 6290TIP3    H140505   5.607   1.101   1.826 -1.2502 -0.4587  0.0718
 6290TIP3    H240506   5.645   1.076   1.682 -0.0442  0.9883  0.1087
 6291TIP3   OH240507   0.537   6.342   8.777  0.0010 -0.3758  0.2144
 6291TIP3    H140508   0.459   6.382   8.816 -0.0607 -1.1249  0.8771
 6291TIP3    H240509   0.605   6.409   8.785 -0.1735 -0.2846  1.0559
 6292TIP3   OH240510   1.512   0.778   0.452  0.1603 -0.6886 -0.1680
 6292TIP3    H140511   1.591   0.730   0.428  0.2378 -1.2145  1.0725
 6292TIP3    H240512   1.542   0.868   0.464  0.4461 -0.7590 -0.3448
 6293TIP3   OH240513   3.629   1.475   0.352  0.3517 -0.1525  0.5738
 6293TIP3    H140514   3.704   1.424   0.383 -0.1541  0.3396  2.7898
 6293TIP3    H240515   3.667   1.559   0.324  0.8385 -0.6149 -0.1594
 6294TIP3   OH240516   4.247   2.421   2.520  0.5646 -0.1945  0.0886
 6294TIP3    H140517   4.250   2.410   2.425  0.3909 -0.0080  0.0614
 6294TIP3    H240518   4.332   2.460   2.542 -0.0825  1.4785 -0.2197
 6295TIP3   OH240519   2.397   1.518   8.589 -0.7715  0.4312  0.0647
 6295TIP3    H140520   2.421   1.592   8.645  0.6052  1.0888 -1.3025
 6295TIP3    H240521   2.349   1.459   8.647 -0.1435  1.4489  1.7238
 6296TIP3   OH240522   4.045   0.814   1.382  0.4165 -0.5331  0.1927
 6296TIP3    H140523   4.044   0.755   1.458 -3.0371 -1.0852 -0.0841
 6296TIP3    H240524   3.978   0.778   1.324  0.6502  1.7377 -1.6283
 6297TIP3   OH240525   2.662   1.397   9.030 -0.0865 -0.8398  0.4032
 6297TIP3    H140526   2.578   1.408   9.074 -0.5075 -2.1013 -0.0578
 6297TIP3    H240527   2.644   1.417   8.938  0.0275 -1.5090  0.2356
 6298TIP3   OH240528   3.270   2.748   0.823 -0.3388  0.8084 -0.2428
 6298TIP3    H140529   3.350   2.720   0.778 -0.0047 -2.7312  2.1425
 6298TIP3    H240530   3.201   2.694   0.786 -0.6044  0.0388  1.3160
 6299TIP3   OH240531   0.476   0.178   0.258  0.3351  0.1170  0.1077
 6299TIP3    H140532   0.452   0.271   0.264 -1.7892 -0.2763 -1.1350
 6299TIP3    H240533   0.392   0.132   0.258  1.2794 -1.7176 -0.9289
 6300TIP3   OH240534   3.148   0.631   2.093 -0.0549 -0.0174 -0.3542
 6300TIP3    H140535   3.128   0.551   2.141 -0.9147 -0.4077 -1.3258
 6300TIP3    H240536   3.179   0.601   2.008  1.4138  0.6656 -0.0893
 6301TIP3   OH240537   5.017   5.016   3.162 -0.0422  0.3451 -0.0480
 6301TIP3    H140538   4.929   4.987   3.184 -0.2483  1.2540  0.3804
 6301TIP3    H240539   5.028   5.098   3.210  0.7704  0.6074 -0.6580
 6302TIP3   OH240540   3.862   1.782   7.702  0.3277  0.1073  0.4782
 6302TIP3    H140541   3.932   1.760   7.640  0.3586  0.7632  0.2748
 6302TIP3    H240542   3.819   1.698   7.720 -0.1081  0.0058 -0.9561
 6303TIP3   OH240543   5.123   4.864   0.178  0.1225  0.6014  0.6469
 6303TIP3    H140544   5.074   4.888   0.256 -0.0439  0.5885  0.5469
 6303TIP3    H240545   5.061   4.876   0.106  0.2017  0.3811  0.5417
 6304TIP3   OH240546   2.429   0.302   3.338 -0.4090  0.4494 -0.2419
 6304TIP3    H140547   2.506   0.249   3.319 -1.0121  0.1722 -2.2369
 6304TIP3    H240548   2.367   0.241   3.378  0.8912  1.0295  2.8892
 6305TIP3   OH240549   4.564   2.517   7.527 -0.5541 -0.4930  0.4129
 6305TIP3    H140550   4.658   2.502   7.537 -0.6489 -1.1462  0.3378
 6305TIP3    H240551   4.530   2.433   7.497 -0.8665  0.2939 -1.5095
 6306TIP3   OH240552   0.121   5.215   3.287  0.2764 -0.5309  0.1494
 6306TIP3    H140553   0.192   5.187   3.346 -0.2903 -0.0745  1.0694
 6306TIP3    H240554   0.134   5.309   3.276  0.1766 -0.5557 -0.1794
 6307TIP3   OH240555   2.627   1.851   1.489  0.0073 -0.0908 -0.7484
 6307TIP3    H140556   2.595   1.921   1.545  0.1004  0.3010 -1.1816
 6307TIP3    H240557   2.601   1.770   1.534 -0.8036  0.2170 -0.6486
 6308TIP3   OH240558   2.403   3.773   3.536 -0.2870  0.1323 -0.2549
 6308TIP3    H140559   2.413   3.852   3.482  1.1151 -0.5711 -1.0587
 6308TIP3    H240560   2.312   3.748   3.524 -0.3616  0.7906 -1.1814
 6309TIP3   OH240561   0.858   2.133   1.502 -0.3671  0.2837 -0.1772
 6309TIP3    H140562   0.918   2.098   1.436 -0.4170  0.8976 -0.5531
 6309TIP3    H240563   0.804   2.197   1.455 -1.3243 -0.2480  0.1512
 6310TIP3   OH240564   5.605   2.279   0.376 -0.0805 -0.0360  0.0222
 6310TIP3    H140565   5.606   2.336   0.453 -2.3880 -0.6794  0.5898
 6310TIP3    H240566   5.629   2.336   0.303 -0.6745  1.2592  0.8187
 6311TIP3   OH240567   4.035   3.778   8.988  0.4104  0.1274 -0.3502
 6311TIP3    H140568   4.112   3.833   9.003  1.5379 -1.4670 -0.0012
 6311TIP3    H240569   4.001   3.759   9.076  0.2397 -0.0309 -0.4494
 6312TIP3   OH240570   5.370   6.308   8.514 -0.1114 -0.0693  0.7179
 6312TIP3    H140571   5.451   6.317   8.463 -0.4070 -0.0822  0.2350
 6312TIP3    H240572   5.400   6.292   8.604  0.4642 -1.9417  0.2505
 6313TIP3   OH240573   5.600   4.178   0.990  0.1474  0.1585 -0.1485
 6313TIP3    H140574   5.557   4.151   1.071  0.7571 -0.3341  0.0252
 6313TIP3    H240575   5.657   4.251   1.017  0.4305 -0.0748 -0.1071
 6314TIP3   OH240576   4.805   5.571   0.475 -0.0333  0.6382  0.0030
 6314TIP3    H140577   4.770   5.552   0.388 -0.2838  1.3236 -0.0523
 6314TIP3    H240578   4.898   5.586   0.461 -0.0372  0.5470 -0.1212
 6315TIP3   OH240579   1.883   6.114   2.830  0.2654  0.0099  0.1433
 6315TIP3    H140580   1.947   6.091   2.763  0.5005 -2.3500  1.0825
 6315TIP3    H240581   1.860   6.031   2.871 -3.1493  0.7796  0.1105
 6316TIP3   OH240582   0.034   6.241   7.960  0.6202 -0.0173 -0.2382
 6316TIP3    H140583   0.042   6.150   7.989 -0.8111 -0.1845 -0.2698
 6316TIP3    H240584  -0.058   6.262   7.977  0.6666  1.0635 -1.2735
 6317TIP3   OH240585   0.800   0.160   1.681 -0.0107  0.2141  0.2295
 6317TIP3    H140586   0.751   0.147   1.762 -0.9280  1.3583 -0.1287
 6317TIP3    H240587   0.871   0.095   1.685 -0.9184 -0.7383  1.2446
 6318TIP3   OH240588   4.179   1.683   1.079  0.2876  0.3704 -0.2651
 6318TIP3    H140589   4.154   1.636   1.159  0.6466  0.9166  0.1754
 6318TIP3    H240590   4.247   1.628   1.039  1.4451  0.9862  0.7826
 6319TIP3   OH240591   5.022   5.127   2.121  0.1995 -0.3673  0.3231
 6319TIP3    H140592   5.020   5.216   2.157  1.4894  0.1848 -0.8936
 6319TIP3    H240593   5.080   5.132   2.046 -0.7095 -1.9783 -0.5508
 6320TIP3   OH240594   2.042   0.988   0.217  0.3830 -0.0879 -0.4264
 6320TIP3    H140595   2.056   0.893   0.212 -1.2445 -0.4187  0.3286
 6320TIP3    H240596   1.976   0.998   0.286 -1.2526  1.3824 -2.1094
 6321TIP3   OH240597   3.913   2.971   7.638 -0.0490 -0.4176  0.0460
 6321TIP3    H140598   3.851   2.995   7.568 -0.1231 -0.9392 -0.0722
 6321TIP3    H240599   3.871   2.896   7.682  0.5732 -0.8735 -0.1343
 6322TIP3   OH240600   0.903   0.140   0.029  0.2022 -0.9379 -0.3631
 6322TIP3    H140601   0.923   0.199  -0.044 -0.2088 -0.7194 -0.3052
 6322TIP3    H240602   0.815   0.106   0.010  0.3309 -1.3289 -0.2632
 6323TIP3   OH240603   3.262   3.083   8.518  0.0813  0.3090  0.2705
 6323TIP3    H140604   3.179   3.036   8.533 -0.6906  1.6408  0.3204
 6323TIP3    H240605   3.281   3.070   8.426  0.5664 -1.1564  0.5494
 6324TIP3   OH240606   2.424   3.181   7.929  0.0287 -0.4623 -0.1937
 6324TIP3    H140607   2.345   3.231   7.949 -0.9041 -2.2921  0.8663
 6324TIP3    H240608   2.496   3.240   7.952 -0.9563  1.3937 -1.5494
 6325TIP3   OH240609   2.624   3.187   8.528  0.4372  0.1862  0.4636
 6325TIP3    H140610   2.635   3.274   8.566  1.1534  0.2703  0.0804
 6325TIP3    H240611   2.539   3.157   8.560  0.2117  1.0017  0.6438
 6326TIP3   OH240612   0.875   2.280   1.729 -0.3041  0.1701  0.4904
 6326TIP3    H140613   0.960   2.271   1.773  0.3202  2.0132 -0.2765
 6326TIP3    H240614   0.886   2.233   1.647 -0.1885  0.0368  0.5800
 6327TIP3   OH240615   1.601   6.565   0.686  0.0270 -0.3835  0.0884
 6327TIP3    H140616   1.517   6.576   0.731  0.2431  0.2039  0.3486
 6327TIP3    H240617   1.584   6.495   0.622 -0.7251 -0.1090 -0.0282
 6328TIP3   OH240618   0.064   6.348   2.253  0.7772 -0.5806 -0.3062
 6328TIP3    H140619   0.004   6.330   2.325  1.5164 -2.2550 -0.0603
 6328TIP3    H240620   0.139   6.390   2.295  0.3489  0.3316 -0.4270
 6329TIP3   OH240621   1.299   6.022   0.198 -0.6132  0.4084 -0.2506
 6329TIP3    H140622   1.266   6.111   0.204  0.0901  0.5683  2.7865
 6329TIP3    H240623   1.271   5.980   0.279  0.1837 -1.7677 -1.0122
 6330TIP3   OH240624   3.234   5.372   2.391  0.0672 -0.3062 -0.2867
 6330TIP3    H140625   3.147   5.384   2.429  0.2880  0.6821 -0.0516
 6330TIP3    H240626   3.289   5.434   2.439  1.1910 -1.8166  0.4899
 6331TIP3   OH240627   4.016   3.802   0.572 -0.0529 -0.3527  0.1218
 6331TIP3    H140628   4.025   3.716   0.613 -0.7646  0.3169  1.7987
 6331TIP3    H240629   3.922   3.810   0.553  0.1942 -0.4327 -1.1855
 6332TIP3   OH240630   0.879   0.663   0.238  0.2512  0.1843  0.1907
 6332TIP3    H140631   0.852   0.751   0.265  0.8711  1.0049 -1.6737
 6332TIP3    H240632   0.807   0.631   0.184  0.7325  0.2735 -0.5299
 6333TIP3   OH240633   1.773   5.636   9.047  0.1101  0.2810  0.0968
 6333TIP3    H140634   1.763   5.680   9.131 -0.4847 -0.0071  0.1810
 6333TIP3    H240635   1.792   5.707   8.985 -2.1542  0.8575 -0.0106
 6334TIP3   OH240636   5.393   4.913   0.162 -0.5234  0.0786  0.3419
 6334TIP3    H140637   5.299   4.897   0.160 -0.6065  0.4774  1.0555
 6334TIP3    H240638   5.422   4.880   0.247 -0.2076  0.9877  0.5988
 6335TIP3   OH240639   1.124   3.262   7.750 -0.7555 -0.3247  0.3185
 6335TIP3    H140640   1.125   3.186   7.692 -1.0759  0.4877 -0.7967
 6335TIP3    H240641   1.206   3.257   7.799  0.0378 -0.4570 -0.9906
 6336TIP3   OH240642   3.704   3.486   2.123  0.1795  0.4287 -0.4733
 6336TIP3    H140643   3.727   3.442   2.205 -2.0658  0.9653  0.5187
 6336TIP3    H240644   3.703   3.416   2.057  1.2436 -0.1461  0.1113
 6337TIP3   OH240645   5.145   0.636   2.560  0.1530 -0.3859 -0.5458
 6337TIP3    H140646   5.206   0.689   2.508 -0.1861  0.9005  0.3410
 6337TIP3    H240647   5.188   0.627   2.645 -1.2574  1.3565  0.4192
 6338TIP3   OH240648   1.820   5.860   8.894 -0.1840 -0.2722 -0.2240
 6338TIP3    H140649   1.774   5.836   8.813 -0.2418 -0.1584 -0.2254
 6338TIP3    H240650   1.911   5.833   8.879  0.1860  1.2590 -1.0050
 6339TIP3   OH240651   2.553   0.119   1.962 -0.0492 -0.3429 -0.5381
 6339TIP3    H140652   2.598   0.088   2.041 -1.4543  1.5379  1.1364
 6339TIP3    H240653   2.514   0.041   1.923 -2.4290 -1.0226  2.7665
 6340TIP3   OH240654   5.303   0.443   8.550 -0.1491  0.0980 -0.3577
 6340TIP3    H140655   5.229   0.469   8.496  0.0219  0.7268 -0.2926
 6340TIP3    H240656   5.264   0.420   8.635 -0.3850 -0.6237 -0.6553
 6341TIP3   OH240657   5.826   1.126   8.908  0.6789  0.4914 -0.0419
 6341TIP3    H140658   5.861   1.038   8.894 -1.3992 -0.1864 -1.6347
 6341TIP3    H240659   5.822   1.164   8.820 -0.5314  1.3204  0.3436
 6342TIP3   OH240660   0.476   2.097   1.413  0.6239  0.0684  0.0787
 6342TIP3    H140661   0.519   2.037   1.473 -0.4998 -0.3799  0.4722
 6342TIP3    H240662   0.382   2.078   1.424  0.3350  0.8729 -0.8708
 6343TIP3   OH240663   2.269   1.126   0.993  0.1606  0.4976 -0.1861
 6343TIP3    H140664   2.178   1.101   0.983  0.2584 -0.4820  1.0901
 6343TIP3    H240665   2.282   1.134   1.087  1.0762  1.9176 -0.3889
 6344TIP3   OH240666   3.587   2.182   8.568 -0.1026  0.1538  0.1065
 6344TIP3    H140667   3.652   2.142   8.511 -1.0360 -1.7761  0.3129
 6344TIP3    H240668   3.597   2.137   8.652 -0.7120  0.8949  0.5997
 6345TIP3   OH240669   5.735   4.331   8.594 -0.8986 -0.1339 -0.2212
 6345TIP3    H140670   5.684   4.271   8.648 -2.2044  0.9441 -0.2095
 6345TIP3    H240671   5.809   4.356   8.650 -2.9153  2.0013  1.7259
 6346TIP3   OH240672   2.838   4.981   0.325 -0.0178 -0.4184  0.2553
 6346TIP3    H140673   2.821   5.031   0.246 -0.2587 -0.4949  0.2577
 6346TIP3    H240674   2.894   4.909   0.297  1.5965  0.6998  0.5235
 6347TIP3   OH240675   3.867   4.188   1.238 -0.1779 -0.0894  0.3366
 6347TIP3    H140676   3.914   4.127   1.182 -0.8632 -0.1736 -0.1520
 6347TIP3    H240677   3.776   4.158   1.235 -0.4545  0.7459  0.3819
 6348TIP3   OH240678   3.221   5.691   2.472  0.0730  0.7004  0.1031
 6348TIP3    H140679   3.215   5.761   2.537  0.4515 -1.0419  2.1253
 6348TIP3    H240680   3.266   5.620   2.517 -0.5185 -0.9678 -1.7739
 6349TIP3   OH240681   3.229   5.662   2.823  0.0119  0.2112 -0.0533
 6349TIP3    H140682   3.293   5.652   2.894  2.4421 -0.3684 -2.1517
 6349TIP3    H240683   3.191   5.575   2.813  2.4232 -0.7842 -1.7351
 6350TIP3   OH240684   6.025   0.779   8.256  0.5412  0.0890 -0.1010
 6350TIP3    H140685   6.032   0.763   8.350  1.5568  1.3326  0.0686
 6350TIP3    H240686   5.939   0.819   8.244  1.4916  2.5903  0.7708
 6351TIP3   OH240687   5.500   6.548   1.365 -0.2817  0.2287  0.1009
 6351TIP3    H140688   5.490   6.575   1.457 -0.1292  1.6978 -0.2835
 6351TIP3    H240689   5.528   6.628   1.320 -0.0626 -0.5455 -1.1800
 6352TIP3   OH240690   3.674   3.828   0.869 -0.1297  0.4011 -0.1551
 6352TIP3    H140691   3.733   3.777   0.814  0.5885  1.3035 -0.2521
 6352TIP3    H240692   3.730   3.896   0.907 -0.9936  0.9228  0.2099
 6353TIP3   OH240693   4.847   3.154   8.431  0.4917 -0.0734 -0.9860
 6353TIP3    H140694   4.884   3.241   8.413  0.5155  0.1858  0.2720
 6353TIP3    H240695   4.922   3.103   8.462  0.0104  0.1737  0.6399
 6354TIP3   OH240696   0.900   6.702   1.072 -0.5101  0.3334 -0.1687
 6354TIP3    H140697   0.897   6.719   0.978  0.7307  1.1247 -0.0864
 6354TIP3    H240698   0.808   6.695   1.098 -0.8715 -1.6247 -1.7144
 6355TIP3   OH240699   2.321   5.957   0.476  0.0387 -0.1181  0.9540
 6355TIP3    H140700   2.367   6.020   0.420 -0.2078 -1.4259 -0.8035
 6355TIP3    H240701   2.368   5.875   0.463  0.2348 -0.4011  3.0562
 6356TIP3   OH240702   4.041   5.687   2.671 -0.4352  0.4653 -0.5050
 6356TIP3    H140703   4.030   5.781   2.656 -1.4496  0.3671 -0.4706
 6356TIP3    H240704   4.001   5.672   2.757 -1.5070 -0.2005 -1.0946
 6357TIP3   OH240705   0.952   3.627   8.707  0.4222  0.0437  0.0842
 6357TIP3    H140706   1.000   3.548   8.684 -1.0198 -0.4627 -1.3918
 6357TIP3    H240707   0.949   3.677   8.625 -0.2015  0.7903  0.5508
 6358TIP3   OH240708   4.003   1.573   0.319  0.3394  0.1221  0.3677
 6358TIP3    H140709   4.015   1.511   0.246  0.3303  0.7252 -0.1568
 6358TIP3    H240710   3.946   1.641   0.284 -2.5275 -1.2838  1.9894
 6359TIP3   OH240711   1.142   0.974   2.114 -0.1457 -0.0504 -0.6076
 6359TIP3    H140712   1.134   0.976   2.019  1.8618  1.3348 -0.8000
 6359TIP3    H240713   1.191   1.053   2.136 -0.7892 -0.2090  1.6135
 6360TIP3   OH240714   5.197   2.201   3.645 -0.2762  0.4968 -0.3044
 6360TIP3    H140715   5.279   2.250   3.648 -0.8826  1.4952  0.9622
 6360TIP3    H240716   5.143   2.246   3.580 -0.2925  0.6135 -0.2094
 6361TIP3   OH240717   5.065   1.227   1.261  0.6881 -0.0395  0.0234
 6361TIP3    H140718   5.001   1.244   1.330 -0.8677 -0.9970 -1.1295
 6361TIP3    H240719   5.150   1.235   1.305 -0.2009  1.1603  1.6151
 6362TIP3   OH240720   1.219   2.733   1.422 -0.5675 -0.6591 -0.2478
 6362TIP3    H140721   1.220   2.748   1.517  1.1194 -0.7372 -0.2238
 6362TIP3    H240722   1.299   2.775   1.390 -1.1235 -0.6005 -1.6620
 6363TIP3   OH240723   5.265   5.384   0.702 -0.6936  0.2294 -0.1587
 6363TIP3    H140724   5.243   5.358   0.612 -0.3512  0.1743 -0.2294
 6363TIP3    H240725   5.281   5.478   0.697 -0.8422  0.2560 -0.1227
 6364TIP3   OH240726   6.414   6.638   0.968 -0.0789 -0.4028 -0.5815
 6364TIP3    H140727   6.490   6.607   1.018  0.8101 -1.3748 -2.4220
 6364TIP3    H240728   6.341   6.634   1.030  1.3317  0.4415  1.1968
 6365TIP3   OH240729   5.366   4.167   8.113  0.2872  0.2381  0.3314
 6365TIP3    H140730   5.339   4.162   8.021  2.5868 -1.6933 -0.3310
 6365TIP3    H240731   5.304   4.110   8.158  1.8814 -2.6940 -0.8778
 6366TIP3   OH240732   2.393   4.897   8.869  0.0847 -0.0800 -0.0704
 6366TIP3    H140733   2.398   4.803   8.856  1.1761  0.0109 -0.4273
 6366TIP3    H240734   2.342   4.930   8.795  0.1963 -0.3248 -0.2546
 6367TIP3   OH240735   3.886   1.085   1.470  0.1047  0.3727  0.5619
 6367TIP3    H140736   3.803   1.091   1.422  0.4944 -0.6325 -0.2795
 6367TIP3    H240737   3.905   0.991   1.473  0.7072  0.5190  1.6329
 6368TIP3   OH240738   4.811   2.469   2.296 -0.4311 -0.1163 -0.5912
 6368TIP3    H140739   4.818   2.373   2.294 -0.1111 -0.1394  0.7164
 6368TIP3    H240740   4.867   2.498   2.224  1.6706 -0.8392  0.6605
 6369TIP3   OH240741   6.106   1.175   2.648  0.0138 -0.0729  0.2688
 6369TIP3    H140742   6.030   1.220   2.684  1.4862  2.2630  0.6743
 6369TIP3    H240743   6.131   1.226   2.571  1.2117 -0.7320  0.1939
 6370TIP3   OH240744   5.448   4.162   2.677  0.3082  0.1969 -0.1279
 6370TIP3    H140745   5.474   4.254   2.681  1.8300 -0.2244  0.1445
 6370TIP3    H240746   5.494   4.127   2.601 -0.4829 -0.2939 -0.3977
 6371TIP3   OH240747   3.341   2.324   0.515 -0.5630 -0.2369 -0.1213
 6371TIP3    H140748   3.390   2.329   0.596  2.1823  1.0332 -1.7132
 6371TIP3    H240749   3.331   2.230   0.498 -0.0236 -0.5041  1.0178
 6372TIP3   OH240750   2.984   5.440   7.770 -0.1021  0.5152  0.1798
 6372TIP3    H140751   3.062   5.388   7.749 -1.6011 -1.6301 -0.3358
 6372TIP3    H240752   2.992   5.518   7.714  0.6613 -0.6388 -1.4055
 6373TIP3   OH240753   1.357   6.498   7.877 -0.0089  0.1770  0.3333
 6373TIP3    H140754   1.357   6.437   7.950 -3.9745  2.2372  2.4337
 6373TIP3    H240755   1.316   6.450   7.805 -2.2771 -0.1022  1.6837
 6374TIP3   OH240756   1.631   0.188   2.415 -0.2071  0.2206 -0.6238
 6374TIP3    H140757   1.726   0.178   2.405  0.3631  2.0210  2.0195
 6374TIP3    H240758   1.613   0.278   2.388 -0.8619  0.4384  0.4734
 6375TIP3   OH240759   3.231   3.184   0.540 -0.2286 -0.0781 -0.0130
 6375TIP3    H140760   3.311   3.200   0.489  1.1456 -1.5462  1.5745
 6375TIP3    H240761   3.211   3.268   0.579  0.1649  0.4635 -0.9354
 6376TIP3   OH240762   2.359   3.087   1.030 -0.4625  0.4499  0.1301
 6376TIP3    H140763   2.404   3.058   1.109 -0.5326  1.4347  0.5400
 6376TIP3    H240764   2.389   3.177   1.017  1.2050 -0.3272 -2.1477
 6377TIP3   OH240765   1.738   2.699   0.740  0.2857 -0.1254 -0.3430
 6377TIP3    H140766   1.707   2.781   0.702 -0.8038 -0.9475 -1.2733
 6377TIP3    H240767   1.827   2.689   0.707  0.4066  0.6546 -0.2630
 6378TIP3   OH240768   0.964   3.626   2.697 -0.0365  0.2019 -0.0647
 6378TIP3    H140769   0.950   3.712   2.736 -2.5343 -1.3202  2.7887
 6378TIP3    H240770   0.883   3.607   2.650  1.2796  0.1457 -2.4844
 6379TIP3   OH240771   0.769   3.291   2.722 -0.0006 -0.0958  0.1863
 6379TIP3    H140772   0.861   3.291   2.695 -0.0537 -0.3934 -0.0059
 6379TIP3    H240773   0.768   3.333   2.808  0.5427 -1.5798  0.9564
 6380TIP3   OH240774   1.763   5.904   0.624 -0.1116  0.1553 -0.1378
 6380TIP3    H140775   1.712   5.831   0.661  0.4962 -0.2919 -0.1715
 6380TIP3    H240776   1.810   5.865   0.550  0.8820  0.3740  0.3647
 6381TIP3   OH240777   1.454   5.158   7.615 -0.3592 -0.2774 -0.1279
 6381TIP3    H140778   1.481   5.247   7.637 -1.5331  0.1601 -0.4372
 6381TIP3    H240779   1.456   5.111   7.699  1.8214 -0.4231 -0.1872
 6382TIP3   OH240780   0.887   2.568   1.062 -0.0957  0.1281  0.5032
 6382TIP3    H140781   0.951   2.635   1.085 -0.3612  0.0569  1.4852
 6382TIP3    H240782   0.828   2.611   1.000 -0.4103  0.8907  1.3162
 6383TIP3   OH240783   6.640   0.249   1.078 -0.1980  0.4382  0.1731
 6383TIP3    H140784   6.695   0.176   1.104  0.1601  0.3058 -0.9023
 6383TIP3    H240785   6.657   0.317   1.143 -0.8087 -0.5399  1.3916
 6384TIP3   OH240786   6.100   2.601   0.467  0.9497 -0.3723  0.8833
 6384TIP3    H140787   6.148   2.668   0.516  0.2372 -0.3997  1.6582
 6384TIP3    H240788   6.168   2.543   0.433  1.4563 -0.9618  2.7673
 6385TIP3   OH240789   2.628   5.440   2.042  0.5568  0.0009 -0.4179
 6385TIP3    H140790   2.645   5.387   2.120  2.3303  0.6963 -0.2927
 6385TIP3    H240791   2.639   5.380   1.969 -0.5615 -0.5220 -0.1765
 6386TIP3   OH240792   5.791   5.515   2.004 -0.2349 -0.9870  0.3688
 6386TIP3    H140793   5.814   5.589   1.949  0.3454 -2.5454 -1.6358
 6386TIP3    H240794   5.872   5.462   2.007 -1.0903 -2.3582  0.2614
 6387TIP3   OH240795   5.590   5.763   0.640 -0.1560 -0.6696  0.1516
 6387TIP3    H140796   5.561   5.735   0.727 -2.3997  3.1187  0.8873
 6387TIP3    H240797   5.650   5.836   0.657  2.5342 -2.3317 -1.5591
 6388TIP3   OH240798   4.065   5.633   0.476 -0.4628 -0.1714 -0.2562
 6388TIP3    H140799   4.107   5.606   0.394  1.0444 -0.8842  0.7105
 6388TIP3    H240800   4.091   5.724   0.488 -1.5119  0.2582 -1.0384
 6389TIP3   OH240801   1.637   1.055   0.499  0.1879  0.7915 -0.0448
 6389TIP3    H140802   1.642   1.038   0.593 -0.8506 -0.1520 -0.1299
 6389TIP3    H240803   1.632   1.150   0.492 -1.3033  0.8318  0.9751
 6390TIP3   OH240804   4.256   1.006   2.123  0.6610 -0.4702  0.3315
 6390TIP3    H140805   4.239   1.098   2.106  0.8291 -0.3059  1.0373
 6390TIP3    H240806   4.304   0.975   2.046 -0.0611 -0.1611 -0.2499
 6391TIP3   OH240807   2.161   2.363   8.312  0.4586  0.8299 -0.1512
 6391TIP3    H140808   2.192   2.334   8.398  1.6240  1.1011 -0.4574
 6391TIP3    H240809   2.068   2.383   8.325  0.7827  1.5511  1.2166
 6392TIP3   OH240810   0.837   0.916   2.198  0.7517 -0.0363 -0.8575
 6392TIP3    H140811   0.856   0.967   2.277 -1.1656  0.0301 -0.3873
 6392TIP3    H240812   0.839   0.825   2.228  2.0126 -0.1411 -1.2102
 6393TIP3   OH240813   6.667   4.937   8.558 -0.2571 -0.0043  0.2073
 6393TIP3    H140814   6.749   4.921   8.511 -0.2637 -0.4943  0.3646
 6393TIP3    H240815   6.599   4.933   8.491  0.0865  3.5603 -0.5576
 6394TIP3   OH240816   3.962   5.050   2.601  0.1725  0.1218 -0.1072
 6394TIP3    H140817   3.900   5.103   2.650  0.5729  1.5503 -1.0720
 6394TIP3    H240818   3.908   4.993   2.546 -0.2673 -0.1968  0.6535
 6395TIP3   OH240819   1.022   3.471   1.850 -0.1962 -0.3662  0.0785
 6395TIP3    H140820   1.060   3.555   1.822 -0.1522 -0.4411 -0.0897
 6395TIP3    H240821   0.970   3.493   1.927 -0.1530 -0.1898  0.0590
 6396TIP3   OH240822   1.615   1.426   0.641  0.0690  0.4646 -0.3844
 6396TIP3    H140823   1.636   1.416   0.549  0.3696  1.6941 -0.4702
 6396TIP3    H240824   1.636   1.342   0.681  1.0999  0.3217 -1.2181
 6397TIP3   OH240825   2.909   4.115   1.781  0.3334  0.4595  0.0558
 6397TIP3    H140826   2.855   4.132   1.859 -1.2527 -0.9691 -0.6567
 6397TIP3    H240827   2.906   4.196   1.731  0.2701  0.9563  0.8399
 6398TIP3   OH240828   1.482   5.872   1.968 -0.0843  0.7077  0.0723
 6398TIP3    H140829   1.474   5.865   2.064  0.7450  0.5677  0.1312
 6398TIP3    H240830   1.574   5.856   1.950 -0.2998  0.4019 -0.7898
 6399TIP3   OH240831   3.927   2.905   0.012  0.4993  0.2553  0.6202
 6399TIP3    H140832   3.857   2.955  -0.031 -0.7613 -1.9948 -0.0994
 6399TIP3    H240833   3.883   2.860   0.085  1.4779 -0.1605  0.9668
 6400TIP3   OH240834   2.431   4.483   2.683  0.0833  0.2942  0.1861
 6400TIP3    H140835   2.352   4.465   2.733  0.5821  2.0303  1.6996
 6400TIP3    H240836   2.493   4.518   2.747  1.9707 -0.6491 -1.0227
 6401TIP3   OH240837   5.960   6.138   1.419 -0.8784  0.2493  0.2984
 6401TIP3    H140838   5.926   6.148   1.508 -1.7611 -0.4909  0.0576
 6401TIP3    H240839   6.054   6.126   1.431 -1.0034  0.0044  1.1379
 6402TIP3   OH240840   0.880   4.774   2.570 -0.6949  0.3418 -0.4827
 6402TIP3    H140841   0.790   4.805   2.570 -0.2881  1.5959 -0.6092
 6402TIP3    H240842   0.926   4.835   2.512  0.2963 -0.0788 -0.1613
 6403TIP3   OH240843   6.323   3.367   8.140  0.8274 -0.4487 -0.3660
 6403TIP3    H140844   6.347   3.354   8.048  0.6093 -1.0345 -0.3399
 6403TIP3    H240845   6.314   3.279   8.175 -0.3904 -0.2356 -0.1174
 6404TIP3   OH240846   1.264   4.706   8.473 -0.3635 -0.2285  0.1792
 6404TIP3    H140847   1.224   4.752   8.399 -0.1593 -0.3353 -0.0001
 6404TIP3    H240848   1.353   4.687   8.444 -0.8135 -1.8529 -0.2413
 6405TIP3   OH240849   5.007   1.222   0.236  0.2944 -0.8703 -0.5511
 6405TIP3    H140850   5.101   1.207   0.249  0.6039  0.5871 -0.9797
 6405TIP3    H240851   4.997   1.233   0.142 -0.0330  0.5339 -0.3806
 6406TIP3   OH240852   5.313   4.561   2.931 -0.1829  0.1469 -0.0400
 6406TIP3    H140853   5.397   4.598   2.959  0.1529 -1.4843  1.3019
 6406TIP3    H240854   5.263   4.550   3.012 -1.4256  0.4088 -0.7451
 6407TIP3   OH240855   1.391   1.687   3.139  0.3062  0.7216 -0.0432
 6407TIP3    H140856   1.469   1.679   3.194  0.8470 -0.3354 -0.9089
 6407TIP3    H240857   1.363   1.596   3.125  0.8381  0.8547 -2.3804
 6408TIP3   OH240858   4.797   4.218   0.039 -0.0056  0.5668 -0.0935
 6408TIP3    H140859   4.853   4.159  -0.012  0.7624  0.9226  0.3272
 6408TIP3    H240860   4.725   4.240  -0.021  0.4031  0.2602 -0.7094
 6409TIP3   OH240861   0.415   5.951   0.693  0.0953 -0.3226 -0.2815
 6409TIP3    H140862   0.419   5.869   0.744  1.5643 -0.3736 -0.4251
 6409TIP3    H240863   0.445   6.018   0.755 -0.2971 -0.0306 -0.4116
 6410TIP3   OH240864   0.470   6.213   1.605  0.6019 -0.5773 -0.4910
 6410TIP3    H140865   0.458   6.167   1.688 -0.2562  0.3024 -0.1104
 6410TIP3    H240866   0.384   6.252   1.587  0.9737 -0.1728 -1.4380
 6411TIP3   OH240867   2.590   1.464   1.793 -0.5308  0.3635  0.0642
 6411TIP3    H140868   2.570   1.498   1.880  0.7178  1.9560 -0.2161
 6411TIP3    H240869   2.681   1.434   1.799 -1.0756 -1.4549 -0.1696
 6412TIP3   OH240870   3.554   3.278   8.299 -0.4349  0.2764  0.4307
 6412TIP3    H140871   3.491   3.215   8.264 -1.0081  0.6500  0.7712
 6412TIP3    H240872   3.503   3.358   8.313  0.3163  0.8655 -0.1390
 6413TIP3   OH240873   1.342   3.767   8.230  0.3021 -0.2158  0.5302
 6413TIP3    H140874   1.297   3.849   8.209  1.1127  0.1516  0.1810
 6413TIP3    H240875   1.328   3.756   8.324  1.3626  1.0791  0.8769
 6414TIP3   OH240876   0.286   0.481   0.026 -0.5096 -0.1555  0.2822
 6414TIP3    H140877   0.234   0.558   0.001 -1.1273 -0.7220 -0.2005
 6414TIP3    H240878   0.239   0.407  -0.011  1.4443 -0.5952 -1.5629
 6415TIP3   OH240879   5.484   0.181   7.573  0.6738 -0.0536 -0.5248
 6415TIP3    H140880   5.394   0.206   7.595  1.3406  1.3570  0.8174
 6415TIP3    H240881   5.529   0.264   7.558  1.5970 -0.7690 -1.9150
 6416TIP3   OH240882   2.495   4.995   2.531  0.4603  0.0389  0.2322
 6416TIP3    H140883   2.403   4.978   2.552  0.0836  1.4041 -0.1998
 6416TIP3    H240884   2.517   5.074   2.580  1.4059 -0.2556  0.3114
 6417TIP3   OH240885   1.785   1.865   1.059  0.2429  0.3884 -0.1953
 6417TIP3    H140886   1.741   1.780   1.055  0.4716  0.2528  0.1487
 6417TIP3    H240887   1.875   1.847   1.033  0.9894  0.0312  2.3763
 6418TIP3   OH240888   5.079   2.788   1.915 -0.2341 -0.3694  0.0122
 6418TIP3    H140889   5.023   2.815   1.843  0.5355 -1.9721 -1.2651
 6418TIP3    H240890   5.123   2.709   1.883 -2.1867 -3.0741  3.3496
 6419TIP3   OH240891   0.408   4.916   1.673 -0.0836 -0.2245  0.2898
 6419TIP3    H140892   0.377   4.926   1.583  1.3620  1.2973 -0.0934
 6419TIP3    H240893   0.450   4.830   1.674  1.7402  0.5764 -1.1383
 6420TIP3   OH240894   5.310   4.343   1.533 -0.1863 -0.2736  0.1256
 6420TIP3    H140895   5.383   4.281   1.539  0.4581  0.4324 -0.2033
 6420TIP3    H240896   5.344   4.414   1.478 -1.2680 -0.1330 -0.3780
 6421TIP3   OH240897   4.647   5.464   0.670 -0.2999  0.1483 -0.3634
 6421TIP3    H140898   4.697   5.511   0.604 -0.8982 -0.0714 -0.9845
 6421TIP3    H240899   4.650   5.520   0.747  2.1992 -0.5547  0.1222
 6422TIP3   OH240900   1.149   4.249   2.328 -0.0080 -0.2982  0.0863
 6422TIP3    H140901   1.143   4.307   2.252 -0.4967 -1.0997 -0.4995
 6422TIP3    H240902   1.091   4.175   2.307 -2.0767  0.5864  2.2540
 6423TIP3   OH240903   0.811   2.833   1.482 -0.4397 -0.1968 -0.0862
 6423TIP3    H140904   0.720   2.850   1.506  0.3882  3.4930  1.0705
 6423TIP3    H240905   0.860   2.907   1.517  3.3655 -2.8781  0.9083
 6424TIP3   OH240906   4.215   6.125   8.780  0.3345  0.0942 -0.5110
 6424TIP3    H140907   4.198   6.201   8.725  0.1991 -0.5257 -1.3403
 6424TIP3    H240908   4.286   6.078   8.736  0.1048 -0.5033 -0.2557
 6425TIP3   OH240909   1.450   0.452   8.980  0.0847 -0.0887  0.2300
 6425TIP3    H140910   1.475   0.517   8.914  1.1199  0.5746  1.2286
 6425TIP3    H240911   1.361   0.426   8.956  1.1138 -1.3768 -2.5817
 6426TIP3   OH240912   3.939   4.374   0.442  0.0014  0.3925 -0.1045
 6426TIP3    H140913   4.008   4.389   0.377  1.7224  1.1151  1.8013
 6426TIP3    H240914   3.914   4.461   0.472  0.9407  0.0331  1.8765
 6427TIP3   OH240915   1.155   2.337   8.090  0.3496  0.3244  0.2252
 6427TIP3    H140916   1.129   2.246   8.097  0.5161  0.3654  1.8128
 6427TIP3    H240917   1.230   2.337   8.031  0.6035 -0.6333  0.5401
 6428TIP3   OH240918   5.754   0.189   7.748 -0.1184  0.8162  0.5909
 6428TIP3    H140919   5.698   0.238   7.687 -0.5357  0.4897  0.7133
 6428TIP3    H240920   5.843   0.219   7.727 -0.0577 -0.5247 -1.3515
 6429TIP3   OH240921   5.580   1.061   3.125  0.7135  0.3400  0.3206
 6429TIP3    H140922   5.664   1.026   3.097  1.6572  2.2383  0.5590
 6429TIP3    H240923   5.602   1.121   3.197 -0.8217  1.0285  0.2570
 6430TIP3   OH240924   5.518   6.220   8.871  0.3985 -0.0225 -0.0789
 6430TIP3    H140925   5.463   6.208   8.948 -0.0795  0.6890 -0.3047
 6430TIP3    H240926   5.536   6.314   8.868  1.9362 -0.2771  0.1933
 6431TIP3   OH240927   3.680   0.200   8.118  0.1904  0.4706 -0.0815
 6431TIP3    H140928   3.587   0.189   8.136  0.2204 -1.1158 -0.6969
 6431TIP3    H240929   3.717   0.232   8.200 -0.6024 -0.7031  0.7631
 6432TIP3   OH240930   4.083   3.451   1.859 -0.0849  0.1600  0.7737
 6432TIP3    H140931   4.095   3.374   1.914 -1.2071  0.7826  1.9351
 6432TIP3    H240932   4.138   3.519   1.899  1.5220 -0.2052 -0.6965
 6433TIP3   OH240933   3.781   5.277   2.653  0.6572  0.4578 -0.6621
 6433TIP3    H140934   3.802   5.361   2.695  1.4828  0.1298 -0.3890
 6433TIP3    H240935   3.693   5.256   2.684 -0.4030  2.1735 -2.2860
 6434TIP3   OH240936   4.866   4.211   8.028  0.9985  0.1273  0.5784
 6434TIP3    H140937   4.961   4.227   8.031  0.9863  0.4303 -0.4274
 6434TIP3    H240938   4.827   4.297   8.046  0.9218  0.2836 -0.3117
 6435TIP3   OH240939   3.897   1.742   1.002 -0.2979 -0.4904  0.3493
 6435TIP3    H140940   3.988   1.713   1.010  0.4660  1.4624 -0.6246
 6435TIP3    H240941   3.902   1.826   0.956 -2.6083 -0.3456  0.2264
 6436TIP3   OH240942   6.580   4.775   2.394  0.5942  0.5901 -0.1025
 6436TIP3    H140943   6.563   4.869   2.397 -0.0036  0.5060 -0.5662
 6436TIP3    H240944   6.674   4.768   2.373  0.4671  1.0877 -0.8679
 6437TIP3   OH240945   3.913   2.563   1.061 -0.0428 -0.3147 -0.1916
 6437TIP3    H140946   3.832   2.581   1.108 -0.5470  0.8503 -1.4619
 6437TIP3    H240947   3.977   2.621   1.101 -0.2798  0.1025 -0.4152
 6438TIP3   OH240948   5.179   0.803   0.972  0.3472  0.0294 -0.3016
 6438TIP3    H140949   5.089   0.836   0.978  0.4310  0.2047 -0.0058
 6438TIP3    H240950   5.170   0.708   0.968  0.1120  0.0733 -0.9760
 6439TIP3   OH240951   1.117   0.640   1.431  0.2316  0.8430  0.4047
 6439TIP3    H140952   1.030   0.627   1.392  0.4181 -0.7193  0.4177
 6439TIP3    H240953   1.167   0.564   1.402  0.9310  0.5725  2.1875
 6440TIP3   OH240954   0.106   1.584   8.200  0.0640  0.0648 -0.0271
 6440TIP3    H140955   0.075   1.495   8.186  0.0298  0.0800 -0.0475
 6440TIP3    H240956   0.045   1.621   8.264 -2.2101  1.2983 -2.6983
 6441TIP3   OH240957   3.749   2.452   7.491 -0.3585 -0.0489  0.0481
 6441TIP3    H140958   3.679   2.451   7.557 -1.0623 -0.3524 -0.6919
 6441TIP3    H240959   3.819   2.501   7.533 -0.9048  0.0251  0.9176
 6442TIP3   OH240960   2.036   5.190   1.025  0.0086  0.2692  0.3351
 6442TIP3    H140961   2.131   5.203   1.014 -0.3336  1.8679 -1.3199
 6442TIP3    H240962   2.027   5.143   1.108  2.1586  1.4853  1.3308
 6443TIP3   OH240963   0.749   3.000   2.864 -0.1872 -0.1455 -0.5459
 6443TIP3    H140964   0.670   3.025   2.817 -0.0003  0.5878 -0.4767
 6443TIP3    H240965   0.721   2.929   2.923 -0.5019 -0.7879 -1.4585
 6444TIP3   OH240966   5.948   4.710   1.738  0.1927 -0.1200  0.5114
 6444TIP3    H140967   5.876   4.764   1.707  0.1003  0.0193  0.9720
 6444TIP3    H240968   5.907   4.636   1.782  0.3248 -0.3324  0.2824
 6445TIP3   OH240969   4.393   3.785   8.158  0.8072 -0.3579  0.6619
 6445TIP3    H140970   4.467   3.730   8.136  0.3982 -1.0177  0.9007
 6445TIP3    H240971   4.365   3.822   8.074  2.6391  1.5376  0.8020
 6446TIP3   OH240972   2.346   2.972   2.816 -0.1300  0.4270  0.2150
 6446TIP3    H140973   2.321   2.982   2.908  0.5546  0.8598  0.3617
 6446TIP3    H240974   2.411   3.040   2.801  0.5230 -0.2876 -0.3062
 6447TIP3   OH240975   1.682   2.953   0.341  0.1235 -0.1443  0.5800
 6447TIP3    H140976   1.764   2.996   0.314 -0.7363  1.4531  0.4205
 6447TIP3    H240977   1.615   2.994   0.287 -0.7676 -1.6617  0.4925
 6448TIP3   OH240978   2.683   1.835   2.542  0.0974  0.2165 -0.1894
 6448TIP3    H140979   2.650   1.921   2.514  0.8689  0.4028 -0.5434
 6448TIP3    H240980   2.774   1.834   2.514  0.1395 -0.6626 -0.0459
 6449TIP3   OH240981   5.254   6.494   1.838 -0.4954  0.0909  0.2440
 6449TIP3    H140982   5.272   6.552   1.911 -0.5215  1.4701 -0.7982
 6449TIP3    H240983   5.188   6.540   1.786 -1.1757 -1.2729 -0.1652
 6450TIP3   OH240984   4.674   4.570   0.088  0.3757  0.1785 -0.1065
 6450TIP3    H140985   4.602   4.633   0.100  0.9395  0.9826 -0.7914
 6450TIP3    H240986   4.662   4.538  -0.002  1.7869  1.5572 -0.8456
 6451TIP3   OH240987   3.445   1.772   3.167 -0.2777 -0.0957  0.6987
 6451TIP3    H140988   3.418   1.860   3.194 -0.3884 -0.0964  0.5905
 6451TIP3    H240989   3.516   1.750   3.226 -0.2211  0.0853  0.6994
 6452TIP3   OH240990   1.333   6.725   8.429 -0.3389  0.1007  0.3174
 6452TIP3    H140991   1.344   6.762   8.517 -0.1023  0.5745  0.0936
 6452TIP3    H240992   1.239   6.726   8.414 -0.2889  1.5945 -0.0826
 6453TIP3   OH240993   4.772   2.294   1.802 -0.3511 -0.4774  0.4114
 6453TIP3    H140994   4.752   2.288   1.708  0.5364  0.0714  0.1698
 6453TIP3    H240995   4.840   2.361   1.807  0.6557 -1.5227  1.2933
 6454TIP3   OH240996   3.090   5.148   1.449  0.2648 -0.1014  0.2272
 6454TIP3    H140997   3.160   5.113   1.504 -0.0573 -0.1785  0.5968
 6454TIP3    H240998   3.131   5.219   1.400  0.1268  1.2594  1.9633
 6455TIP3   OH240999   0.240   3.784   0.688  0.1545 -0.1187  0.1435
 6455TIP3    H141000   0.300   3.805   0.759  0.1147  0.5064  0.0035
 6455TIP3    H241001   0.153   3.799   0.725  0.1504  3.0261 -0.7996
 6456TIP3   OH241002   2.632   6.218   1.477 -0.4434 -0.0449 -0.8587
 6456TIP3    H141003   2.721   6.226   1.441 -0.0998  0.3896  0.0311
 6456TIP3    H241004   2.634   6.135   1.525  0.4865  1.3343  1.6939
 6457TIP3   OH241005   2.896   2.198   0.098 -0.1883 -0.6547 -0.1020
 6457TIP3    H141006   2.878   2.288   0.072 -0.4100 -0.5722  0.3425
 6457TIP3    H241007   2.991   2.190   0.093 -0.1654 -0.3823 -0.0982
 6458TIP3   OH241008   3.687   6.460   8.078 -0.1329 -0.2243 -0.0257
 6458TIP3    H141009   3.706   6.380   8.127 -1.7642 -0.5698  0.0893
 6458TIP3    H241010   3.681   6.528   8.145  0.5151 -0.1331 -0.0519
 6459TIP3   OH241011   0.421   3.519   8.652 -0.6092 -0.2339 -0.1955
 6459TIP3    H141012   0.388   3.562   8.572 -1.5845 -0.7732 -0.1019
 6459TIP3    H241013   0.512   3.499   8.633 -0.6991  0.0889 -0.9971
 6460TIP3   OH241014   6.717   4.430   2.155 -0.1293 -0.0582  0.3646
 6460TIP3    H141015   6.706   4.396   2.066  0.2985  0.1385  0.2385
 6460TIP3    H241016   6.730   4.352   2.208 -1.6249 -0.2862  0.4533
 6461TIP3   OH241017   6.715   0.979   1.915 -0.0447 -0.5618 -0.2464
 6461TIP3    H141018   6.793   0.956   1.864 -0.1028 -1.3332  0.0020
 6461TIP3    H241019   6.750   1.005   2.001  0.3342  3.5964 -1.4327
 6462TIP3   OH241020   0.793   1.772   8.597 -0.1685  0.8846 -0.0698
 6462TIP3    H141021   0.871   1.725   8.625  0.4452  2.0116  0.1791
 6462TIP3    H241022   0.727   1.751   8.664 -0.4956 -1.0535 -0.9332
 6463TIP3   OH241023   4.531   2.872   3.020 -0.0721 -0.2022  0.2951
 6463TIP3    H141024   4.515   2.910   3.106  0.7067  0.7578  0.0428
 6463TIP3    H241025   4.505   2.941   2.958  0.6938 -0.3444 -0.1985
 6464TIP3   OH241026   1.759   4.153   1.527  0.9454 -0.1005  0.0075
 6464TIP3    H141027   1.729   4.190   1.610  2.4818 -1.2367  1.1220
 6464TIP3    H241028   1.696   4.185   1.462 -0.7397  0.1946  1.7122
 6465TIP3   OH241029   4.609   2.337   8.899 -0.3060  0.0138  0.1468
 6465TIP3    H141030   4.630   2.372   8.985 -1.8813 -0.0073  0.5584
 6465TIP3    H241031   4.579   2.248   8.916 -0.7256  0.0436 -0.4127
 6466TIP3   OH241032   1.777   6.436   1.292 -0.4490 -0.3981  0.6592
 6466TIP3    H141033   1.789   6.376   1.218  0.6400 -1.5923  1.7364
 6466TIP3    H241034   1.867   6.457   1.320 -0.8188 -0.5680  2.0678
 6467TIP3   OH241035   3.509   3.637   7.418  0.1087  0.2847  0.4135
 6467TIP3    H141036   3.563   3.565   7.452 -1.0489 -0.2810  1.1415
 6467TIP3    H241037   3.429   3.633   7.470  0.4080  2.7798  1.2033
 6468TIP3   OH241038   2.778   4.115   0.788 -0.3413  0.5569  0.2750
 6468TIP3    H141039   2.699   4.170   0.787 -0.8946 -0.2005  0.6161
 6468TIP3    H241040   2.750   4.033   0.748  0.2662  0.2636  0.4414
 6469TIP3   OH241041   1.345   3.201   1.507  0.0414  0.5959 -0.1167
 6469TIP3    H141042   1.401   3.144   1.454 -0.2541  0.8815 -0.7433
 6469TIP3    H241043   1.389   3.205   1.592  0.8476  0.6301 -0.5264
 6470TIP3   OH241044   1.236   0.381   8.620  0.1369 -0.0144 -0.2327
 6470TIP3    H141045   1.319   0.409   8.583 -0.1298 -0.9997 -1.6323
 6470TIP3    H241046   1.213   0.450   8.683  1.3065  0.9769 -0.8630
 6471TIP3   OH241047   2.529   1.385   0.555 -0.1186 -0.5195 -0.6341
 6471TIP3    H141048   2.456   1.376   0.495  1.4208 -1.2415 -2.5167
 6471TIP3    H241049   2.501   1.340   0.635 -1.1035 -2.2647 -1.9019
 6472TIP3   OH241050   0.598   2.940   1.188 -0.0900  0.2847 -0.2541
 6472TIP3    H141051   0.569   3.030   1.199  0.6496  0.3969  1.0246
 6472TIP3    H241052   0.542   2.904   1.120  0.4342  2.0728 -1.7049
 6473TIP3   OH241053   0.890   5.095   8.172  0.6193  0.1943  0.3194
 6473TIP3    H141054   0.887   5.110   8.077  0.7892 -4.0342 -0.5502
 6473TIP3    H241055   0.799   5.099   8.200 -0.1579 -3.2933 -1.1532
 6474TIP3   OH241056   5.425   5.941   1.573  0.0993 -0.1393  0.1729
 6474TIP3    H141057   5.458   5.959   1.485  1.9591 -2.4888  0.2781
 6474TIP3    H241058   5.502   5.948   1.629 -0.7806 -0.0660  1.4031
 6475TIP3   OH241059   1.579   4.120   1.864  0.4689  0.3947  0.2987
 6475TIP3    H141060   1.553   4.043   1.813 -0.3426  1.3562 -0.7767
 6475TIP3    H241061   1.577   4.089   1.955 -0.1692 -0.7665 -0.0854
 6476TIP3   OH241062   3.652   6.032   0.601  0.5646  0.4597  0.4086
 6476TIP3    H141063   3.563   6.062   0.617  0.9782  1.4573  0.9064
 6476TIP3    H241064   3.665   6.044   0.507  0.3760  0.8649  0.4342
 6477TIP3   OH241065   2.111   0.298   0.903  0.0869 -0.4869  0.3938
 6477TIP3    H141066   2.193   0.253   0.920  0.1028 -0.6533 -0.1095
 6477TIP3    H241067   2.045   0.246   0.949 -0.2178 -2.3120 -1.9102
 6478TIP3   OH241068   3.643   5.626   7.516 -0.2036  0.5711  0.2392
 6478TIP3    H141069   3.658   5.581   7.433 -0.8248 -1.8842  1.3561
 6478TIP3    H241070   3.728   5.625   7.560 -0.0439  1.1982 -0.0498
 6479TIP3   OH241071   2.859   6.364   3.261 -0.0222  0.4067 -0.1520
 6479TIP3    H141072   2.872   6.286   3.208  0.1419  0.6400 -0.4639
 6479TIP3    H241073   2.937   6.417   3.245  0.9527 -0.3407  1.8094
 6480TIP3   OH241074   5.418   2.228   7.374 -0.2676  0.0404 -0.4058
 6480TIP3    H141075   5.403   2.242   7.467 -0.6600 -0.8215 -0.3356
 6480TIP3    H241076   5.331   2.215   7.337 -0.2354  1.5558 -1.1115
 6481TIP3   OH241077   0.630   2.304   0.800 -0.2063 -0.7343 -0.0854
 6481TIP3    H141078   0.574   2.382   0.802  1.6722  0.7083  0.0387
 6481TIP3    H241079   0.597   2.252   0.728 -2.4479 -0.5721  0.7591
 6482TIP3   OH241080   2.268   0.293   0.662 -0.2560 -0.5699  0.0044
 6482TIP3    H141081   2.255   0.382   0.694 -1.7460 -1.3258  1.6748
 6482TIP3    H241082   2.205   0.240   0.710  1.5198 -2.7727  0.1184
 6483TIP3   OH241083   2.226   2.963   2.557 -0.1921 -0.3631  0.4473
 6483TIP3    H141084   2.241   2.966   2.652 -1.4802 -1.1677  0.7038
 6483TIP3    H241085   2.171   2.886   2.544 -0.5546  0.0917 -0.8855
 6484TIP3   OH241086   4.188   3.315   8.331  0.7429 -0.0756 -0.3395
 6484TIP3    H141087   4.219   3.405   8.317  0.7878 -0.0986 -0.3878
 6484TIP3    H241088   4.162   3.284   8.245  0.1186  0.1137 -0.2182
 6485TIP3   OH241089   6.280   5.163   1.767  0.5246  0.5095  0.2059
 6485TIP3    H141090   6.205   5.107   1.784 -0.8160  2.0970 -0.2778
 6485TIP3    H241091   6.327   5.119   1.695 -0.9101  0.3855 -0.6828
 6486TIP3   OH241092   0.419   4.574   0.284  0.1077 -0.3152 -0.0208
 6486TIP3    H141093   0.472   4.587   0.206 -1.0137 -0.3837 -0.8140
 6486TIP3    H241094   0.435   4.483   0.309 -1.9327 -1.3222 -2.0630
 6487TIP3   OH241095   2.039   4.557   0.598 -0.1762  0.1337  0.1585
 6487TIP3    H141096   2.108   4.623   0.604 -0.7560  0.9855 -1.7849
 6487TIP3    H241097   2.086   4.473   0.596  0.5828  0.4535  2.2444
 6488TIP3   OH241098   3.081   3.324   1.790 -0.2992 -0.1699 -0.3207
 6488TIP3    H141099   3.108   3.342   1.880 -0.9031  1.5658 -0.4454
 6488TIP3    H241100   2.985   3.322   1.793 -0.3311  0.0569 -0.9497
 6489TIP3   OH241101   4.306   5.553   1.497  0.2276  0.5905 -0.5656
 6489TIP3    H141102   4.378   5.601   1.456  0.4575  1.2572  0.5801
 6489TIP3    H241103   4.230   5.610   1.486  0.1457  0.4719 -0.6225
 6490TIP3   OH241104   4.540   6.694   7.950  0.4089 -0.2930 -0.1363
 6490TIP3    H141105   4.459   6.662   7.991  0.1439  1.8302  1.1960
 6490TIP3    H241106   4.568   6.765   8.007  0.4359  2.4449 -3.2635
 6491TIP3   OH241107   3.970   3.680   7.428 -0.0756 -0.0636 -0.3301
 6491TIP3    H141108   4.028   3.698   7.353  1.6259 -1.0812  0.6864
 6491TIP3    H241109   3.898   3.629   7.390  0.7452 -0.5457 -1.3040
 6492TIP3   OH241110   3.041   3.002   1.962 -0.1970  0.0962 -0.3190
 6492TIP3    H141111   3.025   2.990   2.056  1.6701  1.4639  0.2300
 6492TIP3    H241112   3.023   2.916   1.924  1.8481 -1.3736  1.7612
 6493TIP3   OH241113   5.979   5.857   0.773  0.3614 -0.6849 -0.1753
 6493TIP3    H141114   5.939   5.941   0.793  0.8117 -0.3155 -0.7852
 6493TIP3    H241115   5.991   5.815   0.858 -0.2886 -0.3297  0.0931
 6494TIP3   OH241116   3.159   4.045   8.407 -0.2234  0.3992  0.6825
 6494TIP3    H141117   3.074   4.084   8.387 -0.3502 -0.0662  0.3028
 6494TIP3    H241118   3.188   4.092   8.486 -1.4534 -0.3720  1.6369
 6495TIP3   OH241119   4.350   2.679   8.954  0.7312  0.1197  0.9679
 6495TIP3    H141120   4.395   2.597   8.937 -0.9305 -0.3898 -1.4617
 6495TIP3    H241121   4.261   2.654   8.980  0.6273  1.1473  1.7033
 6496TIP3   OH241122   2.796   4.033   3.678  1.0193  0.2464 -0.2370
 6496TIP3    H141123   2.877   4.083   3.668  1.1500  0.3379  1.0829
 6496TIP3    H241124   2.749   4.077   3.748  0.8773 -1.1239  0.5833
 6497TIP3   OH241125   4.226   1.832   8.571  0.0083 -0.5958 -0.0596
 6497TIP3    H141126   4.305   1.785   8.547  0.7520  0.5120  0.1259
 6497TIP3    H241127   4.206   1.803   8.660 -0.7066 -2.0393 -0.6681
 6498TIP3   OH241128   6.053   3.341   3.475 -0.2262  0.3036  0.4432
 6498TIP3    H141129   6.089   3.391   3.548  1.1904  2.3001 -1.5112
 6498TIP3    H241130   6.109   3.263   3.469 -0.1378  0.2977  1.2260
 6499TIP3   OH241131   5.567   3.319   1.725 -0.0974 -0.0742 -0.3431
 6499TIP3    H141132   5.496   3.375   1.756 -0.5342 -1.2266  0.8922
 6499TIP3    H241133   5.569   3.247   1.789  1.1118 -0.9078 -1.2794
 6500TIP3   OH241134   3.121   4.650   1.312  0.5165  0.1612  0.6559
 6500TIP3    H141135   3.031   4.672   1.290  0.2123 -1.9213 -0.4214
 6500TIP3    H241136   3.166   4.644   1.228  1.5859  0.7832  1.1586
 6501TIP3   OH241137   3.659   3.667   9.043  0.5735  0.0619 -0.4704
 6501TIP3    H141138   3.736   3.686   9.097  0.1914  1.5998 -0.4047
 6501TIP3    H241139   3.644   3.574   9.055  3.4637 -0.7119 -1.8548
 6502TIP3   OH241140   2.768   4.640   7.365 -0.2913 -0.2812  0.8952
 6502TIP3    H141141   2.717   4.709   7.321 -2.2173 -2.3606 -0.3418
 6502TIP3    H241142   2.804   4.683   7.442  0.3078  2.6418 -0.8307
 6503TIP3   OH241143   5.796   0.173   0.241 -0.0299 -0.0840 -0.1819
 6503TIP3    H141144   5.795   0.141   0.151  0.0449 -1.4009  0.2588
 6503TIP3    H241145   5.868   0.236   0.244 -0.2963  0.2725 -1.1304
 6504TIP3   OH241146   1.125   2.582   0.433  0.1799 -0.1168  0.1702
 6504TIP3    H141147   1.179   2.627   0.498 -0.3540 -1.3773  1.5419
 6504TIP3    H241148   1.187   2.529   0.383  0.9716  2.7667 -2.1504
 6505TIP3   OH241149   4.234   3.364   2.098 -0.2246  0.0700 -0.4227
 6505TIP3    H141150   4.281   3.290   2.136 -1.1839 -0.8589 -1.0043
 6505TIP3    H241151   4.161   3.379   2.158 -0.0665  0.5164 -0.3400
 6506TIP3   OH241152   4.619   5.356   2.208 -0.2130 -0.4783 -0.1201
 6506TIP3    H141153   4.639   5.283   2.267 -0.6997  0.4638  1.2710
 6506TIP3    H241154   4.682   5.347   2.136  1.0786 -1.0986  1.0421
 6507TIP3   OH241155   1.680   2.051   8.656  0.4628  0.6463 -0.2414
 6507TIP3    H141156   1.724   2.055   8.740 -0.6520  2.1435  0.3158
 6507TIP3    H241157   1.749   2.070   8.592  1.0850  0.6369  0.4109
 6508TIP3   OH241158   1.514   6.231   8.501 -0.2941  1.0671 -0.1426
 6508TIP3    H141159   1.523   6.242   8.596  2.0714  2.6905 -0.4889
 6508TIP3    H241160   1.432   6.182   8.491  0.0776 -0.3723  2.7808
 6509TIP3   OH241161   1.506   2.443   2.334 -0.4162 -0.3442 -0.4520
 6509TIP3    H141162   1.576   2.502   2.362 -1.3699  1.5961 -1.9096
 6509TIP3    H241163   1.513   2.367   2.392  1.4205  0.8165  0.9267
 6510TIP3   OH241164   2.203   6.629   7.648 -0.1208 -0.1652 -0.0121
 6510TIP3    H141165   2.295   6.653   7.653  0.1772 -1.5757  2.2177
 6510TIP3    H241166   2.202   6.539   7.617 -0.6135 -0.6832  1.4088
 6511TIP3   OH241167   4.737   3.072   0.150 -0.0631 -0.1781 -0.4787
 6511TIP3    H141168   4.745   3.161   0.117 -0.5181  0.8273  1.9239
 6511TIP3    H241169   4.680   3.028   0.087  0.8874  0.9267 -2.1895
 6512TIP3   OH241170   2.289   0.884   1.597 -0.4758 -0.2130  0.5326
 6512TIP3    H141171   2.320   0.878   1.506 -2.5793  0.6905 -0.3091
 6512TIP3    H241172   2.368   0.872   1.650  0.8611 -0.4845 -1.4053
 6513TIP3   OH241173   4.047   1.077   8.690 -0.5621 -0.5210 -0.0387
 6513TIP3    H141174   3.964   1.080   8.737  0.0628  0.0981  1.0808
 6513TIP3    H241175   4.075   0.985   8.697 -0.2384 -0.3478  1.2899
 6514TIP3   OH241176   3.277   4.661   0.550 -0.3372 -0.0247  0.2158
 6514TIP3    H141177   3.205   4.602   0.574  1.2326 -2.0484  0.2031
 6514TIP3    H241178   3.271   4.732   0.614 -1.9265 -0.4812  0.6400
 6515TIP3   OH241179   0.411   5.982   8.847 -0.3360  0.5091 -0.0892
 6515TIP3    H141180   0.484   6.020   8.799 -0.3770  0.6183 -0.0650
 6515TIP3    H241181   0.337   6.040   8.829 -0.7416 -0.3098 -1.1490
 6516TIP3   OH241182   1.708   2.690   8.720  0.1495 -0.7773  0.0159
 6516TIP3    H141183   1.749   2.620   8.771 -1.7721 -1.0822  1.2241
 6516TIP3    H241184   1.662   2.645   8.649  1.5136 -0.4578 -1.1279
 6517TIP3   OH241185   1.079   5.251   8.376 -0.2939  0.3442 -0.2408
 6517TIP3    H141186   1.015   5.238   8.306 -1.4922 -1.2418  1.0515
 6517TIP3    H241187   1.162   5.266   8.331 -1.2483  0.6632 -1.9772
 6518TIP3   OH241188   4.967   3.883   8.375  0.1899 -0.2339  0.0828
 6518TIP3    H141189   4.941   3.796   8.344  1.6669 -0.2863 -1.1135
 6518TIP3    H241190   4.889   3.916   8.420 -0.4791 -2.0734  0.3858
 6519TIP3   OH241191   0.513   1.510   8.998 -0.5348  0.0174  0.0482
 6519TIP3    H141192   0.520   1.599   9.033 -1.2094  0.4145 -0.8005
 6519TIP3    H241193   0.480   1.458   9.071 -2.6846  0.9770 -0.1613
 6520TIP3   OH241194   3.081   5.890   8.640  0.0530 -0.2014 -0.5075
 6520TIP3    H141195   3.065   5.979   8.611 -0.5802 -0.4827 -1.0381
 6520TIP3    H241196   3.047   5.887   8.730 -0.4146 -0.0576 -0.6801
 6521TIP3   OH241197   1.528   2.005   3.046 -0.0740  0.4553 -0.3145
 6521TIP3    H141198   1.502   1.924   3.003 -0.9586 -0.1565  1.2793
 6521TIP3    H241199   1.457   2.067   3.028  0.7326  0.9981 -1.7646
 6522TIP3   OH241200   4.746   1.865   2.961 -0.2797 -0.1887  0.7861
 6522TIP3    H141201   4.748   1.959   2.942 -1.2479  0.0353  1.7243
 6522TIP3    H241202   4.742   1.859   3.056 -0.4960 -1.1789  0.7317
 6523TIP3   OH241203   2.459   2.401   3.486  0.1467 -0.4271  0.7863
 6523TIP3    H141204   2.401   2.329   3.462 -1.0709 -0.0211  2.3289
 6523TIP3    H241205   2.547   2.369   3.467 -0.5082 -1.1703 -1.3501
 6524TIP3   OH241206   1.529   2.813   2.137  0.7332  1.1917 -0.4067
 6524TIP3    H141207   1.538   2.791   2.230  2.7811  1.0696 -0.5830
 6524TIP3    H241208   1.612   2.785   2.098 -0.5036  0.1525 -2.5155
 6525TIP3   OH241209   3.975   6.038   0.701  0.5111 -0.0989  0.0179
 6525TIP3    H141210   4.041   6.087   0.653  2.1954 -1.2811  0.9732
 6525TIP3    H241211   4.001   5.946   0.690 -0.5453 -0.5483  1.0240
 6526TIP3   OH241212   3.458   6.350   3.097 -0.3947  0.3079 -0.8950
 6526TIP3    H141213   3.424   6.385   3.179 -0.6767 -0.1085 -0.8296
 6526TIP3    H241214   3.411   6.397   3.028 -1.3117 -0.4480 -0.8065
 6527TIP3   OH241215   5.553   4.871   0.770 -0.3974  0.4930 -0.3292
 6527TIP3    H141216   5.589   4.955   0.798  0.2780 -0.3097  1.3252
 6527TIP3    H241217   5.629   4.822   0.738 -0.6960  0.2849 -0.7274
 6528TIP3   OH241218   1.346   5.427   1.057 -0.2899  0.0345  0.0221
 6528TIP3    H141219   1.424   5.415   1.002  0.7193 -1.2503  1.6235
 6528TIP3    H241220   1.379   5.422   1.147 -1.7576  2.7861  0.8387
 6529TIP3   OH241221   3.958   0.331   1.603 -0.9133  0.1879  0.5963
 6529TIP3    H141222   4.005   0.290   1.675  0.3200  0.3634 -0.0930
 6529TIP3    H241223   3.866   0.330   1.632 -0.5439 -0.3874  1.8467
 6530TIP3   OH241224   2.918   6.281   1.418  0.1328 -0.1867  0.6735
 6530TIP3    H141225   2.957   6.244   1.339  0.6652  0.6687  0.5170
 6530TIP3    H241226   2.987   6.274   1.485  1.5978  3.4847 -0.1988
 6531TIP3   OH241227   4.803   0.190   0.089  0.5131 -0.2776 -0.1434
 6531TIP3    H141228   4.710   0.187   0.111  0.4136  0.7276 -0.3979
 6531TIP3    H241229   4.830   0.279   0.111  1.3336 -0.4484 -0.4238
 6532TIP3   OH241230   3.616   6.275   8.502  0.1060 -0.2438  0.3217
 6532TIP3    H141231   3.565   6.263   8.422 -0.5220  0.2908  0.6377
 6532TIP3    H241232   3.624   6.369   8.512  0.3599 -0.3120  0.7807
 6533TIP3   OH241233   0.230   6.267   1.440 -0.5374 -0.1676  0.2517
 6533TIP3    H141234   0.243   6.265   1.345  1.3161  0.8617  0.4272
 6533TIP3    H241235   0.218   6.360   1.460 -1.0254 -0.3912  1.0326
 6534TIP3   OH241236   1.065   6.143   0.372  0.2762  0.1772  0.3267
 6534TIP3    H141237   1.070   6.131   0.467 -0.7085 -1.3831  0.2139
 6534TIP3    H241238   1.027   6.231   0.361 -2.1685 -0.6476  1.4521
 6535TIP3   OH241239   6.613   5.541   2.275  0.1214 -0.0397 -0.3270
 6535TIP3    H141240   6.573   5.581   2.351 -0.9860 -2.0908  0.2275
 6535TIP3    H241241   6.595   5.447   2.284  0.9815 -0.4783 -2.4998
 6536TIP3   OH241242   0.236   6.295   2.634  0.3349 -0.2398  0.1613
 6536TIP3    H141243   0.224   6.223   2.572 -3.2695  0.9302 -0.7570
 6536TIP3    H241244   0.246   6.372   2.579 -0.7284  0.5360  1.0144
 6537TIP3   OH241245   4.715   3.332   2.529 -0.4215 -0.2671  0.1694
 6537TIP3    H141246   4.747   3.413   2.569 -0.5656 -0.6304  1.0391
 6537TIP3    H241247   4.659   3.361   2.457 -0.6928  0.4154  0.6453
 6538TIP3   OH241248   3.975   5.832   8.216  0.4245  0.4788  0.0405
 6538TIP3    H141249   3.991   5.909   8.161  0.2333  1.5876  1.4790
 6538TIP3    H241250   4.061   5.812   8.255  0.2541  0.6877  0.5408
 6539TIP3   OH241251   0.972   5.611   1.268  0.5018 -0.2514 -0.5646
 6539TIP3    H141252   0.947   5.602   1.360  0.6301 -0.8223 -0.5828
 6539TIP3    H241253   0.902   5.663   1.229  0.2094 -0.3998 -0.2393
 6540TIP3   OH241254   4.113   3.250   1.352 -0.1249 -0.4094 -0.0587
 6540TIP3    H141255   4.104   3.313   1.424 -1.5149 -2.3796  1.5834
 6540TIP3    H241256   4.139   3.168   1.394  0.2120 -1.3316 -1.9633
 6541TIP3   OH241257   5.140   6.641   1.538  0.0431 -0.3366  0.4172
 6541TIP3    H141258   5.227   6.677   1.553  0.3467  0.3210 -2.3964
 6541TIP3    H241259   5.155   6.565   1.481 -1.1778 -0.5559  0.3626
 6542TIP3   OH241260   1.892   5.785   2.591  0.3864 -0.8119 -0.1181
 6542TIP3    H141261   1.803   5.820   2.592  1.1053  1.2928  1.9449
 6542TIP3    H241262   1.885   5.700   2.633 -0.8268 -1.3156 -1.2836
 6543TIP3   OH241263   2.795   6.197   7.655  0.4068  0.0964 -0.5921
 6543TIP3    H141264   2.859   6.165   7.591 -1.4228 -2.2804 -1.3784
 6543TIP3    H241265   2.802   6.137   7.729 -1.2329 -0.5591 -0.9278
 6544TIP3   OH241266   0.731   2.736   2.578  0.0600 -0.1385 -0.1482
 6544TIP3    H141267   0.732   2.693   2.663 -0.3287 -0.0527 -0.0955
 6544TIP3    H241268   0.822   2.737   2.550  0.3121  0.5604  0.6423
 6545TIP3   OH241269   5.801   5.116   9.054 -0.0748  0.0698 -0.3833
 6545TIP3    H141270   5.765   5.188   9.106  1.7395  1.2366 -0.6686
 6545TIP3    H241271   5.733   5.049   9.056 -2.0253  1.9352 -0.4649
 6546TIP3   OH241272   0.390   1.741   0.593  0.4006  0.5351  0.2978
 6546TIP3    H141273   0.469   1.758   0.645 -1.5840  3.4725  2.7317
 6546TIP3    H241274   0.408   1.782   0.508  1.9075  0.0715  0.3641
 6547TIP3   OH241275   6.694   2.451   1.204  0.1548 -0.3990 -0.6033
 6547TIP3    H141276   6.738   2.526   1.164 -0.8880  0.2173 -0.6333
 6547TIP3    H241277   6.731   2.375   1.160  2.3343 -0.0482  0.4472
 6548TIP3   OH241278   4.436   3.901   8.416 -0.4329 -0.3459 -0.1339
 6548TIP3    H141279   4.395   3.870   8.335 -0.3074  0.8009 -0.6622
 6548TIP3    H241280   4.462   3.991   8.396 -0.6310  0.0410  1.2766
 6549TIP3   OH241281   4.743   6.539   0.649 -0.0833  0.4552  0.1431
 6549TIP3    H141282   4.687   6.599   0.699  1.1521  1.7721 -0.0039
 6549TIP3    H241283   4.734   6.455   0.695 -2.9330  0.3174 -0.4711
 6550TIP3   OH241284   0.582   1.445   1.281  0.5825 -0.0190 -0.2565
 6550TIP3    H141285   0.616   1.436   1.369 -1.9082  0.3135  0.8289
 6550TIP3    H241286   0.614   1.530   1.250  0.1380  0.6096  0.9779
 6551TIP3   OH241287   0.265   0.192   1.942  0.2221 -0.7794  0.0565
 6551TIP3    H141288   0.267   0.256   1.871  1.6105 -2.1078 -1.1753
 6551TIP3    H241289   0.236   0.111   1.899 -0.1073 -1.3261  1.2821
 6552TIP3   OH241290   6.727   3.638   3.547  0.2502  0.2499  0.1167
 6552TIP3    H141291   6.732   3.717   3.602  1.1048 -0.7267  1.5134
 6552TIP3    H241292   6.803   3.586   3.573  0.1036 -0.7200 -1.3004
 6553TIP3   OH241293   1.189   0.252   3.422  0.0532 -0.4253  0.2358
 6553TIP3    H141294   1.125   0.229   3.488 -0.0873 -1.1272 -0.1404
 6553TIP3    H241295   1.223   0.337   3.450 -0.3711 -0.4804  0.9270
 6554TIP3   OH241296   1.483   2.418   1.950  0.6008  0.1751  0.3384
 6554TIP3    H141297   1.528   2.453   1.873 -0.1211  0.7051  0.1493
 6554TIP3    H241298   1.495   2.323   1.943  0.5342  0.2162 -0.4376
 6555TIP3   OH241299   2.324   2.887   7.934 -0.1416  0.1870  0.9369
 6555TIP3    H141300   2.353   2.814   7.879  2.1398 -0.3723  2.7297
 6555TIP3    H241301   2.360   2.964   7.891 -0.5212  0.0218  0.3075
 6556TIP3   OH241302   1.013   1.703   0.026 -0.3466 -0.2318  0.5583
 6556TIP3    H141303   0.958   1.751  -0.036 -1.6712 -2.3900 -0.0600
 6556TIP3    H241304   0.952   1.674   0.093  0.2246 -1.7190  0.4648
 6557TIP3   OH241305   3.651   0.994   7.642  0.1222  0.1777  0.0920
 6557TIP3    H141306   3.603   1.023   7.719 -1.9934  0.4291 -1.2656
 6557TIP3    H241307   3.651   0.898   7.648  0.8276  0.2124  0.8682
 6558TIP3   OH241308   6.385   5.823   8.666  0.6420 -0.3247 -0.3757
 6558TIP3    H141309   6.398   5.918   8.658  1.6082 -0.4835 -1.0115
 6558TIP3    H241310   6.455   5.786   8.612 -1.4257 -1.3783 -2.5281
 6559TIP3   OH241311   5.227   4.610   1.739  0.1369 -0.4229 -0.2159
 6559TIP3    H141312   5.246   4.662   1.661  0.8520 -0.5419 -0.1286
 6559TIP3    H241313   5.313   4.584   1.772 -0.0274  1.0802  1.6178
 6560TIP3   OH241314   1.425   3.950   0.404 -0.9051  0.0052 -0.3994
 6560TIP3    H141315   1.393   3.950   0.494  1.4651  2.1684  0.5376
 6560TIP3    H241316   1.510   3.907   0.408  0.9182  3.3038 -0.8093
 6561TIP3   OH241317   3.691   0.592   3.232  0.2455  0.2903 -0.1132
 6561TIP3    H141318   3.638   0.526   3.275  1.1384 -0.3455  0.0481
 6561TIP3    H241319   3.652   0.676   3.257  0.4760 -0.0804  1.5735
 6562TIP3   OH241320   4.816   1.106   3.139 -0.5112 -0.4490  0.1606
 6562TIP3    H141321   4.773   1.147   3.063 -0.7915 -0.6085  0.2328
 6562TIP3    H241322   4.852   1.025   3.105  0.9360  0.3310 -0.2247
 6563TIP3   OH241323   3.788   3.512   7.292 -0.4706  0.4658 -0.2961
 6563TIP3    H141324   3.809   3.440   7.352  0.5976  1.7417  0.9159
 6563TIP3    H241325   3.802   3.475   7.205 -1.0723 -1.1274  0.2412
 6564TIP3   OH241326   3.283   2.794   2.711 -0.9091  0.7960  0.0606
 6564TIP3    H141327   3.230   2.861   2.756 -0.5156  1.0528  0.1464
 6564TIP3    H241328   3.246   2.790   2.623 -1.5874  0.4020  0.3529
 6565TIP3   OH241329   5.808   1.093   1.611 -0.0648 -0.0466  0.2640
 6565TIP3    H141330   5.780   1.093   1.520 -0.1443  0.0372  0.2875
 6565TIP3    H241331   5.900   1.118   1.609  0.4124 -1.7314  0.0714
 6566TIP3   OH241332   2.498   3.108   1.856 -0.1988 -1.0762 -0.3819
 6566TIP3    H141333   2.590   3.098   1.877 -0.3457  0.5430  1.2460
 6566TIP3    H241334   2.491   3.196   1.819 -1.4071 -0.1141  1.9079
 6567TIP3   OH241335   6.290   1.082   2.150 -0.0945 -0.2328  0.0612
 6567TIP3    H141336   6.260   1.023   2.080 -0.7846  1.3051 -0.9934
 6567TIP3    H241337   6.227   1.069   2.220 -2.3650  1.6651 -1.4649
 6568TIP3   OH241338   6.287   1.331   1.828 -0.1681 -0.4363 -0.1680
 6568TIP3    H141339   6.363   1.290   1.869  1.5769  1.2643 -1.4548
 6568TIP3    H241340   6.212   1.304   1.881  1.3852 -1.8328  1.4318
 6569TIP3   OH241341   5.674   0.150   0.785  0.4748  0.0372  0.3463
 6569TIP3    H141342   5.605   0.138   0.721  0.5801 -0.9943  0.4049
 6569TIP3    H241343   5.754   0.120   0.741  0.7309  0.3494  0.5899
 6570TIP3   OH241344   3.030   5.195   8.628  0.2538 -0.4266 -0.5582
 6570TIP3    H141345   3.091   5.245   8.683  0.8307 -1.2957 -0.3943
 6570TIP3    H241346   3.063   5.207   8.539  0.4143 -0.5502 -0.5149
 6571TIP3   OH241347   4.196   2.586   0.895 -0.4173  0.5241 -0.4638
 6571TIP3    H141348   4.118   2.634   0.924  0.7943  1.2681  1.7728
 6571TIP3    H241349   4.171   2.494   0.898 -2.1983  0.8038 -3.0371
 6572TIP3   OH241350   3.842   1.051   8.028  0.4164  0.0248  0.4049
 6572TIP3    H141351   3.876   0.979   7.974 -2.6395 -0.7507 -0.7108
 6572TIP3    H241352   3.814   1.008   8.109  1.5851  0.5846  1.1403
 6573TIP3   OH241353   0.916   3.954   1.642  0.0783  0.2580  0.1863
 6573TIP3    H141354   0.969   4.031   1.620 -1.0058  1.8182  2.5554
 6573TIP3    H241355   0.880   3.925   1.558  0.8296  2.1181 -0.8478
 6574TIP3   OH241356   1.876   0.320   7.820  0.6086 -0.3123 -0.4328
 6574TIP3    H141357   1.953   0.353   7.867 -1.6538  1.4309  2.3464
 6574TIP3    H241358   1.875   0.370   7.738  2.5307 -0.5758 -0.6634
 6575TIP3   OH241359   4.761   5.170   8.729 -0.1658 -0.0433  0.3329
 6575TIP3    H141360   4.680   5.138   8.767  0.2144  0.9022  2.0495
 6575TIP3    H241361   4.746   5.264   8.716  0.1097 -0.1511 -0.8521
 6576TIP3   OH241362   5.541   3.461   8.597  0.0208 -0.1094 -0.0737
 6576TIP3    H141363   5.568   3.462   8.505 -0.4707  2.8344 -0.2773
 6576TIP3    H241364   5.623   3.467   8.646  0.1787  2.7857 -0.5230
 6577TIP3   OH241365   2.542   0.467   0.393  0.2213  0.2165 -0.2246
 6577TIP3    H141366   2.466   0.454   0.337 -0.8660  0.4805  1.1593
 6577TIP3    H241367   2.528   0.551   0.436  0.3145 -0.5950  1.4991
 6578TIP3   OH241368   4.521   3.758   1.367  0.6160 -0.1518 -0.1361
 6578TIP3    H141369   4.542   3.805   1.447  1.7606 -1.0481  0.1038
 6578TIP3    H241370   4.605   3.738   1.327  0.0762  0.0893 -1.4632
 6579TIP3   OH241371   2.885   2.626   8.852  0.1805 -0.5063 -0.7184
 6579TIP3    H141372   2.975   2.615   8.822  0.4650  0.7382 -0.3896
 6579TIP3    H241373   2.888   2.702   8.910 -0.8862 -1.1167  0.1840
 6580TIP3   OH241374   3.135   6.412   2.141 -0.3852 -0.0375  0.1841
 6580TIP3    H141375   3.171   6.371   2.220 -2.1192  0.8294  1.4881
 6580TIP3    H241376   3.056   6.361   2.121 -1.1131  1.0219  0.2781
 6581TIP3   OH241377   4.994   2.677   7.857 -0.2513 -0.0116  0.5720
 6581TIP3    H141378   4.960   2.762   7.883 -2.6508 -0.5434 -0.4568
 6581TIP3    H241379   5.046   2.694   7.778 -2.8091  0.3506 -1.1819
 6582TIP3   OH241380   0.544   1.759   0.010  0.3555  0.2925 -0.1409
 6582TIP3    H141381   0.587   1.794   0.088  0.2285 -1.7691  0.9164
 6582TIP3    H241382   0.454   1.791   0.016  0.4982  0.6445  0.2113
 6583TIP3   OH241383   5.045   2.666   0.849  0.1524 -0.3142  0.2462
 6583TIP3    H141384   5.060   2.749   0.894 -1.1489 -1.0094  2.0953
 6583TIP3    H241385   5.076   2.680   0.760  3.1031  1.0815  1.3786
 6584TIP3   OH241386   5.856   4.279   8.362  0.5440  0.3480 -0.0058
 6584TIP3    H141387   5.823   4.202   8.317 -0.7853  1.8894 -1.7664
 6584TIP3    H241388   5.805   4.283   8.443  1.0596 -0.9169  0.4143
 6585TIP3   OH241389   6.050   5.814   1.329  0.7350  0.4086  0.4221
 6585TIP3    H141390   6.034   5.721   1.343 -1.2108  0.8392  1.5477
 6585TIP3    H241391   6.057   5.851   1.417  0.7614  1.4220  0.0137
 6586TIP3   OH241392   4.844   2.467   8.269  0.2098 -0.2414 -0.0953
 6586TIP3    H141393   4.927   2.466   8.317  1.2002 -1.2681 -1.7016
 6586TIP3    H241394   4.805   2.381   8.287  0.6148 -0.6570 -1.0871
 6587TIP3   OH241395   4.032   5.778   0.760  0.6685 -0.1198 -0.1515
 6587TIP3    H141396   4.010   5.734   0.842  1.8319 -0.8911 -0.2349
 6587TIP3    H241397   4.106   5.834   0.782  2.5495 -2.0815 -1.1207
 6588TIP3   OH241398   5.518   3.802   1.512  0.5944 -0.2179 -0.5766
 6588TIP3    H141399   5.485   3.713   1.529  0.7686 -0.4272 -1.2979
 6588TIP3    H241400   5.442   3.849   1.478 -0.1539  0.6226  2.0294
 6589TIP3   OH241401   0.900   5.880   8.100 -0.3464  0.4354 -0.6297
 6589TIP3    H141402   0.990   5.906   8.082 -0.1519 -0.6225 -1.2716
 6589TIP3    H241403   0.907   5.792   8.137 -1.2040 -0.6759 -2.9157
 6590TIP3   OH241404   1.746   0.578   0.908  0.3249 -0.4583 -0.1550
 6590TIP3    H141405   1.827   0.622   0.935 -0.2925  1.1935 -0.9237
 6590TIP3    H241406   1.752   0.573   0.813 -0.3350 -0.6269 -0.1922
 6591TIP3   OH241407   5.073   6.212   0.515  0.4896 -0.4943 -0.2329
 6591TIP3    H141408   5.004   6.278   0.522  1.7665  1.1300 -2.0202
 6591TIP3    H241409   5.026   6.130   0.502 -1.1188  0.3330  0.0753
 6592TIP3   OH241410   6.136   2.933   3.512 -0.2296  0.0256  0.3800
 6592TIP3    H141411   6.078   2.902   3.442 -0.3315  0.0266  0.4631
 6592TIP3    H241412   6.174   3.014   3.478 -0.0675 -0.1180  0.2167
 6593TIP3   OH241413   4.529   1.105   1.435 -0.1271  0.5641  0.6144
 6593TIP3    H141414   4.447   1.150   1.451  0.5500  2.0751  0.0137
 6593TIP3    H241415   4.510   1.043   1.364 -1.5685 -1.6779  2.7805
 6594TIP3   OH241416   5.995   1.139   0.833 -0.2461  0.2198  0.1276
 6594TIP3    H141417   5.950   1.166   0.753  0.8742  0.0138 -0.5974
 6594TIP3    H241418   6.081   1.181   0.828  0.4493 -1.1130  0.4059
 6595TIP3   OH241419   5.998   2.555   8.026 -0.2537 -0.1760 -0.4521
 6595TIP3    H141420   5.920   2.504   8.047  0.9347 -1.8784  0.0425
 6595TIP3    H241421   5.994   2.631   8.085 -0.7582 -1.0549  0.6945
 6596TIP3   OH241422   2.113   4.922   0.366 -0.4790 -0.0243  0.0039
 6596TIP3    H141423   2.111   4.868   0.445 -1.1015 -1.2400 -0.8045
 6596TIP3    H241424   2.021   4.936   0.345 -0.3390  1.6488  0.3525
 6597TIP3   OH241425   2.202   0.188   8.183 -0.3825  0.7174 -0.0499
 6597TIP3    H141426   2.113   0.202   8.215 -0.1624  0.7159  0.5748
 6597TIP3    H241427   2.257   0.240   8.242 -0.1226  2.2476 -1.5528
 6598TIP3   OH241428   4.975   2.151   7.759  0.4496 -0.1591  0.0070
 6598TIP3    H141429   5.011   2.232   7.723  0.0924 -0.1176 -0.2671
 6598TIP3    H241430   4.900   2.132   7.703 -0.1254 -0.0879  0.7346
 6599TIP3   OH241431   2.426   0.400   8.727  0.4471 -0.5427 -0.4646
 6599TIP3    H141432   2.350   0.455   8.707 -0.3400 -0.8192  1.5683
 6599TIP3    H241433   2.443   0.415   8.820  1.0519 -2.7114 -0.1662
 6600TIP3   OH241434   2.248   4.144   0.488 -0.0945 -0.0774  0.2156
 6600TIP3    H141435   2.278   4.140   0.579 -0.2793 -2.1108  0.2356
 6600TIP3    H241436   2.175   4.083   0.484 -1.8997  1.9883 -0.7200
 6601TIP3   OH241437   1.475   4.268   0.652  0.6384 -0.3851  0.2446
 6601TIP3    H141438   1.455   4.291   0.561  1.3437  0.2380  0.2382
 6601TIP3    H241439   1.462   4.173   0.656 -0.0065 -0.3326 -0.3408
 6602TIP3   OH241440   4.683   5.041   0.051  0.3344 -0.3274  0.1534
 6602TIP3    H141441   4.648   4.957   0.020  0.0634 -0.2481  0.2362
 6602TIP3    H241442   4.662   5.103  -0.020  0.1358 -0.2417  0.2847
 6603TIP3   OH241443   1.518   6.578   2.642 -0.4003  0.3809  0.6794
 6603TIP3    H141444   1.587   6.539   2.697 -1.5622 -4.2807 -0.7086
 6603TIP3    H241445   1.456   6.615   2.705  1.6674  1.6998  2.0736
 6604TIP3   OH241446   4.134   1.141   8.122  0.0493  0.0849 -0.2154
 6604TIP3    H141447   4.105   1.101   8.040  1.2133  4.1584 -2.8680
 6604TIP3    H241448   4.060   1.195   8.150  0.9605  1.6973 -0.7916
 6605TIP3   OH241449   3.829   2.652   8.149  0.1322 -0.6032 -0.3047
 6605TIP3    H141450   3.907   2.690   8.189  0.7434 -0.5752 -1.4919
 6605TIP3    H241451   3.862   2.598   8.077 -0.9835  0.3155 -1.5651
 6606TIP3   OH241452   2.533   1.944   3.407  0.0360  0.0976  0.2189
 6606TIP3    H141453   2.446   1.903   3.405  0.0733 -0.0685  1.3250
 6606TIP3    H241454   2.519   2.031   3.368 -0.4440 -0.2431 -0.3883
 6607TIP3   OH241455   1.395   1.258   1.851 -0.0384  0.0437 -0.0863
 6607TIP3    H141456   1.349   1.223   1.775  0.3206 -0.9819  0.1625
 6607TIP3    H241457   1.349   1.340   1.870 -1.2824 -0.5758 -0.2941
 6608TIP3   OH241458   1.171   6.215   2.716 -0.0977  0.5078 -0.7817
 6608TIP3    H141459   1.169   6.202   2.810  0.7793  3.1687 -0.3246
 6608TIP3    H241460   1.255   6.179   2.688 -0.8684 -1.4174 -0.8330
 6609TIP3   OH241461   0.429   6.280   8.519 -0.1843 -0.2849 -0.2326
 6609TIP3    H141462   0.388   6.205   8.475  1.7059 -1.8720  0.5592
 6609TIP3    H241463   0.431   6.254   8.611 -0.6244  1.3292  0.2616
 6610TIP3   OH241464   3.691   4.561   7.937  0.0306  0.2647 -0.9090
 6610TIP3    H141465   3.702   4.470   7.912 -0.8978 -0.1848  0.1810
 6610TIP3    H241466   3.757   4.609   7.888  1.2772 -1.1444 -0.6633
 6611TIP3   OH241467   3.838   1.992   0.462  0.0710  0.2498 -0.5183
 6611TIP3    H141468   3.873   1.993   0.373 -0.0574 -1.1528 -0.6072
 6611TIP3    H241469   3.857   1.904   0.494  1.9598  1.3447  1.6113
 6612TIP3   OH241470   1.646   6.293   7.590  0.1077 -0.2043  0.4452
 6612TIP3    H141471   1.667   6.201   7.579  0.1516 -0.1942  0.4427
 6612TIP3    H241472   1.633   6.326   7.501  1.1684  0.0425  0.3576
 6613TIP3   OH241473   6.414   2.957   8.653  0.2506 -0.3803 -0.4394
 6613TIP3    H141474   6.396   2.943   8.746  0.4605 -3.1793 -0.7275
 6613TIP3    H241475   6.376   2.881   8.610  0.4183  0.7093 -2.6295
 6614TIP3   OH241476   0.748   1.184   1.425  0.2603  0.0640  0.0514
 6614TIP3    H141477   0.690   1.208   1.497  0.5898  0.2190  0.2713
 6614TIP3    H241478   0.836   1.198   1.461  0.4745 -1.4025  0.1710
 6615TIP3   OH241479   5.726   0.446   2.387  0.1725 -0.8406 -0.3372
 6615TIP3    H141480   5.643   0.487   2.409  2.6297  3.8579  1.4882
 6615TIP3    H241481   5.766   0.506   2.325  3.4897 -1.1340  1.3255
 6616TIP3   OH241482   0.009   0.092   2.833  0.1856 -0.5745  0.5862
 6616TIP3    H141483  -0.048   0.036   2.886  0.5430 -1.4364  0.0803
 6616TIP3    H241484   0.079   0.034   2.803  0.3955  0.0744 -0.2150
 6617TIP3   OH241485   6.445   4.032   2.711  0.4303 -0.0194 -0.6129
 6617TIP3    H141486   6.356   4.068   2.714  0.5283  0.1605  0.1268
 6617TIP3    H241487   6.437   3.948   2.757  0.5000 -0.3134 -1.1343
 6618TIP3   OH241488   2.600   3.116   0.580 -0.0385 -0.7104  0.3091
 6618TIP3    H141489   2.680   3.168   0.580  0.3899 -1.3605 -0.3871
 6618TIP3    H241490   2.532   3.178   0.554  0.2439 -0.1807  0.8016
 6619TIP3   OH241491   3.453   4.571   1.449 -0.5399 -0.0117  0.1524
 6619TIP3    H141492   3.511   4.497   1.467  0.4155  0.6444 -0.1217
 6619TIP3    H241493   3.443   4.571   1.354 -0.7808  0.0316  0.1779
 6620TIP3   OH241494   6.390   3.949   2.421 -0.1982 -0.1055  0.1842
 6620TIP3    H141495   6.341   3.887   2.475  1.1419 -2.2710 -0.9546
 6620TIP3    H241496   6.478   3.950   2.459  0.0523  0.3635 -0.3957
 6621TIP3   OH241497   0.098   0.479   0.783 -0.8170  0.2221  0.4834
 6621TIP3    H141498   0.134   0.434   0.860 -0.0656  0.7869  0.4788
 6621TIP3    H241499   0.142   0.438   0.709  1.5104  2.3021  0.5734
 6622TIP3   OH241500   4.336   4.182   0.459 -0.0482  0.2543 -0.2005
 6622TIP3    H141501   4.328   4.211   0.549 -1.9825  0.0399 -0.2516
 6622TIP3    H241502   4.385   4.100   0.463  0.3723  0.5426  0.5802
 6623TIP3   OH241503   4.833   3.726   1.609 -0.0144 -0.4671  0.0319
 6623TIP3    H141504   4.839   3.639   1.570 -1.0196 -0.4071 -0.2862
 6623TIP3    H241505   4.740   3.748   1.605  0.3344  1.0073 -0.7615
 6624TIP3   OH241506   0.498   0.479   0.919 -0.6815  0.5727  0.4971
 6624TIP3    H141507   0.422   0.534   0.901 -0.2317  0.8320 -0.6951
 6624TIP3    H241508   0.525   0.446   0.833  1.8287  2.1811  0.5573
 6625TIP3   OH241509   3.439   6.205   8.301 -0.2309 -0.3583  0.6044
 6625TIP3    H141510   3.465   6.197   8.209  1.9400  0.9933  1.0021
 6625TIP3    H241511   3.373   6.274   8.301  0.1119 -0.0138  0.0772
 6626TIP3   OH241512   0.701   1.335   2.075 -0.7551 -0.4291 -0.4634
 6626TIP3    H141513   0.750   1.254   2.060  1.2807  0.7235 -0.3877
 6626TIP3    H241514   0.690   1.339   2.170  1.3984  0.5693 -0.2037
 6627TIP3   OH241515   1.236   2.263   8.596  0.3175  0.2458 -0.6615
 6627TIP3    H141516   1.284   2.274   8.679 -1.1103  0.5462  0.1515
 6627TIP3    H241517   1.220   2.169   8.590 -0.6967  0.3508  0.0856
 6628TIP3   OH241518   2.257   6.080   8.459 -0.0898  0.1913  0.3953
 6628TIP3    H141519   2.336   6.122   8.492 -1.0453  2.2596  0.2004
 6628TIP3    H241520   2.275   6.064   8.367  0.2729  0.1945  0.4638
 6629TIP3   OH241521   0.767   3.588   2.509  0.3648  0.2023  0.0823
 6629TIP3    H141522   0.784   3.530   2.435  0.6003  0.9131 -0.4314
 6629TIP3    H241523   0.749   3.673   2.469 -1.3942  0.1894  0.7367
 6630TIP3   OH241524   0.262   4.506   7.818  0.0608  1.0963 -0.2407
 6630TIP3    H141525   0.181   4.557   7.820 -1.2061 -0.6639 -2.2033
 6630TIP3    H241526   0.239   4.428   7.767  3.4511  1.3576 -2.4606
 6631TIP3   OH241527   0.630   0.634   0.113 -0.5077 -0.1912 -0.2695
 6631TIP3    H141528   0.623   0.560   0.173 -0.4592 -1.3710 -1.6402
 6631TIP3    H241529   0.578   0.607   0.037 -2.6718  2.3006  0.1794
 6632TIP3   OH241530   0.570   2.870   7.884 -0.5870  0.1797 -0.6834
 6632TIP3    H141531   0.506   2.805   7.858 -0.7576 -0.0142  0.2055
 6632TIP3    H241532   0.621   2.828   7.953 -1.0062  1.1377  0.2441
 6633TIP3   OH241533   0.691   2.656   0.101 -0.0951 -0.4815  0.0063
 6633TIP3    H141534   0.656   2.638   0.014 -0.8982 -0.7266  0.3784
 6633TIP3    H241535   0.740   2.738   0.090 -2.2339  0.8365 -0.1425
 6634TIP3   OH241536   1.167   1.987   8.583  0.1812  0.0340  0.2241
 6634TIP3    H141537   1.240   1.928   8.600  1.0034  0.8863 -0.2428
 6634TIP3    H241538   1.130   1.955   8.501 -0.4248 -0.8181  0.8091
 6635TIP3   OH241539   6.121   3.403   0.453 -0.1128  0.6176  0.6908
 6635TIP3    H141540   6.109   3.330   0.514  0.8763 -0.2241 -0.0903
 6635TIP3    H241541   6.175   3.367   0.383 -3.0621  0.8739 -1.8843
 6636TIP3   OH241542   0.688   4.841   1.609 -0.4993 -0.3307 -0.1113
 6636TIP3    H141543   0.633   4.781   1.659 -1.4531 -0.5003 -1.3107
 6636TIP3    H241544   0.691   4.803   1.521  0.7150  0.2209 -0.3288
 6637TIP3   OH241545   3.890   6.402   0.008  0.0497 -0.4793  0.9541
 6637TIP3    H141546   3.805   6.406  -0.036  0.1918  0.7650  0.7328
 6637TIP3    H241547   3.923   6.492   0.003  2.9975 -1.5115 -2.1843
 6638TIP3   OH241548   2.345   1.277   2.083 -0.6871 -0.1201  0.1448
 6638TIP3    H141549   2.338   1.193   2.128 -2.3880  0.4771  1.0390
 6638TIP3    H241550   2.380   1.254   1.996  1.2335 -1.4375  1.2040
 6639TIP3   OH241551   0.131   5.503   0.164  0.1634 -0.6482 -0.4343
 6639TIP3    H141552   0.108   5.516   0.256 -0.5385  1.1284 -0.8173
 6639TIP3    H241553   0.069   5.437   0.133  0.7012 -1.5959  0.4601
 6640TIP3   OH241554   3.451   0.986   8.897  0.3441  0.3691 -0.5925
 6640TIP3    H141555   3.427   1.065   8.848  1.5059  1.0168 -0.1679
 6640TIP3    H241556   3.482   0.925   8.830 -1.2152 -0.0256 -1.0043
 6641TIP3   OH241557   1.447   2.507   8.839  0.2146  0.5289  0.4305
 6641TIP3    H141558   1.490   2.445   8.898  1.9331  0.9637 -0.3089
 6641TIP3    H241559   1.481   2.486   8.752 -0.9669  1.0084 -0.1810
 6642TIP3   OH241560   0.550   6.037   9.088 -0.0904  0.6163  0.0024
 6642TIP3    H141561   0.635   6.077   9.069 -0.0606  0.0132 -1.2706
 6642TIP3    H241562   0.518   6.008   9.002 -1.4415  0.5557  0.5063
 6643TIP3   OH241563   3.909   3.960   1.458 -0.5895 -0.4279  0.3969
 6643TIP3    H141564   3.998   3.986   1.485 -0.4377 -0.7853  0.2389
 6643TIP3    H241565   3.918   3.940   1.365 -0.7556 -0.8377  0.4701
 6644TIP3   OH241566   4.217   2.936   2.957 -0.1026 -0.0285 -0.3928
 6644TIP3    H141567   4.215   2.955   2.864  1.5991 -1.2808 -0.7291
 6644TIP3    H241568   4.197   2.843   2.964 -1.5081  0.3065  0.6381
 6645TIP3   OH241569   3.567   6.125   0.348 -0.4023  0.1113  0.1912
 6645TIP3    H141570   3.622   6.098   0.275 -0.2398  0.0399  0.3392
 6645TIP3    H241571   3.518   6.200   0.314 -0.1628  0.2194  0.0793
 6646TIP3   OH241572   3.793   3.026   8.879 -0.0405  0.2077 -0.0599
 6646TIP3    H141573   3.720   3.075   8.915 -0.6739 -0.0773 -0.9233
 6646TIP3    H241574   3.806   3.063   8.792  0.0571 -0.5457 -0.3751
 6647TIP3   OH241575   3.782   3.679   8.791  0.0340  0.3023 -0.1741
 6647TIP3    H141576   3.733   3.683   8.873 -0.2741 -1.0323 -0.2639
 6647TIP3    H241577   3.721   3.637   8.730  0.8353 -0.2158 -0.6302
 6648TIP3   OH241578   4.269   1.359   0.597 -0.2373  0.0673 -0.0724
 6648TIP3    H141579   4.233   1.347   0.685 -0.9683  0.2691 -0.3360
 6648TIP3    H241580   4.194   1.348   0.539  0.2832 -0.3023 -0.6876
 6649TIP3   OH241581   1.213   1.346   9.062 -0.4873  0.2289  0.1089
 6649TIP3    H141582   1.153   1.274   9.082  1.3629 -1.2761  0.6285
 6649TIP3    H241583   1.281   1.340   9.129  0.3718  1.6994 -0.5704
 6650TIP3   OH241584   4.520   0.745   0.867 -0.6216  0.1197 -0.1988
 6650TIP3    H141585   4.610   0.741   0.896 -0.8402  1.3192  0.7073
 6650TIP3    H241586   4.469   0.712   0.941 -0.8927 -1.4808 -1.0537
 6651TIP3   OH241587   0.030   5.901   2.039  0.0845 -0.4276  0.4448
 6651TIP3    H141588  -0.055   5.881   2.078  0.3480 -0.2750  1.1113
 6651TIP3    H241589   0.028   5.995   2.024  0.8652 -0.0817  2.2933
 6652TIP3   OH241590   0.711   2.254   0.160  0.1582  0.0747  0.5363
 6652TIP3    H141591   0.762   2.331   0.137  0.5945  0.0564  1.4129
 6652TIP3    H241592   0.775   2.192   0.194  0.0848 -1.3388 -1.6867
 6653TIP3   OH241593   5.497   3.222   7.294  0.7214 -0.0572  0.2019
 6653TIP3    H141594   5.508   3.154   7.361  1.9129  1.8573  2.0987
 6653TIP3    H241595   5.404   3.243   7.295  0.6943 -0.1828  1.1945
 6654TIP3   OH241596   5.018   0.330   1.290  0.4419  0.3443 -0.5093
 6654TIP3    H141597   5.090   0.277   1.324 -1.2724 -0.2934  2.4711
 6654TIP3    H241598   4.979   0.276   1.222  0.5938 -0.9296  0.3666
 6655TIP3   OH241599   4.211   0.999   0.810  0.4919 -0.0760  0.4160
 6655TIP3    H141600   4.199   0.927   0.748  0.2367 -0.6628  1.1284
 6655TIP3    H241601   4.154   1.068   0.777  0.0285 -0.5367  0.2217
 6656TIP3   OH241602   1.101   6.696   1.304 -0.1870 -0.6002  0.4450
 6656TIP3    H141603   1.063   6.626   1.358 -0.5312 -0.3515  0.5252
 6656TIP3    H241604   1.039   6.707   1.232 -0.2130 -0.2718  0.5161
 6657TIP3   OH241605   2.815   2.877   7.933  0.0051 -0.1361 -0.2729
 6657TIP3    H141606   2.747   2.864   7.999 -1.4001  0.0875 -1.6177
 6657TIP3    H241607   2.887   2.822   7.962 -0.2551  0.5493  1.8565
 6658TIP3   OH241608   6.409   1.815   1.407 -0.1485 -0.5929 -0.2356
 6658TIP3    H141609   6.428   1.827   1.314 -0.4872 -1.8150 -0.4712
 6658TIP3    H241610   6.478   1.757   1.439 -0.7923 -1.2590 -0.0351
 6659TIP3   OH241611   5.819   1.583   8.774  0.0215 -0.4211  0.0733
 6659TIP3    H141612   5.843   1.673   8.752  0.7435 -0.6431 -0.0852
 6659TIP3    H241613   5.864   1.530   8.708  1.1847 -1.0195  1.2864
 6660TIP3   OH241614   0.077   6.392   8.428 -0.1032  0.3725 -0.0578
 6660TIP3    H141615   0.105   6.373   8.339 -2.7841 -0.2677 -0.8407
 6660TIP3    H241616   0.148   6.444   8.465  0.7516  1.3110 -2.8196
 6661TIP3   OH241617   0.502   0.772   1.339 -0.6049 -0.7604  0.4280
 6661TIP3    H141618   0.486   0.679   1.324 -0.6623 -0.5241 -1.2000
 6661TIP3    H241619   0.597   0.782   1.332 -0.7563 -0.2240 -3.1653
 6662TIP3   OH241620   1.183   1.152   8.798  0.4361  0.6036  0.3333
 6662TIP3    H141621   1.139   1.202   8.867 -0.1014  0.5374  0.0427
 6662TIP3    H241622   1.275   1.154   8.823  0.4810  2.0228  0.1466
 6663TIP3   OH241623   0.830   5.290   3.683  0.3148 -0.3219 -0.1947
 6663TIP3    H141624   0.772   5.222   3.717 -1.3107  1.5878  1.1072
 6663TIP3    H241625   0.913   5.246   3.669 -0.9106 -2.7732 -0.3471
 6664TIP3   OH241626   0.523   4.345   0.069 -0.6576  0.6074  0.4351
 6664TIP3    H141627   0.505   4.268   0.124 -3.3249  2.7316  2.8161
 6664TIP3    H241628   0.605   4.381   0.104  1.4578 -1.7686 -1.6623
 6665TIP3   OH241629   1.071   5.991   1.646  0.0914 -0.1604  0.0650
 6665TIP3    H141630   1.101   5.969   1.734 -1.1000 -0.2471  0.4672
 6665TIP3    H241631   1.009   5.921   1.624  0.3872 -0.1500 -0.8584
 6666TIP3   OH241632   2.501   5.435   1.519  0.5821  0.5923 -0.2046
 6666TIP3    H141633   2.428   5.415   1.460 -0.4683  2.5633  0.3313
 6666TIP3    H241634   2.567   5.474   1.461  0.7523 -0.1478 -0.5167
 6667TIP3   OH241635   1.054   3.814   1.097 -0.2120 -0.2651 -0.3556
 6667TIP3    H141636   1.013   3.731   1.119 -0.0416 -0.4952 -0.8856
 6667TIP3    H241637   1.097   3.842   1.177 -0.1068 -0.7874 -0.2262
 6668TIP3   OH241638   3.872   4.506   8.739 -0.1068 -0.1742 -0.4722
 6668TIP3    H141639   3.936   4.559   8.786 -0.2364 -0.5340  0.1174
 6668TIP3    H241640   3.916   4.422   8.724 -0.4916 -0.4884  0.0995
 6669TIP3   OH241641   1.186   5.782   1.216  0.7561  0.0447  0.6918
 6669TIP3    H141642   1.157   5.862   1.259  0.8021  0.3141  0.2249
 6669TIP3    H241643   1.126   5.715   1.247 -2.9371  1.1829 -3.0614
 6670TIP3   OH241644   2.640   5.920   0.231 -0.4774 -0.3220  0.2630
 6670TIP3    H141645   2.687   5.968   0.163 -0.8532  2.9229  2.1333
 6670TIP3    H241646   2.554   5.903   0.193 -0.9091  2.0144  0.0732
 6671TIP3   OH241647   1.257   2.016   2.452 -0.4695  0.0722 -0.1009
 6671TIP3    H141648   1.231   2.103   2.421 -0.6187 -0.5424 -1.8336
 6671TIP3    H241649   1.332   1.993   2.398 -0.6335 -1.0033  0.1108
 6672TIP3   OH241650   0.985   6.351   0.847 -0.1894  0.0307 -0.1121
 6672TIP3    H141651   1.024   6.328   0.931  1.0566  1.7609 -0.1727
 6672TIP3    H241652   1.040   6.308   0.782 -2.5321 -3.3310 -0.0980
 6673TIP3   OH241653   2.266   0.686   8.931 -0.4454 -0.3560  0.2700
 6673TIP3    H141654   2.197   0.639   8.978 -1.3418  2.2406  1.7533
 6673TIP3    H241655   2.264   0.774   8.967  1.5401  0.7085 -1.9315
 6674TIP3   OH241656   5.831   4.771   1.341 -0.8729  0.0818 -0.7246
 6674TIP3    H141657   5.885   4.744   1.415 -1.8516  3.8341  1.5987
 6674TIP3    H241658   5.891   4.770   1.266  1.7380  1.4303  1.1910
 6675TIP3   OH241659   1.528   5.042   8.628  0.6011  0.1560 -0.1714
 6675TIP3    H141660   1.484   4.971   8.674  0.3516 -0.4341 -1.2877
 6675TIP3    H241661   1.598   5.070   8.687 -0.2622  0.0109  0.9248
 6676TIP3   OH241662   4.436   1.155   0.559  0.3027  0.4310  0.1963
 6676TIP3    H141663   4.376   1.090   0.524  0.1686 -0.9642  2.7681
 6676TIP3    H241664   4.381   1.230   0.581 -0.2480 -0.2029  1.0176
 6677TIP3   OH241665   2.015   2.895   8.164  0.2271 -0.5563  0.0531
 6677TIP3    H141666   2.061   2.823   8.206 -0.2445 -1.4545 -0.9149
 6677TIP3    H241667   2.015   2.873   8.071 -2.1704 -0.6388  0.0050
 6678TIP3   OH241668   5.019   0.151   2.086  0.3084 -0.1478  0.2718
 6678TIP3    H141669   5.092   0.212   2.073  0.7026 -0.5665  0.4886
 6678TIP3    H241670   5.023   0.093   2.010 -1.1658  1.1703 -0.8846
 6679TIP3   OH241671   1.935   4.252   3.234  0.2310 -0.2392  0.5286
 6679TIP3    H141672   1.864   4.313   3.254 -1.4010 -1.8634 -0.1288
 6679TIP3    H241673   1.914   4.217   3.147  2.6499  0.3246 -0.3892
 6680TIP3   OH241674   4.422   1.843   2.027 -0.7613  0.1069 -0.1062
 6680TIP3    H141675   4.468   1.924   2.051 -0.7616  0.3816 -0.9843
 6680TIP3    H241676   4.474   1.807   1.955 -0.0629 -1.3427  1.0734
 6681TIP3   OH241677   5.959   0.434   0.612 -0.0823 -0.2013 -0.1078
 6681TIP3    H141678   5.940   0.518   0.572 -1.6753 -0.6856 -0.4194
 6681TIP3    H241679   6.015   0.389   0.549  0.0893  0.2932 -0.3104
 6682TIP3   OH241680   5.757   5.077   2.463  0.0468  0.0870 -0.8874
 6682TIP3    H141681   5.809   5.067   2.543  0.3470 -0.0763 -1.0982
 6682TIP3    H241682   5.677   5.122   2.491  0.4969  0.7483 -0.6253
 6683TIP3   OH241683   5.607   3.408   2.764 -0.3933  0.2086  0.1293
 6683TIP3    H141684   5.516   3.388   2.785 -0.9368 -2.7500 -3.8854
 6683TIP3    H241685   5.605   3.438   2.673  2.7648 -2.7786 -1.1709
 6684TIP3   OH241686   2.948   2.891   2.265  0.6011 -0.4302 -0.1773
 6684TIP3    H141687   2.929   2.983   2.287  1.2990  0.0986 -1.6819
 6684TIP3    H241688   2.892   2.841   2.324 -0.3775  0.9687  0.1453
 6685TIP3   OH241689   1.979   2.830   2.225 -0.7517 -0.6428 -0.5768
 6685TIP3    H141690   2.030   2.893   2.173  1.7606 -2.3752 -0.3840
 6685TIP3    H241691   1.905   2.881   2.257 -0.0638  1.6170 -2.2553
 6686TIP3   OH241692   5.082   5.644   0.502 -0.0796 -0.1904 -0.6857
 6686TIP3    H141693   5.083   5.700   0.425  1.2936 -1.7676 -1.8944
 6686TIP3    H241694   5.107   5.558   0.469  0.6831 -0.8837  1.5494
 6687TIP3   OH241695   2.163   6.257   0.928  0.4973  0.2422 -0.9682
 6687TIP3    H141696   2.185   6.217   0.844 -0.4713 -0.1378 -1.0477
 6687TIP3    H241697   2.233   6.321   0.943  1.3327 -0.5323 -1.4756
 6688TIP3   OH241698   2.816   1.163   8.795 -0.0631 -0.5002  0.1114
 6688TIP3    H141699   2.812   1.099   8.866 -0.5182 -0.2878  0.2850
 6688TIP3    H241700   2.769   1.239   8.830 -0.2144 -0.3635 -0.3896
 6689TIP3   OH241701   4.407   4.248   8.323 -0.3516  0.6494  0.0059
 6689TIP3    H141702   4.467   4.188   8.278 -0.2182 -0.2693  1.3301
 6689TIP3    H241703   4.374   4.306   8.254  0.3294 -0.2758 -1.1379
 6690TIP3   OH241704   2.849   2.052   8.960 -0.5571  0.1817 -0.6393
 6690TIP3    H141705   2.821   2.102   9.037 -0.3175  0.3357 -0.6515
 6690TIP3    H241706   2.945   2.052   8.964 -0.5226  0.6381 -1.2166
 6691TIP3   OH241707   0.094   1.080   0.656 -0.2591 -0.4319  0.1433
 6691TIP3    H141708   0.047   1.160   0.680 -0.9315 -0.8407  0.2283
 6691TIP3    H241709   0.074   1.068   0.563 -2.3379 -1.8809  0.6917
 6692TIP3   OH241710   2.182   3.333   1.195 -0.0085  0.2838 -0.5937
 6692TIP3    H141711   2.177   3.251   1.147  0.4868  1.3629 -2.5926
 6692TIP3    H241712   2.212   3.397   1.131  0.6318  1.8375  1.1615
 6693TIP3   OH241713   1.672   2.071   1.793 -0.4021 -0.8030  0.1871
 6693TIP3    H141714   1.598   2.073   1.855 -1.3265 -1.4718 -0.8551
 6693TIP3    H241715   1.691   2.163   1.776 -2.7018 -0.5394 -1.4379
 6694TIP3   OH241716   4.765   0.731   8.716  0.5370  0.2929  0.1372
 6694TIP3    H141717   4.747   0.771   8.801  0.1615 -0.5162  0.4476
 6694TIP3    H241718   4.805   0.801   8.665  2.1255  0.4228  1.4515
 6695TIP3   OH241719   4.057   3.388   1.592  0.3328 -0.3454  0.7442
 6695TIP3    H141720   4.082   3.472   1.555  3.0871 -1.0126  0.9048
 6695TIP3    H241721   4.054   3.403   1.687  1.5170 -0.5468  0.8295
 6696TIP3   OH241722   3.353   0.704   1.385 -0.4604  0.8368 -0.1992
 6696TIP3    H141723   3.392   0.625   1.346 -1.3579 -0.3023  1.1086
 6696TIP3    H241724   3.427   0.747   1.429  0.7256  2.5184 -3.5430
 6697TIP3   OH241725   3.192   2.044   0.134  0.2922 -0.7496  0.0981
 6697TIP3    H141726   3.196   1.949   0.121 -0.4336 -0.6977 -0.5344
 6697TIP3    H241727   3.195   2.081   0.046  0.4234 -0.1838  0.3339
 6698TIP3   OH241728   2.003   6.682   8.410  0.0439  0.0030  0.1971
 6698TIP3    H141729   1.961   6.728   8.482 -0.0390  0.0202  0.1376
 6698TIP3    H241730   1.968   6.723   8.331  1.0692  0.8314  0.1520
 6699TIP3   OH241731   4.386   3.994   2.935  0.2540  0.2778 -0.2512
 6699TIP3    H141732   4.324   3.992   3.008  1.0396 -0.8543  0.4072
 6699TIP3    H241733   4.333   3.974   2.858 -0.7950  2.5070 -0.2071
 6700TIP3   OH241734   4.433   2.116   8.345  0.0774 -0.3394 -0.0992
 6700TIP3    H141735   4.494   2.168   8.292  1.1572  0.0210  1.4253
 6700TIP3    H241736   4.479   2.033   8.360  0.6665  0.2731  1.8311
 6701TIP3   OH241737   6.079   4.844   1.452 -0.1105 -0.0341 -0.4740
 6701TIP3    H141738   6.135   4.920   1.462  0.3302 -0.1162 -2.0971
 6701TIP3    H241739   6.132   4.780   1.404 -0.9305 -0.8505 -0.3385
 6702TIP3   OH241740   4.137   0.271   1.826  0.5953  0.2393 -0.3313
 6702TIP3    H141741   4.129   0.311   1.912  0.4758  0.5771 -0.5006
 6702TIP3    H241742   4.178   0.338   1.771  0.8786 -0.0530 -0.4825
 6703TIP3   OH241743   3.916   4.659   0.410 -0.6718  0.2637 -0.2277
 6703TIP3    H141744   3.987   4.700   0.360 -0.8634  2.5852  1.2602
 6703TIP3    H241745   3.840   4.664   0.351 -0.4106  1.0163 -0.5169
 6704TIP3   OH241746   5.483   0.410   0.691 -0.1359 -0.1281  0.5041
 6704TIP3    H141747   5.445   0.383   0.775 -1.3127  2.2006  0.8134
 6704TIP3    H241748   5.407   0.428   0.636  0.6228 -1.5644 -1.0883
 6705TIP3   OH241749   5.550   4.006   2.054 -0.2333  0.0021 -0.3133
 6705TIP3    H141750   5.586   3.947   2.120 -1.5613 -1.1060 -0.5390
 6705TIP3    H241751   5.627   4.046   2.013  0.6886 -1.2376  0.1430
 6706TIP3   OH241752   5.433   1.100   7.927 -0.1471 -0.4160  0.2451
 6706TIP3    H141753   5.469   1.070   7.844  0.8234  2.1719 -0.3611
 6706TIP3    H241754   5.344   1.066   7.929  0.7327 -3.0044 -0.4220
 6707TIP3   OH241755   5.784   5.549   8.984  0.3502  0.1417  0.1650
 6707TIP3    H141756   5.772   5.600   8.904  1.2952  0.6048  0.3120
 6707TIP3    H241757   5.747   5.463   8.962 -2.3695  1.1710  0.3111
 6708TIP3   OH241758   1.965   6.486   8.987  0.0746 -0.1951 -0.2043
 6708TIP3    H141759   1.887   6.475   9.042 -0.1118 -0.8308 -0.5899
 6708TIP3    H241760   1.934   6.470   8.898  0.0440  2.3182 -0.7084
 6709TIP3   OH241761   6.208   2.298   1.331 -0.2500  0.7767 -0.2042
 6709TIP3    H141762   6.153   2.273   1.257 -1.0268 -0.0241  0.6190
 6709TIP3    H241763   6.146   2.334   1.395  0.2295  0.1838  0.5994
 6710TIP3   OH241764   4.730   4.031   0.526 -0.0773  0.4368  0.4966
 6710TIP3    H141765   4.640   4.032   0.494  0.8898  2.9842 -2.5895
 6710TIP3    H241766   4.744   4.119   0.560  1.3573  0.1817  0.6117
 6711TIP3   OH241767   0.197   4.493   8.208  0.7746 -0.3425 -0.4376
 6711TIP3    H141768   0.125   4.544   8.244 -1.3672 -2.1827 -1.8335
 6711TIP3    H241769   0.256   4.558   8.170 -0.0771  1.2181  0.7852
 6712TIP3   OH241770   2.190   5.653   2.367  0.2619  0.1054 -0.8200
 6712TIP3    H141771   2.255   5.722   2.349 -1.1686  1.9330  0.6328
 6712TIP3    H241772   2.207   5.628   2.458  0.7074 -1.4776 -1.3032
 6713TIP3   OH241773   1.636   1.138   2.162 -0.0258  0.1840  0.2413
 6713TIP3    H141774   1.702   1.089   2.210 -0.3647 -1.1839 -0.6415
 6713TIP3    H241775   1.641   1.227   2.197  1.3058 -0.2378  1.1577
 6714TIP3   OH241776   5.075   2.661   3.158 -0.2580  0.7839 -0.1245
 6714TIP3    H141777   5.129   2.655   3.079  0.2427 -1.1851  0.3112
 6714TIP3    H241778   5.102   2.742   3.200  4.4669 -1.2610  1.4733
 6715TIP3   OH241779   1.229   0.768   7.737 -0.0050 -0.3101  0.0068
 6715TIP3    H141780   1.178   0.848   7.722  1.4062  0.5307 -0.4657
 6715TIP3    H241781   1.317   0.789   7.705  1.1282 -1.1265  2.3664
 6716TIP3   OH241782   1.128   1.556   1.573 -0.3542 -0.2025 -0.1632
 6716TIP3    H141783   1.171   1.528   1.492 -0.1621  0.3155 -0.2435
 6716TIP3    H241784   1.127   1.652   1.568 -1.4535 -0.1978 -0.1352
 6717TIP3   OH241785   5.024   3.705   7.935 -0.1732 -0.2941 -0.5475
 6717TIP3    H141786   4.957   3.637   7.922  0.0906 -0.5329 -0.6763
 6717TIP3    H241787   5.101   3.671   7.890  0.3122 -0.4398  0.3664
 6718TIP3   OH241788   4.589   5.334   1.382  0.0185  0.5112  0.1791
 6718TIP3    H141789   4.609   5.242   1.364  0.9070  0.7253 -0.0105
 6718TIP3    H241790   4.675   5.377   1.380 -0.3126  1.2242  0.9540
 6719TIP3   OH241791   2.086   4.397   7.517  1.1933  0.2749  0.3159
 6719TIP3    H141792   2.021   4.345   7.564  0.8780  1.3215  1.0670
 6719TIP3    H241793   2.091   4.480   7.565  1.8019  0.8884 -0.7570
 6720TIP3   OH241794   5.245   5.333   0.099  0.5290 -0.3925  0.2151
 6720TIP3    H141795   5.224   5.421   0.131  0.1481 -0.4637  0.1593
 6720TIP3    H241796   5.243   5.278   0.177 -1.5830 -0.7935 -0.0621
 6721TIP3   OH241797   2.057   3.208   1.427 -0.5363 -0.6253  0.1821
 6721TIP3    H141798   1.970   3.247   1.416  0.1767  0.6611 -1.3220
 6721TIP3    H241799   2.110   3.250   1.360  1.3350 -1.1675  1.2636
 6722TIP3   OH241800   3.354   0.815   2.187  0.0479  0.3272 -0.1843
 6722TIP3    H141801   3.266   0.780   2.171 -0.3955  1.2481  0.1356
 6722TIP3    H241802   3.410   0.738   2.193 -0.9705 -0.3667  0.9817
 6723TIP3   OH241803   4.514   2.910   3.284  0.9629  0.0945  0.2068
 6723TIP3    H141804   4.461   2.833   3.305  0.1520  0.5627 -0.0780
 6723TIP3    H241805   4.536   2.947   3.370  1.9777 -0.8381  0.3814
 6724TIP3   OH241806   4.035   6.444   2.070 -0.5240 -0.1756  0.3633
 6724TIP3    H141807   3.971   6.422   2.137 -1.9000  1.4118 -0.3704
 6724TIP3    H241808   4.023   6.378   2.002  0.8405 -1.7617  1.5593
 6725TIP3   OH241809   6.408   1.396   1.409 -0.2992 -0.4751  0.3897
 6725TIP3    H141810   6.471   1.324   1.420 -0.7976 -0.7758  1.3890
 6725TIP3    H241811   6.415   1.447   1.489 -0.4603  0.2006 -0.0145
 6726TIP3   OH241812   0.858   4.438   1.997 -0.2908 -0.8702  0.1496
 6726TIP3    H141813   0.856   4.347   1.970 -1.4343 -0.4930 -1.1390
 6726TIP3    H241814   0.767   4.458   2.020  0.0208 -0.1643  0.8315
 6727TIP3   OH241815   6.663   4.470   9.055 -0.4665  0.3818 -0.5501
 6727TIP3    H141816   6.594   4.471   9.121 -0.3705 -3.4541 -0.1468
 6727TIP3    H241817   6.742   4.495   9.101 -0.9961  1.5103 -0.2132
 6728TIP3   OH241818   6.274   4.518   0.505 -0.0711  0.4941  0.2218
 6728TIP3    H141819   6.261   4.485   0.593 -0.6301  2.0378  0.7507
 6728TIP3    H241820   6.365   4.550   0.504  0.1965 -0.2616 -0.0254
 6729TIP3   OH241821   3.885   5.613   8.050 -0.0005  0.2340  0.4426
 6729TIP3    H141822   3.911   5.705   8.055  1.8780 -0.3183  2.0727
 6729TIP3    H241823   3.820   5.603   8.119 -1.6161  0.6873 -0.9395
 6730TIP3   OH241824   3.144   2.391   8.840  0.0251  0.3211 -0.2538
 6730TIP3    H141825   3.153   2.483   8.863  0.8253  0.0463  0.6322
 6730TIP3    H241826   3.229   2.366   8.805 -0.4547  0.1249 -1.2974
 6731TIP3   OH241827   2.784   3.131   2.718  0.5702  0.2081 -0.1789
 6731TIP3    H141828   2.825   3.051   2.688  0.3477  0.2657 -0.6512
 6731TIP3    H241829   2.691   3.108   2.729  0.5606  0.3196 -0.0216
 6732TIP3   OH241830   1.523   3.016   1.350  0.5306  0.2732 -0.0169
 6732TIP3    H141831   1.553   3.104   1.331  0.6387  0.0512 -0.8909
 6732TIP3    H241832   1.473   2.990   1.272  1.8277 -1.0289 -0.4529
 6733TIP3   OH241833   6.079   1.316   8.985 -0.2094  0.2275 -0.2359
 6733TIP3    H141834   6.080   1.412   8.982 -0.3396  0.2944  1.1334
 6733TIP3    H241835   6.050   1.289   8.898  1.5062  1.3757 -1.2156
 6734TIP3   OH241836   6.016   2.338   9.067  0.3561  0.0385  0.2627
 6734TIP3    H141837   5.999   2.287   9.146 -1.9940 -0.8842 -0.7384
 6734TIP3    H241838   6.026   2.273   8.997  0.0379  0.8720 -0.5894
 6735TIP3   OH241839   5.446   4.057   0.476  0.1492 -0.3756  0.4428
 6735TIP3    H141840   5.358   4.058   0.439  0.4044 -0.0786 -0.1725
 6735TIP3    H241841   5.433   4.031   0.567 -0.7062  0.8385  0.6948
 6736TIP3   OH241842   4.894   6.445   8.040  0.1946  0.1392 -0.6917
 6736TIP3    H141843   4.891   6.536   8.009 -0.6891  0.6007  0.6429
 6736TIP3    H241844   4.802   6.418   8.043  0.4269 -0.6563 -0.6917
 6737TIP3   OH241845   1.345   5.783   2.673  0.2940 -0.3399 -0.2976
 6737TIP3    H141846   1.422   5.798   2.619  1.5355  0.4100  1.5964
 6737TIP3    H241847   1.380   5.758   2.758 -1.5936 -1.5456  0.1836
 6738TIP3   OH241848   4.637   6.580   8.511 -0.8900  0.0828 -0.3507
 6738TIP3    H141849   4.625   6.666   8.550 -0.8937  1.2105 -2.6768
 6738TIP3    H241850   4.726   6.554   8.535 -1.3874  0.0213  1.5808
 6739TIP3   OH241851   0.687   2.050   2.610  0.8809 -0.4989 -0.0020
 6739TIP3    H141852   0.736   2.000   2.676  2.4203  1.0705  0.1363
 6739TIP3    H241853   0.716   2.140   2.622 -0.5187  0.1855 -1.3525
 6740TIP3   OH241854   2.026   2.079   8.269 -0.2145  0.5164 -0.6311
 6740TIP3    H141855   1.980   2.156   8.301 -0.6737  0.0209 -0.0735
 6740TIP3    H241856   2.071   2.109   8.190 -1.1089  1.1347 -0.9224
 6741TIP3   OH241857   0.688   6.255   8.269  0.2405  0.6600  0.0327
 6741TIP3    H141858   0.765   6.243   8.214  0.1203  0.9023 -0.1924
 6741TIP3    H241859   0.719   6.306   8.344  0.3918  0.3824  0.1577
 6742TIP3   OH241860   3.931   5.188   8.607 -0.0865  0.5633  0.1636
 6742TIP3    H141861   3.850   5.154   8.569  0.2773 -0.6659  0.4500
 6742TIP3    H241862   3.927   5.162   8.699  0.6972  0.3588  0.1495
 6743TIP3   OH241863   2.876   5.737   7.784  0.3388 -0.2409  0.1750
 6743TIP3    H141864   2.853   5.682   7.709  0.8671  1.2580 -1.1619
 6743TIP3    H241865   2.968   5.758   7.771  0.5084 -0.1903  1.4174
 6744TIP3   OH241866   1.864   4.291   7.625  0.0581  0.3715 -0.4313
 6744TIP3    H141867   1.860   4.286   7.720  2.2010 -0.2966 -0.3254
 6744TIP3    H241868   1.784   4.249   7.595  0.4155 -1.5209  1.0680
 6745TIP3   OH241869   0.944   5.882   0.488 -0.4332  0.0943 -0.3039
 6745TIP3    H141870   0.851   5.903   0.496 -0.6130 -1.3176  2.7323
 6745TIP3    H241871   0.948   5.816   0.418 -1.5403  0.8416 -1.1026
 6746TIP3   OH241872   4.999   1.805   9.064 -0.6517 -0.0563 -0.9396
 6746TIP3    H141873   4.985   1.887   9.111  0.1067  0.4848 -1.6232
 6746TIP3    H241874   5.034   1.745   9.130  2.0215  1.1923 -1.1120
 6747TIP3   OH241875   4.147   2.398   0.232  0.3950 -0.0255 -0.1320
 6747TIP3    H141876   4.079   2.446   0.279 -0.2163 -2.9921  2.3238
 6747TIP3    H241877   4.229   2.429   0.269  0.0624 -0.2232  0.7830
 6748TIP3   OH241878   2.904   4.174   8.435 -0.0949 -0.3173  0.4165
 6748TIP3    H141879   2.836   4.136   8.492  0.9302 -1.1243  1.1390
 6748TIP3    H241880   2.938   4.248   8.486  0.4678 -0.7249  0.6428
 6749TIP3   OH241881   6.310   0.258   0.667  0.1614 -0.4236  0.3447
 6749TIP3    H141882   6.334   0.182   0.613  0.1531 -0.3522  0.2399
 6749TIP3    H241883   6.223   0.282   0.638  0.4134  0.0160 -0.0662
 6750TIP3   OH241884   6.072   6.576   2.068  0.2457  0.2813  0.0676
 6750TIP3    H141885   6.017   6.649   2.094  0.5947  1.3024 -1.8618
 6750TIP3    H241886   6.159   6.598   2.101  1.1634  2.6044 -3.3913
 6751TIP3   OH241887   0.976   5.042   2.976  0.3084  0.3367 -0.5236
 6751TIP3    H141888   1.054   5.018   3.026  1.3850  1.1540 -1.7445
 6751TIP3    H241889   0.965   5.136   2.991  0.2065  0.4426 -1.2382
 6752TIP3   OH241890   0.292   1.323   8.230 -0.2786  0.2175 -0.0025
 6752TIP3    H141891   0.375   1.281   8.207  0.8369  1.1825  1.9932
 6752TIP3    H241892   0.291   1.404   8.180 -0.0078  0.2063 -0.0278
 6753TIP3   OH241893   4.151   1.829   2.823  0.0552 -0.0677 -0.5546
 6753TIP3    H141894   4.185   1.754   2.871 -0.2262 -0.4351 -0.9221
 6753TIP3    H241895   4.190   1.822   2.736  0.7140  0.7020 -0.3387
 6754TIP3   OH241896   3.170   3.782   8.115  0.3532 -0.4189 -0.0668
 6754TIP3    H141897   3.231   3.761   8.044  1.9652 -0.9682  1.4192
 6754TIP3    H241898   3.132   3.866   8.089  1.5897 -0.1611 -1.1500
 6755TIP3   OH241899   3.803   4.221   8.959  0.2570  0.2789 -0.2805
 6755TIP3    H141900   3.809   4.199   9.052 -1.0061  0.4765 -0.1307
 6755TIP3    H241901   3.782   4.137   8.917 -1.8866  0.6372 -0.0311
 6756TIP3   OH241902   4.467   3.947   0.511  0.2322  0.2055 -0.0826
 6756TIP3    H141903   4.390   3.935   0.567  0.1008 -0.3945 -0.3872
 6756TIP3    H241904   4.471   3.868   0.458 -0.9916  1.6914 -2.5511
 6757TIP3   OH241905   5.901   4.336   0.497  0.2920 -0.2370 -0.3070
 6757TIP3    H141906   5.862   4.256   0.534 -0.0751 -0.7520 -1.7008
 6757TIP3    H241907   5.994   4.317   0.491  0.5349  0.3111  1.4048
 6758TIP3   OH241908   5.946   1.360   3.484 -0.1768  0.1758 -0.3217
 6758TIP3    H141909   6.029   1.358   3.437 -1.0316  1.3598 -1.9921
 6758TIP3    H241910   5.880   1.357   3.415 -1.5524 -1.0279  0.9770
 6759TIP3   OH241911   5.346   3.764   2.695 -0.3956  0.4150  0.0374
 6759TIP3    H141912   5.414   3.710   2.654 -0.8868  0.3632 -0.7239
 6759TIP3    H241913   5.395   3.834   2.740  0.1105  1.5218 -2.1060
 6760TIP3   OH241914   0.310   2.842   1.285  0.5494 -0.4401 -0.3603
 6760TIP3    H141915   0.239   2.803   1.335 -0.7075 -0.7785 -2.3335
 6760TIP3    H241916   0.356   2.898   1.349 -0.6624 -1.2241  1.2593
 6761TIP3   OH241917   2.212   2.329   0.614  0.1292 -0.5651  0.3176
 6761TIP3    H141918   2.264   2.310   0.536  0.0672 -2.5281  0.7062
 6761TIP3    H241919   2.265   2.391   0.664  0.4047  0.3110 -1.0109
 6762TIP3   OH241920   0.248   3.265   8.721  0.1259  0.5870  0.2717
 6762TIP3    H141921   0.203   3.293   8.641  0.2094  1.5933  0.5598
 6762TIP3    H241922   0.311   3.335   8.738  2.0420 -0.9169 -0.2785
 6763TIP3   OH241923   5.253   2.514   3.462 -0.4660 -0.9091  0.1167
 6763TIP3    H141924   5.181   2.453   3.481 -0.4684 -0.7294  0.7314
 6763TIP3    H241925   5.312   2.504   3.537 -0.9375  0.5332  0.7014
 6764TIP3   OH241926   1.502   0.423   3.094 -0.2992  0.2725 -0.1418
 6764TIP3    H141927   1.456   0.487   3.040  0.0249  0.1718 -0.5338
 6764TIP3    H241928   1.550   0.476   3.158 -1.0369  0.3762  0.3405
 6765TIP3   OH241929   5.037   1.305   2.348  0.2894 -0.1942  0.4595
 6765TIP3    H141930   5.041   1.276   2.440 -1.0853  0.6324  0.8069
 6765TIP3    H241931   5.102   1.250   2.303  0.4278 -1.1619  1.7744
 6766TIP3   OH241932   3.119   2.453   2.173 -0.0949  0.0711  0.2917
 6766TIP3    H141933   3.140   2.541   2.142 -0.5512  0.7062  1.7189
 6766TIP3    H241934   3.055   2.420   2.110 -1.7096  1.6916  0.9804
 6767TIP3   OH241935   0.061   2.624   0.178  0.2794 -0.6280  0.3457
 6767TIP3    H141936   0.077   2.627   0.083  0.1573  0.1128  0.3402
 6767TIP3    H241937   0.059   2.716   0.204 -0.2112 -0.8141  0.9775
 6768TIP3   OH241938   3.876   1.219   2.564 -0.1408  0.0627  0.2500
 6768TIP3    H141939   3.918   1.171   2.635  0.7020  0.5543  0.1002
 6768TIP3    H241940   3.833   1.152   2.512 -0.6925 -0.3101  1.1687
 6769TIP3   OH241941   1.582   3.312   0.655 -0.1072  0.4046  0.4326
 6769TIP3    H141942   1.509   3.362   0.691 -0.7448 -0.3415  0.1986
 6769TIP3    H241943   1.618   3.265   0.730 -0.9004 -0.4869  0.2761
 6770TIP3   OH241944   5.218   3.117   0.778 -0.7160 -0.2207  0.0890
 6770TIP3    H141945   5.312   3.097   0.777 -0.8763 -1.2457  1.7314
 6770TIP3    H241946   5.213   3.212   0.781  0.2296 -0.1053 -1.1440
 6771TIP3   OH241947   4.102   0.777   2.507  0.3030  0.1393  0.7988
 6771TIP3    H141948   4.088   0.835   2.432  0.3969 -1.0123 -0.1462
 6771TIP3    H241949   4.043   0.704   2.492  0.7619 -0.3976  1.5319
 6772TIP3   OH241950   1.149   5.517   2.538 -0.3603  0.4471 -0.3616
 6772TIP3    H141951   1.145   5.471   2.455  0.4784  0.5103 -0.4453
 6772TIP3    H241952   1.192   5.456   2.598  1.2226  1.2594 -0.6032
 6773TIP3   OH241953   2.051   1.768   7.569  0.3432 -0.2532 -0.4356
 6773TIP3    H141954   2.108   1.772   7.493  0.2914 -1.4033 -0.5533
 6773TIP3    H241955   1.994   1.844   7.561  1.0489  0.2209 -0.9714
 6774TIP3   OH241956   6.119   6.283   1.007 -0.4489 -0.0707 -0.3391
 6774TIP3    H141957   6.111   6.212   1.070  0.9853  0.0267  0.0016
 6774TIP3    H241958   6.169   6.246   0.934  2.5925  1.1458  0.9359
 6775TIP3   OH241959   0.704   6.241   1.450 -0.2604  0.2188 -0.0132
 6775TIP3    H141960   0.779   6.208   1.499  0.2309 -1.3063 -1.6896
 6775TIP3    H241961   0.632   6.241   1.513  1.0666  1.5679  1.5795
 6776TIP3   OH241962   0.013   0.663   1.594 -0.2717 -0.2597 -0.2742
 6776TIP3    H141963   0.010   0.568   1.596  0.9029 -0.2994  1.1447
 6776TIP3    H241964  -0.006   0.690   1.683 -0.2639  0.8258 -0.5793
 6777TIP3   OH241965   2.844   4.338   0.176  0.2669 -0.2346  0.0890
 6777TIP3    H141966   2.777   4.396   0.141  0.6485  0.4173  0.4275
 6777TIP3    H241967   2.851   4.268   0.111 -2.9343 -2.0448  1.4841
 6778TIP3   OH241968   2.941   6.454   0.272  0.1465 -0.3356  0.7201
 6778TIP3    H141969   2.978   6.524   0.219 -0.7286 -0.6029 -0.2967
 6778TIP3    H241970   2.984   6.461   0.357  0.3752  1.1538  0.4931
 6779TIP3   OH241971   1.209   5.552   8.307 -0.0322 -0.2120  0.1391
 6779TIP3    H141972   1.222   5.568   8.400  3.3528 -1.7523  0.0835
 6779TIP3    H241973   1.282   5.596   8.264 -1.3256  0.1825 -1.8121
 6780TIP3   OH241974   0.904   1.558   7.919  0.0064 -0.6934  0.4978
 6780TIP3    H141975   0.835   1.577   7.983 -0.3748  0.2909 -0.1683
 6780TIP3    H241976   0.856   1.537   7.839  0.4827 -1.2380  0.3532
 6781TIP3   OH241977   5.762   3.266   8.103  0.2779  0.0308  0.8179
 6781TIP3    H141978   5.818   3.320   8.047  0.6328 -0.9651  0.1849
 6781TIP3    H241979   5.680   3.316   8.109  1.1802  1.4654  1.7010
 6782TIP3   OH241980   0.568   6.347   3.590  0.0202 -0.2859  0.0293
 6782TIP3    H141981   0.649   6.353   3.641 -0.0257  0.5030  0.0228
 6782TIP3    H241982   0.562   6.432   3.545 -0.4534 -0.5977 -0.5048
 6783TIP3   OH241983   2.911   5.754   7.079  0.3174  0.0259  0.6464
 6783TIP3    H141984   2.943   5.665   7.062  0.2439  0.3522 -1.4122
 6783TIP3    H241985   2.817   5.749   7.063  0.0790  0.1689  1.9334
 6784TIP3   OH241986   4.691   0.177   1.298 -0.0617 -0.2737 -0.3332
 6784TIP3    H141987   4.665   0.208   1.385 -1.0115  0.4302 -0.8512
 6784TIP3    H241988   4.744   0.100   1.315  0.2905  0.2176  0.9004
 6785TIP3   OH241989   6.463   2.581   1.513  0.1840  0.0054  0.3185
 6785TIP3    H141990   6.455   2.566   1.418  4.5957  0.6374 -0.3765
 6785TIP3    H241991   6.454   2.494   1.551 -1.0105 -0.3511 -0.6902
 6786TIP3   OH241992   4.576   2.630   1.361 -0.6913 -0.6588 -0.8084
 6786TIP3    H141993   4.661   2.612   1.322 -0.8154 -1.5368 -0.6792
 6786TIP3    H241994   4.520   2.559   1.330 -1.6280  0.4007 -1.6440
 6787TIP3   OH241995   4.003   1.288   1.621  0.2269 -0.1156  1.0074
 6787TIP3    H141996   4.060   1.235   1.677 -0.3716 -1.3530  0.4789
 6787TIP3    H241997   3.966   1.226   1.559 -2.6616  0.3960  2.0526
 6788TIP3   OH241998   4.075   5.569   1.857 -0.0159  0.1468 -0.2014
 6788TIP3    H141999   4.087   5.476   1.876 -1.0472 -0.6470 -2.9171
 6788TIP3    H242000   4.024   5.603   1.931 -2.2686 -2.2128 -0.5251
 6789TIP3   OH242001   0.482   4.251   0.611  0.2893 -0.0636  0.2345
 6789TIP3    H142002   0.421   4.185   0.644 -0.5683  1.2568  1.4164
 6789TIP3    H242003   0.506   4.303   0.688  2.4032 -0.1086 -0.3194
 6790TIP3   OH242004   4.686   2.364   0.056 -0.3142  0.1075 -0.0200
 6790TIP3    H142005   4.739   2.349   0.134 -1.1264  0.8308  0.7022
 6790TIP3    H242006   4.606   2.314   0.071  0.0090 -0.7052 -0.9450
 6791TIP3   OH242007   3.504   5.263   2.788 -0.0823 -0.3908 -0.3854
 6791TIP3    H142008   3.508   5.335   2.850 -0.3649 -0.3409 -0.4265
 6791TIP3    H242009   3.562   5.196   2.826  1.2362  0.3568 -1.0066
 6792TIP3   OH242010   6.469   5.643   0.784  1.0292 -0.3551  0.4643
 6792TIP3    H142011   6.552   5.688   0.802  0.6274  0.3850  0.5279
 6792TIP3    H242012   6.425   5.641   0.869  0.6145  0.0363  0.2626
 6793TIP3   OH242013   5.374   0.439   1.391  0.0271 -0.2144 -0.6124
 6793TIP3    H142014   5.356   0.387   1.313 -0.3149  0.8647 -1.2700
 6793TIP3    H242015   5.399   0.526   1.358 -0.5376  0.3899  0.4798
 6794TIP3   OH242016   0.795   5.207   0.286  0.3424 -0.0391 -0.3302
 6794TIP3    H142017   0.774   5.299   0.271 -1.7221 -0.1791  1.2224
 6794TIP3    H242018   0.850   5.183   0.212 -0.3385  2.0231 -1.6127
 6795TIP3   OH242019   3.835   2.265   8.228  0.5629  0.0370 -0.0056
 6795TIP3    H142020   3.791   2.317   8.161  1.4884 -0.1869 -0.8091
 6795TIP3    H242021   3.868   2.329   8.292 -1.0500  0.1974  0.7184
 6796TIP3   OH242022   2.614   6.645   2.202 -0.1447 -0.3695 -0.0374
 6796TIP3    H142023   2.691   6.598   2.169  0.8478  1.5747 -0.6542
 6796TIP3    H242024   2.563   6.578   2.249  0.5970 -2.2930 -1.7957
 6797TIP3   OH242025   1.662   3.454   1.936  0.2582 -0.1867  0.6455
 6797TIP3    H142026   1.634   3.426   2.023 -1.3048 -0.1004  0.1934
 6797TIP3    H242027   1.730   3.391   1.912  0.7795 -0.1568  1.9561
 6798TIP3   OH242028   6.551   0.126   0.017 -0.3946  0.7241 -0.2919
 6798TIP3    H142029   6.571   0.133  -0.077  0.9636 -0.0593 -0.0944
 6798TIP3    H242030   6.534   0.216   0.045 -0.3433  1.0232 -1.1909
 6799TIP3   OH242031   3.188   5.991   1.714  0.1721  0.2493  0.5603
 6799TIP3    H142032   3.204   5.939   1.793  0.5834  2.5212  2.0820
 6799TIP3    H242033   3.141   6.068   1.746 -1.2151  0.4219 -1.7291
 6800TIP3   OH242034   4.902   3.543   2.642 -0.1052 -0.2143  0.3382
 6800TIP3    H142035   4.847   3.592   2.702  1.6771 -0.7494  2.5508
 6800TIP3    H242036   4.991   3.555   2.676  0.7678 -2.1084 -1.0857
 6801TIP3   OH242037   0.407   2.026   7.411 -0.8347  0.1298  0.1951
 6801TIP3    H142038   0.494   1.991   7.392  0.0171  1.0400  2.0896
 6801TIP3    H242039   0.354   1.949   7.432  0.7169 -0.2762  3.1961
 6802TIP3   OH242040   4.839   0.059   3.116 -0.3048  0.1949  0.1187
 6802TIP3    H142041   4.897   0.135   3.122 -0.2159  0.3263 -1.7984
 6802TIP3    H242042   4.765   0.080   3.172  0.1545  1.2759  0.3344
 6803TIP3   OH242043   0.224   4.091   8.687  0.1520  0.3517  0.2173
 6803TIP3    H142044   0.202   4.150   8.760 -1.3672 -0.8219  0.7517
 6803TIP3    H242045   0.182   4.132   8.611 -0.5716  0.1799  0.5139
 6804TIP3   OH242046   4.751   5.577   1.347  0.1362 -0.5070  0.3819
 6804TIP3    H142047   4.810   5.610   1.416  1.9167  0.2363 -1.3901
 6804TIP3    H242048   4.796   5.501   1.311 -1.0541 -1.2362  0.3704
 6805TIP3   OH242049   5.585   6.295   8.344  0.3452 -0.0604 -0.0704
 6805TIP3    H142050   5.561   6.262   8.257 -0.8539  1.6205 -0.4380
 6805TIP3    H242051   5.639   6.226   8.382 -0.1208 -1.3758 -1.6676
 6806TIP3   OH242052   4.497   5.291   0.198  0.1578  0.5846  0.2328
 6806TIP3    H142053   4.404   5.270   0.203  0.3002 -0.1775 -0.1161
 6806TIP3    H242054   4.513   5.302   0.104  0.1300  2.1368  0.3825
 6807TIP3   OH242055   4.602   1.711   1.355  0.4968  0.2080  0.2056
 6807TIP3    H142056   4.657   1.737   1.428  0.5054 -1.3406  0.7821
 6807TIP3    H242057   4.571   1.623   1.378 -2.1463  0.9810 -0.1487
 6808TIP3   OH242058   6.475   5.747   2.928  0.6072  0.2276  0.2240
 6808TIP3    H142059   6.506   5.832   2.897 -1.2293  0.2033 -1.9755
 6808TIP3    H242060   6.547   5.687   2.909  0.8499  0.8416 -0.8843
 6809TIP3   OH242061   0.266   4.962   0.925  0.3308 -0.0202  0.2512
 6809TIP3    H142062   0.249   5.009   0.843  0.0465 -1.2622 -0.4355
 6809TIP3    H242063   0.361   4.959   0.932  0.3585  0.9710  0.5133
 6810TIP3   OH242064   6.548   2.647   8.921  0.3839  0.8669  0.0015
 6810TIP3    H142065   6.596   2.630   8.839 -0.5600 -0.5684 -0.2964
 6810TIP3    H242066   6.495   2.569   8.934 -1.2508  2.0521  0.7737
 6811TIP3   OH242067   0.293   5.414   3.526 -0.4486  0.3401  0.1695
 6811TIP3    H142068   0.382   5.446   3.512 -0.6031  1.3586  1.2762
 6811TIP3    H242069   0.289   5.331   3.479  0.0053  1.8931 -2.8718
 6812TIP3   OH242070   2.000   4.209   8.409 -0.0704  0.0809  0.5936
 6812TIP3    H142071   1.931   4.184   8.471  0.9819  0.9066  2.1789
 6812TIP3    H242072   1.956   4.259   8.341 -1.2398 -0.6788  0.7729
 6813TIP3   OH242073   4.009   3.621   8.529 -0.3039 -0.2880  0.1507
 6813TIP3    H142074   3.960   3.550   8.488  1.4231 -1.0806 -0.6667
 6813TIP3    H242075   4.037   3.676   8.455  0.5975 -0.2561  0.4986
 6814TIP3   OH242076   1.567   5.852   2.268 -0.2236 -0.0541  0.3123
 6814TIP3    H142077   1.606   5.770   2.239 -0.3369  0.2261 -0.6816
 6814TIP3    H242078   1.596   5.861   2.359 -0.6942 -1.4692  0.6265
 6815TIP3   OH242079   6.022   2.857   0.904  0.6435 -0.5650 -0.0343
 6815TIP3    H142080   6.049   2.767   0.886  0.4883 -0.7191  0.4746
 6815TIP3    H242081   5.997   2.856   0.996 -1.4289 -0.5177 -0.5428
 6816TIP3   OH242082   0.698   0.129   8.187 -0.8263 -0.7902  0.2622
 6816TIP3    H142083   0.680   0.202   8.246 -1.1202 -1.5293  1.1107
 6816TIP3    H242084   0.613   0.086   8.176 -0.4974 -1.5104  0.4660
 6817TIP3   OH242085   2.382   1.727   1.157  0.1080 -0.2254  0.8494
 6817TIP3    H142086   2.474   1.722   1.181  0.9940  0.1142 -2.0623
 6817TIP3    H242087   2.375   1.673   1.077 -1.2765  2.8112 -1.2897
 6818TIP3   OH242088   2.356   3.723   0.672  0.0600  0.3211  0.3729
 6818TIP3    H142089   2.384   3.684   0.589 -0.1680 -1.6202  1.1618
 6818TIP3    H242090   2.370   3.654   0.737  0.2451  1.7992  1.9700
 6819TIP3   OH242091   0.051   3.812   1.791 -0.2348  0.2183 -0.0724
 6819TIP3    H142092   0.029   3.720   1.805 -0.5560  0.2413 -0.4079
 6819TIP3    H242093   0.146   3.812   1.776 -0.1790 -0.0154  0.2851
 6820TIP3   OH242094   5.433   3.419   7.104 -0.6125  0.5565 -0.3700
 6820TIP3    H142095   5.465   3.340   7.148  3.0807  3.0462  2.0368
 6820TIP3    H242096   5.351   3.439   7.148  0.4531  0.1904  1.9378
 6821TIP3   OH242097   0.078   2.651   8.406  0.5747 -0.1156 -0.7127
 6821TIP3    H142098  -0.007   2.694   8.413  0.7381  0.0622  0.3984
 6821TIP3    H242099   0.140   2.723   8.396  0.6866 -0.1970 -0.5938
 6822TIP3   OH242100   0.789   1.027   1.212  0.1747  0.8939 -0.0029
 6822TIP3    H142101   0.749   1.079   1.282  0.6003  1.2576 -0.0267
 6822TIP3    H242102   0.781   1.082   1.134  0.9840  1.0974  0.0521
 6823TIP3   OH242103   3.557   6.718   0.474  0.6774 -0.2892 -0.7082
 6823TIP3    H142104   3.522   6.803   0.449 -3.3555 -0.4547  3.0316
 6823TIP3    H242105   3.629   6.738   0.534  1.2697  0.3648 -1.6195
 6824TIP3   OH242106   0.388   2.315   2.798  0.7419 -0.0532  0.2949
 6824TIP3    H142107   0.407   2.221   2.802  1.5083  0.0866 -0.0415
 6824TIP3    H242108   0.463   2.357   2.840  0.1403  0.3866  0.9552
 6825TIP3   OH242109   6.377   3.562   1.945  0.6010  0.0985 -1.2325
 6825TIP3    H142110   6.365   3.577   2.038  1.1330 -2.1488 -0.7307
 6825TIP3    H242111   6.314   3.619   1.902 -1.8410 -1.0033  0.6323
 6826TIP3   OH242112   3.017   2.425   0.023  0.7405 -0.2310  0.2326
 6826TIP3    H142113   2.944   2.481  -0.001  0.1044 -0.9523  0.4135
 6826TIP3    H242114   3.082   2.438  -0.046  0.3479  0.2593 -0.0484
 6827TIP3   OH242115   2.492   5.302   3.336 -0.6690  0.6192 -0.2383
 6827TIP3    H142116   2.554   5.312   3.264  0.4024 -1.6949  0.2712
 6827TIP3    H242117   2.505   5.381   3.389 -0.3231  1.5833 -1.7145
 6828TIP3   OH242118   6.063   4.115   8.864  0.1563  0.3065  0.2895
 6828TIP3    H142119   6.119   4.149   8.934  0.6169 -1.2320  0.7116
 6828TIP3    H242120   6.118   4.051   8.818 -1.3210 -1.5593  0.9769
 6829TIP3   OH242121   1.925   4.596   0.872  0.2768  0.8317 -0.3363
 6829TIP3    H142122   1.889   4.683   0.857 -0.3797  0.7549  0.6631
 6829TIP3    H242123   1.962   4.570   0.788  0.2780  1.9774 -0.7092
 6830TIP3   OH242124   2.863   0.896   1.735 -0.3868 -0.3150  0.2327
 6830TIP3    H142125   2.949   0.938   1.736 -0.0986 -0.9054  0.1525
 6830TIP3    H242126   2.876   0.813   1.781 -1.1761  0.1044  1.2555
 6831TIP3   OH242127   2.803   5.157   7.596  0.2308  0.7260 -0.1329
 6831TIP3    H142128   2.802   5.226   7.530 -0.6160 -0.0503 -0.9416
 6831TIP3    H242129   2.711   5.144   7.619  0.4745  0.6332  0.8388
 6832TIP3   OH242130   6.119   3.332   7.798  0.2393 -0.1992 -0.6767
 6832TIP3    H142131   6.066   3.253   7.799  0.4041 -0.3410  1.4387
 6832TIP3    H242132   6.201   3.306   7.839 -0.6172  1.5511  2.5013
 6833TIP3   OH242133   3.889   3.476   2.947  0.1948 -0.3582  0.2195
 6833TIP3    H142134   3.823   3.408   2.935 -0.1919  0.0906 -0.2533
 6833TIP3    H242135   3.842   3.558   2.932  1.0762 -0.0711 -1.1795
 6834TIP3   OH242136   4.951   3.472   0.840  0.2173  0.2443 -0.2338
 6834TIP3    H142137   4.858   3.460   0.857  1.1397 -1.7201  5.1488
 6834TIP3    H242138   4.977   3.545   0.896  2.0931  0.2521 -1.0330
 6835TIP3   OH242139   4.936   3.614   3.437  0.0050  0.1384  0.1369
 6835TIP3    H142140   4.955   3.692   3.386 -0.3310 -1.0227 -1.8703
 6835TIP3    H242141   4.850   3.630   3.475 -0.1128  0.6961 -0.3591
 6836TIP3   OH242142   5.535   0.620   1.259 -0.1324 -0.1429  0.0527
 6836TIP3    H142143   5.539   0.695   1.200  2.1151  0.1232  0.4420
 6836TIP3    H242144   5.557   0.545   1.205 -0.3907 -0.2430  0.0832
 6837TIP3   OH242145   3.430   1.990   1.440  0.0154  0.0024  0.3707
 6837TIP3    H142146   3.362   2.053   1.464  0.7999  0.9454  0.1693
 6837TIP3    H242147   3.382   1.909   1.424 -1.0500  0.6097  0.3554
 6838TIP3   OH242148   6.313   4.512   8.146 -0.5055  0.2496 -0.0507
 6838TIP3    H142149   6.251   4.545   8.211  0.1532  0.5615  0.4267
 6838TIP3    H242150   6.269   4.437   8.107 -1.3469  0.7055  0.0014
 6839TIP3   OH242151   4.333   5.637   1.782  0.0739  0.5643  0.1979
 6839TIP3    H142152   4.250   5.589   1.791  0.5093 -0.4461 -0.8809
 6839TIP3    H242153   4.387   5.605   1.854  0.2907 -0.4334 -0.3995
 6840TIP3   OH242154   5.655   6.689   0.343  0.7307 -0.2688  0.2159
 6840TIP3    H142155   5.617   6.721   0.424 -2.3820  0.9566 -1.5286
 6840TIP3    H242156   5.711   6.761   0.312 -0.7798  0.7305 -0.3092
 6841TIP3   OH242157   4.097   6.303   1.234  0.1711  0.0979  0.2372
 6841TIP3    H142158   4.035   6.233   1.252 -0.8781  0.5522 -1.3978
 6841TIP3    H242159   4.053   6.383   1.265  0.2181  0.3441 -0.3211
 6842TIP3   OH242160   2.077   6.031   2.412 -0.0142  0.0500 -0.1431
 6842TIP3    H142161   2.029   5.953   2.385 -2.1489  0.8887  1.0110
 6842TIP3    H242162   2.100   6.015   2.503  0.5530  0.3346 -0.2260
 6843TIP3   OH242163   1.170   3.072   1.773 -0.2541 -0.5062  0.1222
 6843TIP3    H142164   1.157   3.147   1.714  0.6068 -1.1823 -0.9698
 6843TIP3    H242165   1.190   3.112   1.857  0.8025  0.5179 -0.5765
 6844TIP3   OH242166   1.638   0.158   0.665  0.1006  0.4099 -0.1775
 6844TIP3    H142167   1.579   0.145   0.739  1.3107 -1.7072  0.5043
 6844TIP3    H242168   1.588   0.131   0.588 -0.3452  0.2052  0.1812
 6845TIP3   OH242169   6.575   1.456   2.020 -0.3721  0.0303  0.0007
 6845TIP3    H142170   6.529   1.506   2.088  0.5931 -0.9853  1.4655
 6845TIP3    H242171   6.540   1.367   2.029  1.9204 -0.8283  1.3090
 6846TIP3   OH242172   1.410   2.107   3.722 -0.3004 -0.6167  0.3987
 6846TIP3    H142173   1.329   2.109   3.671 -0.0746 -2.7057 -0.1712
 6846TIP3    H242174   1.416   2.193   3.762 -1.0144  0.8053 -2.3108
 6847TIP3   OH242175   5.220   0.308   7.719  0.6221 -0.0367  0.1791
 6847TIP3    H142176   5.177   0.393   7.725 -2.0488 -1.2055 -0.8482
 6847TIP3    H242177   5.197   0.263   7.800  2.5980  0.3866  1.0339
 6848TIP3   OH242178   3.226   1.288   8.321  0.3321  0.5062  0.4854
 6848TIP3    H142179   3.190   1.285   8.232 -0.5999  1.4048  0.8017
 6848TIP3    H242180   3.258   1.200   8.337  2.3950  0.8297 -1.4714
 6849TIP3   OH242181   2.232   6.528   1.824  0.1599 -0.6109  0.2020
 6849TIP3    H142182   2.249   6.536   1.918  0.9487  0.3784 -0.0077
 6849TIP3    H242183   2.227   6.434   1.808  2.5661 -0.9168  0.8159
 6850TIP3   OH242184   0.103   5.197   1.280 -0.0100 -0.2091 -0.0332
 6850TIP3    H142185   0.117   5.291   1.269  1.0399 -0.4775 -1.1826
 6850TIP3    H242186   0.113   5.182   1.374 -0.0586  0.8118  0.1402
 6851TIP3   OH242187   5.366   6.244   2.827  0.0835 -0.5866  0.0310
 6851TIP3    H142188   5.290   6.300   2.810 -1.1445 -1.5970  1.8864
 6851TIP3    H242189   5.398   6.272   2.912  1.2655 -0.7805 -0.3352
 6852TIP3   OH242190   4.655   4.280   0.651 -0.2569 -0.6837 -0.3019
 6852TIP3    H142191   4.564   4.252   0.666 -0.2539 -0.7299 -0.3662
 6852TIP3    H242192   4.647   4.371   0.620 -0.1073  0.5019  2.8155
 6853TIP3   OH242193   0.308   1.926   2.086 -0.2749  0.0448 -0.1789
 6853TIP3    H142194   0.372   1.915   2.156 -0.3381  0.2359 -0.0927
 6853TIP3    H242195   0.355   1.901   2.007  0.3369  1.5397 -0.3065
 6854TIP3   OH242196   2.734   2.539   0.473 -0.5873  0.0687  0.2431
 6854TIP3    H142197   2.720   2.464   0.416  1.3323 -0.4223  0.3489
 6854TIP3    H242198   2.778   2.604   0.417 -0.4699  0.3468  0.6480
 6855TIP3   OH242199   1.277   2.043   8.297 -0.1721 -0.5429 -0.3198
 6855TIP3    H142200   1.206   1.991   8.333  0.6551 -1.1343  0.4830
 6855TIP3    H242201   1.308   1.992   8.222 -1.1999  0.1848 -1.2890
 6856TIP3   OH242202   3.005   5.258   0.129  0.1195  0.1830  0.1568
 6856TIP3    H142203   3.054   5.285   0.052 -1.3616 -0.2980 -1.0181
 6856TIP3    H242204   2.943   5.193   0.096  0.7009 -1.4590  2.1119
 6857TIP3   OH242205   0.065   6.455   3.364 -0.3513  0.5962  0.2285
 6857TIP3    H142206   0.004   6.399   3.411 -1.7554  0.2245 -1.9139
 6857TIP3    H242207   0.135   6.396   3.335 -1.0309  0.2311 -0.6945
 6858TIP3   OH242208   0.261   1.801   7.498  0.9467  0.2607 -0.0982
 6858TIP3    H142209   0.219   1.862   7.559  1.7897 -1.9409  2.9326
 6858TIP3    H242210   0.190   1.743   7.470  0.9915 -0.2948  0.8969
 6859TIP3   OH242211   4.054   2.302   7.747 -0.5440  0.3511  0.0114
 6859TIP3    H142212   4.127   2.243   7.731  0.6720  1.5321  0.9340
 6859TIP3    H242213   3.980   2.262   7.702  0.2358 -1.8015  0.5262
 6860TIP3   OH242214   1.090   2.479   2.010 -0.1703 -0.4462 -0.1749
 6860TIP3    H142215   1.161   2.507   2.068 -0.3356  1.5505 -0.8450
 6860TIP3    H242216   1.010   2.499   2.059 -0.2934 -0.2554 -0.4513
 6861TIP3   OH242217   4.132   1.763   3.165  0.9135 -0.3965 -1.0850
 6861TIP3    H142218   4.091   1.688   3.210 -1.3899  2.0457  1.2790
 6861TIP3    H242219   4.078   1.776   3.087 -0.1425  0.1155 -0.2971
 6862TIP3   OH242220   5.784   0.383   7.965 -0.0126 -0.5160  0.0229
 6862TIP3    H142221   5.815   0.313   7.907 -0.9402 -0.4888 -0.5393
 6862TIP3    H242222   5.810   0.464   7.920 -1.2518 -0.4876 -0.6847
 6863TIP3   OH242223   5.063   0.946   1.673  0.3245 -0.1044 -0.0073
 6863TIP3    H142224   5.034   0.856   1.655 -1.3794  0.4845 -0.3591
 6863TIP3    H242225   5.011   0.973   1.749  0.7482  0.6456  0.0267
 6864TIP3   OH242226   2.753   2.465   2.327  0.0415  0.6250 -0.4352
 6864TIP3    H142227   2.819   2.401   2.300 -0.3902 -0.1499  0.2806
 6864TIP3    H242228   2.730   2.512   2.247  0.9166  0.3994 -0.8284
 6865TIP3   OH242229   0.337   2.129   0.021 -0.1915  0.1204 -0.0069
 6865TIP3    H142230   0.360   2.036   0.019 -0.6363  0.0176 -0.2529
 6865TIP3    H242231   0.396   2.170  -0.042 -2.8973 -0.6367 -3.2797
 6866TIP3   OH242232   1.395   4.717   1.142  0.3848  1.0666 -0.0939
 6866TIP3    H142233   1.356   4.775   1.208 -1.0738  0.3101 -0.2456
 6866TIP3    H242234   1.487   4.742   1.140 -0.0416  2.8217  0.4184
 6867TIP3   OH242235   1.120   2.815   0.127 -0.1592 -0.0701  0.4190
 6867TIP3    H142236   1.159   2.732   0.100  1.1562  0.2232  1.3134
 6867TIP3    H242237   1.150   2.827   0.217 -2.1134  0.3305  1.0545
 6868TIP3   OH242238   1.001   3.542   1.305 -0.0478  0.6504 -0.1168
 6868TIP3    H142239   1.089   3.566   1.333  0.2497  0.0905 -0.5485
 6868TIP3    H242240   0.944   3.570   1.377  0.1706  3.2616 -0.8568
 6869TIP3   OH242241   5.189   4.730   2.543  0.0428  0.1256 -0.3703
 6869TIP3    H142242   5.175   4.668   2.615  2.0873 -0.1967 -0.2103
 6869TIP3    H242243   5.194   4.816   2.586 -1.6053  0.3077 -0.4717
 6870TIP3   OH242244   1.622   1.738   8.395  0.0096 -0.4531 -0.3195
 6870TIP3    H142245   1.626   1.806   8.327 -1.8601 -1.0846 -1.1254
 6870TIP3    H242246   1.529   1.728   8.413  0.3709 -1.5150  1.1320
 6871TIP3   OH242247   1.757   4.977   9.050 -0.0524  0.2203  0.0317
 6871TIP3    H142248   1.816   4.981   9.125 -1.2053  0.3613  0.9626
 6871TIP3    H242249   1.721   4.889   9.051 -0.5032  0.3993 -0.0135
 6872TIP3   OH242250   4.776   2.727   2.126 -0.2580 -0.0776  0.0161
 6872TIP3    H142251   4.713   2.677   2.075 -1.6133  2.8028 -1.3493
 6872TIP3    H242252   4.746   2.818   2.120  2.2595  1.0194  1.9800
 6873TIP3   OH242253   4.472   5.471   1.093 -0.3912 -0.1078  0.1991
 6873TIP3    H142254   4.378   5.489   1.100 -0.7529 -1.7916 -0.0585
 6873TIP3    H242255   4.507   5.496   1.179 -0.9221  1.2504  0.0520
 6874TIP3   OH242256   5.387   4.505   2.480 -0.0789 -0.3244 -0.1813
 6874TIP3    H142257   5.347   4.442   2.421  2.5033  0.1345 -2.6511
 6874TIP3    H242258   5.325   4.578   2.485 -0.7695 -0.7868 -1.6201
 6875TIP3   OH242259   2.420   5.585   1.841 -0.8501 -0.0604 -0.2690
 6875TIP3    H142260   2.373   5.514   1.797 -3.2994  1.0284  0.4169
 6875TIP3    H242261   2.455   5.544   1.920 -2.2035 -0.5448  0.1079
 6876TIP3   OH242262   5.132   2.063   0.649  0.1115 -0.3928  0.5313
 6876TIP3    H142263   5.124   1.990   0.710 -1.4936 -0.1001  0.7151
 6876TIP3    H242264   5.203   2.037   0.590 -0.6870 -2.3121  0.3350
 6877TIP3   OH242265   1.830   4.252   7.889  0.9575 -0.0639  0.1586
 6877TIP3    H142266   1.917   4.281   7.915  0.8580  1.9251 -1.4692
 6877TIP3    H242267   1.771   4.302   7.946  0.8543  1.0795 -0.8950
 6878TIP3   OH242268   2.985   2.944   1.327 -0.3616  0.9857 -0.2456
 6878TIP3    H142269   2.954   2.976   1.242 -0.2300  2.0188  0.0839
 6878TIP3    H242270   3.060   2.999   1.348  0.1060  0.2052  0.1773
 6879TIP3   OH242271   0.868   1.856   8.073  0.5102 -0.1608 -0.3009
 6879TIP3    H142272   0.885   1.767   8.104  1.2380  0.3084  0.6970
 6879TIP3    H242273   0.783   1.880   8.109  0.0351 -0.6564 -1.0655
 6880TIP3   OH242274   1.923   1.312   1.519 -0.1067  0.3237 -0.9302
 6880TIP3    H142275   1.883   1.295   1.604  1.8802 -0.9898 -0.1906
 6880TIP3    H242276   1.953   1.403   1.524  1.1879 -0.1427  0.3219
 6881TIP3   OH242277   3.714   5.832   8.360 -0.0641 -0.1120 -0.0256
 6881TIP3    H142278   3.704   5.920   8.396 -2.5076  1.0754 -3.1444
 6881TIP3    H242279   3.787   5.839   8.298 -0.9653  0.1190 -1.1060
 6882TIP3   OH242280   2.332   3.248   3.019  0.1370  0.0127  0.2248
 6882TIP3    H142281   2.426   3.259   3.035 -0.2598  1.1572  2.0676
 6882TIP3    H242282   2.318   3.153   3.022  1.5519 -0.3951 -2.4956
 6883TIP3   OH242283   2.407   1.434   0.193  0.4178 -0.0251 -0.2756
 6883TIP3    H142284   2.373   1.407   0.278  0.4131 -0.4995 -0.4250
 6883TIP3    H242285   2.331   1.432   0.135  0.4822 -0.0032 -0.3615
 6884TIP3   OH242286   2.777   2.704   1.809 -0.0058  0.5332  0.2192
 6884TIP3    H142287   2.743   2.764   1.875  0.5853  3.5363 -1.9601
 6884TIP3    H242288   2.865   2.738   1.789 -0.1563 -0.2335 -2.0450
 6885TIP3   OH242289   3.520   2.035   8.812  0.4808 -0.0176  0.2609
 6885TIP3    H142290   3.530   2.038   8.907  1.9776 -1.6176  0.2089
 6885TIP3    H242291   3.497   1.945   8.793 -0.5908  0.4690 -0.8617
 6886TIP3   OH242292   3.766   4.227   2.991  0.6200  1.2955  0.0932
 6886TIP3    H142293   3.804   4.200   3.075  0.0697 -1.9844 -0.5634
 6886TIP3    H242294   3.673   4.236   3.009  0.5188  0.7061 -0.1116
 6887TIP3   OH242295   0.176   6.304   8.192 -0.0730 -0.7897  0.1060
 6887TIP3    H142296   0.100   6.283   8.138 -0.0980 -0.8774  0.1751
 6887TIP3    H242297   0.239   6.234   8.173 -0.4584 -1.3788  0.9314
 6888TIP3   OH242298   4.145   4.698   0.241 -0.4616  0.2133  0.1902
 6888TIP3    H142299   4.178   4.612   0.268 -2.7079  0.0784  2.9499
 6888TIP3    H242300   4.120   4.686   0.149 -1.6944 -2.4717  0.7747
 6889TIP3   OH242301   3.184   1.055   3.540 -0.5961  0.4981  0.3487
 6889TIP3    H142302   3.193   0.962   3.518 -0.9226  0.6825 -0.6121
 6889TIP3    H242303   3.271   1.081   3.572 -0.4773 -0.1099  0.5296
 6890TIP3   OH242304   5.139   2.815   2.869 -0.4130 -0.1053  0.0917
 6890TIP3    H142305   5.147   2.819   2.774 -3.3325 -1.2834 -0.3153
 6890TIP3    H242306   5.083   2.890   2.891  0.3940  0.2719  0.9188
 6891TIP3   OH242307   4.149   6.338   0.987  0.1194  0.5187 -0.0882
 6891TIP3    H142308   4.214   6.270   0.968 -1.3914 -0.8570 -0.5425
 6891TIP3    H242309   4.139   6.336   1.082  0.6624  0.6687 -0.0264
 6892TIP3   OH242310   1.415   4.345   1.795 -0.0937  0.1251  0.1304
 6892TIP3    H142311   1.465   4.272   1.832  2.1978  1.4247 -0.1831
 6892TIP3    H242312   1.387   4.395   1.871  0.3861  0.1728  0.2826
 6893TIP3   OH242313   2.897   0.233   7.405  0.1957  0.1899  0.1067
 6893TIP3    H142314   2.936   0.301   7.460  1.2545 -0.3259  0.0287
 6893TIP3    H242315   2.858   0.171   7.466 -0.2096  0.5455  0.2045
 6894TIP3   OH242316   6.098   6.525   0.875  0.2018  0.1650  0.2221
 6894TIP3    H142317   6.118   6.438   0.911 -0.3020 -0.2277 -0.4309
 6894TIP3    H242318   6.109   6.584   0.949 -1.3947 -0.6982  1.2217
 6895TIP3   OH242319   1.927   4.516   1.382 -0.7425  0.4484  0.0484
 6895TIP3    H142320   2.021   4.513   1.366 -0.9847 -0.0257 -1.4377
 6895TIP3    H242321   1.917   4.493   1.474  0.4499 -1.8642 -0.3372
 6896TIP3   OH242322   0.339   6.011   8.473  0.0688  0.1636 -0.6290
 6896TIP3    H142323   0.254   6.021   8.516  0.4452  1.1452 -0.0722
 6896TIP3    H242324   0.324   5.946   8.404 -1.1674  0.4489 -0.6515
 6897TIP3   OH242325   3.091   1.293   1.858  0.2272 -0.1978 -0.1284
 6897TIP3    H142326   3.092   1.223   1.923  1.7927 -0.0637  0.0457
 6897TIP3    H242327   3.182   1.297   1.827 -0.1437  0.8203 -1.1460
 6898TIP3   OH242328   5.049   0.036   8.415  0.0183  0.2347 -0.2298
 6898TIP3    H142329   5.057  -0.052   8.451  0.5657  0.6923  0.8144
 6898TIP3    H242330   5.029   0.023   8.323  0.5410 -0.9810 -0.1838
 6899TIP3   OH242331   5.012   3.633   1.055 -0.5863 -0.1901  0.1538
 6899TIP3    H142332   4.952   3.702   1.085 -0.4275  0.9983 -2.0714
 6899TIP3    H242333   5.076   3.626   1.126 -0.0469  2.6807  0.1006
 6900TIP3   OH242334   0.701   5.568   1.932  0.0494 -0.8097 -0.4054
 6900TIP3    H142335   0.606   5.581   1.925 -0.1662 -1.7999  0.4128
 6900TIP3    H242336   0.727   5.624   2.005 -0.0298 -1.0909 -0.1604
 6901TIP3   OH242337   1.464   3.484   1.263  0.1191  0.3605 -0.7117
 6901TIP3    H142338   1.467   3.517   1.173 -0.5721  0.0793 -0.8435
 6901TIP3    H242339   1.510   3.401   1.259 -2.1813 -0.9595 -1.4019
 6902TIP3   OH242340   6.234   0.789   2.178  0.5347 -0.1719 -0.7308
 6902TIP3    H142341   6.264   0.806   2.089  2.4656  0.6207  0.0059
 6902TIP3    H242342   6.142   0.765   2.168  0.5939  0.2601 -2.8886
 6903TIP3   OH242343   1.963   5.579   1.144  0.2231 -0.4470  0.3837
 6903TIP3    H142344   2.052   5.569   1.177 -0.0064 -1.7986  0.6386
 6903TIP3    H242345   1.931   5.659   1.187  0.9814 -0.4714  1.0293
 6904TIP3   OH242346   3.615   3.499   0.224  0.4712 -0.2943 -0.7738
 6904TIP3    H142347   3.661   3.435   0.169  0.7796  0.3430 -1.2816
 6904TIP3    H242348   3.524   3.494   0.196  0.0919 -1.9756  0.6354
 6905TIP3   OH242349   2.094   3.291   8.266 -0.4712 -0.3779  0.0324
 6905TIP3    H142350   2.081   3.222   8.331  0.5255  0.6782  1.4255
 6905TIP3    H242351   2.032   3.359   8.291  2.3984  1.6667  2.3724
 6906TIP3   OH242352   0.329   1.722   8.558 -0.1918  0.3475  0.2728
 6906TIP3    H142353   0.349   1.688   8.645 -0.8997  1.0586  0.7211
 6906TIP3    H242354   0.408   1.772   8.533  2.2957 -4.0215 -1.7566
 6907TIP3   OH242355   2.743   4.515   0.398  0.4797 -0.2215  0.3172
 6907TIP3    H142356   2.651   4.531   0.377  0.6534  0.3270 -0.0400
 6907TIP3    H242357   2.780   4.477   0.318 -0.2088 -3.8122  1.5021
 6908TIP3   OH242358   5.560   1.481   8.899 -0.0876  0.1447  0.0740
 6908TIP3    H142359   5.644   1.507   8.862  0.0399  0.8809  0.8541
 6908TIP3    H242360   5.583   1.427   8.974 -0.3243 -0.2153 -0.1122
 6909TIP3   OH242361   3.089   4.892   2.211 -0.2502  0.2836  0.1059
 6909TIP3    H142362   3.153   4.839   2.165 -1.2388 -1.8878  1.1116
 6909TIP3    H242363   3.141   4.946   2.271  0.7355 -0.2931 -0.2089
 6910TIP3   OH242364   6.653   5.554   2.907 -0.3947  0.3354 -0.6032
 6910TIP3    H142365   6.739   5.563   2.867 -0.1158  1.0123  0.1137
 6910TIP3    H242366   6.635   5.460   2.907 -0.0139  0.2610 -1.4848
 6911TIP3   OH242367   1.747   2.034   2.783 -0.2241 -0.8635  0.8317
 6911TIP3    H142368   1.657   2.002   2.777 -0.5545 -0.1947  1.9287
 6911TIP3    H242369   1.757   2.094   2.709 -0.9607 -0.2921  1.1884
 6912TIP3   OH242370   4.697   5.661   1.726  0.1589  0.0284  0.0589
 6912TIP3    H142371   4.780   5.661   1.679  1.1107  0.9668  1.6557
 6912TIP3    H242372   4.643   5.597   1.679  1.0003  0.9224 -2.3136
 6913TIP3   OH242373   3.815   3.651   0.755  0.0523  0.3543  0.3921
 6913TIP3    H142374   3.756   3.643   0.679  0.1410 -0.3416  0.3848
 6913TIP3    H242375   3.886   3.590   0.735 -0.5155 -0.7344  1.5717
 6914TIP3   OH242376   6.064   6.584   3.258 -0.3453  0.9402 -0.2124
 6914TIP3    H142377   6.069   6.671   3.218 -0.7170  1.2847  0.4766
 6914TIP3    H242378   6.155   6.562   3.280 -0.1521  0.7962 -1.1243
 6915TIP3   OH242379   2.019   1.672   1.861  0.3221 -0.2871  0.5687
 6915TIP3    H142380   2.015   1.585   1.821  1.4120 -0.4946  0.8515
 6915TIP3    H242381   1.930   1.691   1.889 -0.1224 -0.8625 -0.4405
 6916TIP3   OH242382   4.607   5.841   8.588 -0.3165 -0.2927  0.1124
 6916TIP3    H142383   4.625   5.748   8.596 -2.6325 -0.8014  0.1020
 6916TIP3    H242384   4.651   5.867   8.506  0.7508 -1.2375  0.3689
 6917TIP3   OH242385   2.647   4.099   1.296 -0.3200  0.2800 -0.1370
 6917TIP3    H142386   2.667   4.035   1.227 -0.6263 -0.7498  0.7082
 6917TIP3    H242387   2.556   4.124   1.280 -0.5833 -0.4151  0.2422
 6918TIP3   OH242388   6.178   1.542   8.455  0.2125  0.0696  0.3398
 6918TIP3    H142389   6.196   1.483   8.382  0.4301 -2.5297  2.3467
 6918TIP3    H242390   6.089   1.519   8.483 -0.3405  1.8863  0.1759
 6919TIP3   OH242391   2.725   2.694   0.719 -0.4654 -1.1032  0.1549
 6919TIP3    H142392   2.809   2.649   0.731 -0.2911 -0.4229  1.7435
 6919TIP3    H242393   2.700   2.675   0.629  1.2999 -1.4885 -0.2903
 6920TIP3   OH242394   2.764   3.286   8.866  0.1400 -0.1745 -0.3794
 6920TIP3    H142395   2.718   3.354   8.816 -0.5337 -0.1505  0.2460
 6920TIP3    H242396   2.739   3.204   8.824  0.0169 -0.1137 -0.4271
 6921TIP3   OH242397   0.938   5.493   3.318 -0.7339 -0.3511  0.0009
 6921TIP3    H142398   0.851   5.458   3.298 -1.3872  0.1902  1.7149
 6921TIP3    H242399   0.921   5.567   3.376  0.7468  1.3088 -1.5405
 6922TIP3   OH242400   3.032   4.293   2.110 -0.2614 -0.4330 -0.3270
 6922TIP3    H142401   3.087   4.283   2.188  0.5782 -2.1503 -1.0801
 6922TIP3    H242402   2.958   4.233   2.125 -2.0070  1.8031  0.6490
 6923TIP3   OH242403   4.110   1.522   7.636 -0.3028  0.2977  0.3533
 6923TIP3    H142404   4.053   1.449   7.613  0.3737  0.3463 -1.6411
 6923TIP3    H242405   4.069   1.599   7.597 -0.6004  0.8980  1.7844
 6924TIP3   OH242406   4.996   0.366   0.191 -0.3535 -0.2044  0.1219
 6924TIP3    H142407   5.083   0.371   0.151 -0.1969  0.3456  0.5273
 6924TIP3    H242408   4.974   0.456   0.214 -0.6242 -0.4575  0.8894
 6925TIP3   OH242409   0.632   3.219   8.283 -0.0073 -0.4314  0.3529
 6925TIP3    H142410   0.682   3.299   8.264 -1.6842  0.8233  0.9073
 6925TIP3    H242411   0.605   3.231   8.374 -1.2531 -1.0816  0.0789
 6926TIP3   OH242412   4.511   2.073   8.940 -0.4440 -0.7440 -0.5872
 6926TIP3    H142413   4.469   2.023   8.870 -1.0956 -1.3082  0.1967
 6926TIP3    H242414   4.604   2.048   8.935 -0.0664  0.7751 -2.5410
 6927TIP3   OH242415   2.822   6.619   8.744  1.0941  0.0993  0.4672
 6927TIP3    H142416   2.755   6.571   8.696  0.3457  0.4091  1.1734
 6927TIP3    H242417   2.843   6.563   8.818  1.7548 -0.0780  0.1525
 6928TIP3   OH242418   1.800   4.619   2.249 -1.1033  0.8162  0.1142
 6928TIP3    H142419   1.791   4.713   2.233  0.9995  0.9730 -0.4797
 6928TIP3    H242420   1.841   4.585   2.170 -0.5469 -0.3593  0.8818
 6929TIP3   OH242421   4.014   6.306   1.825 -0.2698  0.2472  0.2815
 6929TIP3    H142422   4.084   6.354   1.780 -0.1987 -0.2412 -0.1420
 6929TIP3    H242423   4.019   6.218   1.789  0.2498 -0.3550  1.7637
 6930TIP3   OH242424   4.816   2.615   0.549  0.0506 -0.3187  0.2435
 6930TIP3    H142425   4.886   2.553   0.570  0.2560  0.2384  1.2307
 6930TIP3    H242426   4.748   2.596   0.613  0.4847  1.0698  1.1660
 6931TIP3   OH242427   3.044   2.312   0.506  0.4527  0.1843  0.2289
 6931TIP3    H142428   3.043   2.371   0.431  0.5212 -0.8496 -0.6062
 6931TIP3    H242429   3.129   2.328   0.548 -0.1419  1.7400  0.9051
 6932TIP3   OH242430   3.409   5.990   1.114  0.0362 -0.5912  0.2867
 6932TIP3    H142431   3.352   5.946   1.051 -1.3930 -1.4752  2.1208
 6932TIP3    H242432   3.404   6.082   1.090 -1.6709 -0.7266 -0.0036
 6933TIP3   OH242433   0.660   0.766   8.092  0.3034 -0.0910  0.2369
 6933TIP3    H142434   0.740   0.758   8.145  0.7866  0.7028 -0.3374
 6933TIP3    H242435   0.691   0.758   8.002 -0.4036 -0.6702  0.0373
 6934TIP3   OH242436   4.609   1.343   7.697  0.1171  0.4837  0.3674
 6934TIP3    H142437   4.548   1.414   7.718 -2.0269 -0.4868 -1.9137
 6934TIP3    H242438   4.652   1.372   7.617 -2.6032 -1.5587 -2.0739
 6935TIP3   OH242439   2.943   0.828   8.765  0.3911  0.2200 -0.5220
 6935TIP3    H142440   2.874   0.884   8.729 -0.0949  0.2987  0.4864
 6935TIP3    H242441   2.926   0.827   8.860 -0.0470 -2.1524 -0.5454
 6936TIP3   OH242442   1.066   5.938   0.715  0.6203 -0.0738 -0.1245
 6936TIP3    H142443   1.041   5.929   0.623  0.6057  0.4906 -0.1743
 6936TIP3    H242444   1.110   5.855   0.735 -0.7987 -0.8685 -0.1726
 6937TIP3   OH242445   5.688   0.431   0.215  0.0977 -0.1368 -0.3085
 6937TIP3    H142446   5.676   0.400   0.305  0.7705  0.6014  0.0492
 6937TIP3    H242447   5.783   0.431   0.202  0.1205  1.5002 -0.3788
 6938TIP3   OH242448   0.701   4.607   8.212 -0.2767 -0.2166 -0.3136
 6938TIP3    H142449   0.665   4.694   8.191  0.1103 -0.2016 -0.9441
 6938TIP3    H242450   0.770   4.594   8.147 -1.4753 -1.7438 -1.3317
 6939TIP3   OH242451   1.465   5.959   0.899 -0.2238 -0.0767  0.4529
 6939TIP3    H142452   1.378   5.920   0.890  0.1552 -0.3668 -2.9468
 6939TIP3    H242453   1.503   5.916   0.975 -2.0842 -1.8453  0.4569
 6940TIP3   OH242454   3.395   1.803   3.500  0.4721 -0.0594  0.0377
 6940TIP3    H142455   3.320   1.744   3.495  0.3299 -0.3425  3.1425
 6940TIP3    H242456   3.471   1.746   3.504  0.4170 -0.0915  1.8003
 6941TIP3   OH242457   4.495   0.390   7.844 -0.3595  0.0013 -0.1607
 6941TIP3    H142458   4.502   0.484   7.825  0.4244  0.1403  0.7646
 6941TIP3    H242459   4.546   0.347   7.776 -0.9703  0.2170 -0.7662
 6942TIP3   OH242460   0.455   5.445   8.459 -0.4487  0.2337  0.0638
 6942TIP3    H142461   0.512   5.408   8.391  0.8140  1.7547  0.2253
 6942TIP3    H242462   0.372   5.399   8.448 -0.1098  0.0077 -2.1465
 6943TIP3   OH242463   1.174   5.475   1.541  0.1924  0.2702  0.2588
 6943TIP3    H142464   1.104   5.520   1.494 -1.4487  0.7317  2.9452
 6943TIP3    H242465   1.171   5.385   1.508  0.2021  0.8965 -1.5971
 6944TIP3   OH242466   6.569   6.674   0.752 -0.1076  0.0935 -0.1652
 6944TIP3    H142467   6.513   6.649   0.825  1.1134  2.3065  1.6233
 6944TIP3    H242468   6.578   6.769   0.759  0.6010  0.3248 -2.8334
 6945TIP3   OH242469   6.038   4.240   1.571 -0.2224 -0.0205 -0.0089
 6945TIP3    H142470   6.129   4.244   1.543 -0.5369 -0.6102 -1.1666
 6945TIP3    H242471   6.043   4.235   1.667  1.0295 -1.5913 -0.1095
 6946TIP3   OH242472   0.210   0.033   1.349 -0.5389  0.0796  0.1664
 6946TIP3    H142473   0.292   0.082   1.345  0.0785 -1.0024 -2.7209
 6946TIP3    H242474   0.156   0.072   1.280 -1.2871 -1.1845  0.0237
 6947TIP3   OH242475   0.603   5.652   1.175  0.1208  0.1751 -0.4595
 6947TIP3    H142476   0.629   5.596   1.102 -0.8418 -0.6798 -0.1700
 6947TIP3    H242477   0.621   5.600   1.253 -0.9709  0.1722 -0.1906
 6948TIP3   OH242478   3.636   0.545   3.527 -0.0759 -0.0655 -0.1603
 6948TIP3    H142479   3.722   0.585   3.534 -0.6775  1.4207 -0.8342
 6948TIP3    H242480   3.594   0.562   3.612 -0.2957  0.6877 -0.4120
 6949TIP3   OH242481   2.505   6.022   0.812 -0.4134 -0.2128  0.1453
 6949TIP3    H142482   2.459   6.083   0.754 -0.0821  0.0342  0.1425
 6949TIP3    H242483   2.436   5.985   0.867 -1.4022 -3.0755 -2.6409
 6950TIP3   OH242484   6.262   4.637   1.389  0.6993  0.1327  0.5272
 6950TIP3    H142485   6.332   4.574   1.373  1.7104  1.2579  0.2955
 6950TIP3    H242486   6.227   4.614   1.475 -0.2945 -1.9121 -0.3701
 6951TIP3   OH242487   3.819   2.925   1.568 -0.1674  0.3557  0.3336
 6951TIP3    H142488   3.765   2.973   1.631 -1.3289  0.4134 -0.6728
 6951TIP3    H242489   3.841   2.990   1.501  0.0102 -0.0055  0.0356
 6952TIP3   OH242490   4.555   0.137   0.165 -0.8131 -0.2392  0.4899
 6952TIP3    H142491   4.513   0.202   0.109  1.7760  1.2495  0.1026
 6952TIP3    H242492   4.492   0.122   0.236 -1.6648  2.4603  0.4187
 6953TIP3   OH242493   5.312   0.690   8.848 -0.2216 -0.3245  0.7544
 6953TIP3    H142494   5.349   0.631   8.914  0.6023 -0.4541  0.2041
 6953TIP3    H242495   5.357   0.665   8.767  1.2661  2.0266  0.7844
 6954TIP3   OH242496   2.341   0.964   0.267 -0.0315  0.1238 -0.3275
 6954TIP3    H142497   2.370   0.910   0.193  0.8045  0.6136 -0.3815
 6954TIP3    H242498   2.280   1.026   0.228 -0.0536 -0.0024 -0.4983
 6955TIP3   OH242499   2.490   6.379   1.670 -0.2321  0.8716  0.1031
 6955TIP3    H142500   2.477   6.446   1.603  3.1089  1.7659  0.1677
 6955TIP3    H242501   2.562   6.326   1.637  0.0477 -0.0176  1.9995
 6956TIP3   OH242502   5.331   2.752   8.458 -0.1206  0.6593 -0.6564
 6956TIP3    H142503   5.395   2.707   8.403  0.4433 -2.2414  2.0606
 6956TIP3    H242504   5.250   2.702   8.446 -0.4522  1.0675 -0.1535
 6957TIP3   OH242505   4.837   6.077   0.080 -0.0400 -0.4151  0.6531
 6957TIP3    H142506   4.906   6.108   0.139  0.5841 -0.5874  0.0249
 6957TIP3    H242507   4.790   6.157   0.054  1.2044 -0.0173 -0.5127
 6958TIP3   OH242508   1.740   1.487   8.287 -0.6239  0.1035  0.2789
 6958TIP3    H142509   1.738   1.497   8.383  0.5585  0.8798  0.2550
 6958TIP3    H242510   1.721   1.575   8.254  1.1522  0.3811 -0.1314
 6959TIP3   OH242511   5.566   3.888   0.270  0.4948  0.0738  0.6754
 6959TIP3    H142512   5.531   3.949   0.335 -0.0614  0.2297  0.2369
 6959TIP3    H242513   5.586   3.808   0.320  1.1450  0.5679  1.2361
 6960TIP3   OH242514   2.760   0.394   0.274  0.7697  0.2416 -0.8146
 6960TIP3    H142515   2.687   0.427   0.328  1.5806  1.2001 -0.2749
 6960TIP3    H242516   2.803   0.473   0.241  0.5521 -0.3169 -2.5572
 6961TIP3   OH242517   6.667   0.565   7.841 -0.1873 -0.5583  0.1340
 6961TIP3    H142518   6.709   0.651   7.835 -1.1465 -0.0176  0.8895
 6961TIP3    H242519   6.656   0.537   7.751  2.2059 -0.9527 -0.1115
 6962TIP3   OH242520   2.168   0.962   8.103 -0.1213  0.6747 -0.1351
 6962TIP3    H142521   2.090   0.947   8.049 -0.1452 -1.4570  0.3878
 6962TIP3    H242522   2.136   1.014   8.176 -1.5841 -1.7039  1.0574
 6963TIP3   OH242523   2.390   4.301   2.458 -0.0062  0.5114 -0.1566
 6963TIP3    H142524   2.344   4.335   2.381  2.1852  0.4609 -1.5986
 6963TIP3    H242525   2.403   4.377   2.514 -0.3711  0.8440 -0.5191
 6964TIP3   OH242526   0.589   2.182   8.660  0.4877 -0.2419 -0.2859
 6964TIP3    H142527   0.660   2.238   8.629 -0.3943  1.8286  1.2097
 6964TIP3    H242528   0.625   2.136   8.736  1.1778 -1.7239 -1.4518
 6965TIP3   OH242529   3.259   2.916   1.268 -0.0840 -0.1192  0.5345
 6965TIP3    H142530   3.204   2.933   1.191  0.0122  1.9557  0.8490
 6965TIP3    H242531   3.345   2.951   1.244 -0.1095  0.7438  1.6233
 6966TIP3   OH242532   4.361   2.913   8.216 -0.0094 -0.6900  0.0742
 6966TIP3    H142533   4.451   2.882   8.215 -0.2988 -1.6100 -1.7590
 6966TIP3    H242534   4.348   2.953   8.129 -1.0139  0.5324  0.7471
 6967TIP3   OH242535   0.942   6.042   2.649 -0.0660 -0.1731 -0.0746
 6967TIP3    H142536   1.030   6.078   2.662  0.2412 -1.4234  1.5500
 6967TIP3    H242537   0.940   5.963   2.702 -2.2079 -0.1528 -0.0388
 6968TIP3   OH242538   5.599   6.151   1.460  0.1387 -0.7518  0.3864
 6968TIP3    H142539   5.528   6.214   1.470 -0.4900 -1.7017  2.5323
 6968TIP3    H242540   5.560   6.078   1.413  0.9496  0.4594 -2.3832
 6969TIP3   OH242541   1.103   2.045   3.126  0.0211  0.3166 -0.4101
 6969TIP3    H142542   1.068   2.027   3.214  0.3986  0.7269 -0.1738
 6969TIP3    H242543   1.197   2.052   3.139 -0.0085  1.3111 -0.6866
 6970TIP3   OH242544   5.067   3.327   8.381  0.0796  0.0150  0.1171
 6970TIP3    H142545   5.075   3.386   8.456 -0.0483  0.5952 -0.3304
 6970TIP3    H242546   5.149   3.276   8.383 -0.1141 -0.2820  0.9084
 6971TIP3   OH242547   3.175   3.425   0.841 -0.0198  0.1514 -0.7150
 6971TIP3    H142548   3.182   3.508   0.888 -1.4306 -0.0227 -0.1674
 6971TIP3    H242549   3.199   3.359   0.905 -1.1220 -0.0225 -0.4665
 6972TIP3   OH242550   6.693   2.298   7.603 -0.0454 -0.4183 -0.1544
 6972TIP3    H142551   6.765   2.251   7.561  0.3500 -1.9661  2.0558
 6972TIP3    H242552   6.713   2.390   7.590  1.6643 -0.8244 -0.6761
 6973TIP3   OH242553   4.957   3.360   2.029 -0.3392  0.2436  0.4999
 6973TIP3    H142554   4.929   3.365   2.120 -1.0277  2.4179  0.2315
 6973TIP3    H242555   5.037   3.412   2.027  0.6248 -1.1857  0.1423
 6974TIP3   OH242556   2.199   3.011   0.645 -0.4687  0.2432  0.2198
 6974TIP3    H142557   2.271   2.998   0.707  0.3927 -0.4495 -0.8844
 6974TIP3    H242558   2.239   3.000   0.559 -1.8993 -0.1500 -0.4304
 6975TIP3   OH242559   4.283   3.759   0.558 -0.2046 -0.5687 -0.1165
 6975TIP3    H142560   4.272   3.679   0.609  0.4131 -1.2841 -1.0800
 6975TIP3    H242561   4.197   3.800   0.557 -0.6350 -1.4594 -0.0107
 6976TIP3   OH242562   6.583   2.316   2.503 -0.0514 -0.0080  0.0639
 6976TIP3    H142563   6.631   2.329   2.584  0.8050  1.3428 -0.6244
 6976TIP3    H242564   6.614   2.232   2.469 -0.7462 -0.7945  1.3261
 6977TIP3   OH242565   4.190   4.594   8.497 -0.2601  0.4001  0.3651
 6977TIP3    H142566   4.147   4.558   8.420  1.1674  0.9441 -0.7406
 6977TIP3    H242567   4.228   4.519   8.541 -0.5025  0.1517  0.1519
 6978TIP3   OH242568   5.348   1.249   2.341 -0.4017  0.0501  0.1628
 6978TIP3    H142569   5.348   1.333   2.386  1.1135  0.1053  0.1167
 6978TIP3    H242570   5.429   1.249   2.289 -0.3474 -1.4404  0.1913
 6979TIP3   OH242571   6.156   5.818   3.160  0.6751  0.1215  0.2232
 6979TIP3    H142572   6.124   5.830   3.250 -1.6207  1.5547 -0.6926
 6979TIP3    H242573   6.088   5.765   3.118  1.9737 -0.9648 -0.5798
 6980TIP3   OH242574   4.515   1.441   1.449  0.1643 -0.5385 -0.2980
 6980TIP3    H142575   4.462   1.361   1.453  2.8039 -2.4363 -0.5596
 6980TIP3    H242576   4.522   1.470   1.540 -0.8586 -0.5350 -0.2053
 6981TIP3   OH242577   1.132   4.433   3.015 -0.0979  0.7419 -0.2937
 6981TIP3    H142578   1.055   4.476   3.052 -0.0082  0.8309 -0.2118
 6981TIP3    H242579   1.175   4.500   2.963 -1.1556  0.1698 -1.9850
 6982TIP3   OH242580   6.733   1.261   8.587 -0.5125 -0.3452 -0.0581
 6982TIP3    H142581   6.748   1.346   8.546 -1.6768  0.1239  0.4283
 6982TIP3    H242582   6.742   1.278   8.681 -2.3658 -0.3502  0.1673
 6983TIP3   OH242583   5.268   6.509   0.626  0.0407  0.2745 -0.5855
 6983TIP3    H142584   5.182   6.514   0.668 -0.2237 -0.5081 -1.0116
 6983TIP3    H242585   5.254   6.547   0.539 -0.1601 -0.8489 -1.0660
 6984TIP3   OH242586   0.969   4.656   0.927 -0.0859  0.2334  0.2024
 6984TIP3    H142587   1.021   4.606   0.865  1.3215  0.4043  1.2005
 6984TIP3    H242588   0.982   4.747   0.901 -0.5921  0.2366 -0.0587
 6985TIP3   OH242589   5.159   5.653   0.790 -0.0234  0.0405 -0.5751
 6985TIP3    H142590   5.075   5.686   0.823 -1.3537 -1.8632 -1.8347
 6985TIP3    H242591   5.165   5.689   0.702 -0.0251 -0.6190 -0.8492
 6986TIP3   OH242592   3.419   0.271   8.143 -0.0870 -0.0390 -0.9295
 6986TIP3    H142593   3.450   0.360   8.128  1.1156 -0.2560  0.1293
 6986TIP3    H242594   3.372   0.248   8.063 -1.2744  1.8904 -0.8481
 6987TIP3   OH242595   6.488   0.368   8.502  0.2594  0.6126 -0.8000
 6987TIP3    H142596   6.394   0.383   8.507  0.3226  0.7581  0.2248
 6987TIP3    H242597   6.497   0.290   8.447 -0.4040  1.0217 -1.5114
 6988TIP3   OH242598   5.242   5.337   2.690 -0.2524  0.2821  0.4154
 6988TIP3    H142599   5.209   5.422   2.720 -0.3492 -0.1389  1.5443
 6988TIP3    H242600   5.334   5.353   2.671 -0.2328  0.6177  0.7641
 6989TIP3   OH242601   3.263   2.943   7.344  0.1764 -0.8907  0.8692
 6989TIP3    H142602   3.340   2.986   7.382  0.4521 -1.0021  0.4433
 6989TIP3    H242603   3.300   2.879   7.283 -0.2678 -0.4996  0.1781
 6990TIP3   OH242604   5.176   0.956   2.643 -0.1994  0.1770  0.5275
 6990TIP3    H142605   5.161   0.999   2.727  0.6521 -0.1473  0.8504
 6990TIP3    H242606   5.095   0.970   2.594 -0.8545  0.0236  1.5498
 6991TIP3   OH242607   2.278   3.976   8.622 -0.7204 -0.2392 -0.1444
 6991TIP3    H142608   2.369   4.002   8.607 -0.9098  0.1830 -0.6186
 6991TIP3    H242609   2.231   4.059   8.633 -1.0586 -0.4519  0.0330
 6992TIP3   OH242610   4.524   2.224   8.669  0.3858  0.5485  0.0342
 6992TIP3    H142611   4.604   2.231   8.617  0.7764  0.8432  0.6712
 6992TIP3    H242612   4.530   2.296   8.732 -0.5264  0.7666 -0.1135
 6993TIP3   OH242613   6.567   4.840   0.920  0.0182  0.2195  0.7870
 6993TIP3    H142614   6.562   4.828   1.015 -1.3843  1.1719  0.8699
 6993TIP3    H242615   6.660   4.839   0.900  0.2934 -1.1498  2.0020
 6994TIP3   OH242616   6.235   3.416   2.614 -0.5151  0.3530  0.0058
 6994TIP3    H142617   6.149   3.374   2.623 -0.1226 -0.9380 -1.7867
 6994TIP3    H242618   6.289   3.372   2.680 -0.5017 -0.9602 -0.8356
 6995TIP3   OH242619   1.765   3.640   8.248 -0.1217 -0.1494 -0.0238
 6995TIP3    H142620   1.815   3.577   8.300  0.5184  0.5407  0.2112
 6995TIP3    H242621   1.803   3.635   8.161  0.3164  0.3170  0.1352
 6996TIP3   OH242622   4.039   6.350   3.146 -0.1230  0.0644 -0.4144
 6996TIP3    H142623   4.015   6.264   3.112 -2.1583  0.1003  0.7906
 6996TIP3    H242624   4.134   6.345   3.159 -0.3703 -2.5425  1.0113
 6997TIP3   OH242625   4.147   3.730   1.950  0.1004  0.1189  0.2073
 6997TIP3    H142626   4.108   3.658   1.999  2.4012 -1.1889  0.2566
 6997TIP3    H242627   4.139   3.806   2.007 -2.2019 -0.0601  0.2328
 6998TIP3   OH242628   1.784   3.039   8.607 -0.2308  0.3881  0.2035
 6998TIP3    H142629   1.819   3.126   8.624 -0.9723  0.6169  0.5805
 6998TIP3    H242630   1.861   2.986   8.584  0.5775  0.5469  2.3347
 6999TIP3   OH242631   6.060   6.396   8.825 -0.8857 -0.0206  0.1739
 6999TIP3    H142632   6.046   6.308   8.861 -1.4286 -0.2577 -0.5876
 6999TIP3    H242633   6.064   6.382   8.730  0.8685  0.5406  0.1452
 7000TIP3   OH242634   2.314   0.221   2.350  0.5085 -0.1467 -0.6159
 7000TIP3    H142635   2.298   0.184   2.263  0.9172 -1.6239 -0.0974
 7000TIP3    H242636   2.404   0.196   2.371 -0.8638 -3.8014  2.0198
 7001TIP3   OH242637   0.425   0.109   8.079 -0.2208  0.3506  0.1013
 7001TIP3    H142638   0.381   0.115   7.995  0.5029 -0.5257 -0.3536
 7001TIP3    H242639   0.383   0.177   8.133 -0.5643  1.0468 -1.0108
 7002TIP3   OH242640   1.543   1.487   8.696 -0.0546  0.3546 -0.3812
 7002TIP3    H142641   1.597   1.525   8.627  0.2898 -0.4829 -0.5895
 7002TIP3    H242642   1.480   1.433   8.649  1.6336 -2.0983 -0.0102
 7003TIP3   OH242643   6.361   6.573   0.306  0.2942  0.0862 -0.7436
 7003TIP3    H142644   6.277   6.619   0.299  0.3329  0.5885  1.4196
 7003TIP3    H242645   6.401   6.585   0.220 -1.7994 -0.1245 -1.8361
 7004TIP3   OH242646   4.962   0.304   8.529  0.0172  0.3659  0.5867
 7004TIP3    H142647   4.971   0.278   8.620 -1.1210 -0.2411  0.5489
 7004TIP3    H242648   5.003   0.234   8.479 -1.2742 -0.4159  0.5678
 7005TIP3   OH242649   3.067   3.844   2.927  0.7981 -0.1767 -0.2573
 7005TIP3    H142650   3.157   3.814   2.911  0.4859 -1.3203 -0.0206
 7005TIP3    H242651   3.075   3.904   3.001  1.3174 -0.5996  0.0417
 7006TIP3   OH242652   2.543   6.098   7.814 -0.3131 -0.0855 -0.7387
 7006TIP3    H142653   2.629   6.067   7.843 -0.2281 -0.4142 -1.3245
 7006TIP3    H242654   2.541   6.190   7.838  0.6672  0.2156 -1.7553
 7007TIP3   OH242655   0.431   1.692   1.253  0.4468  0.1229 -0.6170
 7007TIP3    H142656   0.413   1.599   1.266  0.8593  0.0404 -0.6009
 7007TIP3    H242657   0.500   1.694   1.186  0.7503  0.3940 -0.3059
 7008TIP3   OH242658   3.111   0.448   2.611  0.0787 -0.3794  0.1182
 7008TIP3    H142659   3.097   0.492   2.527 -0.5829 -1.4974 -0.3767
 7008TIP3    H242660   3.055   0.495   2.672 -0.7380 -0.6075 -0.4382
 7009TIP3   OH242661   3.642   1.464   1.448  0.0328 -0.3337  0.0799
 7009TIP3    H142662   3.574   1.518   1.407  0.0462 -0.0781  0.3950
 7009TIP3    H242663   3.713   1.462   1.383 -0.4833 -1.0397 -0.4714
 7010TIP3   OH242664   0.282   5.701   1.134  0.0862 -0.4638  0.1246
 7010TIP3    H142665   0.345   5.697   1.205 -0.5983 -0.7522  0.7307
 7010TIP3    H242666   0.197   5.709   1.177 -0.4584 -1.8542 -0.6064
 7011TIP3   OH242667   2.400   1.734   8.195  1.5398  0.1068  1.1656
 7011TIP3    H142668   2.389   1.820   8.236  1.4731 -0.1162  1.6276
 7011TIP3    H242669   2.423   1.676   8.268 -1.9372 -1.0304  1.5039
 7012TIP3   OH242670   0.368   1.088   0.668 -0.0362  0.3515 -0.4639
 7012TIP3    H142671   0.372   1.063   0.760  1.0085  1.4805 -0.1868
 7012TIP3    H242672   0.278   1.119   0.656 -0.3940 -0.4823 -0.0262
 7013TIP3   OH242673   4.728   2.693   1.833 -0.2547  0.1977 -0.1563
 7013TIP3    H142674   4.767   2.769   1.790 -0.1482  0.8317  1.0029
 7013TIP3    H242675   4.716   2.629   1.763  2.3898  0.1467 -0.6457
 7014TIP3   OH242676   6.589   6.137   8.445 -0.4304 -0.3099 -0.2320
 7014TIP3    H142677   6.507   6.104   8.482  0.1380 -1.0521  0.3777
 7014TIP3    H242678   6.605   6.219   8.492 -0.4629 -0.5139  0.1375
 7015TIP3   OH242679   3.813   1.370   2.810 -0.3205  0.5516 -0.2878
 7015TIP3    H142680   3.721   1.353   2.826 -0.2788 -0.3457 -0.8942
 7015TIP3    H242681   3.830   1.333   2.723  1.2317 -1.8966  0.9253
 7016TIP3   OH242682   1.013   0.600   0.463 -0.1311  0.1809 -0.6027
 7016TIP3    H142683   0.964   0.643   0.393 -1.8219 -0.7429 -0.0472
 7016TIP3    H242684   1.011   0.507   0.439  1.8787  0.1675 -0.8514
 7017TIP3   OH242685   3.857   0.614   1.960  0.1621  0.5421  0.1410
 7017TIP3    H142686   3.819   0.699   1.984 -1.0041  0.6878 -1.9585
 7017TIP3    H242687   3.817   0.594   1.875  2.0279 -1.1155 -0.3960
 7018TIP3   OH242688   3.271   5.063   2.034 -0.5282 -0.5612 -0.5356
 7018TIP3    H142689   3.342   5.015   2.077 -0.0074 -0.4938 -1.3009
 7018TIP3    H242690   3.269   5.148   2.078 -0.7485 -0.8943  0.1084
 7019TIP3   OH242691   1.792   4.807   0.725  0.9252  0.3602 -0.1472
 7019TIP3    H142692   1.697   4.818   0.732  1.1436  1.2493  2.6016
 7019TIP3    H242693   1.808   4.802   0.630 -1.6298  2.2348 -0.8180
 7020TIP3   OH242694   4.469   6.159   0.248 -0.6955  0.2292 -0.4669
 7020TIP3    H142695   4.475   6.078   0.197  0.5574  0.2151 -0.3283
 7020TIP3    H242696   4.559   6.179   0.272 -1.1838  0.6412  1.1257
 7021TIP3   OH242697   2.613   3.956   3.388 -0.2252  0.0209 -0.2107
 7021TIP3    H142698   2.701   3.930   3.416  0.4400  0.7024 -1.5269
 7021TIP3    H242699   2.581   4.013   3.457  0.9797  0.9181 -0.3633
 7022TIP3   OH242700   5.015   2.420   0.595  0.1127  1.0816  0.3161
 7022TIP3    H142701   5.102   2.460   0.587  0.1908  0.6636 -1.0776
 7022TIP3    H242702   5.026   2.352   0.661  1.3384 -0.2213 -1.1713
 7023TIP3   OH242703   3.593   4.496   7.531 -0.2433 -0.3116  0.0940
 7023TIP3    H142704   3.663   4.469   7.591 -0.0275 -0.2096 -0.1127
 7023TIP3    H242705   3.540   4.417   7.520 -0.8159 -0.0988  1.1377
 7024TIP3   OH242706   2.664   3.972   1.057 -0.0985  0.9644  0.3151
 7024TIP3    H142707   2.611   3.896   1.079  2.5105 -0.6799  1.4356
 7024TIP3    H242708   2.713   3.947   0.979  0.1428  1.8494  0.1630
 7025TIP3   OH242709   4.044   2.377   9.031  0.4075  0.6146 -0.0607
 7025TIP3    H142710   3.963   2.358   8.984  0.9810 -2.0265 -0.1043
 7025TIP3    H242711   4.024   2.456   9.081 -2.0937  0.2366 -0.3286
 7026TIP3   OH242712   3.502   3.904   7.386 -0.0092 -0.4770  0.3364
 7026TIP3    H142713   3.569   3.952   7.337 -1.8349  0.9068 -0.9401
 7026TIP3    H242714   3.519   3.812   7.366  0.5040 -0.0504 -1.3249
 7027TIP3   OH242715   2.441   2.981   0.761  0.1986  0.9209 -0.5183
 7027TIP3    H142716   2.501   3.013   0.693  2.0530 -0.8499  0.1864
 7027TIP3    H242717   2.466   3.031   0.840  0.7925  0.1810 -0.2241
 7028TIP3   OH242718   3.047   2.499   0.297  0.0714 -0.8712 -0.1629
 7028TIP3    H142719   2.998   2.579   0.315  0.3910 -0.5026 -0.8969
 7028TIP3    H242720   3.023   2.476   0.208  1.8240 -0.2345 -0.8449
 7029TIP3   OH242721   4.468   3.235   3.482 -0.5368 -0.1691  0.2763
 7029TIP3    H142722   4.429   3.263   3.565 -3.7429  0.4781 -1.2817
 7029TIP3    H242723   4.512   3.313   3.449 -0.2772 -0.0879  0.7923
 7030TIP3   OH242724   5.997   3.835   1.588  0.3431  0.4991  0.8072
 7030TIP3    H142725   6.057   3.905   1.613  0.8464  0.9783 -1.4953
 7030TIP3    H242726   5.917   3.881   1.564  0.5845  0.3005 -0.4426
 7031TIP3   OH242727   3.346   6.687   1.833  0.6579 -0.1186  0.6812
 7031TIP3    H142728   3.374   6.600   1.863  0.1625 -0.4173  0.2764
 7031TIP3    H242729   3.255   6.694   1.862 -0.0426 -0.6607 -1.2296
 7032TIP3   OH242730   3.474   4.946   2.199  0.1649  0.1350 -0.3472
 7032TIP3    H142731   3.567   4.927   2.187  0.3061  0.5003  0.1271
 7032TIP3    H242732   3.471   5.041   2.215 -0.3392  0.2136 -0.8796
 7033TIP3   OH242733   0.445   5.320   1.515 -0.1838 -0.0894 -0.7336
 7033TIP3    H142734   0.452   5.244   1.457  0.3067  0.2121 -1.0776
 7033TIP3    H242735   0.459   5.284   1.603 -0.4210 -0.4686 -0.8466
 7034TIP3   OH242736   3.436   1.572   1.289 -0.0616 -0.2783 -0.2172
 7034TIP3    H142737   3.509   1.604   1.237  0.6539 -0.0950  0.8842
 7034TIP3    H242738   3.414   1.487   1.249 -0.9389  0.7799 -2.1362
 7035TIP3   OH242739   4.021   2.982   0.948  0.1204  0.2802 -0.1068
 7035TIP3    H142740   4.115   2.971   0.962  0.1757 -2.7446 -1.9941
 7035TIP3    H242741   3.981   2.952   1.030  0.7584  0.8332  0.4163
 7036TIP3   OH242742   0.982   5.808   8.679 -0.6026  0.3768  0.5596
 7036TIP3    H142743   0.887   5.818   8.670 -0.5904  0.4056  0.4687
 7036TIP3    H242744   1.019   5.849   8.601 -0.5589 -0.4787  0.1122
 7037TIP3   OH242745   5.455   3.624   1.906  0.3163  0.4030 -0.0139
 7037TIP3    H142746   5.413   3.642   1.822 -1.2331  1.2324  0.8753
 7037TIP3    H242747   5.430   3.534   1.927 -0.7736  0.7712  0.3392
 7038TIP3   OH242748   5.655   4.146   8.793  0.2539 -0.2031 -0.9513
 7038TIP3    H142749   5.659   4.065   8.845  1.3524  1.7175  2.2143
 7038TIP3    H242750   5.583   4.196   8.832 -0.7921  0.1887 -3.2399
 7039TIP3   OH242751   6.321   4.300   2.687 -0.0818 -0.8003 -0.0902
 7039TIP3    H142752   6.364   4.304   2.601 -0.9680 -2.3894 -0.6541
 7039TIP3    H242753   6.249   4.238   2.674 -0.5464 -0.6699  1.6844
 7040TIP3   OH242754   3.295   2.581   8.571 -0.4208 -0.7575 -0.2691
 7040TIP3    H142755   3.360   2.514   8.552  1.2886  1.0504 -1.2096
 7040TIP3    H242756   3.330   2.628   8.646 -1.5967 -0.8890  0.3848
 7041TIP3   OH242757   4.309   1.006   2.389  0.0231 -0.0935  0.3822
 7041TIP3    H142758   4.283   0.999   2.297 -0.0576  0.2921  0.3727
 7041TIP3    H242759   4.396   1.045   2.387 -0.6320  1.4713  0.5127
 7042TIP3   OH242760   1.087   0.704   1.899 -0.2226 -0.1813  0.0960
 7042TIP3    H142761   1.108   0.742   1.984  0.5908  0.2275 -0.2840
 7042TIP3    H242762   1.169   0.666   1.868 -0.7833 -1.3714  0.0153
 7043TIP3   OH242763   0.807   2.693   8.397  0.2937  0.3280  0.0152
 7043TIP3    H142764   0.877   2.674   8.459  0.1764  0.2177  0.1143
 7043TIP3    H242765   0.851   2.701   8.313  0.2331 -1.5572 -0.2515
 7044TIP3   OH242766   5.669   2.987   1.124  0.0420 -0.0903 -0.1755
 7044TIP3    H142767   5.710   3.004   1.038  0.5552  2.1913  0.4388
 7044TIP3    H242768   5.724   2.920   1.164  1.7618  1.1064 -0.4001
 7045TIP3   OH242769   4.770   1.200   0.372  0.0389 -0.1426  0.5554
 7045TIP3    H142770   4.793   1.203   0.465  2.2473 -0.1406  0.0642
 7045TIP3    H242771   4.852   1.182   0.328 -1.3366 -2.3332 -1.2954
 7046TIP3   OH242772   3.985   2.618   8.843 -0.4639  0.3854  0.1969
 7046TIP3    H142773   4.025   2.616   8.930 -1.5840 -0.6342  0.7207
 7046TIP3    H242774   4.019   2.539   8.800  0.3301  1.0456 -0.4344
 7047TIP3   OH242775   5.076   0.262   0.512 -0.1482 -0.1081 -0.6366
 7047TIP3    H142776   5.111   0.209   0.440 -1.1023 -0.8021 -0.6217
 7047TIP3    H242777   4.982   0.241   0.513 -0.2932  0.5333  0.2707
 7048TIP3   OH242778   2.993   3.445   8.584  0.3475 -0.1749 -0.2436
 7048TIP3    H142779   3.048   3.516   8.617 -1.3409  0.6379  0.9859
 7048TIP3    H242780   3.050   3.369   8.581  1.0723  0.0998  3.0128
 7049TIP3   OH242781   1.346   6.484   3.097  0.3113  0.2401 -0.0032
 7049TIP3    H142782   1.298   6.414   3.053  0.2528  0.0113  0.4247
 7049TIP3    H242783   1.432   6.446   3.115 -0.8088 -1.0280  3.4590
 7050TIP3   OH242784   1.898   0.141   2.356  0.3627 -0.4982 -0.2111
 7050TIP3    H142785   1.955   0.182   2.291  0.4255 -0.7806 -0.3343
 7050TIP3    H242786   1.917   0.048   2.349 -0.5500 -0.6565 -0.6684
 7051TIP3   OH242787   5.280   4.425   2.142 -0.0113  0.2711 -0.4632
 7051TIP3    H142788   5.210   4.425   2.207  0.7122  0.4962  0.3256
 7051TIP3    H242789   5.294   4.332   2.123 -0.7682  0.2350 -0.9156
 7052TIP3   OH242790   3.053   4.442   0.557 -0.1172 -0.7139  0.4905
 7052TIP3    H142791   2.989   4.466   0.624 -0.2640 -1.5030  0.6442
 7052TIP3    H242792   3.062   4.347   0.566  0.7694 -0.6636  0.1942
 7053TIP3   OH242793   1.865   1.072   2.675  0.3929 -0.2499 -0.5812
 7053TIP3    H142794   1.934   1.109   2.730  0.8417  2.7682 -2.8933
 7053TIP3    H242795   1.790   1.064   2.734  1.4330  0.7642  0.9776
 7054TIP3   OH242796   2.748   4.318   8.129 -0.3679  0.2782 -0.3392
 7054TIP3    H142797   2.754   4.243   8.189  1.7986 -0.8434 -1.8496
 7054TIP3    H242798   2.744   4.280   8.042 -1.6624  1.9180 -1.0546
 7055TIP3   OH242799   6.005   2.407   1.477  0.0796  0.1762 -0.3396
 7055TIP3    H142800   6.023   2.346   1.549  0.8345 -1.8948 -2.1806
 7055TIP3    H242801   5.918   2.442   1.497 -0.6654 -1.9773  0.5050
 7056TIP3   OH242802   2.934   6.355   1.003  0.0899  0.2274 -0.0557
 7056TIP3    H142803   2.982   6.332   0.924  0.1308  0.3595 -0.0700
 7056TIP3    H242804   2.855   6.400   0.972 -0.5690 -0.9188 -0.0732
 7057TIP3   OH242805   6.621   1.203   1.387  0.3481  0.0300  0.7611
 7057TIP3    H142806   6.675   1.246   1.320  0.3698 -1.7018 -0.3915
 7057TIP3    H242807   6.681   1.190   1.460  1.6038 -1.8959 -0.5149
 7058TIP3   OH242808   0.025   6.504   7.865  0.0260 -0.0089 -0.0207
 7058TIP3    H142809  -0.022   6.490   7.948  0.7622  1.8100  0.7697
 7058TIP3    H242810   0.065   6.419   7.846  0.7181 -0.2274  2.0916
 7059TIP3   OH242811   2.216   5.370   3.103  0.0462 -0.3098 -0.4105
 7059TIP3    H142812   2.254   5.448   3.144 -0.5430 -1.2686  2.1951
 7059TIP3    H242813   2.288   5.330   3.054  1.0535  0.4849  0.3746
 7060TIP3   OH242814   5.214   3.316   3.360  0.4478  0.4161 -0.5964
 7060TIP3    H142815   5.243   3.225   3.355  0.7394  0.4185  0.5913
 7060TIP3    H242816   5.167   3.331   3.278  0.6184 -0.7213 -0.9253
 7061TIP3   OH242817   6.662   6.442   0.833 -0.8547 -0.0435  0.3415
 7061TIP3    H142818   6.753   6.430   0.804 -0.1436 -1.6271  2.9127
 7061TIP3    H242819   6.636   6.527   0.796  1.9639  0.8757  0.2356
 7062TIP3   OH242820   2.722   2.539   2.039  0.1621 -0.5879  0.7027
 7062TIP3    H142821   2.650   2.573   1.986  1.0636  1.0133  0.4333
 7062TIP3    H242822   2.787   2.510   1.975  0.4641 -0.4146  0.9285
 7063TIP3   OH242823   1.447   0.418   0.357  0.5657 -0.5908  0.1941
 7063TIP3    H142824   1.509   0.440   0.288  1.2172 -0.4214  0.8159
 7063TIP3    H242825   1.362   0.415   0.313  1.0118 -0.8342 -0.6716
 7064TIP3   OH242826   0.578   4.858   1.336 -0.0292 -0.1436 -0.5727
 7064TIP3    H142827   0.638   4.932   1.348  0.6748 -0.9332  1.2904
 7064TIP3    H242828   0.560   4.856   1.242  0.2504  2.1222 -0.7347
 7065TIP3   OH242829   0.039   4.092   1.441  0.2465 -0.2341  0.1504
 7065TIP3    H142830  -0.010   4.022   1.485  0.7098  0.8899  2.6166
 7065TIP3    H242831  -0.028   4.155   1.414  0.1424  0.5414  2.0953
 7066TIP3   OH242832   0.536   4.471   7.996 -0.0961  0.0068 -0.1465
 7066TIP3    H142833   0.549   4.466   8.090 -0.1312 -1.2504 -0.1949
 7066TIP3    H242834   0.507   4.384   7.970 -0.4607  0.4363 -1.2699
 7067TIP3   OH242835   0.348   0.574   1.139  0.1696 -0.2952 -0.2398
 7067TIP3    H142836   0.315   0.487   1.121 -0.0744 -0.6477  1.7427
 7067TIP3    H242837   0.281   0.633   1.105  0.0503 -0.8772 -1.0354
 7068TIP3   OH242838   6.517   2.449   1.918 -0.1643 -0.1871  0.2762
 7068TIP3    H142839   6.606   2.484   1.917 -0.9245  1.9107  0.3679
 7068TIP3    H242840   6.526   2.360   1.885  1.9565 -0.0265  0.2711
 7069TIP3   OH242841   2.175   0.966   9.000 -0.3498  0.4022 -0.3519
 7069TIP3    H142842   2.083   0.956   9.025 -0.7224  2.0952 -0.9289
 7069TIP3    H242843   2.211   1.030   9.061  0.2052  0.4447 -0.7094
 7070TIP3   OH242844   4.549   0.136   0.513  0.6653 -0.6924  0.5111
 7070TIP3    H142845   4.520   0.068   0.452  1.3890 -0.9749  0.4720
 7070TIP3    H242846   4.478   0.200   0.512  0.6416 -0.7099 -0.5854
 7071TIP3   OH242847   4.920   2.148   2.621 -0.0638  0.2427  0.8017
 7071TIP3    H142848   4.903   2.055   2.605  0.3776 -0.1667  2.5275
 7071TIP3    H242849   4.931   2.154   2.715  0.2973  1.9985  0.6707
 7072TIP3   OH242850   3.939   4.308   2.630 -0.3786 -0.0000  0.2624
 7072TIP3    H142851   3.953   4.246   2.558  1.8724 -1.6564  1.9707
 7072TIP3    H242852   3.867   4.363   2.601 -1.4165 -2.3865 -2.0671
 7073TIP3   OH242853   0.261   4.849   2.106  0.4037  0.3883  0.5886
 7073TIP3    H142854   0.255   4.787   2.178 -0.5797  1.4633  1.4584
 7073TIP3    H242855   0.240   4.797   2.028 -1.9416 -0.0842  1.4673
 7074TIP3   OH242856   5.511   3.384   8.140 -0.2484 -0.6903 -0.5652
 7074TIP3    H142857   5.474   3.430   8.216  0.5832 -0.0167 -0.5590
 7074TIP3    H242858   5.440   3.327   8.110 -0.4590 -1.2834  0.9727
 7075TIP3   OH242859   4.296   2.979   0.996  0.1736  0.7987  0.0418
 7075TIP3    H142860   4.382   3.005   0.962  1.3444  0.9667  2.8791
 7075TIP3    H242861   4.268   3.054   1.050 -0.2294 -0.4908  1.7074
 7076TIP3   OH242862   4.574   2.318   2.429  0.0418 -0.2517  0.1641
 7076TIP3    H142863   4.643   2.284   2.373  1.1325  0.0754  1.2529
 7076TIP3    H242864   4.517   2.243   2.445  0.7706 -0.8285  0.1398
 7077TIP3   OH242865   6.530   1.753   1.156 -0.1838 -0.1650  0.0537
 7077TIP3    H142866   6.565   1.804   1.083 -2.5835  0.8300 -0.4997
 7077TIP3    H242867   6.550   1.662   1.134 -1.1552  0.0804 -2.0690
 7078TIP3   OH242868   0.844   4.436   2.517 -0.1544 -0.3340  0.4063
 7078TIP3    H142869   0.888   4.499   2.460 -0.5896  0.3896  0.8640
 7078TIP3    H242870   0.754   4.433   2.485 -0.2355 -0.4236  0.6447
 7079TIP3   OH242871   3.990   4.611   2.622 -0.0435  0.3087 -0.6284
 7079TIP3    H142872   4.079   4.646   2.613  0.1945  0.0336  0.4883
 7079TIP3    H242873   4.003   4.517   2.639 -0.4531  0.5460  1.1661
 7080TIP3   OH242874   3.316   2.446   0.257 -0.1134 -0.1818  0.4310
 7080TIP3    H142875   3.327   2.379   0.324 -0.9794 -0.6397  0.1369
 7080TIP3    H242876   3.233   2.488   0.278  0.7581  1.3233  1.0419
 7081TIP3   OH242877   1.174   6.194   0.682 -0.0734 -0.5359 -0.3897
 7081TIP3    H142878   1.138   6.109   0.658  0.5011 -1.1759  0.8853
 7081TIP3    H242879   1.268   6.178   0.691  0.0491  0.2510 -0.2149
 7082TIP3   OH242880   6.389   5.878   9.071 -0.0170  0.7106  0.2228
 7082TIP3    H142881   6.321   5.934   9.109 -1.2764 -2.1372  2.5466
 7082TIP3    H242882   6.343   5.798   9.047  2.3485 -1.0867  1.2882
 7083TIP3   OH242883   5.307   6.198   0.673 -0.1556  0.1014 -0.3956
 7083TIP3    H142884   5.368   6.190   0.600 -1.8957 -0.5561 -1.8690
 7083TIP3    H242885   5.222   6.216   0.632 -1.1633 -0.0695  1.4814
 7084TIP3   OH242886   1.775   4.740   8.465  0.0364  0.2045  0.5743
 7084TIP3    H142887   1.703   4.711   8.521  1.2260 -0.8465  1.6070
 7084TIP3    H242888   1.781   4.674   8.396 -0.6779  0.8919 -0.1828
 7085TIP3   OH242889   0.169   4.626   0.598  0.6124  0.2721  0.0910
 7085TIP3    H142890   0.191   4.534   0.607 -0.3955  0.0371  0.3699
 7085TIP3    H242891   0.190   4.648   0.508 -0.2848 -0.5648 -0.3359
 7086TIP3   OH242892   6.482   2.208   8.091 -0.1179 -0.5633 -0.3388
 7086TIP3    H142893   6.462   2.299   8.114 -1.4351 -1.1227  0.8692
 7086TIP3    H242894   6.547   2.215   8.020 -0.6346  1.3075 -0.6844
 7087TIP3   OH242895   0.083   1.969   1.780  0.0400 -0.5325 -0.1437
 7087TIP3    H142896   0.003   1.918   1.768 -0.4050  0.0295  0.3500
 7087TIP3    H242897   0.113   1.988   1.691 -0.3039 -0.8600 -0.3308
 7088TIP3   OH242898   3.873   3.330   0.771  1.0099  0.2557  0.3934
 7088TIP3    H142899   3.849   3.390   0.842  0.1162  0.4391 -0.0565
 7088TIP3    H242900   3.959   3.296   0.797  1.1229  1.0466  1.0921
 7089TIP3   OH242901   0.899   2.187   0.568 -0.1388 -0.0547  0.1970
 7089TIP3    H142902   0.944   2.123   0.514 -0.8809 -0.3431 -0.0979
 7089TIP3    H242903   0.856   2.245   0.504  0.1292  0.4452  0.4648
 7090TIP3   OH242904   0.021   3.507   0.552 -0.2047 -0.2226 -0.5938
 7090TIP3    H142905   0.021   3.451   0.629  2.1161  1.1489  0.5232
 7090TIP3    H242906  -0.026   3.457   0.486 -2.7824 -1.2231  1.8109
 7091TIP3   OH242907   2.176   5.566   2.003 -0.2201 -0.4213 -0.2062
 7091TIP3    H142908   2.228   5.589   1.927 -1.4810  1.3667 -0.6141
 7091TIP3    H242909   2.171   5.647   2.054  0.8491 -1.6440  1.9816
 7092TIP3   OH242910   4.112   0.093   1.316 -0.6216  0.4101  0.3786
 7092TIP3    H142911   4.163   0.041   1.254  0.1724  0.7339  0.7431
 7092TIP3    H242912   4.091   0.031   1.387 -2.0549 -0.1235 -0.4677
 7093TIP3   OH242913   5.906   4.817   0.061  0.6116  0.3112 -0.1313
 7093TIP3    H142914   5.889   4.749   0.126  1.3403  0.0071 -0.2495
 7093TIP3    H242915   5.827   4.819   0.007 -0.2455  0.9655  1.0983
 7094TIP3   OH242916   4.558   5.792   7.653 -0.3459 -0.0447  0.2158
 7094TIP3    H142917   4.611   5.740   7.713 -0.0782  0.0542  0.0677
 7094TIP3    H242918   4.598   5.777   7.567 -1.0143 -0.5639 -0.0162
 7095TIP3   OH242919   1.093   1.590   8.443 -0.0543  0.0046  0.2337
 7095TIP3    H142920   1.102   1.500   8.413  2.5837  0.5556 -0.8998
 7095TIP3    H242921   1.054   1.583   8.530 -0.6758 -2.1418 -0.1748
 7096TIP3   OH242922   5.048   6.197   1.022 -0.2953  0.1112 -0.3116
 7096TIP3    H142923   5.143   6.199   1.009 -0.1413  0.1860  0.7050
 7096TIP3    H242924   5.027   6.105   1.037 -0.0415  0.3093  1.5615
 7097TIP3   OH242925   5.031   2.396   7.969 -0.3242  0.1818  0.0544
 7097TIP3    H142926   4.993   2.483   7.976 -0.7332  0.0498 -0.4166
 7097TIP3    H242927   5.107   2.407   7.912 -0.1607  0.2947  0.2946
 7098TIP3   OH242928   3.105   4.125   1.519  0.1347  0.2819  0.2843
 7098TIP3    H142929   3.102   4.221   1.516  1.0108  0.4202  2.2794
 7098TIP3    H242930   3.091   4.098   1.428  1.2623  2.3376 -0.5790
 7099TIP3   OH242931   2.137   0.925   0.646 -0.3996 -0.0314 -0.6993
 7099TIP3    H142932   2.184   0.992   0.597 -0.5627  0.2203 -0.5131
 7099TIP3    H242933   2.185   0.918   0.729 -0.2701 -0.2800 -0.7956
 7100TIP3   OH242934   3.374   0.985   7.522  0.2930 -0.6829  0.5942
 7100TIP3    H142935   3.330   1.028   7.449  0.3520  1.6963  1.8656
 7100TIP3    H242936   3.446   0.937   7.482  0.2161  0.3987 -0.9188
 7101TIP3   OH242937   5.002   1.443   1.694 -0.2752  0.1567  0.0820
 7101TIP3    H142938   5.049   1.360   1.698 -1.6925 -0.6226  1.4208
 7101TIP3    H242939   4.963   1.444   1.606  0.9858  0.1352 -0.4957
 7102TIP3   OH242940   5.674   1.544   0.615  0.1999  0.0596 -0.2299
 7102TIP3    H142941   5.612   1.479   0.649 -0.0545  0.6552  0.4859
 7102TIP3    H242942   5.630   1.583   0.540  0.3703 -0.6084 -0.6894
 7103TIP3   OH242943   3.430   3.009   8.716 -0.3995 -0.3180  0.1568
 7103TIP3    H142944   3.367   3.050   8.657  2.4723  1.0285 -2.2122
 7103TIP3    H242945   3.502   2.982   8.660  1.2724 -1.6388  2.7256
 7104TIP3   OH242946   1.561   2.271   1.467 -0.2516 -0.3981 -0.3131
 7104TIP3    H142947   1.511   2.353   1.462 -1.5411 -1.1586 -0.3808
 7104TIP3    H242948   1.578   2.260   1.561 -2.0358 -1.1508 -0.0325
 7105TIP3   OH242949   2.284   3.610   2.340  0.0555 -0.1573  0.1781
 7105TIP3    H142950   2.237   3.564   2.410 -1.2836 -1.2624 -1.3613
 7105TIP3    H242951   2.249   3.700   2.343  1.4397  0.3661  2.1162
 7106TIP3   OH242952   2.545   3.122   2.232 -0.2147 -0.2052 -0.1610
 7106TIP3    H142953   2.584   3.074   2.304 -2.6474 -0.8509  0.7973
 7106TIP3    H242954   2.477   3.065   2.198 -0.4451  0.9044 -1.7037
 7107TIP3   OH242955   4.325   3.373   3.699 -0.4225 -0.0184 -0.1762
 7107TIP3    H142956   4.331   3.457   3.653  0.2312  0.7565  1.2764
 7107TIP3    H242957   4.235   3.344   3.684 -1.0705  1.5979  0.3897
 7108TIP3   OH242958   0.075   0.026   1.076  0.1666  0.0715 -0.3819
 7108TIP3    H142959   0.011  -0.042   1.097  0.4100  0.1911  0.7648
 7108TIP3    H242960   0.136  -0.018   1.016 -0.5523 -0.2542 -0.9074
 7109TIP3   OH242961   4.794   0.970   8.534 -0.0231  0.4161 -0.2763
 7109TIP3    H142962   4.816   1.043   8.591  0.5859  0.8880 -1.1009
 7109TIP3    H242963   4.723   1.002   8.479 -0.9642 -0.2064  0.5197
 7110TIP3   OH242964   5.052   3.361   1.523  0.0453 -0.3314 -0.1275
 7110TIP3    H142965   5.136   3.315   1.520  0.4049  0.2883  0.1178
 7110TIP3    H242966   5.070   3.445   1.482 -0.1010  0.3286  1.1084
 7111TIP3   OH242967   5.261   2.443   8.597 -0.4159 -0.2056 -0.0413
 7111TIP3    H142968   5.300   2.381   8.659  0.0203  0.2236  0.1130
 7111TIP3    H242969   5.262   2.527   8.643 -1.5052 -0.1763 -0.0389
 7112TIP3   OH242970   3.343   0.124   2.208  0.3681 -0.4028 -0.0912
 7112TIP3    H142971   3.381   0.104   2.122  0.1006 -0.9451 -0.0911
 7112TIP3    H242972   3.327   0.038   2.247 -1.2027 -0.2083 -0.2342
 7113TIP3   OH242973   1.063   5.966   8.393  0.2005 -0.6300 -0.4090
 7113TIP3    H142974   1.072   5.954   8.299  2.1885 -0.4015 -0.2867
 7113TIP3    H242975   0.995   6.033   8.403 -0.0283 -0.6588 -1.6642
 7114TIP3   OH242976   4.158   3.098   2.430  0.2813 -0.5326  0.0922
 7114TIP3    H142977   4.111   3.080   2.348 -0.1151 -1.3020  0.4759
 7114TIP3    H242978   4.193   3.186   2.419  0.8355 -0.8963 -1.1845
 7115TIP3   OH242979   0.609   5.901   1.780 -0.2155 -0.2482 -0.0819
 7115TIP3    H142980   0.525   5.865   1.809  0.2324 -0.8774  0.4683
 7115TIP3    H242981   0.670   5.877   1.850  0.3148  0.6642 -0.2225
 7116TIP3   OH242982   0.851   2.657   3.149 -0.4037  0.1294 -0.4347
 7116TIP3    H142983   0.789   2.715   3.105  0.5266 -0.3344 -2.5089
 7116TIP3    H242984   0.937   2.688   3.120  0.1529 -1.5341 -0.6901
 7117TIP3   OH242985   2.393   3.645   2.069 -0.1036  0.4358  0.1094
 7117TIP3    H142986   2.310   3.632   2.115 -1.4596  0.0634 -2.2499
 7117TIP3    H242987   2.450   3.577   2.102 -0.8855  0.4119  1.4657
 7118TIP3   OH242988   5.646   0.884   2.485  0.2615  0.0883  0.1419
 7118TIP3    H142989   5.627   0.953   2.549 -0.3549 -1.6783  1.9794
 7118TIP3    H242990   5.704   0.824   2.532  1.9437  0.0247 -1.8832
 7119TIP3   OH242991   1.435   2.387   3.623  0.0737 -0.1535 -0.1190
 7119TIP3    H142992   1.516   2.338   3.637 -0.5890 -1.2829 -0.1039
 7119TIP3    H242993   1.409   2.364   3.534 -0.3822 -0.0150 -0.0232
 7120TIP3   OH242994   4.074   0.047   0.408 -0.6294 -0.2490  0.1978
 7120TIP3    H142995   4.042   0.120   0.462  0.0281  0.6430 -0.6036
 7120TIP3    H242996   3.998   0.023   0.355  0.1430  2.6367 -2.5539
 7121TIP3   OH242997   0.556   4.340   0.365 -0.1933  0.3574  0.1821
 7121TIP3    H142998   0.651   4.339   0.356 -0.2054 -2.2467 -0.4124
 7121TIP3    H242999   0.540   4.310   0.455 -0.4456  0.2798  0.1134
 7122TIP3   OH243000   5.035   6.318   3.242 -0.1025  0.5765 -0.4035
 7122TIP3    H143001   4.965   6.375   3.272 -1.2846 -0.3975 -1.2254
 7122TIP3    H243002   5.116   6.361   3.272 -0.8575  3.2010 -1.7993
 7123TIP3   OH243003   1.508   4.818   0.597  0.3532  0.1770  0.2650
 7123TIP3    H143004   1.425   4.838   0.641  0.2262 -1.4944  0.8733
 7123TIP3    H243005   1.526   4.727   0.622  1.9720  0.2645 -0.5065
 7124TIP3   OH243006   2.364   1.211   9.083 -0.3244 -0.7234 -0.0472
 7124TIP3    H143007   2.444   1.170   9.115  1.1419  0.3196 -2.1150
 7124TIP3    H243008   2.375   1.214   8.988 -1.9585  1.2018 -0.2437
 7125TIP3   OH243009   2.752   3.688   1.731  0.7418  0.1746 -0.0432
 7125TIP3    H143010   2.803   3.615   1.696  0.0674 -0.5178  0.3930
 7125TIP3    H243011   2.757   3.678   1.826 -0.5277 -0.1497  0.0051
 7126TIP3   OH243012   0.912   5.997   2.366  0.2092  0.2685 -0.2237
 7126TIP3    H143013   0.872   6.000   2.453  2.1968  0.7213  0.7268
 7126TIP3    H243014   0.999   6.034   2.378  1.0755 -0.9788 -2.1030
 7127TIP3   OH243015   2.885   3.935   8.836 -0.7836 -0.7594 -0.0876
 7127TIP3    H143016   2.831   3.989   8.778 -2.2535 -3.0360 -0.9817
 7127TIP3    H243017   2.967   3.923   8.789  0.0835  1.5927  0.6706
 7128TIP3   OH243018   4.731   4.054   8.194  0.0424  0.0505 -0.0071
 7128TIP3    H143019   4.800   4.074   8.130 -1.4494  0.1497 -1.6606
 7128TIP3    H243020   4.650   4.053   8.142 -1.1788 -0.3063  1.8280
 7129TIP3   OH243021   3.589   2.785   2.186  0.0074  0.1612 -0.3198
 7129TIP3    H143022   3.625   2.705   2.147 -1.0082 -0.0500 -0.8579
 7129TIP3    H243023   3.666   2.841   2.200  0.6020 -0.4569 -1.0091
 7130TIP3   OH243024   6.591   0.042   8.555  0.1898 -0.0413 -1.0210
 7130TIP3    H143025   6.504   0.070   8.527  0.5006  1.2089 -0.8000
 7130TIP3    H243026   6.608  -0.039   8.505 -2.1275 -1.7976  0.8584
 7131TIP3   OH243027   2.896   4.209   1.267  0.4401 -0.1280 -0.4795
 7131TIP3    H143028   2.803   4.190   1.258  0.3307 -0.9284  1.7319
 7131TIP3    H243029   2.900   4.298   1.300  0.3311 -0.7538  1.2934
 7132TIP3   OH243030   5.564   5.822   8.238 -1.0212 -0.3360 -0.1293
 7132TIP3    H143031   5.511   5.901   8.240 -1.2091 -0.4652  0.0572
 7132TIP3    H243032   5.589   5.807   8.329  1.3525  1.0576 -0.4972
 7133TIP3   OH243033   1.475   1.851   0.657 -0.0652  0.8765  0.7847
 7133TIP3    H143034   1.430   1.861   0.573  3.1667  1.2665 -1.0776
 7133TIP3    H243035   1.420   1.791   0.707 -2.8014  1.6761 -1.0362
 7134TIP3   OH243036   3.390   5.557   7.594  0.3472 -0.3044  0.2100
 7134TIP3    H143037   3.483   5.574   7.576  0.0291 -0.0844 -1.4010
 7134TIP3    H243038   3.347   5.641   7.576 -0.0693 -0.0756  2.0361
 7135TIP3   OH243039   3.789   0.244   0.976 -0.1810 -0.1609  0.0510
 7135TIP3    H143040   3.709   0.294   0.990  1.3012  2.3525  0.0845
 7135TIP3    H243041   3.838   0.255   1.058  1.6078  1.1870 -1.1325
 7136TIP3   OH243042   0.374   5.175   9.020  0.7390 -0.0735  0.5521
 7136TIP3    H143043   0.298   5.189   9.077  0.5215 -1.8681  0.7565
 7136TIP3    H243044   0.429   5.251   9.034 -0.9544  1.2250  0.5034
 7137TIP3   OH243045   2.345   4.558   0.089 -0.1489  0.2808  0.4106
 7137TIP3    H143046   2.270   4.607   0.124 -0.5128 -0.4086  0.6178
 7137TIP3    H243047   2.362   4.598   0.004  2.0371  3.3762  2.0998
 7138TIP3   OH243048   1.198   2.543   8.534  0.0655 -0.5463  0.7176
 7138TIP3    H143049   1.232   2.454   8.540 -0.5518 -1.1480 -2.6371
 7138TIP3    H243050   1.155   2.547   8.448 -0.4384  2.8240  0.9735
 7139TIP3   OH243051   2.619   3.568   3.577  0.3204  0.1489 -1.0296
 7139TIP3    H143052   2.570   3.505   3.630  0.8390  0.6498  0.0924
 7139TIP3    H243053   2.553   3.629   3.545 -0.0185 -0.2145 -1.0176
 7140TIP3   OH243054   0.127   2.672   1.462 -0.0933  0.1063 -0.3014
 7140TIP3    H143055   0.109   2.587   1.501 -0.1395  0.8121  1.3114
 7140TIP3    H243056   0.172   2.721   1.531 -0.9539  1.7102 -0.8098
 7141TIP3   OH243057   4.652   5.979   1.095 -0.5402 -0.4630 -0.1061
 7141TIP3    H143058   4.670   6.062   1.050  2.6587 -1.0616 -0.2118
 7141TIP3    H243059   4.711   5.980   1.171 -1.9257 -1.7919  1.0590
 7142TIP3   OH243060   5.452   6.458   8.087  0.0324  0.7430 -0.3184
 7142TIP3    H143061   5.546   6.473   8.081  0.4579 -1.6536 -0.9796
 7142TIP3    H243062   5.422   6.515   8.158  2.3737  0.0731  1.3333
 7143TIP3   OH243063   5.009   6.034   8.011 -0.2355  0.1644 -0.0173
 7143TIP3    H143064   5.081   6.052   7.951 -0.6846  0.5001 -0.4616
 7143TIP3    H243065   5.049   6.036   8.098  0.3584 -0.0163 -0.2802
 7144TIP3   OH243066   5.678   2.707   8.177 -0.2219  0.4025  0.1279
 7144TIP3    H143067   5.644   2.629   8.220 -1.8106  0.3689 -1.0813
 7144TIP3    H243068   5.772   2.706   8.196 -0.1455 -1.9451 -0.0708
 7145TIP3   OH243069   3.578   4.523   2.280 -0.1935  0.1028  0.2644
 7145TIP3    H143070   3.575   4.608   2.325  2.3687  0.0407  0.7028
 7145TIP3    H243071   3.592   4.545   2.188 -0.9548  0.1517  0.1522
 7146TIP3   OH243072   0.956   0.799   1.675  0.4395 -0.5466 -0.1257
 7146TIP3    H143073   0.947   0.742   1.599 -2.2155  0.2580 -0.5154
 7146TIP3    H243074   0.985   0.741   1.745 -0.2441 -1.9685 -0.9735
 7147TIP3   OH243075   5.481   6.466   7.793 -0.1128  0.0764  0.1249
 7147TIP3    H143076   5.485   6.561   7.785 -0.8458  0.0498 -0.7090
 7147TIP3    H243077   5.481   6.450   7.887  1.3179  0.8223  0.2841
 7148TIP3   OH243078   5.769   2.289   1.249 -0.0981  0.5948  0.2994
 7148TIP3    H143079   5.705   2.332   1.191 -0.4107 -0.7021 -0.3577
 7148TIP3    H243080   5.851   2.291   1.200 -0.4725 -0.9391 -0.4376
 7149TIP3   OH243081   2.356   0.852   1.930  0.1568 -0.0779 -0.4099
 7149TIP3    H143082   2.309   0.782   1.975 -0.1524  0.0138 -0.5916
 7149TIP3    H243083   2.444   0.816   1.916 -0.3253 -0.8631 -1.5206
 7150TIP3   OH243084   0.227   0.634   7.668 -0.3034  0.4037  0.3835
 7150TIP3    H143085   0.279   0.676   7.599 -0.8647  0.2148 -0.1621
 7150TIP3    H243086   0.165   0.702   7.695  0.1973  0.6186  1.0117
 7151TIP3   OH243087   5.482   2.615   0.916 -0.3623  0.0197 -0.6281
 7151TIP3    H143088   5.430   2.660   0.851 -0.7903 -1.7767 -1.5864
 7151TIP3    H243089   5.573   2.630   0.890 -0.4888  0.5054 -0.7875
 7152TIP3   OH243090   4.993   3.043   2.896  0.1137 -0.5264 -0.7465
 7152TIP3    H143091   4.918   3.099   2.919  0.3444  0.5887 -2.5189
 7152TIP3    H243092   5.043   3.095   2.834  1.7788 -1.7097 -0.4547
 7153TIP3   OH243093   5.195   3.627   3.559  0.1506  0.6237  0.1465
 7153TIP3    H143094   5.263   3.606   3.496 -1.5769 -0.8762 -1.3473
 7153TIP3    H243095   5.148   3.701   3.520 -1.3260 -0.7149 -0.7711
 7154TIP3   OH243096   4.306   6.134   0.467  1.0708 -0.1726  0.1905
 7154TIP3    H143097   4.361   6.164   0.395  1.1840  2.1668  1.1441
 7154TIP3    H243098   4.343   6.049   0.492  1.3410 -0.7976 -2.1128
 7155TIP3   OH243099   1.498   6.261   0.066  0.0922 -0.6805 -0.2671
 7155TIP3    H143100   1.405   6.238   0.073 -0.3630  0.9389 -0.4931
 7155TIP3    H243101   1.507   6.296  -0.023  0.9419 -0.8517 -0.2590
 7156TIP3   OH243102   2.792   1.315   8.486 -0.4533 -0.8788 -1.0671
 7156TIP3    H143103   2.751   1.401   8.477 -1.8699 -1.0409  2.3678
 7156TIP3    H243104   2.719   1.256   8.507  0.8600 -2.3057 -0.3238
 7157TIP3   OH243105   2.052   0.546   2.551 -0.3197 -0.3296  0.6279
 7157TIP3    H143106   1.972   0.544   2.499 -0.3527 -1.5038  0.6949
 7157TIP3    H243107   2.060   0.457   2.586  1.0633 -0.2623  0.5431
 7158TIP3   OH243108   3.925   0.471   1.333  0.5318  0.3747  0.4618
 7158TIP3    H143109   3.834   0.492   1.354  1.3787  1.0633  4.1226
 7158TIP3    H243110   3.957   0.423   1.410  2.5308 -2.5404 -1.9354
 7159TIP3   OH243111   6.416   1.230   2.405  0.1902 -0.2444 -0.1194
 7159TIP3    H143112   6.385   1.235   2.315  0.5994 -0.3656 -0.2711
 7159TIP3    H243113   6.349   1.275   2.456  0.9256  1.6589 -0.7293
 7160TIP3   OH243114   2.295   0.993   8.572  0.0159  0.2845 -0.0839
 7160TIP3    H143115   2.238   0.939   8.518  0.3722 -1.0856  0.8683
 7160TIP3    H243116   2.235   1.057   8.612 -0.9271 -1.1618  0.9455
 7161TIP3   OH243117   1.082   2.750   1.162  0.5584 -0.5939 -0.1301
 7161TIP3    H143118   1.038   2.798   1.232  1.6516  0.7000 -0.2859
 7161TIP3    H243119   1.162   2.716   1.202  0.7754 -0.5655 -0.5251
 7162TIP3   OH243120   1.384   5.547   8.956 -0.2932  0.9623  0.1136
 7162TIP3    H143121   1.408   5.477   8.896 -0.1430  0.8580  0.2939
 7162TIP3    H243122   1.446   5.539   9.028 -1.9532 -0.4628  1.4765
 7163TIP3   OH243123   5.724   5.655   1.531  0.4352 -0.3710 -0.1583
 7163TIP3    H143124   5.805   5.609   1.552  0.9187 -0.0565 -1.2947
 7163TIP3    H243125   5.747   5.713   1.459 -0.8345 -0.3825 -0.5982
 7164TIP3   OH243126   6.374   4.464   0.176  0.3446 -0.1242 -0.2642
 7164TIP3    H143127   6.397   4.373   0.192 -1.4140 -0.2601  1.8436
 7164TIP3    H243128   6.443   4.515   0.219  0.1106 -0.4703  0.5172
 7165LIG      O43129   0.533   3.226   0.410  0.5145 -0.3062 -0.2880
 7165LIG      N43130   0.823   3.161   0.090 -0.2330  0.5075 -0.0020
 7165LIG     C143131   0.701   3.238   0.577 -0.4336  0.6035  0.5355
 7165LIG     C243132   0.664   3.268   0.426 -0.4608 -0.5664  0.4100
 7165LIG     C343133   0.618   3.318   0.675 -0.1106 -0.4211  0.1324
 7165LIG     C443134   0.701   3.084   0.619 -0.0733  0.4169 -0.1276
 7165LIG     C543135   0.759   3.201   0.321 -0.2540 -0.4925  0.2208
 7165LIG     C643136   0.672   3.306   0.820  1.0557  0.8051 -0.1000
 7165LIG     C743137   0.746   3.070   0.760  0.1073  0.6421 -0.0161
 7165LIG     C843138   0.670   3.156   0.862  0.2013 -0.8690  0.4537
 7165LIG     C943139   0.741   3.247   0.170  0.2286  0.0238  0.0831
 7165LIG    C1043140   0.676   3.426   0.414  0.1237 -0.0351  0.1144
 7165LIG    C1143141   0.786   3.158  -0.052  0.7766  0.4606  0.3125
 7165LIG    C1243142   0.968   3.177   0.110  0.0377  0.0743 -0.2169
 7165LIG    C1343143   0.833   3.284  -0.124  0.1193  0.6848  0.3664
 7165LIG    C1443144   1.003   3.314   0.059  0.6004 -0.7239 -0.3102
 7165LIG    C1543145   0.984   3.307  -0.097  0.4177  0.0677 -0.5381
 7165LIG    C1643146   0.799   3.495   0.430 -0.4081 -0.5398  0.1396
 7165LIG    C1743147   0.562   3.506   0.387 -0.1742 -0.1498 -0.6429
 7165LIG    C1843148   0.799   3.638   0.428 -0.3153 -0.4425  0.0603
 7165LIG    C1943149   0.565   3.648   0.390 -0.3592  0.2823 -0.3458
 7165LIG    C2043150   0.680   3.716   0.418 -0.1286 -0.4796 -0.1526
 7165LIG     H143151   0.804   3.276   0.591 -0.3158 -0.4308  2.7481
 7165LIG     H243152   0.513   3.282   0.674 -0.5975  0.8522 -1.8335
 7165LIG     H343153   0.613   3.426   0.648  1.3748 -0.7511 -1.6817
 7165LIG     H443154   0.761   3.017   0.555 -0.5187 -0.3722  0.2648
 7165LIG     H543155   0.595   3.053   0.606  0.2190 -0.5096 -0.4067
 7165LIG     H643156   0.760   3.090   0.326 -0.3825 -0.4425  2.3982
 7165LIG     H743157   0.862   3.228   0.354 -1.5293  1.4134  3.0033
 7165LIG     H843158   0.620   3.375   0.889  0.9201  1.7796 -1.1471
 7165LIG     H943159   0.781   3.328   0.820  1.0293  1.1997 -2.6120
 7165LIG    H1043160   0.856   3.081   0.756  0.3011 -1.2735 -1.0768
 7165LIG    H1143161   0.723   2.964   0.783 -1.3636  0.9077 -0.1523
 7165LIG    H1243162   0.565   3.119   0.860  0.3058 -1.1371 -0.7489
 7165LIG    H1343163   0.709   3.143   0.966  0.9441  0.4529  0.3736
 7165LIG    H1443164   0.641   3.232   0.123 -0.0280  2.9837 -0.4834
 7165LIG    H1543165   0.758   3.356   0.164  1.5582  0.0994  3.1264
 7165LIG    H1643166   0.677   3.136  -0.062  0.7080  0.8384  0.2263
 7165LIG    H1743167   0.842   3.069  -0.088  0.0757  0.1984 -0.1434
 7165LIG    H1843168   1.025   3.098   0.056 -0.8516 -1.7980  1.4824
 7165LIG    H1943169   1.004   3.155   0.212 -2.3228 -1.0400  0.4359
 7165LIG    H2043170   0.496   3.227   0.499  1.3424  0.0046  0.0598
 7165LIG    H2143171   0.771   3.364  -0.079 -0.8251  1.6660 -2.4675
 7165LIG    H2243172   0.806   3.286  -0.232  0.1362  0.8536  0.3652
 7165LIG    H2343173   1.107   3.344   0.083 -0.1874  2.0274  0.0360
 7165LIG    H2443174   0.936   3.389   0.107 -0.7334 -3.0033  1.6812
 7165LIG    H2543175   1.006   3.407  -0.141 -0.6023  2.2171  3.3464
 7165LIG    H2643176   1.043   3.224  -0.142  0.4215  1.3461 -3.0361
 7165LIG    H2743177   0.888   3.438   0.453  1.2167  1.4575 -0.8237
 7165LIG    H2843178   0.468   3.457   0.367 -0.0965 -0.7381  0.3548
 7165LIG    H2943179   0.890   3.690   0.454 -0.0580 -0.1927 -1.2706
 7165LIG    H3043180   0.471   3.697   0.368 -1.1509 -2.0925 -2.7459
 7165LIG    H3143181   0.675   3.824   0.415 -2.1966 -0.5421 -1.3145
   6.73486   6.73486   9.09066
