Title
43181
    1CHL1    C3    1   3.951   3.659   6.952 -0.9077 -0.0533 -0.5609
    1CHL1    H3    2   3.969   3.550   6.964  1.4189  0.4259  0.8402
    1CHL1    O3    3   3.942   3.713   7.076  0.5074 -0.2346  0.1785
    1CHL1   H3'    4   3.925   3.806   7.058 -2.0886 -0.5191  0.6773
    1CHL1    C4    5   4.082   3.711   6.886  0.3139  0.4871 -0.6800
    1CHL1   H4A    6   4.085   3.820   6.909  1.4889  1.0957 -3.3303
    1CHL1   H4B    7   4.168   3.662   6.938 -1.2341 -0.4844  1.0725
    1CHL1    C5    8   4.091   3.685   6.737  0.3526 -0.1648  0.6256
    1CHL1    C6    9   4.196   3.622   6.678 -0.5967  0.2890 -0.1076
    1CHL1    H6   10   4.277   3.578   6.739 -1.6379 -1.7206 -0.0938
    1CHL1    C7   11   4.213   3.602   6.532  0.2738 -0.4598  0.0030
    1CHL1   H7A   12   4.312   3.636   6.497  0.7868 -2.9855 -1.2327
    1CHL1   H7B   13   4.220   3.493   6.511  2.1424 -0.0118 -1.9363
    1CHL1    C8   14   4.110   3.676   6.447 -0.4906  0.2763 -1.1290
    1CHL1    H8   15   4.130   3.785   6.443 -0.0544  0.1741 -1.8928
    1CHL1   C14   16   4.112   3.620   6.312  0.1657 -0.1284 -0.2329
    1CHL1   H14   17   4.090   3.511   6.319 -3.4527  0.4777 -0.4858
    1CHL1   C15   18   4.246   3.616   6.231  0.3721  0.4942  0.4999
    1CHL1  H15A   19   4.272   3.724   6.228 -1.9583  1.2994  3.7204
    1CHL1  H15B   20   4.325   3.551   6.273  1.7841  0.0349 -2.5888
    1CHL1   C16   21   4.199   3.572   6.087 -0.2269 -0.2062  0.0444
    1CHL1  H16A   22   4.263   3.629   6.016 -2.1329  0.3096 -1.3401
    1CHL1  H16B   23   4.221   3.463   6.080 -0.4351 -0.2631  0.2654
    1CHL1   C17   24   4.041   3.586   6.085  0.6201  0.3898 -0.5947
    1CHL1   H17   25   4.006   3.482   6.100  2.6903 -0.1335  1.0741
    1CHL1   C13   26   4.007   3.672   6.206  0.0616 -0.0833  0.8044
    1CHL1   C18   27   4.035   3.829   6.179 -0.5448  0.1420 -0.4552
    1CHL1  H18A   28   4.040   3.886   6.275 -0.4013  2.2225 -1.6436
    1CHL1  H18B   29   4.124   3.838   6.113 -1.2986  0.5401 -1.4456
    1CHL1  H18C   30   3.948   3.874   6.126 -0.0618  0.5757 -0.8922
    1CHL1   C12   31   3.868   3.650   6.267 -0.1886 -0.2568 -0.2300
    1CHL1  H12A   32   3.792   3.708   6.210  1.2630  0.5570 -1.4425
    1CHL1  H12B   33   3.840   3.543   6.277 -1.6593 -0.0570 -1.7088
    1CHL1   C11   34   3.857   3.705   6.411 -0.3770 -0.5815  0.4511
    1CHL1  H11A   35   3.858   3.816   6.402  5.0165 -0.4571 -0.9328
    1CHL1  H11B   36   3.759   3.676   6.456 -0.7568 -1.9432 -1.1407
    1CHL1    C9   37   3.972   3.659   6.506 -0.0774  0.3522 -0.0588
    1CHL1    H9   38   3.959   3.549   6.508 -0.2475  0.3670 -0.3233
    1CHL1   C10   39   3.967   3.714   6.652 -0.0880 -0.6449 -0.1192
    1CHL1   C19   40   3.948   3.871   6.650  0.2583  0.4123 -0.1173
    1CHL1  H19A   41   3.842   3.892   6.625 -0.3536 -2.5697 -0.4207
    1CHL1  H19B   42   3.976   3.911   6.749  2.0993 -1.6290  0.2707
    1CHL1  H19C   43   4.014   3.920   6.575  1.1160 -2.0940 -1.1290
    1CHL1    C1   44   3.844   3.649   6.726 -0.5121  0.1663  0.1148
    1CHL1   H1A   45   3.752   3.686   6.675 -1.0203  0.1652  1.0095
    1CHL1   H1B   46   3.872   3.542   6.727 -0.6142  0.1322  1.3722
    1CHL1    C2   47   3.830   3.698   6.874  0.4405 -0.1189  0.1866
    1CHL1   H2A   48   3.743   3.648   6.922  1.1748 -1.3484  0.2962
    1CHL1   H2B   49   3.816   3.808   6.873 -1.6747 -0.3185  1.5015
    1CHL1   C20   50   3.980   3.625   5.951 -0.1128 -0.4049  0.0008
    1CHL1   H20   51   3.956   3.733   5.953 -2.0431 -0.7975  0.6877
    1CHL1   C21   52   3.837   3.579   5.950 -0.6207 -0.6340 -0.5295
    1CHL1  H21A   53   3.779   3.628   5.869  0.3386 -0.4567 -1.1248
    1CHL1  H21B   54   3.788   3.593   6.048  2.3564  0.5186  0.9143
    1CHL1  H21C   55   3.836   3.471   5.925  0.3364 -0.3830 -1.7981
    1CHL1   C22   56   4.060   3.571   5.828  0.1548 -0.4041 -0.1883
    1CHL1  H22A   57   4.163   3.614   5.822  0.4486 -0.9629  0.5832
    1CHL1  H22B   58   4.056   3.460   5.837  0.1732 -0.2884  1.7026
    1CHL1   C23   59   4.002   3.613   5.693  0.1905 -0.5899  0.4022
    1CHL1  H23A   60   3.915   3.545   5.681  0.2066 -0.6191  0.4520
    1CHL1  H23B   61   3.972   3.720   5.699 -1.3300 -0.8525 -1.4312
    1CHL1   C24   62   4.098   3.604   5.570 -0.5436 -0.0220 -0.0150
    1CHL1  H24A   63   4.191   3.663   5.587 -0.5240 -0.3701  1.1349
    1CHL1  H24B   64   4.135   3.500   5.560 -3.5342 -1.1322 -0.5624
    1CHL1   C25   65   4.032   3.651   5.439 -0.0364 -0.2467  0.1372
    1CHL1   H25   66   3.972   3.740   5.468  0.1137  0.2590 -1.0531
    1CHL1   C26   67   4.143   3.698   5.342  0.1269  0.7114  0.6559
    1CHL1  H26A   68   4.200   3.609   5.308 -2.5556 -0.9280  0.1579
    1CHL1  H26B   69   4.106   3.760   5.258 -0.1033  2.4853  2.0049
    1CHL1  H26C   70   4.212   3.770   5.392 -0.4714  1.4697  0.3993
    1CHL1   C27   71   3.959   3.534   5.382 -0.6122 -0.3044 -0.0327
    1CHL1  H27A   72   3.944   3.538   5.272  0.9913 -0.7750 -0.2926
    1CHL1  H27B   73   4.013   3.442   5.410  1.1748  1.4544  2.8849
    1CHL1  H27C   74   3.855   3.528   5.421 -0.7884  0.5889 -0.3340
    2CHL1    C3   75   5.112   3.216   6.727 -0.2051 -0.1288 -0.3072
    2CHL1    H3   76   5.076   3.112   6.736 -0.1871 -0.3172 -2.0128
    2CHL1    O3   77   5.126   3.272   6.855  0.3277  0.7267  0.3356
    2CHL1   H3'   78   5.115   3.367   6.847 -0.3103  0.5798 -0.6417
    2CHL1    C4   79   5.246   3.204   6.664  0.8502  0.4402  0.4556
    2CHL1   H4A   80   5.291   3.305   6.652 -0.4405  0.8467 -1.6671
    2CHL1   H4B   81   5.309   3.152   6.738  0.8403  1.2039  1.0142
    2CHL1    C5   82   5.225   3.143   6.521  0.5746  0.2770  0.4367
    2CHL1    C6   83   5.298   3.032   6.482 -0.1411 -0.5849  0.6088
    2CHL1    H6   84   5.357   2.976   6.556  0.6260 -0.4910  0.0788
    2CHL1    C7   85   5.293   2.970   6.342 -0.1231 -0.3322  0.2893
    2CHL1   H7A   86   5.395   2.944   6.305 -0.6441 -1.2609 -0.5333
    2CHL1   H7B   87   5.236   2.877   6.362  0.5203 -0.5528  1.1708
    2CHL1    C8   88   5.204   3.050   6.240  0.2581 -0.5038  0.5949
    2CHL1    H8   89   5.261   3.138   6.204  0.6719  0.0367  2.4487
    2CHL1   C14   90   5.175   2.974   6.117  0.0692 -0.2976 -0.4687
    2CHL1   H14   91   5.124   2.876   6.134 -0.4650  0.0456 -0.0645
    2CHL1   C15   92   5.299   2.923   6.035 -0.1396  0.4489 -0.7127
    2CHL1  H15A   93   5.383   2.995   6.047 -0.2295  0.3324  0.8829
    2CHL1  H15B   94   5.340   2.831   6.083 -0.3632  1.4596  1.5687
    2CHL1   C16   95   5.254   2.896   5.894 -0.0374 -0.3288  0.2009
    2CHL1  H16A   96   5.317   2.940   5.813 -1.1866  1.0014 -0.0328
    2CHL1  H16B   97   5.255   2.789   5.868  2.2824 -0.4326  0.5213
    2CHL1   C17   98   5.102   2.939   5.899 -0.2426  0.3098 -0.7554
    2CHL1   H17   99   5.044   2.850   5.930  0.5333 -0.4124 -1.3117
    2CHL1   C13  100   5.092   3.043   6.008 -0.3030  0.3845  0.4448
    2CHL1   C18  101   5.171   3.164   5.956  0.5668  0.3626 -0.3807
    2CHL1  H18A  102   5.257   3.133   5.892 -1.1273 -1.1427 -2.0519
    2CHL1  H18B  103   5.116   3.222   5.879  0.2660 -0.0143 -0.4530
    2CHL1  H18C  104   5.191   3.240   6.035 -1.7300  0.6538 -0.0195
    2CHL1   C12  105   4.954   3.085   6.078 -0.4402  0.2575 -0.2852
    2CHL1  H12A  106   4.901   3.149   6.004 -0.7463  1.9352  1.3257
    2CHL1  H12B  107   4.884   3.002   6.104  0.0775  0.4686  1.9839
    2CHL1   C11  108   4.985   3.170   6.202 -0.6372  0.6423 -0.2067
    2CHL1  H11A  109   5.015   3.273   6.173 -3.0226  1.4609  0.0335
    2CHL1  H11B  110   4.889   3.185   6.256  1.1685  0.6642  3.3343
    2CHL1    C9  111   5.075   3.111   6.303  0.4584  0.1919 -0.5507
    2CHL1    H9  112   5.013   3.027   6.341  0.8261  1.1000  2.2509
    2CHL1   C10  113   5.111   3.200   6.428  0.3784  0.0388  0.1171
    2CHL1   C19  114   5.173   3.334   6.379  0.4512  0.2198  0.9016
    2CHL1  H19A  115   5.096   3.400   6.332  0.1300  0.1672  1.3462
    2CHL1  H19B  116   5.215   3.401   6.456  1.3835 -0.6354  1.1473
    2CHL1  H19C  117   5.248   3.313   6.299  0.3899  2.3064  0.2292
    2CHL1    C1  118   4.987   3.229   6.509 -0.7089  0.0966 -0.1570
    2CHL1   H1A  119   4.908   3.281   6.449 -2.2872 -1.5746  0.3824
    2CHL1   H1B  120   4.939   3.129   6.518 -1.6447  0.2945 -2.3830
    2CHL1    C2  121   5.004   3.294   6.653 -0.2506  0.2525  0.6047
    2CHL1   H2A  122   4.907   3.283   6.706  1.4060 -0.9816  3.6251
    2CHL1   H2B  123   5.029   3.401   6.635 -0.6739  0.2029 -0.3525
    2CHL1   C20  124   5.054   2.970   5.755  0.2455  0.3135 -0.1690
    2CHL1   H20  125   5.114   3.051   5.709  1.1091  0.8867  1.8705
    2CHL1   C21  126   4.902   3.000   5.761  0.3359  0.2136  0.2507
    2CHL1  H21A  127   4.852   2.922   5.822  1.4801 -0.5018  0.3175
    2CHL1  H21B  128   4.859   2.992   5.660 -0.9412  0.2123  0.7784
    2CHL1  H21C  129   4.885   3.101   5.805 -0.9924  0.3632 -0.5783
    2CHL1   C22  130   5.075   2.847   5.657 -0.1089 -0.1089 -0.1843
    2CHL1  H22A  131   5.182   2.819   5.665 -0.0150  0.6588  1.7879
    2CHL1  H22B  132   5.024   2.756   5.694 -0.8003  0.0929 -0.6239
    2CHL1   C23  133   5.047   2.872   5.506  1.1404 -0.1708 -0.1381
    2CHL1  H23A  134   4.942   2.898   5.479  0.7992 -1.5197 -0.1861
    2CHL1  H23B  135   5.122   2.950   5.483 -0.1910  0.2842 -3.4697
    2CHL1   C24  136   5.081   2.756   5.414  0.1526  0.3511 -0.0087
    2CHL1  H24A  137   5.191   2.741   5.428 -0.1834 -1.2879  1.1331
    2CHL1  H24B  138   5.021   2.664   5.429 -0.1214  0.6274  0.5948
    2CHL1   C25  139   5.053   2.793   5.264 -0.1873  0.2407 -0.5701
    2CHL1   H25  140   5.110   2.885   5.240 -1.3933  2.1478  3.1163
    2CHL1   C26  141   5.100   2.687   5.171 -0.0224  0.0247 -0.0013
    2CHL1  H26A  142   5.209   2.673   5.185 -0.0719  0.3909  0.8080
    2CHL1  H26B  143   5.053   2.586   5.178 -0.5827  0.2680 -0.2017
    2CHL1  H26C  144   5.072   2.722   5.070  0.5129  1.0119  0.1824
    2CHL1   C27  145   4.908   2.829   5.235  0.2835  0.0468 -0.3432
    2CHL1  H27A  146   4.845   2.745   5.272  4.6001 -3.2153  0.4865
    2CHL1  H27B  147   4.874   2.915   5.295  0.6635 -0.5651  0.7838
    2CHL1  H27C  148   4.883   2.827   5.126 -1.5405  1.0530  0.0220
    3CHL1    C3  149   3.985   5.256   6.733 -0.1418 -0.4658 -0.3078
    3CHL1    H3  150   3.937   5.165   6.773  0.5573 -1.8847 -2.5031
    3CHL1    O3  151   4.027   5.343   6.836 -0.0893  0.1373  0.3292
    3CHL1   H3'  152   4.092   5.405   6.800  1.1680 -1.2666  0.0568
    3CHL1    C4  153   4.105   5.224   6.642 -0.4208  0.0535 -0.6105
    3CHL1   H4A  154   4.160   5.321   6.637  1.2948 -0.4191  4.2031
    3CHL1   H4B  155   4.163   5.145   6.694 -2.9182 -2.2625 -1.1340
    3CHL1    C5  156   4.076   5.185   6.503  1.0637  0.4988 -0.1269
    3CHL1    C6  157   4.139   5.082   6.455  0.2290  0.4477 -0.1788
    3CHL1    H6  158   4.218   5.032   6.514  1.8568  1.9883 -0.9593
    3CHL1    C7  159   4.126   5.028   6.319  0.1174  0.3712  0.0156
    3CHL1   H7A  160   4.229   5.021   6.278  0.4315  1.5651  0.5689
    3CHL1   H7B  161   4.086   4.925   6.313  1.0927  0.0348 -1.5415
    3CHL1    C8  162   4.042   5.127   6.228 -0.3373  0.4990 -0.2149
    3CHL1    H8  163   4.107   5.210   6.194 -0.3729  0.0052 -1.5433
    3CHL1   C14  164   3.992   5.056   6.107 -0.4136  0.1172  0.0986
    3CHL1   H14  165   3.914   4.982   6.137  0.8111 -1.6667 -0.9703
    3CHL1   C15  166   4.098   4.972   6.033  0.7217 -0.1714 -0.2427
    3CHL1  H15A  167   4.192   5.023   6.002 -0.0975  1.3593 -0.3022
    3CHL1  H15B  168   4.117   4.872   6.077  0.2107 -0.0331  0.3003
    3CHL1   C16  169   4.019   4.952   5.896 -0.4502  0.1844  0.1064
    3CHL1  H16A  170   4.090   4.985   5.817 -0.6044 -2.3456 -1.1840
    3CHL1  H16B  171   3.998   4.844   5.883 -1.9280  0.0549  2.8476
    3CHL1   C17  172   3.887   5.037   5.899  0.2840  0.3158  0.1547
    3CHL1   H17  173   3.808   4.975   5.948  0.3326  0.5832  0.5777
    3CHL1   C13  174   3.918   5.145   6.008 -0.3186  0.4833  0.0396
    3CHL1   C18  175   3.998   5.263   5.950 -0.1034  0.2192 -0.1982
    3CHL1  H18A  176   3.937   5.330   5.886  2.1051  0.1934 -2.5261
    3CHL1  H18B  177   4.033   5.333   6.029  0.8631  0.2876 -0.6667
    3CHL1  H18C  178   4.081   5.219   5.890 -0.6721  0.0894 -0.9087
    3CHL1   C12  179   3.788   5.198   6.083  0.2721 -0.6360  0.0939
    3CHL1  H12A  180   3.725   5.260   6.015 -0.6150 -1.1929  0.3849
    3CHL1  H12B  181   3.727   5.112   6.117 -1.7213  0.6450 -0.0185
    3CHL1   C11  182   3.826   5.275   6.213 -0.3347  0.4579 -0.1037
    3CHL1  H11A  183   3.871   5.371   6.180 -0.5672  0.1373 -1.4390
    3CHL1  H11B  184   3.731   5.294   6.267 -0.6852  1.5032 -1.0309
    3CHL1    C9  185   3.925   5.197   6.301  0.8263  0.5146 -0.2176
    3CHL1    H9  186   3.868   5.112   6.344 -0.8844  1.3428 -0.7324
    3CHL1   C10  187   3.966   5.263   6.429  0.0457 -0.2074  0.2162
    3CHL1   C19  188   4.012   5.406   6.397  0.3943  0.3292 -0.1671
    3CHL1  H19A  189   4.054   5.463   6.483  1.1434  1.2292 -1.1015
    3CHL1  H19B  190   4.087   5.408   6.315 -0.9518 -1.0451 -1.5126
    3CHL1  H19C  191   3.921   5.460   6.362 -1.4322 -1.9081  0.8219
    3CHL1    C1  192   3.843   5.268   6.524  0.4860  0.1581  0.6083
    3CHL1   H1A  193   3.761   5.325   6.477  0.5608 -0.0313  0.2391
    3CHL1   H1B  194   3.803   5.165   6.536  0.8061 -0.1857 -0.9486
    3CHL1    C2  195   3.870   5.334   6.662  0.1860  0.9047 -0.6083
    3CHL1   H2A  196   3.781   5.332   6.728  1.1408  0.2592  0.7310
    3CHL1   H2B  197   3.912   5.436   6.648  2.7712  0.1935  1.0435
    3CHL1   C20  198   3.836   5.078   5.758 -0.2677 -0.2177  0.0722
    3CHL1   H20  199   3.911   5.153   5.724  0.6489 -0.0363  2.3407
    3CHL1   C21  200   3.693   5.150   5.760 -0.0752  0.2178 -0.3549
    3CHL1  H21A  201   3.651   5.161   5.657  1.4697 -1.9314 -1.2936
    3CHL1  H21B  202   3.695   5.243   5.821  1.7699 -1.4377  2.2788
    3CHL1  H21C  203   3.621   5.085   5.814  0.6831 -0.3707 -0.0396
    3CHL1   C22  204   3.833   4.967   5.653  0.2832  0.6581  0.2750
    3CHL1  H22A  205   3.786   5.009   5.561 -2.0571  0.7903  1.4631
    3CHL1  H22B  206   3.937   4.944   5.624  0.5319 -0.8197  2.2107
    3CHL1   C23  207   3.762   4.836   5.698 -0.1650  0.1507 -0.0804
    3CHL1  H23A  208   3.832   4.790   5.771 -1.2827  1.8643  2.1910
    3CHL1  H23B  209   3.670   4.867   5.753 -1.0361  0.2576 -1.5453
    3CHL1   C24  210   3.726   4.739   5.576  0.0839  0.1541  0.4073
    3CHL1  H24A  211   3.670   4.794   5.498  0.8115  0.8110  0.3363
    3CHL1  H24B  212   3.820   4.700   5.531 -0.2499  1.2280 -1.3099
    3CHL1   C25  213   3.644   4.605   5.617  0.2311  0.5353  0.1646
    3CHL1   H25  214   3.573   4.640   5.694  0.3104  1.3784 -0.1443
    3CHL1   C26  215   3.594   4.530   5.489  0.1136 -0.2622  0.5597
    3CHL1  H26A  216   3.680   4.507   5.422 -0.3393 -1.7453  0.4677
    3CHL1  H26B  217   3.549   4.431   5.512  1.3375 -1.2366 -1.0223
    3CHL1  H26C  218   3.516   4.589   5.435  1.8296 -0.4277 -2.3497
    3CHL1   C27  219   3.738   4.509   5.704  0.1793 -0.5152  0.0795
    3CHL1  H27A  220   3.793   4.573   5.777 -1.5308  3.0392 -1.4652
    3CHL1  H27B  221   3.677   4.432   5.756 -0.9179  0.4758  0.2973
    3CHL1  H27C  222   3.805   4.463   5.628 -0.3035 -0.7956 -0.1765
    4CHL1    C3  223   2.862   4.087   6.886  0.5062 -0.1701 -0.1076
    4CHL1    H3  224   2.809   3.989   6.881  1.5477 -0.7801  0.4702
    4CHL1    O3  225   2.873   4.145   7.014 -0.1091 -0.0876  0.3349
    4CHL1   H3'  226   2.918   4.228   6.997  0.0519 -0.2955 -0.2704
    4CHL1    C4  227   3.006   4.064   6.832 -0.1051 -0.4517  0.4325
    4CHL1   H4A  228   3.065   4.158   6.841 -1.0439  0.1476  0.4840
    4CHL1   H4B  229   3.063   3.999   6.902 -0.6375 -0.4851  0.8403
    4CHL1    C5  230   3.022   4.031   6.685  0.1429  0.0791  0.0075
    4CHL1    C6  231   3.084   3.917   6.643  0.3346 -0.3387  0.2354
    4CHL1    H6  232   3.123   3.848   6.719 -0.6743 -0.7037  0.4348
    4CHL1    C7  233   3.073   3.865   6.501 -0.5072 -0.4904  0.3745
    4CHL1   H7A  234   3.171   3.824   6.467 -0.2529 -0.0690  0.5910
    4CHL1   H7B  235   2.992   3.790   6.507  0.6180 -1.8516 -0.6697
    4CHL1    C8  236   3.028   3.972   6.403 -1.0355 -0.3955 -0.3782
    4CHL1    H8  237   3.109   4.048   6.404 -1.2720 -0.1476 -0.0057
    4CHL1   C14  238   2.996   3.910   6.266  1.2602  0.5782 -0.0766
    4CHL1   H14  239   2.910   3.843   6.286  1.4460 -0.3299 -2.0785
    4CHL1   C15  240   3.094   3.809   6.207  0.1653 -0.3638  0.4573
    4CHL1  H15A  241   3.195   3.853   6.204  0.1032 -0.2257  0.4041
    4CHL1  H15B  242   3.094   3.708   6.253  0.9116  0.1440  1.6119
    4CHL1   C16  243   3.056   3.809   6.056  0.4198  1.2965  0.9134
    4CHL1  H16A  244   3.142   3.839   5.992  1.8025 -2.8073  0.5184
    4CHL1  H16B  245   3.024   3.710   6.016  0.8243  1.7074 -0.4766
    4CHL1   C17  246   2.943   3.914   6.033 -0.0519  0.3798  0.4065
    4CHL1   H17  247   2.848   3.855   6.031  1.2754 -1.8716 -0.8976
    4CHL1   C13  248   2.952   4.007   6.153 -0.0506 -0.0948  0.5946
    4CHL1   C18  249   3.060   4.110   6.130 -0.1584  0.6602  0.4001
    4CHL1  H18A  250   3.136   4.055   6.070  0.6780 -2.0677  3.6189
    4CHL1  H18B  251   3.026   4.205   6.085  1.3712  1.5190  1.0117
    4CHL1  H18C  252   3.100   4.136   6.230  2.4497 -0.4597 -0.2790
    4CHL1   C12  253   2.828   4.069   6.213  0.4558  0.6710  0.0236
    4CHL1  H12A  254   2.785   4.143   6.142 -0.5557 -0.5951 -0.7161
    4CHL1  H12B  255   2.754   3.990   6.237  2.0134 -1.1910 -0.9562
    4CHL1   C11  256   2.848   4.142   6.344 -0.3548  0.0102 -0.0942
    4CHL1  H11A  257   2.907   4.236   6.333  0.5216 -0.6079 -0.8329
    4CHL1  H11B  258   2.742   4.166   6.368 -0.8051 -2.2453  0.4048
    4CHL1    C9  259   2.912   4.059   6.459  0.6169 -0.4514  0.5454
    4CHL1    H9  260   2.835   3.982   6.479 -1.3994  1.5135  0.7530
    4CHL1   C10  261   2.936   4.119   6.596  0.3057 -0.0878  0.6845
    4CHL1   C19  262   3.018   4.250   6.569 -0.7753  0.3168 -0.3196
    4CHL1  H19A  263   2.960   4.324   6.510 -0.2006  0.3355 -0.8674
    4CHL1  H19B  264   3.036   4.299   6.667  0.7480 -1.8996  0.6105
    4CHL1  H19C  265   3.123   4.234   6.536 -0.8395  0.1355 -0.4391
    4CHL1    C1  266   2.796   4.153   6.657 -0.0958 -0.4879 -0.3201
    4CHL1   H1A  267   2.768   4.241   6.595  2.2095  0.4614 -0.1145
    4CHL1   H1B  268   2.730   4.063   6.650 -0.6813 -0.0682 -0.2644
    4CHL1    C2  269   2.802   4.202   6.802  0.6829 -0.4174 -0.1701
    4CHL1   H2A  270   2.697   4.224   6.829  1.0970  0.3962  0.8329
    4CHL1   H2B  271   2.862   4.294   6.812 -1.1792  0.5919  3.4681
    4CHL1   C20  272   2.941   3.965   5.887  0.1140 -0.2626  0.6515
    4CHL1   H20  273   3.025   4.034   5.867 -0.4963  0.6207  1.0995
    4CHL1   C21  274   2.816   4.054   5.849  0.0469 -0.2899 -0.3554
    4CHL1  H21A  275   2.827   4.085   5.743  2.2862  2.3554  0.5392
    4CHL1  H21B  276   2.813   4.148   5.909  0.6105  0.2820 -1.2082
    4CHL1  H21C  277   2.727   3.987   5.854 -0.5758  0.3922 -1.8340
    4CHL1   C22  278   2.946   3.846   5.785 -0.0652  0.2494  0.2418
    4CHL1  H22A  279   3.037   3.790   5.816 -0.1298  0.9414  1.8168
    4CHL1  H22B  280   2.852   3.792   5.809 -0.8009  2.0180  1.6324
    4CHL1   C23  281   2.952   3.888   5.640  0.6281 -0.0257  0.2553
    4CHL1  H23A  282   2.845   3.904   5.617  0.7587  1.1720  0.4124
    4CHL1  H23B  283   3.010   3.983   5.630 -0.6542  0.9569  1.6339
    4CHL1   C24  284   3.000   3.779   5.542  0.2133 -0.5573 -0.3904
    4CHL1  H24A  285   3.111   3.772   5.550  0.2840  1.1467  0.6875
    4CHL1  H24B  286   2.958   3.683   5.580 -1.2623  0.7765  1.5289
    4CHL1   C25  287   2.965   3.810   5.396 -0.1567 -0.0128 -0.3719
    4CHL1   H25  288   2.855   3.821   5.379  0.1343  0.6692 -1.9887
    4CHL1   C26  289   3.024   3.942   5.358  0.1460 -0.4749 -0.0346
    4CHL1  H26A  290   3.134   3.944   5.374  0.2404  2.2556 -0.6230
    4CHL1  H26B  291   3.002   3.968   5.253 -0.5788  0.8202  0.4183
    4CHL1  H26C  292   2.987   4.022   5.426 -1.2273 -2.5625  1.8354
    4CHL1   C27  293   3.020   3.702   5.302  0.1221  0.6007  0.4424
    4CHL1  H27A  294   2.979   3.601   5.325 -0.0681  0.7203  0.6202
    4CHL1  H27B  295   2.994   3.731   5.197  1.0595  1.1126  0.3386
    4CHL1  H27C  296   3.127   3.702   5.332  0.5919  3.6366 -0.8619
    5CHL1    C3  297   1.472   5.513   6.479  0.2719  0.2700  0.1768
    5CHL1    H3  298   1.415   5.608   6.471  1.0838  0.6695 -1.1192
    5CHL1    O3  299   1.518   5.489   6.611  0.2779  0.5048 -0.0129
    5CHL1   H3'  300   1.489   5.571   6.651 -1.2837 -0.5730  1.1421
    5CHL1    C4  301   1.381   5.387   6.442 -0.7799 -0.4821 -0.1295
    5CHL1   H4A  302   1.442   5.296   6.463 -0.6371 -0.0868  1.2195
    5CHL1   H4B  303   1.299   5.405   6.514 -0.8638  0.3657 -0.4304
    5CHL1    C5  304   1.339   5.376   6.297 -0.0587  0.5262  0.5540
    5CHL1    C6  305   1.210   5.366   6.254 -0.1537  0.4029  0.1415
    5CHL1    H6  306   1.132   5.376   6.331 -0.7046  0.6225 -0.4351
    5CHL1    C7  307   1.160   5.348   6.108 -0.2770  0.7028 -0.7761
    5CHL1   H7A  308   1.089   5.263   6.099  0.2916  0.3577 -2.2247
    5CHL1   H7B  309   1.103   5.434   6.066 -0.7544  0.8421  0.1316
    5CHL1    C8  310   1.280   5.308   6.023 -0.1658 -0.2866 -0.4453
    5CHL1    H8  311   1.303   5.201   6.044  1.6460  0.0459 -0.5928
    5CHL1   C14  312   1.244   5.333   5.877 -0.2698 -0.0442 -0.4336
    5CHL1   H14  313   1.229   5.442   5.865 -0.3608  0.1091  0.8866
    5CHL1   C15  314   1.117   5.259   5.832 -0.2564  0.4802  0.5066
    5CHL1  H15A  315   1.111   5.154   5.869  1.7636 -0.6359 -2.0111
    5CHL1  H15B  316   1.030   5.319   5.867  0.7803  1.1670  1.9988
    5CHL1   C16  317   1.121   5.253   5.677 -0.5589 -0.4070 -0.1039
    5CHL1  H16A  318   1.098   5.152   5.635 -0.3031  0.5849 -2.7786
    5CHL1  H16B  319   1.049   5.334   5.653  0.1137  0.2353  0.0076
    5CHL1   C17  320   1.261   5.313   5.644  0.2210  0.1318 -0.1967
    5CHL1   H17  321   1.245   5.423   5.643 -0.8425  0.0578  2.2834
    5CHL1   C13  322   1.346   5.292   5.771 -0.3661 -0.2039  0.4984
    5CHL1   C18  323   1.398   5.144   5.786 -0.5203 -0.1453 -0.0646
    5CHL1  H18A  324   1.412   5.125   5.895 -0.6701  1.9877  0.3701
    5CHL1  H18B  325   1.323   5.082   5.733  0.8367 -1.7051 -0.2579
    5CHL1  H18C  326   1.501   5.136   5.744 -0.3512  1.7984 -0.1115
    5CHL1   C12  327   1.464   5.379   5.791 -0.0375 -0.6777 -0.2068
    5CHL1  H12A  328   1.550   5.348   5.727  0.5936  1.7031 -0.6164
    5CHL1  H12B  329   1.432   5.482   5.764  0.3600  0.0689  2.0043
    5CHL1   C11  330   1.520   5.380   5.937 -0.3403  0.1255 -0.7844
    5CHL1  H11A  331   1.581   5.288   5.951 -0.6423  0.2954  2.5053
    5CHL1  H11B  332   1.585   5.469   5.953  0.1967  0.1236 -2.7733
    5CHL1    C9  333   1.406   5.394   6.052 -0.2525  0.6393  0.2378
    5CHL1    H9  334   1.365   5.497   6.051  0.0347  0.7671 -1.2888
    5CHL1   C10  335   1.462   5.372   6.196 -0.3689 -0.1148  0.1040
    5CHL1   C19  336   1.528   5.232   6.211 -0.0613  0.6086  0.8940
    5CHL1  H19A  337   1.443   5.167   6.180 -0.0223  1.7152 -1.7510
    5CHL1  H19B  338   1.621   5.216   6.153  0.1391  1.6473  0.9119
    5CHL1  H19C  339   1.564   5.211   6.314  1.4275  0.2033  0.3101
    5CHL1    C1  340   1.544   5.495   6.230 -0.4243  0.6682  0.3841
    5CHL1   H1A  341   1.640   5.493   6.174 -0.5323  0.4254  0.2035
    5CHL1   H1B  342   1.492   5.587   6.197  0.8481  1.7100  1.1812
    5CHL1    C2  343   1.587   5.511   6.375  0.0975 -0.0321  0.1034
    5CHL1   H2A  344   1.648   5.602   6.393  2.0319 -1.2147 -0.2514
    5CHL1   H2B  345   1.656   5.427   6.399  0.3288 -0.4800 -1.9618
    5CHL1   C20  346   1.324   5.275   5.505 -0.1369  0.6080 -0.3633
    5CHL1   H20  347   1.434   5.265   5.520 -0.2870 -0.3815  0.1412
    5CHL1   C21  348   1.303   5.386   5.410  0.2658 -0.0685  0.0423
    5CHL1  H21A  349   1.315   5.489   5.449  1.1041  0.7048 -2.1121
    5CHL1  H21B  350   1.207   5.396   5.354 -0.1973  0.6088  0.9249
    5CHL1  H21C  351   1.376   5.373   5.327  1.1432 -0.9330  0.9244
    5CHL1   C22  352   1.275   5.138   5.452 -0.4178 -0.8535  0.6012
    5CHL1  H22A  353   1.306   5.064   5.528 -0.0502 -2.1537 -0.7768
    5CHL1  H22B  354   1.166   5.133   5.431 -0.5051  0.9390  0.4392
    5CHL1   C23  355   1.358   5.100   5.329 -0.0746  0.9633  0.1344
    5CHL1  H23A  356   1.375   5.181   5.256  3.1012  1.4979  1.3139
    5CHL1  H23B  357   1.462   5.069   5.352  0.4998 -0.1693 -3.4633
    5CHL1   C24  358   1.296   4.985   5.244 -0.0929 -0.3747  0.8537
    5CHL1  H24A  359   1.265   4.898   5.307  0.6605 -0.6692  0.8220
    5CHL1  H24B  360   1.206   5.035   5.202 -1.2451 -1.9947  1.2988
    5CHL1   C25  361   1.390   4.938   5.126  0.1756 -0.2574  0.8828
    5CHL1   H25  362   1.486   4.899   5.167  0.7426  1.8157  1.6345
    5CHL1   C26  363   1.326   4.825   5.035 -0.4132  0.0603 -0.0991
    5CHL1  H26A  364   1.289   4.748   5.106 -0.9433  0.8495  0.4988
    5CHL1  H26B  365   1.238   4.878   4.993 -0.0010  2.4919  1.8567
    5CHL1  H26C  366   1.381   4.786   4.947 -1.5533 -1.3359 -0.2167
    5CHL1   C27  367   1.432   5.060   5.033  0.6691 -0.7627 -0.0808
    5CHL1  H27A  368   1.361   5.144   5.017  2.1132  0.1668 -2.0169
    5CHL1  H27B  369   1.519   5.103   5.088  0.2216  0.3187 -0.1769
    5CHL1  H27C  370   1.485   5.024   4.943  1.4634  3.6369 -1.6183
    6CHL1    C3  371   3.159   3.344   6.567  0.1000  0.4898 -0.0265
    6CHL1    H3  372   3.253   3.302   6.526 -0.7591 -1.9553  0.2859
    6CHL1    O3  373   3.176   3.369   6.706 -0.0925 -0.1875 -0.2535
    6CHL1   H3'  374   3.271   3.365   6.720 -0.1148  0.7093  0.2033
    6CHL1    C4  375   3.141   3.477   6.485  0.2875 -0.2212 -0.6353
    6CHL1   H4A  376   3.059   3.540   6.525  1.1278  0.2327  0.4084
    6CHL1   H4B  377   3.229   3.540   6.509 -0.0842  0.8607 -2.0326
    6CHL1    C5  378   3.129   3.429   6.338  0.3733  0.3290  0.4940
    6CHL1    C6  379   3.220   3.467   6.245 -1.2824  0.3377 -0.5475
    6CHL1    H6  380   3.312   3.522   6.272  0.3030 -2.0966 -0.7031
    6CHL1    C7  381   3.201   3.443   6.106  0.6647  0.3928 -0.9250
    6CHL1   H7A  382   3.227   3.533   6.046 -0.4017  2.5574  1.6632
    6CHL1   H7B  383   3.271   3.365   6.068  0.8214  0.5880 -1.0388
    6CHL1    C8  384   3.053   3.396   6.063 -0.0506 -0.0969  0.1698
    6CHL1    H8  385   2.996   3.491   6.060 -0.7217 -0.3839  2.2748
    6CHL1   C14  386   3.049   3.339   5.919  0.5458  0.1612  1.1042
    6CHL1   H14  387   3.101   3.241   5.927 -0.9418 -0.5595  2.5755
    6CHL1   C15  388   3.119   3.413   5.796 -0.2493  0.3485  0.4160
    6CHL1  H15A  389   3.087   3.518   5.810 -0.5951  0.1859  0.8864
    6CHL1  H15B  390   3.229   3.397   5.802 -0.5346 -1.9581  0.3562
    6CHL1   C16  391   3.054   3.344   5.676  0.1651 -0.1973  0.2039
    6CHL1  H16A  392   3.017   3.422   5.607 -0.9381 -0.1909  0.7876
    6CHL1  H16B  393   3.124   3.281   5.617 -1.2901 -0.7813 -0.9529
    6CHL1   C17  394   2.928   3.258   5.723  0.3395 -0.8336  0.5266
    6CHL1   H17  395   2.965   3.153   5.716 -0.0844 -1.0173  0.9204
    6CHL1   C13  396   2.905   3.299   5.867  0.2874  0.0337 -0.1211
    6CHL1   C18  397   2.811   3.427   5.873 -0.2201  0.4989 -0.4817
    6CHL1  H18A  398   2.851   3.513   5.815 -0.2003  1.1554  0.4976
    6CHL1  H18B  399   2.711   3.395   5.838 -0.1974 -0.7149  0.4864
    6CHL1  H18C  400   2.797   3.456   5.979  0.1855 -0.6988 -0.0837
    6CHL1   C12  401   2.852   3.187   5.963 -0.2498 -0.3897 -0.2350
    6CHL1  H12A  402   2.750   3.150   5.940 -0.2020 -1.3530  1.0376
    6CHL1  H12B  403   2.921   3.100   5.953  0.1800 -0.0931  0.0698
    6CHL1   C11  404   2.856   3.232   6.115  0.3555 -0.2222 -0.6201
    6CHL1  H11A  405   2.776   3.302   6.145  1.7022  1.0878  0.0489
    6CHL1  H11B  406   2.828   3.145   6.178  0.7100  0.4379  0.4770
    6CHL1    C9  407   2.991   3.299   6.163 -0.5936 -0.3077  0.5674
    6CHL1    H9  408   3.070   3.222   6.156  0.2616  0.4059  2.0471
    6CHL1   C10  409   3.001   3.346   6.312  0.0207  0.4847 -0.2602
    6CHL1   C19  410   2.872   3.429   6.345  0.8890 -0.2920 -0.0871
    6CHL1  H19A  411   2.781   3.365   6.356  0.1193  0.3792 -2.0017
    6CHL1  H19B  412   2.869   3.486   6.441 -2.9736 -0.2833 -0.0401
    6CHL1  H19C  413   2.856   3.510   6.270 -0.7722  0.6054  1.1493
    6CHL1    C1  414   3.002   3.219   6.404  0.2838 -0.1525  0.0935
    6CHL1   H1A  415   2.899   3.178   6.401  0.2964 -0.2388  0.8204
    6CHL1   H1B  416   3.069   3.137   6.371  0.6062 -2.6374  5.7948
    6CHL1    C2  417   3.036   3.249   6.548 -0.0381 -0.0660 -0.3220
    6CHL1   H2A  418   3.062   3.150   6.589 -1.9230 -0.4787 -0.0155
    6CHL1   H2B  419   2.946   3.290   6.601  0.3041  1.4779 -0.8689
    6CHL1   C20  420   2.807   3.257   5.620 -0.6413  0.0976  0.4986
    6CHL1   H20  421   2.763   3.359   5.623 -1.5089 -0.2926  2.8093
    6CHL1   C21  422   2.687   3.174   5.676  0.7829 -0.1874  0.7077
    6CHL1  H21A  423   2.650   3.208   5.775  0.9284  0.6229  0.4973
    6CHL1  H21B  424   2.722   3.071   5.694  1.5063 -0.4985 -1.9641
    6CHL1  H21C  425   2.606   3.170   5.600  2.6559  1.7609 -1.6092
    6CHL1   C22  426   2.849   3.214   5.483  0.4101 -0.1946  0.4974
    6CHL1  H22A  427   2.935   3.274   5.446 -0.2304  0.0783 -0.6116
    6CHL1  H22B  428   2.891   3.112   5.486 -0.6143 -0.6695 -0.5936
    6CHL1   C23  429   2.750   3.210   5.366 -0.4262  0.5920 -0.4797
    6CHL1  H23A  430   2.680   3.126   5.382  1.7130 -1.1266  0.4236
    6CHL1  H23B  431   2.698   3.308   5.369  1.1922  1.5147  2.3162
    6CHL1   C24  432   2.815   3.195   5.222  0.2765  0.7211 -0.4987
    6CHL1  H24A  433   2.871   3.287   5.194 -2.0461  1.6356 -2.5855
    6CHL1  H24B  434   2.881   3.106   5.224 -1.1161 -0.3334  0.9507
    6CHL1   C25  435   2.711   3.151   5.114  0.0796  0.6341  0.6005
    6CHL1   H25  436   2.767   3.146   5.018 -1.0705  3.1092 -0.2967
    6CHL1   C26  437   2.641   3.020   5.139 -0.4601 -0.2344  0.3251
    6CHL1  H26A  438   2.717   2.941   5.125 -0.7109 -0.2224 -1.2150
    6CHL1  H26B  439   2.594   3.010   5.240  2.6493 -1.4367  1.7935
    6CHL1  H26C  440   2.579   3.004   5.049 -0.3140 -0.0375  0.1907
    6CHL1   C27  441   2.623   3.271   5.091  0.6676  0.1915 -0.0582
    6CHL1  H27A  442   2.582   3.266   4.988 -1.8845  3.2234  0.6439
    6CHL1  H27B  443   2.533   3.269   5.157  0.7427 -0.8362  0.0244
    6CHL1  H27C  444   2.662   3.375   5.099  2.2974 -0.4782  1.0465
    7CHL1    C3  445   4.333   4.136   6.848 -0.2227 -0.3838 -0.1715
    7CHL1    H3  446   4.443   4.124   6.841 -0.3771 -1.0474 -1.9128
    7CHL1    O3  447   4.291   4.140   6.984  0.0648 -0.1781  0.8999
    7CHL1   H3'  448   4.197   4.120   6.982 -0.5206  2.3167  0.1431
    7CHL1    C4  449   4.296   4.271   6.778  0.0488 -0.3876 -0.0859
    7CHL1   H4A  450   4.185   4.271   6.775  0.0547  1.0595 -0.8057
    7CHL1   H4B  451   4.341   4.352   6.839  0.6679 -0.4510 -0.4498
    7CHL1    C5  452   4.352   4.268   6.632 -0.3042 -0.5894  0.3001
    7CHL1    C6  453   4.427   4.370   6.578 -0.3614  0.0707 -0.2008
    7CHL1    H6  454   4.457   4.458   6.636  1.4805 -0.7182  0.1052
    7CHL1    C7  455   4.475   4.360   6.438  0.5441 -0.5080 -0.2416
    7CHL1   H7A  456   4.474   4.461   6.391  0.8431  0.8128  2.3863
    7CHL1   H7B  457   4.581   4.326   6.438 -0.2313 -3.2180 -1.4663
    7CHL1    C8  458   4.406   4.260   6.347 -0.1240  0.3610  0.1674
    7CHL1    H8  459   4.302   4.294   6.326 -1.1501 -1.3581  2.0388
    7CHL1   C14  460   4.485   4.229   6.214 -0.6731 -0.0623 -0.0478
    7CHL1   H14  461   4.583   4.191   6.249  0.1572 -0.5500 -2.6342
    7CHL1   C15  462   4.510   4.350   6.130 -0.4956  0.0824 -0.3953
    7CHL1  H15A  463   4.417   4.411   6.132 -0.6983 -0.2513  1.4921
    7CHL1  H15B  464   4.592   4.413   6.170 -1.3259  1.2937 -0.5641
    7CHL1   C16  465   4.530   4.288   5.991 -0.5649 -0.3010  0.1122
    7CHL1  H16A  466   4.468   4.336   5.913  3.2017  0.0278 -2.9528
    7CHL1  H16B  467   4.634   4.304   5.955  0.7119 -1.2521  3.0788
    7CHL1   C17  468   4.500   4.141   5.998 -1.0603  0.1433  0.4044
    7CHL1   H17  469   4.598   4.095   6.020  0.7578  2.8309 -1.3425
    7CHL1   C13  470   4.413   4.126   6.118  0.1133  0.6370  0.5140
    7CHL1   C18  471   4.264   4.172   6.082  0.6469 -0.3288 -0.0997
    7CHL1  H18A  472   4.206   4.171   6.177  0.1168 -1.6003 -0.4176
    7CHL1  H18B  473   4.261   4.278   6.051  1.2250  0.0033  0.9101
    7CHL1  H18C  474   4.222   4.093   6.016  1.1528  0.9043 -1.9515
    7CHL1   C12  475   4.427   3.993   6.192  0.3103  0.2400  0.2745
    7CHL1  H12A  476   4.378   3.911   6.134  0.6484 -0.2713  0.7083
    7CHL1  H12B  477   4.534   3.968   6.205  0.4189 -0.2015 -1.2303
    7CHL1   C11  478   4.352   4.007   6.330 -0.3148  0.0829 -0.2820
    7CHL1  H11A  479   4.244   4.013   6.306 -0.2754  1.5765 -0.1899
    7CHL1  H11B  480   4.361   3.912   6.388  0.2965  0.0820 -0.3752
    7CHL1    C9  481   4.392   4.131   6.421  0.0732 -0.5999 -0.2155
    7CHL1    H9  482   4.496   4.111   6.455 -0.7585 -0.0929  2.9398
    7CHL1   C10  483   4.306   4.147   6.550  0.2970  0.0408  0.0858
    7CHL1   C19  484   4.159   4.157   6.518  0.5309 -0.1073 -0.1262
    7CHL1  H19A  485   4.143   4.248   6.457  1.0255 -0.5681 -0.9679
    7CHL1  H19B  486   4.121   4.062   6.474  1.2996 -0.2444 -0.5031
    7CHL1  H19C  487   4.097   4.188   6.605 -1.1396 -3.3563  0.0198
    7CHL1    C1  488   4.321   4.014   6.634  0.0008  0.3885  0.6892
    7CHL1   H1A  489   4.261   3.938   6.581  0.9839  0.5520 -0.7122
    7CHL1   H1B  490   4.429   3.987   6.644  0.5966  1.8272 -1.2254
    7CHL1    C2  491   4.271   4.021   6.775  0.1421  0.1056 -0.0116
    7CHL1   H2A  492   4.294   3.926   6.828 -0.9630 -0.6243 -0.8086
    7CHL1   H2B  493   4.161   4.028   6.771  0.0336 -0.6333  1.2842
    7CHL1   C20  494   4.463   4.081   5.859  0.2682  0.2167  0.2677
    7CHL1   H20  495   4.377   4.138   5.816 -0.0053 -0.7112 -0.4286
    7CHL1   C21  496   4.409   3.933   5.876  0.1832 -0.5411 -0.3018
    7CHL1  H21A  497   4.480   3.878   5.942  0.1354  0.5503  0.6933
    7CHL1  H21B  498   4.386   3.881   5.781  1.2447 -2.5097  0.4602
    7CHL1  H21C  499   4.309   3.939   5.923  1.1994  3.4448  1.8860
    7CHL1   C22  500   4.567   4.090   5.742 -0.2703 -0.2854  0.3181
    7CHL1  H22A  501   4.664   4.067   5.791  0.8988  0.8667 -1.3673
    7CHL1  H22B  502   4.547   4.004   5.675  0.0903 -0.0295 -0.1206
    7CHL1   C23  503   4.571   4.222   5.667  0.5113 -0.8941  0.5086
    7CHL1  H23A  504   4.475   4.244   5.616  0.9723  0.3287  0.1330
    7CHL1  H23B  505   4.603   4.307   5.731  1.2938 -0.2020 -0.7766
    7CHL1   C24  506   4.684   4.210   5.559  0.2797  0.5956 -0.1099
    7CHL1  H24A  507   4.658   4.128   5.488  0.4261 -1.2044  1.8007
    7CHL1  H24B  508   4.684   4.299   5.493 -0.4900  1.0842  0.5296
    7CHL1   C25  509   4.824   4.200   5.612 -0.5089 -0.5120  0.5974
    7CHL1   H25  510   4.832   4.115   5.683  1.0279  0.0406  1.1256
    7CHL1   C26  511   4.929   4.172   5.502  0.0427  0.0210 -0.3319
    7CHL1  H26A  512   4.939   4.255   5.428  1.4673 -0.7651 -1.0507
    7CHL1  H26B  513   5.028   4.160   5.549  1.2138  1.4585 -2.2655
    7CHL1  H26C  514   4.913   4.078   5.445  2.8639  1.4691 -3.9391
    7CHL1   C27  515   4.874   4.335   5.675  0.0303  0.3711  0.3919
    7CHL1  H27A  516   4.877   4.417   5.600 -0.3129  0.6162  0.6440
    7CHL1  H27B  517   4.810   4.366   5.760 -0.1456  1.6582 -0.1872
    7CHL1  H27C  518   4.972   4.325   5.726  0.7647  1.6882 -0.6752
    8CHL1    C3  519   1.232   1.390   6.592  0.3607 -0.9710  0.7943
    8CHL1    H3  520   1.197   1.290   6.557 -2.2784  0.6240 -1.5946
    8CHL1    O3  521   1.269   1.391   6.728  0.0115 -0.1351 -0.0670
    8CHL1   H3'  522   1.197   1.376   6.789  2.0630  0.1622  2.6014
    8CHL1    C4  523   1.348   1.426   6.505 -0.6543  0.3465  1.0280
    8CHL1   H4A  524   1.396   1.512   6.557 -2.6251  1.5747  0.9345
    8CHL1   H4B  525   1.415   1.339   6.523 -0.2921  0.4393  0.1538
    8CHL1    C5  526   1.310   1.453   6.363 -0.4088  0.4916 -0.3861
    8CHL1    C6  527   1.368   1.377   6.270  0.0267  0.2316  0.2736
    8CHL1    H6  528   1.443   1.300   6.290 -1.3845 -0.8460  1.6482
    8CHL1    C7  529   1.345   1.402   6.127  0.0158  0.1846 -0.3443
    8CHL1   H7A  530   1.446   1.406   6.080  1.3450 -2.4886  1.9697
    8CHL1   H7B  531   1.292   1.317   6.079  0.6408 -1.3227  1.5218
    8CHL1    C8  532   1.276   1.542   6.100 -0.8689 -0.3080  0.2182
    8CHL1    H8  533   1.346   1.622   6.131 -1.3627 -0.4309  1.6971
    8CHL1   C14  534   1.224   1.546   5.957  0.7980  0.5186  0.2498
    8CHL1   H14  535   1.150   1.464   5.956  1.6355 -0.2775  1.2402
    8CHL1   C15  536   1.331   1.527   5.851 -0.1831  0.2627 -0.2019
    8CHL1  H15A  537   1.413   1.597   5.877 -0.1598 -0.3494  1.4747
    8CHL1  H15B  538   1.359   1.420   5.841  0.2341  0.3803 -0.3085
    8CHL1   C16  539   1.257   1.571   5.722  0.0136  0.2156  0.1315
    8CHL1  H16A  540   1.322   1.640   5.664  1.2513  0.2464  1.4792
    8CHL1  H16B  541   1.216   1.487   5.662 -0.3392  0.4134  0.0985
    8CHL1   C17  542   1.134   1.648   5.769  0.6687 -0.0748 -0.3304
    8CHL1   H17  543   1.049   1.576   5.764  0.9077 -0.4703  0.9107
    8CHL1   C13  544   1.148   1.676   5.920 -0.3172 -0.0571 -0.0017
    8CHL1   C18  545   1.228   1.799   5.944 -0.1699 -0.4000 -0.0709
    8CHL1  H18A  546   1.156   1.884   5.946  0.8980  0.5336  1.7699
    8CHL1  H18B  547   1.279   1.788   6.042  2.1537 -1.5334 -1.3137
    8CHL1  H18C  548   1.306   1.822   5.868  0.1707  0.0779  0.4100
    8CHL1   C12  549   1.026   1.689   6.008  0.6226  0.1196  0.7784
    8CHL1  H12A  550   0.968   1.782   5.987  2.7592  1.1598 -0.9203
    8CHL1  H12B  551   0.962   1.599   6.000  1.4027 -0.3467 -0.4413
    8CHL1   C11  552   1.063   1.676   6.159  0.2271  0.2554  0.6972
    8CHL1  H11A  553   1.115   1.766   6.198 -0.4663  1.2440 -0.6065
    8CHL1  H11B  554   0.976   1.672   6.228 -1.3488 -1.3031 -1.2376
    8CHL1    C9  555   1.152   1.553   6.192 -0.3939 -0.3431  0.4172
    8CHL1    H9  556   1.096   1.459   6.173 -2.1510  1.0393 -1.8385
    8CHL1   C10  557   1.196   1.551   6.344  0.2794  0.2411 -0.1640
    8CHL1   C19  558   1.257   1.687   6.391 -0.5618 -0.1035 -0.5038
    8CHL1  H19A  559   1.185   1.771   6.398  0.7786  1.1011 -0.9176
    8CHL1  H19B  560   1.294   1.677   6.495 -0.3757  0.0724 -0.5546
    8CHL1  H19C  561   1.338   1.724   6.325 -0.2726 -0.0095 -0.0988
    8CHL1    C1  562   1.066   1.507   6.433 -0.9509 -0.1632  0.8903
    8CHL1   H1A  563   0.987   1.584   6.415 -0.9493 -0.3944 -0.1759
    8CHL1   H1B  564   1.022   1.411   6.399 -1.2218 -0.5235  2.1970
    8CHL1    C2  565   1.112   1.492   6.575  0.3635 -0.2130 -0.6630
    8CHL1   H2A  566   1.030   1.454   6.640  1.3973 -1.6738 -0.1756
    8CHL1   H2B  567   1.140   1.591   6.618  0.0494 -0.6404  0.5490
    8CHL1   C20  568   1.089   1.763   5.672  0.5964 -0.0386 -0.5716
    8CHL1   H20  569   1.161   1.847   5.677 -1.5162  1.7951  0.7497
    8CHL1   C21  570   0.953   1.830   5.714  0.2120  0.4087 -0.0514
    8CHL1  H21A  571   0.914   1.872   5.618  1.2826 -2.5435 -1.9051
    8CHL1  H21B  572   0.978   1.898   5.798 -0.8995  0.8055 -0.0261
    8CHL1  H21C  573   0.882   1.749   5.741 -1.4821  1.2053 -1.9062
    8CHL1   C22  574   1.082   1.727   5.523  0.4860  0.2669  0.1642
    8CHL1  H22A  575   1.170   1.667   5.492  0.0479  1.0266 -2.9125
    8CHL1  H22B  576   0.987   1.677   5.494  1.5353 -1.2229 -0.8553
    8CHL1   C23  577   1.090   1.853   5.428  0.3039 -0.2771  0.0678
    8CHL1  H23A  578   0.997   1.911   5.444 -0.1659 -1.5079  2.0076
    8CHL1  H23B  579   1.180   1.913   5.455 -0.6745  1.3014 -0.0089
    8CHL1   C24  580   1.094   1.817   5.276  0.4230  0.0136  0.4661
    8CHL1  H24A  581   1.001   1.760   5.254  0.6714 -0.1801 -0.0911
    8CHL1  H24B  582   1.089   1.915   5.223 -0.8339 -0.7161 -0.8731
    8CHL1   C25  583   1.210   1.731   5.225 -0.4173  0.2143  0.8706
    8CHL1   H25  584   1.209   1.628   5.266  1.0177  0.3537  1.3343
    8CHL1   C26  585   1.198   1.708   5.073 -0.1288  0.0704  0.9341
    8CHL1  H26A  586   1.203   1.803   5.015 -2.6338 -1.9419 -2.9851
    8CHL1  H26B  587   1.277   1.638   5.037  0.1610 -0.6690  2.8609
    8CHL1  H26C  588   1.096   1.671   5.050 -1.0168  2.7911  0.1494
    8CHL1   C27  589   1.347   1.801   5.253  0.5985  0.2969  0.5174
    8CHL1  H27A  590   1.424   1.727   5.223  1.4229  2.1821 -2.5680
    8CHL1  H27B  591   1.351   1.880   5.175 -1.8469 -0.6029 -0.6179
    8CHL1  H27C  592   1.358   1.828   5.360  0.6237 -0.2445  0.6511
    9CHL1    C3  593   4.811   5.247   6.485 -0.1076 -0.2104 -0.7329
    9CHL1    H3  594   4.713   5.200   6.462 -0.2808  0.4956 -1.4997
    9CHL1    O3  595   4.807   5.293   6.624 -0.1683 -0.0596  0.5014
    9CHL1   H3'  596   4.900   5.306   6.645 -0.1554  1.4331 -0.3786
    9CHL1    C4  597   4.936   5.163   6.474  0.3315 -0.6382  0.4885
    9CHL1   H4A  598   5.023   5.228   6.498  0.2047 -0.8170  1.4487
    9CHL1   H4B  599   4.927   5.086   6.553 -0.0723 -0.5161  0.5650
    9CHL1    C5  600   4.951   5.100   6.338 -0.3452  0.1076 -0.0093
    9CHL1    C6  601   4.928   4.970   6.319 -0.7473 -0.1191 -0.0291
    9CHL1    H6  602   4.916   4.906   6.408 -1.7583  0.9129  0.6064
    9CHL1    C7  603   4.933   4.906   6.184  0.5137 -0.7661  0.1573
    9CHL1   H7A  604   4.979   4.805   6.190 -0.3618 -1.4055 -2.5223
    9CHL1   H7B  605   4.825   4.884   6.166 -0.0824 -0.8116  3.1279
    9CHL1    C8  606   4.981   5.001   6.068 -0.0185 -0.1649 -0.1278
    9CHL1    H8  607   5.091   5.006   6.079 -0.0818 -0.8191  0.9128
    9CHL1   C14  608   4.942   4.937   5.930  0.5858  0.7280 -0.3883
    9CHL1   H14  609   4.832   4.940   5.941  0.4464  0.1668 -1.4596
    9CHL1   C15  610   4.983   4.793   5.906 -0.4334  0.2587  0.0726
    9CHL1  H15A  611   5.088   4.773   5.936  0.2934 -1.3027 -3.1115
    9CHL1  H15B  612   4.920   4.722   5.965  0.5777  0.3614  1.3320
    9CHL1   C16  613   4.966   4.781   5.759 -0.2780  0.2538 -0.0785
    9CHL1  H16A  614   5.056   4.739   5.709 -0.2757  1.0891 -0.7841
    9CHL1  H16B  615   4.883   4.708   5.744  1.2154 -1.3067 -1.0486
    9CHL1   C17  616   4.930   4.920   5.705  0.2548 -0.7960 -0.3575
    9CHL1   H17  617   4.819   4.926   5.712  0.3413 -0.6079  1.1690
    9CHL1   C13  618   4.976   5.021   5.816  0.1899  0.3540 -0.2522
    9CHL1   C18  619   5.137   5.022   5.813  0.3573 -0.0044 -0.2167
    9CHL1  H18A  620   5.183   5.084   5.893  2.4231  0.4320 -1.6428
    9CHL1  H18B  621   5.176   4.919   5.818  2.1217  0.6798  0.7738
    9CHL1  H18C  622   5.163   5.068   5.715  0.8722 -1.8735 -1.0023
    9CHL1   C12  623   4.908   5.155   5.827 -0.4742 -0.3560  0.5321
    9CHL1  H12A  624   4.919   5.228   5.744  0.0840 -0.5681  0.4120
    9CHL1  H12B  625   4.802   5.126   5.841 -0.6829  0.8597  1.6060
    9CHL1   C11  626   4.958   5.225   5.957 -0.3214 -0.2781 -0.5029
    9CHL1  H11A  627   5.067   5.246   5.950 -0.3734  0.2465  0.1631
    9CHL1  H11B  628   4.925   5.331   5.968  1.3543  0.2338 -0.1459
    9CHL1    C9  629   4.922   5.145   6.082 -0.3379  0.2716 -0.2094
    9CHL1    H9  630   4.812   5.130   6.081 -0.1470 -1.3879 -1.6870
    9CHL1   C10  631   4.953   5.210   6.226  0.1125 -0.2650 -0.2525
    9CHL1   C19  632   5.087   5.272   6.235 -0.3900 -0.2097 -0.1995
    9CHL1  H19A  633   5.084   5.364   6.172 -2.6659  0.0562  0.2247
    9CHL1  H19B  634   5.115   5.313   6.335 -0.6689 -0.8372  0.1425
    9CHL1  H19C  635   5.171   5.206   6.205 -0.1417 -0.6587  1.3762
    9CHL1    C1  636   4.837   5.318   6.245 -0.5378 -0.3072  0.2700
    9CHL1   H1A  637   4.846   5.402   6.173  0.5312 -0.5480  0.1081
    9CHL1   H1B  638   4.739   5.271   6.219 -0.2337 -1.0809  0.4910
    9CHL1    C2  639   4.824   5.363   6.390  0.5752 -0.5555 -0.1025
    9CHL1   H2A  640   4.730   5.423   6.388  0.1728 -1.1592 -2.6081
    9CHL1   H2B  641   4.916   5.417   6.420 -0.0311 -0.5257  1.8477
    9CHL1   C20  642   4.962   4.953   5.559 -0.1826 -0.7211 -0.1293
    9CHL1   H20  643   5.073   4.959   5.556 -0.1297 -1.6944 -1.3191
    9CHL1   C21  644   4.912   5.086   5.508  0.8284 -0.2807  0.5555
    9CHL1  H21A  645   4.945   5.166   5.577 -2.2039  0.4165  1.2997
    9CHL1  H21B  646   4.802   5.094   5.501  1.0133  2.3961 -0.2677
    9CHL1  H21C  647   4.949   5.108   5.406 -0.2604 -0.8013  0.0320
    9CHL1   C22  648   4.925   4.840   5.453  0.7078 -0.4733 -0.6270
    9CHL1  H22A  649   4.974   4.875   5.360 -2.9530 -0.7952 -2.8946
    9CHL1  H22B  650   4.978   4.749   5.487  1.7653 -0.0652 -1.1428
    9CHL1   C23  651   4.775   4.826   5.428 -0.3742  0.3257 -0.2700
    9CHL1  H23A  652   4.736   4.836   5.532 -1.3141  1.2472 -0.6967
    9CHL1  H23B  653   4.743   4.916   5.373 -1.1428 -0.3148 -0.8901
    9CHL1   C24  654   4.736   4.701   5.353  0.7064 -0.9636  0.1893
    9CHL1  H24A  655   4.798   4.695   5.261  1.3888  2.0239  0.3461
    9CHL1  H24B  656   4.758   4.608   5.410 -1.4353 -0.4588  1.9787
    9CHL1   C25  657   4.584   4.699   5.314 -0.0072  0.0505 -0.1775
    9CHL1   H25  658   4.535   4.745   5.402  2.5270  0.3715  1.1449
    9CHL1   C26  659   4.559   4.785   5.190  0.1288 -0.3165 -0.6081
    9CHL1  H26A  660   4.578   4.732   5.094 -1.5899 -1.9896 -0.0936
    9CHL1  H26B  661   4.457   4.830   5.187  0.2297 -0.1044 -1.0994
    9CHL1  H26C  662   4.624   4.875   5.189  1.1095 -0.9307  1.6109
    9CHL1   C27  663   4.539   4.556   5.302  0.0117  0.3147 -0.0259
    9CHL1  H27A  664   4.544   4.510   5.402 -1.2004 -1.8784 -0.9042
    9CHL1  H27B  665   4.430   4.541   5.281 -0.1333 -1.0776  1.5338
    9CHL1  H27C  666   4.596   4.498   5.226  0.4243 -0.2249  0.6909
   10CHL1    C3  667   3.719   5.912   6.817  0.2485  0.2424  0.4855
   10CHL1    H3  668   3.728   6.018   6.782 -2.8429  0.6533  0.6600
   10CHL1    O3  669   3.732   5.894   6.960 -0.2283 -0.2093 -0.0116
   10CHL1   H3'  670   3.711   5.805   6.990 -2.8231  0.4088  0.2890
   10CHL1    C4  671   3.575   5.867   6.788 -1.0249  0.1950  0.2468
   10CHL1   H4A  672   3.552   5.766   6.829 -0.9260 -0.6358 -1.6392
   10CHL1   H4B  673   3.500   5.934   6.835  0.8243  2.1797  0.4833
   10CHL1    C5  674   3.554   5.855   6.636 -0.2417  0.0529  0.9274
   10CHL1    C6  675   3.461   5.933   6.571  0.2225  0.6808 -0.3353
   10CHL1    H6  676   3.389   5.998   6.622  0.4330  0.3306  0.4226
   10CHL1    C7  677   3.442   5.916   6.427  0.7331  0.3705  0.1781
   10CHL1   H7A  678   3.333   5.929   6.410  1.1264  2.3600 -1.1796
   10CHL1   H7B  679   3.481   6.010   6.382  2.9886 -0.3564  0.4878
   10CHL1    C8  680   3.490   5.783   6.363  0.1224  0.7146  0.6033
   10CHL1    H8  681   3.432   5.696   6.403  0.1762  1.1886  1.7661
   10CHL1   C14  682   3.478   5.785   6.212  0.1849  0.0781 -0.6161
   10CHL1   H14  683   3.546   5.869   6.185 -1.6768  1.4685 -1.2350
   10CHL1   C15  684   3.342   5.805   6.135  0.7690 -0.6293  0.3611
   10CHL1  H15A  685   3.268   5.736   6.181  2.2228 -2.5186  0.0013
   10CHL1  H15B  686   3.301   5.908   6.149  0.6906 -0.8147  1.5975
   10CHL1   C16  687   3.365   5.769   5.992 -0.0775 -0.8820 -0.1527
   10CHL1  H16A  688   3.291   5.697   5.950  0.6538 -1.6757 -0.1057
   10CHL1  H16B  689   3.366   5.857   5.925 -0.7150 -0.8576 -0.1423
   10CHL1   C17  690   3.510   5.709   5.989 -0.0639 -0.0427 -0.0131
   10CHL1   H17  691   3.580   5.791   5.962  0.9992 -0.5371  1.1739
   10CHL1   C13  692   3.543   5.670   6.135 -0.5583  0.3013  0.2500
   10CHL1   C18  693   3.479   5.534   6.170 -0.3149 -0.3831 -0.3378
   10CHL1  H18A  694   3.485   5.511   6.278 -3.3196 -0.5976 -0.1317
   10CHL1  H18B  695   3.374   5.513   6.143 -1.2453  2.9285  0.2857
   10CHL1  H18C  696   3.546   5.461   6.119 -0.0273 -0.0814 -0.3939
   10CHL1   C12  697   3.693   5.679   6.179 -0.0522 -0.6935 -0.4164
   10CHL1  H12A  698   3.743   5.598   6.123 -0.5611 -0.6556 -0.9408
   10CHL1  H12B  699   3.734   5.780   6.157  2.1319 -0.7444  2.6614
   10CHL1   C11  700   3.717   5.649   6.328 -0.7356 -0.1580  0.2745
   10CHL1  H11A  701   3.669   5.551   6.350 -0.6845 -0.3297 -0.3844
   10CHL1  H11B  702   3.824   5.648   6.360 -0.7122  1.5230  0.3418
   10CHL1    C9  703   3.637   5.756   6.410  0.7971 -0.3131  0.5632
   10CHL1    H9  704   3.685   5.852   6.379 -2.1180  1.0437 -0.1088
   10CHL1   C10  705   3.653   5.756   6.564  0.2943  0.2414  0.3231
   10CHL1   C19  706   3.631   5.611   6.616  0.8364  0.9747  0.6069
   10CHL1  H19A  707   3.532   5.570   6.587  2.2602 -1.1408 -1.7553
   10CHL1  H19B  708   3.698   5.533   6.573 -1.0011  1.1771 -3.0384
   10CHL1  H19C  709   3.636   5.593   6.725 -1.5718 -2.8663  0.2713
   10CHL1    C1  710   3.793   5.812   6.589  0.0358  0.0023 -0.1851
   10CHL1   H1A  711   3.877   5.757   6.544  1.1009  1.5010 -0.1202
   10CHL1   H1B  712   3.801   5.908   6.533 -1.1442  0.3079  0.1288
   10CHL1    C2  713   3.829   5.830   6.739 -0.2265 -0.1696  0.0230
   10CHL1   H2A  714   3.931   5.872   6.751 -0.2662 -0.2975  0.8600
   10CHL1   H2B  715   3.831   5.726   6.776 -0.3323 -0.4787 -0.8123
   10CHL1   C20  716   3.528   5.599   5.881 -0.0894 -0.7012  0.1254
   10CHL1   H20  717   3.462   5.512   5.900  0.3809 -0.8106  1.3203
   10CHL1   C21  718   3.673   5.541   5.872  0.5400 -0.0134  0.1084
   10CHL1  H21A  719   3.699   5.473   5.955 -1.2391 -0.4925  0.3156
   10CHL1  H21B  720   3.745   5.626   5.877 -0.2487  0.7492 -0.9808
   10CHL1  H21C  721   3.695   5.487   5.778 -0.6903  0.7352 -0.6417
   10CHL1   C22  722   3.471   5.644   5.741 -0.0280  0.5046 -0.3214
   10CHL1  H22A  723   3.366   5.678   5.758  0.0604  0.7557 -0.2820
   10CHL1  H22B  724   3.535   5.731   5.716  0.3967 -0.3430 -2.4251
   10CHL1   C23  725   3.481   5.545   5.624  0.5096 -0.3270 -0.7056
   10CHL1  H23A  726   3.586   5.510   5.617  0.4231 -0.8595  0.3979
   10CHL1  H23B  727   3.423   5.453   5.648  0.5079 -0.3151 -0.6635
   10CHL1   C24  728   3.442   5.578   5.480 -0.1374 -0.3460  0.7346
   10CHL1  H24A  729   3.472   5.499   5.408 -1.9804  1.0422 -1.7414
   10CHL1  H24B  730   3.331   5.573   5.482 -0.1378 -2.4295 -1.0641
   10CHL1   C25  731   3.495   5.713   5.415 -0.1883  0.1236  0.1559
   10CHL1   H25  732   3.461   5.799   5.476  1.3493  1.4754 -0.8200
   10CHL1   C26  733   3.645   5.710   5.399  0.2657  0.3088 -0.4884
   10CHL1  H26A  734   3.695   5.676   5.492 -0.5419 -0.4045 -0.3049
   10CHL1  H26B  735   3.671   5.636   5.321 -1.3903 -0.2610 -0.5458
   10CHL1  H26C  736   3.675   5.813   5.370 -0.6339  0.2731 -1.6468
   10CHL1   C27  737   3.446   5.722   5.266  0.4390 -0.3332 -0.0629
   10CHL1  H27A  738   3.338   5.696   5.258  0.4588 -0.3522 -0.2952
   10CHL1  H27B  739   3.456   5.821   5.215 -0.9312 -0.4160 -0.5336
   10CHL1  H27C  740   3.495   5.652   5.194  0.5025  2.4390 -2.9356
   11CHL1    C3  741   2.430   3.837   6.968  0.4286  0.0738 -0.2427
   11CHL1    H3  742   2.370   3.920   6.927  1.1633  0.3773 -0.7240
   11CHL1    O3  743   2.426   3.829   7.109 -0.0096 -0.5151 -0.6518
   11CHL1   H3'  744   2.334   3.820   7.136 -0.6019  1.5296 -1.7647
   11CHL1    C4  745   2.359   3.703   6.930 -0.3591 -0.2242 -0.3751
   11CHL1   H4A  746   2.411   3.617   6.976 -2.0439 -0.2966  1.5168
   11CHL1   H4B  747   2.259   3.703   6.979 -0.1176 -2.9881  0.2363
   11CHL1    C5  748   2.348   3.681   6.780  0.3327  0.1173  0.8810
   11CHL1    C6  749   2.237   3.654   6.706 -0.0139  0.0609  0.0429
   11CHL1    H6  750   2.138   3.642   6.753 -1.1720 -0.6072 -2.4064
   11CHL1    C7  751   2.234   3.645   6.558 -0.2940 -0.5328  0.5504
   11CHL1   H7A  752   2.185   3.550   6.530  0.4661 -0.9937  0.7625
   11CHL1   H7B  753   2.190   3.731   6.502 -0.9064 -2.2955 -1.8168
   11CHL1    C8  754   2.375   3.632   6.490  0.2447 -0.7447  0.0773
   11CHL1    H8  755   2.416   3.528   6.487  0.4584 -0.6532 -0.2678
   11CHL1   C14  756   2.361   3.677   6.345  0.0462 -0.1242  0.0405
   11CHL1   H14  757   2.325   3.782   6.349 -1.0639 -0.4923  0.0348
   11CHL1   C15  758   2.243   3.611   6.273  0.1331 -0.1253  0.2013
   11CHL1  H15A  759   2.220   3.507   6.303 -0.5205  0.2709  1.1191
   11CHL1  H15B  760   2.140   3.652   6.284  0.0533 -0.2685  0.0022
   11CHL1   C16  761   2.278   3.627   6.129  0.3028  0.2870  0.7479
   11CHL1  H16A  762   2.282   3.528   6.078  0.6546  0.7422 -0.1261
   11CHL1  H16B  763   2.208   3.693   6.073 -0.7654 -0.3951  1.2319
   11CHL1   C17  764   2.420   3.690   6.123 -0.6744  0.2022  0.0201
   11CHL1   H17  765   2.415   3.800   6.118  1.9535  0.4334  0.8103
   11CHL1   C13  766   2.485   3.661   6.260  0.1494  0.5242  0.2776
   11CHL1   C18  767   2.528   3.510   6.254  0.1274  0.1501 -0.2804
   11CHL1  H18A  768   2.630   3.501   6.212  0.0271 -2.0769 -0.1993
   11CHL1  H18B  769   2.544   3.462   6.353  1.0143  4.1109  1.6787
   11CHL1  H18C  770   2.451   3.441   6.212 -0.3134 -1.4609  2.8561
   11CHL1   C12  771   2.591   3.745   6.325 -0.0003 -0.2679  0.1940
   11CHL1  H12A  772   2.682   3.741   6.260 -0.5823 -2.0039 -0.5764
   11CHL1  H12B  773   2.565   3.853   6.317  0.2049 -0.1219  1.3403
   11CHL1   C11  774   2.610   3.710   6.478 -0.3078  0.6455  0.7294
   11CHL1  H11A  775   2.648   3.608   6.499  0.0430  0.9718  1.7610
   11CHL1  H11B  776   2.687   3.786   6.507  1.2079 -0.4568 -0.2354
   11CHL1    C9  777   2.481   3.717   6.564 -0.5374 -0.0680 -0.1540
   11CHL1    H9  778   2.445   3.821   6.554 -1.5602 -0.3906  0.0382
   11CHL1   C10  779   2.490   3.698   6.719  0.1341  0.4960  0.4580
   11CHL1   C19  780   2.564   3.559   6.746  0.3870 -0.3863  0.5944
   11CHL1  H19A  781   2.557   3.528   6.852 -1.7487 -1.3537  0.2193
   11CHL1  H19B  782   2.529   3.474   6.685  0.0127  0.6505 -0.6983
   11CHL1  H19C  783   2.674   3.567   6.730  0.3939 -0.9354  0.3399
   11CHL1    C1  784   2.574   3.814   6.772  0.2030  0.3003  0.9669
   11CHL1   H1A  785   2.675   3.792   6.731 -0.1632  0.9577 -0.3244
   11CHL1   H1B  786   2.541   3.915   6.738 -1.6550 -0.9326 -1.1433
   11CHL1    C2  787   2.578   3.829   6.919 -0.6172 -0.4606 -0.0831
   11CHL1   H2A  788   2.622   3.927   6.946 -1.7096 -0.0664  0.3156
   11CHL1   H2B  789   2.640   3.750   6.968 -0.6710  0.2862  1.2485
   11CHL1   C20  790   2.489   3.641   5.989 -0.1449 -0.4303 -0.6828
   11CHL1   H20  791   2.519   3.534   5.992  0.1056 -0.3912 -1.4108
   11CHL1   C21  792   2.617   3.727   5.975  0.2678 -0.4112 -0.2180
   11CHL1  H21A  793   2.588   3.833   5.984 -1.2072 -0.7707 -0.5316
   11CHL1  H21B  794   2.664   3.698   5.878  2.2119  1.0120  0.2257
   11CHL1  H21C  795   2.688   3.699   6.056 -1.8288 -0.6054  1.6332
   11CHL1   C22  796   2.395   3.671   5.864 -0.0635  0.3753 -0.1857
   11CHL1  H22A  797   2.288   3.647   5.879 -0.2964  1.4039 -0.1513
   11CHL1  H22B  798   2.385   3.781   5.862 -1.0638  0.2825 -1.6690
   11CHL1   C23  799   2.439   3.610   5.729  0.1164  0.6924 -0.2626
   11CHL1  H23A  800   2.548   3.622   5.715  0.2787  1.0371  1.1519
   11CHL1  H23B  801   2.418   3.501   5.739 -1.5158  1.0627  0.7803
   11CHL1   C24  802   2.361   3.664   5.611 -0.7765  0.2013 -0.1459
   11CHL1  H24A  803   2.258   3.623   5.618 -0.4743 -0.7443 -1.0279
   11CHL1  H24B  804   2.354   3.775   5.610  1.6342  0.4003  0.7936
   11CHL1   C25  805   2.411   3.624   5.469  0.6853 -0.0026  0.2128
   11CHL1   H25  806   2.510   3.674   5.455 -0.2822  1.6105 -1.4028
   11CHL1   C26  807   2.444   3.477   5.455 -0.0668  0.2245 -0.2418
   11CHL1  H26A  808   2.352   3.417   5.437 -1.1622  2.0710 -1.1196
   11CHL1  H26B  809   2.500   3.455   5.361 -1.1167 -0.1131 -0.8033
   11CHL1  H26C  810   2.502   3.426   5.535  0.6901  0.9954 -0.2867
   11CHL1   C27  811   2.305   3.660   5.358 -0.5033 -0.2639  0.7224
   11CHL1  H27A  812   2.301   3.771   5.349 -0.9020 -0.3183  0.1859
   11CHL1  H27B  813   2.322   3.623   5.254 -1.3575  0.7377  0.2010
   11CHL1  H27C  814   2.203   3.630   5.391 -1.3035  0.2106 -1.1673
   12CHL1    C3  815   3.893   2.267   6.523 -0.1952 -0.2957 -0.2211
   12CHL1    H3  816   3.926   2.373   6.509  1.2290 -0.7971 -0.8563
   12CHL1    O3  817   3.878   2.246   6.665  0.0376  0.3684 -0.5725
   12CHL1   H3'  818   3.842   2.157   6.674 -0.7983  0.7587  0.0477
   12CHL1    C4  819   3.757   2.229   6.466 -0.6932  0.1965 -0.4020
   12CHL1   H4A  820   3.728   2.125   6.491  1.1266 -0.5054 -1.0188
   12CHL1   H4B  821   3.682   2.295   6.514 -0.0186  1.3422 -0.8841
   12CHL1    C5  822   3.752   2.236   6.320 -0.2709  0.4466 -0.1654
   12CHL1    C6  823   3.658   2.309   6.257  0.4896  0.2464 -0.3470
   12CHL1    H6  824   3.583   2.363   6.317  0.1559 -0.5587 -0.0370
   12CHL1    C7  825   3.653   2.341   6.111 -0.4174  0.5628 -0.1444
   12CHL1   H7A  826   3.550   2.324   6.072 -0.8742 -0.8144  1.4999
   12CHL1   H7B  827   3.670   2.448   6.086 -0.8716  0.4371 -1.0215
   12CHL1    C8  828   3.741   2.243   6.037 -0.2861  0.6021 -0.4304
   12CHL1    H8  829   3.697   2.143   6.018  2.4959 -0.7640 -0.2244
   12CHL1   C14  830   3.757   2.303   5.894  0.0093 -1.0003  0.2458
   12CHL1   H14  831   3.809   2.400   5.908 -0.1349 -0.4266 -2.5043
   12CHL1   C15  832   3.629   2.332   5.820  0.3798 -0.5362  0.0767
   12CHL1  H15A  833   3.566   2.246   5.853  1.5246 -1.6592 -0.5431
   12CHL1  H15B  834   3.583   2.425   5.860  1.1294  0.8889 -2.1688
   12CHL1   C16  835   3.675   2.352   5.673 -0.5878 -0.0439 -0.3458
   12CHL1  H16A  836   3.607   2.290   5.610 -1.0571 -0.0654  0.1720
   12CHL1  H16B  837   3.673   2.460   5.647  2.8372 -0.0619 -1.1902
   12CHL1   C17  838   3.824   2.309   5.670 -0.1371 -1.0189 -0.4530
   12CHL1   H17  839   3.877   2.404   5.695 -0.6765 -0.8289 -0.0070
   12CHL1   C13  840   3.846   2.223   5.793 -0.1414  0.1210 -0.6433
   12CHL1   C18  841   3.776   2.088   5.768  0.1263 -0.6393 -0.0321
   12CHL1  H18A  842   3.830   2.024   5.695 -0.4291  0.5860 -1.5674
   12CHL1  H18B  843   3.758   2.032   5.862  2.3110 -0.4582  0.5458
   12CHL1  H18C  844   3.682   2.097   5.709 -1.6431  1.5375  2.8844
   12CHL1   C12  845   3.981   2.208   5.867  0.6024 -0.0809  0.0355
   12CHL1  H12A  846   4.067   2.158   5.818  2.3124  1.6809  1.0691
   12CHL1  H12B  847   4.017   2.313   5.882 -0.5788  0.4474 -0.7220
   12CHL1   C11  848   3.976   2.145   6.010 -0.3352  0.2093  0.6820
   12CHL1  H11A  849   3.945   2.038   6.005  1.0044 -0.2562  1.5626
   12CHL1  H11B  850   4.081   2.145   6.047  0.4403 -0.3922 -1.3603
   12CHL1    C9  851   3.879   2.220   6.109  0.2334 -0.3763 -0.3128
   12CHL1    H9  852   3.928   2.320   6.106  1.2527 -0.8827 -1.4884
   12CHL1   C10  853   3.872   2.163   6.243 -0.5801  0.4001 -0.7983
   12CHL1   C19  854   3.851   2.007   6.239  0.5593 -0.2750 -0.2216
   12CHL1  H19A  855   3.751   1.978   6.199  0.1553  2.1931 -1.1795
   12CHL1  H19B  856   3.922   1.956   6.170 -0.4407 -1.2850 -0.5424
   12CHL1  H19C  857   3.861   1.956   6.337 -0.5361  1.8923  1.0912
   12CHL1    C1  858   4.008   2.183   6.320 -0.8377 -1.0401 -0.6687
   12CHL1   H1A  859   4.093   2.117   6.293  0.8458  0.1970  1.2750
   12CHL1   H1B  860   4.037   2.289   6.308  0.4407 -1.0716  1.5636
   12CHL1    C2  861   4.003   2.171   6.467  0.0352  0.2318  0.0489
   12CHL1   H2A  862   4.100   2.186   6.519 -0.6485 -0.9046  1.7343
   12CHL1   H2B  863   3.971   2.068   6.492 -0.3373 -0.1751 -1.9857
   12CHL1   C20  864   3.872   2.264   5.537 -0.6557 -0.0319 -0.2846
   12CHL1   H20  865   3.826   2.169   5.501 -0.5821 -0.7479  1.4427
   12CHL1   C21  866   4.025   2.246   5.525 -0.4337 -0.3869  0.3912
   12CHL1  H21A  867   4.047   2.188   5.432  1.8448 -0.1819  0.7457
   12CHL1  H21B  868   4.074   2.193   5.609  0.7472 -0.3618 -0.2669
   12CHL1  H21C  869   4.086   2.335   5.498  0.6832 -1.3003 -0.2195
   12CHL1   C22  870   3.834   2.372   5.429 -0.2625 -1.3810 -0.2447
   12CHL1  H22A  871   3.724   2.392   5.433 -0.0006  0.1641  0.0550
   12CHL1  H22B  872   3.885   2.465   5.463  1.2969 -2.2653 -0.0705
   12CHL1   C23  873   3.885   2.341   5.286  0.4948  0.5710  0.6155
   12CHL1  H23A  874   3.994   2.322   5.272  0.0162 -2.8084  0.4656
   12CHL1  H23B  875   3.847   2.237   5.277 -0.5967  0.9727  0.4611
   12CHL1   C24  876   3.828   2.414   5.172  0.0545 -0.3873 -0.3091
   12CHL1  H24A  877   3.717   2.411   5.172 -0.0194  0.6580 -2.1765
   12CHL1  H24B  878   3.869   2.514   5.196  2.6784 -1.8860  2.0341
   12CHL1   C25  879   3.878   2.375   5.032 -0.3833  0.6322  0.1128
   12CHL1   H25  880   3.989   2.365   5.035 -0.5477 -2.1503  2.9298
   12CHL1   C26  881   3.827   2.235   4.999 -0.4537 -0.1199  0.4206
   12CHL1  H26A  882   3.877   2.161   5.065  3.0677  1.4397 -0.2674
   12CHL1  H26B  883   3.716   2.224   5.002 -0.4767  0.2829  1.1343
   12CHL1  H26C  884   3.858   2.211   4.895 -2.1935  2.5800 -0.8271
   12CHL1   C27  885   3.825   2.474   4.932 -0.2521 -0.0286 -0.1951
   12CHL1  H27A  886   3.717   2.451   4.919 -0.8638  3.0706 -1.4892
   12CHL1  H27B  887   3.823   2.578   4.972  2.1868  0.5481 -1.3467
   12CHL1  H27C  888   3.890   2.475   4.841  0.6175  0.0960  0.4093
   13CHL1    C3  889   3.017   2.414   6.803  0.1715  0.1678 -0.3125
   13CHL1    H3  890   3.107   2.403   6.738 -0.5052  0.8123 -1.3970
   13CHL1    O3  891   3.057   2.380   6.938 -0.5860  0.9178  0.1500
   13CHL1   H3'  892   3.030   2.453   6.995  2.7564  1.0795  1.7854
   13CHL1    C4  893   2.965   2.560   6.800 -0.3668 -0.6331 -0.4199
   13CHL1   H4A  894   2.885   2.574   6.875  0.4841  0.3077  0.3440
   13CHL1   H4B  895   3.052   2.617   6.839 -2.2054  3.0528 -1.2875
   13CHL1    C5  896   2.924   2.610   6.663  0.3451  0.3177  0.3274
   13CHL1    C6  897   2.980   2.714   6.600  0.2518  0.3625 -0.1648
   13CHL1    H6  898   3.054   2.769   6.660 -0.0027  0.6399 -0.1023
   13CHL1    C7  899   2.951   2.763   6.457  0.1026  0.1994 -0.7325
   13CHL1   H7A  900   2.941   2.874   6.452  0.7034  0.7267  4.2589
   13CHL1   H7B  901   3.039   2.729   6.398  1.1799  1.3148  0.1626
   13CHL1    C8  902   2.822   2.701   6.408  1.7190 -0.3564  0.1423
   13CHL1    H8  903   2.738   2.751   6.462  1.1137  0.4763 -1.4816
   13CHL1   C14  904   2.805   2.725   6.259 -0.0253 -0.0807  0.1640
   13CHL1   H14  905   2.882   2.661   6.213 -2.0317 -1.2643 -1.7150
   13CHL1   C15  906   2.815   2.871   6.209 -0.2309 -0.4256 -0.3273
   13CHL1  H15A  907   2.744   2.924   6.276  0.5275 -0.8028  0.7926
   13CHL1  H15B  908   2.913   2.923   6.209 -1.2860  1.6959  0.3536
   13CHL1   C16  909   2.784   2.849   6.058  0.1458 -0.2519  0.3398
   13CHL1  H16A  910   2.719   2.937   6.039 -0.6619 -0.6821  1.0212
   13CHL1  H16B  911   2.879   2.854   6.000 -0.2189 -1.9103 -0.4668
   13CHL1   C17  912   2.706   2.717   6.038  0.0501 -0.6149 -0.2048
   13CHL1   H17  913   2.772   2.646   5.984  0.3575 -0.0408 -0.5960
   13CHL1   C13  914   2.676   2.671   6.188 -0.1261 -0.2545  0.1711
   13CHL1   C18  915   2.548   2.736   6.250  0.2205 -0.1023  0.5789
   13CHL1  H18A  916   2.540   2.720   6.360 -1.3834 -2.9655  0.1431
   13CHL1  H18B  917   2.543   2.845   6.233 -1.8447 -0.3339 -0.6324
   13CHL1  H18C  918   2.454   2.690   6.211 -0.0770  1.4330 -0.5805
   13CHL1   C12  919   2.680   2.516   6.211 -0.1067 -0.7976  0.1830
   13CHL1  H12A  920   2.595   2.467   6.160  0.2133 -0.1449 -1.0275
   13CHL1  H12B  921   2.772   2.473   6.165 -0.7680 -0.7593 -1.2084
   13CHL1   C11  922   2.677   2.493   6.368  0.1461  0.3905  0.1695
   13CHL1  H11A  923   2.579   2.520   6.414  0.0938 -0.6588  0.7241
   13CHL1  H11B  924   2.679   2.382   6.373 -1.0076  0.3106 -0.7641
   13CHL1    C9  925   2.799   2.556   6.442 -1.5676  0.3863  0.1377
   13CHL1    H9  926   2.887   2.504   6.397 -0.6388  1.9336  0.0665
   13CHL1   C10  927   2.817   2.526   6.592 -0.8863 -0.4099  0.2915
   13CHL1   C19  928   2.679   2.552   6.663 -1.2334 -0.4038  0.0067
   13CHL1  H19A  929   2.603   2.488   6.614  0.0495  0.3266 -3.1664
   13CHL1  H19B  930   2.682   2.529   6.772 -2.5188 -2.3242 -0.3112
   13CHL1  H19C  931   2.642   2.656   6.650 -0.8695 -0.3490 -0.5831
   13CHL1    C1  932   2.865   2.374   6.605 -0.0419 -0.3537  0.0402
   13CHL1   H1A  933   2.784   2.308   6.567  1.6033 -3.3737  1.3900
   13CHL1   H1B  934   2.956   2.375   6.541 -0.0118  3.3571 -0.0676
   13CHL1    C2  935   2.906   2.326   6.748 -0.1710 -0.1867 -0.3848
   13CHL1   H2A  936   2.950   2.224   6.745 -1.3200 -0.6654 -2.5142
   13CHL1   H2B  937   2.810   2.331   6.803 -0.3780  1.9280 -0.8649
   13CHL1   C20  938   2.591   2.735   5.939  0.4106  0.6405 -0.5527
   13CHL1   H20  939   2.526   2.810   5.988  1.3335  1.4955 -0.6123
   13CHL1   C21  940   2.516   2.600   5.917  0.2992  0.3567 -0.6403
   13CHL1  H21A  941   2.475   2.551   6.008  2.3324 -0.0753  0.0797
   13CHL1  H21B  942   2.584   2.519   5.884 -1.5803 -1.3845 -0.4605
   13CHL1  H21C  943   2.437   2.615   5.840  0.8691  0.8920 -1.1381
   13CHL1   C22  944   2.627   2.797   5.803  0.3078 -0.0747  0.2343
   13CHL1  H22A  945   2.532   2.796   5.745 -1.1063  1.5764  2.3789
   13CHL1  H22B  946   2.661   2.899   5.830  0.1533  0.1978 -0.5827
   13CHL1   C23  947   2.725   2.709   5.720  0.5260 -0.9318  0.5491
   13CHL1  H23A  948   2.818   2.695   5.779  0.0388 -1.0525  1.3036
   13CHL1  H23B  949   2.681   2.608   5.704  0.3366 -0.7590 -0.0679
   13CHL1   C24  950   2.751   2.776   5.580  0.2042  0.1789  0.8848
   13CHL1  H24A  951   2.659   2.803   5.523  1.7699  0.0323 -1.8780
   13CHL1  H24B  952   2.812   2.865   5.604  0.6183  0.0410  0.3484
   13CHL1   C25  953   2.831   2.684   5.485  0.6185 -0.1178  0.4949
   13CHL1   H25  954   2.773   2.593   5.460  1.1288 -0.5386  0.8297
   13CHL1   C26  955   2.850   2.749   5.345  0.4392 -0.6297 -0.0240
   13CHL1  H26A  956   2.920   2.698   5.275 -0.2034  0.9268 -1.8504
   13CHL1  H26B  957   2.755   2.769   5.291  0.9786 -1.4762 -1.3262
   13CHL1  H26C  958   2.890   2.851   5.363  0.2826 -0.6934  0.7448
   13CHL1   C27  959   2.968   2.655   5.533 -0.4517 -0.1858 -0.0448
   13CHL1  H27A  960   3.017   2.748   5.570  1.4743 -0.4301 -1.8055
   13CHL1  H27B  961   2.981   2.584   5.618  0.0247  2.2182  2.0343
   13CHL1  H27C  962   3.036   2.609   5.459 -0.4069 -2.5327  1.3432
   14CHL1    C3  963   0.300   6.597   6.366 -0.0381  1.0465 -0.2099
   14CHL1    H3  964   0.376   6.678   6.375  0.0210  0.8329  1.3794
   14CHL1    O3  965   0.265   6.547   6.492 -0.3841  0.0718  0.1542
   14CHL1   H3'  966   0.212   6.469   6.476  0.1822  0.1299 -2.3205
   14CHL1    C4  967   0.172   6.660   6.305 -0.0240  0.1801 -0.4952
   14CHL1   H4A  968   0.082   6.595   6.315 -1.8287  2.8418  2.7448
   14CHL1   H4B  969   0.140   6.743   6.371  0.7849  0.3171 -0.2697
   14CHL1    C5  970   0.203   6.706   6.164  0.6044  0.0178 -0.3435
   14CHL1    C6  971   0.191   6.838   6.128  0.4776  0.8930 -0.0446
   14CHL1    H6  972   0.137   6.905   6.196 -0.0919  1.3209 -0.8907
   14CHL1    C7  973   0.224   6.885   5.991  0.3630 -0.0007 -0.1859
   14CHL1   H7A  974   0.148   6.958   5.955  0.7313  0.0257 -0.9422
   14CHL1   H7B  975   0.326   6.929   5.999  0.8285 -0.7622 -1.5479
   14CHL1    C8  976   0.225   6.773   5.882  0.8815  0.2938 -0.1148
   14CHL1    H8  977   0.126   6.729   5.859  0.1486  1.7009  0.2613
   14CHL1   C14  978   0.270   6.818   5.745 -0.4016  0.0547  0.1909
   14CHL1   H14  979   0.375   6.853   5.753 -0.8753  1.5444  0.3178
   14CHL1   C15  980   0.186   6.934   5.677  0.1489 -0.0373 -0.8129
   14CHL1  H15A  981   0.082   6.896   5.677  0.0080  0.1356  2.2126
   14CHL1  H15B  982   0.180   7.029   5.735  1.0579  0.0905 -0.9094
   14CHL1   C16  983   0.241   6.938   5.533  0.6421 -0.3065  0.6660
   14CHL1  H16A  984   0.154   6.924   5.465  1.4424  2.1993 -1.0331
   14CHL1  H16B  985   0.295   7.032   5.511 -2.8379  1.9708  1.0059
   14CHL1   C17  986   0.326   6.809   5.517 -0.7732  0.2990 -0.1150
   14CHL1   H17  987   0.432   6.838   5.538 -0.8679  0.0418  0.7470
   14CHL1   C13  988   0.286   6.712   5.635 -0.9488 -0.5099  0.1722
   14CHL1   C18  989   0.153   6.649   5.597  0.3687  0.4752  1.0704
   14CHL1  H18A  990   0.078   6.709   5.541 -1.4802 -2.4267  0.2279
   14CHL1  H18B  991   0.172   6.561   5.533 -1.7295  0.7754 -0.0371
   14CHL1  H18C  992   0.087   6.624   5.682  0.6330 -0.5239  0.9906
   14CHL1   C12  993   0.380   6.608   5.697 -0.4001  0.0463 -0.3434
   14CHL1  H12A  994   0.400   6.523   5.628 -0.4025  0.5675 -0.9862
   14CHL1  H12B  995   0.474   6.658   5.729 -0.8907  0.6841  0.1169
   14CHL1   C11  996   0.320   6.547   5.825 -0.6830 -0.3464  0.3851
   14CHL1  H11A  997   0.233   6.492   5.785  0.2209 -1.4549 -0.1337
   14CHL1  H11B  998   0.400   6.478   5.859  1.0292  0.7645 -1.1512
   14CHL1    C9  999   0.303   6.655   5.933  0.4662  0.0333 -0.3492
   14CHL1    H9 1000   0.403   6.692   5.963  1.1987 -2.3879  0.4622
   14CHL1   C10 1001   0.252   6.596   6.069 -0.0977  0.3345  0.1787
   14CHL1   C19 1002   0.137   6.498   6.029  0.2384 -0.5379  0.2730
   14CHL1  H19A 1003   0.094   6.456   6.123 -1.8260  1.5723  0.3516
   14CHL1  H19B 1004   0.064   6.557   5.970  0.4267 -1.1106 -0.5408
   14CHL1  H19C 1005   0.181   6.410   5.978  3.5901  0.3154  1.4401
   14CHL1    C1 1006   0.374   6.524   6.130  0.1803 -0.1270 -0.5634
   14CHL1   H1A 1007   0.405   6.436   6.070  0.3077  0.1274 -0.8750
   14CHL1   H1B 1008   0.468   6.582   6.119 -0.2991  1.2303  1.9178
   14CHL1    C2 1009   0.356   6.482   6.277 -0.3024 -0.6541  0.1929
   14CHL1   H2A 1010   0.454   6.452   6.319 -0.1070  1.2748  1.2265
   14CHL1   H2B 1011   0.279   6.403   6.286 -0.6055 -0.1872  2.1509
   14CHL1   C20 1012   0.323   6.760   5.374  0.3738 -0.6740 -0.3459
   14CHL1   H20 1013   0.217   6.732   5.353 -0.4345  1.0441  1.1689
   14CHL1   C21 1014   0.415   6.638   5.368 -0.3958 -0.1054  0.2728
   14CHL1  H21A 1015   0.432   6.611   5.261  0.2454  2.8803 -0.4598
   14CHL1  H21B 1016   0.382   6.553   5.432 -1.2623  0.6468  0.8476
   14CHL1  H21C 1017   0.516   6.666   5.404 -0.6284 -0.2380  1.0366
   14CHL1   C22 1018   0.353   6.874   5.272 -0.1709  0.3161 -0.1160
   14CHL1  H22A 1019   0.268   6.946   5.270  0.7000  1.3638 -1.7280
   14CHL1  H22B 1020   0.440   6.932   5.310 -0.2715  0.9527 -0.8237
   14CHL1   C23 1021   0.378   6.836   5.128 -0.4575 -0.2995  0.8484
   14CHL1  H23A 1022   0.482   6.798   5.130 -0.3922 -0.1943 -0.0154
   14CHL1  H23B 1023   0.313   6.758   5.083  0.0128  0.7089 -1.7908
   14CHL1   C24 1024   0.382   6.959   5.027 -0.5292 -0.6034 -0.4269
   14CHL1  H24A 1025   0.287   6.975   4.972 -0.9505  1.9130  0.8903
   14CHL1  H24B 1026   0.408   7.055   5.075 -2.2418 -0.9452  1.2973
   14CHL1   C25 1027   0.489   6.940   4.917 -0.3980  0.2401  0.0224
   14CHL1   H25 1028   0.584   6.946   4.975  0.1475 -4.4270 -0.0661
   14CHL1   C26 1029   0.476   6.812   4.856  0.1633  0.8672  0.6788
   14CHL1  H26A 1030   0.496   6.723   4.920 -0.9990  0.8560  1.0466
   14CHL1  H26B 1031   0.377   6.784   4.815  0.1502 -0.5176  1.5679
   14CHL1  H26C 1032   0.556   6.814   4.778  1.1847  0.2225  1.6667
   14CHL1   C27 1033   0.473   7.059   4.820 -0.2892 -0.0237 -0.7605
   14CHL1  H27A 1034   0.373   7.065   4.772 -0.8514  2.7668  0.5714
   14CHL1  H27B 1035   0.476   7.152   4.880 -0.1196 -0.0130 -0.7875
   14CHL1  H27C 1036   0.546   7.065   4.737  0.6872  2.2036  0.1920
   15CHL1    C3 1037   0.871   6.227   6.415  0.4066  0.6663  0.7020
   15CHL1    H3 1038   0.851   6.128   6.369  1.3721 -0.1333  1.9522
   15CHL1    O3 1039   0.874   6.194   6.552 -0.1915  0.4743 -0.4812
   15CHL1   H3' 1040   0.896   6.281   6.588 -0.2740  0.8539 -1.3282
   15CHL1    C4 1041   1.004   6.273   6.367 -0.2605 -0.0688  0.1944
   15CHL1   H4A 1042   1.027   6.360   6.433 -0.5259  0.3314 -0.2330
   15CHL1   H4B 1043   1.073   6.190   6.390  0.0708  0.2876  0.4905
   15CHL1    C5 1044   0.999   6.296   6.216  0.4516  0.5749 -0.4235
   15CHL1    C6 1045   1.076   6.237   6.129  0.5063 -0.0526  0.2753
   15CHL1    H6 1046   1.150   6.164   6.167  1.2712  0.3244 -0.4559
   15CHL1    C7 1047   1.072   6.273   5.988 -0.0002 -0.0275  0.4313
   15CHL1   H7A 1048   1.179   6.292   5.964  0.6330 -1.9473  1.4665
   15CHL1   H7B 1049   1.030   6.185   5.935 -0.5691  1.0036 -0.8764
   15CHL1    C8 1050   0.993   6.404   5.955 -0.4844 -0.4244  0.1124
   15CHL1    H8 1051   1.051   6.491   5.993 -0.3864  0.2782 -1.5795
   15CHL1   C14 1052   0.972   6.420   5.807  0.5668 -0.2745 -0.7650
   15CHL1   H14 1053   0.896   6.342   5.787 -1.5580  2.0853 -2.6016
   15CHL1   C15 1054   1.085   6.396   5.712  0.3008 -0.8417  0.2061
   15CHL1  H15A 1055   1.184   6.426   5.754  0.6616 -0.5409 -0.8385
   15CHL1  H15B 1056   1.084   6.286   5.692  1.7411 -0.8043 -0.2003
   15CHL1   C16 1057   1.054   6.469   5.583 -0.1293  0.2445  0.3746
   15CHL1  H16A 1058   1.119   6.555   5.559 -0.1456  0.7985  2.1634
   15CHL1  H16B 1059   1.049   6.400   5.496 -2.0734 -2.1548  2.2373
   15CHL1   C17 1060   0.914   6.530   5.608 -0.3783 -0.1808  0.0187
   15CHL1   H17 1061   0.846   6.449   5.574  1.2800 -0.4587 -2.9865
   15CHL1   C13 1062   0.904   6.544   5.763 -0.1735  0.5228  0.6109
   15CHL1   C18 1063   0.996   6.657   5.805 -0.1444 -0.4374  0.6585
   15CHL1  H18A 1064   1.101   6.621   5.792 -0.4136 -1.2263  0.5876
   15CHL1  H18B 1065   0.983   6.754   5.753  0.6158 -0.4314  0.4638
   15CHL1  H18C 1066   0.994   6.673   5.915  1.4007 -0.9240  0.7879
   15CHL1   C12 1067   0.765   6.532   5.825 -0.5405  0.3697 -0.2906
   15CHL1  H12A 1068   0.722   6.634   5.821  1.7264  1.5476  2.1255
   15CHL1  H12B 1069   0.710   6.455   5.765 -0.8667  0.1154  0.3275
   15CHL1   C11 1070   0.767   6.507   5.979  0.5082 -0.3840 -0.2962
   15CHL1  H11A 1071   0.805   6.601   6.023  0.3924 -0.6057  0.2768
   15CHL1  H11B 1072   0.664   6.488   6.016  0.9538  0.4297  1.4264
   15CHL1    C9 1073   0.864   6.395   6.027  0.4758 -0.0524 -0.3465
   15CHL1    H9 1074   0.819   6.297   6.003  3.1479 -1.4452 -0.1152
   15CHL1   C10 1075   0.889   6.398   6.177 -0.0405  0.5800 -0.2979
   15CHL1   C19 1076   0.917   6.538   6.233  0.2070 -0.5903  0.6499
   15CHL1  H19A 1077   0.993   6.590   6.171  0.0199  1.4936  2.0791
   15CHL1  H19B 1078   0.824   6.598   6.234 -0.9292 -2.2221 -1.2221
   15CHL1  H19C 1079   0.969   6.541   6.331  0.0102  0.8237  0.7312
   15CHL1    C1 1080   0.752   6.345   6.238 -0.3087  0.0554 -0.6763
   15CHL1   H1A 1081   0.678   6.428   6.226  0.4645  0.5844 -2.1142
   15CHL1   H1B 1082   0.715   6.256   6.182  0.2783 -1.1106  0.7382
   15CHL1    C2 1083   0.751   6.313   6.385  0.6599  0.0253 -0.5885
   15CHL1   H2A 1084   0.653   6.265   6.405  0.5714 -1.2242 -3.4396
   15CHL1   H2B 1085   0.758   6.399   6.455  1.3925 -1.0493  0.6993
   15CHL1   C20 1086   0.877   6.647   5.517 -0.1432  0.2865  0.1430
   15CHL1   H20 1087   0.957   6.724   5.527  0.7066 -0.6213  0.5082
   15CHL1   C21 1088   0.741   6.693   5.556  0.1780 -0.2158  0.7069
   15CHL1  H21A 1089   0.744   6.764   5.642 -0.2759  0.4692  0.1642
   15CHL1  H21B 1090   0.668   6.614   5.584 -1.0538  0.5886 -0.1217
   15CHL1  H21C 1091   0.695   6.747   5.471  0.8060 -1.4857 -0.4717
   15CHL1   C22 1092   0.895   6.614   5.361 -0.0072  0.4301 -1.2664
   15CHL1  H22A 1093   1.006   6.602   5.359  0.2082  1.9636 -0.0852
   15CHL1  H22B 1094   0.845   6.518   5.338  0.4765 -0.8374  2.4124
   15CHL1   C23 1095   0.849   6.717   5.257  0.0827 -0.4294 -0.0758
   15CHL1  H23A 1096   0.741   6.735   5.274  0.4286 -0.3882  2.4794
   15CHL1  H23B 1097   0.890   6.819   5.277  1.4593 -0.8843 -0.5050
   15CHL1   C24 1098   0.872   6.664   5.123  0.1167  0.5734 -0.0212
   15CHL1  H24A 1099   0.975   6.636   5.094 -0.3783 -1.1014 -0.2773
   15CHL1  H24B 1100   0.821   6.566   5.132  2.7961 -1.0401 -1.4109
   15CHL1   C25 1101   0.810   6.745   5.009 -0.5869  0.9975  0.5916
   15CHL1   H25 1102   0.701   6.752   5.028 -0.7078  1.1680 -0.1344
   15CHL1   C26 1103   0.877   6.887   4.997  0.1167  0.7773 -1.2498
   15CHL1  H26A 1104   0.987   6.879   5.011 -0.1228 -1.4159 -0.1805
   15CHL1  H26B 1105   0.848   6.936   4.901 -1.5758 -2.0962 -2.3163
   15CHL1  H26C 1106   0.840   6.947   5.083 -1.7999 -1.4929 -0.3859
   15CHL1   C27 1107   0.825   6.669   4.872 -0.1219  0.4721 -0.1646
   15CHL1  H27A 1108   0.805   6.562   4.890 -3.5736  0.5944 -2.2906
   15CHL1  H27B 1109   0.752   6.705   4.796 -0.7819 -1.9468 -0.7580
   15CHL1  H27C 1110   0.928   6.687   4.835 -0.5190  3.0914 -0.1918
   16CHL1    C3 1111   6.566   1.663   6.639 -0.2681  0.7647 -0.3203
   16CHL1    H3 1112   6.460   1.632   6.622  0.2911 -1.6834  0.2958
   16CHL1    O3 1113   6.603   1.643   6.779  0.3152  0.3293  0.4172
   16CHL1   H3' 1114   6.691   1.682   6.789  0.1799  0.2626  2.0959
   16CHL1    C4 1115   6.658   1.573   6.553 -0.4865  0.2372 -0.0164
   16CHL1   H4A 1116   6.762   1.610   6.569 -0.4926 -0.5560  2.3581
   16CHL1   H4B 1117   6.663   1.472   6.598  2.0327  0.6572  0.8084
   16CHL1    C5 1118   6.623   1.587   6.403  0.3219  0.0428  0.4513
   16CHL1    C6 1119   6.596   1.482   6.319  0.3596  0.5867 -0.1508
   16CHL1    H6 1120   6.586   1.380   6.357  0.9178  0.4487 -0.3735
   16CHL1    C7 1121   6.579   1.495   6.168  0.1576  0.1899  0.2890
   16CHL1   H7A 1122   6.636   1.419   6.111 -2.1845 -0.9103 -0.6608
   16CHL1   H7B 1123   6.473   1.465   6.155 -0.2138  0.4570  2.3194
   16CHL1    C8 1124   6.622   1.634   6.111 -0.8827 -0.3135 -0.3471
   16CHL1    H8 1125   6.732   1.625   6.109 -0.9329 -1.0835 -0.0960
   16CHL1   C14 1126   6.583   1.664   5.969  0.2942  0.5669 -0.1658
   16CHL1   H14 1127   6.472   1.662   5.979  0.1315  0.5131 -1.7368
   16CHL1   C15 1128   6.625   1.556   5.864 -0.6444  0.0446  0.2044
   16CHL1  H15A 1129   6.735   1.541   5.861 -0.6478  0.0936 -2.3152
   16CHL1  H15B 1130   6.580   1.458   5.888 -1.3067 -0.1708 -1.8020
   16CHL1   C16 1131   6.573   1.617   5.740 -0.0339  0.1841  0.9724
   16CHL1  H16A 1132   6.636   1.591   5.652 -3.9407 -1.5878 -1.6218
   16CHL1  H16B 1133   6.478   1.572   5.703 -0.0536 -1.5348  2.9015
   16CHL1   C17 1134   6.562   1.771   5.765  0.1847  0.2258 -0.2369
   16CHL1   H17 1135   6.453   1.789   5.780  0.2296 -0.1168  0.5901
   16CHL1   C13 1136   6.625   1.799   5.908  0.2557 -0.5323  0.6441
   16CHL1   C18 1137   6.780   1.811   5.892 -0.3328  0.0126 -0.6429
   16CHL1  H18A 1138   6.822   1.723   5.839  0.3197 -0.9090  1.3107
   16CHL1  H18B 1139   6.819   1.894   5.830 -0.2080 -0.3016 -0.9894
   16CHL1  H18C 1140   6.832   1.797   5.989 -0.2475 -1.5358 -0.8803
   16CHL1   C12 1141   6.549   1.903   5.991  0.0508  0.0327 -0.1391
   16CHL1  H12A 1142   6.584   2.006   5.969  1.3570  0.4046  3.1534
   16CHL1  H12B 1143   6.438   1.911   5.980 -0.1132 -0.6641  0.9071
   16CHL1   C11 1144   6.599   1.893   6.138  0.6010 -0.2288  0.4243
   16CHL1  H11A 1145   6.709   1.910   6.140  0.6238 -0.2915 -0.1403
   16CHL1  H11B 1146   6.542   1.978   6.183 -0.1580 -1.1215  1.2009
   16CHL1    C9 1147   6.571   1.749   6.199 -0.0072  0.1787 -0.0124
   16CHL1    H9 1148   6.462   1.729   6.212  0.2057 -0.9300  0.1289
   16CHL1   C10 1149   6.627   1.734   6.349  0.4553 -0.0102 -0.0714
   16CHL1   C19 1150   6.772   1.791   6.347 -0.0579  0.5604 -0.0993
   16CHL1  H19A 1151   6.784   1.898   6.322  0.3713  0.3098 -0.9958
   16CHL1  H19B 1152   6.818   1.770   6.446 -1.4556 -1.2194  0.2445
   16CHL1  H19C 1153   6.830   1.727   6.277  0.9803  2.9721 -1.5683
   16CHL1    C1 1154   6.543   1.824   6.450  0.2734 -0.0115 -0.3483
   16CHL1   H1A 1155   6.565   1.929   6.420 -0.2564  0.5625  1.2002
   16CHL1   H1B 1156   6.432   1.816   6.450 -0.0273  1.1795  4.4853
   16CHL1    C2 1157   6.579   1.809   6.600  0.7096  0.2470 -0.2330
   16CHL1   H2A 1158   6.508   1.869   6.661 -0.6225 -2.2349  0.8386
   16CHL1   H2B 1159   6.677   1.855   6.624  0.2870  0.0655  2.1249
   16CHL1   C20 1160   6.606   1.853   5.649  0.7395 -0.1299  0.0530
   16CHL1   H20 1161   6.714   1.832   5.638  0.6425  0.1354 -1.6862
   16CHL1   C21 1162   6.578   2.001   5.670 -1.2601 -0.9053  0.5087
   16CHL1  H21A 1163   6.627   2.029   5.765 -3.0862 -0.8241  1.4714
   16CHL1  H21B 1164   6.469   2.023   5.672 -1.1792 -0.5554  1.6570
   16CHL1  H21C 1165   6.634   2.055   5.590 -1.9107 -1.2557 -0.2010
   16CHL1   C22 1166   6.546   1.800   5.507 -0.1565  0.3637 -0.0102
   16CHL1  H22A 1167   6.580   1.869   5.428  1.6366  1.3313  1.5360
   16CHL1  H22B 1168   6.602   1.707   5.484  1.8652  0.9937  1.9727
   16CHL1   C23 1169   6.394   1.776   5.499 -0.1819 -0.5892 -0.3361
   16CHL1  H23A 1170   6.377   1.701   5.580  0.8213  1.4369  1.8971
   16CHL1  H23B 1171   6.344   1.872   5.525 -0.9643 -0.4675 -2.1747
   16CHL1   C24 1172   6.348   1.723   5.362  0.1636 -0.7469  0.4493
   16CHL1  H24A 1173   6.356   1.799   5.282 -0.2889  1.7025  2.6143
   16CHL1  H24B 1174   6.403   1.630   5.335  0.4041 -0.9076  1.4528
   16CHL1   C25 1175   6.195   1.677   5.370  0.3443 -0.5384 -0.2669
   16CHL1   H25 1176   6.195   1.607   5.457 -2.3042  1.0123  1.0788
   16CHL1   C26 1177   6.100   1.791   5.413  0.0758  0.5592  0.3716
   16CHL1  H26A 1178   5.995   1.765   5.385  0.1243  1.2296 -0.4683
   16CHL1  H26B 1179   6.121   1.814   5.520  0.2693 -0.3622  0.5371
   16CHL1  H26C 1180   6.123   1.874   5.344  0.4922  0.0991 -0.0479
   16CHL1   C27 1181   6.149   1.607   5.245  0.4187 -0.3240  0.3982
   16CHL1  H27A 1182   6.222   1.532   5.207  0.5511 -1.1290  2.1578
   16CHL1  H27B 1183   6.046   1.568   5.255 -0.3462  1.4637 -0.2697
   16CHL1  H27C 1184   6.142   1.671   5.155 -2.2279 -0.7746  0.2023
   17CHL1    C3 1185   1.434   4.124   6.826 -0.3528 -0.2796  0.2033
   17CHL1    H3 1186   1.327   4.124   6.794 -0.5276 -0.7655  0.7583
   17CHL1    O3 1187   1.445   4.084   6.961 -0.3594  0.0101  0.4310
   17CHL1   H3' 1188   1.365   4.118   7.001 -1.4803 -1.4359 -0.4636
   17CHL1    C4 1189   1.517   4.032   6.730  0.0889  0.0015 -0.7440
   17CHL1   H4A 1190   1.621   4.029   6.771 -0.1332 -1.3619 -0.2090
   17CHL1   H4B 1191   1.479   3.928   6.730 -0.7641  0.2709  1.2592
   17CHL1    C5 1192   1.509   4.091   6.593  0.1607 -0.1029 -0.4425
   17CHL1    C6 1193   1.467   4.017   6.489 -0.0576 -0.3409  1.0846
   17CHL1    H6 1194   1.441   3.911   6.505  0.4388 -0.7142 -0.3936
   17CHL1    C7 1195   1.465   4.056   6.340 -0.2842 -0.6324 -0.0069
   17CHL1   H7A 1196   1.498   3.975   6.271  0.7313 -0.2682  0.0430
   17CHL1   H7B 1197   1.357   4.070   6.317 -0.5115  0.2733  1.4822
   17CHL1    C8 1198   1.539   4.195   6.316 -0.1596  0.4308 -0.3898
   17CHL1    H8 1199   1.645   4.163   6.309 -0.5506 -0.7497 -1.1916
   17CHL1   C14 1200   1.496   4.261   6.188  0.2675 -0.1202 -0.1071
   17CHL1   H14 1201   1.393   4.299   6.201  0.7525  0.9257  0.8702
   17CHL1   C15 1202   1.489   4.178   6.063  0.4933 -0.0644 -0.0461
   17CHL1  H15A 1203   1.573   4.105   6.066  1.3780  0.8873 -1.0517
   17CHL1  H15B 1204   1.397   4.115   6.062  0.9062 -0.6821 -0.0450
   17CHL1   C16 1205   1.517   4.272   5.943  0.0361  0.2577 -0.4800
   17CHL1  H16A 1206   1.617   4.250   5.899  0.4163  0.7502  0.1171
   17CHL1  H16B 1207   1.438   4.270   5.865  1.6332 -2.5084 -2.2127
   17CHL1   C17 1208   1.534   4.414   6.004 -0.4129  0.2390  0.0448
   17CHL1   H17 1209   1.430   4.454   6.002 -0.4514  0.1945 -2.3268
   17CHL1   C13 1210   1.566   4.393   6.154 -0.8035  0.6808 -0.1922
   17CHL1   C18 1211   1.721   4.360   6.156  1.5101  0.6249 -0.0239
   17CHL1  H18A 1212   1.746   4.304   6.063 -2.3320 -1.9735  0.2156
   17CHL1  H18B 1213   1.780   4.452   6.168  2.1201  0.5083 -1.8312
   17CHL1  H18C 1214   1.759   4.301   6.242 -1.0809  0.2722  1.0020
   17CHL1   C12 1215   1.514   4.495   6.266 -0.4722 -0.0484 -1.1274
   17CHL1  H12A 1216   1.570   4.591   6.265 -0.9235  0.2610  0.6244
   17CHL1  H12B 1217   1.407   4.515   6.242 -1.8066 -1.4615  2.7940
   17CHL1   C11 1218   1.532   4.437   6.408  0.1538  0.1276 -0.1113
   17CHL1  H11A 1219   1.642   4.453   6.414  0.6868 -2.1675 -2.0313
   17CHL1  H11B 1220   1.488   4.504   6.485  1.1594 -0.2749  0.8284
   17CHL1    C9 1221   1.496   4.291   6.433  0.0104  0.2177  0.1899
   17CHL1    H9 1222   1.386   4.278   6.424  0.0593  0.5506 -1.1175
   17CHL1   C10 1223   1.541   4.232   6.576 -0.0086 -0.2052 -0.5021
   17CHL1   C19 1224   1.689   4.263   6.593 -1.2302  0.0312  0.2169
   17CHL1  H19A 1225   1.721   4.367   6.612  1.2202 -0.3452 -1.4214
   17CHL1  H19B 1226   1.734   4.202   6.674  3.1464  2.8076  0.1691
   17CHL1  H19C 1227   1.736   4.235   6.496 -2.0689  2.2908 -0.9387
   17CHL1    C1 1228   1.460   4.318   6.678 -0.4997 -0.0130  0.1441
   17CHL1   H1A 1229   1.485   4.426   6.676 -3.0388  0.7748  3.4984
   17CHL1   H1B 1230   1.353   4.309   6.648 -0.4904 -1.2654  0.4275
   17CHL1    C2 1231   1.469   4.268   6.822 -0.0496 -0.4878  0.0302
   17CHL1   H2A 1232   1.401   4.329   6.887  1.6698  4.7805 -2.5376
   17CHL1   H2B 1233   1.569   4.289   6.866 -0.4433  2.2917 -0.2190
   17CHL1   C20 1234   1.619   4.511   5.922  0.0774  0.4406 -0.5197
   17CHL1   H20 1235   1.714   4.461   5.894 -0.1851 -0.9449  0.9395
   17CHL1   C21 1236   1.632   4.641   5.997 -0.4716  0.2148  0.1644
   17CHL1  H21A 1237   1.688   4.644   6.093  0.0282  0.8744 -0.1425
   17CHL1  H21B 1238   1.534   4.689   6.018 -1.0498 -0.3007 -1.2098
   17CHL1  H21C 1239   1.692   4.708   5.932  2.3832 -0.9494  1.4437
   17CHL1   C22 1240   1.560   4.533   5.781  0.4420 -0.1728  0.2435
   17CHL1  H22A 1241   1.563   4.447   5.712  1.5101 -0.3525  0.5006
   17CHL1  H22B 1242   1.452   4.557   5.791  0.3915 -0.3400  0.1004
   17CHL1   C23 1243   1.621   4.650   5.704 -0.0492  0.5414 -0.1102
   17CHL1  H23A 1244   1.623   4.753   5.748 -1.3500 -0.2651  2.0161
   17CHL1  H23B 1245   1.727   4.626   5.684 -0.4242 -2.3533  0.9224
   17CHL1   C24 1246   1.564   4.655   5.559 -0.2033  0.5407 -0.5154
   17CHL1  H24A 1247   1.565   4.555   5.510 -2.1225  2.1837 -4.3488
   17CHL1  H24B 1248   1.459   4.692   5.565  0.2200  1.4710  2.2413
   17CHL1   C25 1249   1.637   4.751   5.470 -0.8866 -0.2802 -0.0018
   17CHL1   H25 1250   1.747   4.758   5.481 -0.9475 -0.4342  0.7848
   17CHL1   C26 1251   1.613   4.718   5.323  0.4538 -0.0349  0.0046
   17CHL1  H26A 1252   1.661   4.792   5.256 -1.1702  0.3732 -0.7478
   17CHL1  H26B 1253   1.664   4.620   5.312  2.0937  0.5197  2.0488
   17CHL1  H26C 1254   1.507   4.712   5.289  0.8664 -0.4761 -1.2483
   17CHL1   C27 1255   1.604   4.896   5.506  0.3977  0.1089 -0.1926
   17CHL1  H27A 1256   1.499   4.915   5.474 -0.6878 -1.4364  2.1371
   17CHL1  H27B 1257   1.618   4.922   5.614  0.9299  2.1335 -0.7047
   17CHL1  H27C 1258   1.672   4.961   5.448 -0.5319  0.7351 -0.6079
   18CHL1    C3 1259   2.304   1.099   6.440  0.0547 -0.6121  0.0836
   18CHL1    H3 1260   2.212   1.041   6.416  1.0553 -1.8923 -0.8165
   18CHL1    O3 1261   2.348   1.079   6.575 -0.2506  0.1254  0.6434
   18CHL1   H3' 1262   2.435   1.120   6.574  0.8587 -2.0490  0.8883
   18CHL1    C4 1263   2.417   1.041   6.353 -0.1179 -0.2206 -0.5428
   18CHL1   H4A 1264   2.519   1.080   6.377  0.3343  1.2504 -4.1764
   18CHL1   H4B 1265   2.402   0.933   6.374 -1.1587  0.3677  2.0639
   18CHL1    C5 1266   2.396   1.074   6.209  0.2377 -0.2870  0.4609
   18CHL1    C6 1267   2.408   0.983   6.109 -0.2436 -0.0510 -0.3302
   18CHL1    H6 1268   2.443   0.882   6.134  0.0343 -0.2904 -1.6328
   18CHL1    C7 1269   2.388   0.998   5.963  0.5718 -0.9523  0.0814
   18CHL1   H7A 1270   2.482   0.965   5.914  0.1181 -3.2515  0.6561
   18CHL1   H7B 1271   2.311   0.928   5.926  2.2759 -2.8426 -0.0816
   18CHL1    C8 1272   2.367   1.149   5.914 -0.8173 -0.1141 -0.5972
   18CHL1    H8 1273   2.465   1.200   5.910 -1.0948  0.4794  0.0691
   18CHL1   C14 1274   2.290   1.158   5.786  0.2130 -0.2357 -0.1307
   18CHL1   H14 1275   2.189   1.119   5.813  1.3041 -2.7396  0.5687
   18CHL1   C15 1276   2.337   1.075   5.668 -0.1157  0.7167  0.4630
   18CHL1  H15A 1277   2.448   1.079   5.666  0.1410 -3.0188  0.3692
   18CHL1  H15B 1278   2.309   0.970   5.695  1.0134  0.5968  1.2568
   18CHL1   C16 1279   2.262   1.127   5.546 -0.1379 -0.4032  0.2159
   18CHL1  H16A 1280   2.331   1.151   5.462 -3.1268  1.8357 -1.8064
   18CHL1  H16B 1281   2.180   1.061   5.513 -0.2595 -0.5564  0.8096
   18CHL1   C17 1282   2.189   1.261   5.594 -0.5236 -0.1131  0.0965
   18CHL1   H17 1283   2.088   1.225   5.625 -1.8564  1.5356 -2.0633
   18CHL1   C13 1284   2.260   1.299   5.726  0.0864  0.4048 -0.4805
   18CHL1   C18 1285   2.392   1.371   5.693 -0.0250 -0.1278 -0.6551
   18CHL1  H18A 1286   2.481   1.369   5.760 -1.9957 -2.1051  2.1429
   18CHL1  H18B 1287   2.432   1.337   5.595  0.8803  0.9566 -0.6843
   18CHL1  H18C 1288   2.380   1.481   5.695  1.8232  0.1149 -0.6217
   18CHL1   C12 1289   2.176   1.375   5.833 -0.7700 -0.2160 -0.0977
   18CHL1  H12A 1290   2.156   1.482   5.809  0.6166  0.7460  2.6104
   18CHL1  H12B 1291   2.078   1.323   5.838  0.1821 -2.1677 -1.0120
   18CHL1   C11 1292   2.251   1.368   5.975 -0.8500 -0.1255 -0.2166
   18CHL1  H11A 1293   2.344   1.429   5.973 -1.8481  1.4295 -1.3229
   18CHL1  H11B 1294   2.179   1.406   6.050 -1.2537 -1.7849  0.2793
   18CHL1    C9 1295   2.293   1.225   6.023 -0.2337 -0.6982 -0.5569
   18CHL1    H9 1296   2.191   1.182   6.029 -0.2861 -0.5993 -0.7106
   18CHL1   C10 1297   2.351   1.220   6.168 -0.0633 -0.1408  0.1399
   18CHL1   C19 1298   2.489   1.294   6.166  0.4329  0.3348  0.0043
   18CHL1  H19A 1299   2.544   1.272   6.261  1.1032 -0.3127 -0.5175
   18CHL1  H19B 1300   2.553   1.270   6.079  0.8396  0.6074  0.2231
   18CHL1  H19C 1301   2.463   1.402   6.165 -1.3189 -0.0547 -0.2554
   18CHL1    C1 1302   2.253   1.272   6.276 -0.2702  0.3667 -0.6184
   18CHL1   H1A 1303   2.250   1.383   6.274  1.6188  0.5694  2.2852
   18CHL1   H1B 1304   2.156   1.218   6.267 -0.8714  1.4095 -0.4811
   18CHL1    C2 1305   2.297   1.248   6.421  0.3599 -0.1630 -0.8509
   18CHL1   H2A 1306   2.212   1.288   6.479  0.4787  0.1413 -0.8875
   18CHL1   H2B 1307   2.389   1.301   6.453  0.1950 -0.5058  0.2062
   18CHL1   C20 1308   2.157   1.367   5.488 -0.3267  0.1157 -0.6304
   18CHL1   H20 1309   2.222   1.456   5.498 -2.0128  1.5415 -1.7880
   18CHL1   C21 1310   2.016   1.413   5.517 -0.6672  0.5512  0.0137
   18CHL1  H21A 1311   1.943   1.334   5.490  0.5412 -0.6976  0.2830
   18CHL1  H21B 1312   1.987   1.508   5.466  0.2668  0.3546 -0.9313
   18CHL1  H21C 1313   2.005   1.441   5.624 -0.3899  0.7327 -0.0048
   18CHL1   C22 1314   2.160   1.330   5.335  0.9134  0.4659  0.2537
   18CHL1  H22A 1315   2.254   1.274   5.316  0.5008 -0.0315 -0.4222
   18CHL1  H22B 1316   2.070   1.266   5.321  0.4786  1.0475  0.3515
   18CHL1   C23 1317   2.162   1.460   5.246  0.3105 -0.1732 -0.2748
   18CHL1  H23A 1318   2.064   1.511   5.253  1.3687  1.7840  1.1445
   18CHL1  H23B 1319   2.244   1.523   5.287  0.4724 -1.5147  1.5707
   18CHL1   C24 1320   2.204   1.422   5.103  0.7399 -0.1521 -0.3524
   18CHL1  H24A 1321   2.212   1.517   5.045 -1.6072 -0.2123 -0.8892
   18CHL1  H24B 1322   2.304   1.375   5.089  0.4857 -0.2303 -2.1299
   18CHL1   C25 1323   2.095   1.345   5.022  0.6083  0.3041  0.1323
   18CHL1   H25 1324   2.078   1.248   5.073  2.8893 -0.7809 -0.9842
   18CHL1   C26 1325   1.963   1.419   5.009  0.1664 -0.1155 -0.9596
   18CHL1  H26A 1326   1.971   1.514   4.952 -2.0707  0.1350 -0.9266
   18CHL1  H26B 1327   1.893   1.340   4.975  0.0284 -0.5785  0.3489
   18CHL1  H26C 1328   1.919   1.450   5.106  1.2778 -0.6425 -0.2676
   18CHL1   C27 1329   2.150   1.316   4.881 -0.0351  0.1854 -0.3164
   18CHL1  H27A 1330   2.260   1.306   4.889 -0.2961 -1.9260  2.4479
   18CHL1  H27B 1331   2.100   1.232   4.828 -2.7049  0.8625  0.9527
   18CHL1  H27C 1332   2.126   1.398   4.811 -0.2615 -1.1007 -1.8109
   19CHL1    C3 1333   1.219   0.844   6.684 -0.4824  0.0316  0.7886
   19CHL1    H3 1334   1.142   0.824   6.607  0.0750  0.2115  0.1680
   19CHL1    O3 1335   1.157   0.845   6.809 -0.0124 -0.1997 -0.3034
   19CHL1   H3' 1336   1.131   0.934   6.832 -2.5448 -0.5365 -1.4774
   19CHL1    C4 1337   1.327   0.735   6.674  0.1677  0.4245 -0.8724
   19CHL1   H4A 1338   1.401   0.736   6.757  0.9104 -0.5129 -1.5115
   19CHL1   H4B 1339   1.269   0.644   6.699 -0.6731  1.6108  1.9333
   19CHL1    C5 1340   1.400   0.730   6.543  0.8557 -0.0497  1.4004
   19CHL1    C6 1341   1.402   0.621   6.460  0.0305  0.5032  0.1008
   19CHL1    H6 1342   1.361   0.525   6.493 -0.4928  0.5565 -0.3830
   19CHL1    C7 1343   1.479   0.616   6.330 -0.1896  0.5428 -0.3513
   19CHL1   H7A 1344   1.540   0.525   6.314  0.7523  0.1910  3.9573
   19CHL1   H7B 1345   1.407   0.622   6.245  0.2411 -1.1157 -0.8691
   19CHL1    C8 1346   1.579   0.734   6.315  0.0005  0.9801  0.8565
   19CHL1    H8 1347   1.667   0.722   6.381  1.1190  1.1768 -0.5577
   19CHL1   C14 1348   1.626   0.737   6.173  0.2847 -0.4357  0.0568
   19CHL1   H14 1349   1.533   0.746   6.113  0.8486  0.3314 -0.7338
   19CHL1   C15 1350   1.696   0.608   6.114 -0.4579  0.1129  0.0510
   19CHL1  H15A 1351   1.782   0.561   6.167  0.0555  1.0182  0.0455
   19CHL1  H15B 1352   1.618   0.530   6.099 -0.2461 -0.4639  1.7537
   19CHL1   C16 1353   1.758   0.653   5.980 -0.2225 -0.7929  0.7636
   19CHL1  H16A 1354   1.861   0.614   5.966  1.0084  2.2752  0.5423
   19CHL1  H16B 1355   1.685   0.627   5.899  0.5471  3.4289 -1.5365
   19CHL1   C17 1356   1.755   0.814   5.985  0.1814  0.5073 -0.1235
   19CHL1   H17 1357   1.663   0.840   5.927 -1.8248  1.4896  3.2165
   19CHL1   C13 1358   1.722   0.857   6.135  0.4703  0.0729  0.4319
   19CHL1   C18 1359   1.852   0.846   6.221 -0.3022 -0.5796 -0.7050
   19CHL1  H18A 1360   1.826   0.853   6.329  0.8207 -1.1476 -0.3856
   19CHL1  H18B 1361   1.914   0.754   6.212  2.6830  1.0329  1.5619
   19CHL1  H18C 1362   1.917   0.934   6.206 -0.6945 -0.2214 -0.3158
   19CHL1   C12 1363   1.653   0.993   6.165 -0.4493 -0.0389  0.4497
   19CHL1  H12A 1364   1.709   1.089   6.154 -1.6273  0.5242 -1.0008
   19CHL1  H12B 1365   1.577   1.007   6.084 -0.6759 -0.0432  0.6609
   19CHL1   C11 1366   1.593   0.994   6.307 -0.0637  0.2917  0.1974
   19CHL1  H11A 1367   1.676   1.020   6.376  0.0507 -0.7839  0.4849
   19CHL1  H11B 1368   1.523   1.080   6.316 -1.7840 -0.9872 -0.3766
   19CHL1    C9 1369   1.511   0.866   6.352  0.4658 -0.3234 -0.3502
   19CHL1    H9 1370   1.422   0.877   6.287 -0.5955  2.4428  1.3696
   19CHL1   C10 1371   1.459   0.864   6.503 -0.2451 -0.7402  0.2749
   19CHL1   C19 1372   1.581   0.883   6.590 -0.5996 -0.1920 -0.8050
   19CHL1  H19A 1373   1.552   0.895   6.696 -1.1558  1.0838 -1.0828
   19CHL1  H19B 1374   1.656   0.801   6.599  0.1714  0.7239  2.1394
   19CHL1  H19C 1375   1.639   0.977   6.581 -0.1458  0.2103  4.0155
   19CHL1    C1 1376   1.355   0.984   6.519  0.2392  1.0290  0.0326
   19CHL1   H1A 1377   1.387   1.089   6.502 -1.1903  1.3248 -1.0520
   19CHL1   H1B 1378   1.283   0.955   6.439 -0.2345 -0.5001  0.9485
   19CHL1    C2 1379   1.288   0.974   6.659 -0.1595 -0.0998  0.3327
   19CHL1   H2A 1380   1.226   1.061   6.688 -0.6278  0.1833 -1.3916
   19CHL1   H2B 1381   1.366   0.979   6.737  1.4012  0.8915 -1.2105
   19CHL1   C20 1382   1.884   0.871   5.911 -0.3079  0.0632  0.0214
   19CHL1   H20 1383   1.976   0.830   5.958  0.2860  0.6342 -0.6068
   19CHL1   C21 1384   1.877   1.022   5.929 -0.2869  0.1797  0.1148
   19CHL1  H21A 1385   1.887   1.058   6.034  1.8994  0.2871 -0.0825
   19CHL1  H21B 1386   1.784   1.064   5.886 -0.2769 -1.5563 -1.7417
   19CHL1  H21C 1387   1.967   1.071   5.885 -0.2839 -0.4219 -0.5659
   19CHL1   C22 1388   1.901   0.821   5.761  0.6486  0.4630 -0.3796
   19CHL1  H22A 1389   1.915   0.711   5.764 -3.2783 -0.1671  1.5838
   19CHL1  H22B 1390   1.800   0.839   5.718  1.5273  3.2033 -1.4834
   19CHL1   C23 1391   2.007   0.887   5.679  0.2294  0.3391  0.5070
   19CHL1  H23A 1392   1.980   0.994   5.666 -2.6882 -0.2857  0.7372
   19CHL1  H23B 1393   2.106   0.871   5.727  0.6230 -0.1170 -0.4252
   19CHL1   C24 1394   2.004   0.820   5.541 -0.1916 -0.1399  0.3805
   19CHL1  H24A 1395   2.087   0.857   5.477 -0.2053  0.8043  0.8947
   19CHL1  H24B 1396   2.014   0.710   5.552  0.1179 -0.1943 -0.3247
   19CHL1   C25 1397   1.869   0.830   5.465 -0.1899 -0.0542 -0.5629
   19CHL1   H25 1398   1.791   0.782   5.529 -0.0542 -0.6701 -0.8504
   19CHL1   C26 1399   1.825   0.972   5.421  0.0179 -0.6901 -0.2533
   19CHL1  H26A 1400   1.903   1.029   5.365  0.2585 -2.1942 -1.5377
   19CHL1  H26B 1401   1.734   0.980   5.358 -1.4525 -1.9316  1.6043
   19CHL1  H26C 1402   1.809   1.036   5.510  1.8945 -0.5360  0.0188
   19CHL1   C27 1403   1.871   0.746   5.330  0.0631 -1.0177 -0.5902
   19CHL1  H27A 1404   1.946   0.786   5.258  0.1381 -0.2208 -0.0838
   19CHL1  H27B 1405   1.901   0.639   5.339 -3.9733 -2.4090 -1.4546
   19CHL1  H27C 1406   1.770   0.748   5.283 -0.9842  0.1860  1.5819
   20CHL1    C3 1407   0.867   0.206   6.722 -0.0473  0.2191 -0.1515
   20CHL1    H3 1408   0.978   0.206   6.710  0.0069  2.4300 -0.1833
   20CHL1    O3 1409   0.856   0.142   6.848  0.4226  0.1643 -0.0359
   20CHL1   H3' 1410   0.767   0.105   6.854  0.0646  0.8910 -0.6719
   20CHL1    C4 1411   0.815   0.347   6.729 -0.3517 -0.0842 -0.3589
   20CHL1   H4A 1412   0.706   0.346   6.748 -0.3056  0.4442 -0.0284
   20CHL1   H4B 1413   0.862   0.413   6.806 -0.2248 -0.0843 -0.4349
   20CHL1    C5 1414   0.832   0.423   6.592 -0.3272  0.1053 -0.3111
   20CHL1    C6 1415   0.913   0.534   6.570 -0.0410  1.0005  0.1142
   20CHL1    H6 1416   0.968   0.584   6.651  1.0879  0.1790 -0.1217
   20CHL1    C7 1417   0.923   0.599   6.435 -0.0680  0.3297  0.6930
   20CHL1   H7A 1418   0.917   0.710   6.449 -2.6744  0.5837 -1.5932
   20CHL1   H7B 1419   1.016   0.563   6.388 -2.6029 -1.2875 -3.6552
   20CHL1    C8 1420   0.814   0.551   6.330 -0.6461 -0.3901 -0.6213
   20CHL1    H8 1421   0.721   0.606   6.358  0.3733  1.0922 -0.0049
   20CHL1   C14 1422   0.857   0.586   6.186  0.4198  0.0664 -0.3389
   20CHL1   H14 1423   0.949   0.527   6.167  0.3181  0.6247 -2.8361
   20CHL1   C15 1424   0.908   0.728   6.162  0.1136 -0.2834  0.2610
   20CHL1  H15A 1425   0.834   0.805   6.192  1.0187  0.5786  0.3210
   20CHL1  H15B 1426   1.005   0.734   6.215  1.4839  0.2934 -2.1853
   20CHL1   C16 1427   0.917   0.739   6.007 -0.8747  0.1251  0.3819
   20CHL1  H16A 1428   0.856   0.825   5.974 -0.5591  0.0296 -0.4784
   20CHL1  H16B 1429   1.024   0.736   5.978 -0.4459  1.4840  1.7245
   20CHL1   C17 1430   0.852   0.603   5.956 -0.2318 -0.5502  0.0587
   20CHL1   H17 1431   0.940   0.538   5.935 -0.0104  0.3007 -1.8323
   20CHL1   C13 1432   0.769   0.545   6.063  0.1034  0.0199 -0.3673
   20CHL1   C18 1433   0.633   0.624   6.066  0.2179 -0.2768 -0.5488
   20CHL1  H18A 1434   0.644   0.728   6.028  0.0166 -0.1124 -0.1630
   20CHL1  H18B 1435   0.562   0.577   5.995 -0.4602  0.2720 -0.2495
   20CHL1  H18C 1436   0.588   0.617   6.168 -1.1835  0.1758 -1.1100
   20CHL1   C12 1437   0.756   0.392   6.077  0.0228 -0.7014  0.4271
   20CHL1  H12A 1438   0.674   0.360   6.009 -1.8986  0.7127  1.9604
   20CHL1  H12B 1439   0.851   0.344   6.047  0.2632 -0.0687  0.1415
   20CHL1   C11 1440   0.708   0.356   6.223  0.2280  0.5360 -0.6852
   20CHL1  H11A 1441   0.604   0.393   6.235  0.0886  0.1429 -0.6730
   20CHL1  H11B 1442   0.706   0.245   6.226  0.0486  0.5476 -0.2505
   20CHL1    C9 1443   0.795   0.403   6.345 -0.4132 -0.3760 -0.8104
   20CHL1    H9 1444   0.896   0.360   6.327 -0.3369 -1.7769  2.2900
   20CHL1   C10 1445   0.763   0.344   6.483 -0.5891 -1.0030  0.5294
   20CHL1   C19 1446   0.606   0.371   6.502 -0.3420  0.2491  0.1454
   20CHL1  H19A 1447   0.541   0.330   6.422  0.2711 -0.2179 -0.1252
   20CHL1  H19B 1448   0.571   0.318   6.593  1.8558 -0.3261  0.7167
   20CHL1  H19C 1449   0.591   0.481   6.503 -0.6670  0.2197 -0.6005
   20CHL1    C1 1450   0.796   0.193   6.483 -0.4659  0.1169 -0.1712
   20CHL1   H1A 1451   0.731   0.134   6.415 -0.8302 -0.5276  0.7108
   20CHL1   H1B 1452   0.899   0.175   6.446 -0.1206  1.0105  0.3220
   20CHL1    C2 1453   0.792   0.122   6.615 -0.0829 -0.0610 -0.6480
   20CHL1   H2A 1454   0.836   0.020   6.619  0.0008 -0.0257 -0.6642
   20CHL1   H2B 1455   0.685   0.116   6.644 -0.3816  2.3186 -1.0558
   20CHL1   C20 1456   0.787   0.627   5.819 -0.3076  0.4680  0.1645
   20CHL1   H20 1457   0.706   0.702   5.826 -1.0907 -0.4006  0.6220
   20CHL1   C21 1458   0.730   0.493   5.754 -0.3966 -1.1772 -0.1423
   20CHL1  H21A 1459   0.648   0.525   5.687  0.3672 -1.1367 -1.0795
   20CHL1  H21B 1460   0.673   0.429   5.825 -1.6864 -0.1184 -0.1896
   20CHL1  H21C 1461   0.803   0.444   5.687 -0.3107  0.1644 -1.0776
   20CHL1   C22 1462   0.890   0.688   5.715 -0.6484  0.0731  0.2842
   20CHL1  H22A 1463   0.903   0.788   5.761 -0.1414 -0.9538  2.4586
   20CHL1  H22B 1464   0.983   0.628   5.718 -0.1177  0.8640  0.0616
   20CHL1   C23 1465   0.841   0.698   5.563  0.0520 -0.2716  0.8764
   20CHL1  H23A 1466   0.930   0.730   5.504 -0.9763  0.9701 -0.0640
   20CHL1  H23B 1467   0.824   0.597   5.521 -0.0669  0.1392 -0.0981
   20CHL1   C24 1468   0.745   0.813   5.536 -0.1422 -0.7408  0.6239
   20CHL1  H24A 1469   0.657   0.811   5.603 -0.3064 -0.1398  0.4346
   20CHL1  H24B 1470   0.798   0.905   5.567 -1.8834  1.1584 -1.6579
   20CHL1   C25 1471   0.705   0.816   5.385 -0.4629  1.0252 -0.0015
   20CHL1   H25 1472   0.800   0.811   5.328 -1.2324  1.9834 -1.4524
   20CHL1   C26 1473   0.608   0.700   5.342 -0.0833 -0.6249  0.2256
   20CHL1  H26A 1474   0.517   0.704   5.406 -0.3058 -3.2570  0.2094
   20CHL1  H26B 1475   0.577   0.716   5.236  1.1318  1.2317  0.1045
   20CHL1  H26C 1476   0.664   0.604   5.349  1.2381  0.0301 -0.9219
   20CHL1   C27 1477   0.657   0.950   5.343  0.0946 -1.1444 -0.1989
   20CHL1  H27A 1478   0.563   0.972   5.398 -0.2879  2.8183 -2.1238
   20CHL1  H27B 1479   0.742   1.020   5.359 -0.1872 -0.8933  0.2050
   20CHL1  H27C 1480   0.628   0.959   5.236  0.4708 -1.8128 -0.3658
   21CHL1    C3 1481   5.518   3.820   6.729 -0.0968  0.8068  0.6026
   21CHL1    H3 1482   5.465   3.917   6.716 -3.1231 -0.5954  1.7714
   21CHL1    O3 1483   5.550   3.808   6.870 -0.4860  0.0369  0.4667
   21CHL1   H3' 1484   5.614   3.737   6.880 -0.7548 -0.1905  0.5544
   21CHL1    C4 1485   5.416   3.700   6.696  0.6583 -0.7770 -0.2752
   21CHL1   H4A 1486   5.467   3.608   6.731  2.0062  0.3254  0.7605
   21CHL1   H4B 1487   5.327   3.712   6.762  1.3659  0.6559  0.4507
   21CHL1    C5 1488   5.387   3.695   6.549  0.0380  0.1780  0.2704
   21CHL1    C6 1489   5.268   3.713   6.498 -0.0683  0.5407 -0.3533
   21CHL1    H6 1490   5.179   3.724   6.561 -1.5560  2.0767 -2.5885
   21CHL1    C7 1491   5.239   3.691   6.351  0.6133  0.1496 -0.0927
   21CHL1   H7A 1492   5.139   3.645   6.332  0.1216  1.0161  0.3258
   21CHL1   H7B 1493   5.238   3.793   6.307  3.1314  0.4342  0.3852
   21CHL1    C8 1494   5.352   3.622   6.271  0.4773  0.3619  0.4954
   21CHL1    H8 1495   5.347   3.515   6.301 -2.0649  0.1857 -0.3008
   21CHL1   C14 1496   5.319   3.640   6.118  0.2557  0.0529 -0.7034
   21CHL1   H14 1497   5.314   3.749   6.097  2.4059 -0.0923 -2.3414
   21CHL1   C15 1498   5.182   3.590   6.064  0.4181  0.3688 -1.0227
   21CHL1  H15A 1499   5.159   3.504   6.131 -1.3623  2.5085  1.3316
   21CHL1  H15B 1500   5.104   3.666   6.084 -0.3138 -0.7288  0.5626
   21CHL1   C16 1501   5.205   3.555   5.919 -0.2187  0.5016 -0.0977
   21CHL1  H16A 1502   5.188   3.447   5.900 -1.7954  0.3214  1.9471
   21CHL1  H16B 1503   5.144   3.621   5.853  0.7116  2.4795  0.9227
   21CHL1   C17 1504   5.355   3.593   5.892  0.1642  0.2028  0.2306
   21CHL1   H17 1505   5.351   3.703   5.879 -0.8205  0.2692  0.9558
   21CHL1   C13 1506   5.427   3.581   6.027 -0.2244  0.0678 -0.4536
   21CHL1   C18 1507   5.446   3.430   6.072 -0.5753 -0.8602  0.1626
   21CHL1  H18A 1508   5.477   3.422   6.179  1.7384  0.4381 -0.3522
   21CHL1  H18B 1509   5.345   3.386   6.059 -1.9349  2.5019 -1.9692
   21CHL1  H18C 1510   5.525   3.383   6.009 -0.0922 -1.1035  0.9190
   21CHL1   C12 1511   5.556   3.665   6.050  0.8978  0.5640  0.3595
   21CHL1  H12A 1512   5.634   3.621   5.983  0.1269 -1.8051  0.9005
   21CHL1  H12B 1513   5.539   3.772   6.026  1.5858  0.9876  1.6459
   21CHL1   C11 1514   5.598   3.648   6.204 -0.3724  0.0322  0.3627
   21CHL1  H11A 1515   5.640   3.545   6.200 -0.7891 -0.2174  1.9251
   21CHL1  H11B 1516   5.680   3.722   6.214 -0.0680 -0.1818 -0.4283
   21CHL1    C9 1517   5.486   3.687   6.306  0.0304  0.7574 -0.2244
   21CHL1    H9 1518   5.476   3.796   6.286  2.1119  1.4155  1.7519
   21CHL1   C10 1519   5.513   3.672   6.456 -0.3390 -0.4466 -0.3994
   21CHL1   C19 1520   5.565   3.529   6.486  0.5616 -0.6749  0.7253
   21CHL1  H19A 1521   5.493   3.456   6.444  0.5706  0.3560 -1.1847
   21CHL1  H19B 1522   5.661   3.508   6.433  1.2675 -0.2421  1.7824
   21CHL1  H19C 1523   5.579   3.513   6.595 -1.2609  2.6774  1.5856
   21CHL1    C1 1524   5.625   3.773   6.499 -0.2581  0.0909  0.1458
   21CHL1   H1A 1525   5.722   3.747   6.451 -0.9085  0.9056 -1.7294
   21CHL1   H1B 1526   5.600   3.874   6.460  1.3730  0.0380 -1.1464
   21CHL1    C2 1527   5.642   3.798   6.645 -0.0935  0.5498 -0.4986
   21CHL1   H2A 1528   5.720   3.876   6.660  2.0603 -1.3446 -1.2408
   21CHL1   H2B 1529   5.692   3.706   6.681  0.2293  1.0008  0.2294
   21CHL1   C20 1530   5.420   3.534   5.769  0.0276  0.1966 -0.1173
   21CHL1   H20 1531   5.529   3.550   5.784  0.4884 -0.3926 -2.4805
   21CHL1   C21 1532   5.376   3.617   5.645 -0.2554 -0.4360  0.1580
   21CHL1  H21A 1533   5.266   3.628   5.632 -0.0021  1.4111 -0.6470
   21CHL1  H21B 1534   5.400   3.563   5.550 -1.0467 -2.3419  0.9863
   21CHL1  H21C 1535   5.434   3.711   5.634  2.6110 -2.1371 -0.6393
   21CHL1   C22 1536   5.403   3.379   5.747  0.6086  0.1890 -0.5685
   21CHL1  H22A 1537   5.412   3.312   5.835 -0.5749 -0.2754 -0.7740
   21CHL1  H22B 1538   5.296   3.369   5.719  0.8984 -2.0581 -1.0317
   21CHL1   C23 1539   5.494   3.318   5.644 -0.0754  0.3197  0.3499
   21CHL1  H23A 1540   5.469   3.366   5.547 -0.0101 -1.1733 -0.4324
   21CHL1  H23B 1541   5.598   3.353   5.664  0.0542  0.5050 -0.6110
   21CHL1   C24 1542   5.477   3.166   5.651  0.0352  0.2217  0.3858
   21CHL1  H24A 1543   5.499   3.141   5.757 -0.8243 -1.3787  0.2206
   21CHL1  H24B 1544   5.373   3.138   5.623  0.2932 -0.2001 -0.2000
   21CHL1   C25 1545   5.571   3.075   5.570 -0.7173 -0.1262  0.4993
   21CHL1   H25 1546   5.582   3.118   5.468  3.8347  0.3734  0.9878
   21CHL1   C26 1547   5.710   3.074   5.628 -0.5427  0.3513  0.4709
   21CHL1  H26A 1548   5.712   3.068   5.739 -0.6380  0.4284  0.4769
   21CHL1  H26B 1549   5.777   2.997   5.584  1.5667  2.6549 -0.6417
   21CHL1  H26C 1550   5.772   3.160   5.592 -2.3597  1.3971 -0.3008
   21CHL1   C27 1551   5.504   2.934   5.565 -0.1906  0.2701 -0.2417
   21CHL1  H27A 1552   5.504   2.888   5.666 -1.3456  0.5647 -0.0935
   21CHL1  H27B 1553   5.400   2.923   5.529 -0.3677 -1.4219  0.6680
   21CHL1  H27C 1554   5.568   2.866   5.504  0.2060  0.6670 -0.2720
   22CHL1    C3 1555   6.100   6.289   6.452 -0.0905 -0.4008  0.1368
   22CHL1    H3 1556   6.038   6.198   6.438 -3.7295  1.7315  1.0777
   22CHL1    O3 1557   6.101   6.319   6.594 -0.1890  0.2907 -0.5354
   22CHL1   H3' 1558   6.187   6.356   6.610  0.5168 -1.7916  0.9787
   22CHL1    C4 1559   6.250   6.276   6.420 -0.5412 -0.0849 -0.5955
   22CHL1   H4A 1560   6.312   6.361   6.454 -1.3860  0.5661 -0.6480
   22CHL1   H4B 1561   6.296   6.203   6.490 -0.2915  0.2914 -0.3673
   22CHL1    C5 1562   6.276   6.243   6.276  0.5083 -0.2091 -0.0527
   22CHL1    C6 1563   6.342   6.135   6.231 -0.0761  0.0545 -0.3736
   22CHL1    H6 1564   6.379   6.075   6.315 -0.5155  2.2677  1.4897
   22CHL1    C7 1565   6.369   6.100   6.083 -0.5308  0.0183  0.3184
   22CHL1   H7A 1566   6.465   6.048   6.064 -1.8487 -1.8563 -1.6929
   22CHL1   H7B 1567   6.286   6.037   6.045 -0.9285  0.1607  0.9473
   22CHL1    C8 1568   6.344   6.229   5.997  0.5031 -0.9050 -0.9021
   22CHL1    H8 1569   6.425   6.303   6.014 -0.9921  1.1193 -2.2457
   22CHL1   C14 1570   6.353   6.188   5.853 -0.5928 -0.1969  0.7544
   22CHL1   H14 1571   6.269   6.119   5.830 -1.5357  1.3864 -0.7578
   22CHL1   C15 1572   6.481   6.115   5.813 -0.0199 -0.2644 -0.1780
   22CHL1  H15A 1573   6.579   6.155   5.847 -0.0521  0.1303 -0.5433
   22CHL1  H15B 1574   6.479   6.005   5.831 -0.9213 -0.3499 -0.7502
   22CHL1   C16 1575   6.481   6.133   5.656 -0.1527 -0.0524 -0.1344
   22CHL1  H16A 1576   6.573   6.188   5.628 -0.9682  1.2233 -0.4108
   22CHL1  H16B 1577   6.461   6.036   5.605 -2.3045 -0.0766  0.6404
   22CHL1   C17 1578   6.362   6.228   5.619 -0.0412 -0.7850  0.2267
   22CHL1   H17 1579   6.277   6.159   5.599  1.6623 -2.2317 -2.5766
   22CHL1   C13 1580   6.330   6.307   5.750 -0.0366 -0.0439 -0.0500
   22CHL1   C18 1581   6.438   6.419   5.778  0.0476 -0.2502 -0.5166
   22CHL1  H18A 1582   6.407   6.502   5.710 -0.2168  2.3799  2.5676
   22CHL1  H18B 1583   6.422   6.459   5.881  1.4799 -0.2523 -0.2644
   22CHL1  H18C 1584   6.541   6.381   5.763  0.4016  0.9612 -1.2628
   22CHL1   C12 1585   6.193   6.379   5.775 -0.6639 -0.0000 -0.6594
   22CHL1  H12A 1586   6.176   6.465   5.707 -0.1344 -2.3361 -4.0240
   22CHL1  H12B 1587   6.108   6.317   5.739  0.4260 -0.4748 -2.6000
   22CHL1   C11 1588   6.179   6.412   5.928  0.2711  0.1085 -0.8378
   22CHL1  H11A 1589   6.240   6.502   5.951  1.9936 -1.3384  0.5136
   22CHL1  H11B 1590   6.071   6.434   5.943  0.6097  0.1512  2.1815
   22CHL1    C9 1591   6.219   6.302   6.031  0.2396 -0.7780 -0.2621
   22CHL1    H9 1592   6.125   6.242   6.028 -1.4484  1.7273 -1.0909
   22CHL1   C10 1593   6.210   6.346   6.180 -0.0200  0.0126  0.0404
   22CHL1   C19 1594   6.290   6.480   6.189  0.3917 -0.4730  0.1284
   22CHL1  H19A 1595   6.231   6.569   6.156  1.2566 -0.2910 -1.0003
   22CHL1  H19B 1596   6.330   6.511   6.288  1.1221  0.3078 -0.3955
   22CHL1  H19C 1597   6.382   6.483   6.127  1.2450  2.3834  1.3661
   22CHL1    C1 1598   6.064   6.375   6.221 -0.1224 -0.0133  0.2882
   22CHL1   H1A 1599   6.028   6.467   6.169  0.5181 -1.2844 -2.6285
   22CHL1   H1B 1600   5.985   6.302   6.194 -1.6665  1.2761  1.1485
   22CHL1    C2 1601   6.049   6.410   6.372  0.1047 -0.6464 -0.3885
   22CHL1   H2A 1602   5.940   6.429   6.379  0.2035  2.5605 -3.9700
   22CHL1   H2B 1603   6.102   6.505   6.395  2.2689 -1.3723 -2.0186
   22CHL1   C20 1604   6.386   6.314   5.487 -0.1528  0.0536 -0.2946
   22CHL1   H20 1605   6.479   6.374   5.493 -0.9500  1.4464 -1.1821
   22CHL1   C21 1606   6.271   6.414   5.467 -0.1409 -0.2543 -0.1858
   22CHL1  H21A 1607   6.278   6.498   5.539 -0.3689 -1.5195  1.3853
   22CHL1  H21B 1608   6.176   6.365   5.497 -0.5339  0.6272  0.0234
   22CHL1  H21C 1609   6.259   6.469   5.371 -1.1307  0.9540  0.5950
   22CHL1   C22 1610   6.419   6.223   5.365 -0.0099 -0.6334 -0.1504
   22CHL1  H22A 1611   6.408   6.284   5.273  1.2924  2.0614  1.3792
   22CHL1  H22B 1612   6.517   6.171   5.371 -0.9558 -2.3793  0.9053
   22CHL1   C23 1613   6.322   6.112   5.338  0.2212  0.2640  0.5711
   22CHL1  H23A 1614   6.345   6.026   5.404  3.1196 -1.0567 -1.9421
   22CHL1  H23B 1615   6.220   6.156   5.348 -0.1369 -0.4845  0.2849
   22CHL1   C24 1616   6.343   6.062   5.189 -0.5468  0.2331 -0.7606
   22CHL1  H24A 1617   6.297   6.143   5.128  0.5134  0.2701 -1.5412
   22CHL1  H24B 1618   6.447   6.036   5.160 -1.6015 -1.7322 -3.1807
   22CHL1   C25 1619   6.263   5.930   5.156  0.1436  0.4260 -0.0438
   22CHL1   H25 1620   6.303   5.888   5.061 -0.6687  0.1744 -0.2783
   22CHL1   C26 1621   6.276   5.813   5.258 -0.1206  0.9831 -0.3151
   22CHL1  H26A 1622   6.247   5.844   5.361  2.4572  2.5421  0.0568
   22CHL1  H26B 1623   6.227   5.721   5.222 -0.5012  1.9797 -2.4937
   22CHL1  H26C 1624   6.386   5.801   5.264 -0.1696  0.9449  0.8999
   22CHL1   C27 1625   6.118   5.965   5.124  0.0603  0.3941  0.6009
   22CHL1  H27A 1626   6.114   6.064   5.073 -3.2227  0.4384  0.7375
   22CHL1  H27B 1627   6.067   5.897   5.052 -1.4727 -0.3182  2.2750
   22CHL1  H27C 1628   6.044   5.966   5.207  0.4590  0.7128  0.9572
   23CHL1    C3 1629   5.017   0.970   6.483 -0.3330 -0.4118 -0.5629
   23CHL1    H3 1630   5.121   1.006   6.471 -0.1468 -0.4348  0.8924
   23CHL1    O3 1631   4.982   0.996   6.609 -0.1056 -0.8018  0.0107
   23CHL1   H3' 1632   4.890   0.969   6.616  0.0144 -0.9477  1.4642
   23CHL1    C4 1633   4.940   1.053   6.389  0.8748  0.0318 -0.0933
   23CHL1   H4A 1634   4.830   1.040   6.399  0.8281  0.8594  0.6187
   23CHL1   H4B 1635   4.958   1.158   6.420 -3.5451  1.9957 -3.0585
   23CHL1    C5 1636   4.974   1.034   6.249 -0.1387  0.4300  0.5657
   23CHL1    C6 1637   5.004   1.136   6.164  0.0293  0.2865 -0.5506
   23CHL1    H6 1638   5.004   1.241   6.197 -2.0413  0.2594 -0.2711
   23CHL1    C7 1639   5.021   1.117   6.016  0.1440  1.0588  0.2043
   23CHL1   H7A 1640   4.979   1.203   5.959 -1.0236  0.0704 -0.4993
   23CHL1   H7B 1641   5.128   1.111   5.987 -0.5429 -0.5426 -2.3422
   23CHL1    C8 1642   4.953   0.984   5.966 -1.1232 -0.5505  0.0258
   23CHL1    H8 1643   4.843   1.001   5.972 -1.1264 -0.0630 -1.2409
   23CHL1   C14 1644   4.990   0.960   5.820  0.5844 -0.2673  0.3264
   23CHL1   H14 1645   5.101   0.956   5.819  0.6939  1.7295  1.1008
   23CHL1   C15 1646   4.955   1.064   5.713  0.1234 -0.2936 -0.5189
   23CHL1  H15A 1647   4.852   1.099   5.731  0.7663  1.2892  0.3172
   23CHL1  H15B 1648   5.027   1.149   5.722  0.7455 -0.9261  0.7576
   23CHL1   C16 1649   4.951   0.989   5.580  0.1258 -0.3233 -0.7582
   23CHL1  H16A 1650   4.845   0.998   5.549 -0.9390  0.5045  2.6899
   23CHL1  H16B 1651   5.028   1.012   5.503  1.1548 -1.7984 -0.2250
   23CHL1   C17 1652   4.966   0.837   5.613 -0.0284  0.5087  0.2378
   23CHL1   H17 1653   5.075   0.816   5.602  0.1754  1.5910  0.0085
   23CHL1   C13 1654   4.942   0.828   5.764 -0.0084 -0.1885 -0.0180
   23CHL1   C18 1655   4.793   0.807   5.782 -0.3456  0.4928  0.4188
   23CHL1  H18A 1656   4.734   0.873   5.715 -2.5939 -0.5357  1.2783
   23CHL1  H18B 1657   4.778   0.700   5.756  1.7709  0.7969 -2.4732
   23CHL1  H18C 1658   4.774   0.825   5.890  1.2118 -0.3944  0.8726
   23CHL1   C12 1659   5.025   0.716   5.841  0.0840 -0.3054  1.1800
   23CHL1  H12A 1660   4.988   0.623   5.792  1.0485 -0.1518  0.0943
   23CHL1  H12B 1661   5.135   0.708   5.825 -0.1493  1.2499 -2.2467
   23CHL1   C11 1662   4.992   0.729   5.990  0.2518  0.1356 -0.7050
   23CHL1  H11A 1663   4.892   0.685   6.012  0.3463  0.3993  0.3025
   23CHL1  H11B 1664   5.065   0.667   6.047 -1.8591 -0.0185  2.0554
   23CHL1    C9 1665   5.014   0.867   6.054  0.5012  0.9429  0.1798
   23CHL1    H9 1666   5.123   0.885   6.054  0.6078  0.3190 -0.2789
   23CHL1   C10 1667   4.963   0.887   6.204  0.0714 -0.1531 -0.1710
   23CHL1   C19 1668   4.812   0.840   6.198 -0.0551 -1.1009 -0.3115
   23CHL1  H19A 1669   4.750   0.895   6.125  0.4756  0.3141  0.2626
   23CHL1  H19B 1670   4.807   0.730   6.188  0.0439 -1.2651  1.1354
   23CHL1  H19C 1671   4.767   0.859   6.298 -1.5402 -2.9397 -0.5645
   23CHL1    C1 1672   5.044   0.800   6.307 -0.7342  0.4096  0.1030
   23CHL1   H1A 1673   5.026   0.694   6.279 -1.3843  1.0236 -1.9002
   23CHL1   H1B 1674   5.151   0.817   6.283 -0.0953  0.3833  2.6089
   23CHL1    C2 1675   5.011   0.826   6.453 -0.4559 -0.4927 -0.1838
   23CHL1   H2A 1676   5.072   0.759   6.516  0.1929 -0.0807 -0.3605
   23CHL1   H2B 1677   4.914   0.779   6.479  0.7211 -1.8523  1.9823
   23CHL1   C20 1678   4.894   0.749   5.503 -0.2412 -0.2528 -0.6766
   23CHL1   H20 1679   4.786   0.771   5.508 -0.5149 -1.7328  1.6919
   23CHL1   C21 1680   4.923   0.599   5.522 -0.1906  0.5962  0.1522
   23CHL1  H21A 1681   5.024   0.572   5.485  0.2457 -2.6116  3.2309
   23CHL1  H21B 1682   4.849   0.544   5.459  1.0653  0.2012 -1.0314
   23CHL1  H21C 1683   4.900   0.555   5.621  0.2150  1.1749  0.5072
   23CHL1   C22 1684   4.947   0.803   5.367  0.6226 -0.1432  0.1666
   23CHL1  H22A 1685   4.906   0.905   5.355  0.9772  0.0667  0.7213
   23CHL1  H22B 1686   5.057   0.812   5.355  0.4189  0.7039 -1.4675
   23CHL1   C23 1687   4.899   0.712   5.256  0.5273 -0.1213 -0.3465
   23CHL1  H23A 1688   4.950   0.614   5.266  1.6852  0.6853  2.5904
   23CHL1  H23B 1689   4.791   0.693   5.276  0.4946 -1.2266 -1.4813
   23CHL1   C24 1690   4.904   0.774   5.108 -0.4120 -0.0299 -0.4859
   23CHL1  H24A 1691   4.827   0.720   5.048 -1.8198  0.0352  1.1985
   23CHL1  H24B 1692   4.861   0.877   5.112  1.8465  1.0410 -1.6481
   23CHL1   C25 1693   5.043   0.788   5.045 -0.3796  0.1602  0.6737
   23CHL1   H25 1694   5.110   0.799   5.133  0.0383 -0.5921  0.4538
   23CHL1   C26 1695   5.087   0.663   4.965  0.1515  0.6813  0.0140
   23CHL1  H26A 1696   5.196   0.667   4.943  0.1507 -2.2226 -0.9446
   23CHL1  H26B 1697   5.075   0.566   5.017 -1.2184  1.3639  1.0420
   23CHL1  H26C 1698   5.039   0.658   4.865  0.6471  1.9083 -0.2993
   23CHL1   C27 1699   5.052   0.910   4.956  0.3822  0.0082  0.1248
   23CHL1  H27A 1700   5.158   0.926   4.927 -0.7624  0.0275 -5.0588
   23CHL1  H27B 1701   4.992   0.901   4.862  0.7955 -0.1007 -0.1298
   23CHL1  H27C 1702   5.002   0.999   5.001  1.1948 -0.2299  1.5588
   24CHL1    C3 1703   6.994   4.750   6.660 -0.0655 -0.6586  0.1540
   24CHL1    H3 1704   6.888   4.758   6.626  0.2511  0.4280 -0.5899
   24CHL1    O3 1705   6.976   4.706   6.791 -0.0304 -0.5199  0.5054
   24CHL1   H3' 1706   6.923   4.776   6.829 -0.4789 -0.7798  0.3682
   24CHL1    C4 1707   7.070   4.648   6.567 -0.4150 -0.5535 -0.1657
   24CHL1   H4A 1708   7.163   4.608   6.613 -0.7085 -1.4863 -0.3551
   24CHL1   H4B 1709   7.004   4.559   6.572 -0.3601 -0.5787  0.1702
   24CHL1    C5 1710   7.095   4.702   6.426  0.0763  0.0062  1.1126
   24CHL1    C6 1711   7.046   4.636   6.320  0.0773  0.3396  0.7179
   24CHL1    H6 1712   7.003   4.536   6.338 -1.6161  1.0947  1.0279
   24CHL1    C7 1713   7.071   4.674   6.177 -0.3890 -0.5356  0.3224
   24CHL1   H7A 1714   7.110   4.592   6.112 -0.1579 -0.9802  1.0132
   24CHL1   H7B 1715   6.973   4.706   6.137  0.1088  0.3577 -0.2198
   24CHL1    C8 1716   7.182   4.788   6.167 -0.1038 -0.3950 -0.0256
   24CHL1    H8 1717   7.279   4.738   6.187 -0.4045 -0.5650  1.0425
   24CHL1   C14 1718   7.187   4.855   6.031 -0.1170 -0.5351 -0.0184
   24CHL1   H14 1719   7.090   4.907   6.016 -0.4255 -1.1876 -0.3411
   24CHL1   C15 1720   7.200   4.759   5.909  0.2961 -0.0410 -0.6277
   24CHL1  H15A 1721   7.271   4.676   5.929 -0.8225 -0.5270  1.7385
   24CHL1  H15B 1722   7.103   4.706   5.894  0.7723 -1.1989  0.2391
   24CHL1   C16 1723   7.240   4.850   5.799 -0.2554 -0.2803 -0.2574
   24CHL1  H16A 1724   7.334   4.803   5.763 -0.3922 -0.0822 -0.8840
   24CHL1  H16B 1725   7.166   4.852   5.716 -0.3140 -0.7523 -0.2179
   24CHL1   C17 1726   7.265   4.989   5.860  0.1480  0.1261  0.0325
   24CHL1   H17 1727   7.174   5.050   5.845  0.0293 -0.1347 -0.3194
   24CHL1   C13 1728   7.282   4.965   6.014  0.0022 -0.4264  0.2053
   24CHL1   C18 1729   7.425   4.918   6.048 -0.7686  0.4649  0.8755
   24CHL1  H18A 1730   7.490   5.001   6.014 -2.8316  1.3874 -1.0684
   24CHL1  H18B 1731   7.451   4.899   6.154  0.7992  0.7084  0.5666
   24CHL1  H18C 1732   7.451   4.823   5.996 -2.5738  0.6389 -0.4299
   24CHL1   C12 1733   7.227   5.076   6.106 -0.5844 -0.1600 -0.3304
   24CHL1  H12A 1734   7.311   5.148   6.108  1.4469 -2.4033  1.5198
   24CHL1  H12B 1735   7.128   5.123   6.085 -0.0582  1.0115 -0.2597
   24CHL1   C11 1736   7.223   5.028   6.251 -0.5803  0.0528 -0.9947
   24CHL1  H11A 1737   7.330   5.014   6.278 -0.7789 -0.2279 -0.3174
   24CHL1  H11B 1738   7.197   5.101   6.331  0.8202 -0.1472 -0.3087
   24CHL1    C9 1739   7.148   4.895   6.274 -0.0434 -0.0612  0.3907
   24CHL1    H9 1740   7.044   4.920   6.246 -0.1808 -1.9112 -0.8579
   24CHL1   C10 1741   7.157   4.841   6.418  0.4557 -0.0035 -0.3645
   24CHL1   C19 1742   7.313   4.824   6.455  0.6344  0.2109 -0.3683
   24CHL1  H19A 1743   7.334   4.773   6.551  0.9697 -1.1520 -1.1427
   24CHL1  H19B 1744   7.364   4.756   6.383  2.4881 -0.2369  1.2677
   24CHL1  H19C 1745   7.356   4.926   6.461  1.9179 -0.3741  1.4079
   24CHL1    C1 1746   7.084   4.934   6.511  0.0281 -0.2022 -0.3184
   24CHL1   H1A 1747   7.136   5.031   6.527 -1.1026 -0.1397  4.7159
   24CHL1   H1B 1748   6.981   4.951   6.474  0.1156 -1.6221 -1.2938
   24CHL1    C2 1749   7.066   4.882   6.656  0.4002 -0.3144 -0.3338
   24CHL1   H2A 1750   7.010   4.961   6.712  1.2943 -0.1424  0.3407
   24CHL1   H2B 1751   7.159   4.865   6.715  0.2774  1.3686  0.4151
   24CHL1   C20 1752   7.380   5.058   5.789 -0.0869  0.3279  0.1526
   24CHL1   H20 1753   7.471   5.000   5.816  0.2641  0.2802 -1.0633
   24CHL1   C21 1754   7.394   5.200   5.843  0.1741 -0.6104  0.3846
   24CHL1  H21A 1755   7.293   5.239   5.869 -0.4973  0.1210 -2.7898
   24CHL1  H21B 1756   7.436   5.258   5.758 -1.5926  0.7602  0.3846
   24CHL1  H21C 1757   7.468   5.219   5.923  1.1036 -0.7461 -0.4191
   24CHL1   C22 1758   7.368   5.071   5.636 -0.1166 -0.5862 -0.3776
   24CHL1  H22A 1759   7.453   5.136   5.606  0.9540  0.4120  4.1373
   24CHL1  H22B 1760   7.370   4.966   5.599 -3.3267 -1.3823  1.3310
   24CHL1   C23 1761   7.231   5.135   5.588  0.0618 -0.3416 -0.6505
   24CHL1  H23A 1762   7.154   5.056   5.584 -0.4951  0.2347 -1.4937
   24CHL1  H23B 1763   7.208   5.219   5.657  2.1415 -0.5421  0.3925
   24CHL1   C24 1764   7.246   5.209   5.449  0.6823 -0.6384  0.4910
   24CHL1  H24A 1765   7.336   5.273   5.465  0.2796  0.1093 -0.1716
   24CHL1  H24B 1766   7.265   5.120   5.385 -1.0778  0.0102 -1.0175
   24CHL1   C25 1767   7.132   5.295   5.391  0.3257  0.2657 -0.2800
   24CHL1   H25 1768   7.039   5.235   5.382  0.1497  0.2772  1.2591
   24CHL1   C26 1769   7.096   5.419   5.480  0.0129 -0.0646 -0.2608
   24CHL1  H26A 1770   7.033   5.383   5.564  0.8088  0.2584  0.4816
   24CHL1  H26B 1771   7.186   5.460   5.529 -0.0257  0.4218 -0.5929
   24CHL1  H26C 1772   7.025   5.480   5.420  1.0718  0.1301 -1.3618
   24CHL1   C27 1773   7.168   5.347   5.252  0.4465 -0.4678  0.0995
   24CHL1  H27A 1774   7.079   5.380   5.195  1.0067  0.6598 -0.1502
   24CHL1  H27B 1775   7.247   5.424   5.237  2.1419 -2.4196 -1.7295
   24CHL1  H27C 1776   7.209   5.254   5.208 -0.2702  0.2048 -2.0917
   25CHL1    C3 1777   6.048   0.154   6.421 -0.5249 -1.1432 -0.8840
   25CHL1    H3 1778   6.075   0.262   6.418 -1.7501 -0.7331  1.2980
   25CHL1    O3 1779   6.058   0.098   6.554 -0.3846  0.2921  0.0273
   25CHL1   H3' 1780   6.088   0.008   6.537  2.7250  1.2141 -0.0419
   25CHL1    C4 1781   5.903   0.139   6.374 -0.3456 -0.0547  0.0003
   25CHL1   H4A 1782   5.888   0.030   6.388  0.6184 -0.2156 -0.1437
   25CHL1   H4B 1783   5.855   0.199   6.454 -0.7558 -1.6137  0.9676
   25CHL1    C5 1784   5.882   0.190   6.233 -0.2466 -0.8437  0.0791
   25CHL1    C6 1785   5.781   0.280   6.205 -0.3397  0.2439 -0.4501
   25CHL1    H6 1786   5.709   0.296   6.287 -0.5088 -1.3608 -0.2410
   25CHL1    C7 1787   5.736   0.324   6.070 -0.5242  1.0626 -0.0471
   25CHL1   H7A 1788   5.625   0.315   6.062 -0.4892  1.9007 -2.2145
   25CHL1   H7B 1789   5.766   0.429   6.051  2.0249  0.5481  0.7783
   25CHL1    C8 1790   5.802   0.228   5.968  0.0295 -0.1887  0.9051
   25CHL1    H8 1791   5.750   0.129   5.974 -0.3257 -0.5551 -3.8865
   25CHL1   C14 1792   5.772   0.282   5.822 -0.1820  1.2641 -0.3114
   25CHL1   H14 1793   5.811   0.386   5.822 -0.0458  1.2184 -1.3085
   25CHL1   C15 1794   5.619   0.281   5.792 -0.4021 -0.0627  0.3528
   25CHL1  H15A 1795   5.585   0.184   5.834  0.5758 -1.2482 -1.4837
   25CHL1  H15B 1796   5.562   0.364   5.841 -1.4207 -0.0527 -0.7998
   25CHL1   C16 1797   5.616   0.287   5.638  0.1889 -0.2506  0.4709
   25CHL1  H16A 1798   5.566   0.196   5.601  1.7324  0.2146 -3.0787
   25CHL1  H16B 1799   5.566   0.383   5.614 -1.7447 -1.1494  0.7381
   25CHL1   C17 1800   5.768   0.285   5.591  0.2299 -0.4186  0.0592
   25CHL1   H17 1801   5.808   0.388   5.582  1.5656 -0.8847  0.5349
   25CHL1   C13 1802   5.840   0.209   5.708  0.2022  0.5014  0.1952
   25CHL1   C18 1803   5.791   0.055   5.708  0.1234 -0.0322 -0.3800
   25CHL1  H18A 1804   5.680   0.049   5.706  0.0473  0.0251  1.5864
   25CHL1  H18B 1805   5.827  -0.011   5.626  1.0903  0.2978 -0.2419
   25CHL1  H18C 1806   5.814   0.004   5.803 -0.3006 -1.0667 -0.8223
   25CHL1   C12 1807   5.995   0.235   5.740 -0.2305  0.2757  0.8051
   25CHL1  H12A 1808   6.055   0.222   5.648 -2.0061  1.4996 -0.5865
   25CHL1  H12B 1809   6.015   0.344   5.747  0.9463 -0.0124  2.4419
   25CHL1   C11 1810   6.040   0.162   5.876 -0.2180 -0.3921  0.0686
   25CHL1  H11A 1811   6.031   0.052   5.875 -0.5691 -0.6415  4.8380
   25CHL1  H11B 1812   6.148   0.179   5.893 -0.6853  0.9786  2.0580
   25CHL1    C9 1813   5.954   0.209   5.995 -0.3307  0.0781  0.0713
   25CHL1    H9 1814   5.992   0.311   6.020  0.2858  0.1744 -1.1908
   25CHL1   C10 1815   5.972   0.127   6.126  0.1930 -0.2928  0.2037
   25CHL1   C19 1816   5.924  -0.020   6.116  0.2877 -0.6671 -0.0610
   25CHL1  H19A 1817   5.988  -0.070   6.040  1.2004  0.2850  0.0585
   25CHL1  H19B 1818   5.937  -0.077   6.210 -0.0999  2.7150  2.2252
   25CHL1  H19C 1819   5.820  -0.032   6.078  0.0520 -0.3138  0.4601
   25CHL1    C1 1820   6.119   0.127   6.171  0.4288 -0.2564 -0.3935
   25CHL1   H1A 1821   6.163   0.043   6.113 -1.5937  0.3322 -2.9589
   25CHL1   H1B 1822   6.186   0.214   6.155  0.7628 -0.2026  1.1601
   25CHL1    C2 1823   6.142   0.084   6.322 -0.1347 -0.0093  0.0531
   25CHL1   H2A 1824   6.248   0.108   6.346 -0.0971 -1.4493  1.5803
   25CHL1   H2B 1825   6.135  -0.027   6.322 -1.1629  0.0279  1.0572
   25CHL1   C20 1826   5.780   0.216   5.452  0.5998  0.6431  0.5180
   25CHL1   H20 1827   5.745   0.113   5.470  1.9283  0.2698  1.0820
   25CHL1   C21 1828   5.927   0.201   5.433 -0.2645 -0.0606 -0.2850
   25CHL1  H21A 1829   5.980   0.297   5.451  1.8658 -1.2223 -0.1109
   25CHL1  H21B 1830   5.956   0.163   5.333 -0.2603  0.9760 -0.6981
   25CHL1  H21C 1831   5.963   0.119   5.498 -1.9952  0.6990  1.7752
   25CHL1   C22 1832   5.706   0.266   5.327  0.1897  0.4704  0.1164
   25CHL1  H22A 1833   5.596   0.262   5.338 -0.1963  2.5621 -2.0827
   25CHL1  H22B 1834   5.732   0.373   5.309 -1.0185  1.0426  1.5867
   25CHL1   C23 1835   5.741   0.183   5.197 -0.4726  0.5285 -0.3833
   25CHL1  H23A 1836   5.846   0.211   5.174 -0.7126  1.2475 -0.6244
   25CHL1  H23B 1837   5.721   0.077   5.221 -0.9060  0.4576 -1.0611
   25CHL1   C24 1838   5.645   0.225   5.080 -0.4413 -0.0194 -1.0322
   25CHL1  H24A 1839   5.543   0.186   5.095 -0.4961 -0.3813 -2.2659
   25CHL1  H24B 1840   5.633   0.335   5.077 -0.7480 -0.0402 -0.5765
   25CHL1   C25 1841   5.709   0.175   4.953 -0.5118  0.7448 -0.8260
   25CHL1   H25 1842   5.815   0.209   4.951 -0.8537  2.0341  0.5780
   25CHL1   C26 1843   5.691   0.016   4.942  0.6821 -0.0430  0.1872
   25CHL1  H26A 1844   5.590  -0.013   4.978 -0.4767  1.2497 -1.8461
   25CHL1  H26B 1845   5.715  -0.010   4.837  1.4715 -1.0809  0.6120
   25CHL1  H26C 1846   5.766  -0.030   5.010 -1.5667 -1.3887  1.8989
   25CHL1   C27 1847   5.654   0.250   4.837  0.1511  0.0248 -0.2730
   25CHL1  H27A 1848   5.694   0.353   4.848 -0.0184 -0.1272  2.2851
   25CHL1  H27B 1849   5.680   0.201   4.741 -1.0920  1.0171 -1.1501
   25CHL1  H27C 1850   5.545   0.246   4.856  0.4162 -1.1959  1.1799
   26CHL1    C3 1851   1.496   2.037   6.928  0.1962 -0.6412  0.2650
   26CHL1    H3 1852   1.424   1.952   6.933 -2.0356  1.1893  1.0117
   26CHL1    O3 1853   1.526   2.078   7.062  0.2062 -0.5266 -0.0986
   26CHL1   H3' 1854   1.554   2.169   7.055 -0.5314 -0.3136 -0.3498
   26CHL1    C4 1855   1.632   2.002   6.870  0.1532  0.3333 -0.2451
   26CHL1   H4A 1856   1.707   2.080   6.894 -0.3337  0.1830  2.0062
   26CHL1   H4B 1857   1.658   1.907   6.920  2.0030  0.7314 -0.3865
   26CHL1    C5 1858   1.631   1.971   6.722 -0.8521 -1.0120  0.7586
   26CHL1    C6 1859   1.679   1.857   6.665 -0.2768 -0.0724 -0.6631
   26CHL1    H6 1860   1.725   1.780   6.729  1.9018 -0.2116 -2.2992
   26CHL1    C7 1861   1.697   1.836   6.515 -0.5307  0.1346  0.3978
   26CHL1   H7A 1862   1.798   1.797   6.493 -0.7755 -1.1393  1.4496
   26CHL1   H7B 1863   1.616   1.766   6.486  0.9305 -1.0595 -0.9879
   26CHL1    C8 1864   1.667   1.964   6.427  0.9994  0.8237 -0.1125
   26CHL1    H8 1865   1.764   2.017   6.436  2.6133 -1.1557 -3.8198
   26CHL1   C14 1866   1.642   1.925   6.288  1.0296 -0.8704 -0.2921
   26CHL1   H14 1867   1.560   1.850   6.287 -1.1543  1.2507  2.2717
   26CHL1   C15 1868   1.767   1.850   6.234 -0.8840 -0.3770  0.4259
   26CHL1  H15A 1869   1.859   1.899   6.271  0.0959 -1.5207 -0.4082
   26CHL1  H15B 1870   1.765   1.743   6.264  0.3826 -0.0440  1.7999
   26CHL1   C16 1871   1.749   1.875   6.079 -0.0998  0.4219  0.8335
   26CHL1  H16A 1872   1.845   1.926   6.055 -0.4002  1.2710  1.4027
   26CHL1  H16B 1873   1.752   1.776   6.029  0.4044  1.0303 -0.3911
   26CHL1   C17 1874   1.627   1.970   6.067  0.7703  0.5441  0.2246
   26CHL1   H17 1875   1.538   1.903   6.063  0.4962  0.9122  0.1807
   26CHL1   C13 1876   1.607   2.041   6.200  0.2943  0.0427  0.2682
   26CHL1   C18 1877   1.714   2.161   6.199 -0.8438  1.0705  0.1843
   26CHL1  H18A 1878   1.812   2.121   6.164 -1.2385  0.0921  0.1880
   26CHL1  H18B 1879   1.683   2.250   6.140  0.4426  0.9550 -0.7139
   26CHL1  H18C 1880   1.726   2.199   6.303 -0.1231  0.5237  0.3083
   26CHL1   C12 1881   1.467   2.090   6.246 -0.5160  0.4077  0.1160
   26CHL1  H12A 1882   1.436   2.180   6.188  1.2074  1.7736  1.2144
   26CHL1  H12B 1883   1.393   2.007   6.249 -0.2641  0.1200 -1.0925
   26CHL1   C11 1884   1.477   2.143   6.394 -0.0131  0.1281  0.3268
   26CHL1  H11A 1885   1.536   2.237   6.405  0.7767 -0.3718  0.4143
   26CHL1  H11B 1886   1.371   2.157   6.425 -0.0429  0.2078  0.1914
   26CHL1    C9 1887   1.549   2.036   6.487  0.0338 -1.0008  0.3613
   26CHL1    H9 1888   1.474   1.955   6.491 -0.0754 -1.1350 -2.1944
   26CHL1   C10 1889   1.562   2.081   6.639  0.1177  0.2975  1.5944
   26CHL1   C19 1890   1.646   2.207   6.632  1.1767 -0.2129 -0.8503
   26CHL1  H19A 1891   1.730   2.201   6.559 -0.5264 -0.1010 -2.9423
   26CHL1  H19B 1892   1.579   2.291   6.602  0.3069 -0.5946 -0.0376
   26CHL1  H19C 1893   1.660   2.241   6.737 -1.2779  3.2855 -1.4622
   26CHL1    C1 1894   1.422   2.111   6.700  0.4220 -0.0702  0.3821
   26CHL1   H1A 1895   1.366   2.184   6.637  1.0493 -0.7977 -1.0820
   26CHL1   H1B 1896   1.366   2.016   6.690  1.5466 -0.7976  0.7992
   26CHL1    C2 1897   1.431   2.154   6.845  0.1879 -0.1538  0.3554
   26CHL1   H2A 1898   1.333   2.174   6.894  1.9672  1.6216  3.5790
   26CHL1   H2B 1899   1.500   2.241   6.857 -0.9336  0.6788  0.8558
   26CHL1   C20 1900   1.611   2.041   5.935  0.1802 -0.0501  0.3034
   26CHL1   H20 1901   1.700   2.103   5.910 -0.7679  0.6911 -1.4641
   26CHL1   C21 1902   1.495   2.140   5.924  0.5003 -0.1513  0.0418
   26CHL1  H21A 1903   1.502   2.231   5.987  1.9987  0.3259 -0.7727
   26CHL1  H21B 1904   1.407   2.079   5.954 -0.8678 -0.1248 -3.3909
   26CHL1  H21C 1905   1.482   2.164   5.816 -1.9650  0.8128  0.4812
   26CHL1   C22 1906   1.597   1.933   5.824 -0.8465 -1.0576  0.0055
   26CHL1  H22A 1907   1.685   1.867   5.842  0.4162  0.7501  0.7400
   26CHL1  H22B 1908   1.506   1.872   5.806  0.3247 -2.4456 -1.4719
   26CHL1   C23 1909   1.640   1.984   5.680  0.0735  0.3886  0.1075
   26CHL1  H23A 1910   1.561   2.056   5.649 -1.5246 -0.6310  1.5950
   26CHL1  H23B 1911   1.731   2.048   5.686  1.5411 -1.5604 -0.2186
   26CHL1   C24 1912   1.652   1.863   5.585 -0.7283  0.3133 -0.5203
   26CHL1  H24A 1913   1.711   1.786   5.640 -1.4151 -0.5184 -0.9426
   26CHL1  H24B 1914   1.555   1.813   5.569 -0.4602 -0.3197 -0.1973
   26CHL1   C25 1915   1.742   1.893   5.459  0.3956 -0.3170  0.2681
   26CHL1   H25 1916   1.845   1.881   5.499  0.4808 -1.0340 -0.1558
   26CHL1   C26 1917   1.729   1.772   5.357 -0.0180 -0.1322  0.3661
   26CHL1  H26A 1918   1.766   1.684   5.414 -0.3986 -0.5894 -0.0827
   26CHL1  H26B 1919   1.623   1.749   5.336  0.0019  0.3504 -0.3084
   26CHL1  H26C 1920   1.793   1.796   5.269  2.6904  1.1114  2.5245
   26CHL1   C27 1921   1.714   2.029   5.397 -0.0754  0.2128 -0.0996
   26CHL1  H27A 1922   1.776   2.047   5.307 -1.6539  0.8435 -1.1070
   26CHL1  H27B 1923   1.606   2.039   5.370 -0.3456  1.1592  1.2321
   26CHL1  H27C 1924   1.742   2.108   5.470  2.9859  0.9894 -1.9338
   27CHL1    C3 1925   2.098   5.133   6.558 -0.7796  0.4480 -0.6048
   27CHL1    H3 1926   2.191   5.186   6.531 -0.2725 -0.4347 -0.6102
   27CHL1    O3 1927   2.089   5.136   6.700 -0.7828  0.0026 -0.2729
   27CHL1   H3' 1928   2.085   5.229   6.723  1.6449 -0.0629  0.6783
   27CHL1    C4 1929   1.973   5.202   6.500  0.1791 -0.2167  0.5036
   27CHL1   H4A 1930   1.876   5.161   6.536 -0.3515 -1.1129 -1.7629
   27CHL1   H4B 1931   1.957   5.306   6.537  4.2958  0.9339 -0.4600
   27CHL1    C5 1932   1.985   5.209   6.349 -0.0095  0.0746 -0.3348
   27CHL1    C6 1933   1.973   5.328   6.280  0.2711  0.1074  0.0885
   27CHL1    H6 1934   1.967   5.427   6.327  1.6992  0.4356 -0.3996
   27CHL1    C7 1935   1.972   5.339   6.130 -0.4987 -0.0453 -0.5509
   27CHL1   H7A 1936   1.902   5.420   6.103 -0.2991  0.0053 -0.9221
   27CHL1   H7B 1937   2.076   5.374   6.109  0.5032  0.5433  4.2483
   27CHL1    C8 1938   1.953   5.202   6.061  0.1758 -0.7247 -0.3564
   27CHL1    H8 1939   1.845   5.182   6.077  0.3146 -0.4152  1.0516
   27CHL1   C14 1940   1.977   5.209   5.910  0.6230 -0.7669  0.3482
   27CHL1   H14 1941   2.086   5.225   5.894  0.5921 -2.2446 -1.7763
   27CHL1   C15 1942   1.915   5.318   5.824  0.0351 -0.5550 -0.2305
   27CHL1  H15A 1943   1.805   5.324   5.836  0.0491  1.2183 -0.8169
   27CHL1  H15B 1944   1.963   5.416   5.845  1.2939 -1.6506  2.4581
   27CHL1   C16 1945   1.948   5.267   5.682 -0.9282  0.2671 -0.1948
   27CHL1  H16A 1946   1.855   5.263   5.621 -0.2792 -2.7775 -1.1799
   27CHL1  H16B 1947   2.022   5.334   5.634  0.8457 -1.6564 -0.2746
   27CHL1   C17 1948   2.006   5.127   5.687  0.5550  0.1220  0.0785
   27CHL1   H17 1949   2.116   5.131   5.700  0.4174 -1.0233  1.9305
   27CHL1   C13 1950   1.970   5.079   5.830  0.9615 -0.2438  0.9872
   27CHL1   C18 1951   1.827   5.028   5.834  1.0899  0.9804  0.9251
   27CHL1  H18A 1952   1.791   5.039   5.939 -0.8173 -0.1191  0.4355
   27CHL1  H18B 1953   1.757   5.101   5.787  0.1165 -1.2086 -1.2043
   27CHL1  H18C 1954   1.811   4.926   5.793 -0.0620  0.6147  2.2055
   27CHL1   C12 1955   2.066   4.980   5.892 -0.7791  0.5172 -0.5683
   27CHL1  H12A 1956   2.043   4.879   5.852  1.3347  0.3155 -1.4225
   27CHL1  H12B 1957   2.174   4.998   5.873 -0.6643 -0.3184 -0.7226
   27CHL1   C11 1958   2.053   4.969   6.048  0.1340 -0.1200 -0.4968
   27CHL1  H11A 1959   1.958   4.912   6.054  1.0771 -1.8755 -1.3863
   27CHL1  H11B 1960   2.128   4.896   6.085  1.4300  0.0870 -2.5592
   27CHL1    C9 1961   2.037   5.097   6.132 -0.2343  0.4115  0.1883
   27CHL1    H9 1962   2.141   5.136   6.132 -0.4953  1.1327  0.2045
   27CHL1   C10 1963   2.005   5.068   6.280 -0.4416 -0.1910  0.3908
   27CHL1   C19 1964   1.881   4.983   6.286  0.5848 -0.0867 -0.3268
   27CHL1  H19A 1965   1.825   5.001   6.191 -0.3070 -3.1183 -0.4775
   27CHL1  H19B 1966   1.900   4.874   6.281 -1.4728 -0.5333  0.5946
   27CHL1  H19C 1967   1.826   4.993   6.381 -0.1839  0.2472 -0.7992
   27CHL1    C1 1968   2.119   4.991   6.348  0.7818  0.8047  0.1691
   27CHL1   H1A 1969   2.120   4.888   6.307 -0.5703  1.3135 -1.2363
   27CHL1   H1B 1970   2.216   5.037   6.319  1.0980 -0.3044 -0.6236
   27CHL1    C2 1971   2.108   4.990   6.499  0.0206  0.6910 -0.1474
   27CHL1   H2A 1972   2.192   4.946   6.557 -1.7148 -0.4129  1.6709
   27CHL1   H2B 1973   2.020   4.938   6.543  0.8122  0.5536  1.3243
   27CHL1   C20 1974   1.959   5.049   5.557 -0.2931  0.3842  0.2860
   27CHL1   H20 1975   1.851   5.024   5.566 -0.0927 -0.1641  1.2713
   27CHL1   C21 1976   2.023   4.911   5.566  0.3326 -0.0239 -0.3282
   27CHL1  H21A 1977   2.134   4.913   5.562  0.3157 -0.6971 -1.4596
   27CHL1  H21B 1978   1.993   4.846   5.481 -0.3943  1.2973 -1.1310
   27CHL1  H21C 1979   1.996   4.857   5.659  5.6125 -0.1359  1.4693
   27CHL1   C22 1980   1.988   5.119   5.425  0.4129 -0.3619  0.1647
   27CHL1  H22A 1981   1.966   5.226   5.440  2.5782  0.0939  0.4872
   27CHL1  H22B 1982   2.098   5.123   5.406  0.9755 -3.1910  2.1127
   27CHL1   C23 1983   1.915   5.061   5.303  0.4630  0.2153 -0.7258
   27CHL1  H23A 1984   1.930   4.951   5.292  2.7540  0.4870 -0.8412
   27CHL1  H23B 1985   1.806   5.080   5.302  0.5123  0.5804  0.2614
   27CHL1   C24 1986   1.962   5.126   5.176 -0.2419 -0.7747 -0.4358
   27CHL1  H24A 1987   1.942   5.235   5.175 -2.1865 -1.0862  0.4083
   27CHL1  H24B 1988   2.071   5.113   5.192 -0.2703  0.2585  0.7089
   27CHL1   C25 1989   1.922   5.055   5.045  0.3206  0.1072  0.3257
   27CHL1   H25 1990   1.956   4.950   5.057 -0.1484 -0.3652 -1.9707
   27CHL1   C26 1991   1.768   5.045   5.022 -0.0405  0.1416  0.6946
   27CHL1  H26A 1992   1.758   4.977   4.935  3.2404  0.2328  0.1401
   27CHL1  H26B 1993   1.719   4.996   5.109  0.0927  0.2086  0.8074
   27CHL1  H26C 1994   1.729   5.147   5.002  0.4953  0.0403 -1.0428
   27CHL1   C27 1995   1.982   5.115   4.919  0.2115 -0.4491  0.0897
   27CHL1  H27A 1996   2.092   5.129   4.931 -0.1494  1.6088  1.3500
   27CHL1  H27B 1997   1.963   5.052   4.829  0.7009  0.0660 -0.3843
   27CHL1  H27C 1998   1.937   5.216   4.906  0.9836  0.0848  1.4145
   28CHL1    C3 1999   4.996   2.623   6.618  0.3942 -0.3568 -0.4096
   28CHL1    H3 2000   4.934   2.715   6.615 -2.8786 -2.2098  2.5639
   28CHL1    O3 2001   5.039   2.612   6.756  0.2917 -0.2962  0.0994
   28CHL1   H3' 2002   5.073   2.700   6.774  0.4823  0.0983 -1.9351
   28CHL1    C4 2003   4.910   2.504   6.576  0.1493  0.3584  0.0948
   28CHL1   H4A 2004   4.963   2.410   6.604 -0.5255  0.0890  0.4913
   28CHL1   H4B 2005   4.829   2.509   6.651  2.3540  2.0215  2.5540
   28CHL1    C5 2006   4.865   2.502   6.433  0.1967 -0.1955  0.3682
   28CHL1    C6 2007   4.734   2.482   6.402 -0.2043  0.5826 -0.1931
   28CHL1    H6 2008   4.671   2.473   6.492  0.3509 -1.0058  0.0707
   28CHL1    C7 2009   4.675   2.468   6.266 -0.3924 -0.5706  0.3000
   28CHL1   H7A 2010   4.640   2.363   6.261 -0.7927 -0.4569  0.5908
   28CHL1   H7B 2011   4.593   2.542   6.258 -0.2129 -0.1101  2.1573
   28CHL1    C8 2012   4.786   2.466   6.159 -0.0706 -0.5022  0.8657
   28CHL1    H8 2013   4.817   2.360   6.156 -0.5057 -0.6356  0.9928
   28CHL1   C14 2014   4.733   2.484   6.017 -0.5008 -0.8077 -0.2563
   28CHL1   H14 2015   4.698   2.589   6.016  2.7524  0.4150  0.4887
   28CHL1   C15 2016   4.629   2.386   5.969  0.2435 -0.2104  0.1330
   28CHL1  H15A 2017   4.654   2.280   5.990 -1.0141 -0.7476 -0.9164
   28CHL1  H15B 2018   4.532   2.415   6.014  0.7103 -1.1451  1.8201
   28CHL1   C16 2019   4.621   2.403   5.811  0.6936  0.2747 -0.3707
   28CHL1  H16A 2020   4.655   2.305   5.772  3.4702 -0.1545  2.7748
   28CHL1  H16B 2021   4.520   2.424   5.769 -1.3255 -1.2242  3.2634
   28CHL1   C17 2022   4.738   2.502   5.784  1.2078 -0.1288  0.3009
   28CHL1   H17 2023   4.694   2.603   5.792 -0.4681 -0.6287 -1.5403
   28CHL1   C13 2024   4.831   2.486   5.904 -0.0096 -0.2466 -0.6900
   28CHL1   C18 2025   4.915   2.356   5.887  0.4344  0.8312  0.1177
   28CHL1  H18A 2026   5.002   2.360   5.818  0.8740 -0.1793  0.5887
   28CHL1  H18B 2027   4.948   2.313   5.984 -1.7265 -0.1432  0.4719
   28CHL1  H18C 2028   4.863   2.269   5.840  2.4179  0.7144 -2.0787
   28CHL1   C12 2029   4.931   2.599   5.947 -0.8144  0.1436  0.4454
   28CHL1  H12A 2030   4.994   2.602   5.855 -0.0785  0.1728  0.9428
   28CHL1  H12B 2031   4.871   2.693   5.947 -2.2538 -0.7131 -1.5502
   28CHL1   C11 2032   5.001   2.576   6.077 -0.0181  0.4245  0.1371
   28CHL1  H11A 2033   5.072   2.491   6.072  2.1460  2.0589  1.0223
   28CHL1  H11B 2034   5.072   2.661   6.088 -1.0236  1.1726  0.9977
   28CHL1    C9 2035   4.901   2.563   6.194 -0.1064  0.3915 -0.0500
   28CHL1    H9 2036   4.853   2.662   6.210 -2.5016 -0.6914 -0.1622
   28CHL1   C10 2037   4.971   2.530   6.328  0.1894  0.1446 -0.1689
   28CHL1   C19 2038   5.053   2.407   6.322 -0.2960  0.2489 -0.3193
   28CHL1  H19A 2039   5.097   2.395   6.423 -1.3967  0.0355  0.1479
   28CHL1  H19B 2040   4.998   2.317   6.286 -1.2448 -0.0557  1.7304
   28CHL1  H19C 2041   5.132   2.419   6.245 -0.6864 -4.9277 -1.9272
   28CHL1    C1 2042   5.062   2.652   6.377 -0.2738  0.5487 -0.4624
   28CHL1   H1A 2043   5.143   2.644   6.302 -1.6961  1.8779 -2.2435
   28CHL1   H1B 2044   5.008   2.749   6.366  0.1195  0.9902  1.2596
   28CHL1    C2 2045   5.113   2.642   6.522  0.0482 -0.1422  0.2742
   28CHL1   H2A 2046   5.169   2.736   6.543 -0.5012  0.0158  1.0750
   28CHL1   H2B 2047   5.188   2.562   6.541  0.4980  0.3728  0.7092
   28CHL1   C20 2048   4.807   2.502   5.636 -0.7011  0.3852 -0.2787
   28CHL1   H20 2049   4.914   2.529   5.641 -0.1314 -1.9255  2.1125
   28CHL1   C21 2050   4.744   2.621   5.562  0.1633 -0.4896 -0.2000
   28CHL1  H21A 2051   4.748   2.716   5.620  3.8814 -2.1808  2.7692
   28CHL1  H21B 2052   4.636   2.609   5.541  0.0132  2.2333 -1.4013
   28CHL1  H21C 2053   4.779   2.641   5.459  3.9756 -1.8341  0.6662
   28CHL1   C22 2054   4.790   2.367   5.566 -0.6868  0.0917 -0.0545
   28CHL1  H22A 2055   4.818   2.285   5.635  1.1941  0.6121 -0.1454
   28CHL1  H22B 2056   4.687   2.352   5.526 -0.4910 -0.1834 -0.4590
   28CHL1   C23 2057   4.883   2.347   5.442 -0.5134 -0.0446  0.3025
   28CHL1  H23A 2058   4.848   2.259   5.384 -0.1388  0.4105 -0.6366
   28CHL1  H23B 2059   4.876   2.436   5.375  1.3209 -0.1005 -0.0305
   28CHL1   C24 2060   5.031   2.333   5.483  0.4499  0.3705  0.0384
   28CHL1  H24A 2061   5.062   2.424   5.538  1.8844 -0.0866  0.0313
   28CHL1  H24B 2062   5.039   2.244   5.550 -2.3429  0.1762  0.2337
   28CHL1   C25 2063   5.138   2.316   5.379  0.6097  0.1505 -0.2194
   28CHL1   H25 2064   5.129   2.409   5.319  0.1345  1.4044  1.6827
   28CHL1   C26 2065   5.279   2.317   5.428 -0.6989 -0.4751  0.3581
   28CHL1  H26A 2066   5.290   2.236   5.503  0.4453  0.5277  1.3221
   28CHL1  H26B 2067   5.360   2.295   5.355 -0.5132  2.5279 -0.4566
   28CHL1  H26C 2068   5.301   2.411   5.483  2.9815 -1.1668  0.3527
   28CHL1   C27 2069   5.114   2.201   5.282 -0.4921 -0.6273  0.1191
   28CHL1  H27A 2070   5.202   2.191   5.215 -1.1728  2.5467 -1.4713
   28CHL1  H27B 2071   5.091   2.101   5.324 -1.9551 -0.7700 -0.9312
   28CHL1  H27C 2072   5.020   2.217   5.224 -0.6843  1.3509  0.9051
   29CHL1    C3 2073   6.422   4.963   3.363 -0.1269 -0.4767  0.0451
   29CHL1    H3 2074   6.430   5.069   3.397  0.1021  0.2983 -2.2428
   29CHL1    O3 2075   6.401   4.956   3.220  0.4491 -0.3921 -0.0354
   29CHL1   H3' 2076   6.326   4.898   3.208  0.3512 -0.3898  0.5390
   29CHL1    C4 2077   6.540   4.876   3.407 -0.0987  0.4022 -0.3184
   29CHL1   H4A 2078   6.535   4.774   3.363 -0.1228  1.1742 -2.2120
   29CHL1   H4B 2079   6.626   4.922   3.354 -1.2209  0.4435 -2.2010
   29CHL1    C5 2080   6.551   4.880   3.558  0.4832  0.5339  0.2742
   29CHL1    C6 2081   6.661   4.920   3.616  0.6286  0.0591 -0.2711
   29CHL1    H6 2082   6.743   4.955   3.551  2.1019 -1.8794  0.4160
   29CHL1    C7 2083   6.683   4.921   3.770 -0.5722  0.2703  0.9104
   29CHL1   H7A 2084   6.787   4.895   3.799 -0.2306 -0.5892 -0.9428
   29CHL1   H7B 2085   6.661   5.022   3.811  0.5767  1.1363 -0.5190
   29CHL1    C8 2086   6.579   4.826   3.841 -0.1681 -0.2057  0.5854
   29CHL1    H8 2087   6.623   4.725   3.827  2.4503  0.7068  1.6905
   29CHL1   C14 2088   6.572   4.861   3.991  0.3997 -0.1214 -0.1370
   29CHL1   H14 2089   6.525   4.961   4.002  0.0591 -0.4056  1.2652
   29CHL1   C15 2090   6.700   4.877   4.069 -0.5147 -0.0360  0.0056
   29CHL1  H15A 2091   6.760   4.784   4.067 -1.7450 -0.8544 -0.0050
   29CHL1  H15B 2092   6.777   4.954   4.047 -1.5345  1.7524  2.2455
   29CHL1   C16 2093   6.654   4.894   4.211 -0.1993  0.2429  0.4581
   29CHL1  H16A 2094   6.711   4.833   4.284 -3.5214 -3.0189  0.6391
   29CHL1  H16B 2095   6.665   5.001   4.238 -2.0441  0.0848  2.1001
   29CHL1   C17 2096   6.503   4.853   4.218 -0.0439 -0.1989 -0.7082
   29CHL1   H17 2097   6.458   4.954   4.213  1.1329  0.2836 -1.9396
   29CHL1   C13 2098   6.473   4.777   4.076  0.3214  0.3478 -0.3352
   29CHL1   C18 2099   6.520   4.627   4.087  0.5603 -0.8508  0.5311
   29CHL1  H18A 2100   6.621   4.628   4.134 -0.0306  2.6268  2.0287
   29CHL1  H18B 2101   6.442   4.576   4.148  0.0459  1.5949  2.0518
   29CHL1  H18C 2102   6.517   4.574   3.990 -2.6203 -0.3459  0.2740
   29CHL1   C12 2103   6.329   4.787   4.021 -0.4568 -0.2931  0.3320
   29CHL1  H12A 2104   6.255   4.715   4.061  0.2118 -0.3998  1.3963
   29CHL1  H12B 2105   6.296   4.892   4.035  0.5050  0.1980 -0.9442
   29CHL1   C11 2106   6.332   4.751   3.870 -0.7049  0.6926  0.7730
   29CHL1  H11A 2107   6.352   4.642   3.862 -0.8347  0.7649 -0.8762
   29CHL1  H11B 2108   6.235   4.771   3.820  0.7494  1.1844 -2.0310
   29CHL1    C9 2109   6.435   4.839   3.780  0.7742  0.3557  0.0296
   29CHL1    H9 2110   6.393   4.941   3.788 -1.6442 -0.3053 -2.6370
   29CHL1   C10 2111   6.428   4.819   3.629  0.3146  0.6020  0.2162
   29CHL1   C19 2112   6.419   4.669   3.601  0.7425 -0.1845 -0.2747
   29CHL1  H19A 2113   6.311   4.646   3.614  0.1972  2.7727  1.2326
   29CHL1  H19B 2114   6.438   4.653   3.493  1.0968  2.5620 -0.6821
   29CHL1  H19C 2115   6.488   4.610   3.665 -1.0863 -1.9797  0.1484
   29CHL1    C1 2116   6.299   4.898   3.577 -0.5402 -0.3891 -0.0302
   29CHL1   H1A 2117   6.206   4.839   3.592 -0.5231 -0.7311 -1.2051
   29CHL1   H1B 2118   6.293   5.002   3.614  1.6933  0.1261 -0.9668
   29CHL1    C2 2119   6.296   4.911   3.423 -0.2983 -0.4424  0.2480
   29CHL1   H2A 2120   6.210   4.978   3.400  0.6255  0.9691  0.7594
   29CHL1   H2B 2121   6.287   4.806   3.390 -1.4052 -0.0981 -0.6218
   29CHL1   C20 2122   6.462   4.782   4.346  0.4760  0.7254  0.3224
   29CHL1   H20 2123   6.501   4.678   4.347 -0.0208  0.5298 -0.1858
   29CHL1   C21 2124   6.305   4.773   4.360  0.3234  1.1436 -0.1063
   29CHL1  H21A 2125   6.268   4.811   4.458 -0.0788 -1.5324  0.8480
   29CHL1  H21B 2126   6.258   4.675   4.340  1.6410  0.5861 -0.5603
   29CHL1  H21C 2127   6.272   4.834   4.273 -1.4108 -0.1293 -0.3858
   29CHL1   C22 2128   6.521   4.851   4.470 -0.2845  0.0531  0.4116
   29CHL1  H22A 2129   6.631   4.841   4.475  0.0165  2.2792 -0.3713
   29CHL1  H22B 2130   6.492   4.958   4.477  0.3819  0.4044 -1.5595
   29CHL1   C23 2131   6.484   4.781   4.610 -0.0043  0.5034  0.2809
   29CHL1  H23A 2132   6.376   4.791   4.633 -0.3241 -1.8245  0.0087
   29CHL1  H23B 2133   6.507   4.677   4.579  1.5439  0.7424  0.5290
   29CHL1   C24 2134   6.568   4.825   4.733  0.4515 -0.2234  0.9157
   29CHL1  H24A 2135   6.667   4.775   4.725 -0.4629 -2.6005  3.1184
   29CHL1  H24B 2136   6.566   4.936   4.730  1.0976 -0.2275 -1.4995
   29CHL1   C25 2137   6.521   4.781   4.870  0.0193  0.2502 -0.4407
   29CHL1   H25 2138   6.416   4.812   4.889 -0.0895  0.4427 -1.2956
   29CHL1   C26 2139   6.529   4.629   4.889 -0.0199 -0.2722 -0.4389
   29CHL1  H26A 2140   6.458   4.585   4.816 -1.5462  0.1537  0.7354
   29CHL1  H26B 2141   6.633   4.591   4.884 -0.5787 -1.9748 -0.0517
   29CHL1  H26C 2142   6.487   4.610   4.990 -1.1518 -0.8676 -0.9936
   29CHL1   C27 2143   6.601   4.852   4.976 -0.4043 -0.1227  0.0259
   29CHL1  H27A 2144   6.705   4.860   4.939 -0.4642 -3.1138 -1.0240
   29CHL1  H27B 2145   6.564   4.957   4.972  1.1563  0.4220 -0.8538
   29CHL1  H27C 2146   6.588   4.814   5.079  0.3931 -1.9084 -0.4971
   30CHL1    C3 2147   4.653   3.655   6.770  0.4360  0.3337 -0.1515
   30CHL1    H3 2148   4.543   3.651   6.785  0.6494 -2.7428  1.3923
   30CHL1    O3 2149   4.718   3.702   6.890  0.6398  0.1345 -0.5418
   30CHL1   H3' 2150   4.672   3.786   6.897  0.6070  0.2793 -2.0238
   30CHL1    C4 2151   4.708   3.528   6.721 -0.3227 -0.5822 -0.3887
   30CHL1   H4A 2152   4.819   3.531   6.723 -0.3133 -0.8068 -0.5578
   30CHL1   H4B 2153   4.672   3.444   6.783 -0.8869  0.9576  1.4805
   30CHL1    C5 2154   4.675   3.488   6.575  0.3876 -0.3908 -0.5496
   30CHL1    C6 2155   4.616   3.370   6.538 -0.4107 -0.2557 -0.2036
   30CHL1    H6 2156   4.584   3.295   6.612  0.7068 -0.7317 -0.1759
   30CHL1    C7 2157   4.600   3.325   6.399 -0.2560  0.2730  0.7734
   30CHL1   H7A 2158   4.657   3.230   6.405 -0.2079  0.3425  1.4713
   30CHL1   H7B 2159   4.491   3.303   6.389 -0.1312  0.2335 -0.7150
   30CHL1    C8 2160   4.651   3.416   6.292 -0.6106  0.1436  0.8279
   30CHL1    H8 2161   4.761   3.398   6.283 -0.9405 -1.2839 -1.5304
   30CHL1   C14 2162   4.589   3.393   6.156  0.4781 -0.7047 -0.1804
   30CHL1   H14 2163   4.482   3.416   6.178  1.3087 -1.0159  5.9198
   30CHL1   C15 2164   4.588   3.248   6.091 -0.8138  0.2077 -0.0069
   30CHL1  H15A 2165   4.691   3.210   6.105 -0.6799  0.5438 -0.0870
   30CHL1  H15B 2166   4.508   3.191   6.143 -1.6964  0.2668 -1.2551
   30CHL1   C16 2167   4.550   3.271   5.941 -0.5991  0.0509 -0.0007
   30CHL1  H16A 2168   4.625   3.228   5.872  0.2786  0.1626  0.8746
   30CHL1  H16B 2169   4.450   3.226   5.924 -1.0246  0.9290  0.0843
   30CHL1   C17 2170   4.544   3.424   5.920 -0.5214  0.2712 -0.6975
   30CHL1   H17 2171   4.438   3.452   5.938 -1.1159 -0.0821 -3.2831
   30CHL1   C13 2172   4.622   3.486   6.040 -0.7129 -0.3127  0.1773
   30CHL1   C18 2173   4.780   3.473   6.003  0.3873  0.3132  0.0817
   30CHL1  H18A 2174   4.810   3.542   5.921 -0.1148  0.2329 -0.1764
   30CHL1  H18B 2175   4.844   3.498   6.090 -0.1359  1.4588  0.1691
   30CHL1  H18C 2176   4.798   3.371   5.965  3.0225  0.6999  0.0934
   30CHL1   C12 2177   4.588   3.628   6.086  0.2920 -0.3545  0.2463
   30CHL1  H12A 2178   4.601   3.709   6.012 -2.4079  0.4232  0.5119
   30CHL1  H12B 2179   4.478   3.636   6.101  0.2411  0.5423 -0.5657
   30CHL1   C11 2180   4.665   3.661   6.215 -0.4251  1.1338  0.6066
   30CHL1  H11A 2181   4.773   3.648   6.195 -0.6939 -4.2369  1.1649
   30CHL1  H11B 2182   4.637   3.763   6.251 -2.6261  0.9175 -0.3378
   30CHL1    C9 2183   4.631   3.564   6.326  0.3331 -0.4738 -0.3215
   30CHL1    H9 2184   4.521   3.578   6.335  0.4250 -0.8167  2.1705
   30CHL1   C10 2185   4.693   3.599   6.474 -0.2311  0.0312  0.5133
   30CHL1   C19 2186   4.848   3.612   6.468  0.6624 -0.5715 -0.6303
   30CHL1  H19A 2187   4.883   3.697   6.406 -1.8301  1.4382  0.5689
   30CHL1  H19B 2188   4.901   3.637   6.563  0.4627  1.6101 -1.0333
   30CHL1  H19C 2189   4.891   3.512   6.444 -0.4599 -2.3506  3.7292
   30CHL1    C1 2190   4.625   3.724   6.528 -0.2017  0.2594  0.3137
   30CHL1   H1A 2191   4.643   3.816   6.468  1.8216 -0.2576  0.0816
   30CHL1   H1B 2192   4.516   3.704   6.513 -0.0648  0.4664 -1.0824
   30CHL1    C2 2193   4.670   3.762   6.669 -0.2007 -0.0817 -0.5928
   30CHL1   H2A 2194   4.613   3.849   6.708 -0.1650 -0.9219  1.4748
   30CHL1   H2B 2195   4.775   3.797   6.675 -0.7554  1.4596  1.7241
   30CHL1   C20 2196   4.567   3.471   5.779  0.1650 -0.0586  0.1367
   30CHL1   H20 2197   4.660   3.429   5.734 -0.0688 -0.7915  0.3250
   30CHL1   C21 2198   4.568   3.625   5.759 -0.3347 -0.0635  0.0528
   30CHL1  H21A 2199   4.573   3.652   5.651 -1.9122 -2.3969 -0.6795
   30CHL1  H21B 2200   4.657   3.666   5.812 -1.6388  1.7294  0.9571
   30CHL1  H21C 2201   4.477   3.669   5.804  0.2857  1.6528 -0.3104
   30CHL1   C22 2202   4.464   3.406   5.681  0.5666  0.0050 -0.4087
   30CHL1  H22A 2203   4.448   3.297   5.696  1.3550  0.0436  0.8372
   30CHL1  H22B 2204   4.360   3.424   5.716  0.4933 -3.0792  1.2611
   30CHL1   C23 2205   4.478   3.437   5.531 -0.1659  0.5877  0.0423
   30CHL1  H23A 2206   4.445   3.542   5.515 -3.2767 -0.2649  0.1486
   30CHL1  H23B 2207   4.587   3.431   5.513 -0.3605 -0.3849 -0.8696
   30CHL1   C24 2208   4.388   3.354   5.443 -0.5526 -0.0223 -0.1070
   30CHL1  H24A 2209   4.423   3.251   5.466 -0.6197 -0.3236 -1.2942
   30CHL1  H24B 2210   4.279   3.349   5.463 -0.7311 -0.5624 -1.1778
   30CHL1   C25 2211   4.400   3.364   5.286  0.6964 -0.0179 -0.1248
   30CHL1   H25 2212   4.344   3.455   5.255  0.4376 -0.8655 -2.3259
   30CHL1   C26 2213   4.544   3.377   5.241 -0.4318  0.0550  1.1245
   30CHL1  H26A 2214   4.559   3.366   5.131  1.4235  0.4353  1.3035
   30CHL1  H26B 2215   4.595   3.470   5.275 -2.8608  2.1008 -0.4859
   30CHL1  H26C 2216   4.602   3.292   5.282  0.0009 -0.1458  0.1277
   30CHL1   C27 2217   4.329   3.237   5.227 -0.4409  0.5280 -0.9312
   30CHL1  H27A 2218   4.303   3.264   5.122  1.0148 -0.4178 -1.5648
   30CHL1  H27B 2219   4.396   3.151   5.248 -0.1417  1.3172  1.7729
   30CHL1  H27C 2220   4.232   3.216   5.277  0.0976  0.2833  0.0406
   31CHL1    C3 2221   0.213   0.769   3.428  0.1733 -0.9759  0.1077
   31CHL1    H3 2222   0.132   0.842   3.451  1.3696  0.7542 -0.9260
   31CHL1    O3 2223   0.212   0.726   3.290 -0.4019  0.0580  0.2264
   31CHL1   H3' 2224   0.280   0.659   3.283 -0.6764 -0.1797 -0.2082
   31CHL1    C4 2225   0.347   0.836   3.457  0.1237  1.0844 -0.4992
   31CHL1   H4A 2226   0.426   0.761   3.434 -0.8189 -0.1988  0.3153
   31CHL1   H4B 2227   0.361   0.925   3.391 -0.2303  0.2696 -1.7215
   31CHL1    C5 2228   0.367   0.877   3.603  0.5186  0.3929  0.0464
   31CHL1    C6 2229   0.405   1.002   3.635  0.4583  0.1007  0.0064
   31CHL1    H6 2230   0.419   1.075   3.554  1.2693  1.1969  1.0891
   31CHL1    C7 2231   0.426   1.046   3.777  0.2920  0.3266  0.3739
   31CHL1   H7A 2232   0.524   1.097   3.780  0.9831 -0.9825  1.6459
   31CHL1   H7B 2233   0.343   1.115   3.804 -0.6349 -0.0261 -1.4305
   31CHL1    C8 2234   0.435   0.941   3.885  0.4743  0.4787  0.1991
   31CHL1    H8 2235   0.535   0.898   3.906 -0.0879 -0.3927  1.1965
   31CHL1   C14 2236   0.393   1.004   4.021  0.5297  0.2050 -0.0321
   31CHL1   H14 2237   0.293   1.050   4.006 -0.1610 -1.0963  0.4125
   31CHL1   C15 2238   0.471   1.125   4.064 -0.0628  0.2568  0.7038
   31CHL1  H15A 2239   0.581   1.108   4.059 -0.3309 -1.7471  1.1431
   31CHL1  H15B 2240   0.446   1.224   4.020  0.4369 -0.2884 -0.8678
   31CHL1   C16 2241   0.442   1.136   4.211  0.0198  0.0418  1.0288
   31CHL1  H16A 2242   0.535   1.144   4.271  0.0421  1.2536  0.8430
   31CHL1  H16B 2243   0.373   1.222   4.223 -1.7324 -1.0627 -0.4797
   31CHL1   C17 2244   0.352   1.007   4.253 -0.2978  0.1977  0.1184
   31CHL1   H17 2245   0.247   1.042   4.244 -0.0748  0.5051 -1.8212
   31CHL1   C13 2246   0.385   0.903   4.142  0.5176  0.4013  0.4132
   31CHL1   C18 2247   0.529   0.844   4.159  0.0501 -0.7472 -0.8356
   31CHL1  H18A 2248   0.606   0.924   4.167  1.1562 -1.7841 -0.8808
   31CHL1  H18B 2249   0.526   0.773   4.245 -4.0107 -0.8839 -0.9181
   31CHL1  H18C 2250   0.556   0.788   4.068 -0.1696  3.0066 -3.4648
   31CHL1   C12 2251   0.277   0.797   4.107 -0.2812  1.1489 -0.3002
   31CHL1  H12A 2252   0.280   0.724   4.191  1.4194  1.1659 -0.3137
   31CHL1  H12B 2253   0.176   0.843   4.102 -0.4490  0.6669 -1.4132
   31CHL1   C11 2254   0.310   0.724   3.965 -0.8199 -0.3320 -0.3094
   31CHL1  H11A 2255   0.406   0.667   3.969 -0.3688  0.4583  0.7863
   31CHL1  H11B 2256   0.225   0.660   3.935 -0.6824  0.2687 -2.0523
   31CHL1    C9 2257   0.328   0.832   3.852  0.1934 -0.4830  0.3761
   31CHL1    H9 2258   0.226   0.876   3.856 -0.7466 -2.4454 -0.5088
   31CHL1   C10 2259   0.350   0.771   3.708  0.1282  0.4309 -0.3898
   31CHL1   C19 2260   0.471   0.674   3.701  0.1997 -0.6936 -0.3735
   31CHL1  H19A 2261   0.562   0.726   3.739 -2.6273  1.8714  3.7742
   31CHL1  H19B 2262   0.452   0.592   3.773  0.7881 -1.2090 -0.7991
   31CHL1  H19C 2263   0.489   0.622   3.605  0.1442 -1.8802  0.2465
   31CHL1    C1 2264   0.222   0.687   3.671 -0.3849  0.6732  0.1022
   31CHL1   H1A 2265   0.225   0.592   3.727  1.8673 -0.7929 -2.2824
   31CHL1   H1B 2266   0.131   0.740   3.706  0.9771  1.1235  3.3403
   31CHL1    C2 2267   0.208   0.647   3.522 -0.2240 -0.6322 -0.0505
   31CHL1   H2A 2268   0.115   0.587   3.519  0.7083 -2.3045  1.8496
   31CHL1   H2B 2269   0.279   0.567   3.492 -2.1835 -1.3463 -3.1381
   31CHL1   C20 2270   0.381   0.967   4.399 -0.5628  0.3939 -0.0433
   31CHL1   H20 2271   0.485   0.934   4.418 -0.3509  1.1820  0.2052
   31CHL1   C21 2272   0.280   0.857   4.446  0.4968  0.4967 -0.6853
   31CHL1  H21A 2273   0.177   0.886   4.415 -0.2154  0.6112  1.6050
   31CHL1  H21B 2274   0.291   0.853   4.557  2.8412 -0.8254 -0.9053
   31CHL1  H21C 2275   0.302   0.757   4.404  1.4498  0.6023 -0.4484
   31CHL1   C22 2276   0.353   1.089   4.497  0.1832  0.0717 -0.0823
   31CHL1  H22A 2277   0.396   1.180   4.451 -1.8236  2.5005  2.5057
   31CHL1  H22B 2278   0.245   1.113   4.500  0.2077  0.2431 -0.5211
   31CHL1   C23 2279   0.408   1.072   4.641 -0.4151 -0.1389 -0.4699
   31CHL1  H23A 2280   0.354   0.989   4.691 -1.1584  0.7855  0.3091
   31CHL1  H23B 2281   0.517   1.052   4.639 -0.4831 -0.4800 -1.3003
   31CHL1   C24 2282   0.374   1.198   4.724 -0.3231 -0.3436  0.6710
   31CHL1  H24A 2283   0.438   1.276   4.678 -0.1810 -0.4133  0.7486
   31CHL1  H24B 2284   0.266   1.223   4.717  0.2835  2.0654 -3.3362
   31CHL1   C25 2285   0.412   1.195   4.873  0.7941  0.0354 -0.3911
   31CHL1   H25 2286   0.373   1.287   4.921  1.1396 -0.9211  1.8237
   31CHL1   C26 2287   0.335   1.074   4.943 -0.3479 -0.1099 -0.2910
   31CHL1  H26A 2288   0.229   1.068   4.909 -0.4077 -2.1816  0.1356
   31CHL1  H26B 2289   0.387   0.980   4.915 -0.8110 -0.0774 -1.3323
   31CHL1  H26C 2290   0.340   1.075   5.054  0.5469  0.3729 -0.3271
   31CHL1   C27 2291   0.560   1.190   4.912 -0.1876  0.0062  0.1999
   31CHL1  H27A 2292   0.613   1.110   4.857 -1.8354 -0.6067 -0.5788
   31CHL1  H27B 2293   0.609   1.288   4.891  0.0634 -0.2824 -0.5921
   31CHL1  H27C 2294   0.557   1.184   5.023 -0.6745  2.4161  0.3937
   32CHL1    C3 2295   6.641   5.916   3.195 -0.0861 -0.3489 -0.3230
   32CHL1    H3 2296   6.717   5.981   3.244 -1.6175 -0.1812  1.9367
   32CHL1    O3 2297   6.672   5.884   3.064 -0.3916 -0.6599  0.3863
   32CHL1   H3' 2298   6.740   5.816   3.069 -0.9107 -1.4427 -2.0758
   32CHL1    C4 2299   6.628   5.785   3.282 -0.1085  0.2732 -0.4039
   32CHL1   H4A 2300   6.547   5.726   3.234 -0.0952 -0.9672  1.0522
   32CHL1   H4B 2301   6.725   5.734   3.268  0.6073  1.7515 -1.0420
   32CHL1    C5 2302   6.577   5.810   3.416 -0.6606  0.2702 -0.6201
   32CHL1    C6 2303   6.635   5.755   3.522  1.0551  0.4100  0.4875
   32CHL1    H6 2304   6.716   5.683   3.506 -0.0903 -1.1986  1.6256
   32CHL1    C7 2305   6.592   5.770   3.670 -0.2076  0.2424  0.6458
   32CHL1   H7A 2306   6.593   5.668   3.715 -2.0092  0.4631  1.2708
   32CHL1   H7B 2307   6.656   5.837   3.731 -0.8026  1.0521  0.3945
   32CHL1    C8 2308   6.457   5.836   3.681 -0.0799 -0.6548 -0.6014
   32CHL1    H8 2309   6.386   5.752   3.669 -0.5984 -1.0055  3.4733
   32CHL1   C14 2310   6.438   5.893   3.818  0.5808 -0.2293 -0.1140
   32CHL1   H14 2311   6.503   5.982   3.829  0.0052 -0.0767  2.9005
   32CHL1   C15 2312   6.466   5.806   3.939 -0.2572 -0.3443  0.1280
   32CHL1  H15A 2313   6.434   5.700   3.925 -0.1074 -0.3747  0.0168
   32CHL1  H15B 2314   6.574   5.795   3.960 -0.6202 -1.1305  1.8181
   32CHL1   C16 2315   6.382   5.864   4.059 -0.7316 -0.3430 -0.2837
   32CHL1  H16A 2316   6.317   5.789   4.108 -0.7539  0.0482  0.2964
   32CHL1  H16B 2317   6.448   5.905   4.138  0.1183  1.5390 -1.8660
   32CHL1   C17 2318   6.306   5.976   3.995  0.7193  0.3054  0.7079
   32CHL1   H17 2319   6.361   6.073   3.998  0.2258  0.5770  1.6599
   32CHL1   C13 2320   6.301   5.942   3.841 -0.1781  0.1658 -0.0117
   32CHL1   C18 2321   6.193   5.832   3.828  0.2692 -0.0600 -0.1024
   32CHL1  H18A 2322   6.209   5.738   3.886  1.1263  0.1589  0.0299
   32CHL1  H18B 2323   6.092   5.876   3.845 -0.1360 -0.8706 -0.3639
   32CHL1  H18C 2324   6.182   5.801   3.722  1.2592  2.6991 -1.1013
   32CHL1   C12 2325   6.278   6.064   3.744 -0.5858  0.1482  0.5385
   32CHL1  H12A 2326   6.181   6.115   3.760 -0.7316  0.0946 -0.1459
   32CHL1  H12B 2327   6.358   6.140   3.755  1.2852 -1.5590 -0.5341
   32CHL1   C11 2328   6.294   6.024   3.600  0.3034 -0.2732  0.4110
   32CHL1  H11A 2329   6.208   5.960   3.571  0.4752 -0.3017 -0.0387
   32CHL1  H11B 2330   6.299   6.116   3.539  1.7767 -0.7228 -0.1899
   32CHL1    C9 2331   6.433   5.948   3.580 -0.2053 -0.0619  0.6798
   32CHL1    H9 2332   6.507   6.027   3.606 -2.6680  2.0140  1.8462
   32CHL1   C10 2333   6.458   5.904   3.431  0.2602  0.5971  0.9161
   32CHL1   C19 2334   6.331   5.836   3.372  0.1908 -0.4941  0.0654
   32CHL1  H19A 2335   6.256   5.916   3.359  1.8715  1.0692 -0.4558
   32CHL1  H19B 2336   6.334   5.795   3.269  0.6587 -0.6192  0.1240
   32CHL1  H19C 2337   6.287   5.764   3.444  0.0786 -1.9690 -1.4199
   32CHL1    C1 2338   6.484   6.027   3.338 -0.2802  0.1718  0.5843
   32CHL1   H1A 2339   6.395   6.094   3.329 -0.2733  0.2136  0.8277
   32CHL1   H1B 2340   6.570   6.088   3.373  0.0923 -1.0466  1.8653
   32CHL1    C2 2341   6.516   5.988   3.193 -0.1071 -0.6087 -0.1438
   32CHL1   H2A 2342   6.524   6.078   3.129  0.9720 -0.6505 -0.0928
   32CHL1   H2B 2343   6.439   5.936   3.132 -0.3059  1.9144 -2.1869
   32CHL1   C20 2344   6.181   6.004   4.082 -0.3724  0.1182 -0.6224
   32CHL1   H20 2345   6.110   5.920   4.069  2.3123 -2.9037  2.4234
   32CHL1   C21 2346   6.126   6.142   4.032  0.6133 -0.1033  0.9818
   32CHL1  H21A 2347   6.048   6.184   4.098 -0.6016 -2.7199  1.3417
   32CHL1  H21B 2348   6.074   6.122   3.935  1.6295 -2.8444  0.9054
   32CHL1  H21C 2349   6.204   6.217   4.009 -1.1962  1.3402 -0.8270
   32CHL1   C22 2350   6.210   6.027   4.233  0.1650  0.0985  0.3925
   32CHL1  H22A 2351   6.286   5.958   4.276 -1.6712 -1.4675  1.2854
   32CHL1  H22B 2352   6.262   6.125   4.231 -0.3643  0.3721 -0.1034
   32CHL1   C23 2353   6.088   5.999   4.314 -0.0814  0.5899 -0.2395
   32CHL1  H23A 2354   6.003   6.058   4.273  0.5535  0.8918 -1.1260
   32CHL1  H23B 2355   6.067   5.891   4.302  1.1809  0.4478 -1.4489
   32CHL1   C24 2356   6.106   6.027   4.465  0.7301 -0.0831 -1.0030
   32CHL1  H24A 2357   6.170   5.947   4.507 -0.1278 -0.2218  0.1072
   32CHL1  H24B 2358   6.154   6.126   4.485 -1.9774  0.5702  4.4406
   32CHL1   C25 2359   5.977   6.036   4.545  0.1858 -0.7270  0.4039
   32CHL1   H25 2360   5.917   6.111   4.489  0.7967 -0.4322  0.1296
   32CHL1   C26 2361   5.907   5.905   4.533  1.0082 -0.3519  0.1258
   32CHL1  H26A 2362   5.819   5.908   4.600  1.3628 -0.4706  0.5985
   32CHL1  H26B 2363   5.876   5.882   4.428  2.0833  0.1421 -0.3108
   32CHL1  H26C 2364   5.970   5.819   4.564  1.6408  0.1554  0.2667
   32CHL1   C27 2365   5.996   6.077   4.690 -0.7927 -0.0059  0.9850
   32CHL1  H27A 2366   5.896   6.107   4.729 -0.8006  0.0033  0.9571
   32CHL1  H27B 2367   6.042   5.991   4.743 -1.2709  0.7492  2.7045
   32CHL1  H27C 2368   6.064   6.165   4.694  0.0871 -0.5608 -0.9101
   33CHL1    C3 2369   0.053   5.794   3.190  0.2053 -0.0779 -0.2935
   33CHL1    H3 2370  -0.049   5.750   3.194 -0.6490  1.8751  1.4369
   33CHL1    O3 2371   0.103   5.778   3.055 -0.4534 -0.0546  0.3382
   33CHL1   H3' 2372   0.197   5.768   3.073 -0.7984 -0.6132  2.0838
   33CHL1    C4 2373   0.044   5.948   3.221 -0.5538 -0.6898 -0.3859
   33CHL1   H4A 2374   0.145   5.991   3.207 -0.7175 -0.1929 -0.0615
   33CHL1   H4B 2375  -0.028   5.979   3.143 -0.1934 -2.3801 -1.4312
   33CHL1    C5 2376   0.000   5.981   3.358 -0.1361 -0.1310  0.0453
   33CHL1    C6 2377  -0.102   6.060   3.383 -0.1244  0.1593 -0.1051
   33CHL1    H6 2378  -0.144   6.109   3.294 -0.5985  1.4687  0.8080
   33CHL1    C7 2379  -0.154   6.095   3.521 -0.2106 -0.0297 -0.0553
   33CHL1   H7A 2380  -0.165   6.206   3.523  0.1067 -0.0076  0.6815
   33CHL1   H7B 2381  -0.259   6.062   3.535 -1.2003  2.5522 -0.7751
   33CHL1    C8 2382  -0.068   6.053   3.633  0.3596  0.4025  0.2966
   33CHL1    H8 2383   0.027   6.110   3.631  0.8387 -0.2427  2.0972
   33CHL1   C14 2384  -0.143   6.043   3.759  0.5746 -0.6044  0.1105
   33CHL1   H14 2385  -0.227   5.974   3.740  0.1450 -0.1437  0.3190
   33CHL1   C15 2386  -0.218   6.176   3.808 -0.0976 -0.7516  1.1974
   33CHL1  H15A 2387  -0.170   6.274   3.785 -0.7525 -0.6879  0.0075
   33CHL1  H15B 2388  -0.316   6.179   3.755  0.7751 -3.3395 -0.7596
   33CHL1   C16 2389  -0.233   6.151   3.951  0.0321  0.0610 -0.0049
   33CHL1  H16A 2390  -0.173   6.219   4.014  3.4814 -1.1094 -1.7966
   33CHL1  H16B 2391  -0.339   6.159   3.985 -0.4752 -0.5380 -1.3458
   33CHL1   C17 2392  -0.171   6.011   3.983 -0.8544  0.1617 -0.0314
   33CHL1   H17 2393  -0.246   5.931   3.970 -1.9816  1.0230  0.9199
   33CHL1   C13 2394  -0.065   5.993   3.872 -0.1892  0.3841  0.4335
   33CHL1   C18 2395   0.058   6.082   3.906  0.2325  0.0325 -0.2185
   33CHL1  H18A 2396   0.110   6.110   3.811  0.8309  2.0763  0.6625
   33CHL1  H18B 2397   0.038   6.184   3.946  1.3387  0.3153 -0.3384
   33CHL1  H18C 2398   0.128   6.030   3.974 -0.6300  1.4277  1.8408
   33CHL1   C12 2399  -0.009   5.853   3.847  0.1775  0.0920 -0.0945
   33CHL1  H12A 2400   0.063   5.833   3.929 -1.1489  0.3112  1.1509
   33CHL1  H12B 2401  -0.089   5.778   3.863  0.1676  0.2132  0.4275
   33CHL1   C11 2402   0.063   5.849   3.713 -0.3332 -0.1576  0.4324
   33CHL1  H11A 2403   0.162   5.896   3.728 -0.5274 -0.3828  2.7661
   33CHL1  H11B 2404   0.084   5.741   3.701  1.2685  0.4458 -3.6206
   33CHL1    C9 2405  -0.015   5.914   3.601 -0.0994  0.0682  0.3964
   33CHL1    H9 2406  -0.110   5.857   3.589 -0.1306  0.2699 -0.3245
   33CHL1   C10 2407   0.066   5.908   3.469 -0.1446 -0.1759 -0.1981
   33CHL1   C19 2408   0.207   5.970   3.491 -0.1274  0.4390 -0.1657
   33CHL1  H19A 2409   0.257   5.997   3.396 -0.7726 -0.0763 -0.6584
   33CHL1  H19B 2410   0.212   6.064   3.550  0.8757  1.6970 -2.1456
   33CHL1  H19C 2411   0.272   5.900   3.548  3.1958  1.2935 -2.5921
   33CHL1    C1 2412   0.075   5.756   3.425  0.3804 -0.0330  0.0450
   33CHL1   H1A 2413   0.131   5.701   3.503  1.7699 -0.5189 -1.2427
   33CHL1   H1B 2414  -0.024   5.705   3.425 -0.1452  0.9134  1.9872
   33CHL1    C2 2415   0.135   5.720   3.289  0.1290  0.1879 -0.1828
   33CHL1   H2A 2416   0.130   5.611   3.269  0.2869 -0.4141  2.5996
   33CHL1   H2B 2417   0.243   5.745   3.279  0.8194 -2.7924 -1.0977
   33CHL1   C20 2418  -0.132   5.996   4.137 -0.0523 -0.6079  0.7254
   33CHL1   H20 2419  -0.041   6.055   4.160 -0.9300  0.6917  0.9319
   33CHL1   C21 2420  -0.114   5.853   4.171  0.5181  0.3105  0.2747
   33CHL1  H21A 2421  -0.048   5.791   4.106  0.5100 -1.0975  1.5355
   33CHL1  H21B 2422  -0.211   5.801   4.180  1.5022 -1.3445  2.5417
   33CHL1  H21C 2423  -0.079   5.855   4.277 -0.2820 -2.2975  0.6807
   33CHL1   C22 2424  -0.248   6.065   4.226 -0.1423  0.5471 -0.3886
   33CHL1  H22A 2425  -0.260   6.174   4.209 -1.5787  0.2925 -1.1307
   33CHL1  H22B 2426  -0.340   6.007   4.203  2.2575 -3.2156 -1.3629
   33CHL1   C23 2427  -0.224   6.057   4.378  0.7993 -0.0682  0.3896
   33CHL1  H23A 2428  -0.312   6.107   4.423  0.4076  1.1118 -1.5377
   33CHL1  H23B 2429  -0.233   5.950   4.409  0.1227 -0.4362 -0.9933
   33CHL1   C24 2430  -0.084   6.111   4.433 -0.2292 -0.7434  0.0676
   33CHL1  H24A 2431  -0.006   6.075   4.364  0.1609 -0.0737  0.1480
   33CHL1  H24B 2432  -0.088   6.222   4.440  0.8409 -0.7807  3.5426
   33CHL1   C25 2433  -0.056   6.073   4.578 -0.7045 -0.0826 -0.0627
   33CHL1   H25 2434  -0.026   5.967   4.576 -0.4175 -0.0046  0.1213
   33CHL1   C26 2435   0.075   6.128   4.639  0.3055 -0.3751 -0.6001
   33CHL1  H26A 2436   0.093   6.077   4.736  1.0093  0.8282 -0.0729
   33CHL1  H26B 2437   0.163   6.118   4.571  1.7478 -1.8891  1.3722
   33CHL1  H26C 2438   0.057   6.236   4.659 -0.3829 -0.1934 -2.0560
   33CHL1   C27 2439  -0.170   6.101   4.676  0.6277  0.0778 -0.0918
   33CHL1  H27A 2440  -0.183   6.211   4.687  0.3741  0.1949 -1.4001
   33CHL1  H27B 2441  -0.264   6.054   4.641  0.4001  0.0876  0.5026
   33CHL1  H27C 2442  -0.138   6.055   4.772 -1.4269 -0.6657  0.2900
   34CHL1    C3 2443   0.453   1.852   3.243 -0.0762 -0.4483 -0.0059
   34CHL1    H3 2444   0.393   1.767   3.282  2.4008 -0.4712  4.3991
   34CHL1    O3 2445   0.474   1.828   3.108 -0.0670  0.3146  0.2364
   34CHL1   H3' 2446   0.526   1.900   3.072  1.2914 -0.6108  0.2920
   34CHL1    C4 2447   0.382   1.984   3.264  0.4548  0.5965 -0.4364
   34CHL1   H4A 2448   0.454   2.064   3.234 -0.9910  0.8028 -3.9003
   34CHL1   H4B 2449   0.306   2.001   3.184 -0.0577  0.8456  0.0950
   34CHL1    C5 2450   0.340   2.020   3.408 -0.1106  0.7872  0.5790
   34CHL1    C6 2451   0.211   2.051   3.440 -0.3361  0.2654  0.2048
   34CHL1    H6 2452   0.139   2.068   3.359 -0.7253  0.7494  0.6423
   34CHL1    C7 2453   0.163   2.058   3.585 -0.9183  0.6474  0.3145
   34CHL1   H7A 2454   0.102   2.149   3.605 -2.3195 -0.5385  1.6283
   34CHL1   H7B 2455   0.104   1.966   3.605 -0.0027 -1.3922 -4.8683
   34CHL1    C8 2456   0.280   2.057   3.689 -0.4059 -0.8645 -0.3765
   34CHL1    H8 2457   0.317   2.162   3.694  1.7216 -1.5977  0.1849
   34CHL1   C14 2458   0.228   2.023   3.830  0.0357 -0.0158  0.2037
   34CHL1   H14 2459   0.176   1.926   3.813 -0.1537  0.2230 -0.6414
   34CHL1   C15 2460   0.119   2.111   3.880 -0.6393  0.1583  0.2539
   34CHL1  H15A 2461   0.133   2.221   3.873 -1.5984  0.1787 -3.4354
   34CHL1  H15B 2462   0.024   2.082   3.830  0.4755 -1.4373 -1.0319
   34CHL1   C16 2463   0.113   2.061   4.027  0.2153  0.3382  0.1620
   34CHL1  H16A 2464   0.109   2.148   4.096  1.9827 -1.3205  2.5109
   34CHL1  H16B 2465   0.026   1.997   4.048  2.4651 -2.1592  2.5261
   34CHL1   C17 2466   0.239   1.976   4.054 -0.6065 -0.3901  0.0524
   34CHL1   H17 2467   0.216   1.868   4.044  2.6328 -1.3233  1.2432
   34CHL1   C13 2468   0.337   2.006   3.941 -0.0566  0.4805 -0.2437
   34CHL1   C18 2469   0.412   2.143   3.964  0.8296 -0.0273 -0.0216
   34CHL1  H18A 2470   0.483   2.138   4.049 -0.4114  0.8630  1.1195
   34CHL1  H18B 2471   0.475   2.178   3.880  0.7129 -0.0468 -0.1172
   34CHL1  H18C 2472   0.339   2.226   3.979  0.1274 -0.4260 -1.1563
   34CHL1   C12 2473   0.440   1.896   3.901  0.0845 -0.6739  0.9075
   34CHL1  H12A 2474   0.526   1.889   3.972 -0.0112  1.9119  1.3938
   34CHL1  H12B 2475   0.396   1.794   3.893  0.6401 -1.0927  2.6220
   34CHL1   C11 2476   0.500   1.935   3.759  0.0363  0.3877  0.2569
   34CHL1  H11A 2477   0.568   2.022   3.772  2.2328 -1.4305  1.3668
   34CHL1  H11B 2478   0.574   1.861   3.723 -1.1355 -1.1086  0.8484
   34CHL1    C9 2479   0.392   1.962   3.644  0.1465  0.0912 -0.0597
   34CHL1    H9 2480   0.341   1.863   3.638  0.2174  0.1568 -2.2308
   34CHL1   C10 2481   0.456   1.988   3.510 -0.0763  0.1770  0.0712
   34CHL1   C19 2482   0.534   2.118   3.516  0.3554  0.0780  0.1581
   34CHL1  H19A 2483   0.476   2.208   3.543  0.1588  0.3634 -1.1480
   34CHL1  H19B 2484   0.614   2.110   3.593  0.3477 -2.8199 -0.0160
   34CHL1  H19C 2485   0.583   2.153   3.423  2.8061 -0.1826  1.2448
   34CHL1    C1 2486   0.556   1.876   3.465 -0.3469  0.6758 -0.7438
   34CHL1   H1A 2487   0.645   1.880   3.531 -1.7057 -1.5784  1.3916
   34CHL1   H1B 2488   0.520   1.775   3.493  1.0293  0.1693 -0.7141
   34CHL1    C2 2489   0.588   1.852   3.316  1.0234  0.7533 -0.0713
   34CHL1   H2A 2490   0.651   1.763   3.293 -1.9575 -0.9280 -2.5556
   34CHL1   H2B 2491   0.651   1.939   3.288  1.9122  0.3390  0.5702
   34CHL1   C20 2492   0.288   2.000   4.198  0.4240  0.4133 -0.4449
   34CHL1   H20 2493   0.313   2.108   4.202 -1.5062  1.0665 -3.1101
   34CHL1   C21 2494   0.412   1.930   4.230 -0.1946  0.1631 -0.0917
   34CHL1  H21A 2495   0.409   1.820   4.213  0.2823  0.1256  0.0723
   34CHL1  H21B 2496   0.459   1.950   4.328  1.1743 -1.6072 -0.3362
   34CHL1  H21C 2497   0.494   1.955   4.160  1.2844 -0.4734  1.3697
   34CHL1   C22 2498   0.173   1.972   4.301  0.0553  0.2327  0.0654
   34CHL1  H22A 2499   0.094   2.049   4.288  0.7015  0.8800 -0.0730
   34CHL1  H22B 2500   0.119   1.879   4.274 -1.2209  1.3237 -1.3254
   34CHL1   C23 2501   0.210   1.961   4.444 -0.0334 -0.5368 -0.1097
   34CHL1  H23A 2502   0.123   1.931   4.507  0.1176 -0.1026  0.3107
   34CHL1  H23B 2503   0.297   1.895   4.462 -0.2058 -0.6335  0.3811
   34CHL1   C24 2504   0.242   2.094   4.519 -0.0194  0.1176  0.2244
   34CHL1  H24A 2505   0.323   2.150   4.468  0.9422  0.3488  1.9328
   34CHL1  H24B 2506   0.158   2.164   4.508  0.4108  0.6117  0.0388
   34CHL1   C25 2507   0.292   2.069   4.669  0.4638  0.0571  0.0399
   34CHL1   H25 2508   0.243   1.973   4.696 -0.9008  1.0454  1.1938
   34CHL1   C26 2509   0.446   2.045   4.684  0.5532 -0.0976 -0.6798
   34CHL1  H26A 2510   0.491   1.994   4.595  2.0844 -0.2121  0.1310
   34CHL1  H26B 2511   0.491   2.144   4.704  1.0790 -0.4599 -0.0664
   34CHL1  H26C 2512   0.464   1.993   4.780 -1.9213  0.7519  0.3221
   34CHL1   C27 2513   0.248   2.176   4.766 -0.2003 -0.3468 -0.1060
   34CHL1  H27A 2514   0.139   2.189   4.752 -0.2955  0.0828  1.0267
   34CHL1  H27B 2515   0.266   2.157   4.874  1.0776 -0.0022 -0.2369
   34CHL1  H27C 2516   0.306   2.269   4.748 -0.8237  0.0662  0.0324
   35CHL1    C3 2517   5.328   0.164   2.628  0.0359 -0.1189 -0.0198
   35CHL1    H3 2518   5.220   0.191   2.640  0.3496  1.2316 -0.0376
   35CHL1    O3 2519   5.372   0.202   2.495 -0.2804  0.5104  0.1707
   35CHL1   H3' 2520   5.302   0.174   2.436 -0.9837 -1.4943  1.8251
   35CHL1    C4 2521   5.418   0.245   2.726  0.2013  0.4112 -0.4895
   35CHL1   H4A 2522   5.522   0.207   2.719  0.2540  0.8224 -2.5609
   35CHL1   H4B 2523   5.416   0.353   2.700  2.2551  0.3886 -0.9637
   35CHL1    C5 2524   5.381   0.212   2.871 -0.1531  0.3861 -0.4010
   35CHL1    C6 2525   5.345   0.300   2.962  0.4533  0.0813 -0.0198
   35CHL1    H6 2526   5.356   0.405   2.934  1.5178  0.1437  0.5449
   35CHL1    C7 2527   5.321   0.274   3.108 -0.1615 -0.4582  0.5120
   35CHL1   H7A 2528   5.358   0.357   3.172  2.2167 -0.8692 -0.2598
   35CHL1   H7B 2529   5.210   0.270   3.121 -0.2527 -0.5407 -0.2772
   35CHL1    C8 2530   5.359   0.127   3.158  0.2157 -0.1783 -0.9750
   35CHL1    H8 2531   5.468   0.120   3.179 -0.0313  0.6748  0.7325
   35CHL1   C14 2532   5.289   0.095   3.288  0.6964  0.4205  0.5330
   35CHL1   H14 2533   5.180   0.107   3.269  1.0752  1.6717 -1.0130
   35CHL1   C15 2534   5.311   0.176   3.413 -0.1081  0.1930  0.1131
   35CHL1  H15A 2535   5.419   0.192   3.431  0.0691 -2.1871  1.6597
   35CHL1  H15B 2536   5.254   0.271   3.403 -0.5237  0.2213  2.2140
   35CHL1   C16 2537   5.248   0.086   3.524 -0.3319 -0.5787  0.0519
   35CHL1  H16A 2538   5.329   0.064   3.597  0.8207 -1.0836 -1.3430
   35CHL1  H16B 2539   5.158   0.137   3.564 -2.3967 -4.0949  0.2973
   35CHL1   C17 2540   5.206  -0.051   3.460 -0.2485  0.2043  0.0930
   35CHL1   H17 2541   5.099  -0.042   3.431 -0.3190  0.7630  0.5041
   35CHL1   C13 2542   5.293  -0.055   3.335  0.4833 -0.0846  0.8203
   35CHL1   C18 2543   5.433  -0.098   3.380 -0.2546  0.8608  0.1285
   35CHL1  H18A 2544   5.467  -0.062   3.479  3.0234 -1.4843 -0.0051
   35CHL1  H18B 2545   5.421  -0.206   3.404  0.4529  0.4859 -1.1395
   35CHL1  H18C 2546   5.513  -0.096   3.303 -1.3471  0.8655 -1.0378
   35CHL1   C12 2547   5.245  -0.147   3.218  0.7063  0.1520 -0.3142
   35CHL1  H12A 2548   5.255  -0.254   3.247 -0.7359  0.4344  1.3862
   35CHL1  H12B 2549   5.138  -0.122   3.199  0.5973 -0.3759 -0.4033
   35CHL1   C11 2550   5.327  -0.127   3.088  0.0277 -0.4239 -0.2651
   35CHL1  H11A 2551   5.432  -0.159   3.107  0.2255  1.2609  1.8469
   35CHL1  H11B 2552   5.302  -0.191   3.001 -0.1326 -0.6831 -0.0287
   35CHL1    C9 2553   5.313   0.024   3.048  0.3280  0.1914  0.9982
   35CHL1    H9 2554   5.204   0.036   3.032  0.4750  0.9399  0.5305
   35CHL1   C10 2555   5.388   0.059   2.908  0.5187  0.1563  0.7562
   35CHL1   C19 2556   5.529  -0.002   2.909  0.3541  0.4545 -0.2527
   35CHL1  H19A 2557   5.591   0.043   2.988  1.4952  0.6114 -1.2037
   35CHL1  H19B 2558   5.524  -0.113   2.920 -2.0967  0.6109  0.9456
   35CHL1  H19C 2559   5.590   0.020   2.819  0.7771 -1.0472 -0.3728
   35CHL1    C1 2560   5.300  -0.017   2.801 -1.1707 -0.6266 -0.6556
   35CHL1   H1A 2561   5.304  -0.128   2.812  0.1568 -0.3747  2.7946
   35CHL1   H1B 2562   5.194   0.008   2.824 -0.5361  1.0433  0.6459
   35CHL1    C2 2563   5.335   0.012   2.658  0.2898  0.2615 -0.3564
   35CHL1   H2A 2564   5.256  -0.037   2.597 -1.3259  1.2174  0.8803
   35CHL1   H2B 2565   5.440  -0.016   2.636  0.3266  1.9018 -2.5459
   35CHL1   C20 2566   5.205  -0.162   3.563 -0.1853 -1.0404 -0.6208
   35CHL1   H20 2567   5.306  -0.181   3.604 -0.0022  2.1934  0.7298
   35CHL1   C21 2568   5.154  -0.293   3.498 -0.5606  0.7338  0.0916
   35CHL1  H21A 2569   5.231  -0.347   3.439 -2.3098  0.7552 -2.3967
   35CHL1  H21B 2570   5.075  -0.270   3.423 -1.8225  1.2081  1.5118
   35CHL1  H21C 2571   5.107  -0.351   3.580 -0.4839 -1.2827 -1.2304
   35CHL1   C22 2572   5.122  -0.126   3.690 -0.3375  0.7102  0.2570
   35CHL1  H22A 2573   5.116  -0.016   3.705  5.0519  1.3650 -0.4476
   35CHL1  H22B 2574   5.023  -0.175   3.679 -0.2454 -0.0495  2.3845
   35CHL1   C23 2575   5.188  -0.190   3.811 -0.1544  0.4843  0.6902
   35CHL1  H23A 2576   5.187  -0.301   3.813  1.4628  0.3262 -2.0184
   35CHL1  H23B 2577   5.295  -0.160   3.802 -0.3038  0.6651 -0.6654
   35CHL1   C24 2578   5.110  -0.148   3.931  0.4116  0.1072 -0.1155
   35CHL1  H24A 2579   5.107  -0.037   3.935 -2.9442  0.1543 -0.9719
   35CHL1  H24B 2580   5.005  -0.181   3.914  0.7392 -0.5907 -0.8600
   35CHL1   C25 2581   5.168  -0.208   4.065  0.3864  0.1375 -0.2323
   35CHL1   H25 2582   5.171  -0.319   4.057  1.8814  0.1674 -0.4226
   35CHL1   C26 2583   5.309  -0.161   4.087 -0.2343  0.1087 -0.0705
   35CHL1  H26A 2584   5.385  -0.206   4.018  1.1166  0.4185  1.1566
   35CHL1  H26B 2585   5.315  -0.051   4.073 -0.9553  0.1636  0.0481
   35CHL1  H26C 2586   5.339  -0.186   4.191 -1.7181 -0.6068  0.2111
   35CHL1   C27 2587   5.065  -0.185   4.180 -0.0993 -0.8138  0.8656
   35CHL1  H27A 2588   5.074  -0.080   4.215 -1.0526  0.3148 -2.0186
   35CHL1  H27B 2589   4.963  -0.187   4.138 -0.2795  0.0654  1.2257
   35CHL1  H27C 2590   5.071  -0.259   4.262  0.5101 -3.4446 -1.3973
   36CHL1    C3 2591   2.749   6.602   3.714  0.1613  0.0035  0.8110
   36CHL1    H3 2592   2.650   6.567   3.751  0.0594 -2.8538 -1.6969
   36CHL1    O3 2593   2.757   6.578   3.577  0.1557  0.3457 -0.4290
   36CHL1   H3' 2594   2.841   6.611   3.543  1.4991 -1.8041  0.5850
   36CHL1    C4 2595   2.777   6.747   3.744  0.1095 -0.3005 -0.6747
   36CHL1   H4A 2596   2.874   6.774   3.697  1.1114 -1.2745  0.7463
   36CHL1   H4B 2597   2.697   6.808   3.697 -0.0618 -0.2393 -0.3097
   36CHL1    C5 2598   2.786   6.775   3.896  0.2502  0.2035  0.7647
   36CHL1    C6 2599   2.701   6.862   3.944  0.6451  0.0053  0.5162
   36CHL1    H6 2600   2.631   6.919   3.881 -0.4571  0.1105  1.7827
   36CHL1    C7 2601   2.688   6.896   4.093 -0.1736  0.6477 -0.1284
   36CHL1   H7A 2602   2.675   7.004   4.119 -0.4387  1.1335 -2.1046
   36CHL1   H7B 2603   2.600   6.838   4.126 -0.6239  0.0781 -2.1977
   36CHL1    C8 2604   2.819   6.848   4.175 -0.1901  0.6540 -1.0611
   36CHL1    H8 2605   2.895   6.928   4.166  0.2141  0.6965  1.7491
   36CHL1   C14 2606   2.792   6.857   4.325 -0.3313 -0.0729 -0.3812
   36CHL1   H14 2607   2.706   6.788   4.341  0.1057 -0.1554  1.9332
   36CHL1   C15 2608   2.742   6.992   4.379  0.2128  0.1271 -0.5384
   36CHL1  H15A 2609   2.802   7.074   4.334 -0.0417  1.3292  1.2080
   36CHL1  H15B 2610   2.636   7.017   4.360  0.5515 -0.5126 -4.0007
   36CHL1   C16 2611   2.792   6.979   4.525 -0.1025  0.2351 -0.0441
   36CHL1  H16A 2612   2.871   7.056   4.539  0.7014 -0.3553 -1.1928
   36CHL1  H16B 2613   2.716   6.997   4.605 -2.5884 -1.1656 -1.9261
   36CHL1   C17 2614   2.858   6.837   4.551  0.3114 -0.4249  0.4850
   36CHL1   H17 2615   2.777   6.765   4.578  2.0174 -1.5574  2.9846
   36CHL1   C13 2616   2.918   6.809   4.414 -0.2606 -0.5715 -0.6854
   36CHL1   C18 2617   3.045   6.898   4.385  0.4341 -0.1069 -0.0372
   36CHL1  H18A 2618   3.083   6.868   4.285  3.5088 -1.8049  1.5230
   36CHL1  H18B 2619   3.005   7.002   4.391 -1.8344 -0.8463 -1.2287
   36CHL1  H18C 2620   3.129   6.866   4.449  1.0846 -3.1835 -2.1993
   36CHL1   C12 2621   2.938   6.658   4.371  0.5467 -0.1894 -0.7973
   36CHL1  H12A 2622   3.022   6.612   4.428  1.1261  0.8468 -0.7776
   36CHL1  H12B 2623   2.843   6.608   4.397  0.5120 -0.0169 -0.5909
   36CHL1   C11 2624   2.974   6.640   4.227  0.2552 -0.1763 -0.0328
   36CHL1  H11A 2625   3.068   6.694   4.202  0.8673 -0.5877  1.2895
   36CHL1  H11B 2626   2.985   6.534   4.196 -0.4464 -0.2304 -0.1110
   36CHL1    C9 2627   2.863   6.702   4.134 -0.0070  0.4841 -0.7030
   36CHL1    H9 2628   2.767   6.646   4.145 -1.0450  2.5415  1.6587
   36CHL1   C10 2629   2.879   6.689   3.981 -0.0315 -0.1060 -0.2467
   36CHL1   C19 2630   3.018   6.744   3.942 -0.4827 -0.3661 -0.0967
   36CHL1  H19A 2631   3.095   6.706   4.012  0.7688  0.4997 -0.9583
   36CHL1  H19B 2632   3.063   6.702   3.850  3.1576  1.2295  0.7515
   36CHL1  H19C 2633   3.028   6.855   3.936  0.0434 -0.4621 -1.3067
   36CHL1    C1 2634   2.870   6.540   3.929 -0.0071  0.1428 -0.1780
   36CHL1   H1A 2635   2.947   6.475   3.975 -0.2315 -1.7938 -2.3617
   36CHL1   H1B 2636   2.780   6.496   3.977 -0.1148 -0.5953 -1.0434
   36CHL1    C2 2637   2.859   6.515   3.773  0.0976 -0.2468  0.0992
   36CHL1   H2A 2638   2.831   6.408   3.763 -3.0965  0.0320  3.7473
   36CHL1   H2B 2639   2.957   6.538   3.725 -0.0527  0.1142 -0.0436
   36CHL1   C20 2640   2.954   6.843   4.672  0.3581 -0.2995 -0.0529
   36CHL1   H20 2641   3.049   6.899   4.656  0.7469 -0.2516  2.1451
   36CHL1   C21 2642   2.995   6.693   4.699 -0.0164 -0.3945 -0.1344
   36CHL1  H21A 2643   3.021   6.671   4.805 -1.6173 -0.4148  0.2810
   36CHL1  H21B 2644   3.074   6.656   4.630 -0.6992 -1.4754 -0.3592
   36CHL1  H21C 2645   2.914   6.618   4.686  0.7480 -0.9762 -1.8401
   36CHL1   C22 2646   2.891   6.905   4.806  0.3894  0.1013  1.2529
   36CHL1  H22A 2647   2.782   6.885   4.806  0.6938 -2.0303 -1.3405
   36CHL1  H22B 2648   2.942   6.842   4.882  2.4294 -0.9120 -0.8477
   36CHL1   C23 2649   2.927   7.055   4.822  0.3275  0.8718  0.7164
   36CHL1  H23A 2650   3.038   7.058   4.819  0.3348  0.9362  1.0895
   36CHL1  H23B 2651   2.890   7.102   4.728  0.0510 -1.5959 -0.4931
   36CHL1   C24 2652   2.872   7.118   4.954 -0.0652 -0.6313  0.3884
   36CHL1  H24A 2653   2.762   7.126   4.960  0.1263  1.2188  3.7065
   36CHL1  H24B 2654   2.910   7.056   5.038 -3.1333 -1.0442  1.5733
   36CHL1   C25 2655   2.928   7.251   4.967  0.0729 -0.8017  0.2839
   36CHL1   H25 2656   2.898   7.307   4.875  2.4069 -0.1050 -0.1156
   36CHL1   C26 2657   2.862   7.317   5.094 -0.1724 -0.1649  0.4294
   36CHL1  H26A 2658   2.753   7.301   5.080  0.4104 -3.1948 -1.7280
   36CHL1  H26B 2659   2.897   7.263   5.185  1.2039 -0.0940 -0.0390
   36CHL1  H26C 2660   2.893   7.424   5.094  1.8358 -0.7119 -0.4198
   36CHL1   C27 2661   3.087   7.266   4.978 -0.2633 -0.7195 -0.1730
   36CHL1  H27A 2662   3.111   7.374   4.989 -1.2035 -0.3393 -1.6309
   36CHL1  H27B 2663   3.128   7.215   5.068  1.2440 -0.3750 -0.6230
   36CHL1  H27C 2664   3.146   7.236   4.888 -1.0736 -0.3672 -0.8381
   37CHL1    C3 2665   1.364   6.825   3.241 -0.0709 -0.2535 -0.2672
   37CHL1    H3 2666   1.354   6.934   3.260 -0.5881 -0.2747 -0.4043
   37CHL1    O3 2667   1.377   6.800   3.103  0.3536  0.1316  0.4428
   37CHL1   H3' 2668   1.389   6.705   3.092  2.5865  0.2352  1.5122
   37CHL1    C4 2669   1.495   6.784   3.314 -0.1243 -0.8365  0.9851
   37CHL1   H4A 2670   1.526   6.680   3.289 -0.5660 -1.1918  1.8701
   37CHL1   H4B 2671   1.569   6.858   3.274 -1.6752  0.3444  0.1883
   37CHL1    C5 2672   1.486   6.805   3.460  0.2749 -0.3012  0.7491
   37CHL1    C6 2673   1.578   6.877   3.529  0.1383  0.0187  0.1885
   37CHL1    H6 2674   1.658   6.917   3.466 -0.1755 -2.5708 -2.0224
   37CHL1    C7 2675   1.580   6.904   3.674  0.4665 -0.0947 -0.5836
   37CHL1   H7A 2676   1.676   6.870   3.718 -0.0519  1.2440  1.7484
   37CHL1   H7B 2677   1.577   7.015   3.678  0.0271 -0.1478  1.4420
   37CHL1    C8 2678   1.465   6.835   3.751 -0.1346 -0.3039 -0.1236
   37CHL1    H8 2679   1.503   6.731   3.758 -1.0976 -0.6093  0.8901
   37CHL1   C14 2680   1.431   6.906   3.883 -0.1389  0.4331  0.0160
   37CHL1   H14 2681   1.381   7.000   3.852 -0.6125 -0.3333 -1.6558
   37CHL1   C15 2682   1.547   6.944   3.983  0.1259 -0.1291  0.7018
   37CHL1  H15A 2683   1.620   6.861   3.981 -0.2049 -0.4773 -2.3262
   37CHL1  H15B 2684   1.600   7.029   3.936  2.0075 -0.9193  1.3092
   37CHL1   C16 2685   1.475   6.983   4.112 -0.2488 -0.0979 -0.8637
   37CHL1  H16A 2686   1.543   6.952   4.194 -2.4045 -0.6076  0.8283
   37CHL1  H16B 2687   1.463   7.093   4.105  1.9524  0.2004 -0.7227
   37CHL1   C17 2688   1.334   6.923   4.105 -0.3336 -0.0673  0.1277
   37CHL1   H17 2689   1.272   7.013   4.085 -2.9918 -1.8205 -0.0381
   37CHL1   C13 2690   1.327   6.837   3.972 -0.4866  0.2662 -0.8865
   37CHL1   C18 2691   1.383   6.693   4.001 -0.6721  0.2035 -0.1244
   37CHL1  H18A 2692   1.316   6.632   4.065  1.2387 -3.0338 -1.0002
   37CHL1  H18B 2693   1.397   6.632   3.910  1.7811  0.4468  0.0150
   37CHL1  H18C 2694   1.482   6.701   4.052 -0.4297 -3.0513  0.0861
   37CHL1   C12 2695   1.197   6.835   3.891 -0.4586 -0.2078 -0.3139
   37CHL1  H12A 2696   1.111   6.795   3.949 -0.0722 -2.3712 -1.1209
   37CHL1  H12B 2697   1.168   6.938   3.865 -0.6447 -0.0699  0.4187
   37CHL1   C11 2698   1.223   6.754   3.763 -0.5039  0.1371  0.1099
   37CHL1  H11A 2699   1.249   6.646   3.770  3.1474  0.8460 -0.4808
   37CHL1  H11B 2700   1.123   6.755   3.714 -1.6349 -1.7523  2.1893
   37CHL1    C9 2701   1.335   6.819   3.671 -0.1326 -0.0145 -0.4036
   37CHL1    H9 2702   1.309   6.927   3.663 -0.6961  0.0083  1.4049
   37CHL1   C10 2703   1.356   6.753   3.532 -0.4721  0.4609  0.2454
   37CHL1   C19 2704   1.372   6.598   3.555  0.7104 -0.3211  0.6076
   37CHL1  H19A 2705   1.277   6.562   3.600 -0.5970 -0.3808 -2.0162
   37CHL1  H19B 2706   1.388   6.532   3.467 -0.5873  1.3740 -0.9769
   37CHL1  H19C 2707   1.454   6.567   3.624  0.1595 -1.4173  0.7881
   37CHL1    C1 2708   1.224   6.780   3.454 -1.0136  0.3284 -0.3498
   37CHL1   H1A 2709   1.148   6.716   3.503 -0.5218  0.1791  0.2320
   37CHL1   H1B 2710   1.208   6.889   3.469  0.9778  0.5073  0.7911
   37CHL1    C2 2711   1.240   6.753   3.298  0.5064  0.8355 -0.2275
   37CHL1   H2A 2712   1.144   6.787   3.255 -0.4464  0.8613  1.7891
   37CHL1   H2B 2713   1.252   6.642   3.291  1.3622  0.9555 -0.7848
   37CHL1   C20 2714   1.275   6.865   4.242 -0.7762  0.1222 -0.7352
   37CHL1   H20 2715   1.337   6.777   4.271 -1.1603  0.1466  0.1958
   37CHL1   C21 2716   1.128   6.818   4.227  0.6257 -0.1989 -0.6178
   37CHL1  H21A 2717   1.117   6.754   4.137 -1.2510 -0.5094 -0.2236
   37CHL1  H21B 2718   1.051   6.898   4.215  0.1778 -0.0572  2.4110
   37CHL1  H21C 2719   1.112   6.747   4.312 -0.7125  0.2508 -0.4735
   37CHL1   C22 2720   1.281   6.960   4.363  0.3940  0.1729  0.1847
   37CHL1  H22A 2721   1.385   7.000   4.370  0.6330 -0.4862  0.5559
   37CHL1  H22B 2722   1.216   7.045   4.334  0.4399  0.5474  1.1271
   37CHL1   C23 2723   1.240   6.889   4.491 -0.1677  0.1460 -0.0232
   37CHL1  H23A 2724   1.253   6.968   4.568  2.0339  1.3924 -1.5543
   37CHL1  H23B 2725   1.134   6.857   4.489  0.3424 -1.7115  0.6312
   37CHL1   C24 2726   1.334   6.776   4.533  0.3656 -0.4497 -0.7766
   37CHL1  H24A 2727   1.334   6.695   4.456 -0.4088  0.1945 -1.4795
   37CHL1  H24B 2728   1.439   6.810   4.549  0.4717 -1.2495  0.3431
   37CHL1   C25 2729   1.304   6.710   4.673  0.2770 -0.1251 -0.2443
   37CHL1   H25 2730   1.288   6.787   4.751  1.0107 -1.0113  0.8040
   37CHL1   C26 2731   1.175   6.626   4.660 -0.7147 -1.1460 -0.3317
   37CHL1  H26A 2732   1.113   6.662   4.576 -1.4910  1.6688  1.3219
   37CHL1  H26B 2733   1.203   6.523   4.629 -0.4368 -1.0989 -0.2327
   37CHL1  H26C 2734   1.123   6.641   4.758 -0.0161  0.5192 -0.1945
   37CHL1   C27 2735   1.416   6.608   4.713  0.2498  0.2925 -0.4153
   37CHL1  H27A 2736   1.416   6.520   4.646 -1.4312  1.1965 -1.7060
   37CHL1  H27B 2737   1.512   6.663   4.719  0.5954 -0.4600  2.0750
   37CHL1  H27C 2738   1.399   6.573   4.817  2.7786 -0.9252 -0.3509
   38CHL1    C3 2739   4.842   6.788   5.091 -0.8591 -0.0521  0.1075
   38CHL1    H3 2740   4.949   6.804   5.067 -0.4951 -0.9254  1.0616
   38CHL1    O3 2741   4.814   6.853   5.214  0.0635 -0.0992  0.1612
   38CHL1   H3' 2742   4.723   6.825   5.229 -0.5604  1.3126 -0.7419
   38CHL1    C4 2743   4.768   6.868   4.988 -0.6614 -0.3259  1.1747
   38CHL1   H4A 2744   4.661   6.876   5.017 -0.8213 -0.7785  0.7224
   38CHL1   H4B 2745   4.806   6.972   4.982  2.1884 -1.3736 -1.4051
   38CHL1    C5 2746   4.777   6.800   4.852  0.3275 -0.2379 -0.7223
   38CHL1    C6 2747   4.819   6.881   4.748 -0.5177  0.1298  0.2356
   38CHL1    H6 2748   4.834   6.989   4.763 -1.6998  0.1138  1.8462
   38CHL1    C7 2749   4.825   6.828   4.605  0.4778  0.6485 -0.3544
   38CHL1   H7A 2750   4.763   6.902   4.549 -0.8467  1.1313  1.6343
   38CHL1   H7B 2751   4.928   6.826   4.563  0.8432  2.7093  0.3463
   38CHL1    C8 2752   4.758   6.687   4.577 -0.7055 -0.1340  0.6021
   38CHL1    H8 2753   4.651   6.714   4.566  0.0496  2.4146 -1.4031
   38CHL1   C14 2754   4.809   6.624   4.444  0.4838  0.5099  0.4332
   38CHL1   H14 2755   4.918   6.624   4.463  0.5186 -1.5329  0.5019
   38CHL1   C15 2756   4.784   6.697   4.316 -1.0101  0.0649  0.0643
   38CHL1  H15A 2757   4.676   6.722   4.306 -1.2477 -0.6820  0.7026
   38CHL1  H15B 2758   4.835   6.796   4.311 -0.8440 -0.0624 -1.1058
   38CHL1   C16 2759   4.818   6.585   4.207 -0.3516 -0.6496  0.7435
   38CHL1  H16A 2760   4.744   6.593   4.125  0.9503  0.3344 -0.3758
   38CHL1  H16B 2761   4.915   6.612   4.161 -0.9155 -1.6752 -1.1614
   38CHL1   C17 2762   4.814   6.446   4.278  0.0384  0.0272 -0.1291
   38CHL1   H17 2763   4.922   6.431   4.297  0.1787  2.5507  1.5309
   38CHL1   C13 2764   4.757   6.481   4.417 -0.3103  0.5652 -0.4307
   38CHL1   C18 2765   4.603   6.479   4.406  0.1597 -0.4772 -0.3954
   38CHL1  H18A 2766   4.554   6.522   4.496  0.0678 -2.2912  0.4747
   38CHL1  H18B 2767   4.564   6.543   4.325 -2.2425 -0.3009  0.8078
   38CHL1  H18C 2768   4.559   6.377   4.402 -2.5033  0.3428  3.1759
   38CHL1   C12 2769   4.801   6.398   4.536  0.0467  0.7281 -0.2979
   38CHL1  H12A 2770   4.765   6.293   4.536  0.0147  0.7388 -0.5144
   38CHL1  H12B 2771   4.910   6.414   4.551 -0.1182  1.3398  0.2844
   38CHL1   C11 2772   4.747   6.443   4.670  0.4929  0.2144 -0.1075
   38CHL1  H11A 2773   4.637   6.429   4.667  0.7042 -1.5959 -3.1755
   38CHL1  H11B 2774   4.784   6.373   4.747  0.8283  1.1077  0.5663
   38CHL1    C9 2775   4.791   6.593   4.696  0.3126  0.2820  0.1829
   38CHL1    H9 2776   4.901   6.579   4.698  0.4145  1.0860  1.2066
   38CHL1   C10 2777   4.743   6.651   4.841 -0.3822 -0.0227 -0.2828
   38CHL1   C19 2778   4.594   6.625   4.859 -0.8040 -0.4666  0.0084
   38CHL1  H19A 2779   4.551   6.685   4.942 -2.6763 -0.9114 -0.5860
   38CHL1  H19B 2780   4.530   6.644   4.771  1.2669  1.2024 -1.2136
   38CHL1  H19C 2781   4.579   6.519   4.889 -0.3510 -0.0278  1.9155
   38CHL1    C1 2782   4.822   6.572   4.955 -0.3294 -0.3005 -0.2807
   38CHL1   H1A 2783   4.791   6.465   4.951  2.8067 -1.3120 -1.0181
   38CHL1   H1B 2784   4.931   6.567   4.933  0.0314  0.7252  1.1142
   38CHL1    C2 2785   4.804   6.639   5.091 -0.8716 -1.1301  0.9685
   38CHL1   H2A 2786   4.871   6.599   5.170  1.6831 -0.1621 -0.5826
   38CHL1   H2B 2787   4.700   6.621   5.125 -2.2669  2.3946 -0.9278
   38CHL1   C20 2788   4.748   6.329   4.192  0.6810 -0.4897 -0.4550
   38CHL1   H20 2789   4.639   6.349   4.185  0.4984  0.6061  3.2817
   38CHL1   C21 2790   4.758   6.192   4.269  0.4952 -0.1313 -0.2894
   38CHL1  H21A 2791   4.863   6.165   4.294  0.1129 -2.0236 -0.5698
   38CHL1  H21B 2792   4.718   6.108   4.209  0.5513 -2.1791  2.3365
   38CHL1  H21C 2793   4.697   6.204   4.361  0.3780 -1.1551 -0.2145
   38CHL1   C22 2794   4.804   6.328   4.046 -0.9420 -1.0869  0.4337
   38CHL1  H22A 2795   4.773   6.230   4.004  0.7916 -1.3424 -0.3326
   38CHL1  H22B 2796   4.775   6.412   3.979  3.5499 -1.3285 -2.2122
   38CHL1   C23 2797   4.963   6.313   4.045 -0.4735 -0.4947  0.2644
   38CHL1  H23A 2798   5.019   6.402   4.081  1.1160 -1.2806 -0.1389
   38CHL1  H23B 2799   4.996   6.228   4.109  2.8659  0.9129  0.6437
   38CHL1   C24 2800   5.024   6.283   3.907  0.9008  0.0414 -0.2718
   38CHL1  H24A 2801   5.134   6.267   3.898  0.5996 -1.4214 -1.9331
   38CHL1  H24B 2802   4.988   6.181   3.881  0.1610  0.0247  0.7613
   38CHL1   C25 2803   4.989   6.376   3.789  0.1182  0.5080 -0.1796
   38CHL1   H25 2804   4.879   6.388   3.788 -0.0629 -1.0710 -0.6157
   38CHL1   C26 2805   5.040   6.522   3.809  0.1219 -0.0130  0.1865
   38CHL1  H26A 2806   4.993   6.569   3.898 -0.2321  0.0063 -0.0089
   38CHL1  H26B 2807   5.151   6.522   3.820  0.1007  0.1350  0.3991
   38CHL1  H26C 2808   5.012   6.589   3.725  1.7629 -0.8388 -1.0770
   38CHL1   C27 2809   5.044   6.311   3.660  0.5189 -0.0028  0.9022
   38CHL1  H27A 2810   5.099   6.217   3.682  0.5336  0.4417  2.9600
   38CHL1  H27B 2811   4.953   6.275   3.607  1.6643 -0.9581 -0.4986
   38CHL1  H27C 2812   5.096   6.374   3.584  0.7804 -1.5467 -0.2436
   39CHL1    C3 2813   4.756   0.356   3.335 -0.6606  1.1859 -0.4294
   39CHL1    H3 2814   4.668   0.290   3.352 -1.1169  1.4076 -1.7832
   39CHL1    O3 2815   4.766   0.367   3.195 -0.3919 -0.0253  0.3765
   39CHL1   H3' 2816   4.845   0.416   3.173 -1.0342  0.4807 -0.9384
   39CHL1    C4 2817   4.727   0.493   3.407 -0.1336  0.2941 -0.1088
   39CHL1   H4A 2818   4.815   0.559   3.393 -1.2376  1.8445  0.0179
   39CHL1   H4B 2819   4.640   0.533   3.351 -1.3740 -1.5034  0.4474
   39CHL1    C5 2820   4.712   0.472   3.560  1.1681 -0.3875  0.6926
   39CHL1    C6 2821   4.601   0.514   3.624 -0.8107 -0.0795 -0.5847
   39CHL1    H6 2822   4.522   0.565   3.567 -2.4019 -2.8406 -1.0179
   39CHL1    C7 2823   4.586   0.506   3.771  0.2820 -0.1774  0.4043
   39CHL1   H7A 2824   4.566   0.601   3.824 -1.9822 -0.9430  1.0276
   39CHL1   H7B 2825   4.499   0.438   3.783 -2.1741  2.0693 -2.9765
   39CHL1    C8 2826   4.701   0.435   3.846  0.1351  0.8071  0.5216
   39CHL1    H8 2827   4.770   0.521   3.860 -1.1322  1.7276  1.3471
   39CHL1   C14 2828   4.661   0.387   3.988 -0.3901 -0.0771  0.2032
   39CHL1   H14 2829   4.602   0.294   3.972  1.1727 -0.8040 -1.7617
   39CHL1   C15 2830   4.584   0.479   4.082  0.9726  0.1771 -0.4957
   39CHL1  H15A 2831   4.622   0.584   4.081 -1.3835  1.0880 -0.9341
   39CHL1  H15B 2832   4.476   0.475   4.056  0.7985  0.4885  0.1545
   39CHL1   C16 2833   4.597   0.422   4.223 -0.4680  0.3895 -0.0160
   39CHL1  H16A 2834   4.626   0.504   4.293  0.5972 -0.0907  0.1310
   39CHL1  H16B 2835   4.505   0.384   4.271 -1.9966  0.0185 -3.0187
   39CHL1   C17 2836   4.707   0.302   4.210  0.9435 -0.0585 -0.0488
   39CHL1   H17 2837   4.653   0.207   4.188 -0.5554  0.5313  0.8701
   39CHL1   C13 2838   4.777   0.341   4.076 -0.0451  0.0302  0.4571
   39CHL1   C18 2839   4.878   0.457   4.109 -0.8454 -0.9473  0.1103
   39CHL1  H18A 2840   4.962   0.416   4.169 -0.4642 -0.9735 -0.4345
   39CHL1  H18B 2841   4.909   0.509   4.016 -0.7433 -0.2670  0.5186
   39CHL1  H18C 2842   4.829   0.535   4.171 -1.0778 -0.6021 -0.4970
   39CHL1   C12 2843   4.853   0.228   4.007  0.2394 -0.5633  0.8240
   39CHL1  H12A 2844   4.948   0.228   4.065 -0.3258  2.3312  1.8998
   39CHL1  H12B 2845   4.805   0.129   4.020 -1.3140 -0.2501 -1.7927
   39CHL1   C11 2846   4.888   0.277   3.859 -0.4236 -0.1888  0.3028
   39CHL1  H11A 2847   4.952   0.368   3.865 -0.4131  0.0903 -2.5198
   39CHL1  H11B 2848   4.935   0.191   3.805 -3.6538 -2.0124  0.1328
   39CHL1    C9 2849   4.775   0.329   3.765 -0.3303 -0.4885 -0.5660
   39CHL1    H9 2850   4.699   0.250   3.748 -1.7207  0.8591 -0.8280
   39CHL1   C10 2851   4.817   0.392   3.631 -0.0931  0.1109  0.4132
   39CHL1   C19 2852   4.940   0.485   3.643  0.6758 -0.2620  0.7512
   39CHL1  H19A 2853   4.928   0.568   3.715 -2.1290  2.6547 -2.7013
   39CHL1  H19B 2854   5.036   0.434   3.669  1.3390 -0.4757 -1.7980
   39CHL1  H19C 2855   4.969   0.522   3.542 -0.3246  1.5293  1.0885
   39CHL1    C1 2856   4.861   0.266   3.540 -0.3034  0.3815 -0.7770
   39CHL1   H1A 2857   4.944   0.218   3.596 -2.2381 -1.3592  0.7955
   39CHL1   H1B 2858   4.773   0.198   3.549 -1.7999  1.8300 -3.4722
   39CHL1    C2 2859   4.881   0.294   3.399 -0.2852  0.5285 -0.3463
   39CHL1   H2A 2860   4.893   0.197   3.347  0.2215 -0.5524  1.6921
   39CHL1   H2B 2861   4.978   0.343   3.374  0.9133 -0.5839  1.8360
   39CHL1   C20 2862   4.783   0.278   4.345  0.3421 -0.2130  0.6244
   39CHL1   H20 2863   4.842   0.371   4.355 -1.4280  0.9780  0.3315
   39CHL1   C21 2864   4.871   0.150   4.325 -0.0031 -0.0989  0.3876
   39CHL1  H21A 2865   4.915   0.115   4.421 -2.4305 -0.6088  1.3618
   39CHL1  H21B 2866   4.950   0.166   4.248 -1.2791  0.0647 -0.9176
   39CHL1  H21C 2867   4.813   0.063   4.288 -2.9515  1.6998  0.4974
   39CHL1   C22 2868   4.691   0.264   4.468 -0.2194  0.0634  0.0988
   39CHL1  H22A 2869   4.609   0.338   4.464 -0.0536  0.3483  1.4636
   39CHL1  H22B 2870   4.651   0.160   4.465 -0.3540  0.0527  1.6967
   39CHL1   C23 2871   4.760   0.288   4.603 -0.0560 -0.3566 -0.0972
   39CHL1  H23A 2872   4.698   0.250   4.687  0.5821 -0.0103  0.5356
   39CHL1  H23B 2873   4.853   0.229   4.597 -0.2446 -0.6745  0.1113
   39CHL1   C24 2874   4.803   0.439   4.632 -0.4331  0.3739 -0.4998
   39CHL1  H24A 2875   4.908   0.451   4.596 -0.5602 -1.3823 -1.5772
   39CHL1  H24B 2876   4.753   0.521   4.575  1.8560  2.6007  0.4567
   39CHL1   C25 2877   4.814   0.482   4.781 -0.7822  0.0153 -0.4738
   39CHL1   H25 2878   4.856   0.584   4.792 -1.0647 -0.1219  3.2460
   39CHL1   C26 2879   4.684   0.481   4.861 -0.1476 -0.2061  0.1773
   39CHL1  H26A 2880   4.688   0.506   4.969  0.8426  0.2369  0.0539
   39CHL1  H26B 2881   4.613   0.554   4.816 -0.5895 -1.2145 -0.7821
   39CHL1  H26C 2882   4.639   0.382   4.843  2.2081 -1.2249 -0.5886
   39CHL1   C27 2883   4.918   0.390   4.853 -0.0672  0.0597 -0.7361
   39CHL1  H27A 2884   4.876   0.287   4.857 -1.2420  0.5627  1.4981
   39CHL1  H27B 2885   5.017   0.396   4.802  0.1877  1.2686 -0.1357
   39CHL1  H27C 2886   4.924   0.424   4.959 -1.3986 -0.7735 -0.3706
   40CHL1    C3 2887   2.746   0.536   3.643 -0.6085  0.2371 -0.2528
   40CHL1    H3 2888   2.696   0.635   3.648  0.6410  0.9025 -0.5438
   40CHL1    O3 2889   2.814   0.516   3.525 -0.0455 -0.1645 -0.3989
   40CHL1   H3' 2890   2.769   0.438   3.491  0.5059 -0.0798 -1.3724
   40CHL1    C4 2891   2.843   0.517   3.764 -0.5422  0.4587 -0.2558
   40CHL1   H4A 2892   2.900   0.424   3.744  0.5866  0.8287  1.0851
   40CHL1   H4B 2893   2.909   0.605   3.745 -0.1457 -0.1706 -2.0024
   40CHL1    C5 2894   2.772   0.513   3.902 -0.1788 -0.3649  0.6101
   40CHL1    C6 2895   2.808   0.597   3.997 -0.2109  0.0557 -0.4931
   40CHL1    H6 2896   2.885   0.673   3.977 -0.0130  0.9904  3.0641
   40CHL1    C7 2897   2.753   0.598   4.139  0.2182  0.4336 -0.5856
   40CHL1   H7A 2898   2.829   0.602   4.220 -0.8400  1.4902  0.3992
   40CHL1   H7B 2899   2.686   0.686   4.143 -1.1357 -0.6186  0.8440
   40CHL1    C8 2900   2.666   0.471   4.166  0.3524  0.2586 -0.2607
   40CHL1    H8 2901   2.727   0.379   4.179  0.2548  0.0891 -0.9391
   40CHL1   C14 2902   2.582   0.499   4.292  0.9723  0.3797  0.7959
   40CHL1   H14 2903   2.511   0.576   4.254 -3.5445 -3.5687  0.3049
   40CHL1   C15 2904   2.649   0.549   4.418 -0.3637  0.9154 -0.1738
   40CHL1  H15A 2905   2.740   0.487   4.431 -1.6074 -0.5115  2.5403
   40CHL1  H15B 2906   2.672   0.658   4.410  0.9267  0.5520 -1.9721
   40CHL1   C16 2907   2.545   0.518   4.525 -0.8986 -0.4654  0.3182
   40CHL1  H16A 2908   2.593   0.450   4.598 -0.7331 -1.5261 -0.7549
   40CHL1  H16B 2909   2.499   0.603   4.581 -1.4405 -0.5193 -0.0309
   40CHL1   C17 2910   2.429   0.445   4.452  0.5551  0.5780 -0.0304
   40CHL1   H17 2911   2.358   0.524   4.418 -1.0617 -0.8321 -0.0209
   40CHL1   C13 2912   2.489   0.383   4.331 -0.1914 -0.3514 -0.2059
   40CHL1   C18 2913   2.562   0.253   4.366  0.1679  0.2592  0.2215
   40CHL1  H18A 2914   2.626   0.260   4.457  1.9963 -2.4300 -0.6987
   40CHL1  H18B 2915   2.492   0.166   4.365 -1.8065  1.7857 -0.1343
   40CHL1  H18C 2916   2.633   0.225   4.286  1.8120  2.0256  0.9665
   40CHL1   C12 2917   2.391   0.361   4.214 -0.6656  0.5191  0.1275
   40CHL1  H12A 2918   2.320   0.280   4.239  0.5190 -0.5302  0.1996
   40CHL1  H12B 2919   2.325   0.449   4.196 -1.9372 -0.5877 -0.7912
   40CHL1   C11 2920   2.466   0.326   4.085  0.2907 -0.0554  0.2724
   40CHL1  H11A 2921   2.516   0.230   4.109  1.1892  0.8342  2.2174
   40CHL1  H11B 2922   2.401   0.307   3.996  3.0804 -1.5871 -1.5681
   40CHL1    C9 2923   2.567   0.437   4.046 -0.3016  0.2751  0.1155
   40CHL1    H9 2924   2.513   0.532   4.027 -0.5611  0.7707  2.8257
   40CHL1   C10 2925   2.654   0.411   3.920  0.2903 -0.1633  0.1655
   40CHL1   C19 2926   2.712   0.266   3.916 -0.1221  0.9628 -0.2465
   40CHL1  H19A 2927   2.786   0.247   3.835 -0.3408 -1.3776  0.0379
   40CHL1  H19B 2928   2.774   0.241   4.005 -0.2738 -1.8268 -0.8189
   40CHL1  H19C 2929   2.623   0.199   3.911 -1.4985  2.7131 -0.0138
   40CHL1    C1 2930   2.563   0.432   3.794  0.1484  0.9807 -0.1533
   40CHL1   H1A 2931   2.479   0.360   3.786  0.1071  0.7816  1.6931
   40CHL1   H1B 2932   2.515   0.531   3.808 -1.3470  0.6545 -2.4475
   40CHL1    C2 2933   2.635   0.426   3.655 -0.4417  0.1855  0.5807
   40CHL1   H2A 2934   2.565   0.456   3.575  1.8013  0.2006 -1.4959
   40CHL1   H2B 2935   2.671   0.324   3.628  2.4618  1.1696  0.3624
   40CHL1   C20 2936   2.334   0.348   4.536  0.4879 -0.7437 -0.3483
   40CHL1   H20 2937   2.292   0.269   4.470 -2.3652  0.0873  0.3441
   40CHL1   C21 2938   2.217   0.430   4.589  0.4664 -0.3703  0.1106
   40CHL1  H21A 2939   2.177   0.496   4.508  2.1831 -0.4760 -0.8705
   40CHL1  H21B 2940   2.248   0.486   4.679 -0.4051 -0.3673  0.4193
   40CHL1  H21C 2941   2.141   0.356   4.622 -0.0300  0.0474 -0.0748
   40CHL1   C22 2942   2.404   0.283   4.654  0.6715 -0.3491 -0.0607
   40CHL1  H22A 2943   2.501   0.244   4.617  1.2961  1.1771 -0.1187
   40CHL1  H22B 2944   2.417   0.358   4.735  0.0437  1.3540 -1.4625
   40CHL1   C23 2945   2.330   0.155   4.695  0.1742  0.3629  0.1556
   40CHL1  H23A 2946   2.233   0.187   4.741  0.3631  2.0208 -0.5523
   40CHL1  H23B 2947   2.316   0.098   4.601  1.6542 -0.7528  0.5774
   40CHL1   C24 2948   2.419   0.063   4.782 -0.1189  0.4707 -0.3208
   40CHL1  H24A 2949   2.499   0.023   4.716 -0.2108 -0.2674  0.0014
   40CHL1  H24B 2950   2.461   0.142   4.847 -2.7300  2.8366 -1.2766
   40CHL1   C25 2951   2.346  -0.047   4.865 -0.8482  0.2947 -0.0397
   40CHL1   H25 2952   2.308  -0.116   4.787 -1.1910 -1.3129  1.4698
   40CHL1   C26 2953   2.440  -0.124   4.962  0.2913  0.2755 -0.5198
   40CHL1  H26A 2954   2.379  -0.213   4.989 -0.3079  1.0037  0.6308
   40CHL1  H26B 2955   2.539  -0.159   4.926  0.9487 -2.1053  3.0328
   40CHL1  H26C 2956   2.463  -0.078   5.060 -0.3009  0.3675 -0.4166
   40CHL1   C27 2957   2.232   0.010   4.956  0.5097  0.0387 -0.2690
   40CHL1  H27A 2958   2.278   0.077   5.031  0.9736 -1.5568  0.9251
   40CHL1  H27B 2959   2.157   0.059   4.891 -0.9419  0.2125  1.4657
   40CHL1  H27C 2960   2.187  -0.073   5.015  1.7153 -0.5531 -0.1378
   41CHL1    C3 2961   1.167   0.804   3.191  0.4083  0.2665 -0.2411
   41CHL1    H3 2962   1.099   0.720   3.220  1.0951 -0.7211 -1.3960
   41CHL1    O3 2963   1.205   0.788   3.054 -0.6416  0.7914  0.1864
   41CHL1   H3' 2964   1.249   0.868   3.026 -0.1877  0.1141 -1.1088
   41CHL1    C4 2965   1.098   0.933   3.205 -0.0784 -0.0226  0.3876
   41CHL1   H4A 2966   1.169   1.015   3.180 -0.6188  0.3662  0.1271
   41CHL1   H4B 2967   1.014   0.949   3.135  1.2294  0.5577 -1.1097
   41CHL1    C5 2968   1.052   0.943   3.351 -0.2722  0.4111 -0.3010
   41CHL1    C6 2969   0.924   0.949   3.386  0.0424  0.7565  0.1512
   41CHL1    H6 2970   0.845   0.929   3.312  0.9044 -0.1967 -0.5412
   41CHL1    C7 2971   0.890   0.956   3.534 -0.1296  0.2510 -0.7435
   41CHL1   H7A 2972   0.820   1.041   3.551  1.0146  0.8208  1.5304
   41CHL1   H7B 2973   0.844   0.864   3.576  1.0260  1.2246  3.0345
   41CHL1    C8 2974   1.001   0.989   3.633 -0.0406  0.0948  0.3906
   41CHL1    H8 2975   1.023   1.096   3.618 -2.0666  0.2600 -1.9791
   41CHL1   C14 2976   0.961   0.961   3.774  0.1040  0.4258  0.2978
   41CHL1   H14 2977   0.946   0.851   3.778 -0.5792  0.5383  1.1793
   41CHL1   C15 2978   0.826   1.013   3.826 -0.7162 -0.1301 -0.9357
   41CHL1  H15A 2979   0.826   1.123   3.807  2.6340  0.5086  1.6971
   41CHL1  H15B 2980   0.744   0.959   3.775 -0.0958  0.5044 -2.6614
   41CHL1   C16 2981   0.838   1.009   3.980  0.3596  0.3289  0.5686
   41CHL1  H16A 2982   0.807   1.107   4.023 -1.9858  0.3057 -0.9460
   41CHL1  H16B 2983   0.774   0.930   4.024 -0.2641 -0.2831 -1.3618
   41CHL1   C17 2984   0.984   0.969   4.009  0.1970  0.2854 -0.2920
   41CHL1   H17 2985   0.992   0.859   4.015  1.1565  0.3238 -0.6347
   41CHL1   C13 2986   1.066   0.995   3.880  0.0296  0.1526  0.1962
   41CHL1   C18 2987   1.086   1.150   3.894  0.0431 -0.1624  0.6108
   41CHL1  H18A 2988   1.137   1.203   3.811  1.1710  0.3767  1.6146
   41CHL1  H18B 2989   0.996   1.212   3.915  0.0432  0.1309 -0.2348
   41CHL1  H18C 2990   1.145   1.175   3.985  0.2433  1.5950  0.0327
   41CHL1   C12 2991   1.197   0.902   3.848  0.1341 -0.5470  0.6188
   41CHL1  H12A 2992   1.276   0.922   3.923  0.9141 -2.4092  0.3638
   41CHL1  H12B 2993   1.158   0.802   3.876 -0.5627 -0.5750 -0.3998
   41CHL1   C11 2994   1.244   0.922   3.708  0.3950 -0.1783 -0.1261
   41CHL1  H11A 2995   1.283   1.026   3.701 -1.8467  0.7157 -0.2458
   41CHL1  H11B 2996   1.320   0.847   3.679 -0.6149 -1.3255  0.1552
   41CHL1    C9 2997   1.122   0.903   3.604 -0.5575 -0.2802 -0.0998
   41CHL1    H9 2998   1.072   0.804   3.605 -1.8081  0.2951 -1.3641
   41CHL1   C10 2999   1.168   0.929   3.458 -0.0760 -0.4118 -0.1606
   41CHL1   C19 3000   1.238   1.072   3.450 -0.1585  0.0250 -0.0642
   41CHL1  H19A 3001   1.284   1.083   3.349  1.1000 -2.4463  0.1641
   41CHL1  H19B 3002   1.162   1.153   3.461 -2.1001 -1.7378  0.2745
   41CHL1  H19C 3003   1.323   1.082   3.520  0.9348 -0.8002 -1.2279
   41CHL1    C1 3004   1.264   0.808   3.419  0.5947 -0.0068  0.4237
   41CHL1   H1A 3005   1.352   0.831   3.482  1.4156  0.9571 -1.0213
   41CHL1   H1B 3006   1.215   0.712   3.445 -1.4717  0.9639  0.3803
   41CHL1    C2 3007   1.301   0.795   3.272  0.4160  0.3131 -0.5266
   41CHL1   H2A 3008   1.358   0.703   3.245  1.0692  0.5087  0.1586
   41CHL1   H2B 3009   1.373   0.874   3.244 -0.7755  1.4510 -0.4578
   41CHL1   C20 3010   1.031   1.016   4.139  0.3394  0.0612 -0.6320
   41CHL1   H20 3011   1.019   1.127   4.144  2.9523  0.3642  1.7438
   41CHL1   C21 3012   1.172   0.968   4.171  0.9373 -0.2796  0.3949
   41CHL1  H21A 3013   1.190   0.859   4.176 -1.5142 -0.7335  0.4107
   41CHL1  H21B 3014   1.205   1.009   4.270 -0.6382 -0.3662  0.9850
   41CHL1  H21C 3015   1.244   1.019   4.104  1.1644  1.4263  1.8555
   41CHL1   C22 3016   0.933   0.982   4.261  0.2983  0.2347 -1.1853
   41CHL1  H22A 3017   0.823   0.979   4.245  0.1070 -1.2369  0.2614
   41CHL1  H22B 3018   0.955   0.874   4.275 -0.6464  0.0765 -0.8705
   41CHL1   C23 3019   0.969   1.062   4.388  0.0997 -0.1693 -0.0685
   41CHL1  H23A 3020   1.078   1.065   4.409  0.4074  0.1794 -1.5472
   41CHL1  H23B 3021   0.930   1.164   4.369 -0.7452 -0.3145  0.8318
   41CHL1   C24 3022   0.899   0.998   4.508  0.4908  0.3330  0.1252
   41CHL1  H24A 3023   0.790   0.981   4.494  0.3574  0.6443  0.7614
   41CHL1  H24B 3024   0.940   0.899   4.536  1.1110  0.1960 -1.1863
   41CHL1   C25 3025   0.911   1.082   4.643 -0.2296  0.0122 -0.6913
   41CHL1   H25 3026   1.015   1.120   4.651 -0.9102  1.6868  0.7297
   41CHL1   C26 3027   0.823   1.209   4.646  0.7865 -0.0921 -0.0139
   41CHL1  H26A 3028   0.716   1.182   4.647  0.4449  1.1502 -0.8974
   41CHL1  H26B 3029   0.858   1.277   4.727 -0.0760 -1.5666  1.6505
   41CHL1  H26C 3030   0.843   1.257   4.548 -0.6319 -0.1781 -0.3583
   41CHL1   C27 3031   0.894   0.993   4.773 -0.8670  0.4611  0.5659
   41CHL1  H27A 3032   0.927   1.052   4.861  0.8402  0.1056  0.1994
   41CHL1  H27B 3033   0.791   0.956   4.795 -0.8881  1.3203  2.0153
   41CHL1  H27C 3034   0.962   0.907   4.753  0.3833  1.6967 -0.7557
   42CHL1    C3 3035   5.314   5.543   3.174  0.3666  0.0137  0.3960
   42CHL1    H3 3036   5.241   5.463   3.197 -0.1925  0.0752 -1.0747
   42CHL1    O3 3037   5.351   5.528   3.034 -0.3405  0.4612 -0.0465
   42CHL1   H3' 3038   5.287   5.570   2.977  0.4602  0.4571 -0.9806
   42CHL1    C4 3039   5.280   5.696   3.198  0.1042  0.4586 -0.1764
   42CHL1   H4A 3040   5.371   5.756   3.177  0.7899 -0.1981  0.8589
   42CHL1   H4B 3041   5.201   5.730   3.127 -2.5720  2.5524  3.4526
   42CHL1    C5 3042   5.241   5.711   3.345  0.3700  0.4997  0.4849
   42CHL1    C6 3043   5.114   5.746   3.379  0.4958  0.4531  0.4789
   42CHL1    H6 3044   5.039   5.773   3.302  0.8282  4.0713  1.2718
   42CHL1    C7 3045   5.074   5.759   3.522 -0.2695 -0.2823  0.4256
   42CHL1   H7A 3046   5.014   5.852   3.513 -1.0346 -0.8998 -1.4986
   42CHL1   H7B 3047   5.011   5.672   3.551  3.1107 -2.3658  2.1518
   42CHL1    C8 3048   5.192   5.775   3.616  0.1057  0.5754  0.9234
   42CHL1    H8 3049   5.237   5.876   3.608 -1.0554  0.9846 -1.8735
   42CHL1   C14 3050   5.138   5.758   3.753  0.1747  0.5521  0.6669
   42CHL1   H14 3051   5.093   5.657   3.759 -0.7299  0.9815  1.3645
   42CHL1   C15 3052   5.026   5.860   3.788 -0.0432  0.9169 -0.1777
   42CHL1  H15A 3053   5.039   5.966   3.755 -1.9314  1.0919 -0.4619
   42CHL1  H15B 3054   4.928   5.827   3.748  0.2397  1.2608 -1.1933
   42CHL1   C16 3055   5.027   5.862   3.946  0.1408 -0.8720  1.0210
   42CHL1  H16A 3056   5.041   5.965   3.986 -3.1326 -0.2266  0.7420
   42CHL1  H16B 3057   4.931   5.819   3.979 -1.6767  0.3259 -2.2566
   42CHL1   C17 3058   5.143   5.767   3.984 -0.4113 -0.2802  0.6846
   42CHL1   H17 3059   5.109   5.661   3.978 -0.2392 -0.4223  1.9645
   42CHL1   C13 3060   5.246   5.771   3.863  0.9454 -0.4648 -0.1183
   42CHL1   C18 3061   5.324   5.899   3.860  0.4432 -0.0293  0.2978
   42CHL1  H18A 3062   5.393   5.909   3.774  1.5118 -2.2242  0.8451
   42CHL1  H18B 3063   5.257   5.988   3.858 -1.3818 -1.3418 -2.2069
   42CHL1  H18C 3064   5.396   5.907   3.943  0.7906 -0.1375  0.0068
   42CHL1   C12 3065   5.332   5.653   3.844 -0.6185 -0.0200  0.5748
   42CHL1  H12A 3066   5.410   5.652   3.923  0.1126 -0.0894 -0.1372
   42CHL1  H12B 3067   5.265   5.564   3.851 -2.3593  1.0192 -1.5177
   42CHL1   C11 3068   5.394   5.644   3.703  0.3951 -0.4523  0.1922
   42CHL1  H11A 3069   5.463   5.731   3.705 -1.1622  0.8349  0.4012
   42CHL1  H11B 3070   5.444   5.552   3.667 -1.4703 -1.7584  0.8187
   42CHL1    C9 3071   5.289   5.658   3.584 -0.7162 -1.2505  0.2767
   42CHL1    H9 3072   5.237   5.561   3.591 -1.8552 -0.6534  0.2687
   42CHL1   C10 3073   5.352   5.665   3.445 -0.3129 -0.6842  0.2958
   42CHL1   C19 3074   5.469   5.769   3.448  0.9120  0.5146 -0.3717
   42CHL1  H19A 3075   5.565   5.730   3.489  2.3825  3.1351 -1.0075
   42CHL1  H19B 3076   5.494   5.808   3.347  3.3008  1.7454  0.5899
   42CHL1  H19C 3077   5.441   5.859   3.507  0.0648 -0.6791  1.1272
   42CHL1    C1 3078   5.416   5.532   3.401 -0.1346  0.5333  0.1754
   42CHL1   H1A 3079   5.509   5.511   3.460 -0.1696 -0.3280 -0.0697
   42CHL1   H1B 3080   5.333   5.465   3.432 -0.5455  0.4103 -1.1561
   42CHL1    C2 3081   5.442   5.513   3.251 -0.0568 -0.2891  0.1531
   42CHL1   H2A 3082   5.503   5.423   3.228  2.3013  0.9831  1.0747
   42CHL1   H2B 3083   5.522   5.589   3.235  1.5956 -1.8967  0.3746
   42CHL1   C20 3084   5.197   5.798   4.122  0.0395  0.3937 -1.0911
   42CHL1   H20 3085   5.245   5.898   4.118  0.7224  0.1784  0.8145
   42CHL1   C21 3086   5.300   5.690   4.162  0.1816 -0.3444 -0.0436
   42CHL1  H21A 3087   5.292   5.596   4.103  0.2620  0.0342 -0.6665
   42CHL1  H21B 3088   5.293   5.673   4.272 -1.5222 -2.3378 -0.3954
   42CHL1  H21C 3089   5.399   5.730   4.133 -0.9819  2.2783 -0.6339
   42CHL1   C22 3090   5.085   5.815   4.232 -0.3308 -0.1250  0.0500
   42CHL1  H22A 3091   4.989   5.858   4.195 -0.2734 -1.1405 -1.3553
   42CHL1  H22B 3092   5.069   5.714   4.275 -0.5137 -0.4432 -0.7487
   42CHL1   C23 3093   5.135   5.908   4.347 -1.0353  0.2423  0.4259
   42CHL1  H23A 3094   5.228   5.867   4.393 -0.6733 -0.9055 -1.2661
   42CHL1  H23B 3095   5.160   6.006   4.301 -0.5734 -0.5816 -1.1394
   42CHL1   C24 3096   5.033   5.917   4.467  0.3290 -0.3340 -0.4719
   42CHL1  H24A 3097   4.943   5.955   4.415 -0.6034  0.9059  1.8885
   42CHL1  H24B 3098   5.000   5.816   4.502  0.5470 -0.1112  0.4041
   42CHL1   C25 3099   5.072   6.007   4.581 -0.8950 -0.2879 -0.2953
   42CHL1   H25 3100   5.141   5.948   4.644 -0.3721  1.8931  1.3229
   42CHL1   C26 3101   5.142   6.138   4.536  0.1248  0.5877 -0.8355
   42CHL1  H26A 3102   5.153   6.205   4.624  0.2058 -0.6364  0.1243
   42CHL1  H26B 3103   5.241   6.118   4.490 -0.6702 -0.6066 -2.1401
   42CHL1  H26C 3104   5.076   6.186   4.460  1.3075 -0.1952 -2.4082
   42CHL1   C27 3105   4.942   6.039   4.656  0.4751  0.1182  0.0617
   42CHL1  H27A 3106   4.897   5.948   4.702  0.3964  0.3150  0.3694
   42CHL1  H27B 3107   4.956   6.121   4.729 -0.9026  1.5166 -1.1902
   42CHL1  H27C 3108   4.877   6.074   4.573  1.6438  1.4680 -0.3135
   43CHL1    C3 3109   4.398   1.147   3.302  0.9599 -0.6283  0.1754
   43CHL1    H3 3110   4.505   1.141   3.331  0.2841  0.1431  3.1915
   43CHL1    O3 3111   4.384   1.163   3.158  0.6621  0.0616 -0.3290
   43CHL1   H3' 3112   4.312   1.106   3.130 -0.0888  0.4975  0.6455
   43CHL1    C4 3113   4.338   1.019   3.344  0.0487 -0.0956 -0.1952
   43CHL1   H4A 3114   4.232   1.017   3.309 -0.0018 -2.0288 -0.0287
   43CHL1   H4B 3115   4.376   0.933   3.285 -1.0503 -1.6375  1.2429
   43CHL1    C5 3116   4.336   0.987   3.487  0.3772  0.1991 -0.1038
   43CHL1    C6 3117   4.386   0.872   3.533  0.5133  0.2494 -0.8080
   43CHL1    H6 3118   4.429   0.809   3.454 -1.3398  0.6514 -2.2431
   43CHL1    C7 3119   4.392   0.831   3.677  0.4267 -0.1466 -0.0453
   43CHL1   H7A 3120   4.366   0.724   3.691 -0.1927  0.3284  3.3142
   43CHL1   H7B 3121   4.497   0.846   3.711  0.3237 -0.3954  0.3858
   43CHL1    C8 3122   4.308   0.926   3.774 -0.7725 -0.0641  0.1053
   43CHL1    H8 3123   4.202   0.891   3.766 -1.1803  0.3924  2.5436
   43CHL1   C14 3124   4.357   0.918   3.916 -0.1893 -0.2609  0.5507
   43CHL1   H14 3125   4.462   0.953   3.920 -0.8945  2.0421  0.4175
   43CHL1   C15 3126   4.368   0.769   3.973 -0.2461 -0.8378  0.3459
   43CHL1  H15A 3127   4.272   0.714   3.957 -0.2734 -1.4153  2.2693
   43CHL1  H15B 3128   4.459   0.718   3.937  0.1792  0.5559 -0.6513
   43CHL1   C16 3129   4.384   0.797   4.119 -0.2027  0.5142 -0.3056
   43CHL1  H16A 3130   4.316   0.731   4.177  2.2260 -1.3375  0.6270
   43CHL1  H16B 3131   4.486   0.763   4.147 -0.2752  0.9160  0.4819
   43CHL1   C17 3132   4.361   0.950   4.144  0.4178 -0.0231  0.0386
   43CHL1   H17 3133   4.463   0.991   4.132 -0.2870  2.4848  1.8350
   43CHL1   C13 3134   4.280   0.997   4.026 -1.1966 -0.4216 -0.0925
   43CHL1   C18 3135   4.130   0.956   4.030  0.5049 -0.1291 -0.3224
   43CHL1  H18A 3136   4.087   1.030   4.101  0.4193 -0.2087 -0.2926
   43CHL1  H18B 3137   4.076   0.968   3.934 -0.6120 -0.4257  0.2628
   43CHL1  H18C 3138   4.123   0.851   4.064 -1.2751  0.0908  0.0955
   43CHL1   C12 3139   4.293   1.143   3.986  0.2939 -0.2244 -0.1547
   43CHL1  H12A 3140   4.232   1.209   4.051 -0.1311 -0.3498 -0.4201
   43CHL1  H12B 3141   4.399   1.174   4.000  0.3199 -0.6377  0.5895
   43CHL1   C11 3142   4.262   1.179   3.837 -0.2793  0.0754  0.0765
   43CHL1  H11A 3143   4.151   1.177   3.829 -0.2009  0.2068 -1.3002
   43CHL1  H11B 3144   4.299   1.282   3.819 -0.2641  0.4043  1.8126
   43CHL1    C9 3145   4.324   1.071   3.723  0.2528  0.5085  0.0214
   43CHL1    H9 3146   4.431   1.089   3.748  0.2695 -1.1915  1.3670
   43CHL1   C10 3147   4.281   1.099   3.576  0.1890  0.0306  0.1081
   43CHL1   C19 3148   4.128   1.110   3.570 -0.4143  0.6614  0.1114
   43CHL1  H19A 3149   4.098   1.216   3.588  1.0176  1.1802 -0.4522
   43CHL1  H19B 3150   4.094   1.097   3.465 -0.9308  2.1862  0.0750
   43CHL1  H19C 3151   4.080   1.039   3.641  0.1229 -1.3249 -1.4153
   43CHL1    C1 3152   4.345   1.234   3.527 -0.4342  0.6518  0.0221
   43CHL1   H1A 3153   4.303   1.320   3.584  0.2920  1.2914 -0.3927
   43CHL1   H1B 3154   4.455   1.236   3.540 -0.0772 -0.3616 -2.3447
   43CHL1    C2 3155   4.324   1.259   3.381  0.3994  0.1310  0.1433
   43CHL1   H2A 3156   4.358   1.354   3.335 -1.3038  1.5740  1.7219
   43CHL1   H2B 3157   4.217   1.245   3.355  0.7906  1.3522 -2.4537
   43CHL1   C20 3158   4.309   0.966   4.288 -0.3119 -0.6875  0.3526
   43CHL1   H20 3159   4.211   0.916   4.304 -1.2181  0.4237 -1.4402
   43CHL1   C21 3160   4.278   1.118   4.316  1.0550  0.4452 -0.0763
   43CHL1  H21A 3161   4.363   1.185   4.288  2.0895 -0.7769  0.0360
   43CHL1  H21B 3162   4.247   1.138   4.421  0.4082  0.1855 -0.2145
   43CHL1  H21C 3163   4.191   1.137   4.250 -0.4185 -1.0719  1.3319
   43CHL1   C22 3164   4.410   0.911   4.399  0.1591 -0.4202  0.6570
   43CHL1  H22A 3165   4.367   0.937   4.498  0.8360  2.0389  0.3650
   43CHL1  H22B 3166   4.412   0.800   4.399 -0.3171 -0.4348  0.0643
   43CHL1   C23 3167   4.561   0.945   4.397  0.5313  0.0494 -0.3186
   43CHL1  H23A 3168   4.597   0.926   4.294 -2.0981  2.2669 -1.8088
   43CHL1  H23B 3169   4.576   1.055   4.401  0.2437  0.0589  1.4717
   43CHL1   C24 3170   4.649   0.886   4.508  0.1386 -0.2449 -0.1599
   43CHL1  H24A 3171   4.646   0.775   4.503  0.9192 -0.2478 -0.6976
   43CHL1  H24B 3172   4.755   0.918   4.497 -0.1244  0.3723 -0.9911
   43CHL1   C25 3173   4.605   0.933   4.650  0.3104  1.1064 -0.2573
   43CHL1   H25 3174   4.505   0.894   4.678  0.8266 -1.7211 -2.0486
   43CHL1   C26 3175   4.704   0.870   4.750  0.4032  0.4392  0.4240
   43CHL1  H26A 3176   4.674   0.892   4.854  2.3998 -1.4463  1.4801
   43CHL1  H26B 3177   4.691   0.760   4.744  2.6537  0.0095  2.1404
   43CHL1  H26C 3178   4.807   0.902   4.722  0.5255  0.5316  0.9817
   43CHL1   C27 3179   4.599   1.091   4.684  0.3819  0.0337 -0.0024
   43CHL1  H27A 3180   4.594   1.106   4.794 -0.1153 -1.2103  0.1647
   43CHL1  H27B 3181   4.697   1.135   4.656 -0.8559  2.1336 -1.2551
   43CHL1  H27C 3182   4.519   1.135   4.621 -0.5456 -1.6102 -0.0066
   44CHL1    C3 3183   0.608   6.661   3.380 -0.1692 -0.3620  0.3455
   44CHL1    H3 3184   0.498   6.656   3.388 -0.1202  0.0971  1.3974
   44CHL1    O3 3185   0.627   6.706   3.245  0.2582  0.2178 -0.0695
   44CHL1   H3' 3186   0.641   6.631   3.187  1.2002  1.1190 -1.0676
   44CHL1    C4 3187   0.663   6.769   3.473  0.4247 -0.0184 -0.3232
   44CHL1   H4A 3188   0.766   6.797   3.442 -0.4344  1.3258 -2.1525
   44CHL1   H4B 3189   0.607   6.860   3.444 -2.0136 -1.8316 -1.6560
   44CHL1    C5 3190   0.651   6.730   3.619  0.6768 -0.3730  0.4928
   44CHL1    C6 3191   0.586   6.806   3.708 -0.0978 -0.2045  0.2611
   44CHL1    H6 3192   0.542   6.902   3.676 -0.6804 -1.4343 -3.0411
   44CHL1    C7 3193   0.576   6.770   3.853  0.0993  0.3822 -0.7779
   44CHL1   H7A 3194   0.603   6.855   3.919  1.0466 -0.8616  0.4896
   44CHL1   H7B 3195   0.468   6.756   3.877  0.0255  1.8050 -0.2011
   44CHL1    C8 3196   0.670   6.659   3.888 -0.7226 -0.2373 -0.5942
   44CHL1    H8 3197   0.771   6.704   3.897 -1.1893  0.6637  0.3698
   44CHL1   C14 3198   0.638   6.602   4.027 -0.1312  0.8256 -0.4108
   44CHL1   H14 3199   0.535   6.560   4.027  0.3452 -0.4376  0.7133
   44CHL1   C15 3200   0.638   6.691   4.147 -0.1271  0.4648  0.1850
   44CHL1  H15A 3201   0.718   6.766   4.131  1.5066 -1.1410  0.4125
   44CHL1  H15B 3202   0.535   6.731   4.161 -1.2264 -2.9494  3.8474
   44CHL1   C16 3203   0.665   6.605   4.277  0.4344 -0.4380 -0.7149
   44CHL1  H16A 3204   0.761   6.652   4.309  0.7010  0.7621 -3.0024
   44CHL1  H16B 3205   0.584   6.602   4.353  1.2637  0.3230  0.2251
   44CHL1   C17 3206   0.688   6.458   4.221  0.1092 -0.0785  0.7257
   44CHL1   H17 3207   0.588   6.411   4.210 -0.5672  1.4578 -0.0185
   44CHL1   C13 3208   0.724   6.484   4.070 -0.0141  0.5447  0.0901
   44CHL1   C18 3209   0.880   6.524   4.067  0.3634 -0.1974 -1.0014
   44CHL1  H18A 3210   0.942   6.440   4.106  0.5018 -0.0470 -0.8987
   44CHL1  H18B 3211   0.904   6.547   3.961  1.2826  2.3252 -0.3178
   44CHL1  H18C 3212   0.892   6.618   4.125  2.7734 -0.9201 -0.1994
   44CHL1   C12 3213   0.684   6.363   3.972  0.7280  0.3897  0.2255
   44CHL1  H12A 3214   0.760   6.286   3.997 -1.1670 -1.4244  0.6302
   44CHL1  H12B 3215   0.587   6.309   3.977  1.5088 -1.2045 -0.9296
   44CHL1   C11 3216   0.707   6.406   3.829  0.7602  0.0414  0.2747
   44CHL1  H11A 3217   0.817   6.391   3.825  0.6661 -0.6318  0.0327
   44CHL1  H11B 3218   0.657   6.326   3.770  0.2284  0.5564  0.0192
   44CHL1    C9 3219   0.661   6.546   3.789 -0.1698 -0.4698 -0.3762
   44CHL1    H9 3220   0.550   6.536   3.789 -0.3748  1.4330  0.7159
   44CHL1   C10 3221   0.710   6.590   3.651  0.1359 -0.2227  0.7943
   44CHL1   C19 3222   0.868   6.605   3.635 -0.1095  0.2105  0.5798
   44CHL1  H19A 3223   0.897   6.625   3.530 -0.0521 -0.6594  0.4171
   44CHL1  H19B 3224   0.907   6.685   3.700 -0.9668  0.1008  1.2421
   44CHL1  H19C 3225   0.926   6.515   3.665 -0.0661 -0.3675 -1.1138
   44CHL1    C1 3226   0.661   6.483   3.552 -0.2889 -0.3402  0.2732
   44CHL1   H1A 3227   0.734   6.401   3.571  2.0790  1.8597  1.2515
   44CHL1   H1B 3228   0.556   6.455   3.575 -0.4741 -2.8907 -2.9619
   44CHL1    C2 3229   0.668   6.523   3.405 -0.4484 -0.3754 -0.0856
   44CHL1   H2A 3230   0.632   6.454   3.325 -2.3993 -0.1582  0.5549
   44CHL1   H2B 3231   0.775   6.533   3.376 -0.8145 -2.3289 -2.4905
   44CHL1   C20 3232   0.766   6.371   4.319 -1.1604  0.5209 -0.1300
   44CHL1   H20 3233   0.859   6.419   4.357  0.1653 -1.0975 -1.1858
   44CHL1   C21 3234   0.792   6.226   4.265 -0.1560 -0.0107  0.0118
   44CHL1  H21A 3235   0.833   6.157   4.341  0.6652  0.6971  0.2273
   44CHL1  H21B 3236   0.870   6.227   4.185  0.0871  0.3174  0.2504
   44CHL1  H21C 3237   0.702   6.180   4.220 -0.7120  2.4053 -1.5580
   44CHL1   C22 3238   0.685   6.359   4.449  0.2095 -0.9379  0.1663
   44CHL1  H22A 3239   0.676   6.464   4.484 -0.8282 -0.7907 -0.4916
   44CHL1  H22B 3240   0.583   6.318   4.436  0.5212 -1.5744 -0.3112
   44CHL1   C23 3241   0.750   6.276   4.558 -0.4049  0.7291  0.0886
   44CHL1  H23A 3242   0.737   6.166   4.551 -0.7451  0.7757 -0.0524
   44CHL1  H23B 3243   0.858   6.300   4.555  0.5442 -2.9436  0.5716
   44CHL1   C24 3244   0.691   6.310   4.701 -0.1123 -0.3388  0.1411
   44CHL1  H24A 3245   0.733   6.411   4.720 -1.4233  0.7297 -2.2494
   44CHL1  H24B 3246   0.580   6.311   4.696 -0.0365  0.4088 -2.2719
   44CHL1   C25 3247   0.729   6.222   4.822  0.3351 -0.1796 -0.4298
   44CHL1   H25 3248   0.682   6.268   4.911  1.3661 -1.6345  0.9304
   44CHL1   C26 3249   0.681   6.073   4.808  0.6556 -0.3573  0.7843
   44CHL1  H26A 3250   0.570   6.069   4.805  0.6322  0.4268 -1.1088
   44CHL1  H26B 3251   0.710   6.026   4.712 -3.1355 -1.5594  0.0515
   44CHL1  H26C 3252   0.711   6.014   4.897  1.0331  0.7005  1.3731
   44CHL1   C27 3253   0.884   6.232   4.843  0.5548  0.1934 -0.3101
   44CHL1  H27A 3254   0.917   6.330   4.882  2.6482 -0.8551  0.6829
   44CHL1  H27B 3255   0.909   6.159   4.923 -1.2584 -0.9653 -0.7363
   44CHL1  H27C 3256   0.938   6.202   4.751 -2.5306 -0.3422 -2.0954
   45CHL1    C3 3257   4.219   6.105   3.296 -0.1280 -0.2029  0.8454
   45CHL1    H3 3258   4.314   6.131   3.346  0.6653  0.9474 -1.1774
   45CHL1    O3 3259   4.216   6.123   3.150  0.1166  0.6261  0.1770
   45CHL1   H3' 3260   4.130   6.146   3.115 -1.6331 -1.7213  2.5385
   45CHL1    C4 3261   4.174   5.963   3.330 -0.0301 -0.2450 -0.0704
   45CHL1   H4A 3262   4.072   5.943   3.290  0.4027  0.5640 -1.6493
   45CHL1   H4B 3263   4.244   5.891   3.281 -0.8892 -1.4119  0.3685
   45CHL1    C5 3264   4.164   5.932   3.476 -0.3737 -0.3247  0.3233
   45CHL1    C6 3265   4.232   5.844   3.544 -0.8254 -0.2187 -0.2575
   45CHL1    H6 3266   4.304   5.776   3.497 -0.0826 -0.3370  0.9844
   45CHL1    C7 3267   4.216   5.810   3.693  0.4768 -0.3318 -0.1595
   45CHL1   H7A 3268   4.220   5.700   3.708 -1.2439 -0.7015 -2.0468
   45CHL1   H7B 3269   4.296   5.862   3.751  1.9881 -0.6449 -1.8656
   45CHL1    C8 3270   4.090   5.877   3.760  0.1497 -0.3630 -0.8185
   45CHL1    H8 3271   4.003   5.810   3.743  0.2414 -1.1382  1.4979
   45CHL1   C14 3272   4.104   5.870   3.909 -0.0323 -0.5613 -0.1417
   45CHL1   H14 3273   4.196   5.925   3.938 -0.2518  0.0727 -0.6090
   45CHL1   C15 3274   4.115   5.726   3.961 -0.3331  0.6720  0.6370
   45CHL1  H15A 3275   4.043   5.673   3.895  0.8289 -0.8981  0.5873
   45CHL1  H15B 3276   4.215   5.681   3.941  0.3069  1.7673  1.2793
   45CHL1   C16 3277   4.082   5.739   4.112 -0.0046 -0.1018  1.2510
   45CHL1  H16A 3278   3.998   5.670   4.131  2.0542 -3.3712 -0.6035
   45CHL1  H16B 3279   4.170   5.716   4.176  1.2685  3.3837  0.9887
   45CHL1   C17 3280   4.034   5.884   4.129 -0.0435  0.4094 -0.3525
   45CHL1   H17 3281   4.123   5.944   4.157  0.6303 -0.2752 -0.9830
   45CHL1   C13 3282   3.999   5.939   3.987  0.4880 -0.6871  0.3671
   45CHL1   C18 3283   3.851   5.882   3.956 -0.5886  0.2315  0.2576
   45CHL1  H18A 3284   3.781   5.955   4.002 -0.4481 -0.6862  1.9981
   45CHL1  H18B 3285   3.829   5.878   3.847 -2.3432 -2.2982  0.6027
   45CHL1  H18C 3286   3.827   5.780   3.993 -0.2174 -0.2119 -0.6821
   45CHL1   C12 3287   4.004   6.086   3.954  0.4901 -0.0214  0.6764
   45CHL1  H12A 3288   3.919   6.134   4.007 -1.7112 -3.0251  0.0848
   45CHL1  H12B 3289   4.107   6.116   3.983  1.5045 -1.3152 -1.3891
   45CHL1   C11 3290   3.976   6.113   3.802  0.7466 -0.3881 -0.4603
   45CHL1  H11A 3291   3.869   6.084   3.796  1.0258 -1.5079 -0.3271
   45CHL1  H11B 3292   3.975   6.219   3.769 -1.1357 -1.3342 -3.8831
   45CHL1    C9 3293   4.074   6.025   3.708 -0.6177 -0.3597 -0.0392
   45CHL1    H9 3294   4.170   6.080   3.724 -0.8302  1.5335 -3.9726
   45CHL1   C10 3295   4.070   6.028   3.554  0.4426  1.5238  0.3534
   45CHL1   C19 3296   3.922   5.984   3.519 -0.5872 -0.1071 -0.7737
   45CHL1  H19A 3297   3.908   5.884   3.566  2.5044 -0.0233  0.5788
   45CHL1  H19B 3298   3.849   6.053   3.566  0.5291  0.3349  0.3723
   45CHL1  H19C 3299   3.898   5.978   3.411 -2.9057  1.4566 -0.4225
   45CHL1    C1 3300   4.104   6.171   3.515 -0.1521  0.1083  0.2006
   45CHL1   H1A 3301   4.028   6.236   3.563 -1.1992 -1.8943  1.3894
   45CHL1   H1B 3302   4.205   6.193   3.554  0.0621  1.4669 -1.0141
   45CHL1    C2 3303   4.116   6.195   3.366  0.6390  0.2219  0.5552
   45CHL1   H2A 3304   4.145   6.299   3.341 -3.0970  1.3162  0.2138
   45CHL1   H2B 3305   4.017   6.164   3.326  1.6325 -0.6271 -1.3829
   45CHL1   C20 3306   3.940   5.917   4.255 -0.1382  0.4155  0.6938
   45CHL1   H20 3307   3.844   5.865   4.241 -0.1718  0.8495 -0.8670
   45CHL1   C21 3308   3.907   6.067   4.266  0.4514 -0.2462 -0.4477
   45CHL1  H21A 3309   3.863   6.088   4.365  1.6532 -0.6824  0.1996
   45CHL1  H21B 3310   3.832   6.094   4.189 -1.7121  0.8648  1.9185
   45CHL1  H21C 3311   3.998   6.131   4.263 -0.4550  1.0676 -0.5991
   45CHL1   C22 3312   4.001   5.856   4.385  0.5588 -0.2560  0.1171
   45CHL1  H22A 3313   3.930   5.879   4.468 -0.2455  3.3861 -1.3698
   45CHL1  H22B 3314   4.017   5.747   4.377 -0.0294 -0.2362 -1.6636
   45CHL1   C23 3315   4.136   5.908   4.421 -0.1679 -0.0558 -0.4680
   45CHL1  H23A 3316   4.213   5.882   4.346 -1.2421 -1.9307 -0.9619
   45CHL1  H23B 3317   4.135   6.020   4.420 -3.2540 -0.0124 -1.7159
   45CHL1   C24 3318   4.191   5.868   4.559 -0.1661 -0.4219 -0.0233
   45CHL1  H24A 3319   4.302   5.882   4.557 -0.1110 -0.4231 -3.4919
   45CHL1  H24B 3320   4.145   5.927   4.641  1.4741 -0.8349  1.2489
   45CHL1   C25 3321   4.174   5.723   4.597 -0.2050 -0.0861 -0.1259
   45CHL1   H25 3322   4.067   5.694   4.589 -0.0498 -0.4843 -0.9314
   45CHL1   C26 3323   4.244   5.624   4.510  0.8897  0.3960 -1.1483
   45CHL1  H26A 3324   4.221   5.523   4.550 -0.8400  0.5431 -1.7057
   45CHL1  H26B 3325   4.221   5.622   4.402  2.5259 -0.9504 -1.5214
   45CHL1  H26C 3326   4.355   5.631   4.519  0.8058 -0.1442  0.8093
   45CHL1   C27 3327   4.217   5.716   4.744 -0.0877  0.5187  0.0455
   45CHL1  H27A 3328   4.204   5.614   4.786  1.2142  1.3518  2.6989
   45CHL1  H27B 3329   4.326   5.735   4.746  0.0079 -0.0343  0.3778
   45CHL1  H27C 3330   4.160   5.779   4.817 -1.0406 -0.2440 -0.0158
   46CHL1    C3 3331   5.621   0.466   3.076  0.1162  0.2965 -1.1476
   46CHL1    H3 3332   5.529   0.476   3.137 -1.2003  1.3746 -3.2027
   46CHL1    O3 3333   5.598   0.498   2.939 -0.7230  0.2149  0.2856
   46CHL1   H3' 3334   5.582   0.591   2.922  0.4314  0.2386 -0.8097
   46CHL1    C4 3335   5.729   0.572   3.121  0.4197 -0.1075 -0.6924
   46CHL1   H4A 3336   5.826   0.563   3.068  0.7556  0.5287 -0.1935
   46CHL1   H4B 3337   5.681   0.669   3.095 -0.0060  0.3115  1.4442
   46CHL1    C5 3338   5.757   0.568   3.270 -0.3711 -0.0930 -0.2659
   46CHL1    C6 3339   5.735   0.672   3.347  0.8834 -0.7732 -0.3486
   46CHL1    H6 3340   5.709   0.772   3.310  0.5744 -0.2816  1.1409
   46CHL1    C7 3341   5.762   0.672   3.496  0.6137  0.4160 -0.2203
   46CHL1   H7A 3342   5.819   0.763   3.527 -0.6776  0.9053  0.8627
   46CHL1   H7B 3343   5.669   0.676   3.558 -0.8047 -0.4814 -2.1832
   46CHL1    C8 3344   5.832   0.543   3.543 -0.5476  0.6550  0.4989
   46CHL1    H8 3345   5.940   0.560   3.525 -0.8550  1.8816 -0.2995
   46CHL1   C14 3346   5.812   0.525   3.690  0.1794  0.9312 -0.2429
   46CHL1   H14 3347   5.708   0.488   3.702  0.3820  0.0369 -1.0578
   46CHL1   C15 3348   5.847   0.640   3.784  0.2434  0.2752 -0.5149
   46CHL1  H15A 3349   5.952   0.670   3.766  0.1243  0.9938 -0.0473
   46CHL1  H15B 3350   5.775   0.725   3.789 -1.4322 -1.1338  1.3764
   46CHL1   C16 3351   5.858   0.564   3.917  0.1318  0.0177  0.0596
   46CHL1  H16A 3352   5.949   0.603   3.966 -0.2843  0.6104  0.3718
   46CHL1  H16B 3353   5.769   0.585   3.981 -1.2880 -0.7368 -1.5622
   46CHL1   C17 3354   5.862   0.410   3.893  0.0307  0.3381 -0.5821
   46CHL1   H17 3355   5.759   0.378   3.917  0.5754  0.0308  1.5839
   46CHL1   C13 3356   5.891   0.398   3.742 -0.1065 -0.9234  0.2528
   46CHL1   C18 3357   6.046   0.407   3.715 -0.2525 -0.1807 -0.1052
   46CHL1  H18A 3358   6.069   0.423   3.607 -2.2986  1.4625 -0.3678
   46CHL1  H18B 3359   6.089   0.490   3.774 -0.7384  1.8001 -2.3495
   46CHL1  H18C 3360   6.100   0.322   3.761  1.1060  0.3754 -0.6362
   46CHL1   C12 3361   5.839   0.272   3.666 -0.3079 -0.6647 -0.1873
   46CHL1  H12A 3362   5.908   0.191   3.699  0.4363  0.4626  1.1259
   46CHL1  H12B 3363   5.738   0.246   3.702 -0.0724  0.5508  1.4444
   46CHL1   C11 3364   5.854   0.277   3.517  0.4716 -0.3645 -0.1395
   46CHL1  H11A 3365   5.962   0.263   3.495  0.3886 -1.8742  0.2821
   46CHL1  H11B 3366   5.798   0.190   3.477  0.0651 -1.1104  1.9282
   46CHL1    C9 3367   5.787   0.408   3.471 -0.1765  0.8357 -0.3977
   46CHL1    H9 3368   5.676   0.402   3.483 -0.1596  1.2826  0.0581
   46CHL1   C10 3369   5.802   0.427   3.314 -0.3699  0.2009 -0.6860
   46CHL1   C19 3370   5.946   0.391   3.278  0.3036 -0.1667  0.4314
   46CHL1  H19A 3371   5.977   0.285   3.273 -0.1461 -0.2563 -0.7820
   46CHL1  H19B 3372   5.977   0.438   3.182  1.0109 -1.1876  0.1449
   46CHL1  H19C 3373   6.015   0.443   3.347 -0.6192  1.0235  0.4920
   46CHL1    C1 3374   5.709   0.319   3.245  0.2363  0.7252  0.4556
   46CHL1   H1A 3375   5.761   0.227   3.280  0.0149  0.3327 -0.2247
   46CHL1   H1B 3376   5.611   0.322   3.298 -0.4523 -3.2863 -0.2558
   46CHL1    C2 3377   5.678   0.326   3.093 -0.0734 -0.1526  0.6911
   46CHL1   H2A 3378   5.605   0.246   3.068 -0.5802 -0.1556  2.0930
   46CHL1   H2B 3379   5.773   0.307   3.039  0.5966  1.7389  1.1165
   46CHL1   C20 3380   5.951   0.343   4.001  0.3111  0.4749  0.2453
   46CHL1   H20 3381   6.052   0.389   3.989 -0.9542  3.4840  0.2366
   46CHL1   C21 3382   5.951   0.184   3.992  0.2814 -0.5305  0.3569
   46CHL1  H21A 3383   6.047   0.131   4.007  0.8943 -0.1198 -1.8503
   46CHL1  H21B 3384   5.931   0.154   3.887  1.0584 -0.0757  0.0780
   46CHL1  H21C 3385   5.869   0.145   4.056  1.9815  0.6532  3.4587
   46CHL1   C22 3386   5.922   0.387   4.146 -0.6650 -0.1965 -0.1659
   46CHL1  H22A 3387   5.971   0.485   4.165 -0.0872 -0.8066  1.7320
   46CHL1  H22B 3388   5.813   0.396   4.165 -0.7343 -0.9776 -0.1513
   46CHL1   C23 3389   5.981   0.297   4.258  0.1122 -0.2311 -0.0981
   46CHL1  H23A 3390   5.914   0.208   4.267 -1.0674  0.7119  0.7684
   46CHL1  H23B 3391   6.078   0.256   4.223  1.7778  2.2771  1.2991
   46CHL1   C24 3392   5.990   0.365   4.393 -0.1501  0.3700  0.2123
   46CHL1  H24A 3393   6.045   0.461   4.380 -0.1448  0.3692  0.2279
   46CHL1  H24B 3394   5.886   0.394   4.418  0.4445  0.6830  2.4916
   46CHL1   C25 3395   6.046   0.279   4.501 -0.0119 -0.3738  0.0401
   46CHL1   H25 3396   5.980   0.190   4.512  0.0878 -0.3865  0.5492
   46CHL1   C26 3397   6.197   0.247   4.473  0.5402  0.3584 -0.3502
   46CHL1  H26A 3398   6.238   0.196   4.563  1.6284  0.0241 -1.0080
   46CHL1  H26B 3399   6.212   0.174   4.391 -2.7390  0.0984 -0.8213
   46CHL1  H26C 3400   6.256   0.339   4.455  0.7017 -0.0041 -1.7713
   46CHL1   C27 3401   6.050   0.356   4.635  0.0500  0.4889  0.2138
   46CHL1  H27A 3402   5.948   0.393   4.658  0.0925  1.4821 -1.1015
   46CHL1  H27B 3403   6.077   0.288   4.719 -1.3114  1.2959  1.3536
   46CHL1  H27C 3404   6.116   0.446   4.643 -0.4373  0.8485  0.1982
   47CHL1    C3 3405   5.624   3.851   3.802  0.1618  0.3151 -0.8508
   47CHL1    H3 3406   5.526   3.802   3.823  1.1994 -1.4497  0.0864
   47CHL1    O3 3407   5.654   3.842   3.669 -0.3902 -0.0021 -0.8281
   47CHL1   H3' 3408   5.708   3.763   3.658 -1.7838 -0.8833 -1.5963
   47CHL1    C4 3409   5.610   3.996   3.854 -0.3652  1.1279  0.4175
   47CHL1   H4A 3410   5.705   4.049   3.832  0.0013  0.9646  1.5135
   47CHL1   H4B 3411   5.534   4.042   3.788 -0.2122  0.9762  0.1365
   47CHL1    C5 3412   5.576   4.008   4.005 -0.0842  0.0943  0.1423
   47CHL1    C6 3413   5.474   4.082   4.042 -0.0183 -0.5629 -0.1706
   47CHL1    H6 3414   5.409   4.132   3.968  0.0830  1.1586  0.8651
   47CHL1    C7 3415   5.435   4.098   4.184 -0.7563  0.0917  0.5548
   47CHL1   H7A 3416   5.438   4.206   4.209 -0.3736  0.1735  0.1570
   47CHL1   H7B 3417   5.337   4.048   4.202 -1.7307  1.6428 -0.2951
   47CHL1    C8 3418   5.538   4.039   4.286  0.1159  0.2580 -0.0835
   47CHL1    H8 3419   5.618   4.115   4.287 -0.0790  0.4588  0.3023
   47CHL1   C14 3420   5.472   4.023   4.418  0.4200  0.5702 -0.5447
   47CHL1   H14 3421   5.392   3.947   4.409  1.2559 -0.1325 -2.4372
   47CHL1   C15 3422   5.404   4.149   4.482  0.2485  0.3756 -0.8577
   47CHL1  H15A 3423   5.454   4.243   4.449 -1.4234  2.5076  2.1661
   47CHL1  H15B 3424   5.299   4.149   4.445 -1.3011 -1.1616  3.0709
   47CHL1   C16 3425   5.400   4.121   4.641 -0.1065  0.3859 -0.2967
   47CHL1  H16A 3426   5.455   4.201   4.695  1.0399 -0.4941 -0.1095
   47CHL1  H16B 3427   5.302   4.118   4.693  0.3060  1.8677  0.6323
   47CHL1   C17 3428   5.472   3.982   4.655 -0.2079 -0.3993 -0.0116
   47CHL1   H17 3429   5.394   3.907   4.631  0.9591 -1.2624 -1.2766
   47CHL1   C13 3430   5.570   3.974   4.533  0.9721  0.3354  0.4685
   47CHL1   C18 3431   5.682   4.077   4.556 -0.2292  0.3157  0.4081
   47CHL1  H18A 3432   5.749   4.100   4.471  0.5478  0.8575  1.1518
   47CHL1  H18B 3433   5.654   4.176   4.599  1.4298  0.4958  1.1617
   47CHL1  H18C 3434   5.745   4.033   4.636  0.3056  1.6616  0.7636
   47CHL1   C12 3435   5.620   3.837   4.495 -0.2723 -0.5015  0.0875
   47CHL1  H12A 3436   5.679   3.792   4.577  0.8728  1.3401  0.3100
   47CHL1  H12B 3437   5.536   3.771   4.464 -0.6866  0.7055 -1.5348
   47CHL1   C11 3438   5.693   3.839   4.356 -0.4421 -0.1025 -0.9222
   47CHL1  H11A 3439   5.781   3.905   4.373 -0.6366  1.1431 -4.0451
   47CHL1  H11B 3440   5.725   3.738   4.321  2.1918  0.5605 -0.6460
   47CHL1    C9 3441   5.593   3.906   4.244  0.2784  0.7583  0.1110
   47CHL1    H9 3442   5.504   3.843   4.225  0.9029  0.2354 -1.2468
   47CHL1   C10 3443   5.663   3.914   4.102 -0.4019  0.2723 -0.3687
   47CHL1   C19 3444   5.808   3.968   4.122 -0.2790 -0.7291  0.3649
   47CHL1  H19A 3445   5.857   3.970   4.022 -2.6983 -2.5173 -0.9665
   47CHL1  H19B 3446   5.820   4.072   4.159  2.5990 -0.0040 -2.1403
   47CHL1  H19C 3447   5.863   3.905   4.195 -2.7545 -0.2972  2.7439
   47CHL1    C1 3448   5.672   3.770   4.041  0.0962 -0.0825  0.2152
   47CHL1   H1A 3449   5.747   3.722   4.108  0.4259 -1.0808 -0.8321
   47CHL1   H1B 3450   5.574   3.718   4.050 -0.8101  1.6077  0.5602
   47CHL1    C2 3451   5.721   3.772   3.892 -0.5718  0.6445 -0.3700
   47CHL1   H2A 3452   5.702   3.671   3.850 -1.2628  0.1509  1.0882
   47CHL1   H2B 3453   5.824   3.814   3.881 -0.0985 -0.2683  0.4161
   47CHL1   C20 3454   5.539   3.946   4.796  0.1011 -0.0561 -0.6026
   47CHL1   H20 3455   5.635   3.894   4.771  0.6935  1.1728 -0.9527
   47CHL1   C21 3456   5.446   3.835   4.862  0.4180  0.1156  0.0232
   47CHL1  H21A 3457   5.438   3.751   4.789  0.2562 -0.9022  1.1712
   47CHL1  H21B 3458   5.344   3.875   4.879  0.2479  0.1226 -0.9267
   47CHL1  H21C 3459   5.487   3.777   4.947 -0.7050 -1.1742 -0.2644
   47CHL1   C22 3460   5.564   4.061   4.894  0.1609 -0.0965 -0.0623
   47CHL1  H22A 3461   5.608   4.155   4.855 -0.4376  0.8487  1.4425
   47CHL1  H22B 3462   5.461   4.094   4.920  0.4918  1.6336 -0.7786
   47CHL1   C23 3463   5.650   4.023   5.019 -0.0398 -0.0132  0.6256
   47CHL1  H23A 3464   5.575   3.959   5.070  0.9848 -1.5472  0.2730
   47CHL1  H23B 3465   5.742   3.967   4.993 -0.3392 -0.4013  0.3983
   47CHL1   C24 3466   5.682   4.152   5.101  0.3649  0.2229 -0.8721
   47CHL1  H24A 3467   5.775   4.194   5.058  0.8414  0.1486  0.0807
   47CHL1  H24B 3468   5.597   4.223   5.092 -0.1868 -0.5210 -1.8516
   47CHL1   C25 3469   5.705   4.121   5.252 -1.1308 -0.1323  0.5211
   47CHL1   H25 3470   5.634   4.041   5.283 -1.3778 -0.8891 -1.8011
   47CHL1   C26 3471   5.836   4.041   5.269  0.0483  0.4396 -0.2146
   47CHL1  H26A 3472   5.821   3.942   5.221 -0.5134  1.7810 -2.9877
   47CHL1  H26B 3473   5.919   4.089   5.213 -2.1242  2.0821 -2.1667
   47CHL1  H26C 3474   5.861   4.032   5.377 -0.9669  0.9841  0.0706
   47CHL1   C27 3475   5.704   4.239   5.350  0.0763 -0.5560 -0.6699
   47CHL1  H27A 3476   5.741   4.212   5.451 -0.0687  1.9176  0.1108
   47CHL1  H27B 3477   5.776   4.319   5.319 -0.2540 -0.3275 -0.8587
   47CHL1  H27C 3478   5.606   4.289   5.364  0.9330  1.3924 -1.1768
   48CHL1    C3 3479   5.219   5.167   3.107  0.2051  0.5829 -0.4979
   48CHL1    H3 3480   5.269   5.265   3.123 -0.7346  0.6762  2.3615
   48CHL1    O3 3481   5.251   5.107   2.985  0.0318  0.1779  0.0885
   48CHL1   H3' 3482   5.235   5.164   2.909  1.4297  0.2342 -0.2064
   48CHL1    C4 3483   5.257   5.070   3.225  0.3458  0.1021  0.2209
   48CHL1   H4A 3484   5.211   4.971   3.207  0.9990 -0.3213  0.8039
   48CHL1   H4B 3485   5.368   5.058   3.220  0.4692  1.4403 -1.4036
   48CHL1    C5 3486   5.204   5.143   3.348  0.2848  0.0884 -0.0652
   48CHL1    C6 3487   5.290   5.164   3.446 -0.7960 -0.3572  0.1470
   48CHL1    H6 3488   5.395   5.137   3.428 -0.7169 -0.3200  0.5352
   48CHL1    C7 3489   5.254   5.209   3.585  0.0105  0.0959 -0.3481
   48CHL1   H7A 3490   5.307   5.141   3.655  0.2754 -0.2909 -0.9249
   48CHL1   H7B 3491   5.282   5.315   3.599 -2.2173  0.8255 -0.9382
   48CHL1    C8 3492   5.101   5.206   3.622  0.7870 -0.1303 -0.0780
   48CHL1    H8 3493   5.064   5.103   3.642 -0.3449  0.6824  2.4116
   48CHL1   C14 3494   5.065   5.289   3.743  0.5620  0.0253 -0.1459
   48CHL1   H14 3495   5.101   5.391   3.718 -0.1650  0.5669  0.9384
   48CHL1   C15 3496   5.121   5.238   3.875 -0.1346  0.3918 -0.0114
   48CHL1  H15A 3497   5.115   5.127   3.878 -0.0519  0.3589 -0.8240
   48CHL1  H15B 3498   5.229   5.265   3.878 -0.3644  1.2210  1.6139
   48CHL1   C16 3499   5.040   5.307   3.983  0.1487 -0.2272  0.0353
   48CHL1  H16A 3500   4.991   5.241   4.058  2.1767 -2.0643 -0.1276
   48CHL1  H16B 3501   5.113   5.376   4.029 -0.2792 -0.2340  0.7316
   48CHL1   C17 3502   4.929   5.383   3.912  0.8858 -0.1642  0.4296
   48CHL1   H17 3503   4.969   5.484   3.886 -1.0359 -0.1625 -3.1393
   48CHL1   C13 3504   4.913   5.306   3.774  0.1153  0.1038  0.4781
   48CHL1   C18 3505   4.851   5.161   3.801 -0.2178 -0.7501  0.2650
   48CHL1  H18A 3506   4.857   5.094   3.713 -1.3651 -1.2743  0.5605
   48CHL1  H18B 3507   4.889   5.115   3.895  1.3910 -0.0727 -0.0267
   48CHL1  H18C 3508   4.741   5.173   3.816 -0.2645 -0.1274 -0.5036
   48CHL1   C12 3509   4.862   5.382   3.647  0.0754  1.3637 -0.4839
   48CHL1  H12A 3510   4.752   5.399   3.650 -0.1425  0.0919 -0.6058
   48CHL1  H12B 3511   4.912   5.480   3.636 -0.6737  1.7303 -0.7344
   48CHL1   C11 3512   4.879   5.292   3.516  0.1438 -0.9861 -0.2413
   48CHL1  H11A 3513   4.836   5.190   3.520  0.9358 -1.3218  0.0095
   48CHL1  H11B 3514   4.840   5.356   3.434 -0.3123 -0.5267  0.3312
   48CHL1    C9 3515   5.028   5.260   3.498  0.2000  0.0838  0.9036
   48CHL1    H9 3516   5.075   5.359   3.484 -0.8973  0.1534 -5.0258
   48CHL1   C10 3517   5.052   5.171   3.368 -0.6459  0.5937 -0.4437
   48CHL1   C19 3518   4.969   5.036   3.375  0.4603 -0.1968 -0.4014
   48CHL1  H19A 3519   4.858   5.044   3.365 -0.0751  0.8825  4.1335
   48CHL1  H19B 3520   5.013   4.969   3.298  1.7280  0.0100  0.1321
   48CHL1  H19C 3521   4.985   4.993   3.476  1.3907  1.0512 -0.0014
   48CHL1    C1 3522   5.017   5.255   3.242 -0.5675 -0.2117 -0.2761
   48CHL1   H1A 3523   4.906   5.260   3.245 -0.5122  1.2951  0.5323
   48CHL1   H1B 3524   5.060   5.357   3.255  0.8279 -0.6227 -1.4485
   48CHL1    C2 3525   5.065   5.200   3.103 -0.0952  0.1164  0.0085
   48CHL1   H2A 3526   5.037   5.279   3.031  0.1373  0.0603 -0.1433
   48CHL1   H2B 3527   5.013   5.107   3.072 -0.4895  0.3702 -0.1037
   48CHL1   C20 3528   4.798   5.399   3.994 -0.3150  0.5228  0.3770
   48CHL1   H20 3529   4.769   5.299   4.032  1.9287 -1.0053 -1.6312
   48CHL1   C21 3530   4.689   5.463   3.907 -0.3480  0.5406  0.0494
   48CHL1  H21A 3531   4.660   5.390   3.828  0.2586 -1.2680  1.4282
   48CHL1  H21B 3532   4.723   5.562   3.870 -1.2369  0.2715 -1.6010
   48CHL1  H21C 3533   4.596   5.480   3.966 -0.6057  0.5714 -0.3555
   48CHL1   C22 3534   4.835   5.479   4.122 -0.0387  0.3948 -0.1179
   48CHL1  H22A 3535   4.896   5.418   4.191 -0.4903 -0.2970 -0.3189
   48CHL1  H22B 3536   4.897   5.566   4.092 -0.2185  1.4963  2.4591
   48CHL1   C23 3537   4.715   5.525   4.203 -0.1465  0.3972  0.0129
   48CHL1  H23A 3538   4.645   5.588   4.144  0.9010  0.5828 -1.0809
   48CHL1  H23B 3539   4.658   5.435   4.235 -2.7871  1.2315 -1.9795
   48CHL1   C24 3540   4.755   5.613   4.330  0.8333 -0.3007 -0.5688
   48CHL1  H24A 3541   4.833   5.549   4.378  0.9689  0.5906  0.4351
   48CHL1  H24B 3542   4.795   5.709   4.292 -2.3720  1.2513 -0.3849
   48CHL1   C25 3543   4.632   5.654   4.417  0.0718 -0.6818  0.2753
   48CHL1   H25 3544   4.569   5.566   4.443  0.1926 -0.8352  0.0567
   48CHL1   C26 3545   4.686   5.719   4.551  0.7567  0.0112 -0.1471
   48CHL1  H26A 3546   4.752   5.806   4.528  0.5446  0.7053  1.7116
   48CHL1  H26B 3547   4.596   5.758   4.602  0.3200 -2.6517  1.2897
   48CHL1  H26C 3548   4.750   5.657   4.617  1.0221 -0.6237 -0.9750
   48CHL1   C27 3549   4.552   5.755   4.345  0.7852  0.1413 -0.4337
   48CHL1  H27A 3550   4.479   5.799   4.415  0.1839 -0.2834 -0.7845
   48CHL1  H27B 3551   4.617   5.843   4.325  0.2052  1.5194  3.1202
   48CHL1  H27C 3552   4.506   5.712   4.253 -1.3388 -0.1060  0.6803
   49CHL1    C3 3553   2.702   1.438   3.584 -0.1894 -0.2105  0.1533
   49CHL1    H3 3554   2.677   1.330   3.600 -0.0613 -0.3455 -0.5314
   49CHL1    O3 3555   2.690   1.481   3.448 -0.4633  0.2268  0.1895
   49CHL1   H3' 3556   2.671   1.411   3.386 -3.6043  0.3807  0.8430
   49CHL1    C4 3557   2.596   1.508   3.662  0.4831  0.3041 -0.0783
   49CHL1   H4A 3558   2.595   1.613   3.625  1.8978  0.5895  0.6075
   49CHL1   H4B 3559   2.498   1.481   3.618  1.1379  0.8653 -1.9579
   49CHL1    C5 3560   2.600   1.473   3.812 -0.4685 -0.2264 -0.5045
   49CHL1    C6 3561   2.499   1.416   3.874 -0.4056  0.0658 -0.4829
   49CHL1    H6 3562   2.400   1.411   3.827 -1.1008  0.2026  0.9045
   49CHL1    C7 3563   2.498   1.378   4.025 -0.3028 -0.3354 -0.0599
   49CHL1   H7A 3564   2.407   1.417   4.075  0.0089  0.9648 -0.4560
   49CHL1   H7B 3565   2.498   1.269   4.047 -0.1502 -0.3682 -0.2175
   49CHL1    C8 3566   2.605   1.456   4.105  0.3109  0.4207  0.5187
   49CHL1    H8 3567   2.578   1.562   4.121  0.1144  0.5353 -0.5379
   49CHL1   C14 3568   2.620   1.389   4.240  0.3328  0.3005  0.7708
   49CHL1   H14 3569   2.637   1.281   4.220 -1.6311  0.2962 -1.3275
   49CHL1   C15 3570   2.495   1.383   4.327  0.4526  0.6150  0.0252
   49CHL1  H15A 3571   2.448   1.484   4.327 -1.5554 -0.2484 -1.3052
   49CHL1  H15B 3572   2.425   1.300   4.303  3.9534 -2.2144 -1.4283
   49CHL1   C16 3573   2.544   1.347   4.469  0.1459 -0.0032 -0.1727
   49CHL1  H16A 3574   2.510   1.424   4.541 -0.1219  0.0564 -0.3621
   49CHL1  H16B 3575   2.519   1.246   4.507  0.6903 -1.5886 -3.6357
   49CHL1   C17 3576   2.699   1.367   4.464 -0.5579 -0.7922  0.4490
   49CHL1   H17 3577   2.740   1.264   4.456 -1.2763 -1.0053 -0.7345
   49CHL1   C13 3578   2.730   1.441   4.329  0.2787 -0.0436 -0.6259
   49CHL1   C18 3579   2.709   1.598   4.353  0.2848  0.4310 -0.0229
   49CHL1  H18A 3580   2.624   1.618   4.421  1.3110  1.0729  1.1003
   49CHL1  H18B 3581   2.803   1.629   4.403  1.1768 -2.0615 -0.0174
   49CHL1  H18C 3582   2.706   1.665   4.264 -2.8507  0.4195 -0.0125
   49CHL1   C12 3583   2.866   1.422   4.254 -0.1292  0.3275 -0.0278
   49CHL1  H12A 3584   2.942   1.471   4.319 -0.1352 -0.3461  0.5030
   49CHL1  H12B 3585   2.877   1.314   4.233  0.1571  0.6371 -1.6160
   49CHL1   C11 3586   2.858   1.490   4.116  0.0550 -0.2223  0.2761
   49CHL1  H11A 3587   2.859   1.599   4.137  0.3877 -0.3679  1.0488
   49CHL1  H11B 3588   2.950   1.461   4.061  0.0085 -0.3198  0.2493
   49CHL1    C9 3589   2.739   1.444   4.023  0.2402  0.7181 -0.0079
   49CHL1    H9 3590   2.770   1.339   4.007  0.6861  1.1742 -2.6288
   49CHL1   C10 3591   2.731   1.497   3.878 -0.3307 -0.5320 -0.1980
   49CHL1   C19 3592   2.745   1.650   3.891 -0.0020  0.2255  0.1986
   49CHL1  H19A 3593   2.833   1.667   3.957  0.5916 -1.3926 -0.1243
   49CHL1  H19B 3594   2.753   1.712   3.799  1.5885  0.4355  0.4420
   49CHL1  H19C 3595   2.659   1.693   3.946 -0.9573 -0.6543 -0.5758
   49CHL1    C1 3596   2.847   1.444   3.794  0.1109 -0.1047  0.4057
   49CHL1   H1A 3597   2.948   1.465   3.835  0.0244  2.0524 -0.3487
   49CHL1   H1B 3598   2.835   1.334   3.794  0.9238 -0.2115 -0.7014
   49CHL1    C2 3599   2.841   1.475   3.644  0.0501  0.5923 -0.6037
   49CHL1   H2A 3600   2.913   1.414   3.587  0.9257  1.4441 -0.4396
   49CHL1   H2B 3601   2.863   1.580   3.612 -0.4652  1.3617  1.4063
   49CHL1   C20 3602   2.750   1.420   4.600 -0.4183 -0.1290 -0.0281
   49CHL1   H20 3603   2.732   1.529   4.608 -0.4285 -0.1532  0.3106
   49CHL1   C21 3604   2.898   1.382   4.594 -0.1983  0.0198  0.0439
   49CHL1  H21A 3605   2.957   1.428   4.677  0.9530 -0.7549 -0.3222
   49CHL1  H21B 3606   2.946   1.432   4.507 -1.2578  3.4559  1.2625
   49CHL1  H21C 3607   2.921   1.273   4.597  2.5517  0.5557  1.2704
   49CHL1   C22 3608   2.679   1.346   4.716 -0.3577  0.1191  0.2797
   49CHL1  H22A 3609   2.576   1.387   4.728 -0.7305 -0.8722  0.6043
   49CHL1  H22B 3610   2.678   1.236   4.701  1.1163 -0.0783  1.3186
   49CHL1   C23 3611   2.745   1.383   4.845  0.0925  0.3498 -0.2008
   49CHL1  H23A 3612   2.832   1.314   4.848 -0.9352 -1.2604 -3.2998
   49CHL1  H23B 3613   2.782   1.487   4.831 -0.7883  0.9007  1.2975
   49CHL1   C24 3614   2.645   1.366   4.962  0.2186  0.4928 -0.5602
   49CHL1  H24A 3615   2.549   1.418   4.947  0.6128  1.7641  1.0309
   49CHL1  H24B 3616   2.614   1.259   4.957  1.2973  0.1789 -1.0511
   49CHL1   C25 3617   2.691   1.412   5.102  0.5388  0.2673  0.6913
   49CHL1   H25 3618   2.723   1.515   5.076 -0.1330  0.6192  1.2278
   49CHL1   C26 3619   2.579   1.420   5.206 -0.4383 -0.0939 -0.1331
   49CHL1  H26A 3620   2.543   1.318   5.232 -0.7647 -0.0689 -0.4767
   49CHL1  H26B 3621   2.608   1.475   5.297 -0.7447  0.1072 -0.1554
   49CHL1  H26C 3622   2.495   1.480   5.165  0.5881 -0.0736 -2.3670
   49CHL1   C27 3623   2.811   1.327   5.151 -0.1399 -0.2669  1.0353
   49CHL1  H27A 3624   2.905   1.339   5.094  0.9163 -4.1299  1.6594
   49CHL1  H27B 3625   2.846   1.349   5.254  3.0192  1.2110 -0.2219
   49CHL1  H27C 3626   2.772   1.224   5.138  0.7761 -0.2685 -2.8998
   50CHL1    C3 3627   1.406   0.463   3.049  0.5278  0.2845  0.5632
   50CHL1    H3 3628   1.355   0.560   3.067  0.4028  0.0914  1.2759
   50CHL1    O3 3629   1.412   0.449   2.909 -0.6363  0.4301  0.4695
   50CHL1   H3' 3630   1.323   0.434   2.877  0.4834  0.7074 -3.1241
   50CHL1    C4 3631   1.543   0.449   3.124  0.5631 -0.3047  0.6950
   50CHL1   H4A 3632   1.592   0.355   3.091  0.6977 -0.0424  0.1312
   50CHL1   H4B 3633   1.600   0.536   3.083 -1.2017  1.1335  1.1546
   50CHL1    C5 3634   1.524   0.456   3.272  0.1222 -0.8958  0.4137
   50CHL1    C6 3635   1.587   0.552   3.340  0.4950 -0.0999  0.4885
   50CHL1    H6 3636   1.658   0.619   3.289  0.6407 -0.4294  0.2571
   50CHL1    C7 3637   1.580   0.562   3.496 -0.2624 -0.0403  0.2710
   50CHL1   H7A 3638   1.684   0.580   3.533  0.5897  2.6720 -2.8958
   50CHL1   H7B 3639   1.518   0.650   3.524 -1.4948 -1.4831  2.3796
   50CHL1    C8 3640   1.509   0.441   3.561 -0.5733  0.1479 -0.3050
   50CHL1    H8 3641   1.582   0.356   3.566 -1.5509 -0.6521  2.9593
   50CHL1   C14 3642   1.462   0.481   3.705  0.0016  0.2403 -0.0875
   50CHL1   H14 3643   1.380   0.550   3.677 -1.5265 -1.4314  0.0691
   50CHL1   C15 3644   1.558   0.551   3.807  0.0670  0.8027 -0.1862
   50CHL1  H15A 3645   1.657   0.500   3.803  1.2569  2.9616  0.4207
   50CHL1  H15B 3646   1.576   0.659   3.791  2.1399  0.5115 -0.0577
   50CHL1   C16 3647   1.503   0.516   3.940 -0.7596  0.0668 -0.6832
   50CHL1  H16A 3648   1.573   0.453   3.999 -1.5229 -1.5083 -1.4022
   50CHL1  H16B 3649   1.487   0.607   4.001 -0.5813  1.0654 -2.0673
   50CHL1   C17 3650   1.378   0.428   3.919  0.0558  0.6176  0.3547
   50CHL1   H17 3651   1.295   0.499   3.897 -0.5434 -0.0189  0.5327
   50CHL1   C13 3652   1.400   0.359   3.780  0.3881 -0.5983  0.3936
   50CHL1   C18 3653   1.492   0.240   3.790  0.0829 -0.5805 -0.1917
   50CHL1  H18A 3654   1.573   0.261   3.863 -1.3520 -0.0861  1.3294
   50CHL1  H18B 3655   1.447   0.155   3.846 -1.2961  0.1151 -0.2088
   50CHL1  H18C 3656   1.521   0.198   3.692  0.0255 -2.5527  0.5809
   50CHL1   C12 3657   1.267   0.320   3.693  0.1141 -0.3643  0.0410
   50CHL1  H12A 3658   1.229   0.219   3.720  2.4495 -1.1900  0.5107
   50CHL1  H12B 3659   1.193   0.401   3.710 -1.5644 -1.5339 -1.2865
   50CHL1   C11 3660   1.302   0.289   3.544 -0.0305  0.7388 -0.0921
   50CHL1  H11A 3661   1.350   0.189   3.541  1.5288  1.4177  0.8782
   50CHL1  H11B 3662   1.208   0.286   3.485  0.8819  2.1096 -1.7345
   50CHL1    C9 3663   1.386   0.398   3.482 -0.5844  0.1926 -0.3073
   50CHL1    H9 3664   1.330   0.493   3.486  3.5956  2.9816  5.0683
   50CHL1   C10 3665   1.421   0.363   3.333  0.1447 -0.7636  0.1801
   50CHL1   C19 3666   1.478   0.217   3.324 -0.0522 -1.1750 -0.4568
   50CHL1  H19A 3667   1.531   0.200   3.228 -0.4130 -1.8523 -0.5435
   50CHL1  H19B 3668   1.547   0.213   3.412 -0.7699  0.5951  0.2395
   50CHL1  H19C 3669   1.402   0.139   3.346 -0.9220 -0.7395 -1.8394
   50CHL1    C1 3670   1.290   0.369   3.246 -0.0307  0.1094  0.0219
   50CHL1   H1A 3671   1.220   0.292   3.285 -0.1728 -0.4393 -1.2815
   50CHL1   H1B 3672   1.246   0.470   3.260 -1.5438 -0.5566  0.3197
   50CHL1    C2 3673   1.305   0.353   3.094 -0.3861 -0.3513 -0.3103
   50CHL1   H2A 3674   1.211   0.378   3.040  0.4807  0.3728 -1.5495
   50CHL1   H2B 3675   1.349   0.257   3.061  0.6166 -0.5951  1.5894
   50CHL1   C20 3676   1.336   0.339   4.034 -0.2172 -0.5986 -0.1725
   50CHL1   H20 3677   1.410   0.257   4.043 -1.0215 -1.3727 -0.5789
   50CHL1   C21 3678   1.198   0.281   4.005  0.2343 -0.0119  0.4129
   50CHL1  H21A 3679   1.150   0.242   4.097 -0.1714 -0.4266  0.0290
   50CHL1  H21B 3680   1.214   0.191   3.941 -0.7579  0.1479 -0.0720
   50CHL1  H21C 3681   1.133   0.345   3.942  1.1586  1.0261  0.4674
   50CHL1   C22 3682   1.335   0.414   4.171 -0.4422  0.1194 -0.1731
   50CHL1  H22A 3683   1.435   0.460   4.185 -0.4142  0.2097 -0.6773
   50CHL1  H22B 3684   1.258   0.494   4.171 -1.0587 -0.2974  3.3650
   50CHL1   C23 3685   1.333   0.319   4.296  0.2032 -1.1662 -0.1392
   50CHL1  H23A 3686   1.228   0.282   4.300 -0.0851 -0.6455 -1.9580
   50CHL1  H23B 3687   1.404   0.235   4.278  2.1890  0.3707  0.1528
   50CHL1   C24 3688   1.358   0.401   4.434  0.2469  0.6754  0.1932
   50CHL1  H24A 3689   1.455   0.450   4.413  0.2954  0.4285 -0.1738
   50CHL1  H24B 3690   1.275   0.474   4.443 -0.1828  0.0129  1.9011
   50CHL1   C25 3691   1.364   0.334   4.573 -1.2427  0.6431 -0.6485
   50CHL1   H25 3692   1.458   0.276   4.589 -0.8352  1.9548  2.6069
   50CHL1   C26 3693   1.361   0.436   4.686  0.0514 -0.0724 -0.5304
   50CHL1  H26A 3694   1.462   0.482   4.699  0.2093  0.1434 -2.2615
   50CHL1  H26B 3695   1.293   0.523   4.674 -0.2025  0.0162  1.3330
   50CHL1  H26C 3696   1.338   0.377   4.777 -0.9584  0.4106 -0.4649
   50CHL1   C27 3697   1.248   0.230   4.588 -0.7239 -0.1510  0.2694
   50CHL1  H27A 3698   1.157   0.294   4.583  0.5621  1.6984 -0.7201
   50CHL1  H27B 3699   1.244   0.159   4.502 -2.3145 -0.9501  0.9633
   50CHL1  H27C 3700   1.266   0.192   4.691  0.1728  2.6713  1.2547
   51CHL1    C3 3701   2.276   6.208   3.710  0.5552 -0.2398  0.6313
   51CHL1    H3 3702   2.173   6.246   3.729 -0.1640 -2.2194  0.8679
   51CHL1    O3 3703   2.282   6.165   3.570  0.5621  0.1960 -0.0226
   51CHL1   H3' 3704   2.205   6.111   3.558  0.6729 -0.3527  1.5181
   51CHL1    C4 3705   2.378   6.318   3.739 -0.6186 -0.7284 -0.2752
   51CHL1   H4A 3706   2.472   6.272   3.700  0.4100  1.0733 -0.0454
   51CHL1   H4B 3707   2.353   6.404   3.673 -0.9471 -1.7045 -1.4822
   51CHL1    C5 3708   2.383   6.364   3.886 -0.0180 -0.2020  0.4461
   51CHL1    C6 3709   2.364   6.493   3.919 -0.0507  0.1433 -0.7113
   51CHL1    H6 3710   2.351   6.562   3.835 -1.4226 -1.8938 -2.2680
   51CHL1    C7 3711   2.370   6.544   4.059 -0.5633 -0.0449 -0.3823
   51CHL1   H7A 3712   2.427   6.639   4.055 -0.4965 -0.1288 -1.7374
   51CHL1   H7B 3713   2.267   6.558   4.099  0.0997  2.1866  0.6866
   51CHL1    C8 3714   2.446   6.447   4.159 -0.2601  0.5113  0.9872
   51CHL1    H8 3715   2.552   6.447   4.125 -0.9127  0.7118 -1.2408
   51CHL1   C14 3716   2.439   6.486   4.300  0.4422 -1.0165  0.0431
   51CHL1   H14 3717   2.333   6.490   4.334  0.2753 -0.7487 -0.5031
   51CHL1   C15 3718   2.490   6.627   4.336 -0.1217  0.4893 -0.0987
   51CHL1  H15A 3719   2.592   6.622   4.293  0.6585 -1.2159  1.7702
   51CHL1  H15B 3720   2.425   6.710   4.303 -1.7370  0.2191  2.1432
   51CHL1   C16 3721   2.514   6.619   4.486 -0.1176 -0.7261  0.2941
   51CHL1  H16A 3722   2.618   6.657   4.498  0.0967 -1.5939  1.2218
   51CHL1  H16B 3723   2.451   6.687   4.547 -0.0779 -1.1419  0.7980
   51CHL1   C17 3724   2.483   6.472   4.534  0.2205 -0.9780  0.1072
   51CHL1   H17 3725   2.373   6.470   4.551  0.1981  1.7086  0.6443
   51CHL1   C13 3726   2.497   6.392   4.401  0.1065 -0.3944 -0.1807
   51CHL1   C18 3727   2.656   6.372   4.373  0.2542  0.8077  0.7637
   51CHL1  H18A 3728   2.683   6.335   4.272  0.4972 -0.8357  1.3937
   51CHL1  H18B 3729   2.712   6.467   4.387  0.0655  0.8969  0.9173
   51CHL1  H18C 3730   2.697   6.293   4.441 -1.9066  0.0363  1.2311
   51CHL1   C12 3731   2.411   6.265   4.386 -0.1081 -0.7440  0.1058
   51CHL1  H12A 3732   2.447   6.196   4.465 -0.1402  0.7382  1.4530
   51CHL1  H12B 3733   2.301   6.277   4.396  0.1187  1.3721  0.4684
   51CHL1   C11 3734   2.429   6.206   4.242 -0.2648 -0.0867 -0.1567
   51CHL1  H11A 3735   2.537   6.179   4.230  0.5279  2.2584  1.1319
   51CHL1  H11B 3736   2.361   6.118   4.235 -0.5347 -0.0707  1.6927
   51CHL1    C9 3737   2.389   6.309   4.130  0.2256 -0.0010  0.2826
   51CHL1    H9 3738   2.279   6.320   4.143  0.2898  0.6959  0.2687
   51CHL1   C10 3739   2.396   6.256   3.983 -0.4514  0.2386 -0.4806
   51CHL1   C19 3740   2.544   6.201   3.974  0.7386  0.2790 -0.4099
   51CHL1  H19A 3741   2.539   6.101   4.021 -0.7042  0.6440  0.2845
   51CHL1  H19B 3742   2.584   6.187   3.871 -0.3982  1.7395 -1.0981
   51CHL1  H19C 3743   2.615   6.271   4.023 -0.2787  1.8595 -1.0805
   51CHL1    C1 3744   2.286   6.141   3.948  0.2141  0.1346  0.4999
   51CHL1   H1A 3745   2.296   6.053   4.016 -1.4620 -0.4316  0.0742
   51CHL1   H1B 3746   2.184   6.182   3.963  0.0948  0.0027  0.0463
   51CHL1    C2 3747   2.294   6.088   3.809 -0.1936  0.6871 -0.0897
   51CHL1   H2A 3748   2.219   6.011   3.782  1.8088 -0.5632 -2.4114
   51CHL1   H2B 3749   2.392   6.040   3.792 -0.4964  0.2446 -0.5956
   51CHL1   C20 3750   2.560   6.436   4.664  0.3692  0.7474 -0.3381
   51CHL1   H20 3751   2.668   6.427   4.643  1.2319 -0.0640  3.6978
   51CHL1   C21 3752   2.524   6.295   4.713  0.0904  0.5484 -0.2394
   51CHL1  H21A 3753   2.547   6.215   4.640  1.2873  0.4264  0.2564
   51CHL1  H21B 3754   2.413   6.296   4.727  0.1795 -1.0888  0.9071
   51CHL1  H21C 3755   2.572   6.264   4.809 -0.9241  0.8457  0.3886
   51CHL1   C22 3756   2.532   6.549   4.766 -0.1236  0.8338 -0.2551
   51CHL1  H22A 3757   2.575   6.648   4.741 -0.2540  1.1934  0.8774
   51CHL1  H22B 3758   2.424   6.570   4.776 -0.2571  0.5972 -1.0941
   51CHL1   C23 3759   2.585   6.514   4.906  0.0877 -0.5292 -0.1520
   51CHL1  H23A 3760   2.569   6.598   4.976  0.4466  0.2158 -0.9549
   51CHL1  H23B 3761   2.524   6.431   4.947  0.6558  0.5254  3.0371
   51CHL1   C24 3762   2.735   6.477   4.908 -0.9410 -0.2913 -0.1279
   51CHL1  H24A 3763   2.747   6.371   4.877  2.0448 -0.3197  0.8182
   51CHL1  H24B 3764   2.783   6.542   4.831 -1.4735  0.0927 -0.1450
   51CHL1   C25 3765   2.787   6.486   5.052 -0.4076  0.9875 -0.1265
   51CHL1   H25 3766   2.803   6.593   5.079  0.7537  0.6182  0.7537
   51CHL1   C26 3767   2.704   6.411   5.157  0.3924  0.1405  0.2437
   51CHL1  H26A 3768   2.601   6.447   5.179  0.0767 -1.5019  1.6689
   51CHL1  H26B 3769   2.690   6.304   5.131 -0.0302 -0.6511  3.3243
   51CHL1  H26C 3770   2.770   6.413   5.246 -0.3564 -0.0686  0.8151
   51CHL1   C27 3771   2.931   6.419   5.060 -0.1213 -0.4267 -0.5972
   51CHL1  H27A 3772   3.002   6.447   4.979  1.7989 -1.4584  0.6562
   51CHL1  H27B 3773   2.975   6.442   5.159 -1.9850  0.0819  0.1617
   51CHL1  H27C 3774   2.927   6.308   5.060  2.5724 -0.5847 -0.8702
   52CHL1    C3 3775   0.904   2.176   3.311  0.7214  0.3320  0.1031
   52CHL1    H3 3776   0.800   2.137   3.316  0.5608  0.6642 -0.4958
   52CHL1    O3 3777   0.943   2.174   3.179 -0.2701  0.2148  0.0562
   52CHL1   H3' 3778   0.915   2.258   3.140 -0.4694 -0.0462 -0.3664
   52CHL1    C4 3779   0.911   2.320   3.366  0.3534  0.7222 -0.3584
   52CHL1   H4A 3780   1.015   2.360   3.356  1.2597 -0.8161  2.0207
   52CHL1   H4B 3781   0.840   2.385   3.312  0.1779  0.9481  0.1447
   52CHL1    C5 3782   0.876   2.315   3.517 -0.1821  0.4590 -0.0396
   52CHL1    C6 3783   0.775   2.388   3.560  0.5683 -0.0896 -0.3240
   52CHL1    H6 3784   0.723   2.455   3.490 -1.6106 -2.4601 -1.1316
   52CHL1    C7 3785   0.730   2.412   3.703 -0.0439  0.1666  0.3543
   52CHL1   H7A 3786   0.722   2.519   3.732  0.3263  0.3115 -0.0676
   52CHL1   H7B 3787   0.629   2.371   3.721  0.0447  0.0803  0.6646
   52CHL1    C8 3788   0.827   2.343   3.796  0.1792 -0.0936  0.0306
   52CHL1    H8 3789   0.915   2.408   3.815 -0.1279 -0.1246  1.6607
   52CHL1   C14 3790   0.762   2.324   3.938  0.4141 -0.1107  0.0242
   52CHL1   H14 3791   0.690   2.242   3.917  0.1530  0.3523 -0.9493
   52CHL1   C15 3792   0.685   2.445   4.005 -0.6246  0.0075  0.4751
   52CHL1  H15A 3793   0.723   2.547   3.986  0.3059 -0.8770 -3.1488
   52CHL1  H15B 3794   0.584   2.442   3.960  0.1120 -1.7051 -1.1872
   52CHL1   C16 3795   0.695   2.408   4.154  0.2335  0.0327 -0.2678
   52CHL1  H16A 3796   0.764   2.479   4.204 -2.7267  1.3911  2.1828
   52CHL1  H16B 3797   0.594   2.423   4.197 -0.2998  0.2807 -1.5669
   52CHL1   C17 3798   0.753   2.263   4.158  0.6117 -0.7373 -0.0270
   52CHL1   H17 3799   0.672   2.187   4.149 -1.2154  0.6462  3.0936
   52CHL1   C13 3800   0.855   2.265   4.040 -0.3447  0.4674  1.0351
   52CHL1   C18 3801   0.984   2.345   4.080 -0.1909 -0.9096  0.4306
   52CHL1  H18A 3802   1.038   2.306   4.170  1.1335 -1.6738 -0.6553
   52CHL1  H18B 3803   1.058   2.339   3.998  0.3394 -1.5938  0.9477
   52CHL1  H18C 3804   0.956   2.451   4.097  0.1106 -0.4898 -1.4665
   52CHL1   C12 3805   0.900   2.120   3.991 -0.1227 -0.2724  0.2447
   52CHL1  H12A 3806   0.969   2.069   4.062 -0.1175  0.0562  0.4817
   52CHL1  H12B 3807   0.805   2.063   3.987  0.4747 -1.2460 -2.6821
   52CHL1   C11 3808   0.971   2.120   3.852  1.5176  0.0862 -0.1445
   52CHL1  H11A 3809   1.072   2.166   3.859  1.3527  0.4370 -0.0552
   52CHL1  H11B 3810   0.970   2.016   3.813 -1.5138 -0.3973  0.9332
   52CHL1    C9 3811   0.884   2.207   3.747  0.1515 -0.4829 -0.2615
   52CHL1    H9 3812   0.794   2.142   3.742  0.7033 -1.2334 -0.6774
   52CHL1   C10 3813   0.957   2.223   3.607 -0.8103 -0.0500  0.2185
   52CHL1   C19 3814   1.093   2.291   3.622 -0.1357  0.3074  0.2092
   52CHL1  H19A 3815   1.096   2.393   3.666  1.9371 -0.2000  1.3819
   52CHL1  H19B 3816   1.162   2.227   3.680  0.2988  1.7372  1.3118
   52CHL1  H19C 3817   1.147   2.287   3.525  0.4986 -2.6841  0.5938
   52CHL1    C1 3818   0.974   2.083   3.540  0.6892 -0.2767  0.3089
   52CHL1   H1A 3819   1.049   2.017   3.587 -0.7525 -0.8068  1.9521
   52CHL1   H1B 3820   0.878   2.029   3.551  0.2255 -0.4463 -3.3404
   52CHL1    C2 3821   1.001   2.081   3.391 -0.1108 -0.3932 -0.1283
   52CHL1   H2A 3822   0.990   1.980   3.347 -3.0420 -0.6389  0.9255
   52CHL1   H2B 3823   1.101   2.126   3.373  0.1374 -0.4180  1.1181
   52CHL1   C20 3824   0.810   2.234   4.300  0.3107 -0.3719 -0.4507
   52CHL1   H20 3825   0.914   2.269   4.314  0.8462 -1.3095 -1.8495
   52CHL1   C21 3826   0.828   2.083   4.306  0.7190 -0.2015 -1.0210
   52CHL1  H21A 3827   0.913   2.052   4.241  1.9272 -0.5599  0.6572
   52CHL1  H21B 3828   0.730   2.031   4.298 -0.7087  1.8014  1.6613
   52CHL1  H21C 3829   0.863   2.062   4.409 -2.1522  0.0932  0.1122
   52CHL1   C22 3830   0.721   2.284   4.417  0.2396  0.2336 -0.0971
   52CHL1  H22A 3831   0.725   2.395   4.415  0.4549  0.2199 -0.8572
   52CHL1  H22B 3832   0.615   2.261   4.395  0.8433 -1.1036 -1.9540
   52CHL1   C23 3833   0.786   2.251   4.554  0.5981 -0.6144 -0.1007
   52CHL1  H23A 3834   0.754   2.148   4.581 -1.8864 -0.5427 -2.3406
   52CHL1  H23B 3835   0.896   2.249   4.545  0.7599  2.3759  0.1532
   52CHL1   C24 3836   0.764   2.342   4.676 -0.2944  0.1928 -0.5852
   52CHL1  H24A 3837   0.820   2.437   4.667  1.6518 -0.5710  2.0903
   52CHL1  H24B 3838   0.656   2.365   4.672 -0.0083  1.5602 -0.9478
   52CHL1   C25 3839   0.800   2.281   4.812  0.0962  1.1852 -0.8383
   52CHL1   H25 3840   0.765   2.175   4.818  2.8734  0.2326  0.0607
   52CHL1   C26 3841   0.949   2.255   4.843 -0.1454  0.7711  0.1715
   52CHL1  H26A 3842   1.001   2.352   4.859  0.6816  0.4207 -0.3191
   52CHL1  H26B 3843   0.965   2.183   4.925  1.8050  1.8702  0.8228
   52CHL1  H26C 3844   0.991   2.211   4.750 -0.2306  1.6217 -0.2817
   52CHL1   C27 3845   0.733   2.366   4.918 -0.1100  0.2840  0.0947
   52CHL1  H27A 3846   0.760   2.336   5.021  0.7617  2.7043  0.6355
   52CHL1  H27B 3847   0.774   2.469   4.914  0.9136 -0.1029  0.2663
   52CHL1  H27C 3848   0.622   2.359   4.910 -0.1827  0.8405  0.5573
   53CHL1    C3 3849   5.882   5.204   3.110 -0.3972  0.6603  0.6118
   53CHL1    H3 3850   5.797   5.271   3.083 -1.8422 -1.0072  0.7947
   53CHL1    O3 3851   5.930   5.155   2.985 -0.4236  0.3395 -0.2252
   53CHL1   H3' 3852   6.017   5.116   2.996 -1.6899 -2.1158  2.5641
   53CHL1    C4 3853   5.991   5.266   3.195 -0.2961  0.3171 -0.6812
   53CHL1   H4A 3854   6.077   5.195   3.204 -1.7270 -1.4721 -0.6312
   53CHL1   H4B 3855   6.036   5.358   3.152  0.9113  0.2611  0.3829
   53CHL1    C5 3856   5.941   5.310   3.330 -0.2571  0.5242 -0.2353
   53CHL1    C6 3857   5.949   5.442   3.365  0.8320  0.6448  0.4747
   53CHL1    H6 3858   6.006   5.517   3.308 -1.7256  2.0705 -0.3602
   53CHL1    C7 3859   5.901   5.496   3.501 -0.0276  0.2797 -0.2832
   53CHL1   H7A 3860   5.984   5.554   3.548 -2.0140  2.2960  1.0199
   53CHL1   H7B 3861   5.815   5.562   3.476 -0.8529 -1.4821 -2.2981
   53CHL1    C8 3862   5.860   5.384   3.598  0.4090  0.4348 -0.4241
   53CHL1    H8 3863   5.951   5.347   3.650 -0.2176  1.0960  1.2327
   53CHL1   C14 3864   5.777   5.437   3.720 -0.5000  0.2706 -0.0427
   53CHL1   H14 3865   5.687   5.481   3.672 -1.0018 -1.4545 -0.7731
   53CHL1   C15 3866   5.838   5.547   3.802  0.0729 -0.7227  0.3044
   53CHL1  H15A 3867   5.938   5.513   3.837 -0.2664 -0.0395  2.0420
   53CHL1  H15B 3868   5.851   5.644   3.749 -3.7407 -0.8157 -1.1109
   53CHL1   C16 3869   5.753   5.546   3.932  0.4784 -0.8609 -0.3310
   53CHL1  H16A 3870   5.816   5.533   4.022 -1.3122  2.6858  1.6584
   53CHL1  H16B 3871   5.708   5.646   3.949  1.9071 -0.5044  1.7577
   53CHL1   C17 3872   5.649   5.434   3.916 -0.3902 -0.2497 -0.2621
   53CHL1   H17 3873   5.564   5.466   3.852 -1.3010 -5.3814 -2.1556
   53CHL1   C13 3874   5.717   5.338   3.815  0.4456  0.5319 -0.0418
   53CHL1   C18 3875   5.827   5.261   3.891 -0.4485 -0.4334  0.3793
   53CHL1  H18A 3876   5.919   5.256   3.828  0.7944  1.5858  1.8917
   53CHL1  H18B 3877   5.861   5.310   3.985 -1.5393  1.9166 -0.3824
   53CHL1  H18C 3878   5.796   5.159   3.922 -1.0041 -0.4742 -0.3033
   53CHL1   C12 3879   5.625   5.244   3.736 -0.3921 -0.6672 -0.3568
   53CHL1  H12A 3880   5.578   5.163   3.794  0.9268 -1.3590 -0.2178
   53CHL1  H12B 3881   5.547   5.305   3.685  2.2286  3.0475 -0.3936
   53CHL1   C11 3882   5.701   5.179   3.627 -0.1178 -0.0281 -0.1070
   53CHL1  H11A 3883   5.782   5.121   3.677  0.7349  2.9101  2.1961
   53CHL1  H11B 3884   5.639   5.102   3.576 -0.8602 -0.2175  1.0518
   53CHL1    C9 3885   5.770   5.281   3.530 -0.5957  0.1526 -0.2194
   53CHL1    H9 3886   5.691   5.345   3.484 -0.6283  0.5928  0.4265
   53CHL1   C10 3887   5.857   5.212   3.417 -1.0175  0.5848  0.2215
   53CHL1   C19 3888   5.962   5.114   3.482 -0.4841 -0.3097  0.0966
   53CHL1  H19A 3889   6.027   5.158   3.561 -0.2208 -3.1286  1.5639
   53CHL1  H19B 3890   5.908   5.026   3.524  1.1380 -2.2558 -1.6606
   53CHL1  H19C 3891   6.019   5.063   3.401 -2.9721 -4.0288  0.4241
   53CHL1    C1 3892   5.761   5.127   3.318  0.8900  0.0486  0.2166
   53CHL1   H1A 3893   5.732   5.032   3.368  1.0156  0.4210  1.0146
   53CHL1   H1B 3894   5.675   5.195   3.300  0.0684 -1.2045 -0.8236
   53CHL1    C2 3895   5.821   5.084   3.184 -0.1736 -0.3355  0.0377
   53CHL1   H2A 3896   5.742   5.041   3.119  0.2485 -0.7850 -0.1833
   53CHL1   H2B 3897   5.915   5.025   3.194  0.1715  0.5347  2.7778
   53CHL1   C20 3898   5.604   5.362   4.049  0.2757  0.4099  0.4882
   53CHL1   H20 3899   5.670   5.275   4.070  0.8116  0.2060 -1.7388
   53CHL1   C21 3900   5.462   5.310   4.034 -0.4001 -0.4230 -0.1130
   53CHL1  H21A 3901   5.451   5.254   3.938 -0.4464  2.9806 -2.2768
   53CHL1  H21B 3902   5.391   5.395   4.031 -1.5363 -1.3303  0.6127
   53CHL1  H21C 3903   5.431   5.245   4.118  2.0401 -0.7470  0.6301
   53CHL1   C22 3904   5.604   5.456   4.176 -0.5036  0.4830  0.0358
   53CHL1  H22A 3905   5.710   5.490   4.187 -0.3251  0.2421 -0.8733
   53CHL1  H22B 3906   5.549   5.550   4.158 -0.7709  0.3117 -0.0401
   53CHL1   C23 3907   5.562   5.392   4.309 -0.3779 -0.8002 -0.8263
   53CHL1  H23A 3908   5.459   5.353   4.294 -1.1294  1.6129 -2.5302
   53CHL1  H23B 3909   5.632   5.307   4.326 -0.0462 -0.6618 -1.4417
   53CHL1   C24 3910   5.565   5.490   4.432  0.2930  0.4935 -0.1596
   53CHL1  H24A 3911   5.627   5.574   4.393  1.3598 -1.0519 -1.9324
   53CHL1  H24B 3912   5.462   5.529   4.451 -0.5595 -2.2529  1.4359
   53CHL1   C25 3913   5.606   5.425   4.570  0.4416 -0.3411  0.1252
   53CHL1   H25 3914   5.579   5.496   4.651 -0.0875 -0.1263 -0.2372
   53CHL1   C26 3915   5.529   5.299   4.596 -0.1170 -0.2369  1.2239
   53CHL1  H26A 3916   5.557   5.250   4.692 -0.7066 -0.5784  1.2218
   53CHL1  H26B 3917   5.419   5.312   4.598 -0.2086 -0.5110 -0.5589
   53CHL1  H26C 3918   5.550   5.225   4.515  2.1394  0.4276  1.1188
   53CHL1   C27 3919   5.751   5.406   4.572 -0.6643 -0.3010 -0.3142
   53CHL1  H27A 3920   5.798   5.496   4.526 -2.9785  0.1638 -1.9177
   53CHL1  H27B 3921   5.793   5.387   4.673  0.6859  1.8157 -0.4066
   53CHL1  H27C 3922   5.780   5.326   4.501  1.4391 -3.2845  3.5436
   54CHL1    C3 3923   4.069   5.165   3.508 -0.3271  0.4621 -0.2774
   54CHL1    H3 3924   4.166   5.152   3.561 -0.8096  2.9010  1.4093
   54CHL1    O3 3925   4.087   5.221   3.376  0.3069 -0.5236 -0.3502
   54CHL1   H3' 3926   4.077   5.146   3.317  0.5734 -2.4453  1.8580
   54CHL1    C4 3927   3.996   5.028   3.495  0.1164  0.0431 -0.1440
   54CHL1   H4A 3928   3.896   5.049   3.451 -2.0308 -2.1258  3.2477
   54CHL1   H4B 3929   4.054   4.959   3.430 -2.1045 -2.6952  0.6234
   54CHL1    C5 3930   3.969   4.966   3.631 -0.0177  0.6369  0.1382
   54CHL1    C6 3931   4.019   4.843   3.662 -0.0138  0.3023 -0.2728
   54CHL1    H6 3932   4.074   4.783   3.588 -1.4056 -3.0097  1.2100
   54CHL1    C7 3933   4.009   4.773   3.795  0.2108  0.1378 -0.2393
   54CHL1   H7A 3934   3.992   4.664   3.779  2.5790 -0.2960 -0.2410
   54CHL1   H7B 3935   4.108   4.773   3.846  0.0880 -1.0888  0.0322
   54CHL1    C8 3936   3.898   4.839   3.881  0.0311 -0.2908  0.0482
   54CHL1    H8 3937   3.800   4.822   3.831 -0.6893 -0.4144  1.4456
   54CHL1   C14 3938   3.891   4.787   4.019  0.7952 -0.4743 -0.7726
   54CHL1   H14 3939   3.983   4.821   4.070  0.0702  1.2800 -0.5597
   54CHL1   C15 3940   3.884   4.637   4.039  0.7875 -0.0825  0.2138
   54CHL1  H15A 3941   3.797   4.595   3.984  0.8938  0.2273 -0.1953
   54CHL1  H15B 3942   3.983   4.593   4.015  1.2037  1.3713 -0.8625
   54CHL1   C16 3943   3.835   4.615   4.184 -0.5725  0.9664  0.6147
   54CHL1  H16A 3944   3.751   4.543   4.192  1.3219 -1.7401 -1.8612
   54CHL1  H16B 3945   3.926   4.586   4.241  0.2190  2.3211  0.0846
   54CHL1   C17 3946   3.795   4.760   4.233 -0.3903 -0.2484 -0.0176
   54CHL1   H17 3947   3.892   4.787   4.282  0.0155 -2.3597  0.4534
   54CHL1   C13 3948   3.773   4.840   4.104 -0.1772  0.5624  0.3386
   54CHL1   C18 3949   3.638   4.808   4.038 -0.3477  0.1061  0.2084
   54CHL1  H18A 3950   3.559   4.843   4.108 -0.0591  0.6449  0.2768
   54CHL1  H18B 3951   3.623   4.868   3.946  1.4964  1.5161  0.7479
   54CHL1  H18C 3952   3.616   4.701   4.022 -0.2594  0.0079  0.7376
   54CHL1   C12 3953   3.789   4.992   4.110  0.1255  0.5495 -0.1756
   54CHL1  H12A 3954   3.695   5.025   4.160  0.5700 -0.7850  1.6499
   54CHL1  H12B 3955   3.880   5.012   4.171  0.4316 -3.9716  1.2306
   54CHL1   C11 3956   3.802   5.069   3.969 -0.2100  0.7418  0.3802
   54CHL1  H11A 3957   3.696   5.061   3.934 -0.0497  2.2504 -0.5465
   54CHL1  H11B 3958   3.816   5.178   3.985 -0.2722  0.5902  1.5062
   54CHL1    C9 3959   3.898   4.993   3.879 -0.1882  0.3107  0.3418
   54CHL1    H9 3960   3.999   5.015   3.920 -0.0157 -1.4128  0.9032
   54CHL1   C10 3961   3.893   5.045   3.730  0.1738 -0.4488 -1.0916
   54CHL1   C19 3962   3.743   5.056   3.687  0.1876  0.9345 -0.7955
   54CHL1  H19A 3963   3.679   5.124   3.747  0.4421 -0.7178  1.5233
   54CHL1  H19B 3964   3.732   5.102   3.587 -0.5748  0.7094 -0.8239
   54CHL1  H19C 3965   3.687   4.959   3.688  1.7065  0.0294 -1.0667
   54CHL1    C1 3966   3.961   5.185   3.734 -0.3880 -0.9293 -0.3794
   54CHL1   H1A 3967   3.893   5.245   3.799 -1.4927 -0.3582 -2.0079
   54CHL1   H1B 3968   4.064   5.177   3.777  0.4784  1.3264 -1.8698
   54CHL1    C2 3969   3.991   5.252   3.600 -0.4175 -0.7233  0.1780
   54CHL1   H2A 3970   4.040   5.348   3.627  0.0758 -0.5044 -1.3788
   54CHL1   H2B 3971   3.895   5.279   3.551  0.0890  3.5855  1.1935
   54CHL1   C20 3972   3.688   4.757   4.348 -0.8240  0.4056  0.1546
   54CHL1   H20 3973   3.594   4.712   4.310 -0.6483  0.2614 -0.1137
   54CHL1   C21 3974   3.645   4.898   4.404  0.1151 -0.2883 -0.2397
   54CHL1  H21A 3975   3.595   4.893   4.503  1.3666  0.9807  0.5064
   54CHL1  H21B 3976   3.570   4.944   4.336 -0.9109 -1.1175  0.3043
   54CHL1  H21C 3977   3.729   4.970   4.413 -1.0827  1.0340  0.9716
   54CHL1   C22 3978   3.730   4.667   4.471 -0.2250  0.2421  0.3242
   54CHL1  H22A 3979   3.714   4.567   4.425  0.3017  0.1779  0.2723
   54CHL1  H22B 3980   3.837   4.681   4.498 -0.3960  0.9205  0.6825
   54CHL1   C23 3981   3.643   4.670   4.601 -0.2863  0.2916 -0.5218
   54CHL1  H23A 3982   3.640   4.776   4.633 -2.3321  0.7583 -2.0229
   54CHL1  H23B 3983   3.538   4.633   4.588 -0.6064  1.0346 -0.1168
   54CHL1   C24 3984   3.706   4.581   4.709 -1.1340 -0.0227 -0.4260
   54CHL1  H24A 3985   3.719   4.480   4.665  3.3893  1.1071 -2.2817
   54CHL1  H24B 3986   3.811   4.614   4.720 -0.9850  0.2761 -2.4046
   54CHL1   C25 3987   3.620   4.581   4.837 -0.0692  0.4330 -0.0587
   54CHL1   H25 3988   3.521   4.552   4.797  0.4643 -1.9811  0.2156
   54CHL1   C26 3989   3.662   4.468   4.930  0.3778 -0.4007  0.4408
   54CHL1  H26A 3990   3.769   4.473   4.960  0.1420  1.7945  1.0413
   54CHL1  H26B 3991   3.602   4.464   5.023  0.9097  2.8837  1.0217
   54CHL1  H26C 3992   3.650   4.378   4.865 -0.0277 -0.0951  0.0864
   54CHL1   C27 3993   3.629   4.720   4.903 -0.2276  0.0963  0.4981
   54CHL1  H27A 3994   3.725   4.776   4.906 -0.8404  1.1367  1.2232
   54CHL1  H27B 3995   3.573   4.801   4.851  4.3636  3.2987 -0.0859
   54CHL1  H27C 3996   3.587   4.718   5.006  0.6439 -0.8309  0.8521
   55CHL1    C3 3997   0.838   1.487   3.256  0.2884  0.6339 -0.5405
   55CHL1    H3 3998   0.732   1.515   3.238  0.3855  1.3899  0.0181
   55CHL1    O3 3999   0.891   1.475   3.125 -0.3928  0.2173 -0.2028
   55CHL1   H3' 4000   0.984   1.450   3.126 -0.1642  0.8914 -1.7544
   55CHL1    C4 4001   0.935   1.581   3.322  0.5325 -0.7912 -0.9348
   55CHL1   H4A 4002   1.038   1.542   3.317  1.0545  0.5497 -1.2289
   55CHL1   H4B 4003   0.927   1.680   3.271  0.9963 -0.3071 -0.0979
   55CHL1    C5 4004   0.908   1.595   3.475 -1.0169 -0.6854  0.2559
   55CHL1    C6 4005   0.904   1.718   3.529 -0.8960  0.2699 -0.6492
   55CHL1    H6 4006   0.901   1.807   3.464 -1.5144  1.8676  1.4541
   55CHL1    C7 4007   0.858   1.744   3.670  0.0932  0.2025 -0.2013
   55CHL1   H7A 4008   0.917   1.828   3.712  1.3764 -1.8775  2.5038
   55CHL1   H7B 4009   0.749   1.764   3.671  0.0334 -0.1182  0.7334
   55CHL1    C8 4010   0.878   1.621   3.758  0.7200  0.1915 -0.1887
   55CHL1    H8 4011   0.988   1.610   3.770  0.5571 -1.4306  0.0491
   55CHL1   C14 4012   0.814   1.645   3.895 -0.2646  0.5290 -0.2765
   55CHL1   H14 4013   0.703   1.644   3.884 -0.5035 -0.6714  1.7335
   55CHL1   C15 4014   0.847   1.774   3.972 -0.3118  0.2457  0.4872
   55CHL1  H15A 4015   0.953   1.807   3.962  0.0239 -1.1222 -0.7948
   55CHL1  H15B 4016   0.791   1.866   3.947 -0.7187  0.2714  1.4422
   55CHL1   C16 4017   0.825   1.740   4.120 -0.7214  0.0490  0.1453
   55CHL1  H16A 4018   0.918   1.749   4.180 -0.2778  2.3004 -0.7704
   55CHL1  H16B 4019   0.750   1.809   4.165 -3.2610 -2.5055  0.0688
   55CHL1   C17 4020   0.790   1.583   4.126 -0.0566  0.0122 -0.1054
   55CHL1   H17 4021   0.679   1.576   4.119  0.1171 -3.1697 -1.4925
   55CHL1   C13 4022   0.838   1.527   3.994 -0.1113  0.8368 -1.0107
   55CHL1   C18 4023   0.990   1.497   4.009 -0.0130 -0.4788  0.2698
   55CHL1  H18A 4024   1.000   1.416   4.085 -0.7149 -0.0255  0.8572
   55CHL1  H18B 4025   1.025   1.451   3.914 -0.6341 -2.8884  1.1233
   55CHL1  H18C 4026   1.056   1.585   4.019  0.7175 -0.4000 -3.6418
   55CHL1   C12 4027   0.759   1.407   3.931 -0.5945 -0.3629 -0.4650
   55CHL1  H12A 4028   0.778   1.310   3.981 -0.6549  0.1749  0.6284
   55CHL1  H12B 4029   0.653   1.439   3.938 -0.2813  0.5745  0.2409
   55CHL1   C11 4030   0.796   1.384   3.786 -0.1221 -0.0556  0.2996
   55CHL1  H11A 4031   0.895   1.333   3.789 -0.3715 -0.4812  2.4405
   55CHL1  H11B 4032   0.721   1.313   3.745  0.1231 -0.0360 -0.1993
   55CHL1    C9 4033   0.816   1.504   3.688 -0.5700  0.3292  0.9205
   55CHL1    H9 4034   0.713   1.534   3.662 -0.6339 -2.7305 -3.3931
   55CHL1   C10 4035   0.888   1.467   3.557 -0.6154 -0.0169 -0.0661
   55CHL1   C19 4036   1.033   1.411   3.582  0.4578 -0.2845  0.2411
   55CHL1  H19A 4037   1.090   1.490   3.637 -0.8062  0.9571 -0.1749
   55CHL1  H19B 4038   1.026   1.317   3.640  0.3544  0.1122  0.8875
   55CHL1  H19C 4039   1.084   1.393   3.485  0.4572  0.2072  0.1468
   55CHL1    C1 4040   0.803   1.373   3.474  0.8366 -0.5689  0.1892
   55CHL1   H1A 4041   0.805   1.277   3.530 -2.3631 -1.1314 -0.4588
   55CHL1   H1B 4042   0.696   1.401   3.479  1.1130  0.4155  0.7679
   55CHL1    C2 4043   0.847   1.353   3.332 -0.1269  0.2120 -0.0279
   55CHL1   H2A 4044   0.777   1.285   3.279  0.0673 -1.3706  1.6557
   55CHL1   H2B 4045   0.947   1.307   3.331  0.3429  1.1760  1.1541
   55CHL1   C20 4046   0.804   1.526   4.263 -0.0016  0.7511  0.1962
   55CHL1   H20 4047   0.909   1.506   4.293  0.1549  0.6716 -0.3879
   55CHL1   C21 4048   0.739   1.384   4.253  0.0899 -0.2416  1.0913
   55CHL1  H21A 4049   0.630   1.395   4.233 -0.4824 -0.7578  3.5642
   55CHL1  H21B 4050   0.745   1.330   4.350  1.9910 -2.5242 -0.1897
   55CHL1  H21C 4051   0.810   1.334   4.184  1.0236 -0.1522  1.9492
   55CHL1   C22 4052   0.737   1.612   4.376  0.3660  0.2602 -0.1687
   55CHL1  H22A 4053   0.668   1.689   4.335  0.3953  1.6257  2.1596
   55CHL1  H22B 4054   0.673   1.540   4.430 -0.7604  0.7398 -0.8345
   55CHL1   C23 4055   0.833   1.682   4.463 -0.3322 -0.2234 -0.9852
   55CHL1  H23A 4056   0.914   1.620   4.508 -0.2962  2.2362  2.7868
   55CHL1  H23B 4057   0.884   1.755   4.398 -2.4729  2.3685  0.0754
   55CHL1   C24 4058   0.758   1.758   4.571  0.0601 -0.3485 -0.3388
   55CHL1  H24A 4059   0.758   1.861   4.530  0.3937 -0.9324 -1.8493
   55CHL1  H24B 4060   0.652   1.728   4.583 -0.5311  1.4534 -0.7856
   55CHL1   C25 4061   0.830   1.762   4.708 -0.0737  0.2239 -0.3829
   55CHL1   H25 4062   0.939   1.753   4.685  0.5735  2.1773  1.5889
   55CHL1   C26 4063   0.804   1.886   4.792 -0.4462 -0.2427 -0.7676
   55CHL1  H26A 4064   0.869   1.881   4.883 -1.4962  0.9562  0.0882
   55CHL1  H26B 4065   0.828   1.977   4.733 -2.3207  0.7854 -0.0024
   55CHL1  H26C 4066   0.697   1.890   4.821 -0.4735  0.1319 -0.9205
   55CHL1   C27 4067   0.802   1.635   4.782 -0.0604  0.1312 -0.3281
   55CHL1  H27A 4068   0.861   1.637   4.876 -0.7303 -1.0401  0.1394
   55CHL1  H27B 4069   0.695   1.629   4.811  0.0997  0.6850  0.3950
   55CHL1  H27C 4070   0.833   1.543   4.727 -2.6457 -0.8888 -0.2058
   56CHL1    C3 4071   6.581   1.289   3.453 -0.0937 -0.3431 -0.4955
   56CHL1    H3 4072   6.541   1.391   3.435 -0.0266 -0.3365 -0.6056
   56CHL1    O3 4073   6.643   1.253   3.332  0.3469 -0.7309  0.2700
   56CHL1   H3' 4074   6.586   1.291   3.266 -0.0103 -1.9450 -0.1453
   56CHL1    C4 4075   6.684   1.302   3.555 -0.2258 -0.2201  0.0895
   56CHL1   H4A 4076   6.737   1.204   3.559 -0.6227 -0.4163  0.7199
   56CHL1   H4B 4077   6.761   1.376   3.524  0.3641 -0.7679  0.2225
   56CHL1    C5 4078   6.628   1.325   3.689 -0.6602  0.6888 -0.2579
   56CHL1    C6 4079   6.666   1.423   3.773 -0.1226 -1.0844 -0.8171
   56CHL1    H6 4080   6.741   1.497   3.742 -1.5527 -0.2458 -2.4636
   56CHL1    C7 4081   6.617   1.436   3.916 -0.3281  0.1038  0.6334
   56CHL1   H7A 4082   6.696   1.462   3.990  0.0004  1.4520 -0.1616
   56CHL1   H7B 4083   6.543   1.517   3.925  0.0263  0.3396  1.5475
   56CHL1    C8 4084   6.547   1.308   3.961  0.0879  0.5324  0.8619
   56CHL1    H8 4085   6.624   1.230   3.980  0.9915  1.1400 -0.1725
   56CHL1   C14 4086   6.482   1.330   4.091 -0.1048 -0.1202  0.0778
   56CHL1   H14 4087   6.405   1.410   4.079  1.1710  1.1903  0.3560
   56CHL1   C15 4088   6.562   1.382   4.211  0.5345 -0.6680  0.3022
   56CHL1  H15A 4089   6.661   1.336   4.226  1.2875  1.0694  0.9550
   56CHL1  H15B 4090   6.590   1.488   4.192  0.0728 -0.6181 -0.1205
   56CHL1   C16 4091   6.483   1.370   4.341 -0.4988  0.6372  0.3967
   56CHL1  H16A 4092   6.534   1.324   4.428  0.5747  2.3942  0.7267
   56CHL1  H16B 4093   6.445   1.468   4.378 -1.5115  0.9227 -1.3111
   56CHL1   C17 4094   6.363   1.276   4.291  0.0307  0.2810  0.2788
   56CHL1   H17 4095   6.283   1.348   4.265  0.9560  0.6151 -1.8425
   56CHL1   C13 4096   6.403   1.214   4.155 -0.3134 -0.4246  0.7738
   56CHL1   C18 4097   6.496   1.091   4.186 -0.3232 -0.4365 -0.0536
   56CHL1  H18A 4098   6.554   1.044   4.104 -1.6726 -1.8147 -0.2640
   56CHL1  H18B 4099   6.569   1.132   4.258 -0.0684  0.6200 -0.8763
   56CHL1  H18C 4100   6.440   1.014   4.243  1.1378 -0.2175  1.7798
   56CHL1   C12 4101   6.289   1.181   4.054 -0.4256  0.1445  0.3613
   56CHL1  H12A 4102   6.223   1.096   4.082 -0.1706 -0.5809 -1.1582
   56CHL1  H12B 4103   6.224   1.272   4.045  0.5256  0.7792 -0.2674
   56CHL1   C11 4104   6.346   1.155   3.913  0.1928  0.3221  0.6317
   56CHL1  H11A 4105   6.403   1.062   3.936 -1.4139 -0.7868  0.2899
   56CHL1  H11B 4106   6.259   1.131   3.848 -1.0744  0.8791  2.0835
   56CHL1    C9 4107   6.441   1.264   3.859 -0.0043 -0.5768  0.1297
   56CHL1    H9 4108   6.389   1.360   3.840  0.6007  0.1455  1.8981
   56CHL1   C10 4109   6.508   1.223   3.729 -0.5585  0.0181 -0.2455
   56CHL1   C19 4110   6.584   1.085   3.738 -0.2850  0.1354  0.6877
   56CHL1  H19A 4111   6.508   1.010   3.769 -2.1603  0.7202 -2.0949
   56CHL1  H19B 4112   6.619   1.038   3.643  1.4125  1.4834  0.5927
   56CHL1  H19C 4113   6.669   1.078   3.809 -0.9040  0.0587  1.4421
   56CHL1    C1 4114   6.408   1.216   3.622  0.0226 -0.0652  0.4038
   56CHL1   H1A 4115   6.331   1.138   3.640 -2.5112  2.1386 -0.2563
   56CHL1   H1B 4116   6.356   1.314   3.618 -1.0825 -0.6608 -0.3230
   56CHL1    C2 4117   6.466   1.195   3.477  0.3889 -0.2108  0.8925
   56CHL1   H2A 4118   6.379   1.198   3.407  0.4684  0.9436  0.8191
   56CHL1   H2B 4119   6.505   1.093   3.462  1.4883 -0.0781  2.5756
   56CHL1   C20 4120   6.318   1.187   4.408  1.1703  0.4288  0.0518
   56CHL1   H20 4121   6.406   1.123   4.430  2.0170  0.6032 -2.4661
   56CHL1   C21 4122   6.194   1.102   4.359 -0.2321 -0.3708  0.1504
   56CHL1  H21A 4123   6.114   1.175   4.334  0.9782  0.9554  0.0572
   56CHL1  H21B 4124   6.163   1.046   4.450 -0.7117  0.2687  0.3850
   56CHL1  H21C 4125   6.222   1.027   4.281  0.0048 -0.1129 -0.0135
   56CHL1   C22 4126   6.285   1.268   4.536  0.3800  0.6004  0.8099
   56CHL1  H22A 4127   6.319   1.373   4.532  0.7347  0.4881  0.8220
   56CHL1  H22B 4128   6.174   1.270   4.533  0.3952  0.6084 -1.5794
   56CHL1   C23 4129   6.346   1.209   4.666 -0.5510 -0.1398 -0.2672
   56CHL1  H23A 4130   6.325   1.102   4.689  2.4551 -0.5918  0.8120
   56CHL1  H23B 4131   6.456   1.225   4.657 -0.6425 -0.4648 -2.8403
   56CHL1   C24 4132   6.291   1.281   4.789 -0.1437 -0.4194 -0.1524
   56CHL1  H24A 4133   6.357   1.245   4.871  1.8770 -0.7356 -1.8399
   56CHL1  H24B 4134   6.305   1.391   4.778  0.0155 -0.2478  1.5259
   56CHL1   C25 4135   6.144   1.267   4.825 -0.4882 -0.3452 -0.1010
   56CHL1   H25 4136   6.096   1.330   4.747  0.5163 -0.7249 -1.0548
   56CHL1   C26 4137   6.088   1.118   4.818 -0.2731 -0.5456 -0.2824
   56CHL1  H26A 4138   5.979   1.125   4.843  0.1304  1.7511  1.1139
   56CHL1  H26B 4139   6.102   1.077   4.716  0.2728 -2.8134  0.6464
   56CHL1  H26C 4140   6.124   1.053   4.901  1.8863  0.7149 -0.1652
   56CHL1   C27 4141   6.110   1.335   4.961  0.1503  0.4538  0.0320
   56CHL1  H27A 4142   6.167   1.430   4.958  1.4592 -0.3151 -1.1348
   56CHL1  H27B 4143   6.001   1.345   4.975  0.2326  1.0424  0.2467
   56CHL1  H27C 4144   6.148   1.276   5.047  0.8272  1.3343  0.3485
   57SAPC     N 4145   4.690   1.439   7.390 -0.0042 -0.3072 -0.1146
   57SAPC   C12 4146   4.631   1.474   7.248  0.2821  0.0405 -0.7252
   57SAPC  H12A 4147   4.700   1.512   7.174  0.4987  0.4521 -0.3263
   57SAPC  H12B 4148   4.559   1.552   7.268 -0.6415 -0.8857 -0.3351
   57SAPC   C13 4149   4.775   1.557   7.424  0.1285 -0.1369  0.4730
   57SAPC  H13A 4150   4.848   1.582   7.348 -0.8690 -1.2622 -0.9070
   57SAPC  H13B 4151   4.716   1.646   7.438  2.0473  1.0364  1.6062
   57SAPC  H13C 4152   4.828   1.554   7.518  0.0424 -2.8158  0.5133
   57SAPC   C14 4153   4.581   1.430   7.496 -0.4308 -0.1042 -0.5505
   57SAPC  H14A 4154   4.494   1.375   7.463 -0.4442  0.4655 -1.5044
   57SAPC  H14B 4155   4.617   1.365   7.574  1.1507  1.3417 -0.0048
   57SAPC  H14C 4156   4.550   1.524   7.540 -1.0607 -1.5179  2.2585
   57SAPC   C15 4157   4.770   1.311   7.388  0.0537  0.0012  0.2924
   57SAPC  H15A 4158   4.715   1.225   7.351 -0.0353  0.3665 -0.4594
   57SAPC  H15B 4159   4.849   1.315   7.314 -0.4554 -1.6873 -0.3926
   57SAPC  H15C 4160   4.803   1.290   7.488  0.3875  2.1030  0.6722
   57SAPC   C11 4161   4.555   1.350   7.178 -0.7625  0.6601 -0.1115
   57SAPC  H11A 4162   4.631   1.275   7.145  0.6244  2.1575 -0.4361
   57SAPC  H11B 4163   4.522   1.403   7.087  0.8043  1.9125 -0.0034
   57SAPC     P 4164   4.309   1.353   7.274  0.0619 -0.1296 -0.3294
   57SAPC   O13 4165   4.208   1.300   7.185  0.1412  0.0268 -0.4104
   57SAPC   O14 4166   4.282   1.360   7.419 -0.0780  0.4914  0.1876
   57SAPC   O12 4167   4.451   1.289   7.253  0.5958  0.3143  0.2750
   57SAPC   O11 4168   4.339   1.503   7.233 -0.3046 -0.2514  0.0508
   57SAPC    C1 4169   4.242   1.593   7.170 -0.2265  0.6980 -0.0171
   57SAPC    HA 4170   4.142   1.545   7.174  0.7461 -1.3854  0.5757
   57SAPC    HB 4171   4.249   1.686   7.231  1.0594 -0.0957  1.0998
   57SAPC    C2 4172   4.286   1.619   7.022  0.0170 -0.0253 -0.3855
   57SAPC    HS 4173   4.205   1.681   6.979  0.7387  0.5131 -0.9906
   57SAPC   O21 4174   4.309   1.495   6.947  0.0600 -0.0691 -0.0352
   57SAPC   C21 4175   4.198   1.436   6.911  0.8322 -0.1528 -0.1054
   57SAPC   O22 4176   4.081   1.483   6.922 -0.7151  0.1269  0.4849
   57SAPC   C22 4177   4.227   1.302   6.847 -0.2542 -0.5761  0.3413
   57SAPC   H2R 4178   4.302   1.310   6.765  0.0324 -0.1342  0.6455
   57SAPC   H2S 4179   4.276   1.244   6.928 -0.5650 -0.8633  0.3261
   57SAPC    C3 4180   4.421   1.696   7.026  0.4333 -0.5674  0.3163
   57SAPC    HX 4181   4.494   1.642   7.090  1.8053  0.7985 -0.0262
   57SAPC    HY 4182   4.404   1.786   7.088 -0.7876 -1.2931  1.0722
   57SAPC   O31 4183   4.462   1.739   6.892  0.3820 -0.3805 -0.3244
   57SAPC   C31 4184   4.589   1.717   6.866 -0.4256  0.1437  0.2725
   57SAPC   O32 4185   4.670   1.668   6.943 -0.1134 -0.2480  0.5904
   57SAPC   C32 4186   4.619   1.770   6.740 -0.5605  0.0135  0.3440
   57SAPC   H2X 4187   4.725   1.749   6.713 -0.8828  0.6171 -1.5491
   57SAPC   H2Y 4188   4.599   1.878   6.755 -2.9886 -0.0887 -1.5393
   57SAPC   C23 4189   4.109   1.225   6.787  0.1696  0.8452  0.2978
   57SAPC   H3R 4190   4.016   1.250   6.842 -0.3227  0.9003 -0.5530
   57SAPC   H3S 4191   4.137   1.117   6.787  0.4791  0.8915 -1.6685
   57SAPC   C24 4192   4.083   1.263   6.639 -0.6649 -0.0316 -0.2818
   57SAPC   H4R 4193   4.184   1.247   6.594 -0.2516 -0.9477  0.8811
   57SAPC   H4S 4194   4.065   1.372   6.632 -1.1817  0.1569  2.5970
   57SAPC   C25 4195   3.970   1.197   6.575 -0.0590 -0.1464  0.6882
   57SAPC   H5R 4196   3.878   1.182   6.635  0.9126  0.4255  2.4022
   57SAPC   C26 4197   3.972   1.155   6.445 -0.1422  0.4062 -0.2808
   57SAPC   H6R 4198   3.874   1.116   6.415  0.8842 -1.9826 -0.7196
   57SAPC   C27 4199   4.079   1.153   6.345  0.3224  0.3599  0.2749
   57SAPC   H7R 4200   4.173   1.186   6.393 -0.3066  0.6348  1.3450
   57SAPC   H7S 4201   4.061   1.235   6.272  0.3941  0.5755  0.5006
   57SAPC   C28 4202   4.095   1.006   6.305 -0.0068  0.0519  0.1972
   57SAPC   H8R 4203   4.129   0.947   6.391  2.5892  1.8039  0.4949
   57SAPC   C29 4204   4.088   0.955   6.178 -0.3834 -0.4792  0.3425
   57SAPC   H9R 4205   4.104   0.849   6.157 -0.0946 -0.3900  0.0949
   57SAPC  C210 4206   4.060   1.038   6.049  0.1225 -0.4423  0.4307
   57SAPC  H10R 4207   4.116   0.997   5.963 -2.6583  1.4931 -2.4995
   57SAPC  H10S 4208   4.097   1.141   6.067 -0.1188 -0.3874  0.6127
   57SAPC  C211 4209   3.913   1.048   6.025  0.1861 -0.8031  0.2988
   57SAPC  H11R 4210   3.846   1.063   6.111  0.0653 -0.7326  0.1943
   57SAPC  C212 4211   3.846   1.052   5.905  0.1470  0.1862 -0.1712
   57SAPC  H12R 4212   3.736   1.060   5.905  0.1922  1.0096  1.0590
   57SAPC  C213 4213   3.906   1.030   5.772 -0.1554 -0.1500 -0.1500
   57SAPC  H13R 4214   3.842   0.958   5.717 -1.5769  1.2412 -0.4118
   57SAPC  H13S 4215   3.998   0.970   5.785  0.5869  0.9190 -0.2829
   57SAPC  C214 4216   3.913   1.162   5.699 -0.1986  0.5230  0.1492
   57SAPC  H14R 4217   3.999   1.227   5.720 -1.5708  1.4415  3.6569
   57SAPC  C215 4218   3.820   1.203   5.617 -0.0737 -0.6323 -0.5577
   57SAPC  H15R 4219   3.833   1.303   5.573 -1.2551  0.0887  0.6456
   57SAPC  C216 4220   3.696   1.126   5.567 -0.2180  0.1200  0.3591
   57SAPC  H16R 4221   3.600   1.182   5.579 -0.9041 -1.3311  2.0621
   57SAPC  H16S 4222   3.690   1.032   5.625 -0.0927 -2.2843 -3.1927
   57SAPC  C217 4223   3.704   1.079   5.419  0.8747 -0.6041 -0.4944
   57SAPC  H17R 4224   3.796   1.016   5.413  0.1858 -1.6138 -0.7134
   57SAPC  H17S 4225   3.709   1.167   5.351  0.0621 -1.3099 -1.5131
   57SAPC  C218 4226   3.578   0.999   5.379  0.0834 -0.4381  0.5400
   57SAPC  H18R 4227   3.488   1.060   5.403 -0.0960 -0.6839  0.4924
   57SAPC  H18S 4228   3.574   0.914   5.450 -0.8564 -0.5359  0.3833
   57SAPC  C219 4229   3.583   0.949   5.225  0.0675  0.6333 -0.0499
   57SAPC  H19R 4230   3.493   0.886   5.208 -1.1073  1.2234  3.2525
   57SAPC  H19S 4231   3.677   0.891   5.222 -0.2454 -0.2970  3.6506
   57SAPC  C220 4232   3.578   1.059   5.122  0.5161 -0.6052 -0.1192
   57SAPC  H20R 4233   3.660   1.134   5.131 -1.1194  1.1634  0.9177
   57SAPC  H20S 4234   3.483   1.114   5.141 -1.2541 -3.8658  1.4758
   57SAPC  H20T 4235   3.579   1.013   5.021 -0.5708  0.9377 -0.8721
   57SAPC   C33 4236   4.546   1.707   6.624 -0.2542 -0.0702  0.5890
   57SAPC   H3X 4237   4.564   1.760   6.528 -1.7371 -1.6916 -0.6404
   57SAPC   H3Y 4238   4.437   1.700   6.642 -0.1512 -2.2077  0.6207
   57SAPC   C34 4239   4.604   1.555   6.605  0.0128 -0.3605  0.4682
   57SAPC   H4X 4240   4.578   1.511   6.704  0.1564 -0.6383  0.3826
   57SAPC   H4Y 4241   4.713   1.571   6.593  0.0168  0.0792  1.0505
   57SAPC   C35 4242   4.528   1.484   6.502 -0.0837  0.1545  0.2148
   57SAPC   H5X 4243   4.540   1.529   6.401  0.6800 -0.1304  0.1671
   57SAPC   H5Y 4244   4.421   1.479   6.531 -0.1849  0.6219 -0.0534
   57SAPC   C36 4245   4.572   1.334   6.489  0.2918 -0.5627  0.3270
   57SAPC   H6X 4246   4.551   1.281   6.585 -2.3662  0.4583  0.3955
   57SAPC   H6Y 4247   4.679   1.330   6.460  0.0274  0.2103 -0.7941
   57SAPC   C37 4248   4.501   1.266   6.369 -0.1362 -0.2271  0.3496
   57SAPC   H7X 4249   4.509   1.334   6.282  0.4005 -1.6262 -0.7283
   57SAPC   H7Y 4250   4.393   1.247   6.391 -0.4731  0.0743 -0.9707
   57SAPC   C38 4251   4.568   1.133   6.337 -0.3004 -0.3817  0.1792
   57SAPC   H8X 4252   4.562   1.063   6.422  1.4158 -0.6838  0.0722
   57SAPC   H8Y 4253   4.678   1.144   6.325 -0.2020  0.0139  1.3124
   57SAPC   C39 4254   4.511   1.065   6.215 -0.1878  0.4627  0.6227
   57SAPC   H9X 4255   4.401   1.060   6.230 -0.5138 -1.3646 -1.7498
   57SAPC   H9Y 4256   4.555   0.963   6.213  3.7232  1.9868  0.7648
   57SAPC  C310 4257   4.546   1.124   6.079 -0.1395  0.4304 -0.2242
   57SAPC  H10X 4258   4.656   1.130   6.075 -0.0391 -0.6007  0.5442
   57SAPC  H10Y 4259   4.501   1.224   6.093  0.3483  0.5608  0.4873
   57SAPC  C311 4260   4.490   1.042   5.962 -0.2921  0.5147  0.4801
   57SAPC  H11X 4261   4.379   1.040   5.965 -0.2795 -1.6066  0.8938
   57SAPC  H11Y 4262   4.525   0.937   5.953  1.8200  1.2283 -0.3714
   57SAPC  C312 4263   4.527   1.121   5.837  0.7664 -0.1598  0.0560
   57SAPC  H12X 4264   4.637   1.137   5.831  0.6538  0.1239 -1.9194
   57SAPC  H12Y 4265   4.492   1.225   5.853  1.5668  0.3264 -1.1495
   57SAPC  C313 4266   4.473   1.064   5.711  0.3581  0.3930  0.0070
   57SAPC  H13X 4267   4.364   1.084   5.701  0.1248 -0.8382 -0.0411
   57SAPC  H13Y 4268   4.503   0.958   5.704 -1.1322 -0.1426  1.2075
   57SAPC  C314 4269   4.540   1.133   5.591  1.0256  0.4754 -0.1220
   57SAPC  H14X 4270   4.649   1.141   5.613  0.5178  1.8121  2.1630
   57SAPC  H14Y 4271   4.499   1.236   5.593 -1.0448 -0.3114 -0.2921
   57SAPC  C315 4272   4.511   1.062   5.456  0.3335  1.0751 -0.1732
   57SAPC  H15X 4273   4.404   1.078   5.433  0.6779  2.4718 -0.8867
   57SAPC  H15Y 4274   4.536   0.954   5.461 -1.7176  0.5858  0.4926
   57SAPC  C316 4275   4.583   1.129   5.342  0.0486 -1.0050 -0.1945
   57SAPC  H16X 4276   4.689   1.129   5.374  0.8712  1.9578 -2.4711
   57SAPC  H16Y 4277   4.547   1.234   5.347  2.7263  0.0454 -1.0725
   57SAPC  C317 4278   4.567   1.059   5.210  0.0225  0.2325  0.4811
   57SAPC  H17X 4279   4.458   1.062   5.188 -0.1662  2.3296  1.4788
   57SAPC  H17Y 4280   4.595   0.952   5.222 -2.2715 -0.9073 -2.8716
   57SAPC  C318 4281   4.647   1.132   5.103 -0.2848 -0.1340 -0.2090
   57SAPC  H18X 4282   4.749   1.148   5.144 -0.8475 -0.1045  1.2436
   57SAPC  H18Y 4283   4.605   1.231   5.076  0.8865  0.4426  0.0001
   57SAPC  H18Z 4284   4.640   1.074   5.009 -0.1281 -0.6113  0.0702
   58SAPC     N 4285   3.302   2.754   7.521  0.6878 -0.3304  0.0641
   58SAPC   C12 4286   3.174   2.841   7.491 -0.2898  0.2966  0.1907
   58SAPC  H12A 4287   3.178   2.928   7.555 -0.5430 -0.7095  1.6196
   58SAPC  H12B 4288   3.088   2.789   7.530  1.2721 -3.1777 -0.5922
   58SAPC   C13 4289   3.413   2.794   7.439 -0.2532  0.1159 -0.3133
   58SAPC  H13A 4290   3.386   2.787   7.334  0.2220 -2.8067 -0.3200
   58SAPC  H13B 4291   3.452   2.894   7.453  0.8313 -0.4524  0.9669
   58SAPC  H13C 4292   3.509   2.744   7.440 -0.4919 -0.5886 -3.0297
   58SAPC   C14 4293   3.332   2.763   7.663 -0.3978  0.6569 -0.4456
   58SAPC  H14A 4294   3.426   2.711   7.677 -0.3305 -0.0147 -2.9318
   58SAPC  H14B 4295   3.332   2.866   7.694 -2.5162  0.7414 -0.5903
   58SAPC  H14C 4296   3.254   2.721   7.725  2.1546 -0.7593  2.0125
   58SAPC   C15 4297   3.283   2.612   7.478 -0.0678  0.3900 -0.5571
   58SAPC  H15A 4298   3.205   2.566   7.536  1.3191 -0.3606  0.8011
   58SAPC  H15B 4299   3.248   2.599   7.377 -2.1654  0.2767  0.1440
   58SAPC  H15C 4300   3.373   2.553   7.486  0.3065  0.4515 -3.4989
   58SAPC   C11 4301   3.154   2.881   7.344  0.1176  0.4074 -0.3846
   58SAPC  H11A 4302   3.245   2.933   7.310  0.9603 -2.0023 -2.0731
   58SAPC  H11B 4303   3.060   2.940   7.339 -0.8952 -0.8208  2.2011
   58SAPC     P 4304   3.005   2.698   7.233  0.2059 -0.3581  0.3244
   58SAPC   O13 4305   3.019   2.571   7.161 -0.3083 -0.4168  0.0181
   58SAPC   O14 4306   2.919   2.701   7.350 -0.0165 -0.0674 -1.1589
   58SAPC   O12 4307   3.146   2.758   7.273  0.4093 -0.3017  0.1625
   58SAPC   O11 4308   2.965   2.810   7.132  0.0745  0.7452  0.7706
   58SAPC    C1 4309   3.063   2.863   7.031  0.1527 -0.6220 -0.0520
   58SAPC    HA 4310   3.158   2.895   7.079 -0.8890  1.8734  0.5090
   58SAPC    HB 4311   3.076   2.783   6.955 -1.4853 -1.3555  0.3900
   58SAPC    C2 4312   3.021   2.999   6.970  0.3095 -0.6753  0.1386
   58SAPC    HS 4313   3.020   3.063   7.061  0.8976 -0.7410  0.1965
   58SAPC   O21 4314   2.894   2.995   6.913  0.6390 -0.6138 -0.1333
   58SAPC   C21 4315   2.845   3.114   6.874  0.9493  0.3346 -0.5131
   58SAPC   O22 4316   2.888   3.224   6.900 -0.6116  0.7022  0.3217
   58SAPC   C22 4317   2.712   3.092   6.802 -0.2744  0.2314 -0.5153
   58SAPC   H2R 4318   2.666   2.999   6.840  0.0049  0.4185  0.3057
   58SAPC   H2S 4319   2.647   3.181   6.813 -0.0149  0.4011 -0.3128
   58SAPC    C3 4320   3.131   3.056   6.877 -0.5619  0.3338 -0.1016
   58SAPC    HX 4321   3.216   3.072   6.946  0.9547 -0.0328 -1.8051
   58SAPC    HY 4322   3.089   3.154   6.846 -1.0617 -0.1619 -1.0731
   58SAPC   O31 4323   3.165   2.970   6.764 -0.6012  0.2874 -0.3686
   58SAPC   C31 4324   3.300   2.970   6.737 -0.1006 -0.1189  0.4028
   58SAPC   O32 4325   3.387   3.020   6.806  0.0513 -0.6193 -0.2837
   58SAPC   C32 4326   3.328   2.895   6.608  0.0912  0.3956 -0.6495
   58SAPC   H2X 4327   3.266   2.803   6.600  1.2228 -0.2662 -2.4456
   58SAPC   H2Y 4328   3.437   2.874   6.597 -0.1255 -1.8725  0.8904
   58SAPC   C23 4329   2.732   3.058   6.661  0.0081  0.3277  0.3579
   58SAPC   H3R 4330   2.772   2.955   6.673 -1.1023 -0.1639 -0.0122
   58SAPC   H3S 4331   2.798   3.125   6.602 -0.9185  0.8517 -0.1010
   58SAPC   C24 4332   2.603   3.040   6.580  0.8109  0.0549 -0.4069
   58SAPC   H4R 4333   2.544   2.960   6.629  1.7644 -0.7636 -0.5598
   58SAPC   H4S 4334   2.640   3.003   6.482  2.0129  2.5012 -0.9568
   58SAPC   C25 4335   2.532   3.174   6.570 -0.5104 -0.4934  0.1703
   58SAPC   H5R 4336   2.528   3.236   6.661 -0.4349 -0.5108  0.1858
   58SAPC   C26 4337   2.463   3.209   6.463 -0.1820 -0.4054  0.4032
   58SAPC   H6R 4338   2.422   3.311   6.454  1.4094  0.1030 -1.7401
   58SAPC   C27 4339   2.461   3.126   6.339 -0.5968 -0.4736 -0.8418
   58SAPC   H7R 4340   2.481   3.017   6.347  1.7203 -0.0448  0.1933
   58SAPC   H7S 4341   2.542   3.159   6.270 -0.9581 -0.5278 -1.2960
   58SAPC   C28 4342   2.329   3.150   6.272  0.2571  0.0921  0.5670
   58SAPC   H8R 4343   2.237   3.137   6.331 -1.3397  0.0644 -1.7675
   58SAPC   C29 4344   2.311   3.188   6.140  0.8439  0.2355  0.4387
   58SAPC   H9R 4345   2.206   3.196   6.109 -0.0461 -1.3244  2.7894
   58SAPC  C210 4346   2.407   3.225   6.032  0.5030  0.1295 -0.6661
   58SAPC  H10R 4347   2.505   3.247   6.079  0.1085  0.3639  0.0541
   58SAPC  H10S 4348   2.380   3.323   5.987  1.0276  1.1152  1.0654
   58SAPC  C211 4349   2.413   3.108   5.934 -0.0065 -0.3002 -0.6814
   58SAPC  H11R 4350   2.472   3.027   5.978  0.7891  1.6216  2.0986
   58SAPC  C212 4351   2.366   3.103   5.809 -0.6404  0.4199 -0.3236
   58SAPC  H12R 4352   2.388   3.011   5.753 -0.6240 -1.3502  2.4102
   58SAPC  C213 4353   2.295   3.206   5.731 -0.0600 -0.0396 -0.2332
   58SAPC  H13R 4354   2.378   3.256   5.676  0.5422 -1.1185 -0.3388
   58SAPC  H13S 4355   2.252   3.282   5.799  0.6220 -0.3899  0.5993
   58SAPC  C214 4356   2.180   3.150   5.645 -0.4271 -0.0635 -0.3496
   58SAPC  H14R 4357   2.082   3.158   5.693  0.6998 -2.7338  2.7531
   58SAPC  C215 4358   2.188   3.130   5.511  0.2889  0.2736  0.0173
   58SAPC  H15R 4359   2.100   3.093   5.456  0.7235 -2.0577  0.7483
   58SAPC  C216 4360   2.316   3.096   5.433  0.6572 -0.7152 -1.0803
   58SAPC  H16R 4361   2.339   2.988   5.432  1.6306 -0.5134 -1.5506
   58SAPC  H16S 4362   2.407   3.148   5.470 -0.1808 -0.1863  0.3279
   58SAPC  C217 4363   2.315   3.153   5.282  0.2339 -0.0241 -0.5654
   58SAPC  H17R 4364   2.414   3.132   5.238  0.4609  0.2560 -0.1951
   58SAPC  H17S 4365   2.302   3.263   5.292 -1.7919 -0.3889  1.9422
   58SAPC  C218 4366   2.197   3.099   5.196  0.0359 -0.3203  0.3788
   58SAPC  H18R 4367   2.193   3.135   5.091 -0.8058 -1.2428  0.0859
   58SAPC  H18S 4368   2.107   3.147   5.241  1.0566 -0.0982  2.2871
   58SAPC  C219 4369   2.173   2.951   5.190 -0.3623 -0.9098  0.4133
   58SAPC  H19R 4370   2.077   2.930   5.137  0.3989 -0.6198 -1.1243
   58SAPC  H19S 4371   2.172   2.906   5.291 -0.2722 -0.9100  0.4134
   58SAPC  C220 4372   2.286   2.876   5.108 -0.1061  0.0533  0.2654
   58SAPC  H20R 4373   2.268   2.767   5.119  0.9874  0.0470  2.5327
   58SAPC  H20S 4374   2.384   2.906   5.151 -0.3797  3.6643 -1.2771
   58SAPC  H20T 4375   2.276   2.894   4.998 -2.8042 -0.9658  0.2851
   58SAPC   C33 4376   3.284   2.980   6.485 -0.0864  0.0445  0.2308
   58SAPC   H3X 4377   3.345   3.071   6.500  0.8735 -0.3019 -1.3543
   58SAPC   H3Y 4378   3.179   3.016   6.481 -0.1742 -0.0674  1.3025
   58SAPC   C34 4379   3.325   2.909   6.353  0.2330  0.7427 -0.4238
   58SAPC   H4X 4380   3.283   2.807   6.364  0.0836  0.9687  1.4059
   58SAPC   H4Y 4381   3.434   2.899   6.336  0.2011  1.4538 -1.1088
   58SAPC   C35 4382   3.262   2.989   6.232  0.4638  0.3244 -0.3728
   58SAPC   H5X 4383   3.273   3.094   6.268 -3.2931  0.0924  1.8929
   58SAPC   H5Y 4384   3.153   2.969   6.226  0.4013  0.8094 -1.0063
   58SAPC   C36 4385   3.335   2.963   6.103  0.0029 -0.3089  0.0083
   58SAPC   H6X 4386   3.364   2.856   6.093  3.0304  0.5361 -1.1765
   58SAPC   H6Y 4387   3.421   3.032   6.096 -0.3735  0.1267 -0.3801
   58SAPC   C37 4388   3.249   3.003   5.980  0.2760 -0.4693  0.3515
   58SAPC   H7X 4389   3.247   3.114   5.980  0.4087 -0.4278 -1.6040
   58SAPC   H7Y 4390   3.142   2.973   5.976 -0.2305  0.5024  3.7409
   58SAPC   C38 4391   3.312   2.950   5.848  0.3594  0.1804 -0.1457
   58SAPC   H8X 4392   3.330   2.841   5.862 -0.5417  0.0008 -0.3091
   58SAPC   H8Y 4393   3.405   3.000   5.816 -0.9859  1.5761 -2.0764
   58SAPC   C39 4394   3.230   2.968   5.716 -0.2557  0.3322  0.2735
   58SAPC   H9X 4395   3.186   3.069   5.720  0.9691  1.0708 -2.3559
   58SAPC   H9Y 4396   3.137   2.907   5.720 -1.0208  1.3540 -0.9258
   58SAPC  C310 4397   3.315   2.941   5.597 -0.1928 -0.7766 -0.1132
   58SAPC  H10X 4398   3.354   2.838   5.581 -1.0607 -0.7824 -2.5822
   58SAPC  H10Y 4399   3.399   3.013   5.606 -2.2437  1.6482  0.7318
   58SAPC  C311 4400   3.240   2.970   5.473  0.1680  0.0470  0.3065
   58SAPC  H11X 4401   3.206   3.076   5.470  0.1801  0.0371 -1.3752
   58SAPC  H11Y 4402   3.157   2.900   5.450  0.1309  0.1305  0.1837
   58SAPC  C312 4403   3.330   2.962   5.350  0.7988  0.7514 -0.0694
   58SAPC  H12X 4404   3.354   2.854   5.336 -1.0231  0.0996  1.4275
   58SAPC  H12Y 4405   3.426   3.015   5.367  2.0537 -1.1727 -0.7136
   58SAPC  C313 4406   3.270   3.026   5.226  0.2726  0.5026  0.7544
   58SAPC  H13X 4407   3.358   3.022   5.158  0.7213 -0.7320  1.3975
   58SAPC  H13Y 4408   3.243   3.133   5.237  1.0885  0.7519  0.4075
   58SAPC  C314 4409   3.146   2.949   5.165 -0.2183  0.5365  0.4479
   58SAPC  H14X 4410   3.062   2.965   5.235  0.1942 -1.2099  1.4199
   58SAPC  H14Y 4411   3.169   2.840   5.160 -0.2943  0.4653  1.4386
   58SAPC  C315 4412   3.100   3.000   5.027  0.5307  0.4976  0.2226
   58SAPC  H15X 4413   3.191   3.016   4.965  0.0663  0.0573 -0.5745
   58SAPC  H15Y 4414   3.051   3.099   5.036  1.3136  0.9802 -0.6279
   58SAPC  C316 4415   3.007   2.906   4.953  0.4981 -0.4236  0.0317
   58SAPC  H16X 4416   2.908   2.896   5.003  0.9234 -2.0495  0.6181
   58SAPC  H16Y 4417   3.066   2.812   4.953  1.6662  0.2809  0.4227
   58SAPC  C317 4418   2.983   2.958   4.810  0.4633 -0.0301  0.1609
   58SAPC  H17X 4419   3.078   2.964   4.753  1.5505 -3.7692  1.2218
   58SAPC  H17Y 4420   2.954   3.064   4.823  2.4738  0.3156  2.9433
   58SAPC  C318 4421   2.861   2.901   4.744 -0.4965  0.4743 -0.6477
   58SAPC  H18X 4422   2.831   2.941   4.645 -0.9255 -1.2038 -1.2450
   58SAPC  H18Y 4423   2.777   2.915   4.815  0.9174  2.1762  0.7556
   58SAPC  H18Z 4424   2.882   2.792   4.740 -0.0689  0.4948  0.6560
   59SAPC     N 4425   0.026   0.069   7.189  0.2624  0.0203  0.4036
   59SAPC   C12 4426  -0.103   0.072   7.099  0.1763 -0.0882  0.4060
   59SAPC  H12A 4427  -0.081   0.121   7.005  1.6318 -2.6508 -0.7040
   59SAPC  H12B 4428  -0.178   0.135   7.146  1.2500  1.8501 -0.3452
   59SAPC   C13 4429   0.061   0.208   7.231  0.3017  0.3599  0.3764
   59SAPC  H13A 4430  -0.020   0.248   7.289 -1.7965 -3.9530  0.8365
   59SAPC  H13B 4431   0.144   0.199   7.300  0.8845 -0.7703 -0.4390
   59SAPC  H13C 4432   0.079   0.279   7.152  0.5069  0.6966  0.7207
   59SAPC   C14 4433   0.005  -0.013   7.313  0.2993 -0.3681 -0.5418
   59SAPC  H14A 4434   0.089  -0.012   7.380  0.2362  0.6132 -0.4729
   59SAPC  H14B 4435  -0.077   0.031   7.366  0.9497 -0.2974  0.4178
   59SAPC  H14C 4436  -0.021  -0.116   7.293 -0.3197 -0.4825  0.8097
   59SAPC   C15 4437   0.142   0.009   7.105  0.2412 -0.5077  0.4711
   59SAPC  H15A 4438   0.140   0.070   7.015 -1.5025 -0.4351  0.5343
   59SAPC  H15B 4439   0.237   0.024   7.154 -0.0998  1.5579  0.6127
   59SAPC  H15C 4440   0.123  -0.094   7.081 -2.3268  0.0397 -0.1634
   59SAPC   C11 4441  -0.162  -0.063   7.046 -0.0708 -0.4221 -0.1812
   59SAPC  H11A 4442  -0.072  -0.128   7.051  0.6331  0.4911 -0.7094
   59SAPC  H11B 4443  -0.200  -0.065   6.942 -2.4843  0.8309  0.5823
   59SAPC     P 4444  -0.395  -0.028   7.151  0.0666  0.0064 -0.6179
   59SAPC   O13 4445  -0.498  -0.114   7.215  0.0927  0.0417  0.6761
   59SAPC   O14 4446  -0.358   0.102   7.218  0.0232 -0.1522 -0.0298
   59SAPC   O12 4447  -0.272  -0.117   7.130 -0.3403  0.7472 -0.8469
   59SAPC   O11 4448  -0.439   0.011   7.003 -0.1440 -0.2998 -0.0948
   59SAPC    C1 4449  -0.509  -0.088   6.927 -0.6211 -0.5358  0.2558
   59SAPC    HA 4450  -0.513  -0.187   6.977  1.3966 -0.6373  0.3237
   59SAPC    HB 4451  -0.613  -0.054   6.912  0.1040  3.0808  2.3460
   59SAPC    C2 4452  -0.437  -0.116   6.785  0.1596  0.1577 -0.1246
   59SAPC    HS 4453  -0.348  -0.181   6.799  0.2155  0.3772  0.5677
   59SAPC   O21 4454  -0.402   0.007   6.721  0.1789  0.2618  0.3758
   59SAPC   C21 4455  -0.289   0.009   6.651  0.2395 -0.7469 -0.1893
   59SAPC   O22 4456  -0.209  -0.077   6.657 -0.5594  0.0051 -0.5882
   59SAPC   C22 4457  -0.272   0.142   6.577 -0.4561  0.0548 -0.0333
   59SAPC   H2R 4458  -0.366   0.159   6.519 -1.0227 -1.9071  0.2082
   59SAPC   H2S 4459  -0.279   0.220   6.655  0.1458  1.4730 -1.3595
   59SAPC    C3 4460  -0.532  -0.196   6.686  0.3574 -0.3169  1.1398
   59SAPC    HX 4461  -0.614  -0.123   6.669  1.6117  0.6414 -1.3438
   59SAPC    HY 4462  -0.572  -0.285   6.739 -1.5687 -0.5030 -0.4749
   59SAPC   O31 4463  -0.466  -0.234   6.560 -0.1573  0.1355  0.7279
   59SAPC   C31 4464  -0.554  -0.287   6.477  0.7951 -0.3051 -0.4891
   59SAPC   O32 4465  -0.670  -0.316   6.505 -0.3539 -0.5712  0.0766
   59SAPC   C32 4466  -0.490  -0.339   6.350  0.9853 -0.1158 -0.0516
   59SAPC   H2X 4467  -0.502  -0.449   6.337  0.1884  0.1946 -2.3850
   59SAPC   H2Y 4468  -0.384  -0.309   6.358  0.7138  1.1573 -0.8620
   59SAPC   C23 4469  -0.155   0.156   6.484 -0.2273 -0.3056 -0.6233
   59SAPC   H3R 4470  -0.059   0.111   6.518  0.4859  1.3843 -0.2996
   59SAPC   H3S 4471  -0.128   0.264   6.476  0.8845 -0.5710 -0.6569
   59SAPC   C24 4472  -0.180   0.104   6.338  0.2706 -0.5878  0.6251
   59SAPC   H4R 4473  -0.239   0.011   6.337  0.3581 -0.6582 -1.3141
   59SAPC   H4S 4474  -0.078   0.083   6.298  1.2605  1.6834  1.7566
   59SAPC   C25 4475  -0.248   0.207   6.250  0.4809 -0.9658  0.6568
   59SAPC   H5R 4476  -0.347   0.228   6.292  1.2816  0.1864  2.0897
   59SAPC   C26 4477  -0.210   0.259   6.132 -0.1225  0.2187 -0.0097
   59SAPC   H6R 4478  -0.280   0.327   6.080  0.2347  1.2880  0.8615
   59SAPC   C27 4479  -0.077   0.231   6.057 -0.4699 -0.1786  0.1639
   59SAPC   H7R 4480  -0.083   0.159   5.973  2.9570 -0.3799 -0.0547
   59SAPC   H7S 4481  -0.005   0.178   6.123 -0.4859  0.5375  0.7632
   59SAPC   C28 4482  -0.019   0.360   6.006 -0.0934  0.1199  0.0906
   59SAPC   H8R 4483   0.013   0.433   6.082 -0.9653  1.4161 -0.7526
   59SAPC   C29 4484   0.010   0.389   5.879  0.8920 -0.0395 -0.3898
   59SAPC   H9R 4485   0.046   0.490   5.856 -0.3648  1.0009  1.8026
   59SAPC  C210 4486  -0.021   0.297   5.758  0.0160 -0.4030  0.6693
   59SAPC  H10R 4487   0.015   0.196   5.787  0.9024 -0.3009 -0.0480
   59SAPC  H10S 4488   0.035   0.334   5.670 -2.6619  0.4390 -0.7891
   59SAPC  C211 4489  -0.167   0.287   5.721 -0.0830  0.2510  0.0573
   59SAPC  H11R 4490  -0.245   0.334   5.782 -0.3250  2.2178 -1.6438
   59SAPC  C212 4491  -0.208   0.223   5.608 -0.6306 -0.4975  0.0612
   59SAPC  H12R 4492  -0.317   0.223   5.598 -0.8161  0.0376  1.7634
   59SAPC  C213 4493  -0.113   0.160   5.501  0.7250  0.0094 -0.5698
   59SAPC  H13R 4494  -0.141   0.054   5.483 -1.6153  0.8274 -2.2089
   59SAPC  H13S 4495  -0.008   0.166   5.537  0.1470 -0.1522  1.1885
   59SAPC  C214 4496  -0.098   0.233   5.371 -0.1020 -0.3278  0.2626
   59SAPC  H14R 4497  -0.144   0.333   5.363 -0.4870 -0.5866 -1.0273
   59SAPC  C215 4498  -0.062   0.179   5.253  0.1840 -0.1577  0.0411
   59SAPC  H15R 4499  -0.044   0.239   5.162 -2.2111  0.7058  0.0779
   59SAPC  C216 4500   0.007   0.041   5.238  0.1631  0.6942 -0.7108
   59SAPC  H16R 4501   0.067   0.014   5.327 -0.5438  2.1596  0.2709
   59SAPC  H16S 4502   0.085   0.059   5.161  2.6290 -0.5037  1.3631
   59SAPC  C217 4503  -0.093  -0.074   5.210 -0.4750 -0.6256 -0.0741
   59SAPC  H17R 4504  -0.183  -0.035   5.157  0.0016 -0.5370 -0.8291
   59SAPC  H17S 4505  -0.120  -0.121   5.308  1.6327 -1.6957  0.0472
   59SAPC  C218 4506  -0.029  -0.177   5.121  0.0698  0.2508  0.3859
   59SAPC  H18R 4507   0.069  -0.204   5.166  0.0811  1.1902  0.9465
   59SAPC  H18S 4508  -0.011  -0.134   5.021  2.9607 -0.4973  0.4733
   59SAPC  C219 4509  -0.121  -0.308   5.105  0.8236  0.7270 -0.1027
   59SAPC  H19R 4510  -0.223  -0.277   5.075  0.8610  0.4817 -0.4968
   59SAPC  H19S 4511  -0.116  -0.369   5.197 -0.8624 -0.8269 -0.9768
   59SAPC  C220 4512  -0.070  -0.398   4.996  0.6355  0.2253  0.4523
   59SAPC  H20R 4513   0.038  -0.416   5.015  0.3841  1.0514  3.0819
   59SAPC  H20S 4514  -0.077  -0.355   4.894  0.1610 -0.9245 -0.0125
   59SAPC  H20T 4515  -0.129  -0.490   5.014  1.1725  0.0101  1.2049
   59SAPC   C33 4516  -0.559  -0.277   6.225 -0.2231  0.2997 -0.2404
   59SAPC   H3X 4517  -0.670  -0.279   6.224 -0.2232 -1.9918 -0.9239
   59SAPC   H3Y 4518  -0.537  -0.342   6.138 -0.0462 -0.5191  0.4094
   59SAPC   C34 4519  -0.503  -0.145   6.188 -0.5238 -0.0277  1.1023
   59SAPC   H4X 4520  -0.391  -0.147   6.188 -0.5218 -1.0185 -0.1548
   59SAPC   H4Y 4521  -0.539  -0.076   6.267  0.7197  0.5216  1.2219
   59SAPC   C35 4522  -0.569  -0.101   6.051 -0.0396 -0.5628  0.3521
   59SAPC   H5X 4523  -0.678  -0.121   6.060 -0.5750  0.4455 -2.8432
   59SAPC   H5Y 4524  -0.528  -0.167   5.973  1.2852 -0.0182  0.5563
   59SAPC   C36 4525  -0.550   0.048   6.003  0.1864  0.2763  0.0550
   59SAPC   H6X 4526  -0.440   0.062   6.008  0.4223 -1.5878  3.2644
   59SAPC   H6Y 4527  -0.601   0.109   6.080  1.6663  0.2725  1.0823
   59SAPC   C37 4528  -0.601   0.090   5.866 -0.2785 -0.1446 -0.0656
   59SAPC   H7X 4529  -0.708   0.078   5.839  0.0226 -1.8506 -0.6496
   59SAPC   H7Y 4530  -0.557   0.027   5.786  0.4764 -2.0096  1.7155
   59SAPC   C38 4531  -0.573   0.245   5.829  0.1450 -0.0081 -0.0660
   59SAPC   H8X 4532  -0.469   0.262   5.865  0.7597 -1.2667 -1.1476
   59SAPC   H8Y 4533  -0.648   0.311   5.876  0.3808  1.2582 -1.3672
   59SAPC   C39 4534  -0.597   0.257   5.678 -0.2872 -0.2168  0.1915
   59SAPC   H9X 4535  -0.702   0.229   5.661 -0.4535  0.4718  0.0483
   59SAPC   H9Y 4536  -0.547   0.176   5.621 -0.3974 -0.6181  0.6571
   59SAPC  C310 4537  -0.564   0.391   5.615 -0.3349 -0.3835  0.3418
   59SAPC  H10X 4538  -0.462   0.423   5.646  0.4863 -3.1052  0.7487
   59SAPC  H10Y 4539  -0.636   0.472   5.641 -1.4270 -1.5790  1.2246
   59SAPC  C311 4540  -0.554   0.379   5.461  0.3898 -0.4824  0.3119
   59SAPC  H11X 4541  -0.461   0.323   5.437  1.7922  1.8868 -0.0648
   59SAPC  H11Y 4542  -0.530   0.480   5.423 -0.8064  0.7526  2.6450
   59SAPC  C312 4543  -0.673   0.319   5.390 -0.1467  0.7935  0.5342
   59SAPC  H12X 4544  -0.770   0.365   5.418 -1.7084 -0.8514 -1.8781
   59SAPC  H12Y 4545  -0.688   0.210   5.403 -0.1239  0.4771 -1.7399
   59SAPC  C313 4546  -0.655   0.348   5.245 -0.3081 -0.1994  0.4916
   59SAPC  H13X 4547  -0.573   0.289   5.200  0.2004  0.8642 -0.0072
   59SAPC  H13Y 4548  -0.627   0.454   5.227  2.5032 -0.4640  2.6132
   59SAPC  C314 4549  -0.775   0.317   5.154  0.5560  0.3108 -0.3268
   59SAPC  H14X 4550  -0.795   0.207   5.154  1.0789  0.1921  1.4408
   59SAPC  H14Y 4551  -0.737   0.334   5.050  1.0007  0.4633 -0.1445
   59SAPC  C315 4552  -0.903   0.387   5.183  0.5629  0.1177  0.0600
   59SAPC  H15X 4553  -0.883   0.489   5.221 -2.1254  1.0068 -0.6665
   59SAPC  H15Y 4554  -0.966   0.324   5.250 -0.8086  0.9060 -0.4560
   59SAPC  C316 4555  -0.983   0.412   5.054  0.5706  0.5344  0.2564
   59SAPC  H16X 4556  -1.027   0.317   5.015  0.8579  0.7895 -0.7260
   59SAPC  H16Y 4557  -0.915   0.444   4.972  0.2456  0.1726 -0.1611
   59SAPC  C317 4558  -1.089   0.515   5.078 -0.1096  0.3439  0.6755
   59SAPC  H17X 4559  -1.045   0.606   5.124  0.6268  0.2021  0.2652
   59SAPC  H17Y 4560  -1.164   0.483   5.154  1.4759 -1.4438  1.5580
   59SAPC  C318 4561  -1.163   0.560   4.954 -0.3230  0.0653 -0.3437
   59SAPC  H18X 4562  -1.099   0.626   4.891  0.8049 -0.0670  0.6415
   59SAPC  H18Y 4563  -1.251   0.627   4.964 -0.0658  0.6843 -1.8737
   59SAPC  H18Z 4564  -1.175   0.473   4.886 -0.2710 -1.6176  1.7362
   60SAPC     N 4565   6.814   5.563   6.961  0.1060 -0.0997 -0.8332
   60SAPC   C12 4566   6.789   5.712   6.946 -0.5173 -0.1123 -0.9075
   60SAPC  H12A 4567   6.854   5.770   7.010  0.8109 -1.2800 -1.1576
   60SAPC  H12B 4568   6.688   5.727   6.981 -0.5009 -1.1970 -0.3576
   60SAPC   C13 4569   6.951   5.521   6.912  0.0631 -0.0948 -0.2317
   60SAPC  H13A 4570   6.955   5.414   6.926  1.5554 -0.1379 -0.8580
   60SAPC  H13B 4571   6.975   5.541   6.809 -1.0912 -0.7516 -0.6551
   60SAPC  H13C 4572   7.028   5.566   6.972 -1.0030  0.4478  0.7671
   60SAPC   C14 4573   6.807   5.517   7.104  0.4111 -0.0084  0.1013
   60SAPC  H14A 4574   6.877   5.563   7.171  0.2329 -3.2965  2.8510
   60SAPC  H14B 4575   6.710   5.539   7.146 -0.4000 -0.5454 -1.4216
   60SAPC  H14C 4576   6.832   5.411   7.106  0.8609  0.0828 -0.3999
   60SAPC   C15 4577   6.709   5.487   6.875  0.4061 -0.2400  0.5393
   60SAPC  H15A 4578   6.711   5.509   6.769  3.8135  0.4929  0.6635
   60SAPC  H15B 4579   6.723   5.381   6.892  0.5036 -0.6212 -1.6661
   60SAPC  H15C 4580   6.608   5.502   6.911  0.4421 -2.7106  1.9181
   60SAPC   C11 4581   6.796   5.773   6.801  0.6576 -0.2405  0.3929
   60SAPC  H11A 4582   6.760   5.878   6.807 -0.8136 -0.5191 -2.1438
   60SAPC  H11B 4583   6.734   5.717   6.728  1.1008 -0.3100  0.0620
   60SAPC     P 4584   7.023   5.889   6.834 -0.2710 -0.2781 -0.2336
   60SAPC   O13 4585   6.950   6.023   6.845  0.5093 -0.5590 -0.1467
   60SAPC   O14 4586   7.069   5.837   6.967  0.1987 -0.2672  0.3948
   60SAPC   O12 4587   6.932   5.781   6.756 -0.1688 -0.1809  0.0473
   60SAPC   O11 4588   7.149   5.906   6.741  0.5709  0.5202  0.3538
   60SAPC    C1 4589   7.214   5.802   6.673 -0.5685  0.2393 -0.1781
   60SAPC    HA 4590   7.319   5.804   6.711 -1.4668  2.3972  2.5394
   60SAPC    HB 4591   7.169   5.705   6.702 -1.4695  1.3204  2.4007
   60SAPC    C2 4592   7.211   5.807   6.515  0.6593  0.6604  0.0215
   60SAPC    HS 4593   7.198   5.708   6.467 -1.7257  0.9254 -0.0005
   60SAPC   O21 4594   7.323   5.874   6.456  0.5952  0.1265  0.4456
   60SAPC   C21 4595   7.436   5.805   6.465 -0.4447 -0.1769 -0.6485
   60SAPC   O22 4596   7.453   5.708   6.537  0.0051 -0.5440 -0.1190
   60SAPC   C22 4597   7.545   5.870   6.383  0.0808  0.3859 -0.2266
   60SAPC   H2R 4598   7.540   5.980   6.398 -0.9149  0.2879  0.2788
   60SAPC   H2S 4599   7.640   5.840   6.433 -0.6847 -0.3593  0.8361
   60SAPC    C3 4600   7.085   5.894   6.477 -0.0594  0.6614 -0.3016
   60SAPC    HX 4601   7.106   5.990   6.528  0.1691  1.3774 -1.6955
   60SAPC    HY 4602   6.990   5.853   6.517 -0.3188  2.2738  0.7936
   60SAPC   O31 4603   7.071   5.904   6.334  0.4712 -0.0088 -0.3827
   60SAPC   C31 4604   7.109   6.014   6.272  1.0729  0.4108 -0.6176
   60SAPC   O32 4605   7.191   6.100   6.309  0.0732  0.1392 -0.2541
   60SAPC   C32 4606   7.043   6.013   6.140 -0.6387 -0.9698 -0.4391
   60SAPC   H2X 4607   6.938   5.981   6.157 -0.3972 -0.7648  1.7726
   60SAPC   H2Y 4608   7.112   5.951   6.079  3.7770  1.3028  1.8021
   60SAPC   C23 4609   7.523   5.835   6.232  0.5117  0.3081  0.3548
   60SAPC   H3R 4610   7.419   5.807   6.207 -0.2961  2.1740  1.4288
   60SAPC   H3S 4611   7.596   5.756   6.205 -0.1122  0.0981 -0.7703
   60SAPC   C24 4612   7.578   5.947   6.139 -0.2730  0.3404 -0.0918
   60SAPC   H4R 4613   7.595   5.905   6.037 -2.7443 -1.8983  0.2896
   60SAPC   H4S 4614   7.684   5.965   6.167  0.5147 -3.2490 -0.1948
   60SAPC   C25 4615   7.490   6.069   6.145  0.2945 -0.4905  0.1820
   60SAPC   H5R 4616   7.447   6.092   6.243  2.0757 -0.4109  0.9744
   60SAPC   C26 4617   7.439   6.133   6.038  0.2433 -0.0089 -0.7147
   60SAPC   H6R 4618   7.379   6.221   6.067 -0.1471 -1.2293  2.7182
   60SAPC   C27 4619   7.472   6.106   5.890  0.0038 -0.1277 -0.0196
   60SAPC   H7R 4620   7.394   6.156   5.829 -1.9928 -0.2133  2.3083
   60SAPC   H7S 4621   7.461   6.001   5.853 -0.3570 -0.9148  2.1811
   60SAPC   C28 4622   7.606   6.157   5.848 -1.0906 -0.1336  0.2292
   60SAPC   H8R 4623   7.684   6.166   5.924 -0.4777  0.7403 -0.4741
   60SAPC   C29 4624   7.645   6.175   5.716 -0.3568  0.1717 -0.0192
   60SAPC   H9R 4625   7.744   6.219   5.696 -1.3785  2.1940 -0.9809
   60SAPC  C210 4626   7.558   6.169   5.596 -0.0109 -0.4645  0.5311
   60SAPC  H10R 4627   7.449   6.166   5.620  0.1957 -1.8012  1.4222
   60SAPC  H10S 4628   7.581   6.076   5.541 -0.2428  0.8324 -1.8887
   60SAPC  C211 4629   7.595   6.271   5.492 -0.1219 -0.5841  0.2325
   60SAPC  H11R 4630   7.536   6.364   5.498 -1.2720 -1.0924 -2.1439
   60SAPC  C212 4631   7.707   6.272   5.421 -0.3357  0.2227  0.0091
   60SAPC  H12R 4632   7.720   6.345   5.340  1.2892  0.8874  0.8236
   60SAPC  C213 4633   7.819   6.162   5.424 -0.1240 -0.6580  0.4410
   60SAPC  H13R 4634   7.787   6.072   5.480 -1.7504  0.6198  1.6701
   60SAPC  H13S 4635   7.909   6.202   5.475 -0.4468  1.8274 -0.7905
   60SAPC  C214 4636   7.860   6.117   5.288 -0.7515 -0.1972 -0.9000
   60SAPC  H14R 4637   7.772   6.070   5.243 -2.9654  1.1356  1.7499
   60SAPC  C215 4638   7.982   6.108   5.226  0.6960 -0.4009 -0.2905
   60SAPC  H15R 4639   7.986   6.054   5.130 -1.3454 -2.5396  0.7180
   60SAPC  C216 4640   8.107   6.180   5.278 -0.2557 -0.1254 -0.3914
   60SAPC  H16R 4641   8.192   6.110   5.293  0.5231  1.2692  2.1890
   60SAPC  H16S 4642   8.096   6.220   5.381  1.5007 -0.1500 -0.1701
   60SAPC  C217 4643   8.151   6.301   5.194  0.0691 -0.1202  0.4241
   60SAPC  H17R 4644   8.068   6.374   5.208  0.3166  0.1627  0.4159
   60SAPC  H17S 4645   8.164   6.264   5.090  0.5443  1.4663 -0.1127
   60SAPC  C218 4646   8.275   6.372   5.236 -0.2195 -0.0359  0.1585
   60SAPC  H18R 4647   8.363   6.313   5.205  0.9189  0.6931  1.8025
   60SAPC  H18S 4648   8.284   6.391   5.346  0.8340 -0.5249  0.1639
   60SAPC  C219 4649   8.281   6.515   5.170 -0.2641  0.7041 -0.4901
   60SAPC  H19R 4650   8.362   6.572   5.220 -0.5316 -0.0674  0.8738
   60SAPC  H19S 4651   8.186   6.569   5.193  0.8834  2.5637  0.0731
   60SAPC  C220 4652   8.311   6.511   5.022 -0.0030  0.1956 -0.3206
   60SAPC  H20R 4653   8.225   6.467   4.967 -1.8293  2.1164  0.8859
   60SAPC  H20S 4654   8.410   6.462   5.004  0.4185 -0.0757  2.3889
   60SAPC  H20T 4655   8.325   6.615   4.985 -1.4756  1.0529  1.3852
   60SAPC   C33 4656   7.041   6.144   6.064 -0.7183 -0.5044 -0.2393
   60SAPC   H3X 4657   7.147   6.166   6.037 -0.1092 -2.7047  0.1602
   60SAPC   H3Y 4658   7.006   6.232   6.121 -1.9968 -1.1008 -0.0750
   60SAPC   C34 4659   6.944   6.144   5.939 -0.9757  0.0242  0.0293
   60SAPC   H4X 4660   6.845   6.125   5.985 -1.0325  2.3886  1.0525
   60SAPC   H4Y 4661   6.969   6.059   5.872 -1.9461  1.1660 -1.8474
   60SAPC   C35 4662   6.955   6.279   5.863 -0.6680 -0.4376  0.0133
   60SAPC   H5X 4663   7.059   6.298   5.830 -0.9165  0.2844 -0.3595
   60SAPC   H5Y 4664   6.923   6.357   5.935 -0.7551 -0.4476 -0.0137
   60SAPC   C36 4665   6.858   6.281   5.744  0.2360  0.1534 -0.5828
   60SAPC   H6X 4666   6.755   6.285   5.785  0.8671  2.3488  0.9919
   60SAPC   H6Y 4667   6.879   6.191   5.682  3.0063 -0.0395  0.4906
   60SAPC   C37 4668   6.893   6.401   5.662 -0.1817 -0.2124  0.1793
   60SAPC   H7X 4669   6.988   6.374   5.610 -0.1314 -0.0390  0.1823
   60SAPC   H7Y 4670   6.923   6.487   5.726  0.4800 -0.5328  0.3194
   60SAPC   C38 4671   6.789   6.436   5.556 -0.0330  0.1334  0.1523
   60SAPC   H8X 4672   6.697   6.453   5.614  0.8888  1.0667  1.3963
   60SAPC   H8Y 4673   6.766   6.346   5.494  1.0410 -1.6728  2.2239
   60SAPC   C39 4674   6.830   6.546   5.456 -1.1199 -0.1109  0.9924
   60SAPC   H9X 4675   6.902   6.498   5.386 -1.4849  0.3344  0.3051
   60SAPC   H9Y 4676   6.880   6.628   5.512 -0.4608 -0.0677  0.3627
   60SAPC  C310 4677   6.719   6.608   5.378  0.0875 -0.4140  0.3098
   60SAPC  H10X 4678   6.752   6.704   5.332  2.3608 -0.5893  1.4585
   60SAPC  H10Y 4679   6.634   6.619   5.448  0.1380 -1.1790  0.4981
   60SAPC  C311 4680   6.665   6.512   5.266  0.1075  0.1009  0.1971
   60SAPC  H11X 4681   6.608   6.427   5.310 -1.8273  0.2141 -1.9018
   60SAPC  H11Y 4682   6.756   6.477   5.214  1.8603  2.6308  1.3534
   60SAPC  C312 4683   6.577   6.584   5.168 -0.6852 -0.1059 -0.0048
   60SAPC  H12X 4684   6.634   6.676   5.143 -0.0787 -1.1008 -2.5489
   60SAPC  H12Y 4685   6.488   6.621   5.223 -0.8067 -0.0383 -0.2443
   60SAPC  C313 4686   6.543   6.506   5.040  0.4171 -0.1033  0.7208
   60SAPC  H13X 4687   6.526   6.399   5.065 -0.9099  0.5768  3.0283
   60SAPC  H13Y 4688   6.631   6.519   4.974  0.7215 -1.3749  0.8496
   60SAPC  C314 4689   6.410   6.554   4.969 -0.1539 -0.8584 -0.2588
   60SAPC  H14X 4690   6.415   6.522   4.863 -1.3321  2.0226 -1.2967
   60SAPC  H14Y 4691   6.400   6.665   4.971  1.2723 -0.7097 -0.2412
   60SAPC  C315 4692   6.295   6.470   5.013  0.0741  0.4303 -0.1134
   60SAPC  H15X 4693   6.287   6.483   5.123 -0.2929  1.1991 -0.2287
   60SAPC  H15Y 4694   6.313   6.362   4.993  1.5447  0.7999 -0.9240
   60SAPC  C316 4695   6.159   6.507   4.949  0.8649  0.7172 -0.3800
   60SAPC  H16X 4696   6.167   6.523   4.840 -1.0061  1.6654 -0.4125
   60SAPC  H16Y 4697   6.121   6.601   4.995 -0.6956 -0.6930  1.4024
   60SAPC  C317 4698   6.045   6.400   4.986 -0.3495 -0.3587 -0.3253
   60SAPC  H17X 4699   6.030   6.390   5.096 -0.4529 -4.1168 -0.5731
   60SAPC  H17Y 4700   6.071   6.298   4.953  2.2285 -0.4839  1.7162
   60SAPC  C318 4701   5.920   6.449   4.914  0.3691  0.1987 -0.6340
   60SAPC  H18X 4702   5.941   6.507   4.822 -0.6691 -0.5782 -1.3746
   60SAPC  H18Y 4703   5.865   6.506   4.992  0.2486  0.1810 -0.7063
   60SAPC  H18Z 4704   5.851   6.366   4.888 -1.8298  1.2789  1.3444
   61SAPC     N 4705   5.221   0.212   6.966 -0.8461  0.0241 -0.6781
   61SAPC   C12 4706   5.223   0.350   7.037  0.7494 -0.1591 -0.3031
   61SAPC  H12A 4707   5.307   0.412   7.008 -0.2138  2.1417  1.5419
   61SAPC  H12B 4708   5.221   0.350   7.145 -1.8647  3.0838 -0.2138
   61SAPC   C13 4709   5.235   0.238   6.824  0.3417 -0.1503  0.2820
   61SAPC  H13A 4710   5.158   0.308   6.795 -0.2005 -0.8790 -0.0818
   61SAPC  H13B 4711   5.332   0.272   6.791 -0.3698  2.5756  0.7720
   61SAPC  H13C 4712   5.206   0.155   6.761  0.5624  0.1378 -0.2097
   61SAPC   C14 4713   5.340   0.134   7.024 -0.3209 -0.1319  0.0046
   61SAPC  H14A 4714   5.317   0.118   7.129 -1.4240  2.6235  0.2629
   61SAPC  H14B 4715   5.358   0.045   6.965 -0.3382 -0.7083  0.8351
   61SAPC  H14C 4716   5.431   0.192   7.027 -2.6954  3.9562  0.2662
   61SAPC   C15 4717   5.093   0.148   7.000 -0.2866 -0.3119 -0.1168
   61SAPC  H15A 4718   5.076   0.056   6.946 -1.6631 -0.8665  1.1866
   61SAPC  H15B 4719   5.075   0.137   7.106 -0.9358  1.7111  0.0254
   61SAPC  H15C 4720   5.019   0.220   6.967 -1.0454 -1.6860 -1.5497
   61SAPC   C11 4721   5.105   0.438   7.005  0.6113  0.0166  0.5216
   61SAPC  H11A 4722   5.103   0.459   6.896 -1.9592 -0.4370  0.4262
   61SAPC  H11B 4723   5.127   0.537   7.052  0.1763 -0.0489  0.8680
   61SAPC     P 4724   4.860   0.497   7.064 -0.1747  0.4137  0.0215
   61SAPC   O13 4725   4.733   0.419   7.070  0.3329 -0.3618  0.4428
   61SAPC   O14 4726   4.883   0.581   7.183  0.6863  0.6972 -0.9363
   61SAPC   O12 4727   4.974   0.394   7.043 -0.1913 -0.0896 -0.3826
   61SAPC   O11 4728   4.869   0.587   6.936 -0.7192  0.1005 -0.2675
   61SAPC    C1 4729   4.816   0.537   6.809 -0.0700  0.3133 -0.0376
   61SAPC    HA 4730   4.900   0.475   6.769 -0.7352  0.2780 -1.4177
   61SAPC    HB 4731   4.735   0.461   6.818 -0.5892  0.9623  0.9751
   61SAPC    C2 4732   4.775   0.659   6.713  0.3038  0.0916 -0.2652
   61SAPC    HS 4733   4.871   0.712   6.695  1.5386 -2.3382 -1.3987
   61SAPC   O21 4734   4.677   0.743   6.774 -0.0308 -0.0167 -0.3551
   61SAPC   C21 4735   4.650   0.863   6.729  0.1048  0.7632 -0.0124
   61SAPC   O22 4736   4.720   0.909   6.638  0.3390 -0.5506  0.0468
   61SAPC   C22 4737   4.538   0.922   6.811 -0.3819 -0.4570 -0.0260
   61SAPC   H2R 4738   4.470   0.837   6.835 -1.9710  0.6847 -0.3635
   61SAPC   H2S 4739   4.581   0.965   6.904 -2.1019  1.9921 -0.2896
   61SAPC    C3 4740   4.724   0.605   6.573  0.3973  0.2202  0.0622
   61SAPC    HX 4741   4.691   0.681   6.499  0.1182  0.9540  0.9289
   61SAPC    HY 4742   4.629   0.557   6.604  1.7324 -1.2705  2.1463
   61SAPC   O31 4743   4.819   0.513   6.519  0.1768 -0.6174  0.3264
   61SAPC   C31 4744   4.757   0.445   6.424 -1.0179 -0.4070  0.1617
   61SAPC   O32 4745   4.646   0.464   6.385  0.2070  0.7713  0.1093
   61SAPC   C32 4746   4.855   0.345   6.364  0.3893  0.0528 -0.3813
   61SAPC   H2X 4747   4.845   0.246   6.413 -1.8399  0.5476  0.2631
   61SAPC   H2Y 4748   4.961   0.376   6.382  0.7438 -1.8216  0.9985
   61SAPC   C23 4749   4.452   1.020   6.734 -0.8133  0.0763 -1.1459
   61SAPC   H3R 4750   4.518   1.104   6.704 -2.3592  1.3724 -1.1004
   61SAPC   H3S 4751   4.388   1.068   6.812  0.9589 -0.7156  0.9071
   61SAPC   C24 4752   4.375   0.969   6.613 -0.6917  0.1750  0.4708
   61SAPC   H4R 4753   4.448   0.931   6.538  0.4855  1.1796  1.0659
   61SAPC   H4S 4754   4.333   1.060   6.566 -0.7929 -0.3392 -0.4619
   61SAPC   C25 4755   4.269   0.863   6.630 -0.4358  0.2967 -0.4909
   61SAPC   H5R 4756   4.189   0.894   6.698  0.5403 -0.2963  0.9741
   61SAPC   C26 4757   4.262   0.742   6.578  0.3260  0.6055 -0.0018
   61SAPC   H6R 4758   4.179   0.679   6.612 -0.4607 -0.9245 -4.1813
   61SAPC   C27 4759   4.360   0.682   6.475 -0.3909  0.0887  0.6223
   61SAPC   H7R 4760   4.341   0.575   6.455 -0.1738  0.1329  0.1452
   61SAPC   H7S 4761   4.459   0.694   6.522  0.2821 -1.1696 -0.4071
   61SAPC   C28 4762   4.373   0.757   6.341 -0.1016  0.3707 -0.3082
   61SAPC   H8R 4763   4.353   0.865   6.344 -1.4571  0.1604 -1.1214
   61SAPC   C29 4764   4.382   0.710   6.216  0.0379  0.2379  0.2984
   61SAPC   H9R 4765   4.402   0.788   6.141  1.4773  0.9864  1.3992
   61SAPC  C210 4766   4.400   0.568   6.178 -0.2061 -0.7259 -0.7682
   61SAPC  H10R 4767   4.417   0.512   6.273 -2.1940  0.9011  0.6376
   61SAPC  H10S 4768   4.496   0.573   6.121 -0.0009  0.1773 -0.3600
   61SAPC  C211 4769   4.295   0.514   6.090 -0.0163 -0.4155 -0.1316
   61SAPC  H11R 4770   4.196   0.559   6.106  0.9776  3.3941 -3.1415
   61SAPC  C212 4771   4.315   0.414   6.005 -0.0935  0.5843  0.5640
   61SAPC  H12R 4772   4.236   0.378   5.938  1.3384 -0.6957 -0.4923
   61SAPC  C213 4773   4.446   0.351   5.984 -0.7924  0.8673  0.4155
   61SAPC  H13R 4774   4.468   0.281   6.067 -3.3389  0.3336  0.7031
   61SAPC  H13S 4775   4.528   0.427   5.979  1.2468 -1.2896 -1.9375
   61SAPC  C214 4776   4.468   0.271   5.856 -0.2870 -0.5702 -0.2712
   61SAPC  H14R 4777   4.460   0.161   5.864 -0.0684 -0.8275 -2.8411
   61SAPC  C215 4778   4.503   0.335   5.741 -0.0867  0.4961  0.0410
   61SAPC  H15R 4779   4.522   0.274   5.651 -0.1476  0.0307  0.3377
   61SAPC  C216 4780   4.518   0.483   5.722  0.5295  0.4943  0.8523
   61SAPC  H16R 4781   4.626   0.507   5.729  1.1025 -1.3807 -0.6928
   61SAPC  H16S 4782   4.460   0.527   5.806 -2.0239 -2.2444  0.6966
   61SAPC  C217 4783   4.442   0.541   5.606  0.1603  0.1930 -0.2284
   61SAPC  H17R 4784   4.431   0.651   5.605  2.5914  0.4984  0.1812
   61SAPC  H17S 4785   4.339   0.498   5.608 -0.0703  0.6429 -1.4640
   61SAPC  C218 4786   4.496   0.497   5.465  0.1848 -0.1079  0.7517
   61SAPC  H18R 4787   4.469   0.400   5.421  3.0110  0.5273 -2.8697
   61SAPC  H18S 4788   4.606   0.501   5.483  0.2881 -1.0214  0.3360
   61SAPC  C219 4789   4.460   0.605   5.356  0.1272 -0.8420  0.6800
   61SAPC  H19R 4790   4.504   0.705   5.378 -0.2444 -0.7016  0.7768
   61SAPC  H19S 4791   4.351   0.624   5.359  0.3946  0.9357  3.8308
   61SAPC  C220 4792   4.488   0.574   5.213 -0.1539 -0.4502  0.3165
   61SAPC  H20R 4793   4.592   0.536   5.218  1.1647  2.5877 -1.3362
   61SAPC  H20S 4794   4.465   0.654   5.139 -0.3168 -0.7629  0.0244
   61SAPC  H20T 4795   4.423   0.492   5.175  0.5915 -0.4635 -0.9758
   61SAPC   C33 4796   4.842   0.329   6.209  0.2875  0.2864  0.0228
   61SAPC   H3X 4797   4.937   0.301   6.159  0.1671  0.0164 -0.0540
   61SAPC   H3Y 4798   4.819   0.432   6.174  0.0240 -0.1444 -1.1322
   61SAPC   C34 4799   4.720   0.238   6.170 -0.5338  0.1618 -0.3891
   61SAPC   H4X 4800   4.727   0.251   6.060  2.9751 -3.3438 -0.8454
   61SAPC   H4Y 4801   4.621   0.279   6.199  0.0459  2.2984 -1.2092
   61SAPC   C35 4802   4.735   0.086   6.198 -0.0807 -0.1525  0.3331
   61SAPC   H5X 4803   4.640   0.045   6.157 -0.9060  0.5446  1.4926
   61SAPC   H5Y 4804   4.742   0.066   6.307 -0.0263  0.0423  0.3656
   61SAPC   C36 4805   4.849   0.015   6.129  0.2790 -0.1086 -1.1618
   61SAPC   H6X 4806   4.854  -0.091   6.163  0.4292 -1.1773 -4.2411
   61SAPC   H6Y 4807   4.945   0.066   6.151 -0.7294  1.1480  0.6310
   61SAPC   C37 4808   4.844  -0.004   5.975 -0.3227 -0.4777  0.2520
   61SAPC   H7X 4809   4.928  -0.074   5.956  1.1053  1.3769 -0.6924
   61SAPC   H7Y 4810   4.875   0.099   5.947 -2.5490  0.8953  2.4498
   61SAPC   C38 4811   4.718  -0.056   5.905 -0.5658 -0.1847  0.4863
   61SAPC   H8X 4812   4.639   0.021   5.921 -0.2206  0.3394 -0.2520
   61SAPC   H8Y 4813   4.679  -0.149   5.951 -0.9641  0.0439  0.6183
   61SAPC   C39 4814   4.736  -0.066   5.753  0.1053 -0.2630  0.9305
   61SAPC   H9X 4815   4.820  -0.131   5.720  0.7677 -0.0333  2.0863
   61SAPC   H9Y 4816   4.759   0.038   5.722  0.0694 -0.9404 -1.5452
   61SAPC  C310 4817   4.601  -0.104   5.697  0.0799  0.1658  0.7324
   61SAPC  H10X 4818   4.527  -0.026   5.727 -0.0915  1.0563 -1.7332
   61SAPC  H10Y 4819   4.579  -0.206   5.733 -0.6675 -0.4356 -1.2925
   61SAPC  C311 4820   4.605  -0.103   5.546 -0.1061 -0.5053 -0.4394
   61SAPC  H11X 4821   4.648  -0.200   5.511 -1.5673 -0.8814 -1.2590
   61SAPC  H11Y 4822   4.656  -0.013   5.506 -2.6871  0.5121 -1.6251
   61SAPC  C312 4823   4.461  -0.093   5.489 -0.1563  0.1764 -0.0014
   61SAPC  H12X 4824   4.401  -0.166   5.547  0.0584 -0.0253 -0.0298
   61SAPC  H12Y 4825   4.453  -0.126   5.383  0.9879  3.4621 -1.2222
   61SAPC  C313 4826   4.384   0.041   5.513 -0.4687  0.2510  0.2233
   61SAPC  H13X 4827   4.423   0.117   5.441 -1.4062  0.3400 -0.2053
   61SAPC  H13Y 4828   4.398   0.083   5.614  2.6126 -0.9759  0.4214
   61SAPC  C314 4829   4.234   0.018   5.485 -0.2670 -0.4353  0.5318
   61SAPC  H14X 4830   4.192  -0.068   5.542  1.6145 -3.2667 -2.0281
   61SAPC  H14Y 4831   4.223  -0.002   5.377 -0.7797  1.7346  0.1254
   61SAPC  C315 4832   4.162   0.152   5.506  0.3029  0.0748  0.5688
   61SAPC  H15X 4833   4.226   0.236   5.473 -1.5636  1.7990  1.1485
   61SAPC  H15Y 4834   4.149   0.163   5.616 -3.0986  1.3074  0.1804
   61SAPC  C316 4835   4.020   0.152   5.446 -0.4816 -0.1468  0.3936
   61SAPC  H16X 4836   3.956   0.080   5.501 -1.1316  1.4605  1.8512
   61SAPC  H16Y 4837   4.023   0.126   5.338 -0.3052 -3.7455  1.1414
   61SAPC  C317 4838   3.959   0.287   5.462 -0.2649 -0.4798 -0.5068
   61SAPC  H17X 4839   3.879   0.309   5.388  0.2864 -1.2720 -1.3606
   61SAPC  H17Y 4840   4.038   0.364   5.449 -0.7333  0.2103  0.5630
   61SAPC  C318 4841   3.904   0.309   5.600 -1.0345 -0.0740 -0.4461
   61SAPC  H18X 4842   3.814   0.245   5.613  0.8926 -2.7154  0.9455
   61SAPC  H18Y 4843   3.880   0.418   5.604  0.3432  0.2656 -0.7355
   61SAPC  H18Z 4844   3.972   0.293   5.686 -1.9956  3.4392  1.1766
   62SAPC     N 4845   5.786   3.481   7.296  0.3350  0.4157 -0.1823
   62SAPC   C12 4846   5.928   3.469   7.240  0.1049  0.1110  0.2312
   62SAPC  H12A 4847   5.972   3.373   7.265 -0.1110  0.0907  0.5458
   62SAPC  H12B 4848   5.988   3.539   7.296 -0.4725 -1.2990  2.7925
   62SAPC   C13 4849   5.811   3.473   7.449 -0.0439  0.4451  0.0297
   62SAPC  H13A 4850   5.857   3.564   7.483 -0.0887  0.5202 -0.1083
   62SAPC  H13B 4851   5.714   3.465   7.496 -0.2668 -3.7978 -0.6894
   62SAPC  H13C 4852   5.863   3.381   7.474 -0.1346  0.3071 -0.2698
   62SAPC   C14 4853   5.735   3.614   7.256  0.1660  0.1909  0.0111
   62SAPC  H14A 4854   5.745   3.611   7.149 -1.3618 -1.9364 -0.1498
   62SAPC  H14B 4855   5.629   3.616   7.278  0.1838 -1.4595  0.3668
   62SAPC  H14C 4856   5.794   3.694   7.298 -1.7129  2.0687 -0.7243
   62SAPC   C15 4857   5.704   3.363   7.260  0.0707 -0.3114  0.4753
   62SAPC  H15A 4858   5.727   3.276   7.319 -0.9854 -2.2379 -1.8139
   62SAPC  H15B 4859   5.602   3.389   7.284 -0.0823  0.6857 -1.0967
   62SAPC  H15C 4860   5.707   3.329   7.158  2.1716 -1.3356  0.8198
   62SAPC   C11 4861   5.947   3.495   7.080 -0.1003 -0.5296  0.2197
   62SAPC  H11A 4862   5.889   3.411   7.036  2.9669 -1.6189 -2.0839
   62SAPC  H11B 4863   6.050   3.465   7.050 -0.2766  0.4869 -1.5290
   62SAPC     P 4864   6.033   3.741   7.059  0.1492 -0.1857  0.0872
   62SAPC   O13 4865   5.965   3.866   7.091  0.6376 -0.1507  1.3358
   62SAPC   O14 4866   6.135   3.682   7.150  0.9511 -0.6764  0.3096
   62SAPC   O12 4867   5.909   3.634   7.037  0.4209 -0.0622  0.4007
   62SAPC   O11 4868   6.098   3.748   6.914  0.6016  0.0514 -0.0690
   62SAPC    C1 4869   6.008   3.794   6.808 -0.4738  0.0044 -0.5746
   62SAPC    HA 4870   6.030   3.735   6.716  0.0673 -0.6634 -0.0281
   62SAPC    HB 4871   5.903   3.769   6.831  0.1879  0.0809  3.1225
   62SAPC    C2 4872   6.025   3.945   6.761  0.2239 -0.0241  0.1343
   62SAPC    HS 4873   5.966   4.009   6.830  0.6020  0.3545  0.1128
   62SAPC   O21 4874   5.973   3.959   6.626  0.0976 -0.1488 -0.9832
   62SAPC   C21 4875   5.942   4.086   6.595 -0.3021 -0.7088 -0.1669
   62SAPC   O22 4876   5.944   4.179   6.676 -0.0023 -0.3240  0.1492
   62SAPC   C22 4877   5.883   4.102   6.450 -0.0092  0.8379  0.7616
   62SAPC   H2R 4878   5.932   4.031   6.379  0.2213  1.5153  0.2292
   62SAPC   H2S 4879   5.777   4.076   6.467  0.3892 -3.3389 -1.7461
   62SAPC    C3 4880   6.175   3.991   6.772  0.5029 -0.3303 -0.0682
   62SAPC    HX 4881   6.194   3.982   6.881  0.8449 -2.5382 -0.2701
   62SAPC    HY 4882   6.172   4.098   6.741  0.9585 -0.5376 -0.8435
   62SAPC   O31 4883   6.274   3.913   6.697 -0.3235  0.9699 -0.1493
   62SAPC   C31 4884   6.360   3.830   6.766  0.6531 -0.1234  0.1725
   62SAPC   O32 4885   6.370   3.825   6.887 -0.7245 -0.1058 -0.0647
   62SAPC   C32 4886   6.441   3.745   6.661  0.5280 -0.5985  0.3435
   62SAPC   H2X 4887   6.463   3.816   6.579 -0.6325  1.5060  1.7506
   62SAPC   H2Y 4888   6.366   3.675   6.619  3.1045 -2.4146 -1.4664
   62SAPC   C23 4889   5.875   4.244   6.393  0.6239  0.3530 -0.2936
   62SAPC   H3R 4890   5.835   4.320   6.463 -1.8097 -0.1161 -1.0471
   62SAPC   H3S 4891   5.800   4.252   6.311  0.1596  1.6379  0.2287
   62SAPC   C24 4892   6.005   4.309   6.336  0.4431 -0.0480 -0.4070
   62SAPC   H4R 4893   6.074   4.315   6.423 -0.4526  0.2415  0.2956
   62SAPC   H4S 4894   6.004   4.415   6.303  0.6714  0.0047 -0.2500
   62SAPC   C25 4895   6.072   4.237   6.225 -0.2339  0.2709  0.1056
   62SAPC   H5R 4896   6.003   4.212   6.142 -0.2671  0.3100  0.1217
   62SAPC   C26 4897   6.204   4.210   6.203  0.2137  0.7458 -0.9924
   62SAPC   H6R 4898   6.243   4.149   6.120 -0.3763  0.9425 -1.4219
   62SAPC   C27 4899   6.309   4.234   6.303  0.0203  0.2681 -0.2314
   62SAPC   H7R 4900   6.265   4.250   6.404 -0.3237 -0.8285 -0.1941
   62SAPC   H7S 4901   6.376   4.313   6.263 -2.1278  1.1200 -2.3892
   62SAPC   C28 4902   6.406   4.111   6.321  0.4530 -1.1270  0.4745
   62SAPC   H8R 4903   6.412   4.036   6.241 -0.1150  0.3713 -1.0331
   62SAPC   C29 4904   6.493   4.099   6.421 -0.4927  0.2547  0.0072
   62SAPC   H9R 4905   6.561   4.014   6.403 -0.2739  0.5515 -0.5928
   62SAPC  C210 4906   6.508   4.177   6.551  0.3918 -0.0073  0.2824
   62SAPC  H10R 4907   6.554   4.115   6.630  0.4649  2.1512  2.0378
   62SAPC  H10S 4908   6.408   4.189   6.597 -0.3216  0.3345 -1.2873
   62SAPC  C211 4909   6.571   4.314   6.527 -0.0007  0.3647  0.1286
   62SAPC  H11R 4910   6.504   4.401   6.528  0.0429  0.5192 -2.6479
   62SAPC  C212 4911   6.703   4.338   6.517 -0.2759  0.2283 -0.5024
   62SAPC  H12R 4912   6.725   4.444   6.496 -2.2462  1.0498  1.1914
   62SAPC  C213 4913   6.817   4.233   6.515  0.6542  0.2417  0.0309
   62SAPC  H13R 4914   6.782   4.142   6.462 -0.2244  2.4401 -3.4901
   62SAPC  H13S 4915   6.850   4.195   6.614  1.4075 -1.2008 -0.7521
   62SAPC  C214 4916   6.943   4.288   6.446 -0.3976  1.1813  0.6412
   62SAPC  H14R 4917   7.009   4.343   6.513  0.0221  0.0070  1.2222
   62SAPC  C215 4918   6.974   4.250   6.320  0.0739 -0.1719 -0.2428
   62SAPC  H15R 4919   7.066   4.285   6.270 -1.0950 -0.7528 -2.9051
   62SAPC  C216 4920   6.903   4.145   6.227 -0.5269 -0.5586  0.3123
   62SAPC  H16R 4921   6.883   4.050   6.279  1.2479 -1.7749 -1.1123
   62SAPC  H16S 4922   6.968   4.118   6.141 -1.1347 -0.6477 -0.1291
   62SAPC  C217 4923   6.771   4.181   6.158 -0.0123 -0.4241  0.0344
   62SAPC  H17R 4924   6.780   4.272   6.095 -0.7073  0.0725  0.6385
   62SAPC  H17S 4925   6.698   4.204   6.238 -0.6341  0.6579 -0.8198
   62SAPC  C218 4926   6.723   4.068   6.067 -0.1332  0.1706 -0.1208
   62SAPC  H18R 4927   6.698   3.981   6.132  0.2431 -0.2824 -0.5792
   62SAPC  H18S 4928   6.807   4.044   5.999  1.2648  1.7175  1.0124
   62SAPC  C219 4929   6.594   4.097   5.990 -0.3646  0.0110  0.0777
   62SAPC  H19R 4930   6.603   4.178   5.915 -1.3232  1.5690  1.5829
   62SAPC  H19S 4931   6.520   4.132   6.065 -0.1816  0.8646 -0.1278
   62SAPC  C220 4932   6.529   3.973   5.926  0.0581 -0.3944  0.7789
   62SAPC  H20R 4933   6.601   3.908   5.872  0.3561 -1.6522  2.5937
   62SAPC  H20S 4934   6.446   3.983   5.852  0.5522 -2.0813 -0.0474
   62SAPC  H20T 4935   6.491   3.905   6.006  0.4286 -1.9386 -0.3010
   62SAPC   C33 4936   6.562   3.670   6.715  0.2323  0.0882  0.1838
   62SAPC   H3X 4937   6.533   3.613   6.806  0.4895  0.4035  0.4646
   62SAPC   H3Y 4938   6.641   3.744   6.740  2.4514 -1.2339 -2.4188
   62SAPC   C34 4939   6.613   3.571   6.610 -0.0150 -0.7710 -0.2083
   62SAPC   H4X 4940   6.530   3.505   6.578  1.6211 -2.3701 -1.3875
   62SAPC   H4Y 4941   6.693   3.505   6.651  2.3869 -0.1263 -3.4166
   62SAPC   C35 4942   6.665   3.642   6.482  0.3159 -0.0715 -0.2752
   62SAPC   H5X 4943   6.743   3.719   6.503 -1.6047  1.6927  0.7680
   62SAPC   H5Y 4944   6.585   3.704   6.436  0.9812  1.0094 -0.0098
   62SAPC   C36 4945   6.722   3.545   6.378 -0.7742  0.3109 -0.1239
   62SAPC   H6X 4946   6.635   3.484   6.344 -0.4033  0.5262 -1.5301
   62SAPC   H6Y 4947   6.796   3.483   6.434 -0.9624  1.5988  1.6445
   62SAPC   C37 4948   6.792   3.606   6.260 -0.6246  0.5015 -0.3799
   62SAPC   H7X 4949   6.879   3.665   6.298 -0.1437 -0.0469 -0.5988
   62SAPC   H7Y 4950   6.724   3.678   6.210  0.3057  2.4429  1.0006
   62SAPC   C38 4951   6.834   3.502   6.153 -0.3620 -0.8051 -0.0371
   62SAPC   H8X 4952   6.741   3.446   6.131  0.4951 -1.0802 -3.6355
   62SAPC   H8Y 4953   6.899   3.423   6.198  1.9532 -2.3273 -5.2752
   62SAPC   C39 4954   6.898   3.567   6.033 -0.9037 -0.4890 -0.0456
   62SAPC   H9X 4955   6.991   3.621   6.060 -0.3342 -2.5173  2.4829
   62SAPC   H9Y 4956   6.819   3.632   5.990  0.3421  1.1052 -0.0278
   62SAPC  C310 4957   6.940   3.462   5.925  0.7577  0.4049 -0.2871
   62SAPC  H10X 4958   6.861   3.386   5.907 -0.2621  0.9207  1.7967
   62SAPC  H10Y 4959   7.021   3.414   5.983 -1.4467 -0.8815  1.8959
   62SAPC  C311 4960   6.989   3.519   5.782 -0.6792  0.6265 -0.3034
   62SAPC  H11X 4961   6.944   3.613   5.745  0.4464  0.9784 -0.8334
   62SAPC  H11Y 4962   6.975   3.437   5.708 -1.9425  2.2589 -1.9725
   62SAPC  C312 4963   7.143   3.538   5.793  0.0997 -0.3375  0.6860
   62SAPC  H12X 4964   7.180   3.454   5.856 -2.1173  0.0611  2.6628
   62SAPC  H12Y 4965   7.156   3.632   5.851 -2.4611 -0.2748  1.2628
   62SAPC  C313 4966   7.204   3.548   5.654 -0.0709 -0.6691 -0.2454
   62SAPC  H13X 4967   7.200   3.449   5.604 -1.0258 -1.9181  2.1061
   62SAPC  H13Y 4968   7.305   3.591   5.670 -0.2648  0.2986 -1.4758
   62SAPC  C314 4969   7.131   3.646   5.560  0.6335 -0.3277  0.0165
   62SAPC  H14X 4970   7.107   3.737   5.618 -2.3415 -1.8406  1.3805
   62SAPC  H14Y 4971   7.026   3.613   5.542  0.1468  0.3914  1.4161
   62SAPC  C315 4972   7.213   3.666   5.430  0.0822  0.8283 -0.5681
   62SAPC  H15X 4973   7.241   3.562   5.401 -0.5946 -0.1468  2.0243
   62SAPC  H15Y 4974   7.304   3.722   5.459  0.3197 -0.9636  2.6661
   62SAPC  C316 4975   7.131   3.736   5.320  0.0231  0.6963  0.5560
   62SAPC  H16X 4976   7.196   3.815   5.278 -0.3514  0.0595 -1.2935
   62SAPC  H16Y 4977   7.039   3.780   5.366  0.2302 -0.3192  2.0187
   62SAPC  C317 4978   7.085   3.652   5.204  0.3011 -0.8196 -0.3933
   62SAPC  H17X 4979   7.029   3.558   5.225 -0.1573 -0.4988 -0.1593
   62SAPC  H17Y 4980   7.173   3.621   5.143  0.2715 -1.3300 -0.1851
   62SAPC  C318 4981   6.989   3.739   5.116  0.8853 -0.2865 -0.0609
   62SAPC  H18X 4982   6.954   3.693   5.021  2.0064 -1.5422  0.1076
   62SAPC  H18Y 4983   7.030   3.840   5.099  0.4915  0.0180  0.7421
   62SAPC  H18Z 4984   6.890   3.750   5.166  0.4570  0.0255 -0.9585
   63SAPC     N 4985   1.133   0.685   7.709 -0.6907  0.0612  0.8676
   63SAPC   C12 4986   1.215   0.784   7.632  0.2511  0.5806  0.7545
   63SAPC  H12A 4987   1.318   0.765   7.655  0.2352 -3.0154 -1.4377
   63SAPC  H12B 4988   1.184   0.882   7.666  2.4157  1.5673  0.0195
   63SAPC   C13 4989   1.185   0.548   7.665 -0.6326  0.4140 -0.1564
   63SAPC  H13A 4990   1.146   0.521   7.568  3.7249 -2.4687 -1.4136
   63SAPC  H13B 4991   1.292   0.543   7.656 -0.7300  0.2356 -1.4037
   63SAPC  H13C 4992   1.157   0.463   7.725  1.0336 -1.1181 -1.4418
   63SAPC   C14 4993   1.145   0.700   7.855 -0.9780  1.0352  0.0439
   63SAPC  H14A 4994   1.094   0.786   7.896 -2.5458  1.3917 -2.4600
   63SAPC  H14B 4995   1.096   0.616   7.901  0.9461 -0.4106 -0.4354
   63SAPC  H14C 4996   1.249   0.705   7.884 -0.5848  1.0802 -1.2967
   63SAPC   C15 4997   0.986   0.700   7.668 -0.2837 -0.3091 -0.9945
   63SAPC  H15A 4998   0.929   0.616   7.705  1.2961  0.1216  2.9547
   63SAPC  H15B 4999   0.946   0.793   7.708  0.3807  0.2816 -1.6648
   63SAPC  H15C 5000   0.982   0.706   7.560  2.3980  1.4252 -1.0990
   63SAPC   C11 5001   1.196   0.789   7.475  0.3222 -0.0855  0.2605
   63SAPC  H11A 5002   1.181   0.688   7.433 -0.5584 -0.5861  1.6787
   63SAPC  H11B 5003   1.293   0.836   7.451 -0.4878  2.1348  1.0491
   63SAPC     P 5004   1.059   0.905   7.290 -0.0869 -0.4946 -0.4341
   63SAPC   O13 5005   1.073   1.047   7.251 -0.2881 -0.4267 -0.1908
   63SAPC   O14 5006   1.140   0.816   7.209 -0.2904 -0.1412  0.3211
   63SAPC   O12 5007   1.093   0.881   7.440  0.0550  0.4271  0.4971
   63SAPC   O11 5008   0.912   0.851   7.294  0.0912  0.2253 -0.3348
   63SAPC    C1 5009   0.805   0.932   7.343 -0.4251 -0.1522  0.5043
   63SAPC    HA 5010   0.799   0.920   7.454 -3.0623 -2.9714  0.1974
   63SAPC    HB 5011   0.795   1.038   7.313 -2.6348 -0.6399 -0.6549
   63SAPC    C2 5012   0.674   0.872   7.295  0.1279  1.0829  0.4925
   63SAPC    HS 5013   0.677   0.767   7.332  0.3439  0.4746 -1.1709
   63SAPC   O21 5014   0.686   0.864   7.148 -0.6998 -0.3309 -0.2425
   63SAPC   C21 5015   0.613   0.777   7.085  0.1416  0.3219  0.0364
   63SAPC   O22 5016   0.539   0.697   7.141 -0.7054 -0.4207  0.4928
   63SAPC   C22 5017   0.612   0.796   6.932  0.2145 -0.1395  0.4599
   63SAPC   H2R 5018   0.530   0.869   6.915 -1.7155 -1.9966  1.3893
   63SAPC   H2S 5019   0.718   0.822   6.910  1.1470 -1.8096  2.6409
   63SAPC    C3 5020   0.542   0.939   7.354  1.0713 -0.6737  1.3576
   63SAPC    HX 5021   0.567   0.934   7.462 -0.3528  2.9873  1.9842
   63SAPC    HY 5022   0.455   0.873   7.334  0.1224  0.4150  1.8152
   63SAPC   O31 5023   0.524   1.073   7.313  0.2744 -0.4322 -0.3196
   63SAPC   C31 5024   0.487   1.104   7.188  0.4150  0.2059  0.7108
   63SAPC   O32 5025   0.445   1.019   7.108 -0.1008  0.1882  0.8027
   63SAPC   C32 5026   0.512   1.245   7.147 -0.7036  0.8979  0.2541
   63SAPC   H2X 5027   0.601   1.285   7.200  0.8021 -0.4711 -1.1253
   63SAPC   H2Y 5028   0.428   1.310   7.179 -0.0139  2.2628 -0.6441
   63SAPC   C23 5029   0.550   0.677   6.856 -0.6441  0.4759  0.5768
   63SAPC   H3R 5030   0.471   0.631   6.919  0.3185 -1.4451  0.4605
   63SAPC   H3S 5031   0.632   0.603   6.847  0.5595  1.6374  1.4928
   63SAPC   C24 5032   0.502   0.705   6.710 -0.1460 -0.0325 -0.2773
   63SAPC   H4R 5033   0.488   0.606   6.662 -0.0294 -0.4259  0.4852
   63SAPC   H4S 5034   0.582   0.758   6.653 -2.6644  2.7185 -1.5262
   63SAPC   C25 5035   0.380   0.791   6.717 -0.1634  0.0850  0.0249
   63SAPC   H5R 5036   0.369   0.838   6.815  2.7656  0.7156  0.1240
   63SAPC   C26 5037   0.303   0.828   6.615 -0.0640  0.0268 -0.1634
   63SAPC   H6R 5038   0.215   0.890   6.636  1.7282  2.2912  1.1171
   63SAPC   C27 5039   0.310   0.761   6.476 -0.3544  0.2092  0.5002
   63SAPC   H7R 5040   0.407   0.708   6.468  0.2726  1.2390  1.0596
   63SAPC   H7S 5041   0.311   0.847   6.406  1.9918 -0.5062 -0.4234
   63SAPC   C28 5042   0.187   0.678   6.438 -0.1006 -0.3164 -0.7441
   63SAPC   H8R 5043   0.127   0.652   6.526 -0.0116  1.6636 -0.0454
   63SAPC   C29 5044   0.158   0.628   6.314  0.2493  0.2177 -0.9446
   63SAPC   H9R 5045   0.065   0.571   6.308  0.0955  0.0188  1.8495
   63SAPC  C210 5046   0.239   0.640   6.191  0.1394  0.2789 -0.2502
   63SAPC  H10R 5047   0.214   0.553   6.126  0.3572  1.1148 -1.4801
   63SAPC  H10S 5048   0.348   0.627   6.211  0.0835  0.5537  0.2574
   63SAPC  C211 5049   0.218   0.768   6.111  0.2086 -0.3473 -0.4404
   63SAPC  H11R 5050   0.178   0.849   6.174  1.0530  1.2838 -1.9067
   63SAPC  C212 5051   0.247   0.799   5.977 -0.3558  0.7646  0.0893
   63SAPC  H12R 5052   0.218   0.898   5.940 -2.3469  0.6352  1.1524
   63SAPC  C213 5053   0.302   0.709   5.867 -0.1255  0.5042  0.7713
   63SAPC  H13R 5054   0.210   0.684   5.810 -1.0340  0.8962  2.0403
   63SAPC  H13S 5055   0.352   0.616   5.900  0.0523 -0.7636 -2.6023
   63SAPC  C214 5056   0.395   0.789   5.779  0.4232 -0.3374 -0.6922
   63SAPC  H14R 5057   0.496   0.805   5.819 -0.3709  0.7833  0.9533
   63SAPC  C215 5058   0.367   0.842   5.661  0.2601 -0.3485  0.6638
   63SAPC  H15R 5059   0.446   0.897   5.607 -2.2084  1.5658 -1.2675
   63SAPC  C216 5060   0.228   0.855   5.604  0.0398 -0.1694 -0.5137
   63SAPC  H16R 5061   0.156   0.887   5.682  1.1491 -0.4943  0.6705
   63SAPC  H16S 5062   0.197   0.760   5.555 -0.8083 -0.8670  1.2951
   63SAPC  C217 5063   0.228   0.949   5.484 -0.2861 -0.1695  0.2348
   63SAPC  H17R 5064   0.311   0.916   5.418 -0.2755 -0.9789  0.6417
   63SAPC  H17S 5065   0.253   1.053   5.514 -1.7066 -0.0889  1.2245
   63SAPC  C218 5066   0.092   0.942   5.408 -0.0906 -0.6562  0.3530
   63SAPC  H18R 5067   0.012   0.961   5.483 -1.4217  1.6632 -1.5270
   63SAPC  H18S 5068   0.081   0.836   5.379  1.7663 -1.2530  1.6418
   63SAPC  C219 5069   0.090   1.038   5.288 -0.0675  0.1290  0.7094
   63SAPC  H19R 5070   0.177   1.029   5.220 -0.1447  1.3680  0.4160
   63SAPC  H19S 5071   0.087   1.141   5.329  0.2347  0.7029 -0.6653
   63SAPC  C220 5072  -0.038   1.043   5.202 -0.1515  0.3800 -0.6412
   63SAPC  H20R 5073  -0.059   0.954   5.140 -0.4115 -1.0417  1.4045
   63SAPC  H20S 5074  -0.037   1.131   5.134 -0.5992  2.2317  1.6291
   63SAPC  H20T 5075  -0.118   1.062   5.276  2.3987  0.6841  2.2497
   63SAPC   C33 5076   0.527   1.259   6.991 -0.0212  0.1896 -0.1374
   63SAPC   H3X 5077   0.548   1.365   6.966 -1.9174  1.0802  1.6597
   63SAPC   H3Y 5078   0.440   1.218   6.935 -0.1453  0.8788 -0.4520
   63SAPC   C34 5079   0.648   1.181   6.942  0.0480 -0.7047  0.3446
   63SAPC   H4X 5080   0.646   1.078   6.984  1.9065 -0.5580  0.8915
   63SAPC   H4Y 5081   0.738   1.230   6.985  0.0863 -0.7885  0.3604
   63SAPC   C35 5082   0.662   1.180   6.791  0.4198 -0.2192  0.0387
   63SAPC   H5X 5083   0.686   1.284   6.761  0.9320 -0.4860 -0.5168
   63SAPC   H5Y 5084   0.570   1.157   6.734 -0.1560  1.2013  0.3686
   63SAPC   C36 5085   0.785   1.098   6.751 -0.4654  0.0974  0.8506
   63SAPC   H6X 5086   0.785   1.007   6.815  0.2915  0.0986  0.8607
   63SAPC   H6Y 5087   0.881   1.150   6.771  1.6548 -2.5503 -1.6195
   63SAPC   C37 5088   0.791   1.060   6.601  0.0718 -0.4663  0.5152
   63SAPC   H7X 5089   0.806   1.157   6.551 -1.7115 -0.4282  0.0006
   63SAPC   H7Y 5090   0.698   1.014   6.562  0.1131 -0.8321  0.8367
   63SAPC   C38 5091   0.914   0.976   6.564  0.3337  0.6588  0.7383
   63SAPC   H8X 5092   0.908   0.875   6.610 -3.7848  0.1591 -0.4920
   63SAPC   H8Y 5093   0.995   1.036   6.611  0.7476  2.0053 -1.5376
   63SAPC   C39 5094   0.960   0.976   6.421 -0.3924  0.6263  0.2612
   63SAPC   H9X 5095   0.887   0.916   6.364  0.1820 -0.2418  0.4234
   63SAPC   H9Y 5096   1.048   0.909   6.432 -0.6930  0.3730  1.2338
   63SAPC  C310 5097   0.999   1.113   6.359  0.0001 -0.6035 -0.0370
   63SAPC  H10X 5098   1.080   1.155   6.423  1.8645 -0.6109 -2.2393
   63SAPC  H10Y 5099   0.908   1.175   6.365  0.4319  0.1218 -0.7990
   63SAPC  C311 5100   1.025   1.112   6.208 -0.1325  0.9749  0.1071
   63SAPC  H11X 5101   1.028   1.213   6.162 -1.8682 -0.3511 -3.3339
   63SAPC  H11Y 5102   0.942   1.064   6.151  2.2384  0.2817 -3.0985
   63SAPC  C312 5103   1.156   1.037   6.173  0.9239  0.0262 -0.6975
   63SAPC  H12X 5104   1.162   0.952   6.245 -0.6852  0.0647 -0.4737
   63SAPC  H12Y 5105   1.237   1.108   6.202 -1.1184  1.4531  1.9610
   63SAPC  C313 5106   1.182   0.990   6.026  0.4469  0.1847  0.0604
   63SAPC  H13X 5107   1.221   1.069   5.957 -0.1767 -1.1761 -1.9228
   63SAPC  H13Y 5108   1.088   0.952   5.982  1.4916 -3.2743  0.5601
   63SAPC  C314 5109   1.299   0.893   6.021 -0.2222  0.0913 -0.2452
   63SAPC  H14X 5110   1.290   0.826   6.110 -2.1172 -0.4156 -0.7756
   63SAPC  H14Y 5111   1.394   0.948   6.036  0.2952 -0.9516  0.4068
   63SAPC  C315 5112   1.294   0.815   5.889  0.2292 -0.3286 -0.0446
   63SAPC  H15X 5113   1.195   0.817   5.839  0.1172 -0.1525  0.1840
   63SAPC  H15Y 5114   1.337   0.713   5.900  0.9083 -0.1113 -0.6011
   63SAPC  C316 5115   1.391   0.886   5.787  0.0865  0.0700  0.5143
   63SAPC  H16X 5116   1.494   0.870   5.825 -1.1279 -1.8112  3.4404
   63SAPC  H16Y 5117   1.363   0.993   5.786 -0.6085 -0.1110  0.0250
   63SAPC  C317 5118   1.384   0.824   5.649 -0.4769  0.1375  0.2741
   63SAPC  H17X 5119   1.283   0.832   5.604  0.3101 -1.6840 -2.0667
   63SAPC  H17Y 5120   1.414   0.717   5.647  2.7599  0.9041  1.0520
   63SAPC  C318 5121   1.484   0.891   5.551 -0.1952 -0.4555 -0.1895
   63SAPC  H18X 5122   1.592   0.869   5.570  0.3637  1.8660 -0.4129
   63SAPC  H18Y 5123   1.475   1.001   5.559  0.2514 -0.4719  0.7242
   63SAPC  H18Z 5124   1.459   0.844   5.454 -0.9362  2.0281 -1.2769
   64SAPC     N 5125   0.295   3.296   7.662  0.7674 -0.8857  0.1051
   64SAPC   C12 5126   0.180   3.390   7.605 -0.7370 -0.7568 -0.0778
   64SAPC  H12A 5127   0.186   3.495   7.631 -2.0546 -0.8192  0.5632
   64SAPC  H12B 5128   0.090   3.343   7.644 -1.1734  0.3290  0.2559
   64SAPC   C13 5129   0.329   3.327   7.805  0.0097  0.2195 -0.0709
   64SAPC  H13A 5130   0.424   3.277   7.821  2.2781  3.6296 -1.7744
   64SAPC  H13B 5131   0.345   3.433   7.811  0.8985  0.3583 -3.2828
   64SAPC  H13C 5132   0.246   3.290   7.864 -0.8375 -1.9740 -2.4284
   64SAPC   C14 5133   0.264   3.154   7.635  0.7244  0.5700 -0.0187
   64SAPC  H14A 5134   0.264   3.132   7.529  0.6224  1.7562 -0.2762
   64SAPC  H14B 5135   0.337   3.085   7.674 -0.0029 -0.9176 -1.1745
   64SAPC  H14C 5136   0.166   3.132   7.674  0.3997  0.5502 -0.8153
   64SAPC   C15 5137   0.416   3.348   7.577 -0.2855  0.3258  0.0304
   64SAPC  H15A 5138   0.414   3.338   7.470 -0.1916  0.9635 -0.0316
   64SAPC  H15B 5139   0.456   3.443   7.608 -0.2636  0.5044 -0.5402
   64SAPC  H15C 5140   0.501   3.285   7.601  1.2981  1.0478 -3.1863
   64SAPC   C11 5141   0.158   3.382   7.452 -0.0265 -0.3541 -0.4010
   64SAPC  H11A 5142   0.247   3.418   7.397  0.4344  0.7820  1.0080
   64SAPC  H11B 5143   0.079   3.458   7.433 -0.2636  0.2962  2.6439
   64SAPC     P 5144  -0.027   3.210   7.374  0.0286 -0.3781 -0.2730
   64SAPC   O13 5145  -0.029   3.065   7.364 -0.2426 -0.2012 -0.0936
   64SAPC   O14 5146  -0.126   3.262   7.475  0.3331  0.0415  0.3764
   64SAPC   O12 5147   0.114   3.257   7.413 -0.3667 -0.0499  0.3118
   64SAPC   O11 5148  -0.055   3.269   7.238 -0.1502  0.0803  0.2333
   64SAPC    C1 5149  -0.129   3.209   7.131 -0.0203  0.0456 -1.0170
   64SAPC    HA 5150  -0.178   3.115   7.164  0.1250  0.0156 -0.8879
   64SAPC    HB 5151  -0.208   3.274   7.086 -1.9163 -3.2555 -2.9088
   64SAPC    C2 5152  -0.044   3.170   7.017 -0.4076 -0.1595  0.4348
   64SAPC    HS 5153   0.027   3.088   7.042  0.5047  0.3294 -0.5066
   64SAPC   O21 5154   0.036   3.283   6.982 -0.1660 -0.1736 -0.1933
   64SAPC   C21 5155   0.158   3.260   6.948  0.5921 -0.0500 -0.0150
   64SAPC   O22 5156   0.209   3.152   6.935  0.1461 -0.3427  0.0782
   64SAPC   C22 5157   0.229   3.392   6.920 -0.5089  0.0182 -0.5894
   64SAPC   H2R 5158   0.164   3.479   6.943 -0.8114 -0.3158 -0.1507
   64SAPC   H2S 5159   0.306   3.397   7.000 -1.1333  2.2632 -0.0603
   64SAPC    C3 5160  -0.124   3.119   6.895 -0.0395  0.1969  0.9855
   64SAPC    HX 5161  -0.175   3.213   6.863  1.8420  0.6166 -1.0317
   64SAPC    HY 5162  -0.207   3.054   6.930 -0.3963  0.5303  0.7674
   64SAPC   O31 5163  -0.043   3.064   6.792  0.3813 -0.3560  0.0867
   64SAPC   C31 5164  -0.012   2.938   6.792 -0.1868 -0.2133  0.1290
   64SAPC   O32 5165  -0.039   2.864   6.889  0.7041 -0.0054 -0.1995
   64SAPC   C32 5166   0.076   2.896   6.675  0.0024 -0.5862  0.5120
   64SAPC   H2X 5167   0.163   2.961   6.653  0.3784 -1.2189  0.0744
   64SAPC   H2Y 5168   0.013   2.911   6.585  0.2356  3.3081  0.8419
   64SAPC   C23 5169   0.277   3.393   6.774  0.1576  0.0746 -0.1319
   64SAPC   H3R 5170   0.358   3.317   6.765 -0.6903 -1.2782  2.4963
   64SAPC   H3S 5171   0.322   3.495   6.768 -2.4917  1.3787  0.6975
   64SAPC   C24 5172   0.160   3.376   6.669 -0.3621 -0.1622  0.1291
   64SAPC   H4R 5173   0.076   3.445   6.696  1.1770  0.9462  2.4644
   64SAPC   H4S 5174   0.121   3.273   6.684 -1.6163  0.1154 -1.0226
   64SAPC   C25 5175   0.187   3.396   6.525  0.4724 -0.1418  0.3264
   64SAPC   H5R 5176   0.269   3.465   6.499  0.3953  0.3784  1.4211
   64SAPC   C26 5177   0.114   3.346   6.423  0.0999  0.5244  0.2016
   64SAPC   H6R 5178   0.152   3.382   6.327  1.4192 -0.5069  0.3058
   64SAPC   C27 5179   0.000   3.247   6.431 -0.2216  0.3934  0.1209
   64SAPC   H7R 5180  -0.087   3.300   6.388 -0.9714 -1.0560 -0.2056
   64SAPC   H7S 5181  -0.025   3.231   6.538  1.5172  1.4834  0.7343
   64SAPC   C28 5182   0.035   3.116   6.362  0.5337  0.2026  0.1907
   64SAPC   H8R 5183   0.026   3.027   6.426 -1.1438 -0.1398 -0.4736
   64SAPC   C29 5184   0.067   3.092   6.230 -0.1012 -0.3440 -0.0826
   64SAPC   H9R 5185   0.088   2.990   6.194  0.2185 -0.3226  0.0406
   64SAPC  C210 5186   0.072   3.195   6.115 -0.3635 -0.2926  0.1659
   64SAPC  H10R 5187   0.053   3.300   6.145 -1.0180 -0.3184 -0.1513
   64SAPC  H10S 5188  -0.006   3.169   6.041 -0.2043 -0.4415  0.0485
   64SAPC  C211 5189   0.215   3.193   6.050  0.5302  0.2303 -0.3258
   64SAPC  H11R 5190   0.300   3.200   6.120  0.2107 -0.7541  0.1678
   64SAPC  C212 5191   0.254   3.176   5.925  0.1540  0.0321 -0.6044
   64SAPC  H12R 5192   0.363   3.181   5.913  0.1502  1.6747 -0.2348
   64SAPC  C213 5193   0.177   3.150   5.801 -0.2530 -0.3739 -0.7832
   64SAPC  H13R 5194   0.241   3.185   5.717 -1.5905 -0.6966 -1.9741
   64SAPC  H13S 5195   0.087   3.215   5.799  1.0012  1.4201 -1.6536
   64SAPC  C214 5196   0.137   3.007   5.783 -0.0674 -0.0972 -0.3808
   64SAPC  H14R 5197   0.125   2.957   5.879  0.1865  0.2660 -0.1563
   64SAPC  C215 5198   0.114   2.942   5.667  0.0950 -0.2931 -0.0125
   64SAPC  H15R 5199   0.084   2.836   5.664 -1.3240 -0.0332  2.5912
   64SAPC  C216 5200   0.140   3.002   5.525  0.0545 -0.0406  0.1924
   64SAPC  H16R 5201   0.241   2.982   5.485 -0.6556  0.6768 -2.1040
   64SAPC  H16S 5202   0.123   3.111   5.532  0.9076  0.1163 -0.0607
   64SAPC  C217 5203   0.041   2.947   5.422 -0.1935 -0.4859 -0.0770
   64SAPC  H17R 5204   0.037   3.021   5.339 -2.2550 -0.2782  0.1615
   64SAPC  H17S 5205  -0.063   2.936   5.458 -0.5454 -0.1425 -0.9689
   64SAPC  C218 5206   0.078   2.811   5.373 -0.1363 -0.3904 -0.3077
   64SAPC  H18R 5207   0.077   2.743   5.460  0.2559  0.2541  0.2150
   64SAPC  H18S 5208   0.179   2.801   5.327  1.1515 -1.9728  2.5863
   64SAPC  C219 5209  -0.021   2.761   5.265 -0.3366 -0.5114  0.4398
   64SAPC  H19R 5210  -0.121   2.803   5.290 -1.7148 -2.3519 -1.6322
   64SAPC  H19S 5211  -0.012   2.650   5.258  0.8231 -0.4134  0.1469
   64SAPC  C220 5212   0.040   2.810   5.133  0.1652 -0.6753 -0.7745
   64SAPC  H20R 5213   0.048   2.921   5.138  2.4349 -0.8499  0.5533
   64SAPC  H20S 5214  -0.029   2.784   5.049 -0.5289  1.3467 -0.8826
   64SAPC  H20T 5215   0.137   2.765   5.105 -0.2310 -0.9195 -1.8195
   64SAPC   C33 5216   0.127   2.752   6.687  0.0895 -0.1082 -0.2479
   64SAPC   H3X 5217   0.050   2.682   6.724  0.4225  0.6216  1.9622
   64SAPC   H3Y 5218   0.214   2.735   6.755  0.3117  0.5034 -0.3676
   64SAPC   C34 5219   0.174   2.704   6.546 -0.8619 -0.7346 -0.9513
   64SAPC   H4X 5220   0.252   2.775   6.513 -1.8783 -0.5116 -2.9970
   64SAPC   H4Y 5221   0.109   2.712   6.457 -0.4227 -2.1602 -1.4230
   64SAPC   C35 5222   0.212   2.554   6.556 -0.8993  0.1446 -0.0375
   64SAPC   H5X 5223   0.125   2.502   6.603 -0.2280 -0.5962  0.4083
   64SAPC   H5Y 5224   0.281   2.557   6.644 -1.0761  2.3375  0.0776
   64SAPC   C36 5225   0.277   2.508   6.422 -0.1853 -0.1047 -0.2335
   64SAPC   H6X 5226   0.387   2.524   6.412 -0.6230  2.0735 -2.3866
   64SAPC   H6Y 5227   0.228   2.544   6.329 -1.8404 -0.6576  0.4025
   64SAPC   C37 5228   0.247   2.352   6.421 -0.0313 -0.6050 -0.4501
   64SAPC   H7X 5229   0.143   2.346   6.458  0.4511  0.5809  1.1902
   64SAPC   H7Y 5230   0.312   2.294   6.491  0.6191  0.6662  0.0276
   64SAPC   C38 5231   0.255   2.289   6.279  0.0636 -0.4031 -0.3581
   64SAPC   H8X 5232   0.364   2.285   6.258  0.2343 -1.9729  0.7007
   64SAPC   H8Y 5233   0.186   2.342   6.210 -0.4807  0.5326  0.8652
   64SAPC   C39 5234   0.207   2.141   6.271  0.0245  0.0667  0.1912
   64SAPC   H9X 5235   0.115   2.112   6.327  0.7776  1.8320  2.4809
   64SAPC   H9Y 5236   0.275   2.071   6.324 -0.8203  0.0878  1.3563
   64SAPC  C310 5237   0.195   2.091   6.121 -0.8963 -0.0927  0.5409
   64SAPC  H10X 5238   0.211   1.981   6.121 -1.0105 -0.1804 -2.6394
   64SAPC  H10Y 5239   0.282   2.134   6.067 -1.1813 -1.8382 -1.4243
   64SAPC  C311 5240   0.064   2.126   6.045 -0.1681 -0.0493 -0.0010
   64SAPC  H11X 5241   0.047   2.236   6.042  0.9403  0.1175 -2.6078
   64SAPC  H11Y 5242  -0.020   2.074   6.096  0.1893 -1.7258 -1.0611
   64SAPC  C312 5243   0.069   2.088   5.894  0.1551  0.1403  0.6216
   64SAPC  H12X 5244   0.072   1.977   5.888 -2.2562  0.0991 -1.5699
   64SAPC  H12Y 5245   0.168   2.125   5.860  0.5367 -1.7316 -0.4727
   64SAPC  C313 5246  -0.039   2.141   5.805  0.4246  0.0239 -0.2443
   64SAPC  H13X 5247  -0.010   2.247   5.791  1.9675 -0.3670 -0.1676
   64SAPC  H13Y 5248  -0.134   2.136   5.862  0.7954  0.6724  0.4509
   64SAPC  C314 5249  -0.061   2.073   5.672 -0.4594 -0.0798 -0.3661
   64SAPC  H14X 5250  -0.150   2.116   5.621 -1.7713 -2.2112  0.0166
   64SAPC  H14Y 5251  -0.080   1.965   5.687  0.7387 -0.3490 -0.7274
   64SAPC  C315 5252   0.046   2.101   5.572 -0.3325  0.2632  0.4312
   64SAPC  H15X 5253   0.145   2.073   5.615  0.6292  1.1822 -1.0948
   64SAPC  H15Y 5254   0.061   2.210   5.555  3.0393 -0.0147  0.7876
   64SAPC  C316 5255   0.033   2.011   5.446  0.1041 -0.0139  0.4408
   64SAPC  H16X 5256  -0.041   2.057   5.378 -1.0083 -2.7440 -0.3417
   64SAPC  H16Y 5257  -0.005   1.910   5.473 -2.2183  0.5355 -0.5343
   64SAPC  C317 5258   0.174   1.999   5.373 -0.2572 -0.4215  0.0916
   64SAPC  H17X 5259   0.237   1.939   5.443 -1.8698  0.3950  2.3731
   64SAPC  H17Y 5260   0.219   2.100   5.365  1.1016 -0.9168  1.0139
   64SAPC  C318 5261   0.177   1.935   5.229 -0.0019 -0.0299 -0.3382
   64SAPC  H18X 5262   0.112   1.845   5.230 -1.8864  1.2586 -1.2294
   64SAPC  H18Y 5263   0.279   1.900   5.203  0.8764  0.3602  2.2610
   64SAPC  H18Z 5264   0.137   1.990   5.141 -1.1191 -1.4413 -0.7611
   65SAPC     N 5265   5.531   2.091   2.954 -0.3266 -0.0306  0.0457
   65SAPC   C12 5266   5.379   2.085   2.992 -0.2509 -0.3047  0.8497
   65SAPC  H12A 5267   5.343   2.066   2.892  2.2836 -3.1488  0.3012
   65SAPC  H12B 5268   5.357   2.186   3.023 -0.7842 -0.5076  1.1468
   65SAPC   C13 5269   5.540   2.187   2.836 -0.1710  0.1201 -0.2816
   65SAPC  H13A 5270   5.641   2.185   2.800 -0.1350  0.6851 -0.2300
   65SAPC  H13B 5271   5.490   2.160   2.744 -0.7669 -2.7579  0.7886
   65SAPC  H13C 5272   5.521   2.288   2.869  1.9081  0.6290 -0.5376
   65SAPC   C14 5273   5.616   2.150   3.060 -0.1430  0.2681 -1.3502
   65SAPC  H14A 5274   5.562   2.236   3.098  0.4439  0.1148 -0.1149
   65SAPC  H14B 5275   5.617   2.086   3.147 -3.1865  2.9967  1.0103
   65SAPC  H14C 5276   5.714   2.182   3.028 -0.4808  1.8000 -0.9480
   65SAPC   C15 5277   5.580   1.963   2.909 -0.7910 -0.3202  0.5167
   65SAPC  H15A 5278   5.576   1.887   2.986  1.0658 -0.6824  0.2941
   65SAPC  H15B 5279   5.524   1.923   2.825  0.2747  1.4408 -1.1009
   65SAPC  H15C 5280   5.685   1.969   2.887 -0.3703 -0.6065  2.3390
   65SAPC   C11 5281   5.324   1.984   3.087  0.4099 -0.3888  0.3550
   65SAPC  H11A 5282   5.215   1.991   3.110  0.3341 -0.1459 -0.0747
   65SAPC  H11B 5283   5.377   2.007   3.182  1.0032  1.2330 -0.3437
   65SAPC     P 5284   5.277   1.761   2.961  0.0663  0.0814 -0.0586
   65SAPC   O13 5285   5.220   1.842   2.850 -0.3049 -0.0639  0.6153
   65SAPC   O14 5286   5.346   1.635   2.929  0.1895 -0.2018 -0.1276
   65SAPC   O12 5287   5.361   1.852   3.057  0.6083 -0.4699  0.5779
   65SAPC   O11 5288   5.156   1.730   3.053  0.1589  0.2257 -0.3230
   65SAPC    C1 5289   5.164   1.654   3.169  0.4677  0.3204 -0.7702
   65SAPC    HA 5290   5.094   1.568   3.162  1.1008 -0.2063 -0.8525
   65SAPC    HB 5291   5.266   1.614   3.191  1.5528  2.8804 -0.8590
   65SAPC    C2 5292   5.136   1.742   3.299  0.3721 -0.2715 -0.0333
   65SAPC    HS 5293   5.212   1.821   3.315 -0.2285  0.1104  1.0987
   65SAPC   O21 5294   5.122   1.653   3.408  0.1209 -0.7323 -0.8676
   65SAPC   C21 5295   5.237   1.599   3.452  0.1853 -0.3677 -0.0546
   65SAPC   O22 5296   5.346   1.633   3.410 -0.2285  0.0160  0.1388
   65SAPC   C22 5297   5.218   1.508   3.564  0.6486  0.3802 -0.7398
   65SAPC   H2R 5298   5.161   1.419   3.531  0.3241 -0.5194  2.0303
   65SAPC   H2S 5299   5.318   1.464   3.581 -0.1880 -1.0429  0.7707
   65SAPC    C3 5300   5.002   1.836   3.280 -0.1932  0.3758  0.0047
   65SAPC    HX 5301   4.928   1.768   3.232  2.1685 -2.2998 -0.1522
   65SAPC    HY 5302   5.017   1.911   3.200 -2.2853  0.4384 -0.3700
   65SAPC   O31 5303   4.948   1.887   3.402 -0.2904 -0.4302  0.5208
   65SAPC   C31 5304   5.018   1.988   3.447 -0.1601  0.0669  0.6318
   65SAPC   O32 5305   5.111   2.042   3.395 -0.0493 -0.2988 -0.7045
   65SAPC   C32 5306   4.988   1.997   3.598 -0.3791 -0.6349 -0.1972
   65SAPC   H2X 5307   5.068   1.938   3.648 -0.3124  0.7363  1.3820
   65SAPC   H2Y 5308   4.891   1.944   3.613  0.9908 -3.5698 -0.9321
   65SAPC   C23 5309   5.158   1.575   3.690  0.0453 -0.1425  0.3146
   65SAPC   H3R 5310   5.094   1.504   3.746  1.7959 -1.8235  0.2646
   65SAPC   H3S 5311   5.096   1.664   3.663  1.8081  0.2954 -2.7585
   65SAPC   C24 5312   5.268   1.641   3.777 -0.2269  0.5891  0.5680
   65SAPC   H4R 5313   5.231   1.724   3.841  0.8286  0.6189  1.1713
   65SAPC   H4S 5314   5.343   1.691   3.711 -1.7152  3.0076  0.5986
   65SAPC   C25 5315   5.334   1.542   3.868 -0.3920 -0.1032 -0.5162
   65SAPC   H5R 5316   5.387   1.455   3.827 -0.6787 -0.9726  0.8707
   65SAPC   C26 5317   5.323   1.547   4.008 -0.1931 -0.1618  0.0443
   65SAPC   H6R 5318   5.375   1.470   4.066  0.2564  0.7225  0.8386
   65SAPC   C27 5319   5.246   1.645   4.091 -0.1590  0.1624  0.2017
   65SAPC   H7R 5320   5.146   1.659   4.046  0.4488 -0.1531 -1.2815
   65SAPC   H7S 5321   5.293   1.745   4.078  1.5829 -0.8313 -1.6373
   65SAPC   C28 5322   5.234   1.620   4.236 -0.5189 -0.4872 -0.4913
   65SAPC   H8R 5323   5.245   1.520   4.279 -1.9206 -0.7131 -0.5969
   65SAPC   C29 5324   5.198   1.717   4.318  0.0040  0.1722  0.3629
   65SAPC   H9R 5325   5.173   1.696   4.423 -0.4148 -0.2954  0.1752
   65SAPC  C210 5326   5.166   1.860   4.268 -0.4271 -0.2187 -0.3889
   65SAPC  H10R 5327   5.088   1.913   4.326 -0.1999 -1.2479  0.8790
   65SAPC  H10S 5328   5.127   1.860   4.164 -1.2046  0.6994 -0.1142
   65SAPC  C211 5329   5.297   1.943   4.264  0.4483 -0.0494 -0.0419
   65SAPC  H11R 5330   5.352   1.931   4.170 -1.1306 -2.1092 -0.7761
   65SAPC  C212 5331   5.340   2.029   4.358 -0.2699  0.5385  0.3658
   65SAPC  H12R 5332   5.420   2.101   4.336 -0.5311  0.6207 -0.3284
   65SAPC  C213 5333   5.285   2.042   4.495  0.0586 -0.8104 -0.4514
   65SAPC  H13R 5334   5.273   1.937   4.529 -4.5163 -0.4431 -0.3553
   65SAPC  H13S 5335   5.189   2.096   4.479 -0.3976 -0.4747  2.7516
   65SAPC  C214 5336   5.366   2.136   4.585 -0.5737 -0.2001  0.4451
   65SAPC  H14R 5337   5.344   2.244   4.588 -1.0051 -0.2544 -0.3115
   65SAPC  C215 5338   5.452   2.099   4.683  0.0333  0.5332 -0.1045
   65SAPC  H15R 5339   5.506   2.182   4.730  1.4488 -0.6281  0.3818
   65SAPC  C216 5340   5.488   1.960   4.720  0.0844  0.5820 -0.7199
   65SAPC  H16R 5341   5.521   1.911   4.626  2.1859 -0.5342  0.5123
   65SAPC  H16S 5342   5.405   1.891   4.747  0.2256  0.7791  0.2875
   65SAPC  C217 5343   5.619   1.941   4.813  0.3793  0.2033  0.2240
   65SAPC  H17R 5344   5.690   2.022   4.789  0.0713  0.1682 -0.8839
   65SAPC  H17S 5345   5.653   1.839   4.784 -1.8761 -0.6935  0.4810
   65SAPC  C218 5346   5.589   1.937   4.963  1.0196 -0.1813  0.0071
   65SAPC  H18R 5347   5.528   1.850   4.996 -0.2057  0.9205  0.7599
   65SAPC  H18S 5348   5.519   2.023   4.977 -0.3856 -0.4112 -4.2110
   65SAPC  C219 5349   5.710   1.958   5.054 -0.2960  0.3042  0.0464
   65SAPC  H19R 5350   5.679   1.985   5.157  1.2366 -1.5710  1.0670
   65SAPC  H19S 5351   5.766   2.047   5.019  0.1472 -0.1316 -0.3686
   65SAPC  C220 5352   5.801   1.833   5.053 -0.0416 -0.5596  0.5721
   65SAPC  H20R 5353   5.888   1.841   5.122  0.5595 -0.5705 -0.1718
   65SAPC  H20S 5354   5.861   1.806   4.963  0.9843 -0.1468  1.1163
   65SAPC  H20T 5355   5.746   1.740   5.076  0.6315 -0.5241  2.4760
   65SAPC   C33 5356   4.975   2.139   3.667 -0.7024  0.0254  0.2999
   65SAPC   H3X 5357   4.882   2.182   3.624 -1.2741 -0.8051  0.6911
   65SAPC   H3Y 5358   5.071   2.187   3.635  0.2969 -1.7997  0.4082
   65SAPC   C34 5359   4.969   2.130   3.821 -0.5458  0.6522  0.3356
   65SAPC   H4X 5360   5.047   2.059   3.856 -0.4172  0.4043 -0.4351
   65SAPC   H4Y 5361   4.867   2.093   3.847 -0.3042 -0.9322 -0.8169
   65SAPC   C35 5362   5.008   2.257   3.895  0.2573 -0.5299 -1.3010
   65SAPC   H5X 5363   4.946   2.347   3.877  1.2141  0.0696 -1.6914
   65SAPC   H5Y 5364   5.110   2.287   3.862  0.9220  0.9325  1.7209
   65SAPC   C36 5365   5.016   2.236   4.052 -0.1495  0.4823 -0.1771
   65SAPC   H6X 5366   5.081   2.146   4.067  1.7588  1.5405 -1.7036
   65SAPC   H6Y 5367   4.915   2.224   4.097  0.6297 -0.4042  1.4281
   65SAPC   C37 5368   5.079   2.356   4.123 -0.0974  0.2619  0.7381
   65SAPC   H7X 5369   5.154   2.391   4.049 -1.9590  3.0796  0.0387
   65SAPC   H7Y 5370   5.129   2.326   4.217  2.6574  0.3376 -0.6116
   65SAPC   C38 5371   4.975   2.464   4.143 -0.1403 -0.3065  0.2879
   65SAPC   H8X 5372   4.877   2.420   4.172 -1.3201  2.4271  0.7807
   65SAPC   H8Y 5373   4.968   2.529   4.053 -0.2187 -0.3847  0.2373
   65SAPC   C39 5374   5.024   2.557   4.255  0.1644 -0.4879  0.4563
   65SAPC   H9X 5375   5.105   2.627   4.227 -2.4750  1.2580 -3.8977
   65SAPC   H9Y 5376   5.040   2.500   4.349  0.5094  1.9296  1.9666
   65SAPC  C310 5377   4.915   2.657   4.292  0.5277 -0.5343 -0.4192
   65SAPC  H10X 5378   4.838   2.597   4.346 -0.9056  0.7238 -1.0120
   65SAPC  H10Y 5379   4.867   2.694   4.199 -0.8135  0.3782  0.6067
   65SAPC  C311 5380   4.965   2.782   4.384  0.5975  0.8328 -0.7124
   65SAPC  H11X 5381   5.062   2.805   4.336  2.4855 -1.7227  1.5542
   65SAPC  H11Y 5382   4.985   2.737   4.484 -0.4040  0.1683 -0.7900
   65SAPC  C312 5383   4.866   2.899   4.394 -0.1607  0.2531  1.0399
   65SAPC  H12X 5384   4.772   2.849   4.425  0.6741 -1.3308  1.0949
   65SAPC  H12Y 5385   4.857   2.939   4.291  2.0729 -0.3440  0.5666
   65SAPC  C313 5386   4.909   3.004   4.499  0.6747 -0.0123 -0.5840
   65SAPC  H13X 5387   4.843   3.093   4.493  1.6518  0.8729  1.2078
   65SAPC  H13Y 5388   5.007   3.052   4.477  1.0959 -0.7121 -0.2665
   65SAPC  C314 5389   4.943   2.956   4.646 -1.0832  0.2741 -0.0236
   65SAPC  H14X 5390   5.045   2.910   4.647 -1.7018 -1.3824 -2.4913
   65SAPC  H14Y 5391   4.878   2.871   4.675  0.1790 -0.5433  0.5071
   65SAPC  C315 5392   4.946   3.069   4.748 -0.1079  0.2733 -0.3086
   65SAPC  H15X 5393   4.850   3.124   4.749  0.3811  1.1975  2.5224
   65SAPC  H15Y 5394   5.026   3.143   4.726 -0.5925  1.2695  1.1489
   65SAPC  C316 5395   4.953   3.015   4.889 -0.7504 -0.2945  0.0127
   65SAPC  H16X 5396   5.063   2.996   4.891 -0.7478 -0.2395  0.3787
   65SAPC  H16Y 5397   4.893   2.922   4.889 -2.3354  0.6911  0.0171
   65SAPC  C317 5398   4.919   3.121   4.998  0.0547 -0.2069 -0.4907
   65SAPC  H17X 5399   4.948   3.218   4.951 -0.5141  0.4231  0.4222
   65SAPC  H17Y 5400   4.972   3.091   5.090 -2.0841  0.4826  1.0391
   65SAPC  C318 5401   4.767   3.139   5.033  0.0095 -0.0834  0.2801
   65SAPC  H18X 5402   4.701   3.153   4.945 -2.6687 -0.5789  2.0895
   65SAPC  H18Y 5403   4.755   3.229   5.098  1.2633  0.1170  0.2599
   65SAPC  H18Z 5404   4.732   3.051   5.091  0.9765 -1.9676 -1.8457
   66SAPC     N 5405   4.322   1.907   2.729  0.3539 -0.0873  0.0377
   66SAPC   C12 5406   4.241   2.032   2.749  0.2023 -0.6808 -0.2967
   66SAPC  H12A 5407   4.176   2.015   2.834 -1.1800  1.8850 -0.7531
   66SAPC  H12B 5408   4.180   2.039   2.660  0.8166 -0.0131 -0.6746
   66SAPC   C13 5409   4.376   1.873   2.864 -0.2303  0.2369 -0.1671
   66SAPC  H13A 5410   4.437   1.785   2.848  0.9816  1.1699 -0.8086
   66SAPC  H13B 5411   4.441   1.951   2.899 -0.4642  1.2827 -1.9365
   66SAPC  H13C 5412   4.293   1.861   2.931  0.1766  4.3006  1.3293
   66SAPC   C14 5413   4.228   1.803   2.677  0.3026  0.1195 -0.1153
   66SAPC  H14A 5414   4.269   1.703   2.667 -4.1948 -1.8973 -0.7603
   66SAPC  H14B 5415   4.142   1.798   2.742  2.1408  1.9154  2.6691
   66SAPC  H14C 5416   4.203   1.830   2.576  0.8726  1.2705  0.0447
   66SAPC   C15 5417   4.434   1.941   2.640  0.0092  0.5866  0.0926
   66SAPC  H15A 5418   4.471   2.036   2.675 -2.0490  1.7831 -0.7923
   66SAPC  H15B 5419   4.508   1.862   2.636  1.4137  1.8839 -1.2034
   66SAPC  H15C 5420   4.398   1.954   2.539 -3.0082 -2.4131  0.6208
   66SAPC   C11 5421   4.317   2.162   2.778 -0.0519 -0.3857 -0.5161
   66SAPC  H11A 5422   4.242   2.244   2.783 -1.9305 -2.1127  1.5383
   66SAPC  H11B 5423   4.388   2.187   2.696  0.8405  0.0169  0.3413
   66SAPC     P 5424   4.317   2.180   3.038  0.0529 -0.0566 -0.0830
   66SAPC   O13 5425   4.180   2.123   3.038  0.7359 -0.2015  0.0774
   66SAPC   O14 5426   4.401   2.122   3.145 -0.3003 -0.3286 -0.4502
   66SAPC   O12 5427   4.389   2.160   2.901  0.1570  0.1920 -0.4007
   66SAPC   O11 5428   4.307   2.334   3.066 -0.1326  0.3895 -0.2062
   66SAPC    C1 5429   4.430   2.411   3.092 -0.5267  0.8475  0.4439
   66SAPC    HA 5430   4.525   2.364   3.060 -0.3640  0.7393  1.0716
   66SAPC    HB 5431   4.411   2.498   3.025 -2.3967  0.0630 -0.1196
   66SAPC    C2 5432   4.435   2.480   3.233 -0.3223 -0.1107 -0.4389
   66SAPC    HS 5433   4.530   2.538   3.241 -1.9045  2.5191  0.3491
   66SAPC   O21 5434   4.439   2.391   3.345  0.6426  0.1034 -0.2069
   66SAPC   C21 5435   4.541   2.306   3.346  0.2072 -0.3192  0.5242
   66SAPC   O22 5436   4.639   2.311   3.277  0.1440 -0.3027  0.3600
   66SAPC   C22 5437   4.526   2.198   3.458  0.4791  0.8636  0.3433
   66SAPC   H2R 5438   4.483   2.109   3.407  0.3341 -0.3258  2.4143
   66SAPC   H2S 5439   4.626   2.168   3.496  1.6456  3.7552 -0.2307
   66SAPC    C3 5440   4.318   2.581   3.253 -0.6965 -0.1859  0.3156
   66SAPC    HX 5441   4.229   2.517   3.273 -1.9317  1.1693 -0.5914
   66SAPC    HY 5442   4.303   2.646   3.164  1.9182  1.6239  1.0888
   66SAPC   O31 5443   4.344   2.677   3.366 -0.7040  0.2610  0.0355
   66SAPC   C31 5444   4.293   2.652   3.480 -0.2915  0.3749  0.2160
   66SAPC   O32 5445   4.238   2.547   3.512 -0.1056 -0.8352  0.1736
   66SAPC   C32 5446   4.321   2.767   3.578 -0.2903  0.1507 -0.0540
   66SAPC   H2X 5447   4.243   2.845   3.567 -3.0645 -2.4615 -0.0153
   66SAPC   H2Y 5448   4.422   2.803   3.548  0.1798 -0.3231  0.9183
   66SAPC   C23 5449   4.452   2.242   3.577 -0.4924  0.2288  0.3352
   66SAPC   H3R 5450   4.406   2.147   3.612  1.3732 -0.9612 -0.3273
   66SAPC   H3S 5451   4.373   2.319   3.562  0.6935  1.7477  1.5616
   66SAPC   C24 5452   4.542   2.299   3.688 -0.7357 -0.4465 -0.2010
   66SAPC   H4R 5453   4.621   2.360   3.638 -1.7551  1.4734  0.4213
   66SAPC   H4S 5454   4.602   2.214   3.727 -0.8430 -0.3942  0.0770
   66SAPC   C25 5455   4.471   2.377   3.792  0.7749 -0.3686  0.2299
   66SAPC   H5R 5456   4.386   2.435   3.754 -0.1436 -1.0870  1.1450
   66SAPC   C26 5457   4.497   2.390   3.922  0.0358 -0.5648 -0.4930
   66SAPC   H6R 5458   4.430   2.457   3.979  1.6846 -0.4451  1.3915
   66SAPC   C27 5459   4.616   2.336   4.002  0.4057  0.5771 -0.2004
   66SAPC   H7R 5460   4.679   2.422   4.036  0.2931  0.5882 -0.0205
   66SAPC   H7S 5461   4.675   2.263   3.942  0.8836  0.9194 -0.1535
   66SAPC   C28 5462   4.558   2.266   4.125  0.5450  0.5052 -0.4334
   66SAPC   H8R 5463   4.550   2.157   4.112 -1.6369  0.3487  1.5747
   66SAPC   C29 5464   4.526   2.328   4.244 -0.1352  0.2529 -0.1621
   66SAPC   H9R 5465   4.494   2.264   4.327 -3.2092  0.4642 -1.0737
   66SAPC  C210 5466   4.538   2.485   4.271 -0.2762  0.2198 -1.1370
   66SAPC  H10R 5467   4.496   2.536   4.182 -0.0403  1.5311 -0.5129
   66SAPC  H10S 5468   4.646   2.506   4.285 -0.5591  0.9256  0.1568
   66SAPC  C211 5469   4.469   2.533   4.403 -0.6042  0.4495 -0.1479
   66SAPC  H11R 5470   4.380   2.598   4.399 -1.3277 -0.1731  3.2912
   66SAPC  C212 5471   4.515   2.524   4.527  0.5223  0.3740  0.1306
   66SAPC  H12R 5472   4.460   2.556   4.617  0.8905 -0.3350  0.6126
   66SAPC  C213 5473   4.650   2.469   4.567  0.5364  0.2227 -0.3371
   66SAPC  H13R 5474   4.686   2.400   4.488 -2.7561  1.2544 -2.9535
   66SAPC  H13S 5475   4.618   2.395   4.643 -1.0376 -0.1038 -1.2767
   66SAPC  C214 5476   4.758   2.560   4.614  0.0383  0.0930 -0.0635
   66SAPC  H14R 5477   4.732   2.666   4.625 -3.2257 -0.6848  0.5227
   66SAPC  C215 5478   4.875   2.514   4.666  0.4864  0.4308 -0.2016
   66SAPC  H15R 5479   4.953   2.588   4.689 -0.3698  2.1401 -2.4346
   66SAPC  C216 5480   4.922   2.366   4.670  1.0677  0.6648 -0.0217
   66SAPC  H16R 5481   5.003   2.348   4.597 -0.9907  1.3658 -2.6344
   66SAPC  H16S 5482   4.837   2.304   4.633  0.2668  1.8180 -0.2059
   66SAPC  C217 5483   4.982   2.319   4.801 -0.1081 -0.9049 -0.0528
   66SAPC  H17R 5484   5.003   2.211   4.786  1.1314 -0.8321  0.9641
   66SAPC  H17S 5485   4.908   2.327   4.884  1.2886  2.0357  1.0577
   66SAPC  C218 5486   5.121   2.387   4.831 -0.0919  0.1728 -1.1109
   66SAPC  H18R 5487   5.101   2.495   4.842  0.2637  0.1153  0.1977
   66SAPC  H18S 5488   5.200   2.362   4.756  0.7960 -1.6215  0.3382
   66SAPC  C219 5489   5.186   2.355   4.970  0.1581 -0.1080  0.1148
   66SAPC  H19R 5490   5.203   2.245   4.971 -2.2648 -0.5944 -1.7009
   66SAPC  H19S 5491   5.108   2.372   5.047  0.4909  3.7713 -0.2151
   66SAPC  C220 5492   5.314   2.429   4.985 -0.1828 -0.2283  0.2362
   66SAPC  H20R 5493   5.352   2.431   5.090 -0.0901 -1.1644  0.2307
   66SAPC  H20S 5494   5.294   2.534   4.957  0.5916 -0.3206 -0.7048
   66SAPC  H20T 5495   5.396   2.391   4.920  0.5975  1.6221  0.0707
   66SAPC   C33 5496   4.331   2.725   3.739 -0.5001 -0.4305  0.3077
   66SAPC   H3X 5497   4.372   2.814   3.790 -0.9722 -0.0936  0.1076
   66SAPC   H3Y 5498   4.403   2.640   3.747  0.5422  0.5541  2.0492
   66SAPC   C34 5499   4.199   2.696   3.804  0.2590  0.4799  0.7551
   66SAPC   H4X 5500   4.152   2.611   3.750 -1.5415  2.0560 -0.2954
   66SAPC   H4Y 5501   4.141   2.789   3.784 -1.9365 -1.1079 -0.6637
   66SAPC   C35 5502   4.208   2.665   3.954 -0.1861  0.2599 -0.1439
   66SAPC   H5X 5503   4.245   2.747   4.018 -0.9282  0.2482  0.3172
   66SAPC   H5Y 5504   4.269   2.577   3.983 -1.4946 -0.7515 -0.3397
   66SAPC   C36 5505   4.072   2.630   4.009 -0.1156  0.7598  0.6683
   66SAPC   H6X 5506   4.029   2.549   3.946 -0.3441  0.3588  1.3281
   66SAPC   H6Y 5507   4.006   2.718   3.996 -2.4060 -0.8361  0.9124
   66SAPC   C37 5508   4.073   2.592   4.161 -0.1773  0.2943  0.2132
   66SAPC   H7X 5509   4.125   2.498   4.188 -1.2245  0.2546  2.3116
   66SAPC   H7Y 5510   3.967   2.562   4.176 -0.8442  2.0744 -0.5893
   66SAPC   C38 5511   4.107   2.706   4.257 -0.2098  0.3791 -0.6475
   66SAPC   H8X 5512   4.046   2.793   4.224 -3.6293 -1.3882  0.5654
   66SAPC   H8Y 5513   4.216   2.722   4.242 -0.0032  0.6232  0.9446
   66SAPC   C39 5514   4.061   2.675   4.398  0.1331  0.1510 -0.1023
   66SAPC   H9X 5515   4.094   2.571   4.418 -0.4770 -0.2107 -0.9629
   66SAPC   H9Y 5516   3.950   2.677   4.395  0.1086  1.9707 -3.6722
   66SAPC  C310 5517   4.114   2.782   4.493 -0.6309  0.3423 -0.3141
   66SAPC  H10X 5518   4.122   2.881   4.444  0.0574 -0.8288 -2.7065
   66SAPC  H10Y 5519   4.221   2.756   4.498 -0.0659  1.8363 -2.9652
   66SAPC  C311 5520   4.040   2.780   4.628 -0.4641  0.3934  0.3644
   66SAPC  H11X 5521   4.069   2.681   4.669  1.7916  0.1188 -1.6410
   66SAPC  H11Y 5522   3.930   2.784   4.620 -0.4686  0.4910  0.4660
   66SAPC  C312 5523   4.083   2.882   4.737  0.1031  0.0568  0.3403
   66SAPC  H12X 5524   4.059   2.983   4.698  0.3639  0.3983  1.0405
   66SAPC  H12Y 5525   4.194   2.883   4.735  0.1095 -0.5222  0.2496
   66SAPC  C313 5526   4.023   2.859   4.879 -0.4816  0.0142  0.5182
   66SAPC  H13X 5527   4.027   2.752   4.907 -1.7594 -0.3333 -0.5188
   66SAPC  H13Y 5528   3.917   2.891   4.878  0.3739  3.1814 -0.2775
   66SAPC  C314 5529   4.097   2.938   4.991  0.4916  0.4141  0.2757
   66SAPC  H14X 5530   4.207   2.938   4.971  0.1625  0.3264 -1.8379
   66SAPC  H14Y 5531   4.099   2.891   5.091  2.0816  0.1287  0.1476
   66SAPC  C315 5532   4.050   3.086   4.998  0.8558  0.0870 -0.2125
   66SAPC  H15X 5533   4.038   3.126   4.895  1.7438  1.7344  0.2756
   66SAPC  H15Y 5534   4.136   3.138   5.045  1.1986  1.2866 -2.0337
   66SAPC  C316 5535   3.919   3.095   5.073 -0.2469 -0.0125 -0.1491
   66SAPC  H16X 5536   3.940   3.083   5.182 -0.8112  0.1766 -0.0182
   66SAPC  H16Y 5537   3.857   3.010   5.039  1.8187 -1.1452 -1.2883
   66SAPC  C317 5538   3.862   3.236   5.050 -0.1440  0.1395 -0.3886
   66SAPC  H17X 5539   3.836   3.252   4.944 -1.9801  1.4776  0.2099
   66SAPC  H17Y 5540   3.931   3.318   5.082 -0.2763 -0.0072  0.2939
   66SAPC  C318 5541   3.732   3.254   5.139  0.2837  0.6969  0.0360
   66SAPC  H18X 5542   3.770   3.282   5.240 -0.6505 -0.2094  0.6492
   66SAPC  H18Y 5543   3.680   3.157   5.150 -0.3778  0.9424 -0.8024
   66SAPC  H18Z 5544   3.666   3.328   5.089 -0.7219 -0.7857 -0.9043
   67SAPC     N 5545   0.278   5.805   2.516 -0.0314  0.4706 -0.1627
   67SAPC   C12 5546   0.259   5.679   2.604  1.0471  0.2025 -0.6815
   67SAPC  H12A 5547   0.350   5.658   2.658  0.2238 -0.0051  0.6512
   67SAPC  H12B 5548   0.239   5.597   2.536  0.7919  1.0010 -1.5954
   67SAPC   C13 5549   0.162   5.834   2.432 -0.4420 -0.1264  0.5731
   67SAPC  H13A 5550   0.167   5.933   2.390 -2.2688  0.5632  1.8488
   67SAPC  H13B 5551   0.153   5.767   2.348 -1.3592  0.1547  0.4389
   67SAPC  H13C 5552   0.072   5.832   2.493 -1.8686 -1.3320 -1.4426
   67SAPC   C14 5553   0.328   5.926   2.593  0.2678  0.4017  0.2607
   67SAPC  H14A 5554   0.420   5.896   2.641 -0.3031 -0.3884  0.8693
   67SAPC  H14B 5555   0.345   6.002   2.518  0.6963 -0.7210 -0.8161
   67SAPC  H14C 5556   0.255   5.977   2.654  0.7746  0.5713  0.7326
   67SAPC   C15 5557   0.400   5.766   2.434 -0.7334 -0.6288  0.0429
   67SAPC  H15A 5558   0.477   5.719   2.493 -0.6865 -1.3524 -0.5684
   67SAPC  H15B 5559   0.367   5.698   2.356 -1.8305  1.3139 -1.2727
   67SAPC  H15C 5560   0.442   5.851   2.382 -1.7499 -1.2271 -1.8805
   67SAPC   C11 5561   0.129   5.684   2.703  0.3725 -0.0631 -0.5523
   67SAPC  H11A 5562   0.130   5.782   2.755  1.9156 -0.2541 -0.1620
   67SAPC  H11B 5563   0.127   5.615   2.791 -2.4217  0.6274  0.0286
   67SAPC     P 5564  -0.037   5.527   2.574 -0.4243 -0.0623 -0.0445
   67SAPC   O13 5565  -0.100   5.536   2.441  0.1947  0.1697 -0.0757
   67SAPC   O14 5566   0.068   5.427   2.580  0.2923 -0.4973 -0.0318
   67SAPC   O12 5567   0.010   5.668   2.622 -0.1805  0.2199  0.4101
   67SAPC   O11 5568  -0.151   5.490   2.673  0.1983  0.0117  0.0929
   67SAPC    C1 5569  -0.214   5.594   2.746 -0.0958  0.5436  0.1872
   67SAPC    HA 5570  -0.143   5.631   2.823  1.7016 -3.1792  0.5419
   67SAPC    HB 5571  -0.254   5.672   2.679  0.4713  0.8217  0.1632
   67SAPC    C2 5572  -0.344   5.537   2.813 -0.0356 -0.4724 -0.2907
   67SAPC    HS 5573  -0.402   5.623   2.853 -0.3364 -1.8749  2.5862
   67SAPC   O21 5574  -0.316   5.447   2.925 -0.0459  0.4000 -0.0122
   67SAPC   C21 5575  -0.256   5.503   3.028 -0.3498 -0.3048 -0.1016
   67SAPC   O22 5576  -0.252   5.626   3.050 -0.0960 -0.1965  0.1478
   67SAPC   C22 5577  -0.208   5.390   3.127  0.1748 -0.1219  0.0500
   67SAPC   H2R 5578  -0.297   5.328   3.146 -0.5354  1.4667  2.2995
   67SAPC   H2S 5579  -0.121   5.336   3.083 -0.0650 -0.3120 -0.1921
   67SAPC    C3 5580  -0.427   5.465   2.712  0.5893 -0.3367  0.3723
   67SAPC    HX 5581  -0.374   5.374   2.675  0.3830  0.0318 -0.8792
   67SAPC    HY 5582  -0.438   5.522   2.618  0.0113  0.7996  1.1098
   67SAPC   O31 5583  -0.557   5.405   2.763  0.7495 -0.4519  0.3970
   67SAPC   C31 5584  -0.647   5.511   2.772 -0.0193 -0.0629  0.2134
   67SAPC   O32 5585  -0.623   5.623   2.738  0.2964 -0.0410  0.5663
   67SAPC   C32 5586  -0.781   5.468   2.836 -0.4106 -0.4992 -0.0921
   67SAPC   H2X 5587  -0.786   5.357   2.829 -0.5150 -0.4296 -1.5797
   67SAPC   H2Y 5588  -0.862   5.515   2.776 -0.2362  1.9305  1.4450
   67SAPC   C23 5589  -0.175   5.461   3.266 -0.2265 -0.1703  0.3642
   67SAPC   H3R 5590  -0.270   5.498   3.311 -0.6867 -1.0286  0.1102
   67SAPC   H3S 5591  -0.102   5.545   3.258  2.1383 -1.9124  2.2042
   67SAPC   C24 5592  -0.086   5.380   3.367  0.9416  0.1864  0.6011
   67SAPC   H4R 5593  -0.023   5.437   3.438  0.4673  0.7497  0.5799
   67SAPC   H4S 5594  -0.024   5.316   3.300 -2.4796  0.0576 -2.8182
   67SAPC   C25 5595  -0.161   5.280   3.451  0.4266  1.0894 -0.4387
   67SAPC   H5R 5596  -0.165   5.181   3.403  0.7718  0.7877  0.1402
   67SAPC   C26 5597  -0.209   5.299   3.581  0.2497  0.2846 -0.1356
   67SAPC   H6R 5598  -0.270   5.218   3.624 -1.8386  2.5255  1.3273
   67SAPC   C27 5599  -0.226   5.435   3.637  0.3913 -0.9470 -0.4558
   67SAPC   H7R 5600  -0.336   5.436   3.653  0.1796  1.8651 -1.5162
   67SAPC   H7S 5601  -0.214   5.512   3.558 -0.0418 -0.3366  0.0614
   67SAPC   C28 5602  -0.140   5.463   3.753 -0.2177  0.1821  0.1519
   67SAPC   H8R 5603  -0.034   5.466   3.722  0.0110  0.3940  0.9297
   67SAPC   C29 5604  -0.168   5.489   3.881 -0.0807 -0.1601  0.1188
   67SAPC   H9R 5605  -0.091   5.508   3.957  0.7059 -0.4745 -0.5885
   67SAPC  C210 5606  -0.302   5.497   3.948 -0.1521  0.3342  0.1768
   67SAPC  H10R 5607  -0.376   5.534   3.874  0.6026  2.8426  0.5821
   67SAPC  H10S 5608  -0.289   5.579   4.021 -1.2512  0.5277  0.1775
   67SAPC  C211 5609  -0.348   5.369   4.014 -0.1526  1.1127 -0.1571
   67SAPC  H11R 5610  -0.323   5.283   3.950  0.0986 -0.3895  1.8501
   67SAPC  C212 5611  -0.409   5.355   4.133 -0.2141  0.8054 -0.2642
   67SAPC  H12R 5612  -0.440   5.255   4.166 -0.5911  0.3597 -1.8698
   67SAPC  C213 5613  -0.457   5.470   4.225  0.3552  0.2971  0.2804
   67SAPC  H13R 5614  -0.524   5.422   4.300  0.8548  0.9381  1.1619
   67SAPC  H13S 5615  -0.538   5.533   4.181  0.2370 -0.2720 -0.3194
   67SAPC  C214 5616  -0.346   5.542   4.288 -0.0784 -0.0720 -0.6634
   67SAPC  H14R 5617  -0.247   5.505   4.258  1.3839  1.0328  2.3740
   67SAPC  C215 5618  -0.342   5.658   4.358  0.6109  0.1699  0.2200
   67SAPC  H15R 5619  -0.240   5.682   4.389 -0.1197  1.8137  1.5026
   67SAPC  C216 5620  -0.449   5.748   4.413  0.6103  0.0197 -0.0357
   67SAPC  H16R 5621  -0.551   5.726   4.375  0.8068  0.7383 -1.0378
   67SAPC  H16S 5622  -0.431   5.854   4.382  0.5771 -0.3106 -1.2521
   67SAPC  C217 5623  -0.435   5.748   4.564  0.5213 -0.2222 -0.2403
   67SAPC  H17R 5624  -0.504   5.826   4.603  1.7558 -0.1408  1.9223
   67SAPC  H17S 5625  -0.339   5.790   4.600 -0.0291  0.7139  0.1541
   67SAPC  C218 5626  -0.459   5.616   4.637  0.9768  0.1926 -0.4357
   67SAPC  H18R 5627  -0.364   5.559   4.624  1.2132  0.3776  0.4109
   67SAPC  H18S 5628  -0.539   5.561   4.583  0.6755  0.3558 -0.1598
   67SAPC  C219 5629  -0.465   5.628   4.787 -0.1781  0.4606 -0.1124
   67SAPC  H19R 5630  -0.554   5.685   4.821  0.6090  0.5881  1.8732
   67SAPC  H19S 5631  -0.383   5.685   4.837  0.5156  0.6126 -1.3623
   67SAPC  C220 5632  -0.480   5.499   4.856 -0.1169  0.2649  0.0722
   67SAPC  H20R 5633  -0.490   5.509   4.967  2.6965  0.5048  0.3585
   67SAPC  H20S 5634  -0.389   5.439   4.835  0.2081  1.0824 -0.9386
   67SAPC  H20T 5635  -0.566   5.449   4.807  1.5750 -0.8089 -1.9537
   67SAPC   C33 5636  -0.794   5.508   2.983  0.2299  0.4925 -0.4833
   67SAPC   H3X 5637  -0.894   5.479   3.020  1.4817 -3.0267  0.5740
   67SAPC   H3Y 5638  -0.763   5.614   2.991 -1.0844  0.8238  0.5152
   67SAPC   C34 5639  -0.701   5.420   3.075 -0.6070  0.2711  0.1164
   67SAPC   H4X 5640  -0.596   5.437   3.046 -0.0775 -1.3951  0.9296
   67SAPC   H4Y 5641  -0.726   5.311   3.076  1.6588 -0.3086  2.0501
   67SAPC   C35 5642  -0.704   5.457   3.227  0.4234 -0.3878 -0.0832
   67SAPC   H5X 5643  -0.812   5.434   3.242  0.7046 -2.9576 -1.3192
   67SAPC   H5Y 5644  -0.690   5.565   3.245 -0.6491 -0.3980  0.9295
   67SAPC   C36 5645  -0.611   5.375   3.319  0.3506  0.1725  0.4958
   67SAPC   H6X 5646  -0.514   5.427   3.300  0.1760  1.3731  2.6402
   67SAPC   H6Y 5647  -0.605   5.268   3.290  0.9571  0.6247 -1.1521
   67SAPC   C37 5648  -0.637   5.404   3.472  0.1796 -0.6289 -0.2565
   67SAPC   H7X 5649  -0.654   5.513   3.485  1.1878 -0.6096  1.1635
   67SAPC   H7Y 5650  -0.544   5.388   3.532  1.4237 -0.1536 -1.9732
   67SAPC   C38 5651  -0.750   5.326   3.537 -0.2468  0.3925  0.8662
   67SAPC   H8X 5652  -0.727   5.218   3.523  0.0556  0.6109 -0.4700
   67SAPC   H8Y 5653  -0.850   5.348   3.493 -0.1405  0.3467  0.5980
   67SAPC   C39 5654  -0.773   5.347   3.692 -0.1422  0.5965  0.2195
   67SAPC   H9X 5655  -0.863   5.289   3.723 -0.0379  0.4584  0.2670
   67SAPC   H9Y 5656  -0.782   5.454   3.719 -1.0692  0.6802 -0.3980
   67SAPC  C310 5657  -0.655   5.285   3.773  0.9463  0.3107 -0.4734
   67SAPC  H10X 5658  -0.563   5.335   3.737  0.1994  2.5391  0.4931
   67SAPC  H10Y 5659  -0.643   5.179   3.743 -1.9073  0.0485 -0.9957
   67SAPC  C311 5660  -0.680   5.293   3.926 -0.6668 -0.1450 -0.8049
   67SAPC  H11X 5661  -0.715   5.392   3.962  0.3449 -0.9475  2.7547
   67SAPC  H11Y 5662  -0.596   5.260   3.989 -2.5317 -0.3182  1.7411
   67SAPC  C312 5663  -0.791   5.188   3.957 -0.1226 -0.8283 -0.1602
   67SAPC  H12X 5664  -0.773   5.086   3.916 -2.3972 -1.1694 -0.4286
   67SAPC  H12Y 5665  -0.889   5.226   3.920  0.3231  0.3329 -0.2003
   67SAPC  C313 5666  -0.809   5.176   4.111 -0.1048 -0.4834  0.2469
   67SAPC  H13X 5667  -0.711   5.143   4.152  0.1436  0.6172  0.5678
   67SAPC  H13Y 5668  -0.894   5.106   4.122 -1.8949  1.4716 -0.5292
   67SAPC  C314 5669  -0.855   5.309   4.164 -0.6083 -0.1612 -0.3450
   67SAPC  H14X 5670  -0.915   5.359   4.086 -0.5232 -0.6772 -0.7450
   67SAPC  H14Y 5671  -0.763   5.366   4.191  0.3862 -1.0871 -1.6553
   67SAPC  C315 5672  -0.944   5.303   4.284  1.2555 -0.4103  0.1360
   67SAPC  H15X 5673  -0.885   5.255   4.365  2.3074  1.6112  0.6368
   67SAPC  H15Y 5674  -1.035   5.248   4.253  0.6989  1.6945 -2.2770
   67SAPC  C316 5675  -0.976   5.445   4.338  0.6688 -0.3917  0.2431
   67SAPC  H16X 5676  -1.054   5.443   4.417 -0.8505 -0.7116 -1.2085
   67SAPC  H16Y 5677  -1.010   5.515   4.259 -2.3166  1.1052  2.6149
   67SAPC  C317 5678  -0.847   5.509   4.397 -0.3867  0.1595 -0.5296
   67SAPC  H17X 5679  -0.766   5.517   4.322 -0.4196  0.3482 -0.5458
   67SAPC  H17Y 5680  -0.812   5.451   4.485  1.3286  2.2443  0.2635
   67SAPC  C318 5681  -0.877   5.652   4.442  0.3762  0.1354  0.5909
   67SAPC  H18X 5682  -0.817   5.716   4.374  1.6422 -1.7002 -0.0978
   67SAPC  H18Y 5683  -0.847   5.664   4.548 -1.4452 -0.6571  1.2443
   67SAPC  H18Z 5684  -0.986   5.670   4.431  0.2954 -0.4875  0.3389
   68SAPC     N 5685   2.280   5.646   2.715  0.4267 -0.1387 -0.3429
   68SAPC   C12 5686   2.228   5.585   2.840  0.3559  0.9034  0.7644
   68SAPC  H12A 5687   2.159   5.504   2.821  0.3821  0.7094  1.4843
   68SAPC  H12B 5688   2.171   5.657   2.896 -0.6356 -1.5535  3.1386
   68SAPC   C13 5689   2.168   5.683   2.622  0.1160  0.1483  0.1913
   68SAPC  H13A 5690   2.112   5.597   2.589 -2.4453  1.1732  1.5559
   68SAPC  H13B 5691   2.099   5.757   2.661 -0.3381  0.3179 -0.8866
   68SAPC  H13C 5692   2.217   5.723   2.534  0.0833  0.9741  0.5408
   68SAPC   C14 5693   2.353   5.770   2.740 -0.6126  0.8029 -0.0552
   68SAPC  H14A 5694   2.445   5.750   2.793  0.5914  0.0400 -2.2999
   68SAPC  H14B 5695   2.390   5.818   2.650 -0.3077  1.6770  0.5250
   68SAPC  H14C 5696   2.290   5.842   2.791 -1.7112 -0.7787  0.8892
   68SAPC   C15 5697   2.368   5.552   2.642  0.1126  0.2845 -0.3994
   68SAPC  H15A 5698   2.315   5.458   2.638 -2.9969  1.7536  1.4522
   68SAPC  H15B 5699   2.393   5.579   2.541 -0.4834  0.4886 -0.5015
   68SAPC  H15C 5700   2.465   5.534   2.685  0.4432  0.7302 -0.9582
   68SAPC   C11 5701   2.338   5.525   2.931 -0.6369 -0.2615 -0.0230
   68SAPC  H11A 5702   2.393   5.436   2.894 -2.0094 -2.5704  3.0961
   68SAPC  H11B 5703   2.282   5.482   3.016 -0.3915 -0.5687 -0.0180
   68SAPC     P 5704   2.567   5.614   3.034 -0.0600  0.1945  0.2659
   68SAPC   O13 5705   2.624   5.484   2.991  0.0769  0.2199  0.3764
   68SAPC   O14 5706   2.643   5.732   2.992 -0.1352 -0.3549  0.6922
   68SAPC   O12 5707   2.419   5.628   2.988 -0.3747  0.3732 -0.1009
   68SAPC   O11 5708   2.545   5.610   3.192  0.0536 -0.0705 -0.2204
   68SAPC    C1 5709   2.461   5.523   3.264 -0.2566  0.8473 -0.6210
   68SAPC    HA 5710   2.373   5.572   3.311 -0.3715 -0.7635  0.9443
   68SAPC    HB 5711   2.413   5.453   3.193 -0.6165 -0.2426  0.6669
   68SAPC    C2 5712   2.544   5.456   3.382  0.2683  0.2332  0.1132
   68SAPC    HS 5713   2.474   5.391   3.439  0.1128 -0.1788 -0.5355
   68SAPC   O21 5714   2.608   5.557   3.466 -0.0994  0.2429 -0.2870
   68SAPC   C21 5715   2.526   5.626   3.550  0.0203  0.9355  0.1749
   68SAPC   O22 5716   2.405   5.607   3.563 -0.3729  0.0911 -0.3443
   68SAPC   C22 5717   2.609   5.735   3.623  0.4183 -0.7491  0.2459
   68SAPC   H2R 5718   2.593   5.712   3.731  1.0685 -1.1090  0.2665
   68SAPC   H2S 5719   2.714   5.720   3.593  0.3133  0.8407 -1.0473
   68SAPC    C3 5720   2.655   5.378   3.317 -0.0165  0.4557  0.0201
   68SAPC    HX 5721   2.717   5.433   3.243  3.2101 -0.4396  1.8475
   68SAPC    HY 5722   2.622   5.304   3.241  1.2469  1.8875 -2.0133
   68SAPC   O31 5723   2.766   5.330   3.400  0.0263 -0.3455  0.1288
   68SAPC   C31 5724   2.732   5.224   3.464  0.0442 -0.8583 -0.0160
   68SAPC   O32 5725   2.623   5.160   3.451 -0.0820 -0.0096 -0.5276
   68SAPC   C32 5726   2.847   5.191   3.551  0.1671  0.3694  0.1616
   68SAPC   H2X 5727   2.940   5.250   3.538  1.9846 -1.7185  2.7448
   68SAPC   H2Y 5728   2.864   5.084   3.530 -0.1064 -0.2611  2.8617
   68SAPC   C23 5729   2.554   5.870   3.579  0.4682 -0.1898  0.4161
   68SAPC   H3R 5730   2.449   5.891   3.608 -0.3475 -1.6917 -1.2671
   68SAPC   H3S 5731   2.563   5.877   3.469  3.0025  2.3806  0.6580
   68SAPC   C24 5732   2.639   5.986   3.634 -0.4287  0.3876  0.0558
   68SAPC   H4R 5733   2.640   5.968   3.743 -2.7480 -0.2227  0.0265
   68SAPC   H4S 5734   2.596   6.087   3.622 -1.5617  0.1035  1.5050
   68SAPC   C25 5735   2.790   5.971   3.591  0.2038  0.3110  1.0408
   68SAPC   H5R 5736   2.812   5.942   3.487 -0.0125  0.2033  1.0244
   68SAPC   C26 5737   2.890   5.994   3.675  0.1160 -0.0477 -0.1018
   68SAPC   H6R 5738   2.993   5.983   3.638  0.3862  4.1317 -1.1234
   68SAPC   C27 5739   2.878   6.048   3.818 -0.5927 -0.6974  0.5850
   68SAPC   H7R 5740   2.812   5.984   3.882 -1.1755 -2.8215 -1.9732
   68SAPC   H7S 5741   2.817   6.141   3.815 -0.0180 -0.2778 -3.6219
   68SAPC   C28 5742   3.013   6.088   3.883  0.8937  0.4788  0.7522
   68SAPC   H8R 5743   3.101   6.044   3.833  0.5305 -1.1113  1.4488
   68SAPC   C29 5744   3.034   6.135   4.004  0.0312 -0.3916 -0.1947
   68SAPC   H9R 5745   3.137   6.152   4.039 -0.2596  1.3613 -0.0913
   68SAPC  C210 5746   2.926   6.175   4.100  0.7136 -0.1656  0.1039
   68SAPC  H10R 5747   2.825   6.189   4.055 -0.0958 -1.2323  1.5185
   68SAPC  H10S 5748   2.935   6.278   4.141 -3.6282 -0.1739  1.6040
   68SAPC  C211 5749   2.928   6.092   4.216  0.0349  0.3685  0.7431
   68SAPC  H11R 5750   2.860   6.008   4.196  0.9521  0.1728 -1.9446
   68SAPC  C212 5751   2.984   6.104   4.334  0.7661 -0.2368 -0.1419
   68SAPC  H12R 5752   2.973   6.016   4.399 -0.5642 -1.1856 -1.5752
   68SAPC  C213 5753   3.069   6.217   4.368  0.9960  0.6000 -0.2851
   68SAPC  H13R 5754   3.002   6.294   4.412  1.4342  0.5779  0.4339
   68SAPC  H13S 5755   3.130   6.254   4.282 -0.2756  0.7472 -1.1636
   68SAPC  C214 5756   3.165   6.170   4.475  0.5556  0.5833  0.2804
   68SAPC  H14R 5757   3.253   6.124   4.428 -0.4322  0.7594 -1.8720
   68SAPC  C215 5758   3.173   6.214   4.603 -0.3323  0.5657  0.1326
   68SAPC  H15R 5759   3.256   6.187   4.669 -0.4773 -0.8570 -0.2265
   68SAPC  C216 5760   3.064   6.291   4.669 -0.1988  0.9735  0.2865
   68SAPC  H16R 5761   3.044   6.386   4.615  0.8877  2.2668  2.0152
   68SAPC  H16S 5762   3.099   6.330   4.767 -0.3390  0.5377  0.5138
   68SAPC  C217 5763   2.934   6.211   4.705  0.3157  0.1417 -0.2419
   68SAPC  H17R 5764   2.900   6.170   4.607  1.5215 -2.0192  0.1731
   68SAPC  H17S 5765   2.851   6.282   4.724 -1.1073 -1.3024 -0.7875
   68SAPC  C218 5766   2.955   6.118   4.824  0.1215 -0.3296  0.0437
   68SAPC  H18R 5767   2.973   6.173   4.918 -0.7460 -0.1239  0.0965
   68SAPC  H18S 5768   3.056   6.083   4.795  0.0000  1.4162 -2.9493
   68SAPC  C219 5769   2.849   6.004   4.850 -0.6964 -1.3868 -0.1219
   68SAPC  H19R 5770   2.772   6.055   4.911  0.1633  0.6612 -0.6576
   68SAPC  H19S 5771   2.890   5.919   4.910 -1.7060 -1.0918  1.0277
   68SAPC  C220 5772   2.794   5.951   4.715  0.0360 -0.1542  0.8184
   68SAPC  H20R 5773   2.758   6.035   4.652 -1.4863  0.3935  2.3385
   68SAPC  H20S 5774   2.704   5.890   4.734  0.8944 -1.7341  0.0195
   68SAPC  H20T 5775   2.873   5.891   4.664  0.6727  1.3330 -0.0067
   68SAPC   C33 5776   2.804   5.180   3.701  0.0900  0.1831 -0.0360
   68SAPC   H3X 5777   2.890   5.155   3.768 -0.8495 -1.4936  0.6168
   68SAPC   H3Y 5778   2.738   5.091   3.712 -0.1431  0.2280 -1.0362
   68SAPC   C34 5779   2.732   5.301   3.761  0.7840  0.5425  0.0687
   68SAPC   H4X 5780   2.626   5.309   3.727  0.4631 -1.4137  0.5030
   68SAPC   H4Y 5781   2.787   5.390   3.724  0.7006 -0.1583 -1.8259
   68SAPC   C35 5782   2.725   5.286   3.915  0.4617  1.0923 -0.3904
   68SAPC   H5X 5783   2.684   5.381   3.955  1.1413  1.1186  0.2907
   68SAPC   H5Y 5784   2.826   5.273   3.961 -0.4568 -0.2552  1.3952
   68SAPC   C36 5785   2.633   5.166   3.961  0.4154  0.6830 -0.5032
   68SAPC   H6X 5786   2.652   5.071   3.907  0.8302  0.7574 -0.4953
   68SAPC   H6Y 5787   2.527   5.193   3.940 -0.5615 -1.4182  1.3480
   68SAPC   C37 5788   2.641   5.132   4.107  0.0988 -1.0994 -0.9759
   68SAPC   H7X 5789   2.745   5.114   4.142 -0.5831 -1.8725  0.8202
   68SAPC   H7Y 5790   2.584   5.038   4.128  1.0071 -1.5601 -0.5188
   68SAPC   C38 5791   2.578   5.242   4.196 -0.0916 -0.5354 -0.6329
   68SAPC   H8X 5792   2.484   5.281   4.152  0.9361  0.5902 -1.9581
   68SAPC   H8Y 5793   2.654   5.323   4.191 -1.2172  0.5094 -1.4231
   68SAPC   C39 5794   2.559   5.190   4.343  0.4199 -0.1453  0.1404
   68SAPC   H9X 5795   2.634   5.114   4.373 -0.5917 -0.4751  1.9729
   68SAPC   H9Y 5796   2.462   5.136   4.346  1.2127 -1.5970  1.3874
   68SAPC  C310 5797   2.559   5.305   4.445 -0.3175 -1.0089 -0.5233
   68SAPC  H10X 5798   2.519   5.391   4.386  0.1968 -1.0597 -0.9560
   68SAPC  H10Y 5799   2.661   5.335   4.478 -0.8116  1.6016 -1.1144
   68SAPC  C311 5800   2.463   5.282   4.562  0.1445 -0.2549  0.3722
   68SAPC  H11X 5801   2.508   5.220   4.642 -1.2367  0.6891  1.9475
   68SAPC  H11Y 5802   2.380   5.226   4.513  1.6824 -0.0114 -2.7401
   68SAPC  C312 5803   2.408   5.411   4.626 -0.0908  0.3822  0.1672
   68SAPC  H12X 5804   2.392   5.478   4.539  0.3177 -0.8281 -0.8762
   68SAPC  H12Y 5805   2.495   5.453   4.681  0.8190 -2.5595  1.1518
   68SAPC  C313 5806   2.288   5.411   4.715 -0.4649 -0.1371 -0.3000
   68SAPC  H13X 5807   2.217   5.331   4.683 -1.6571  2.2053 -4.2848
   68SAPC  H13Y 5808   2.234   5.508   4.711 -1.6939 -0.7782  0.1330
   68SAPC  C314 5809   2.324   5.400   4.858  0.0884  0.2677 -0.3272
   68SAPC  H14X 5810   2.404   5.472   4.884 -0.2232  0.1760  0.9522
   68SAPC  H14Y 5811   2.356   5.299   4.891 -0.9985 -0.3065 -0.9378
   68SAPC  C315 5812   2.206   5.439   4.949 -0.1720  0.7211 -0.7136
   68SAPC  H15X 5813   2.120   5.384   4.905  2.4699 -3.0357 -1.6337
   68SAPC  H15Y 5814   2.182   5.547   4.938 -0.0147  0.7870 -0.4235
   68SAPC  C316 5815   2.225   5.416   5.096  0.1098  0.8956 -0.1076
   68SAPC  H16X 5816   2.326   5.437   5.137  0.1937  0.6052 -0.1614
   68SAPC  H16Y 5817   2.220   5.306   5.109  0.2661  0.9257  0.2202
   68SAPC  C317 5818   2.139   5.487   5.202 -0.2339  0.1811 -0.2603
   68SAPC  H17X 5819   2.030   5.464   5.198 -0.6103  1.6299  0.9039
   68SAPC  H17Y 5820   2.148   5.597   5.192  0.3346  0.3654  1.8980
   68SAPC  C318 5821   2.188   5.445   5.343  0.0141 -0.1727  0.1374
   68SAPC  H18X 5822   2.143   5.348   5.374 -0.7388 -0.6955 -2.3391
   68SAPC  H18Y 5823   2.137   5.516   5.411  1.4685 -0.4819  1.6074
   68SAPC  H18Z 5824   2.297   5.453   5.359 -0.2222 -0.0387  1.7966
   69SAPC     N 5825   5.966   1.516   2.583  0.5548  0.4455 -0.0913
   69SAPC   C12 5826   5.982   1.468   2.727  0.8093 -0.2301 -0.0772
   69SAPC  H12A 5827   5.921   1.534   2.786  0.1237 -0.4150 -0.5643
   69SAPC  H12B 5828   6.085   1.476   2.760  0.6240  0.6564  0.3077
   69SAPC   C13 5829   5.823   1.544   2.548  0.8518 -0.7005  0.4819
   69SAPC  H13A 5830   5.770   1.453   2.526  0.9532 -0.4058 -1.0566
   69SAPC  H13B 5831   5.766   1.589   2.627 -1.6540 -1.5090 -0.7704
   69SAPC  H13C 5832   5.813   1.612   2.465  1.2715  0.8090  1.6327
   69SAPC   C14 5833   6.032   1.655   2.581 -0.0806  0.2627 -0.1123
   69SAPC  H14A 5834   6.139   1.644   2.592 -0.2392 -0.6767  0.7213
   69SAPC  H14B 5835   6.012   1.707   2.489  0.3734  0.4084 -0.1303
   69SAPC  H14C 5836   5.988   1.705   2.666 -0.2437  0.3233 -0.2333
   69SAPC   C15 5837   6.021   1.428   2.481 -0.3278  0.8206 -0.3101
   69SAPC  H15A 5838   6.127   1.409   2.496 -1.1063 -5.1266  0.1978
   69SAPC  H15B 5839   5.971   1.333   2.489 -0.3802  1.0050  2.6429
   69SAPC  H15C 5840   6.000   1.455   2.379 -0.0048  0.1913 -0.5505
   69SAPC   C11 5841   5.926   1.320   2.758  0.0253  0.5322 -0.2639
   69SAPC  H11A 5842   5.948   1.295   2.864  1.0287  0.2621 -0.5261
   69SAPC  H11B 5843   5.990   1.245   2.707  0.8473 -0.3211  1.8843
   69SAPC     P 5844   5.673   1.317   2.840 -0.2810  0.2336  0.2214
   69SAPC   O13 5845   5.692   1.437   2.918 -0.5175 -0.0530 -0.1268
   69SAPC   O14 5846   5.537   1.296   2.787  0.0176  0.3143  0.0096
   69SAPC   O12 5847   5.782   1.307   2.728  0.1030 -0.1648  0.4235
   69SAPC   O11 5848   5.709   1.204   2.936 -0.7375  0.1781  0.1059
   69SAPC    C1 5849   5.739   1.068   2.898 -0.2538 -0.3976  0.9222
   69SAPC    HA 5850   5.658   1.018   2.840  0.2542  0.0465 -0.2023
   69SAPC    HB 5851   5.832   1.066   2.837 -0.0416 -1.9271  1.2555
   69SAPC    C2 5852   5.778   0.983   3.021 -0.1486  0.2686 -0.6885
   69SAPC    HS 5853   5.780   0.879   2.982  1.9996 -0.5257  1.2629
   69SAPC   O21 5854   5.687   0.997   3.131  0.2681  0.2877 -0.6675
   69SAPC   C21 5855   5.559   1.023   3.102  0.0554 -0.0609  0.2477
   69SAPC   O22 5856   5.499   0.979   3.008  0.2260 -0.3450 -0.0178
   69SAPC   C22 5857   5.501   1.114   3.209 -0.2734 -0.0132  0.0058
   69SAPC   H2R 5858   5.464   1.034   3.278  1.3208  0.0613  1.0067
   69SAPC   H2S 5859   5.576   1.170   3.268 -1.0051 -0.1298  1.0864
   69SAPC    C3 5860   5.921   1.003   3.076 -0.4968  0.1891 -0.7615
   69SAPC    HX 5861   5.919   1.108   3.114  1.1442 -0.5522  1.5462
   69SAPC    HY 5862   5.988   0.990   2.988  0.5446 -2.6423  0.3339
   69SAPC   O31 5863   5.954   0.909   3.173 -0.1258  0.8180 -0.1873
   69SAPC   C31 5864   6.050   0.951   3.253 -0.7342 -0.3775 -0.1010
   69SAPC   O32 5865   6.117   1.053   3.237  0.7187  0.2267  0.8679
   69SAPC   C32 5866   6.061   0.859   3.374  0.3754 -0.7122  0.2658
   69SAPC   H2X 5867   6.045   0.752   3.349 -2.0515 -0.8112  1.8858
   69SAPC   H2Y 5868   5.974   0.887   3.438  1.2645  1.1480  0.7139
   69SAPC   C23 5869   5.386   1.198   3.148  0.1318 -0.7727 -0.0538
   69SAPC   H3R 5870   5.322   1.149   3.072 -2.1945  0.7543  0.8013
   69SAPC   H3S 5871   5.429   1.285   3.093  0.5651  0.1199  1.6234
   69SAPC   C24 5872   5.291   1.262   3.256 -0.2814  0.0725  1.1708
   69SAPC   H4R 5873   5.224   1.337   3.207 -0.0558 -0.0207  0.7088
   69SAPC   H4S 5874   5.360   1.308   3.329  0.4183 -1.8605  1.7872
   69SAPC   C25 5875   5.206   1.159   3.330  0.4270 -0.8592  0.1237
   69SAPC   H5R 5876   5.130   1.111   3.266  1.6232 -0.3626 -1.7632
   69SAPC   C26 5877   5.239   1.102   3.443  0.0362 -0.1765 -0.5638
   69SAPC   H6R 5878   5.164   1.034   3.485 -1.6750  1.3022 -1.0473
   69SAPC   C27 5879   5.349   1.150   3.538  0.5260  0.1339 -0.2129
   69SAPC   H7R 5880   5.306   1.220   3.613  1.2864 -0.1110  0.4658
   69SAPC   H7S 5881   5.429   1.204   3.484 -0.3849  2.6893  0.8314
   69SAPC   C28 5882   5.402   1.034   3.613  0.4966  0.5051 -0.2413
   69SAPC   H8R 5883   5.449   0.952   3.558  1.7445  1.4051 -0.5579
   69SAPC   C29 5884   5.410   1.019   3.746 -0.3010  0.4943  0.4214
   69SAPC   H9R 5885   5.459   0.930   3.789 -0.8581 -0.2776 -0.5169
   69SAPC  C210 5886   5.363   1.115   3.851 -0.7253 -0.0046 -0.4285
   69SAPC  H10R 5887   5.293   1.190   3.808 -1.7043 -0.8295 -0.2950
   69SAPC  H10S 5888   5.446   1.174   3.895 -0.7524 -0.7969  0.7212
   69SAPC  C211 5889   5.287   1.053   3.963  0.4113  0.2184 -0.1370
   69SAPC  H11R 5890   5.193   1.006   3.929 -0.4946  0.7899  1.4764
   69SAPC  C212 5891   5.324   1.030   4.090  0.4263  0.4293 -0.5044
   69SAPC  H12R 5892   5.250   0.995   4.163 -1.1163  1.9525 -1.2838
   69SAPC  C213 5893   5.448   1.083   4.156 -0.0148 -0.3053 -0.0150
   69SAPC  H13R 5894   5.524   1.105   4.078 -1.9414 -0.2040 -1.9735
   69SAPC  H13S 5895   5.485   0.989   4.203 -0.7439 -2.4193 -3.3066
   69SAPC  C214 5896   5.425   1.207   4.232  0.1212 -0.1439 -0.7453
   69SAPC  H14R 5897   5.416   1.299   4.172  0.7293 -0.0337 -0.6676
   69SAPC  C215 5898   5.432   1.220   4.367 -0.1264  0.6175  0.1606
   69SAPC  H15R 5899   5.401   1.314   4.415 -2.3013 -0.6491  1.3852
   69SAPC  C216 5900   5.450   1.107   4.467 -0.2265 -0.2181  0.5262
   69SAPC  H16R 5901   5.556   1.078   4.450 -0.8042 -2.0965 -0.1807
   69SAPC  H16S 5902   5.386   1.021   4.438 -0.1610 -0.4513  1.0524
   69SAPC  C217 5903   5.425   1.145   4.612 -0.5282 -0.1306 -0.4452
   69SAPC  H17R 5904   5.315   1.149   4.628 -0.4906 -0.6946  0.0091
   69SAPC  H17S 5905   5.471   1.239   4.651 -1.7408  1.0129 -1.6519
   69SAPC  C218 5906   5.475   1.031   4.700 -0.6793 -0.1130 -1.4315
   69SAPC  H18R 5907   5.488   1.061   4.806 -0.2547 -1.0308 -1.2135
   69SAPC  H18S 5908   5.579   1.002   4.673 -0.8838 -1.3287 -0.9832
   69SAPC  C219 5909   5.394   0.898   4.697 -0.7416  0.2180  0.7066
   69SAPC  H19R 5910   5.388   0.843   4.601  0.3397 -2.0455  1.8517
   69SAPC  H19S 5911   5.299   0.941   4.733 -1.0416  0.0830  0.0742
   69SAPC  C220 5912   5.449   0.799   4.796  0.1950  0.8466  0.1903
   69SAPC  H20R 5913   5.371   0.719   4.801 -0.2086  1.1900 -0.5733
   69SAPC  H20S 5914   5.456   0.844   4.897 -0.2445 -1.5005  1.3461
   69SAPC  H20T 5915   5.541   0.750   4.758 -1.2173 -1.5924 -0.3255
   69SAPC   C33 5916   6.192   0.869   3.454  0.1431  0.0442 -0.3260
   69SAPC   H3X 5917   6.224   0.968   3.494 -1.4789  1.1899 -1.7035
   69SAPC   H3Y 5918   6.283   0.830   3.403 -0.6798 -1.6918 -0.5245
   69SAPC   C34 5919   6.171   0.781   3.580 -0.2479  0.2029 -0.5594
   69SAPC   H4X 5920   6.129   0.685   3.543  0.7545 -1.4035  2.1987
   69SAPC   H4Y 5921   6.084   0.816   3.641  0.4469  1.1710 -0.1031
   69SAPC   C35 5922   6.301   0.773   3.665 -0.4718  0.0626  0.7823
   69SAPC   H5X 5923   6.339   0.873   3.695 -0.0070 -0.9452  3.9411
   69SAPC   H5Y 5924   6.391   0.741   3.608  0.1017  1.8121  0.6310
   69SAPC   C36 5925   6.286   0.693   3.796 -0.8208 -0.8475 -0.0808
   69SAPC   H6X 5926   6.267   0.588   3.765  2.4858 -2.2633  2.0993
   69SAPC   H6Y 5927   6.194   0.737   3.839 -0.0071  1.4844 -0.5689
   69SAPC   C37 5928   6.407   0.702   3.880 -0.2598  0.9118  0.1272
   69SAPC   H7X 5929   6.442   0.808   3.881  2.6957  0.0217  2.2812
   69SAPC   H7Y 5930   6.480   0.634   3.832 -1.8380  0.8973 -2.4504
   69SAPC   C38 5931   6.383   0.664   4.035  0.9485 -0.2476 -0.0018
   69SAPC   H8X 5932   6.473   0.686   4.097  1.2766 -0.7388 -0.2912
   69SAPC   H8Y 5933   6.376   0.554   4.048 -1.4128  0.0052  1.3986
   69SAPC   C39 5934   6.249   0.716   4.090  0.5959 -0.5104 -0.7518
   69SAPC   H9X 5935   6.167   0.668   4.033  0.5703 -0.1596 -1.0202
   69SAPC   H9Y 5936   6.239   0.826   4.083 -0.5280 -0.5314  0.3615
   69SAPC  C310 5937   6.206   0.673   4.238  0.2180  0.0958  0.1560
   69SAPC  H10X 5938   6.196   0.563   4.225  2.7028  0.0211 -1.7515
   69SAPC  H10Y 5939   6.108   0.716   4.267  0.9582  1.5238  0.6442
   69SAPC  C311 5940   6.299   0.711   4.351  0.2551 -0.5201  0.2366
   69SAPC  H11X 5941   6.324   0.819   4.337 -1.7161  0.1353  1.3572
   69SAPC  H11Y 5942   6.400   0.667   4.351  1.1109  1.3223 -0.7543
   69SAPC  C312 5943   6.229   0.713   4.491  0.2756  0.0903  0.3270
   69SAPC  H12X 5944   6.184   0.612   4.496  0.2952  0.0591 -0.0544
   69SAPC  H12Y 5945   6.140   0.779   4.476  0.2128 -0.4849 -2.4500
   69SAPC  C313 5946   6.318   0.750   4.610  0.1242 -0.6590 -0.4775
   69SAPC  H13X 5947   6.372   0.845   4.588 -0.2863 -0.4911 -0.7772
   69SAPC  H13Y 5948   6.393   0.669   4.620  1.2886  0.4347 -0.0407
   69SAPC  C314 5949   6.230   0.757   4.734  0.5259 -0.3217  0.0810
   69SAPC  H14X 5950   6.154   0.676   4.732  0.0933  0.0658 -2.0729
   69SAPC  H14Y 5951   6.175   0.853   4.739 -0.2946 -0.7256 -0.7930
   69SAPC  C315 5952   6.316   0.756   4.861 -0.9216 -0.7268 -1.3904
   69SAPC  H15X 5953   6.386   0.670   4.864 -0.1091 -0.0596  0.4892
   69SAPC  H15Y 5954   6.256   0.742   4.954 -0.0288  0.4543 -0.6172
   69SAPC  C316 5955   6.415   0.869   4.883 -1.1303 -1.1612 -0.9125
   69SAPC  H16X 5956   6.369   0.967   4.907 -1.2533 -1.0828 -1.4541
   69SAPC  H16Y 5957   6.477   0.880   4.792  2.5854  0.5409  1.5904
   69SAPC  C317 5958   6.502   0.843   5.004 -0.4798 -0.4997 -0.2080
   69SAPC  H17X 5959   6.562   0.756   4.971 -4.4571 -4.1703  1.4118
   69SAPC  H17Y 5960   6.440   0.797   5.083 -2.0470 -1.0914 -1.7274
   69SAPC  C318 5961   6.580   0.958   5.058 -0.0565 -0.1174  1.1352
   69SAPC  H18X 5962   6.518   1.048   5.074 -3.0751 -2.0466  1.0772
   69SAPC  H18Y 5963   6.651   0.992   4.979 -2.3963 -0.7145 -1.3972
   69SAPC  H18Z 5964   6.623   0.923   5.154  2.3544 -2.0106 -0.4942
   70SAPC     N 5965   0.969   5.297   2.658  0.5568 -0.7663 -0.1910
   70SAPC   C12 5966   0.993   5.425   2.576 -0.3709  0.3005  0.2242
   70SAPC  H12A 5967   0.983   5.398   2.472  3.7276 -0.9602 -0.0134
   70SAPC  H12B 5968   1.098   5.449   2.581 -0.1887 -0.3997 -0.0779
   70SAPC   C13 5969   0.827   5.255   2.632 -0.2467  1.0022  0.3447
   70SAPC  H13A 5970   0.765   5.331   2.676  0.0776  1.5393 -0.1033
   70SAPC  H13B 5971   0.811   5.242   2.526  1.2568 -2.9718  0.4199
   70SAPC  H13C 5972   0.816   5.156   2.675  1.7576 -0.2292 -1.7282
   70SAPC   C14 5973   1.063   5.189   2.613  0.7950  0.0551 -1.1712
   70SAPC  H14A 5974   1.164   5.222   2.630  1.0365  0.0463 -2.4688
   70SAPC  H14B 5975   1.043   5.100   2.672  0.0617  0.6471 -0.4957
   70SAPC  H14C 5976   1.048   5.152   2.513 -1.5140 -0.4054 -0.7324
   70SAPC   C15 5977   0.988   5.327   2.801 -0.0394  0.1170 -0.7536
   70SAPC  H15A 5978   0.924   5.408   2.833 -0.1918 -1.3640  3.1652
   70SAPC  H15B 5979   0.948   5.248   2.862 -0.6272  1.2468  0.3679
   70SAPC  H15C 5980   1.089   5.354   2.827 -0.3104 -0.0727  0.5591
   70SAPC   C11 5981   0.906   5.548   2.606 -0.2679  0.0001  0.0425
   70SAPC  H11A 5982   0.940   5.633   2.544  1.2232 -0.2885  0.4399
   70SAPC  H11B 5983   0.928   5.584   2.709  0.9473 -0.3464 -0.0826
   70SAPC     P 5984   0.668   5.609   2.683 -0.1723  0.4024 -0.4345
   70SAPC   O13 5985   0.719   5.735   2.720 -0.4822 -0.4985  0.0684
   70SAPC   O14 5986   0.534   5.610   2.625  0.0953 -0.5534 -0.5434
   70SAPC   O12 5987   0.764   5.539   2.584 -0.5192  0.4471 -0.1277
   70SAPC   O11 5988   0.672   5.510   2.815 -0.0081  0.0299 -0.6660
   70SAPC    C1 5989   0.558   5.456   2.882  0.5513  0.5722  0.5597
   70SAPC    HA 5990   0.499   5.391   2.814  1.6585 -0.8163  0.8826
   70SAPC    HB 5991   0.595   5.396   2.968  0.0575  0.2620  0.5572
   70SAPC    C2 5992   0.458   5.557   2.953 -0.2274 -0.3395 -0.2934
   70SAPC    HS 5993   0.401   5.615   2.877 -1.6535  1.2300  1.8680
   70SAPC   O21 5994   0.540   5.646   3.024 -0.1606  0.0980  0.1667
   70SAPC   C21 5995   0.491   5.759   3.067 -0.3342 -0.5738  0.3547
   70SAPC   O22 5996   0.376   5.795   3.057 -0.1531 -0.0118  0.2875
   70SAPC   C22 5997   0.599   5.832   3.145 -0.0966  0.1019  0.1045
   70SAPC   H2R 5998   0.651   5.753   3.203 -1.1170 -1.0547 -0.5137
   70SAPC   H2S 5999   0.667   5.874   3.068 -1.4594  1.3253 -0.4713
   70SAPC    C3 6000   0.350   5.494   3.050 -0.1038  0.1796  0.5103
   70SAPC    HX 6001   0.292   5.422   2.989 -0.8116 -0.5439  2.0054
   70SAPC    HY 6002   0.274   5.573   3.069 -1.4640  0.0062 -3.3658
   70SAPC   O31 6003   0.403   5.443   3.178  0.3050 -0.2309  0.2070
   70SAPC   C31 6004   0.319   5.381   3.255 -0.5962  0.4127  0.7541
   70SAPC   O32 6005   0.204   5.358   3.235 -0.0560  1.1444  0.0643
   70SAPC   C32 6006   0.395   5.326   3.385  0.2138  0.1079  0.3076
   70SAPC   H2X 6007   0.465   5.408   3.415 -0.0084  0.5389 -0.3190
   70SAPC   H2Y 6008   0.457   5.240   3.353 -0.4796  0.0601 -0.9549
   70SAPC   C23 6009   0.545   5.960   3.221 -0.0060 -0.1864 -0.0044
   70SAPC   H3R 6010   0.476   5.919   3.298  2.6889 -0.3404  2.5092
   70SAPC   H3S 6011   0.487   6.027   3.154  1.1012 -0.7518 -1.5967
   70SAPC   C24 6012   0.658   6.034   3.294 -0.3807 -0.0941 -0.0901
   70SAPC   H4R 6013   0.722   6.074   3.213 -0.5300  1.3482  0.4729
   70SAPC   H4S 6014   0.711   5.965   3.363 -0.1073  0.6370  0.4492
   70SAPC   C25 6015   0.612   6.153   3.373  0.2415  0.1112  0.4507
   70SAPC   H5R 6016   0.623   6.241   3.308  1.0408 -0.9098 -0.8419
   70SAPC   C26 6017   0.560   6.149   3.493 -1.1004 -0.1514 -0.3828
   70SAPC   H6R 6018   0.548   6.248   3.540 -1.9381  0.8243 -2.5309
   70SAPC   C27 6019   0.536   6.027   3.584 -0.3393 -0.2815 -0.3245
   70SAPC   H7R 6020   0.512   5.932   3.531  0.1584 -0.4348 -0.2763
   70SAPC   H7S 6021   0.455   6.048   3.657 -0.9752 -0.3664 -0.9956
   70SAPC   C28 6022   0.669   6.001   3.649  0.2127  0.4234 -1.4580
   70SAPC   H8R 6023   0.759   6.003   3.586  1.7157 -1.6213  0.4629
   70SAPC   C29 6024   0.690   6.018   3.782  0.7496  0.1519  0.4040
   70SAPC   H9R 6025   0.791   6.002   3.822  1.5694  3.3667 -0.0760
   70SAPC  C210 6026   0.584   6.027   3.892 -0.3346  0.3846  0.1244
   70SAPC  H10R 6027   0.536   6.127   3.900 -0.3015  0.6398 -2.3395
   70SAPC  H10S 6028   0.651   6.017   3.980  2.8287 -2.9986 -2.3647
   70SAPC  C211 6029   0.475   5.916   3.896  0.1721  0.2443 -0.3679
   70SAPC  H11R 6030   0.455   5.867   3.800  0.1448 -2.0758  0.7567
   70SAPC  C212 6031   0.416   5.871   4.010 -0.0720 -0.7678  0.3170
   70SAPC  H12R 6032   0.330   5.803   4.003 -0.2146 -0.6327  0.7240
   70SAPC  C213 6033   0.445   5.934   4.148 -0.5484  0.7284 -0.1619
   70SAPC  H13R 6034   0.510   6.024   4.141  0.8140 -0.3316 -3.1987
   70SAPC  H13S 6035   0.514   5.863   4.199  0.7923  2.8458  1.1620
   70SAPC  C214 6036   0.322   5.941   4.231 -0.2119 -0.0956 -0.0053
   70SAPC  H14R 6037   0.229   5.911   4.179 -0.9312 -0.6779  1.5524
   70SAPC  C215 6038   0.325   5.954   4.367  0.2780  0.2916  0.8522
   70SAPC  H15R 6039   0.234   5.954   4.427 -0.6249 -0.7376 -0.4516
   70SAPC  C216 6040   0.444   5.972   4.452  0.2371  0.1533  0.3257
   70SAPC  H16R 6041   0.441   6.070   4.505  1.0447  0.1820  0.3409
   70SAPC  H16S 6042   0.541   5.962   4.397  1.1457 -1.1580  2.0700
   70SAPC  C217 6043   0.436   5.870   4.566  0.8460 -0.0598  0.3933
   70SAPC  H17R 6044   0.331   5.865   4.603  0.6182  0.7085 -0.0936
   70SAPC  H17S 6045   0.505   5.910   4.643 -0.0877  4.3741 -0.7411
   70SAPC  C218 6046   0.487   5.730   4.531  0.2335  0.1782 -0.2312
   70SAPC  H18R 6047   0.591   5.722   4.493  0.1814 -2.4042 -0.0538
   70SAPC  H18S 6048   0.425   5.681   4.453  0.2725  0.9860 -0.7690
   70SAPC  C219 6049   0.495   5.647   4.664 -0.0225 -0.0550 -0.1336
   70SAPC  H19R 6050   0.494   5.537   4.648  0.2049 -0.1476  0.4730
   70SAPC  H19S 6051   0.399   5.665   4.716  0.1379  0.8357 -0.1307
   70SAPC  C220 6052   0.615   5.685   4.748 -0.0489 -0.0736  0.1030
   70SAPC  H20R 6053   0.714   5.650   4.713  1.0413  1.5574  1.3578
   70SAPC  H20S 6054   0.602   5.649   4.853 -0.3893  1.7585  0.7346
   70SAPC  H20T 6055   0.630   5.795   4.756  1.4087 -0.2203 -0.2043
   70SAPC   C33 6056   0.307   5.291   3.496  0.7478  0.7562 -0.2103
   70SAPC   H3X 6057   0.348   5.201   3.548 -0.5835  0.7435  0.8648
   70SAPC   H3Y 6058   0.208   5.265   3.452  1.5055  1.4533 -2.4427
   70SAPC   C34 6059   0.291   5.409   3.589 -0.0511 -0.0178 -0.5570
   70SAPC   H4X 6060   0.214   5.471   3.540  0.5751  1.2321  0.0026
   70SAPC   H4Y 6061   0.389   5.460   3.596 -0.2084  0.3182 -0.8013
   70SAPC   C35 6062   0.240   5.364   3.731 -0.0226  0.0482  0.2019
   70SAPC   H5X 6063   0.291   5.273   3.769 -1.5721 -0.5771  0.8638
   70SAPC   H5Y 6064   0.133   5.341   3.713  0.2596 -1.5245  0.3974
   70SAPC   C36 6065   0.262   5.478   3.829  0.6744 -0.3970 -0.0606
   70SAPC   H6X 6066   0.187   5.560   3.825 -0.2456 -1.1006  1.7614
   70SAPC   H6Y 6067   0.364   5.522   3.819  0.3001  0.9608  1.5670
   70SAPC   C37 6068   0.235   5.419   3.974 -0.3525 -0.0505  0.0105
   70SAPC   H7X 6069   0.138   5.366   3.965 -0.7716  0.7658 -0.2733
   70SAPC   H7Y 6070   0.315   5.347   4.005 -0.9858 -0.9937 -0.4830
   70SAPC   C38 6071   0.231   5.531   4.078  0.2051  0.0877  0.2264
   70SAPC   H8X 6072   0.166   5.614   4.043 -1.1902 -0.8021  0.6173
   70SAPC   H8Y 6073   0.334   5.572   4.086  1.0223 -1.7039 -0.6832
   70SAPC   C39 6074   0.177   5.490   4.211 -0.0770  0.3819 -0.0471
   70SAPC   H9X 6075   0.253   5.424   4.258 -1.1125 -1.7053 -1.1405
   70SAPC   H9Y 6076   0.088   5.426   4.193 -1.1115  2.3911 -3.0163
   70SAPC  C310 6077   0.155   5.610   4.301 -0.0997 -0.0652  0.0720
   70SAPC  H10X 6078   0.084   5.674   4.246  0.5776  1.3018  0.7452
   70SAPC  H10Y 6079   0.250   5.663   4.325 -0.4747  2.1199 -2.7277
   70SAPC  C311 6080   0.077   5.561   4.428 -0.3513 -0.5835 -0.0742
   70SAPC  H11X 6081   0.148   5.488   4.471  0.5179 -0.3677 -1.1009
   70SAPC  H11Y 6082  -0.013   5.506   4.394 -0.1799  0.0450 -1.6525
   70SAPC  C312 6083   0.061   5.678   4.527  0.1135 -0.4442 -0.1743
   70SAPC  H12X 6084  -0.007   5.756   4.488 -0.3467 -0.5821  0.3277
   70SAPC  H12Y 6085   0.153   5.740   4.530 -0.4949  0.4515  0.7671
   70SAPC  C313 6086   0.003   5.643   4.669  0.3753  0.4139  0.3388
   70SAPC  H13X 6087   0.072   5.573   4.720 -0.5763 -1.6118 -1.0172
   70SAPC  H13Y 6088  -0.096   5.599   4.643  2.1620 -3.0017 -1.4515
   70SAPC  C314 6089  -0.030   5.761   4.754 -0.0450  0.8421  0.1799
   70SAPC  H14X 6090  -0.117   5.817   4.713  0.2609  1.6938  0.6668
   70SAPC  H14Y 6091   0.051   5.835   4.740  1.7809 -0.9381  0.7998
   70SAPC  C315 6092  -0.064   5.722   4.900 -0.0555  0.1243  0.3767
   70SAPC  H15X 6093  -0.129   5.632   4.903  2.7280 -2.0409 -0.2336
   70SAPC  H15Y 6094  -0.125   5.808   4.936 -0.3465  0.4936 -0.9481
   70SAPC  C316 6095   0.055   5.721   4.992  0.5042  0.0981 -0.1179
   70SAPC  H16X 6096   0.114   5.631   4.966 -0.3107 -0.4097 -0.2264
   70SAPC  H16Y 6097   0.024   5.714   5.098 -3.6329  0.1622 -1.1466
   70SAPC  C317 6098   0.153   5.840   4.974  1.2083 -0.4633 -0.5416
   70SAPC  H17X 6099   0.084   5.927   4.980  2.1605  0.2244  0.8925
   70SAPC  H17Y 6100   0.193   5.837   4.871  1.5125 -1.1534 -0.4090
   70SAPC  C318 6101   0.264   5.857   5.080  0.1149 -0.3063  0.5271
   70SAPC  H18X 6102   0.220   5.836   5.179 -1.0175 -1.6340 -0.2304
   70SAPC  H18Y 6103   0.299   5.963   5.083 -2.7337  0.7294 -0.0619
   70SAPC  H18Z 6104   0.352   5.800   5.044  2.3567  3.5650 -0.8024
   71SAPC     N 6105   4.957   1.399   2.612  0.8267 -0.6260 -0.0128
   71SAPC   C12 6106   4.806   1.376   2.595  0.5316  0.1871  0.8175
   71SAPC  H12A 6107   4.781   1.289   2.535  0.2776  0.7345  0.1178
   71SAPC  H12B 6108   4.769   1.448   2.524  0.3942 -1.0474 -0.4211
   71SAPC   C13 6109   4.979   1.535   2.660 -0.0562  0.3666  0.6032
   71SAPC  H13A 6110   4.929   1.553   2.754  0.6246 -0.2785  1.0928
   71SAPC  H13B 6111   5.083   1.562   2.671 -0.2149  0.1046  3.3897
   71SAPC  H13C 6112   4.926   1.598   2.590  3.1716 -0.8258 -3.3283
   71SAPC   C14 6113   5.015   1.300   2.715 -0.5652 -0.4014 -0.0412
   71SAPC  H14A 6114   4.954   1.299   2.803 -0.2750 -0.0409  0.1676
   71SAPC  H14B 6115   5.016   1.199   2.677  1.2339  0.1324 -1.6107
   71SAPC  H14C 6116   5.116   1.329   2.740 -0.2973  2.1129 -3.2814
   71SAPC   C15 6117   5.026   1.379   2.478  0.0059 -0.1431 -0.6831
   71SAPC  H15A 6118   4.999   1.287   2.428  2.0158 -0.4236 -1.3534
   71SAPC  H15B 6119   4.999   1.460   2.412  1.2038 -0.9813 -2.2633
   71SAPC  H15C 6120   5.131   1.387   2.502 -0.6248  1.8845  1.8543
   71SAPC   C11 6121   4.717   1.400   2.713  0.0752  0.3067 -0.0227
   71SAPC  H11A 6122   4.735   1.490   2.775 -0.3475  0.8686 -0.6995
   71SAPC  H11B 6123   4.725   1.321   2.791  0.1733  1.1726  0.8672
   71SAPC     P 6124   4.505   1.521   2.645 -0.0077 -0.0278  0.1977
   71SAPC   O13 6125   4.587   1.627   2.578  0.3975  0.0233  0.3061
   71SAPC   O14 6126   4.373   1.499   2.579  0.6222 -0.0772 -0.3377
   71SAPC   O12 6127   4.583   1.393   2.660  0.0643  0.3599 -0.3220
   71SAPC   O11 6128   4.482   1.556   2.797 -0.0629 -0.0962  0.2172
   71SAPC    C1 6129   4.411   1.467   2.880 -0.6603 -0.2706  0.4952
   71SAPC    HA 6130   4.304   1.464   2.852 -0.9409  1.3593  1.2705
   71SAPC    HB 6131   4.450   1.364   2.873 -0.1302 -0.0159 -0.6076
   71SAPC    C2 6132   4.420   1.516   3.024  0.4280 -0.0608 -0.2492
   71SAPC    HS 6133   4.371   1.431   3.078  2.2461 -1.3366 -0.5099
   71SAPC   O21 6134   4.352   1.640   3.041  0.3926  0.1095  0.0588
   71SAPC   C21 6135   4.263   1.654   3.138 -0.7911 -0.6579 -0.4280
   71SAPC   O22 6136   4.215   1.560   3.199 -0.3244 -0.2159 -0.0622
   71SAPC   C22 6137   4.259   1.800   3.187  0.8053  0.0559 -0.5104
   71SAPC   H2R 6138   4.363   1.836   3.170  0.8165 -0.6719 -2.0806
   71SAPC   H2S 6139   4.180   1.856   3.133 -0.1923  0.6952  1.5012
   71SAPC    C3 6140   4.569   1.541   3.066 -0.0014  0.2903  0.3058
   71SAPC    HX 6141   4.614   1.623   3.008 -0.1132 -0.3376 -0.6917
   71SAPC    HY 6142   4.628   1.457   3.023 -0.7039  0.4864 -1.0993
   71SAPC   O31 6143   4.582   1.556   3.207  0.3775 -0.2239 -0.0732
   71SAPC   C31 6144   4.703   1.570   3.245  0.0947 -0.2410  0.8367
   71SAPC   O32 6145   4.805   1.544   3.181 -0.0837 -0.1094  0.2018
   71SAPC   C32 6146   4.700   1.612   3.391  0.0272 -0.0821  0.0330
   71SAPC   H2X 6147   4.605   1.587   3.442  0.9900 -0.2135  1.8760
   71SAPC   H2Y 6148   4.698   1.723   3.386 -1.4170 -0.1054 -0.1611
   71SAPC   C23 6149   4.231   1.813   3.343  0.5699 -0.9070  0.8345
   71SAPC   H3R 6150   4.148   1.747   3.375 -0.3070 -1.5238 -2.3103
   71SAPC   H3S 6151   4.198   1.917   3.359  1.4890 -0.5456  0.4693
   71SAPC   C24 6152   4.360   1.788   3.427  0.1532 -0.5495 -0.2229
   71SAPC   H4R 6153   4.431   1.871   3.409  1.2143 -0.9905  1.6399
   71SAPC   H4S 6154   4.399   1.690   3.391 -0.8492 -0.9062 -0.3546
   71SAPC   C25 6155   4.330   1.782   3.574  0.5865  0.0392  0.0028
   71SAPC   H5R 6156   4.236   1.730   3.598  0.5663  0.0490 -0.0534
   71SAPC   C26 6157   4.411   1.828   3.676  0.9214 -0.4279  0.4427
   71SAPC   H6R 6158   4.374   1.810   3.778  1.0678 -0.3738  0.5048
   71SAPC   C27 6159   4.548   1.879   3.662  0.3512  0.4460 -0.0425
   71SAPC   H7R 6160   4.555   1.982   3.701  1.5267  0.8660 -1.2651
   71SAPC   H7S 6161   4.566   1.894   3.553  0.4154  2.0620  0.1739
   71SAPC   C28 6162   4.647   1.803   3.739  0.0015  0.2272 -0.0240
   71SAPC   H8R 6163   4.678   1.719   3.675 -0.9484  0.3177 -0.6300
   71SAPC   C29 6164   4.700   1.823   3.860 -0.4098  0.2708 -0.3579
   71SAPC   H9R 6165   4.783   1.761   3.895  1.2077  1.4149 -1.9616
   71SAPC  C210 6166   4.634   1.906   3.970  0.0219 -0.7527 -1.0803
   71SAPC  H10R 6167   4.536   1.944   3.934 -0.0194 -1.3587 -1.6215
   71SAPC  H10S 6168   4.695   1.998   3.987 -0.8194  0.1794 -2.8574
   71SAPC  C211 6169   4.604   1.832   4.104  0.1402 -0.3645 -0.0156
   71SAPC  H11R 6170   4.519   1.763   4.092  1.0842 -1.4736 -0.5495
   71SAPC  C212 6171   4.667   1.838   4.223  0.6355 -0.3482  0.0568
   71SAPC  H12R 6172   4.627   1.776   4.305 -1.9813 -0.3424 -1.1188
   71SAPC  C213 6173   4.785   1.926   4.255  0.2757  0.2665  0.6414
   71SAPC  H13R 6174   4.797   1.999   4.172 -0.0862 -0.0994  0.2611
   71SAPC  H13S 6175   4.875   1.861   4.258  0.2364  0.1573 -0.3598
   71SAPC  C214 6176   4.768   2.012   4.379  0.3813 -0.2449 -0.2452
   71SAPC  H14R 6177   4.755   2.119   4.357 -0.2680  0.3048  2.4656
   71SAPC  C215 6178   4.773   1.971   4.506 -0.2636 -0.4114 -0.2479
   71SAPC  H15R 6179   4.748   2.045   4.584  0.3154 -0.7073  0.2271
   71SAPC  C216 6180   4.789   1.834   4.559 -0.2578  0.6231 -0.1877
   71SAPC  H16R 6181   4.783   1.749   4.488 -1.2449 -0.4568  1.1308
   71SAPC  H16S 6182   4.721   1.804   4.642  0.9289 -1.3340  0.1403
   71SAPC  C217 6183   4.932   1.836   4.626 -0.3732 -0.2826  0.5687
   71SAPC  H17R 6184   4.999   1.905   4.571 -1.1496  1.3166  1.5569
   71SAPC  H17S 6185   4.981   1.736   4.622 -2.5308 -1.4146  1.1718
   71SAPC  C218 6186   4.933   1.889   4.766 -0.4220  0.1040 -0.0058
   71SAPC  H18R 6187   4.868   1.826   4.830 -0.4658  1.0809  0.9355
   71SAPC  H18S 6188   4.888   1.990   4.779 -0.8154 -0.3330  2.5179
   71SAPC  C219 6189   5.074   1.899   4.833  0.2985 -0.1878  0.0089
   71SAPC  H19R 6190   5.137   1.972   4.777  0.4831 -0.0622  0.3800
   71SAPC  H19S 6191   5.126   1.802   4.818  1.1112  0.2062  0.2140
   71SAPC  C220 6192   5.070   1.936   4.981  0.2615  0.1632 -0.4816
   71SAPC  H20R 6193   5.052   1.838   5.031 -0.8035 -1.2662 -3.4550
   71SAPC  H20S 6194   4.980   1.996   5.008  0.5732  0.0784  0.7971
   71SAPC  H20T 6195   5.169   1.980   5.007  0.5223  0.5410 -2.0107
   71SAPC   C33 6196   4.820   1.545   3.480  0.7178 -0.2020 -0.7561
   71SAPC   H3X 6197   4.838   1.624   3.557 -0.2552  1.3882 -2.0738
   71SAPC   H3Y 6198   4.913   1.542   3.419  0.5236 -1.3452 -1.0095
   71SAPC   C34 6199   4.786   1.402   3.524 -0.2464  0.0047  0.5853
   71SAPC   H4X 6200   4.873   1.342   3.556  0.3750  1.7617  2.3213
   71SAPC   H4Y 6201   4.733   1.357   3.437 -0.7457  2.0451 -0.2206
   71SAPC   C35 6202   4.692   1.407   3.646  0.0243  0.3939 -0.1826
   71SAPC   H5X 6203   4.618   1.324   3.648  0.5841 -0.1025  0.0374
   71SAPC   H5Y 6204   4.626   1.497   3.649 -0.2349  0.1967  0.3308
   71SAPC   C36 6205   4.768   1.411   3.778  0.9112  0.4187 -0.8836
   71SAPC   H6X 6206   4.839   1.497   3.771 -2.0470  2.9985 -1.9988
   71SAPC   H6Y 6207   4.807   1.310   3.799 -2.4256 -0.8249 -0.0436
   71SAPC   C37 6208   4.684   1.441   3.897  0.9274  0.5678 -0.8138
   71SAPC   H7X 6209   4.628   1.352   3.933  3.0386  0.0136  1.3899
   71SAPC   H7Y 6210   4.616   1.528   3.885 -0.8591 -0.6771 -0.1081
   71SAPC   C38 6211   4.770   1.485   4.014  0.1695  0.4736 -0.3792
   71SAPC   H8X 6212   4.812   1.586   3.996  0.3178  0.7912  1.5213
   71SAPC   H8Y 6213   4.857   1.416   4.022 -0.9987 -0.8202  2.6615
   71SAPC   C39 6214   4.719   1.483   4.158 -0.2238  0.9775 -1.0885
   71SAPC   H9X 6215   4.670   1.384   4.175  0.7999  0.5791 -0.4008
   71SAPC   H9Y 6216   4.636   1.556   4.168 -1.6434 -0.6914 -0.1365
   71SAPC  C310 6217   4.830   1.507   4.260 -0.1565  0.1300 -0.1790
   71SAPC  H10X 6218   4.834   1.614   4.290 -1.3803  0.5012 -1.2713
   71SAPC  H10Y 6219   4.926   1.500   4.204 -0.7604 -0.5468 -1.1527
   71SAPC  C311 6220   4.822   1.416   4.380 -0.0441  0.6786 -0.5045
   71SAPC  H11X 6221   4.810   1.311   4.345  2.5594  0.8963 -2.3225
   71SAPC  H11Y 6222   4.728   1.440   4.434 -1.0927 -1.1956 -1.4031
   71SAPC  C312 6223   4.948   1.423   4.473 -0.2845  0.0803  0.1197
   71SAPC  H12X 6224   4.980   1.527   4.493  2.1650 -0.7229  0.7106
   71SAPC  H12Y 6225   5.034   1.366   4.432  0.0874  0.3377  0.5331
   71SAPC  C313 6226   4.914   1.359   4.605  0.3526  0.3125 -1.3332
   71SAPC  H13X 6227   4.847   1.272   4.588 -0.8708  0.7521  0.9202
   71SAPC  H13Y 6228   4.858   1.432   4.667 -0.3160 -1.8439  0.7743
   71SAPC  C314 6229   5.024   1.304   4.686 -0.5439 -0.3709 -0.2115
   71SAPC  H14X 6230   5.100   1.249   4.625 -0.4078  0.7126 -1.0531
   71SAPC  H14Y 6231   4.989   1.233   4.764 -0.7839 -1.6089 -1.4063
   71SAPC  C315 6232   5.108   1.418   4.761  1.0500 -0.3278 -0.3116
   71SAPC  H15X 6233   5.037   1.470   4.830  2.8435  1.4800  0.2877
   71SAPC  H15Y 6234   5.142   1.491   4.684 -0.9072  0.9656 -0.0277
   71SAPC  C316 6235   5.226   1.359   4.845  0.4487  0.5528  0.1060
   71SAPC  H16X 6236   5.300   1.305   4.782  1.0884  1.2836  0.2263
   71SAPC  H16Y 6237   5.178   1.295   4.922 -1.9556  0.1557 -1.5735
   71SAPC  C317 6238   5.303   1.473   4.915 -0.1401 -0.2242 -0.2542
   71SAPC  H17X 6239   5.229   1.546   4.955 -0.7247 -0.6373 -0.5791
   71SAPC  H17Y 6240   5.363   1.532   4.843 -0.6835 -1.7560 -2.0309
   71SAPC  C318 6241   5.381   1.428   5.043  0.4445 -0.0729 -0.0242
   71SAPC  H18X 6242   5.312   1.381   5.116 -1.2128  2.6010  0.2544
   71SAPC  H18Y 6243   5.430   1.519   5.086  0.2934  0.3710 -0.7699
   71SAPC  H18Z 6244   5.464   1.372   4.995  0.4499  1.7061 -2.3136
   72SAPC     N 6245   0.032   2.579   2.473 -0.8494 -1.0995  0.2809
   72SAPC   C12 6246  -0.004   2.625   2.615 -0.5858 -0.3300 -0.4406
   72SAPC  H12A 6247  -0.112   2.634   2.609 -0.4684  1.8733 -0.0901
   72SAPC  H12B 6248   0.031   2.726   2.628 -0.2011 -0.7539  2.2379
   72SAPC   C13 6249  -0.010   2.695   2.376  0.3635 -0.0042 -0.1274
   72SAPC  H13A 6250  -0.029   2.657   2.277  2.9141  1.9670 -1.4766
   72SAPC  H13B 6251  -0.105   2.732   2.411 -0.5411 -2.4238  0.1875
   72SAPC  H13C 6252   0.057   2.778   2.359  1.9179 -1.5999 -2.4224
   72SAPC   C14 6253   0.180   2.563   2.472 -0.1052 -0.3619 -0.0173
   72SAPC  H14A 6254   0.220   2.565   2.372 -0.2123  0.8177 -0.0419
   72SAPC  H14B 6255   0.223   2.645   2.527  0.6139  1.0829 -2.5995
   72SAPC  H14C 6256   0.217   2.475   2.523  0.1104 -0.7555 -0.8403
   72SAPC   C15 6257  -0.040   2.458   2.424 -1.2529  0.1221  0.0672
   72SAPC  H15A 6258  -0.002   2.412   2.334 -1.3440 -1.2823  0.7196
   72SAPC  H15B 6259  -0.038   2.381   2.500 -0.1257 -2.2084 -2.1443
   72SAPC  H15C 6260  -0.147   2.466   2.409 -1.6311 -2.5124  0.7695
   72SAPC   C11 6261   0.054   2.529   2.723 -0.1425 -0.4089 -0.5665
   72SAPC  H11A 6262   0.035   2.573   2.823  3.8465 -1.0122  0.6033
   72SAPC  H11B 6263   0.162   2.508   2.709 -0.4418 -1.7734 -1.0032
   72SAPC     P 6264  -0.134   2.359   2.796 -0.2686 -0.3976 -0.4739
   72SAPC   O13 6265  -0.242   2.453   2.770 -0.1148  0.3559 -0.2769
   72SAPC   O14 6266  -0.165   2.219   2.764  0.1470 -0.2657  0.0772
   72SAPC   O12 6267  -0.007   2.400   2.706 -0.2195 -0.5134 -0.8136
   72SAPC   O11 6268  -0.087   2.374   2.944  0.3202  0.2976 -0.7351
   72SAPC    C1 6269   0.022   2.294   2.988  0.1634 -0.5080  0.4914
   72SAPC    HA 6270   0.077   2.245   2.905 -1.2190 -0.4710 -0.4795
   72SAPC    HB 6271   0.101   2.360   3.028 -1.4482  1.5118  0.5109
   72SAPC    C2 6272  -0.019   2.192   3.097  0.5202  0.1043 -0.1120
   72SAPC    HS 6273   0.079   2.146   3.120 -0.0472  0.1238  2.7480
   72SAPC   O21 6274  -0.126   2.115   3.047 -0.6954 -0.0073  0.1642
   72SAPC   C21 6275  -0.109   1.978   3.062 -0.4479 -0.0729 -0.2215
   72SAPC   O22 6276   0.002   1.931   3.078 -0.6926 -0.1110  0.4391
   72SAPC   C22 6277  -0.239   1.901   3.051 -0.0256 -0.2054  0.3723
   72SAPC   H2R 6278  -0.282   1.937   2.955  1.0686 -2.1165 -0.9044
   72SAPC   H2S 6279  -0.216   1.793   3.036  3.1447  0.0838  2.3019
   72SAPC    C3 6280  -0.056   2.270   3.223  0.5191 -0.7154  0.4367
   72SAPC    HX 6281  -0.119   2.357   3.197  0.6369 -0.1402  1.9922
   72SAPC    HY 6282   0.041   2.305   3.265 -0.6022  1.0557  1.6683
   72SAPC   O31 6283  -0.122   2.190   3.326 -0.0446 -0.2578 -0.2125
   72SAPC   C31 6284  -0.123   2.255   3.442  0.9256  0.3985 -0.1309
   72SAPC   O32 6285  -0.090   2.373   3.458  0.3124  0.5698 -0.4141
   72SAPC   C32 6286  -0.185   2.158   3.543  0.3997 -0.2403 -0.2030
   72SAPC   H2X 6287  -0.109   2.078   3.561  1.0257  0.4150  0.1067
   72SAPC   H2Y 6288  -0.271   2.100   3.503  1.3290 -3.9878  2.6816
   72SAPC   C23 6289  -0.352   1.932   3.153  0.2700 -0.2031  0.6856
   72SAPC   H3R 6290  -0.447   1.886   3.118 -1.0912  2.2876  0.8393
   72SAPC   H3S 6291  -0.359   2.042   3.167  3.5093  0.2696 -0.5653
   72SAPC   C24 6292  -0.330   1.883   3.293 -0.3614 -0.1601  0.0128
   72SAPC   H4R 6293  -0.413   1.925   3.354 -0.3678  0.0028 -0.1088
   72SAPC   H4S 6294  -0.240   1.938   3.327 -0.9238  1.5153 -1.1133
   72SAPC   C25 6295  -0.317   1.740   3.317 -0.1143  0.5145 -0.4453
   72SAPC   H5R 6296  -0.238   1.692   3.258  0.3419  1.7482 -0.8771
   72SAPC   C26 6297  -0.395   1.668   3.401  0.4279  0.3870 -0.5752
   72SAPC   H6R 6298  -0.373   1.561   3.406 -2.2064 -0.1723  2.3887
   72SAPC   C27 6299  -0.501   1.708   3.504  0.0667  0.0251  0.5770
   72SAPC   H7R 6300  -0.527   1.816   3.492  0.3344  0.5525  3.8204
   72SAPC   H7S 6301  -0.477   1.697   3.612  1.8050  1.1563  0.3489
   72SAPC   C28 6302  -0.624   1.627   3.489  0.2645 -0.2483  0.5861
   72SAPC   H8R 6303  -0.646   1.577   3.393 -2.8737  3.4431 -0.9073
   72SAPC   C29 6304  -0.713   1.603   3.584 -0.3099  0.0097 -0.0119
   72SAPC   H9R 6305  -0.786   1.522   3.569  0.8114 -1.6928  2.7462
   72SAPC  C210 6306  -0.718   1.657   3.725 -1.1873 -0.1790  0.1641
   72SAPC  H10R 6307  -0.660   1.751   3.718 -0.1988 -0.7128  0.9762
   72SAPC  H10S 6308  -0.663   1.592   3.796  2.9007 -0.2597 -2.7951
   72SAPC  C211 6309  -0.856   1.681   3.776  0.0404 -0.1244 -0.0077
   72SAPC  H11R 6310  -0.930   1.726   3.709  1.4097  0.2363 -1.3429
   72SAPC  C212 6311  -0.912   1.654   3.898 -0.5344 -0.2708  0.0161
   72SAPC  H12R 6312  -1.015   1.685   3.918 -1.3627 -1.9866 -1.3504
   72SAPC  C213 6313  -0.830   1.618   4.014  0.5523  0.3161 -0.2864
   72SAPC  H13R 6314  -0.765   1.704   4.041  2.0287 -1.1849  1.1040
   72SAPC  H13S 6315  -0.748   1.549   3.988  1.3234  1.1120 -0.0189
   72SAPC  C214 6316  -0.911   1.549   4.128 -0.1035 -0.4959 -0.2589
   72SAPC  H14R 6317  -0.988   1.483   4.088 -0.7238  0.2986 -0.4036
   72SAPC  C215 6318  -0.913   1.579   4.260 -0.2428 -0.0595 -0.0715
   72SAPC  H15R 6319  -0.981   1.514   4.318  0.0348 -1.9468 -1.7350
   72SAPC  C216 6320  -0.834   1.687   4.328  0.0586  0.2057  0.5639
   72SAPC  H16R 6321  -0.748   1.725   4.267  1.5806 -0.5564  2.1547
   72SAPC  H16S 6322  -0.786   1.651   4.422  1.2371 -0.2085 -0.1641
   72SAPC  C217 6323  -0.924   1.808   4.363  0.0351  0.2472 -0.0173
   72SAPC  H17R 6324  -0.963   1.862   4.274  0.7767  1.0734  0.1473
   72SAPC  H17S 6325  -0.867   1.885   4.420  0.9506  0.9369 -1.7777
   72SAPC  C218 6326  -1.046   1.780   4.454 -0.7837 -0.0104  0.1258
   72SAPC  H18R 6327  -1.108   1.694   4.420 -0.8195 -0.2785  0.8640
   72SAPC  H18S 6328  -1.117   1.865   4.465  0.5409  0.8374  2.7570
   72SAPC  C219 6329  -1.006   1.753   4.596 -0.2152 -0.4467 -0.5653
   72SAPC  H19R 6330  -0.920   1.817   4.624  0.1243 -1.6780  1.4218
   72SAPC  H19S 6331  -0.949   1.660   4.612  0.8941  0.5084  1.5283
   72SAPC  C220 6332  -1.116   1.753   4.700 -0.1133  0.6174  0.0355
   72SAPC  H20R 6333  -1.076   1.729   4.800 -1.7092  2.5477  1.2165
   72SAPC  H20S 6334  -1.185   1.670   4.672  1.3981 -0.5225 -0.4084
   72SAPC  H20T 6335  -1.168   1.852   4.701  0.5351  0.9663  0.0793
   72SAPC   C33 6336  -0.203   2.218   3.686  0.2706 -0.0841 -0.2021
   72SAPC   H3X 6337  -0.253   2.317   3.682  0.3510  0.0789  1.7726
   72SAPC   H3Y 6338  -0.109   2.235   3.743  0.7722  1.2716 -1.3606
   72SAPC   C34 6339  -0.285   2.117   3.772 -0.0159 -0.6491  0.3375
   72SAPC   H4X 6340  -0.265   2.152   3.876  2.2414 -1.0921  0.1001
   72SAPC   H4Y 6341  -0.235   2.019   3.761 -0.8801 -1.0402 -0.2089
   72SAPC   C35 6342  -0.434   2.104   3.748  0.5251 -0.6443  0.2305
   72SAPC   H5X 6343  -0.463   2.070   3.646 -1.4255 -1.5844  1.0505
   72SAPC   H5Y 6344  -0.484   2.200   3.772  2.2139  0.6433 -1.1375
   72SAPC   C36 6345  -0.501   1.987   3.833 -0.4016 -1.1285  0.8667
   72SAPC   H6X 6346  -0.424   1.909   3.850 -0.6797 -1.4083  0.8539
   72SAPC   H6Y 6347  -0.583   1.941   3.774  0.8370  0.5927 -2.4336
   72SAPC   C37 6348  -0.538   2.040   3.971  0.5329 -0.6472  0.3918
   72SAPC   H7X 6349  -0.590   2.138   3.961 -0.0363 -0.6978  2.4726
   72SAPC   H7Y 6350  -0.449   2.061   4.033 -0.0281 -0.7130  1.2348
   72SAPC   C38 6351  -0.645   1.948   4.039 -0.3747  0.8407  0.1450
   72SAPC   H8X 6352  -0.602   1.847   4.052  2.2608  1.8287 -0.3086
   72SAPC   H8Y 6353  -0.725   1.935   3.963 -1.8847  3.8903  1.0300
   72SAPC   C39 6354  -0.695   1.993   4.173 -0.5909  0.4391 -0.9223
   72SAPC   H9X 6355  -0.613   1.981   4.247  0.2487 -1.3739 -2.0752
   72SAPC   H9Y 6356  -0.774   1.920   4.202 -0.8538  0.2626 -2.0429
   72SAPC  C310 6357  -0.741   2.143   4.174  0.0129  0.0366 -0.2397
   72SAPC  H10X 6358  -0.822   2.159   4.100 -0.0095  0.8994 -0.0422
   72SAPC  H10Y 6359  -0.652   2.208   4.158 -1.0702  1.0224 -2.8671
   72SAPC  C311 6360  -0.804   2.200   4.301 -0.1786  0.4267 -0.5713
   72SAPC  H11X 6361  -0.754   2.160   4.392  1.3735  2.9411 -0.2370
   72SAPC  H11Y 6362  -0.910   2.164   4.301 -0.4507  1.1482 -2.2318
   72SAPC  C312 6363  -0.805   2.347   4.322  0.1137  0.6271  0.3379
   72SAPC  H12X 6364  -0.846   2.402   4.235  0.1152 -0.0875 -0.1170
   72SAPC  H12Y 6365  -0.698   2.376   4.335 -0.0622  1.6805 -0.4441
   72SAPC  C313 6366  -0.881   2.387   4.454  0.1213 -0.3953  0.2329
   72SAPC  H13X 6367  -0.849   2.325   4.542 -0.9168  0.5322  1.2987
   72SAPC  H13Y 6368  -0.991   2.375   4.449  0.1783 -0.8459 -0.0173
   72SAPC  C314 6369  -0.859   2.533   4.486  0.2743 -0.1751 -0.2419
   72SAPC  H14X 6370  -0.920   2.597   4.419  1.2560  1.3383  0.2503
   72SAPC  H14Y 6371  -0.755   2.565   4.466  0.1411  0.5114  0.1140
   72SAPC  C315 6372  -0.886   2.561   4.639  0.1157 -0.0038 -0.1746
   72SAPC  H15X 6373  -0.812   2.498   4.692  0.0468  0.1337  0.0882
   72SAPC  H15Y 6374  -0.982   2.515   4.669  0.4919 -0.2224  0.7220
   72SAPC  C316 6375  -0.884   2.712   4.677  0.2690 -0.0869 -0.0640
   72SAPC  H16X 6376  -0.938   2.719   4.773  0.8052 -3.1128  0.5825
   72SAPC  H16Y 6377  -0.958   2.757   4.607 -0.7345 -1.1847  0.2600
   72SAPC  C317 6378  -0.754   2.783   4.668 -0.5932  0.1996 -0.0534
   72SAPC  H17X 6379  -0.702   2.767   4.572  0.5019  3.4072 -0.1052
   72SAPC  H17Y 6380  -0.694   2.731   4.746  0.7690 -1.1998 -1.9702
   72SAPC  C318 6381  -0.772   2.930   4.700  0.1376 -0.0229  0.4400
   72SAPC  H18X 6382  -0.676   2.977   4.727  0.2908  0.2616 -0.5451
   72SAPC  H18Y 6383  -0.838   2.949   4.787  0.0010  0.6014  0.2042
   72SAPC  H18Z 6384  -0.830   2.986   4.623  0.5966  0.6847  0.5988
   73SLPC     N 6385   2.380   4.840   7.231  0.4116  1.0756 -0.9149
   73SLPC   C13 6386   2.237   4.863   7.194 -0.5466  0.1292 -1.1979
   73SLPC  H13A 6387   2.211   4.968   7.191  0.2045  0.3750  0.1005
   73SLPC  H13B 6388   2.215   4.817   7.099 -0.6785 -2.4156 -0.0079
   73SLPC  H13C 6389   2.177   4.826   7.276  1.1447  0.7095  0.3744
   73SLPC   C14 6390   2.461   4.885   7.110  0.3368 -0.5960  0.4039
   73SLPC  H14A 6391   2.436   4.984   7.075 -1.5952 -2.1057 -2.9816
   73SLPC  H14B 6392   2.562   4.887   7.149 -0.1075 -2.7326  1.8579
   73SLPC  H14C 6393   2.468   4.809   7.033 -1.7817 -0.9846  0.5439
   73SLPC   C15 6394   2.394   4.690   7.244  0.2719  0.8041 -0.3000
   73SLPC  H15A 6395   2.497   4.659   7.260  0.4349  1.9277  0.9896
   73SLPC  H15B 6396   2.350   4.651   7.335  0.2961  0.6622 -0.3477
   73SLPC  H15C 6397   2.345   4.644   7.159  1.5488 -1.6043  0.1467
   73SLPC   C12 6398   2.414   4.919   7.353  0.2491  0.8046 -0.6673
   73SLPC  H12A 6399   2.341   4.913   7.432  1.9311  1.3640  1.0079
   73SLPC  H12B 6400   2.411   5.027   7.347 -1.8422  0.8472  0.4008
   73SLPC   C11 6401   2.559   4.900   7.409  0.3490  1.0412 -0.1664
   73SLPC  H11A 6402   2.570   4.789   7.413 -1.6064  0.7780 -0.8885
   73SLPC  H11B 6403   2.562   4.938   7.513  2.4890 -0.2661  0.3204
   73SLPC     P 6404   2.816   4.936   7.371 -0.0340 -0.0823  0.2215
   73SLPC   O13 6405   2.877   5.065   7.404 -0.0116 -0.2093  0.3393
   73SLPC   O14 6406   2.839   4.822   7.462  0.2221  0.5487 -0.3024
   73SLPC   O12 6407   2.662   4.953   7.325  0.2346 -0.1253  0.0488
   73SLPC   O11 6408   2.886   4.890   7.240 -0.0452 -0.1345 -0.0028
   73SLPC    C1 6409   2.894   4.970   7.128 -1.0301 -0.3677 -0.7749
   73SLPC    HA 6410   2.859   5.074   7.143 -0.3314 -0.4307  1.6632
   73SLPC    HB 6411   3.000   4.978   7.097 -0.3919 -0.2007  1.3359
   73SLPC    C2 6412   2.816   4.927   7.004  0.2379  0.7094  0.2732
   73SLPC    HS 6413   2.712   4.912   7.040 -0.2377  2.1945 -0.3973
   73SLPC   O21 6414   2.880   4.813   6.943  0.3418  0.7971 -0.1881
   73SLPC   C21 6415   2.802   4.731   6.878 -0.0463 -0.3024  0.1653
   73SLPC   O22 6416   2.678   4.746   6.871 -0.2436 -0.3138 -0.1815
   73SLPC   C22 6417   2.875   4.632   6.793  0.5706  0.9334  0.7072
   73SLPC   H2R 6418   2.937   4.695   6.726  0.7915  0.2908  0.2906
   73SLPC   H2S 6419   2.943   4.572   6.857  2.4275  1.7766 -0.3731
   73SLPC    C3 6420   2.812   5.051   6.902 -0.2807  0.6621 -0.7646
   73SLPC    HX 6421   2.919   5.080   6.895  0.1559 -1.0621 -1.5984
   73SLPC    HY 6422   2.755   5.139   6.940  0.6229  0.9565 -0.0633
   73SLPC   O31 6423   2.754   5.007   6.778 -0.4808  0.1124  0.7416
   73SLPC   C31 6424   2.841   4.989   6.677  0.0976  0.7390 -0.0451
   73SLPC   O32 6425   2.963   4.976   6.685  0.0775  0.0829  0.4297
   73SLPC   C32 6426   2.767   4.999   6.542 -0.3119 -0.1899 -0.2845
   73SLPC   H2X 6427   2.714   5.097   6.537 -0.1598  0.1110  2.2120
   73SLPC   H2Y 6428   2.691   4.918   6.540 -0.4080 -0.1097 -0.0108
   73SLPC   C23 6429   2.789   4.552   6.698 -0.9259  0.7699 -0.6068
   73SLPC   H3R 6430   2.714   4.493   6.755 -0.4403  0.2677 -0.4755
   73SLPC   H3S 6431   2.859   4.471   6.668 -0.4429  0.9738 -0.0503
   73SLPC   C24 6432   2.712   4.627   6.591  0.0827  0.7056  0.2908
   73SLPC   H4R 6433   2.784   4.668   6.517  1.2340 -0.4952  0.7128
   73SLPC   H4S 6434   2.676   4.718   6.644  0.7884  0.6765  0.8374
   73SLPC   C25 6435   2.619   4.522   6.525 -0.0138 -0.1965  0.0171
   73SLPC   H5R 6436   2.562   4.474   6.608  1.9991 -0.7408  1.1408
   73SLPC   H5S 6437   2.681   4.435   6.495  0.5211 -0.6922  2.3863
   73SLPC   C26 6438   2.520   4.578   6.416 -0.5510  0.0533  0.1611
   73SLPC   H6R 6439   2.448   4.654   6.453  0.3754  0.3076  1.5208
   73SLPC   H6S 6440   2.471   4.483   6.383  2.1136 -1.2455 -0.3157
   73SLPC   C27 6441   2.603   4.637   6.299 -0.2463 -0.1780 -0.6561
   73SLPC   H7R 6442   2.688   4.570   6.273 -0.6568  0.0368 -2.8072
   73SLPC   H7S 6443   2.642   4.737   6.327 -3.1157  0.5798  0.9792
   73SLPC   C28 6444   2.518   4.639   6.169  0.1829 -0.3316  0.4297
   73SLPC   H8R 6445   2.452   4.549   6.159  1.2020 -0.9096 -1.5982
   73SLPC   H8S 6446   2.589   4.641   6.084 -0.0926 -1.1399  0.1663
   73SLPC   C29 6447   2.436   4.766   6.157  0.1389  0.1724 -0.1884
   73SLPC   H9R 6448   2.390   4.791   6.254  1.4616  1.1796  0.2059
   73SLPC  C210 6449   2.426   4.839   6.043 -0.4482  0.3012 -0.1605
   73SLPC  H10R 6450   2.357   4.926   6.044 -3.1807 -1.6745  2.0077
   73SLPC  C211 6451   2.482   4.807   5.906  0.0075  0.2395 -0.2998
   73SLPC  H11R 6452   2.589   4.775   5.912 -1.0255 -3.3406  2.8936
   73SLPC  H11S 6453   2.497   4.895   5.840  1.7421  0.3133  0.1389
   73SLPC  C212 6454   2.417   4.697   5.836  0.1548 -0.1009 -0.3665
   73SLPC  H12R 6455   2.365   4.625   5.900 -0.9506 -0.6960 -1.8552
   73SLPC  C213 6456   2.431   4.668   5.705 -0.7747  0.3890 -0.0746
   73SLPC  H13R 6457   2.392   4.574   5.664  1.3409 -1.0529  1.0089
   73SLPC  C214 6458   2.518   4.754   5.612  1.0685  0.8440  0.2405
   73SLPC  H14R 6459   2.627   4.743   5.632  1.0666  0.0210 -0.1812
   73SLPC  H14S 6460   2.489   4.860   5.633  0.9188  0.7133  0.7176
   73SLPC  C215 6461   2.499   4.725   5.464  0.6110 -0.3306 -0.2166
   73SLPC  H15R 6462   2.523   4.618   5.447 -0.2916 -0.7417  0.9847
   73SLPC  H15S 6463   2.573   4.785   5.407  0.6125 -0.1022  0.0259
   73SLPC  C216 6464   2.352   4.741   5.429  0.0194  0.0075  0.2711
   73SLPC  H16R 6465   2.304   4.823   5.487 -1.9220 -0.3894 -0.6704
   73SLPC  H16S 6466   2.307   4.641   5.444  1.6059 -0.6334  0.9113
   73SLPC  C217 6467   2.339   4.770   5.273  0.5114  0.3168 -0.4723
   73SLPC  H17R 6468   2.394   4.863   5.249 -1.5768  1.2958 -1.7815
   73SLPC  H17S 6469   2.234   4.778   5.238  0.4662  0.2483 -0.3539
   73SLPC  C218 6470   2.399   4.663   5.169 -0.4748 -0.9187 -0.4013
   73SLPC  H18R 6471   2.352   4.564   5.182 -0.4531 -0.8851 -0.0494
   73SLPC  H18S 6472   2.508   4.665   5.190 -0.5973  0.6407  0.2939
   73SLPC  H18T 6473   2.379   4.688   5.063 -2.2622 -2.5848 -0.5086
   73SLPC   C33 6474   2.866   4.982   6.419  0.4654 -0.1238 -0.3683
   73SLPC   H3X 6475   2.907   4.879   6.416  2.5053  0.6124  0.4449
   73SLPC   H3Y 6476   2.945   5.058   6.438  1.6296 -0.8795 -2.0399
   73SLPC   C34 6477   2.796   5.023   6.286 -0.4500  0.1135  0.5781
   73SLPC   H4X 6478   2.755   5.126   6.279  0.3870  0.4523  0.4745
   73SLPC   H4Y 6479   2.710   4.953   6.278 -0.8376  0.3010  2.6999
   73SLPC   C35 6480   2.894   5.014   6.170 -0.3473 -0.5967 -0.1307
   73SLPC   H5X 6481   2.947   4.916   6.170 -1.5175 -1.2601  0.9914
   73SLPC   H5Y 6482   2.964   5.100   6.164 -1.0403 -0.0515 -0.4816
   73SLPC   C36 6483   2.810   5.022   6.041 -0.0577  0.4083 -0.9075
   73SLPC   H6X 6484   2.766   5.124   6.034 -2.1084 -0.5019 -2.4095
   73SLPC   H6Y 6485   2.724   4.952   6.042 -0.1426  0.4968 -1.5791
   73SLPC   C37 6486   2.908   5.008   5.922  0.2116 -0.1336 -0.4508
   73SLPC   H7X 6487   2.979   4.928   5.952  0.1042 -0.1768 -0.3093
   73SLPC   H7Y 6488   2.959   5.106   5.914  0.6785 -0.2867  0.5666
   73SLPC   C38 6489   2.847   4.965   5.790  0.8975  1.0054  0.0095
   73SLPC   H8X 6490   2.776   5.039   5.747 -1.3626 -0.3827  1.1833
   73SLPC   H8Y 6491   2.788   4.877   5.821 -0.9766  2.4147  0.6326
   73SLPC   C39 6492   2.943   4.930   5.671  0.9640 -0.7666 -0.0039
   73SLPC   H9X 6493   2.994   4.836   5.699 -1.1557 -1.7644  0.7213
   73SLPC   H9Y 6494   3.012   5.015   5.650 -2.4395  1.7152 -2.1502
   73SLPC  C310 6495   2.859   4.893   5.540  0.5878 -0.4107  0.2825
   73SLPC  H10X 6496   2.810   4.983   5.497 -2.0863 -0.8260  2.2071
   73SLPC  H10Y 6497   2.779   4.822   5.569  1.5217 -1.3844  0.5138
   73SLPC  C311 6498   2.949   4.836   5.442 -0.4176  0.5689 -1.1434
   73SLPC  H11X 6499   3.002   4.751   5.491 -0.1419  2.5078  2.2556
   73SLPC  H11Y 6500   3.024   4.913   5.412  1.3698 -0.0997  1.3240
   73SLPC  C312 6501   2.883   4.787   5.308  0.2889 -0.2923 -0.3308
   73SLPC  H12X 6502   2.812   4.702   5.318  1.0332 -0.7984  0.8282
   73SLPC  H12Y 6503   2.968   4.746   5.250  0.4244 -0.8720  0.2677
   73SLPC  C313 6504   2.810   4.900   5.237 -0.0742  0.1639 -0.2164
   73SLPC  H13X 6505   2.876   4.989   5.229 -2.1387  1.7643 -0.3424
   73SLPC  H13Y 6506   2.729   4.936   5.304 -0.6396  1.9519 -1.7636
   73SLPC  C314 6507   2.766   4.849   5.101  0.4434 -0.6123  0.6123
   73SLPC  H14X 6508   2.727   4.745   5.109 -2.0705  0.1368 -0.7171
   73SLPC  H14Y 6509   2.868   4.851   5.059 -0.0608 -1.3026 -0.6811
   73SLPC  C315 6510   2.674   4.947   5.024  0.7809 -0.6441  0.1302
   73SLPC  H15X 6511   2.710   5.052   5.023 -0.4012 -0.1471  2.5561
   73SLPC  H15Y 6512   2.570   4.936   5.061  0.6509 -0.3154 -0.1348
   73SLPC  C316 6513   2.649   4.900   4.880 -0.7050 -0.0444 -0.2920
   73SLPC  H16X 6514   2.587   4.808   4.889  0.6271 -1.1234 -1.5862
   73SLPC  H16Y 6515   2.742   4.876   4.824 -1.8098 -0.7686 -1.9155
   73SLPC  C317 6516   2.581   5.013   4.798 -0.9200 -0.0895  0.2431
   73SLPC  H17X 6517   2.597   4.994   4.690 -0.0723  0.6607  0.2251
   73SLPC  H17Y 6518   2.627   5.113   4.813  1.6183 -1.0023 -0.8201
   73SLPC  C318 6519   2.435   5.025   4.837 -0.1253 -0.4626  0.1366
   73SLPC  H18X 6520   2.387   5.105   4.777  1.1112  0.6678  0.5933
   73SLPC  H18Y 6521   2.425   5.055   4.943 -1.6685  2.2524 -0.7004
   73SLPC  H18Z 6522   2.379   4.931   4.820 -0.8796 -0.2942  1.5724
   74SLPC     N 6523   1.997   4.071   7.599 -0.7755 -0.1171  0.1073
   74SLPC   C13 6524   2.076   3.952   7.562  0.4792  0.3191 -0.3262
   74SLPC  H13A 6525   2.128   3.970   7.469  1.4445  0.2703  0.1883
   74SLPC  H13B 6526   2.158   3.927   7.628  0.8807 -0.1106 -0.9753
   74SLPC  H13C 6527   2.013   3.866   7.542  0.6688  0.0450  0.2240
   74SLPC   C14 6528   2.099   4.171   7.659  0.0798 -0.2910 -1.5366
   74SLPC  H14A 6529   2.155   4.229   7.587  2.1255  0.4435  0.5225
   74SLPC  H14B 6530   2.046   4.244   7.718  0.0186 -0.4393 -1.4048
   74SLPC  H14C 6531   2.176   4.133   7.725 -0.4153  1.6150  0.2541
   74SLPC   C15 6532   1.890   4.031   7.701  0.1987 -0.0643  0.7113
   74SLPC  H15A 6533   1.935   3.983   7.786 -0.7787 -0.2804  1.1161
   74SLPC  H15B 6534   1.839   4.118   7.740 -1.3496  0.1520 -1.5670
   74SLPC  H15C 6535   1.813   3.971   7.655 -1.1993 -0.6599  3.6241
   74SLPC   C12 6536   1.927   4.130   7.479 -0.2086 -0.4437 -0.9185
   74SLPC  H12A 6537   1.901   4.226   7.520  0.4473 -1.0066  0.8733
   74SLPC  H12B 6538   1.842   4.065   7.467  2.0659 -4.1478  1.1982
   74SLPC   C11 6539   2.008   4.152   7.352  0.1712  0.3859  0.2456
   74SLPC  H11A 6540   1.941   4.196   7.276 -0.6147 -0.1249  0.6315
   74SLPC  H11B 6541   2.055   4.062   7.307  1.3799  0.2427  1.6916
   74SLPC     P 6542   2.130   4.393   7.326  0.0327  0.3046 -0.4671
   74SLPC   O13 6543   1.998   4.458   7.344  0.6588  0.2121  1.2238
   74SLPC   O14 6544   2.242   4.458   7.398 -0.3045  0.1054  0.3442
   74SLPC   O12 6545   2.124   4.242   7.370  0.2371  0.2724 -0.2447
   74SLPC   O11 6546   2.154   4.379   7.176 -0.4303 -0.1058 -0.2403
   74SLPC    C1 6547   2.274   4.328   7.124 -0.0524  0.2898 -0.6689
   74SLPC    HA 6548   2.356   4.402   7.130 -0.4306  0.6288  0.6709
   74SLPC    HB 6549   2.310   4.245   7.190 -1.1340 -0.8941 -1.5211
   74SLPC    C2 6550   2.266   4.258   6.985  0.0322  0.0724 -0.0701
   74SLPC    HS 6551   2.230   4.337   6.917  0.2920  1.3919  1.2796
   74SLPC   O21 6552   2.188   4.145   6.995  0.5146  0.4992  0.8650
   74SLPC   C21 6553   2.063   4.159   6.957  0.2377 -0.6214  0.1009
   74SLPC   O22 6554   2.013   4.264   6.916 -0.3453  0.4424  0.0202
   74SLPC   C22 6555   1.999   4.020   6.944 -0.8565 -0.6060 -0.1955
   74SLPC   H2R 6556   2.032   3.954   7.027 -0.8160 -0.8608 -0.4127
   74SLPC   H2S 6557   1.888   4.030   6.952 -0.6531  0.0926  2.5615
   74SLPC    C3 6558   2.415   4.222   6.944  0.1232  0.1413 -0.3958
   74SLPC    HX 6559   2.461   4.170   7.030  1.7833  1.9513 -0.1161
   74SLPC    HY 6560   2.465   4.321   6.944 -0.2666  0.3456 -0.8961
   74SLPC   O31 6561   2.422   4.151   6.816 -0.4430 -0.1709 -0.5320
   74SLPC   C31 6562   2.403   4.223   6.707 -0.0358 -0.1567  0.1483
   74SLPC   O32 6563   2.373   4.339   6.702 -0.2340 -0.2801 -0.1755
   74SLPC   C32 6564   2.410   4.127   6.588 -0.1667  0.1286 -0.1121
   74SLPC   H2X 6565   2.343   4.039   6.600  0.3981 -0.3840 -0.5771
   74SLPC   H2Y 6566   2.518   4.099   6.588 -0.3965 -0.8350 -1.1299
   74SLPC   C23 6567   2.040   3.947   6.820  0.1684  0.0252  0.2235
   74SLPC   H3R 6568   2.010   3.842   6.836 -2.6860  0.8112  0.7170
   74SLPC   H3S 6569   2.148   3.962   6.797  0.1376 -0.5648 -0.3284
   74SLPC   C24 6570   1.963   3.996   6.698 -0.2753  0.0475 -0.3993
   74SLPC   H4R 6571   1.963   4.107   6.689  1.5334  0.4488  3.0090
   74SLPC   H4S 6572   1.857   3.967   6.711 -0.0831 -0.1824  0.7782
   74SLPC   C25 6573   2.004   3.932   6.566  0.2571  0.0311  0.0083
   74SLPC   H5R 6574   2.003   3.821   6.572  2.0061 -0.0498 -0.5828
   74SLPC   H5S 6575   2.111   3.957   6.547  0.8032 -0.5728  2.0025
   74SLPC   C26 6576   1.921   3.971   6.443  0.6459 -0.5094  0.5214
   74SLPC   H6R 6577   1.940   4.078   6.422  0.1487  0.0123  2.5969
   74SLPC   H6S 6578   1.811   3.956   6.456  0.6301 -0.0938  0.8527
   74SLPC   C27 6579   1.948   3.884   6.315 -0.1494 -0.2135 -0.2249
   74SLPC   H7R 6580   1.949   3.778   6.347  0.0341 -0.3709 -0.7398
   74SLPC   H7S 6581   2.048   3.913   6.276 -0.9657  0.4196 -1.9407
   74SLPC   C28 6582   1.843   3.899   6.204  0.6717  0.0245 -0.2367
   74SLPC   H8R 6583   1.747   3.905   6.260  0.3443 -2.0303 -0.4823
   74SLPC   H8S 6584   1.852   3.805   6.145  1.3959  0.4772 -0.8594
   74SLPC   C29 6585   1.863   4.026   6.120  0.0173 -0.2767 -0.4491
   74SLPC   H9R 6586   1.845   4.126   6.161 -0.8221 -0.1527 -1.0751
   74SLPC  C210 6587   1.889   4.027   5.990  0.4052  0.2601  1.1017
   74SLPC  H10R 6588   1.900   4.125   5.942  0.1471  0.3121  1.1489
   74SLPC  C211 6589   1.917   3.905   5.906  0.2448 -1.1680 -0.2292
   74SLPC  H11R 6590   1.817   3.875   5.867 -0.6740 -0.1358  1.2555
   74SLPC  H11S 6591   1.950   3.820   5.970 -1.6453 -0.1568  2.2296
   74SLPC  C212 6592   2.025   3.938   5.799 -0.3284  0.5399 -0.4840
   74SLPC  H12R 6593   2.108   3.996   5.841  0.3305 -1.0456  0.4740
   74SLPC  C213 6594   2.026   3.911   5.667  0.8712  0.6723  0.2919
   74SLPC  H13R 6595   2.113   3.940   5.608 -0.3435 -0.4502 -2.1734
   74SLPC  C214 6596   1.909   3.831   5.600 -0.2412 -1.2947  0.5175
   74SLPC  H14R 6597   1.911   3.857   5.492  1.4860 -1.5700  0.4537
   74SLPC  H14S 6598   1.812   3.863   5.645 -0.5118  0.6626 -1.2444
   74SLPC  C215 6599   1.929   3.688   5.614  0.0754  0.4776  0.1221
   74SLPC  H15R 6600   1.958   3.666   5.719  2.1552  0.9909 -0.2817
   74SLPC  H15S 6601   2.024   3.677   5.558  0.0859 -0.5556  0.3161
   74SLPC  C216 6602   1.813   3.593   5.578 -0.0610 -0.0671  0.2806
   74SLPC  H16R 6603   1.756   3.632   5.491 -0.6076  2.0932  1.5397
   74SLPC  H16S 6604   1.734   3.592   5.656 -0.8616  0.1463 -0.5018
   74SLPC  C217 6605   1.861   3.445   5.552  0.0384 -0.2270  0.0489
   74SLPC  H17R 6606   1.774   3.375   5.557 -0.1439  0.0996  2.2348
   74SLPC  H17S 6607   1.918   3.412   5.641  1.4167  2.3862  0.2048
   74SLPC  C218 6608   1.934   3.420   5.418  0.4141  0.0208 -0.5745
   74SLPC  H18R 6609   1.956   3.312   5.403  0.2005  0.0239 -0.9083
   74SLPC  H18S 6610   2.035   3.468   5.414  0.4903  0.0526  1.1381
   74SLPC  H18T 6611   1.878   3.467   5.334  0.2839  1.2627  0.1840
   74SLPC   C33 6612   2.379   4.192   6.453  0.5783 -0.2663  0.1492
   74SLPC   H3X 6613   2.458   4.269   6.445  0.4816 -0.2639 -0.9132
   74SLPC   H3Y 6614   2.273   4.223   6.446  0.1569 -1.3858  1.1905
   74SLPC   C34 6615   2.389   4.104   6.322 -0.6579  0.4896  0.0624
   74SLPC   H4X 6616   2.294   4.047   6.319  0.2354 -1.0195 -2.1443
   74SLPC   H4Y 6617   2.480   4.042   6.337  0.1096  1.7909  0.9646
   74SLPC   C35 6618   2.395   4.174   6.193  0.0591  0.3939  0.2004
   74SLPC   H5X 6619   2.489   4.235   6.189  2.9620 -3.6367  1.1356
   74SLPC   H5Y 6620   2.311   4.246   6.186 -0.2665  0.3450  2.6575
   74SLPC   C36 6621   2.418   4.070   6.079  0.4203  0.8214  0.8259
   74SLPC   H6X 6622   2.335   3.996   6.072  0.6716  0.7167 -3.4154
   74SLPC   H6Y 6623   2.501   3.997   6.091 -1.2630 -1.0370  1.7104
   74SLPC   C37 6624   2.426   4.134   5.940 -0.1454  0.0416  0.4488
   74SLPC   H7X 6625   2.528   4.174   5.929  0.6387 -2.1990 -1.4165
   74SLPC   H7Y 6626   2.358   4.220   5.925  1.2094  0.9578 -0.7007
   74SLPC   C38 6627   2.426   4.043   5.814  0.3830  0.0573 -0.1269
   74SLPC   H8X 6628   2.328   3.993   5.801  1.4734 -2.7126  1.4172
   74SLPC   H8Y 6629   2.502   3.962   5.812  1.7317  1.2816 -0.2061
   74SLPC   C39 6630   2.460   4.128   5.689 -0.0522  0.3705  0.3060
   74SLPC   H9X 6631   2.566   4.158   5.703  0.4383 -1.2775  0.3228
   74SLPC   H9Y 6632   2.391   4.215   5.691 -0.3534  0.1170  1.6365
   74SLPC  C310 6633   2.453   4.046   5.559  0.2024  0.2086  0.5274
   74SLPC  H10X 6634   2.351   4.002   5.560 -0.4593  1.5079 -1.7274
   74SLPC  H10Y 6635   2.526   3.962   5.562 -0.7798 -0.7114 -0.6168
   74SLPC  C311 6636   2.473   4.131   5.430  0.6886  0.2408 -0.3850
   74SLPC  H11X 6637   2.573   4.174   5.407  0.2196  1.8299  0.3975
   74SLPC  H11Y 6638   2.406   4.219   5.439 -1.1098 -1.1813  0.7563
   74SLPC  C312 6639   2.435   4.053   5.300  0.8031 -0.1319 -0.2812
   74SLPC  H12X 6640   2.410   4.133   5.228  0.9619  0.7796  0.6665
   74SLPC  H12Y 6641   2.342   3.995   5.318  1.9895 -1.5525  1.6706
   74SLPC  C313 6642   2.540   3.948   5.257  0.2935  0.0358  0.6185
   74SLPC  H13X 6643   2.491   3.871   5.194  0.1389  1.3557 -0.9360
   74SLPC  H13Y 6644   2.586   3.885   5.337 -0.8461 -0.0893  1.1914
   74SLPC  C314 6645   2.659   4.009   5.179  0.0957  0.2248 -0.5793
   74SLPC  H14X 6646   2.720   4.049   5.263  1.4277 -0.8216 -1.0267
   74SLPC  H14Y 6647   2.628   4.091   5.111 -0.5532  1.4785  1.1476
   74SLPC  C315 6648   2.728   3.915   5.081 -0.4319  0.2668  0.2068
   74SLPC  H15X 6649   2.735   3.818   5.135  0.6908 -0.5458 -1.3026
   74SLPC  H15Y 6650   2.836   3.934   5.062 -0.5860 -0.0798 -1.1404
   74SLPC  C316 6651   2.644   3.912   4.951 -0.4579  0.1956  0.6080
   74SLPC  H16X 6652   2.653   4.014   4.906 -1.2974 -0.1177 -0.3086
   74SLPC  H16Y 6653   2.540   3.887   4.981 -0.7216  1.3256  0.6774
   74SLPC  C317 6654   2.695   3.812   4.848  0.1637 -0.1504  0.0410
   74SLPC  H17X 6655   2.802   3.823   4.819  0.1160  0.7838  0.1924
   74SLPC  H17Y 6656   2.631   3.836   4.759  0.4854  3.3384  0.6040
   74SLPC  C318 6657   2.669   3.665   4.888  0.0688 -0.4145  0.2699
   74SLPC  H18X 6658   2.564   3.639   4.909 -0.0691  0.9561  1.4733
   74SLPC  H18Y 6659   2.728   3.638   4.978  1.5333 -1.5024 -0.9603
   74SLPC  H18Z 6660   2.710   3.607   4.803  1.8321  1.3175 -0.1417
   75SLPC     N 6661   3.221   4.833   7.550 -0.0340 -0.3074  0.6234
   75SLPC   C13 6662   3.311   4.902   7.649  0.6352  0.5454 -0.2002
   75SLPC  H13A 6663   3.366   4.839   7.718  1.6672  0.7659 -0.7959
   75SLPC  H13B 6664   3.389   4.945   7.588  0.6947  0.4520 -0.1906
   75SLPC  H13C 6665   3.267   4.984   7.704  1.5688  0.1513  1.1950
   75SLPC   C14 6666   3.087   4.825   7.620 -0.0248 -0.2096 -0.5808
   75SLPC  H14A 6667   3.095   4.751   7.699  0.4000  0.4406 -0.0021
   75SLPC  H14B 6668   3.057   4.918   7.665  1.6035 -0.6324  1.5058
   75SLPC  H14C 6669   3.004   4.800   7.555 -2.4567  2.3860  1.2875
   75SLPC   C15 6670   3.276   4.691   7.520 -0.3457 -0.7143 -0.6792
   75SLPC  H15A 6671   3.367   4.691   7.463 -0.6291 -1.0079 -1.1435
   75SLPC  H15B 6672   3.293   4.635   7.611  3.7094  0.2537 -0.6640
   75SLPC  H15C 6673   3.202   4.650   7.453  0.6815 -1.3183 -1.4625
   75SLPC   C12 6674   3.205   4.916   7.426 -0.7010  0.3788 -0.0937
   75SLPC  H12A 6675   3.160   5.013   7.435  0.1336  0.7831 -0.2053
   75SLPC  H12B 6676   3.148   4.853   7.359  0.6197 -1.7141  0.6385
   75SLPC   C11 6677   3.336   4.956   7.355  0.4221  0.3919  0.2168
   75SLPC  H11A 6678   3.324   4.971   7.246 -0.7099 -0.1400  0.2626
   75SLPC  H11B 6679   3.411   4.874   7.358  1.1058  1.0270  1.0061
   75SLPC     P 6680   3.526   5.130   7.396  0.1722  0.5449 -0.3000
   75SLPC   O13 6681   3.539   5.242   7.486 -0.3652 -0.3992 -0.3370
   75SLPC   O14 6682   3.623   5.021   7.406 -0.0766  1.2744 -0.8445
   75SLPC   O12 6683   3.382   5.078   7.414  0.5487 -0.2636 -0.2902
   75SLPC   O11 6684   3.509   5.177   7.248 -0.0944 -0.4611 -0.0261
   75SLPC    C1 6685   3.566   5.295   7.196 -0.5938  0.2224  0.3883
   75SLPC    HA 6686   3.536   5.388   7.249  0.5225  0.4666  0.6119
   75SLPC    HB 6687   3.677   5.287   7.188 -0.8801 -2.5341 -2.4176
   75SLPC    C2 6688   3.509   5.309   7.051 -0.0920 -0.4185 -0.4541
   75SLPC    HS 6689   3.561   5.393   6.999  0.0932 -0.6523 -0.6513
   75SLPC   O21 6690   3.372   5.325   7.045  0.6600 -0.1270 -0.4219
   75SLPC   C21 6691   3.331   5.445   7.079 -0.1755 -0.2013  0.3621
   75SLPC   O22 6692   3.402   5.541   7.110  0.0026 -0.5140 -0.1164
   75SLPC   C22 6693   3.177   5.458   7.067  0.0232  0.7395  0.5717
   75SLPC   H2R 6694   3.143   5.425   7.167  1.1471  0.6541  0.9385
   75SLPC   H2S 6695   3.136   5.561   7.054 -0.0722  0.6483  0.1417
   75SLPC    C3 6696   3.528   5.180   6.969 -0.6648 -0.8424 -0.1261
   75SLPC    HX 6697   3.443   5.114   6.999 -0.9820 -1.2670 -1.8543
   75SLPC    HY 6698   3.620   5.128   7.002 -0.4478 -0.3127  0.1051
   75SLPC   O31 6699   3.521   5.218   6.831 -0.2653  0.1531  0.0834
   75SLPC   C31 6700   3.461   5.142   6.743 -0.1262 -0.0538  0.3558
   75SLPC   O32 6701   3.417   5.031   6.768 -0.0379  0.3138  0.2602
   75SLPC   C32 6702   3.455   5.207   6.600 -0.4520 -1.0972 -0.1827
   75SLPC   H2X 6703   3.556   5.241   6.570 -0.6155 -0.5899 -0.1585
   75SLPC   H2Y 6704   3.385   5.292   6.610  0.9470  0.3492 -1.9432
   75SLPC   C23 6705   3.113   5.354   6.972  0.3098  0.3008 -0.6943
   75SLPC   H3R 6706   3.002   5.359   6.971  0.3046  1.4058  1.0630
   75SLPC   H3S 6707   3.135   5.251   7.009  2.1214  0.9150  0.0293
   75SLPC   C24 6708   3.148   5.364   6.822  0.3372 -0.3151  0.1336
   75SLPC   H4R 6709   3.073   5.303   6.768 -1.8454 -1.5106  4.1162
   75SLPC   H4S 6710   3.251   5.326   6.806 -0.9156 -3.4671 -1.0859
   75SLPC   C25 6711   3.142   5.501   6.762  0.0120 -0.1944 -0.4433
   75SLPC   H5R 6712   3.205   5.581   6.807  0.3486  0.8860 -2.6886
   75SLPC   H5S 6713   3.039   5.541   6.772  0.1560 -0.0938  0.9639
   75SLPC   C26 6714   3.172   5.507   6.613  0.0433  0.1504  0.1510
   75SLPC   H6R 6715   3.139   5.414   6.562 -1.1719  0.4927  0.2790
   75SLPC   H6S 6716   3.279   5.525   6.588 -0.2912 -0.5135 -2.0369
   75SLPC   C27 6717   3.101   5.630   6.537 -0.0218 -0.2315  0.4980
   75SLPC   H7R 6718   3.160   5.720   6.560  0.0307  0.1751 -1.0754
   75SLPC   H7S 6719   2.991   5.645   6.549  0.2583  0.5322  2.3033
   75SLPC   C28 6720   3.119   5.617   6.376  0.9496 -1.0780  0.2042
   75SLPC   H8R 6721   3.223   5.580   6.361  1.6609  0.7081  0.3885
   75SLPC   H8S 6722   3.121   5.719   6.331  1.2774 -0.5190  1.4475
   75SLPC   C29 6723   3.028   5.509   6.320  0.0990 -0.7754 -0.6214
   75SLPC   H9R 6724   2.983   5.451   6.402 -0.1901 -0.2885 -0.4318
   75SLPC  C210 6725   2.992   5.492   6.198 -0.0270 -1.6442  0.0558
   75SLPC  H10R 6726   2.907   5.426   6.174 -2.5626  0.4456  2.6462
   75SLPC  C211 6727   3.025   5.573   6.070 -0.3505  0.0889 -0.6516
   75SLPC  H11R 6728   3.105   5.649   6.085  0.6871 -1.0788 -0.1078
   75SLPC  H11S 6729   2.927   5.610   6.035 -0.8658 -0.4233  0.2066
   75SLPC  C212 6730   3.076   5.478   5.966 -0.5427  0.0179  0.2036
   75SLPC  H12R 6731   3.186   5.483   5.955 -0.4436 -0.2485  1.0360
   75SLPC  C213 6732   3.007   5.408   5.869 -0.0162 -0.4158  0.4550
   75SLPC  H13R 6733   3.057   5.344   5.795  1.2398  0.7905  0.2245
   75SLPC  C214 6734   2.857   5.389   5.861  0.3188 -0.0085 -0.6583
   75SLPC  H14R 6735   2.819   5.368   5.963 -0.4984 -2.1117 -1.3518
   75SLPC  H14S 6736   2.837   5.290   5.815 -0.2017 -0.3082  0.1865
   75SLPC  C215 6737   2.793   5.511   5.796 -0.0403  0.0586  0.9658
   75SLPC  H15R 6738   2.801   5.612   5.842 -0.3575  0.4900  0.0966
   75SLPC  H15S 6739   2.684   5.491   5.807 -0.0376 -0.2430  0.4818
   75SLPC  C216 6740   2.826   5.534   5.651  0.5441  0.6061 -0.3018
   75SLPC  H16R 6741   2.822   5.435   5.601 -0.2799  1.4268 -1.9405
   75SLPC  H16S 6742   2.927   5.579   5.643  1.4760 -1.0851  1.1108
   75SLPC  C217 6743   2.714   5.622   5.587  0.5034 -0.0462  0.4372
   75SLPC  H17R 6744   2.715   5.721   5.637  3.3316 -0.7928  2.1019
   75SLPC  H17S 6745   2.611   5.586   5.608  0.1495  1.1376  0.7948
   75SLPC  C218 6746   2.758   5.643   5.443  0.2847  0.0689  0.3409
   75SLPC  H18R 6747   2.669   5.684   5.390  0.8423  0.4560 -0.3192
   75SLPC  H18S 6748   2.778   5.547   5.392  1.6631  0.3657  0.2731
   75SLPC  H18T 6749   2.840   5.718   5.437 -1.0155  1.6424  1.1806
   75SLPC   C33 6750   3.386   5.116   6.492  0.8853 -0.0454  0.3323
   75SLPC   H3X 6751   3.282   5.096   6.527  1.3867  0.8852  2.5722
   75SLPC   H3Y 6752   3.438   5.018   6.484  0.8505 -0.0721  0.4298
   75SLPC   C34 6753   3.367   5.184   6.358  0.4087  0.3028 -0.3941
   75SLPC   H4X 6754   3.461   5.173   6.299  1.6859 -0.5519  1.6873
   75SLPC   H4Y 6755   3.339   5.289   6.380  0.1065  0.0774  0.3334
   75SLPC   C35 6756   3.248   5.132   6.280 -0.3915 -0.7163 -0.1388
   75SLPC   H5X 6757   3.158   5.163   6.336 -1.0337 -1.1800 -0.8820
   75SLPC   H5Y 6758   3.233   5.023   6.293  1.3605 -0.8582  0.9308
   75SLPC   C36 6759   3.242   5.190   6.138 -1.0768 -0.6946 -0.7389
   75SLPC   H6X 6760   3.293   5.288   6.130 -0.2074 -1.0236  0.4788
   75SLPC   H6Y 6761   3.137   5.210   6.110 -1.9954 -1.5012  1.8473
   75SLPC   C37 6762   3.305   5.093   6.030  0.1977 -0.4512  0.0317
   75SLPC   H7X 6763   3.246   4.999   6.036 -1.1058  0.3713  0.6726
   75SLPC   H7Y 6764   3.409   5.083   6.068  0.9189  1.6794 -1.1729
   75SLPC   C38 6765   3.312   5.155   5.889  0.3951 -0.8508 -0.4760
   75SLPC   H8X 6766   3.408   5.210   5.882 -0.6554  1.2054  0.4112
   75SLPC   H8Y 6767   3.232   5.230   5.874 -0.6204 -1.2044  2.4729
   75SLPC   C39 6768   3.307   5.044   5.792  0.0784 -0.2820 -1.0441
   75SLPC   H9X 6769   3.209   4.994   5.803 -0.1854  0.5201  0.4441
   75SLPC   H9Y 6770   3.392   4.979   5.823 -0.3562 -1.3693 -2.0641
   75SLPC  C310 6771   3.319   5.090   5.648  0.6849 -0.6333 -0.9725
   75SLPC  H10X 6772   3.411   5.151   5.643  0.7623 -0.7150 -0.5351
   75SLPC  H10Y 6773   3.239   5.165   5.630 -1.2727 -1.8159  2.0148
   75SLPC  C311 6774   3.321   4.973   5.552  0.2311  0.1089 -0.0275
   75SLPC  H11X 6775   3.228   4.915   5.537 -0.0284  0.4235  0.3279
   75SLPC  H11Y 6776   3.403   4.905   5.585  0.5471 -0.0782 -1.1574
   75SLPC  C312 6777   3.374   5.002   5.407  0.3230 -0.2048 -0.0941
   75SLPC  H12X 6778   3.468   5.060   5.403 -0.9001  1.9021 -0.0891
   75SLPC  H12Y 6779   3.303   5.075   5.361 -0.8581 -1.4870 -0.3800
   75SLPC  C313 6780   3.403   4.874   5.322 -0.2926 -1.1139 -0.2384
   75SLPC  H13X 6781   3.470   4.809   5.383 -0.3614  0.2342  1.3414
   75SLPC  H13Y 6782   3.464   4.904   5.234 -2.2834 -0.3037 -1.4021
   75SLPC  C314 6783   3.272   4.806   5.275  0.0877  0.2213  0.2587
   75SLPC  H14X 6784   3.208   4.877   5.218 -0.4057 -0.4909 -0.0899
   75SLPC  H14Y 6785   3.213   4.790   5.368 -2.9567  1.9173 -1.2287
   75SLPC  C315 6786   3.306   4.695   5.179 -0.3681 -0.0149  0.5598
   75SLPC  H15X 6787   3.356   4.614   5.236  0.3320  0.2243  0.3095
   75SLPC  H15Y 6788   3.381   4.722   5.101  1.2018 -1.0804  1.6291
   75SLPC  C316 6789   3.191   4.648   5.091  0.3944 -0.4763 -0.4346
   75SLPC  H16X 6790   3.151   4.742   5.047 -2.1300 -1.1130  0.3498
   75SLPC  H16Y 6791   3.121   4.596   5.161  2.7602 -1.4033  1.3995
   75SLPC  C317 6792   3.239   4.551   4.985 -0.7256  0.2043 -0.0732
   75SLPC  H17X 6793   3.301   4.468   5.024 -0.8184 -1.3196 -2.9600
   75SLPC  H17Y 6794   3.317   4.606   4.929  2.1603 -2.8181  0.6842
   75SLPC  C318 6795   3.145   4.503   4.880 -0.1458  0.1741  0.1758
   75SLPC  H18X 6796   3.060   4.448   4.927 -0.1211 -0.8564 -0.9250
   75SLPC  H18Y 6797   3.189   4.449   4.793  0.6025 -0.0736  0.6952
   75SLPC  H18Z 6798   3.101   4.597   4.839 -1.9418 -0.0694  1.4091
   76SLPC     N 6799   4.226   4.552   7.362  0.0979 -0.8410 -0.6155
   76SLPC   C13 6800   4.218   4.691   7.312 -0.0818 -0.4837 -0.2487
   76SLPC  H13A 6801   4.148   4.689   7.230 -2.4489  0.1943  1.6477
   76SLPC  H13B 6802   4.164   4.746   7.387  0.6800  0.3050 -0.2661
   76SLPC  H13C 6803   4.316   4.729   7.287  0.4487 -0.8235  1.2269
   76SLPC   C14 6804   4.087   4.499   7.364  0.2072 -0.2023  0.0329
   76SLPC  H14A 6805   4.029   4.549   7.441 -1.3834  2.7021 -2.7903
   76SLPC  H14B 6806   4.034   4.524   7.273 -0.0423  0.2066  0.2842
   76SLPC  H14C 6807   4.087   4.393   7.385  3.0345 -0.2619  0.0686
   76SLPC   C15 6808   4.283   4.570   7.498 -0.0637  0.2471 -0.0609
   76SLPC  H15A 6809   4.382   4.614   7.494 -1.2134  2.9967 -1.2828
   76SLPC  H15B 6810   4.218   4.628   7.562  0.0156 -0.0027  0.2462
   76SLPC  H15C 6811   4.294   4.477   7.550 -0.1183  0.2826  0.0140
   76SLPC   C12 6812   4.319   4.468   7.273  0.4690  0.1562  0.1339
   76SLPC  H12A 6813   4.272   4.463   7.176 -0.5238 -3.7199  0.6588
   76SLPC  H12B 6814   4.315   4.369   7.316 -2.1879  0.3684  0.5302
   76SLPC   C11 6815   4.463   4.508   7.251 -0.2839 -0.1097  0.3961
   76SLPC  H11A 6816   4.518   4.423   7.206  0.9425  0.7023  0.3088
   76SLPC  H11B 6817   4.522   4.532   7.341 -0.9690  0.1240  0.7915
   76SLPC     P 6818   4.428   4.606   7.008  0.3560 -0.4308 -0.3652
   76SLPC   O13 6819   4.296   4.539   7.003 -0.1438  0.0248 -0.2864
   76SLPC   O14 6820   4.430   4.734   6.933  0.3870  0.3190  0.2249
   76SLPC   O12 6821   4.470   4.621   7.160 -0.2128 -0.4148 -0.2810
   76SLPC   O11 6822   4.541   4.507   6.965  0.2928  0.6045  0.5289
   76SLPC    C1 6823   4.676   4.538   6.954  0.5238  0.5733  0.3134
   76SLPC    HA 6824   4.701   4.645   6.966  0.5425  0.5862  0.1615
   76SLPC    HB 6825   4.729   4.486   7.036  3.9837  1.5062 -1.1418
   76SLPC    C2 6826   4.739   4.478   6.820 -0.3772 -0.1311 -0.8472
   76SLPC    HS 6827   4.845   4.512   6.818 -0.0326 -0.6750  2.1644
   76SLPC   O21 6828   4.661   4.530   6.719 -0.4113  0.0685  0.1490
   76SLPC   C21 6829   4.682   4.664   6.686  0.6193  0.6829 -0.7266
   76SLPC   O22 6830   4.768   4.732   6.734 -0.3345  0.5342 -0.2550
   76SLPC   C22 6831   4.578   4.717   6.592  0.0027  0.2598  0.4701
   76SLPC   H2R 6832   4.542   4.631   6.531 -2.1355  2.4493 -1.5601
   76SLPC   H2S 6833   4.493   4.744   6.659  0.0010  0.0727  0.5451
   76SLPC    C3 6834   4.752   4.327   6.833 -0.3965 -0.0978  0.0249
   76SLPC    HX 6835   4.647   4.290   6.826 -0.2727 -0.7562  1.2510
   76SLPC    HY 6836   4.800   4.299   6.929 -0.4124 -0.1268  0.0246
   76SLPC   O31 6837   4.833   4.287   6.723  0.0652 -0.2961 -0.0402
   76SLPC   C31 6838   4.813   4.160   6.686  0.2560 -0.7234  0.0691
   76SLPC   O32 6839   4.723   4.088   6.723  0.5986 -0.5446 -0.1737
   76SLPC   C32 6840   4.915   4.116   6.583  0.2417  0.2398  0.0847
   76SLPC   H2X 6841   4.995   4.059   6.637 -1.9012 -1.3852  1.7336
   76SLPC   H2Y 6842   4.956   4.212   6.545 -2.4173  1.5969  0.4544
   76SLPC   C23 6843   4.631   4.833   6.516 -0.6002 -0.4606  0.2309
   76SLPC   H3R 6844   4.734   4.813   6.480  0.0836 -1.6273  2.6854
   76SLPC   H3S 6845   4.632   4.930   6.570 -0.4291  1.3082 -2.7140
   76SLPC   C24 6846   4.560   4.862   6.386 -0.3049 -0.3755 -0.0394
   76SLPC   H4R 6847   4.597   4.956   6.339 -0.3802 -0.6436 -0.6407
   76SLPC   H4S 6848   4.452   4.865   6.409 -0.5021  1.0810 -0.9951
   76SLPC   C25 6849   4.589   4.750   6.281  0.1474 -0.3480 -0.4295
   76SLPC   H5R 6850   4.548   4.653   6.317 -2.1114  0.6432 -0.1438
   76SLPC   H5S 6851   4.699   4.749   6.267  0.1572 -0.1906 -0.3694
   76SLPC   C26 6852   4.533   4.787   6.145  0.1153  0.1195  0.1113
   76SLPC   H6R 6853   4.581   4.879   6.105 -1.9813  1.3673  0.3326
   76SLPC   H6S 6854   4.427   4.816   6.156  0.5227  1.0643  2.0160
   76SLPC   C27 6855   4.559   4.676   6.045  0.6790  0.4215 -0.2004
   76SLPC   H7R 6856   4.470   4.615   6.072  0.2261 -0.4077 -3.2654
   76SLPC   H7S 6857   4.657   4.623   6.051  0.1032 -0.9591 -2.1246
   76SLPC   C28 6858   4.523   4.717   5.899 -0.9309  0.3316 -0.5071
   76SLPC   H8R 6859   4.604   4.782   5.858 -2.1944  1.9119 -0.6313
   76SLPC   H8S 6860   4.438   4.790   5.897 -0.9484  0.4101  1.3345
   76SLPC   C29 6861   4.477   4.609   5.803  0.0555 -0.3286  0.1443
   76SLPC   H9R 6862   4.558   4.579   5.735  1.5853 -0.3755  1.9129
   76SLPC  C210 6863   4.355   4.577   5.769  0.1701  0.3480 -0.5493
   76SLPC  H10R 6864   4.341   4.491   5.700  0.4569 -0.0955 -0.0621
   76SLPC  C211 6865   4.221   4.620   5.831  0.0262  0.4185  0.6412
   76SLPC  H11R 6866   4.179   4.705   5.774  1.1646  0.2292 -0.5189
   76SLPC  H11S 6867   4.234   4.655   5.936  1.6362  0.7438  0.3624
   76SLPC  C212 6868   4.127   4.499   5.832 -0.4443 -0.1442 -0.8026
   76SLPC  H12R 6869   4.121   4.424   5.751 -1.1977 -2.3491  1.1786
   76SLPC  C213 6870   4.035   4.484   5.928  0.2497  0.2465  0.3693
   76SLPC  H13R 6871   3.975   4.394   5.907 -2.1704  1.5855  1.1211
   76SLPC  C214 6872   4.009   4.560   6.060 -0.1974  0.0010  0.3299
   76SLPC  H14R 6873   3.908   4.544   6.104  0.6100  1.0738  2.7363
   76SLPC  H14S 6874   4.030   4.665   6.032 -2.9286  0.5525  0.0867
   76SLPC  C215 6875   4.106   4.516   6.160 -0.8346 -0.4480 -0.4164
   76SLPC  H15R 6876   4.205   4.504   6.111  0.5193 -0.5953  2.1493
   76SLPC  H15S 6877   4.083   4.417   6.207  0.6361 -1.5771 -1.9538
   76SLPC  C216 6878   4.110   4.621   6.275 -0.3622 -0.4662  0.3859
   76SLPC  H16R 6879   4.005   4.614   6.311 -0.8074  1.5598 -0.4158
   76SLPC  H16S 6880   4.120   4.728   6.249  0.8297 -0.8090 -0.6454
   76SLPC  C217 6881   4.204   4.584   6.387 -0.4987  0.2757 -0.2750
   76SLPC  H17R 6882   4.306   4.593   6.344 -0.4194 -0.6281 -0.3026
   76SLPC  H17S 6883   4.190   4.477   6.416  0.2473  0.6333  1.5134
   76SLPC  C218 6884   4.187   4.679   6.506 -0.5903  0.5774 -0.0988
   76SLPC  H18R 6885   4.252   4.648   6.591  1.0616  2.3857 -0.6265
   76SLPC  H18S 6886   4.079   4.682   6.531 -1.0814  2.4624 -2.1135
   76SLPC  H18T 6887   4.213   4.783   6.478 -0.9178  0.0522 -2.5724
   76SLPC   C33 6888   4.849   4.032   6.472  0.1457  0.0182  0.0460
   76SLPC   H3X 6889   4.757   4.083   6.437 -0.6505 -1.3520  0.1110
   76SLPC   H3Y 6890   4.826   3.929   6.507  2.1933 -0.0417  1.4322
   76SLPC   C34 6891   4.949   4.028   6.361 -0.6200  0.4745 -0.2629
   76SLPC   H4X 6892   5.035   3.972   6.404 -2.3562 -0.1412  2.6696
   76SLPC   H4Y 6893   4.984   4.130   6.337 -0.8297  0.0903 -2.4054
   76SLPC   C35 6894   4.890   3.968   6.230  0.3011 -0.1985 -0.1895
   76SLPC   H5X 6895   4.799   4.030   6.212 -0.6248  0.3902  5.0259
   76SLPC   H5Y 6896   4.841   3.872   6.256  1.1010  0.1895  3.1312
   76SLPC   C36 6897   4.977   3.964   6.107  0.4817 -0.3523 -0.1958
   76SLPC   H6X 6898   5.066   3.910   6.147 -0.4097 -3.0146 -1.5284
   76SLPC   H6Y 6899   5.010   4.067   6.084 -2.5529  1.6499  3.3811
   76SLPC   C37 6900   4.913   3.881   5.996  0.1501  0.8466  0.3555
   76SLPC   H7X 6901   4.819   3.929   5.962  0.0047  0.5279  0.3141
   76SLPC   H7Y 6902   4.886   3.779   6.027 -1.8456  1.7584  1.7990
   76SLPC   C38 6903   5.003   3.892   5.864  0.7470  0.4638 -0.3224
   76SLPC   H8X 6904   5.098   3.835   5.874 -1.1677 -3.3935 -2.3364
   76SLPC   H8Y 6905   5.022   3.997   5.830 -1.1301  0.7952 -0.4140
   76SLPC   C39 6906   4.928   3.815   5.751 -0.3432 -0.2358  0.6714
   76SLPC   H9X 6907   4.831   3.868   5.738 -0.1759  0.1969  1.1800
   76SLPC   H9Y 6908   4.900   3.714   5.789 -0.3036 -0.4057  0.2534
   76SLPC  C310 6909   5.005   3.811   5.623 -0.0846  0.0432  0.1536
   76SLPC  H10X 6910   5.086   3.736   5.639 -1.7503 -2.5274 -2.4143
   76SLPC  H10Y 6911   5.033   3.914   5.592  0.8254  0.3902  2.0203
   76SLPC  C311 6912   4.920   3.760   5.505  0.1756 -0.1127 -0.3859
   76SLPC  H11X 6913   4.828   3.820   5.489  1.3899  1.8386 -0.4516
   76SLPC  H11Y 6914   4.884   3.656   5.520 -0.6363  0.1341 -0.5741
   76SLPC  C312 6915   5.007   3.752   5.380 -0.4358  0.2254 -0.0654
   76SLPC  H12X 6916   5.105   3.703   5.397  0.9239  3.2949  1.9322
   76SLPC  H12Y 6917   5.034   3.856   5.349 -1.1195  0.3983 -0.0918
   76SLPC  C313 6918   4.932   3.688   5.265 -0.5172 -0.1681 -0.4914
   76SLPC  H13X 6919   4.844   3.753   5.244  0.0973  0.6646 -0.4935
   76SLPC  H13Y 6920   4.896   3.590   5.304  1.3848 -0.2126  1.3407
   76SLPC  C314 6921   5.021   3.654   5.147  0.1556  0.2770 -0.6681
   76SLPC  H14X 6922   5.106   3.598   5.193 -2.3564 -2.3402  1.1369
   76SLPC  H14Y 6923   5.056   3.753   5.109  1.4293  0.8205  1.7176
   76SLPC  C315 6924   4.957   3.561   5.038  0.2332 -1.0106  0.3161
   76SLPC  H15X 6925   4.910   3.479   5.097 -0.3205 -0.7370  0.2626
   76SLPC  H15Y 6926   5.032   3.519   4.967  0.1633  0.0677 -0.4282
   76SLPC  C316 6927   4.835   3.616   4.957  0.3545  0.2613 -0.1414
   76SLPC  H16X 6928   4.856   3.709   4.898  1.8347  0.2690  0.3503
   76SLPC  H16Y 6929   4.749   3.638   5.023 -0.1572  1.2999 -1.1147
   76SLPC  C317 6930   4.787   3.510   4.854 -1.0145  0.5388  0.0828
   76SLPC  H17X 6931   4.761   3.416   4.906  0.9254 -0.2560 -0.2932
   76SLPC  H17Y 6932   4.876   3.484   4.793 -0.5696 -0.2549  1.0638
   76SLPC  C318 6933   4.659   3.554   4.784  0.5579 -0.1548  0.3995
   76SLPC  H18X 6934   4.681   3.647   4.727 -0.3691 -0.6816 -0.8678
   76SLPC  H18Y 6935   4.589   3.579   4.867  0.5561 -0.8065  0.6006
   76SLPC  H18Z 6936   4.606   3.488   4.712 -1.9309  1.7276  0.3369
   77SLPC     N 6937   6.458   3.226   7.529  0.1636  0.1583  0.0173
   77SLPC   C13 6938   6.476   3.355   7.613 -0.0137 -0.0305  0.5052
   77SLPC  H13A 6939   6.395   3.361   7.684 -0.1307  1.1256  0.2889
   77SLPC  H13B 6940   6.574   3.358   7.657 -0.0435  0.6256  0.5246
   77SLPC  H13C 6941   6.460   3.442   7.552 -2.1806 -0.4649  0.3541
   77SLPC   C14 6942   6.320   3.228   7.478 -0.0266  0.2265 -0.2375
   77SLPC  H14A 6943   6.245   3.238   7.555  0.6930  1.7142  0.3097
   77SLPC  H14B 6944   6.289   3.312   7.418  0.2476  1.1430  0.8520
   77SLPC  H14C 6945   6.299   3.135   7.428 -2.1971  0.0813  0.8211
   77SLPC   C15 6946   6.470   3.102   7.620 -0.7837  0.4533  0.3567
   77SLPC  H15A 6947   6.490   3.014   7.561  0.7404  0.7185  0.4389
   77SLPC  H15B 6948   6.564   3.109   7.673 -0.5976 -0.8124  0.2228
   77SLPC  H15C 6949   6.397   3.093   7.699 -0.1452 -0.5878  0.8381
   77SLPC   C12 6950   6.565   3.224   7.417 -0.0284  0.2396  0.3638
   77SLPC  H12A 6951   6.660   3.222   7.469  0.4806 -0.2992 -0.5522
   77SLPC  H12B 6952   6.568   3.320   7.368 -1.5625  1.9135  3.2752
   77SLPC   C11 6953   6.557   3.110   7.323 -0.7776  0.2613  0.9444
   77SLPC  H11A 6954   6.623   3.144   7.240 -0.7967 -1.0825  0.3584
   77SLPC  H11B 6955   6.457   3.099   7.277 -0.8840  0.1346  1.2093
   77SLPC     P 6956   6.630   2.854   7.299 -0.2757  0.2893 -0.0670
   77SLPC   O13 6957   6.772   2.815   7.320 -0.0160  0.4839  0.0310
   77SLPC   O14 6958   6.520   2.759   7.327 -0.7735 -0.0472 -0.3394
   77SLPC   O12 6959   6.601   2.988   7.380  0.6078  0.3550 -0.2007
   77SLPC   O11 6960   6.620   2.900   7.150 -0.2041 -0.3258  0.5450
   77SLPC    C1 6961   6.501   2.879   7.077 -0.0397 -0.3381  0.5493
   77SLPC    HA 6962   6.479   2.771   7.086 -1.7061 -0.1721 -1.1922
   77SLPC    HB 6963   6.412   2.927   7.123 -1.0107 -1.0129 -0.5772
   77SLPC    C2 6964   6.496   2.933   6.937  0.2667  1.0780 -0.2913
   77SLPC    HS 6965   6.394   2.924   6.894 -1.2536 -2.4237  3.4227
   77SLPC   O21 6966   6.584   2.859   6.851  0.2226 -0.4624  0.5639
   77SLPC   C21 6967   6.555   2.733   6.824  0.4087 -0.6193  0.7223
   77SLPC   O22 6968   6.457   2.673   6.865  0.1408 -0.0384  0.8459
   77SLPC   C22 6969   6.651   2.684   6.709 -0.1724  0.1733  0.4294
   77SLPC   H2R 6970   6.744   2.745   6.708  0.2909 -0.2765 -4.0074
   77SLPC   H2S 6971   6.679   2.581   6.739  0.7603  1.0303  2.7501
   77SLPC    C3 6972   6.533   3.074   6.940 -0.2848 -0.1660 -0.2639
   77SLPC    HX 6973   6.589   3.093   7.034  1.9936 -1.3933 -1.2985
   77SLPC    HY 6974   6.438   3.131   6.944  0.8302  1.8355 -1.0288
   77SLPC   O31 6975   6.622   3.109   6.823 -0.3291 -0.8915 -0.1835
   77SLPC   C31 6976   6.555   3.143   6.718  0.6405  0.1546  0.7265
   77SLPC   O32 6977   6.433   3.168   6.706 -0.2497  0.8517 -1.0508
   77SLPC   C32 6978   6.653   3.145   6.596 -0.1044 -0.0955 -0.4172
   77SLPC   H2X 6979   6.706   3.047   6.605 -0.6180 -0.4433 -1.0873
   77SLPC   H2Y 6980   6.723   3.228   6.617  1.3680 -1.1888 -0.8058
   77SLPC   C23 6981   6.591   2.680   6.563  0.2080  0.4376 -0.2142
   77SLPC   H3R 6982   6.522   2.765   6.544 -0.2516 -0.0418 -0.7180
   77SLPC   H3S 6983   6.523   2.592   6.570  0.5464  0.2475  1.0560
   77SLPC   C24 6984   6.690   2.660   6.450  0.1286 -0.3038  0.2135
   77SLPC   H4R 6985   6.635   2.683   6.356  1.3087 -1.7065 -0.8515
   77SLPC   H4S 6986   6.715   2.552   6.447 -0.2572 -0.4514  1.5692
   77SLPC   C25 6987   6.818   2.741   6.453  0.5612 -0.1555  0.1840
   77SLPC   H5R 6988   6.896   2.697   6.519  0.8668 -1.4236 -0.9739
   77SLPC   H5S 6989   6.803   2.845   6.490  0.1544 -0.1036 -0.1294
   77SLPC   C26 6990   6.878   2.758   6.311  0.0941 -0.1183  0.0928
   77SLPC   H6R 6991   6.963   2.830   6.311  0.5955 -0.6954 -0.7909
   77SLPC   H6S 6992   6.793   2.798   6.252 -1.1626  0.3213  2.1190
   77SLPC   C27 6993   6.925   2.620   6.255  0.1190  0.1510  0.0174
   77SLPC   H7R 6994   6.839   2.554   6.232 -0.4761  1.3676 -1.3426
   77SLPC   H7S 6995   6.980   2.567   6.337 -0.8242  0.1610  0.6759
   77SLPC   C28 6996   7.013   2.632   6.131 -0.0321  0.9926  0.5013
   77SLPC   H8R 6997   6.953   2.660   6.042 -0.8234 -1.3825  0.2297
   77SLPC   H8S 6998   7.041   2.527   6.107  0.7939  0.7583  2.3282
   77SLPC   C29 6999   7.130   2.719   6.145 -0.5053 -0.4511  0.0174
   77SLPC   H9R 7000   7.146   2.780   6.235 -1.4442  0.2369 -0.2575
   77SLPC  C210 7001   7.225   2.736   6.051  0.2038 -0.1884  0.0924
   77SLPC  H10R 7002   7.302   2.813   6.068  1.4472 -1.3202 -0.2752
   77SLPC  C211 7003   7.237   2.667   5.921 -0.0692  0.6329 -0.0993
   77SLPC  H11R 7004   7.306   2.720   5.852 -0.5206  0.0680 -1.0082
   77SLPC  H11S 7005   7.132   2.681   5.887  0.2357 -2.0088 -2.5050
   77SLPC  C212 7006   7.274   2.521   5.930 -0.5792  0.4474 -0.5688
   77SLPC  H12R 7007   7.315   2.486   6.026  0.2011 -1.0255 -1.4017
   77SLPC  C213 7008   7.285   2.436   5.824  0.4301 -0.6984 -0.4468
   77SLPC  H13R 7009   7.295   2.328   5.839 -1.3451 -0.6421  1.7129
   77SLPC  C214 7010   7.246   2.470   5.684 -0.1503 -0.7322  0.2423
   77SLPC  H14R 7011   7.211   2.574   5.665  1.3091 -0.4314 -0.9129
   77SLPC  H14S 7012   7.176   2.394   5.644  1.3866 -1.9545 -0.2036
   77SLPC  C215 7013   7.378   2.457   5.603 -0.4229 -0.0849  0.1250
   77SLPC  H15R 7014   7.413   2.351   5.602  0.8048  0.2636  1.5106
   77SLPC  H15S 7015   7.462   2.517   5.644 -0.9712  0.9867 -0.2818
   77SLPC  C216 7016   7.366   2.495   5.453 -0.0669 -0.1038 -0.6276
   77SLPC  H16R 7017   7.465   2.500   5.402 -0.1614  6.8348 -1.1200
   77SLPC  H16S 7018   7.328   2.600   5.448  0.2897  0.0611  0.0108
   77SLPC  C217 7019   7.267   2.394   5.381  0.7763  0.2075 -0.7209
   77SLPC  H17R 7020   7.169   2.415   5.430  1.6257 -2.1949  2.3645
   77SLPC  H17S 7021   7.297   2.289   5.402  1.6531  0.6736  0.4875
   77SLPC  C218 7022   7.248   2.426   5.233 -0.0433  0.1885 -0.0737
   77SLPC  H18R 7023   7.155   2.379   5.195 -1.0152  1.9700 -0.0378
   77SLPC  H18S 7024   7.340   2.396   5.179 -0.8927 -0.8336 -0.9834
   77SLPC  H18T 7025   7.224   2.534   5.217 -1.6293 -0.0834  0.3484
   77SLPC   C33 7026   6.589   3.163   6.452  0.1763  0.4668 -0.5129
   77SLPC   H3X 7027   6.544   3.265   6.449 -0.2164  0.2869 -0.8708
   77SLPC   H3Y 7028   6.509   3.089   6.433  0.9853 -0.9865  1.4389
   77SLPC   C34 7029   6.696   3.166   6.340 -0.3133  0.4898  0.3176
   77SLPC   H4X 7030   6.771   3.089   6.369 -1.3298 -1.6449 -2.2553
   77SLPC   H4Y 7031   6.742   3.267   6.340 -0.5267  0.6065 -0.8433
   77SLPC   C35 7032   6.637   3.133   6.202 -0.6159  1.0517 -0.1695
   77SLPC   H5X 7033   6.556   3.208   6.184 -2.5068 -0.8486  0.0406
   77SLPC   H5Y 7034   6.583   3.036   6.202 -0.3534  0.8831 -2.0019
   77SLPC   C36 7035   6.744   3.131   6.094  0.1001  0.8498 -0.4367
   77SLPC   H6X 7036   6.823   3.062   6.129  0.0545  0.4487 -1.1105
   77SLPC   H6Y 7037   6.797   3.228   6.108  1.3550  0.3139 -1.2878
   77SLPC   C37 7038   6.692   3.086   5.954  0.1114  0.4105  0.2648
   77SLPC   H7X 7039   6.624   3.162   5.909  0.9415  1.8108  1.3008
   77SLPC   H7Y 7040   6.645   2.986   5.966  1.9891 -0.9018 -2.2632
   77SLPC   C38 7041   6.809   3.043   5.853 -0.0576  0.0505  0.0956
   77SLPC   H8X 7042   6.881   2.974   5.903  0.8567  0.1598 -1.0201
   77SLPC   H8Y 7043   6.871   3.129   5.820  1.0581 -1.1420 -1.0275
   77SLPC   C39 7044   6.755   2.964   5.728  0.0109 -0.0665 -0.4060
   77SLPC   H9X 7045   6.699   2.873   5.755 -0.5292 -0.1798 -1.8287
   77SLPC   H9Y 7046   6.845   2.929   5.673  2.1641  0.8955  2.2895
   77SLPC  C310 7047   6.680   3.054   5.636 -0.1357 -0.1683 -0.2685
   77SLPC  H10X 7048   6.747   3.134   5.598  0.5535 -0.9615 -0.7417
   77SLPC  H10Y 7049   6.594   3.112   5.676 -0.5085  0.4876 -1.9715
   77SLPC  C311 7050   6.635   2.982   5.513 -0.0096 -0.3181 -0.5525
   77SLPC  H11X 7051   6.547   2.916   5.529  0.2583 -1.7030 -4.0052
   77SLPC  H11Y 7052   6.714   2.911   5.479  0.4504 -0.2141  0.2543
   77SLPC  C312 7053   6.605   3.071   5.393 -0.4450  0.7594  0.0294
   77SLPC  H12X 7054   6.688   3.144   5.387  0.6126 -0.4817 -1.2810
   77SLPC  H12Y 7055   6.508   3.118   5.419  0.4694  1.5105  2.4049
   77SLPC  C313 7056   6.614   2.989   5.261 -0.2421  0.3214  0.2398
   77SLPC  H13X 7057   6.717   2.955   5.236 -0.1138  1.4554 -0.8933
   77SLPC  H13Y 7058   6.577   3.059   5.183 -2.7058  1.5848  2.3967
   77SLPC  C314 7059   6.520   2.878   5.254  0.2059  0.7016 -0.3307
   77SLPC  H14X 7060   6.418   2.921   5.261  0.1326  0.4373  0.2489
   77SLPC  H14Y 7061   6.536   2.813   5.343 -1.5731  2.5386  1.4295
   77SLPC  C315 7062   6.538   2.784   5.134 -0.9495 -0.2945 -0.0979
   77SLPC  H15X 7063   6.621   2.713   5.156  0.3651  1.3707  0.5024
   77SLPC  H15Y 7064   6.569   2.842   5.045 -0.8096 -0.5254 -0.2014
   77SLPC  C316 7065   6.416   2.703   5.111 -0.7099  0.2722  0.6702
   77SLPC  H16X 7066   6.342   2.773   5.069  0.9421  0.8741 -1.4057
   77SLPC  H16Y 7067   6.374   2.663   5.206 -0.7431 -2.3139 -0.3336
   77SLPC  C317 7068   6.433   2.589   5.004  0.5729 -0.6610  0.4230
   77SLPC  H17X 7069   6.499   2.507   5.042 -0.1076  0.1999  3.7973
   77SLPC  H17Y 7070   6.474   2.624   4.907  0.8670  0.4904  0.9448
   77SLPC  C318 7071   6.298   2.514   4.960 -0.7593 -1.1730 -0.1843
   77SLPC  H18X 7072   6.226   2.573   4.900 -1.3008  1.0077  2.4480
   77SLPC  H18Y 7073   6.249   2.480   5.054  0.5015  1.3203  1.4685
   77SLPC  H18Z 7074   6.331   2.430   4.894  0.4635  0.1656 -1.3252
   78SLPC     N 7075   2.314   1.843   7.625 -0.7586 -0.5988  0.5601
   78SLPC   C13 7076   2.326   1.709   7.698 -0.1173  0.7357 -0.6115
   78SLPC  H13A 7077   2.409   1.642   7.678 -0.4287  0.0731  0.2497
   78SLPC  H13B 7078   2.311   1.724   7.804 -0.4012  0.4460 -0.6075
   78SLPC  H13C 7079   2.241   1.649   7.670  0.8019 -1.2455  0.5624
   78SLPC   C14 7080   2.427   1.935   7.668 -0.0899 -0.1495  1.2919
   78SLPC  H14A 7081   2.426   2.023   7.605 -0.6573 -1.2142 -0.2533
   78SLPC  H14B 7082   2.422   1.958   7.773  1.6851 -0.9546  1.5777
   78SLPC  H14C 7083   2.517   1.880   7.643  0.1083  1.2423 -1.4324
   78SLPC   C15 7084   2.180   1.904   7.648 -0.4039 -1.1061 -0.2607
   78SLPC  H15A 7085   2.189   2.010   7.629  1.1274 -0.4994  3.0889
   78SLPC  H15B 7086   2.101   1.850   7.598 -0.8877 -0.8781  0.2356
   78SLPC  H15C 7087   2.162   1.906   7.755 -1.0268 -0.1773 -0.3721
   78SLPC   C12 7088   2.325   1.821   7.477 -0.1537  0.2610 -0.8853
   78SLPC  H12A 7089   2.253   1.746   7.447  0.4963 -0.8627  0.2641
   78SLPC  H12B 7090   2.422   1.773   7.471  0.1768  0.8573 -0.3564
   78SLPC   C11 7091   2.301   1.942   7.383 -0.3340  1.4254  0.5210
   78SLPC  H11A 7092   2.201   1.987   7.404 -1.8152 -2.0505  1.5859
   78SLPC  H11B 7093   2.292   1.902   7.280 -1.4154  0.4237  0.9875
   78SLPC     P 7094   2.531   2.042   7.317 -0.1365  0.3144 -0.1579
   78SLPC   O13 7095   2.614   2.148   7.370  0.0793 -0.2006 -0.4055
   78SLPC   O14 7096   2.588   1.910   7.312  0.3513  0.4840 -0.3553
   78SLPC   O12 7097   2.396   2.042   7.399  0.5279 -0.1733  0.5322
   78SLPC   O11 7098   2.471   2.074   7.176 -0.1860  0.8644  0.1311
   78SLPC    C1 7099   2.382   2.185   7.160 -0.2174  0.6627 -0.6838
   78SLPC    HA 7100   2.277   2.168   7.193 -0.9393  2.7552 -1.7667
   78SLPC    HB 7101   2.429   2.267   7.217  3.3816 -1.4663 -0.2348
   78SLPC    C2 7102   2.380   2.242   7.011  0.3482  0.0515 -0.5458
   78SLPC    HS 7103   2.342   2.346   7.006  0.6048  0.1030 -2.4047
   78SLPC   O21 7104   2.314   2.146   6.928  0.2763 -0.7864  0.6709
   78SLPC   C21 7105   2.181   2.159   6.934 -0.2120 -1.0855 -0.0620
   78SLPC   O22 7106   2.131   2.255   6.993 -0.3252 -0.0192  0.0322
   78SLPC   C22 7107   2.114   2.046   6.849 -0.4777 -0.4624  0.2436
   78SLPC   H2R 7108   2.197   1.989   6.804 -0.0489  0.4948 -0.2176
   78SLPC   H2S 7109   2.067   1.982   6.927 -0.2373 -0.4126  0.4283
   78SLPC    C3 7110   2.526   2.251   6.949 -0.5265 -0.3132  0.0810
   78SLPC    HX 7111   2.590   2.164   6.975  1.0164  0.3694 -1.2555
   78SLPC    HY 7112   2.576   2.335   7.001  0.1057 -0.8118  0.2838
   78SLPC   O31 7113   2.520   2.272   6.805  0.0925  0.0153  0.2468
   78SLPC   C31 7114   2.529   2.162   6.723  0.3079 -0.0504 -0.6876
   78SLPC   O32 7115   2.553   2.049   6.765  0.1593 -0.0515 -0.1959
   78SLPC   C32 7116   2.506   2.185   6.576  0.1983 -0.2539  0.3650
   78SLPC   H2X 7117   2.558   2.273   6.532  1.3336 -1.3213 -0.5068
   78SLPC   H2Y 7118   2.397   2.193   6.560  0.4882  0.3497 -1.5760
   78SLPC   C23 7119   2.024   2.102   6.740  0.4152  0.3431  0.1031
   78SLPC   H3R 7120   1.960   2.177   6.789  0.7724  0.1589  0.8685
   78SLPC   H3S 7121   1.957   2.017   6.713  0.1607 -0.5819  3.3129
   78SLPC   C24 7122   2.093   2.158   6.615 -0.4201 -0.4077 -0.3360
   78SLPC   H4R 7123   2.144   2.253   6.645 -0.5045 -0.5408  0.2370
   78SLPC   H4S 7124   2.018   2.189   6.538 -1.8345 -0.1338  1.1029
   78SLPC   C25 7125   2.181   2.061   6.539 -0.1905  0.0555 -0.4867
   78SLPC   H5R 7126   2.255   2.019   6.609  2.1630  1.2992 -2.0897
   78SLPC   H5S 7127   2.244   2.108   6.461  3.1862 -0.1384  1.8995
   78SLPC   C26 7128   2.101   1.943   6.482 -0.0651  0.2182  0.1146
   78SLPC   H6R 7129   2.006   1.986   6.442  0.5401 -0.1622 -1.8406
   78SLPC   H6S 7130   2.065   1.864   6.552  0.2047  0.0393  0.0526
   78SLPC   C27 7131   2.193   1.883   6.369 -0.1536 -0.7256  0.4100
   78SLPC   H7R 7132   2.285   1.854   6.423 -0.0290  0.0246  0.6137
   78SLPC   H7S 7133   2.221   1.958   6.291 -2.4042 -1.6538 -1.4196
   78SLPC   C28 7134   2.135   1.754   6.303 -0.2415  0.0055 -0.1174
   78SLPC   H8R 7135   2.033   1.773   6.264 -0.0397 -0.7089 -1.0508
   78SLPC   H8S 7136   2.110   1.686   6.388 -1.7547 -0.0589 -0.6000
   78SLPC   C29 7137   2.233   1.698   6.202 -0.5057  0.7390 -0.1500
   78SLPC   H9R 7138   2.295   1.618   6.244 -1.3322  0.0387 -0.2377
   78SLPC  C210 7139   2.240   1.742   6.069  0.2078 -0.0659 -0.0461
   78SLPC  H10R 7140   2.316   1.697   6.004 -1.7050  0.7882 -3.0835
   78SLPC  C211 7141   2.156   1.846   5.999 -0.4296 -0.1580 -0.0045
   78SLPC  H11R 7142   2.228   1.922   5.964  1.7986 -1.8002  0.7631
   78SLPC  H11S 7143   2.081   1.894   6.064 -1.0549  0.9978 -1.5273
   78SLPC  C212 7144   2.087   1.768   5.892  0.7924 -0.2927  0.6430
   78SLPC  H12R 7145   2.000   1.712   5.930  2.0238 -2.7528  0.0402
   78SLPC  C213 7146   2.112   1.771   5.758 -0.1976  0.6589 -0.2016
   78SLPC  H13R 7147   2.051   1.713   5.688 -0.9962  1.9448 -0.6043
   78SLPC  C214 7148   2.230   1.839   5.690 -0.5095 -0.7751  0.1597
   78SLPC  H14R 7149   2.285   1.923   5.738  2.3154 -1.5932 -1.4441
   78SLPC  H14S 7150   2.190   1.890   5.600  0.4052 -1.9453 -0.9530
   78SLPC  C215 7151   2.327   1.736   5.643  0.1914 -0.4789 -0.8238
   78SLPC  H15R 7152   2.273   1.650   5.598 -0.6296 -0.5327  0.2237
   78SLPC  H15S 7153   2.384   1.708   5.735  0.7618 -1.0183 -1.3258
   78SLPC  C216 7154   2.431   1.786   5.542  0.0832  0.4262  0.3728
   78SLPC  H16R 7155   2.497   1.870   5.571 -1.7504  1.7965  0.7795
   78SLPC  H16S 7156   2.372   1.816   5.453 -0.6530 -1.6069  0.1227
   78SLPC  C217 7157   2.530   1.665   5.512  0.4263  0.1910 -0.3873
   78SLPC  H17R 7158   2.480   1.579   5.463  0.6778 -0.6187  0.7317
   78SLPC  H17S 7159   2.554   1.624   5.613  0.9681 -0.3256 -0.7202
   78SLPC  C218 7160   2.668   1.700   5.459 -0.5417 -0.8991  0.7107
   78SLPC  H18R 7161   2.707   1.603   5.423  0.2839 -0.5388  0.6034
   78SLPC  H18S 7162   2.729   1.751   5.537  0.8280 -0.4653 -0.6082
   78SLPC  H18T 7163   2.664   1.765   5.369 -0.4637  1.0748  2.0537
   78SLPC   C33 7164   2.567   2.081   6.478  0.3064  0.1243 -0.2321
   78SLPC   H3X 7165   2.529   1.982   6.512 -1.5423  1.1926  1.0153
   78SLPC   H3Y 7166   2.675   2.092   6.499  0.3519  1.8340 -1.1774
   78SLPC   C34 7167   2.532   2.109   6.339  1.0813  0.0746 -0.4363
   78SLPC   H4X 7168   2.573   2.200   6.289  0.4082  0.2667 -0.6461
   78SLPC   H4Y 7169   2.422   2.121   6.331  0.5647 -2.6974  1.3742
   78SLPC   C35 7170   2.566   1.999   6.247 -0.1331 -0.4204  0.3647
   78SLPC   H5X 7171   2.506   1.909   6.270 -0.4109 -0.0713  1.0196
   78SLPC   H5Y 7172   2.677   1.992   6.252 -0.0981 -1.0945 -0.9631
   78SLPC   C36 7173   2.538   2.024   6.096 -0.1764  0.4090 -0.2168
   78SLPC   H6X 7174   2.580   2.121   6.062  1.3577  0.1418  0.7895
   78SLPC   H6Y 7175   2.428   2.035   6.087 -0.5291 -1.6399  0.8455
   78SLPC   C37 7176   2.568   1.906   5.995  0.1341  0.0977 -0.1328
   78SLPC   H7X 7177   2.519   1.933   5.899 -1.0190 -1.0516  0.0903
   78SLPC   H7Y 7178   2.530   1.807   6.029  1.6907 -0.6263 -0.4208
   78SLPC   C38 7179   2.718   1.875   5.976  0.2375  0.3943 -0.1719
   78SLPC   H8X 7180   2.768   1.852   6.073  1.3443  2.7560 -0.0987
   78SLPC   H8Y 7181   2.752   1.977   5.947 -0.4958  0.5373 -0.5564
   78SLPC   C39 7182   2.759   1.774   5.865 -0.0016 -0.0364  0.3798
   78SLPC   H9X 7183   2.704   1.793   5.770 -1.9123 -1.4554  1.1090
   78SLPC   H9Y 7184   2.718   1.675   5.897 -0.8191 -0.4608 -1.7934
   78SLPC  C310 7185   2.909   1.765   5.852  0.3194  0.2029  1.2440
   78SLPC  H10X 7186   2.937   1.741   5.957 -1.5757 -2.7871  1.1891
   78SLPC  H10Y 7187   2.936   1.867   5.818 -0.4030 -0.0687 -0.1962
   78SLPC  C311 7188   2.959   1.639   5.762  0.1533 -0.3727 -0.1246
   78SLPC  H11X 7189   2.918   1.645   5.659 -2.4183 -1.3488  0.7647
   78SLPC  H11Y 7190   2.914   1.547   5.807 -2.3949  0.8581  0.0020
   78SLPC  C312 7191   3.110   1.615   5.753  0.5858  0.0988  0.8978
   78SLPC  H12X 7192   3.157   1.608   5.854  0.3560  1.4116  1.1165
   78SLPC  H12Y 7193   3.153   1.702   5.700  1.8949 -2.3817 -2.4860
   78SLPC  C313 7194   3.154   1.490   5.663 -0.1365  0.7962 -0.1630
   78SLPC  H13X 7195   3.099   1.482   5.567 -0.2294 -0.1530 -0.0368
   78SLPC  H13Y 7196   3.139   1.395   5.718  0.2629  1.3987  1.0223
   78SLPC  C314 7197   3.303   1.503   5.636  0.7213  0.3078  0.8461
   78SLPC  H14X 7198   3.380   1.485   5.714  2.9704 -2.4818 -1.7625
   78SLPC  H14Y 7199   3.316   1.611   5.612  0.7938 -0.4785 -3.4162
   78SLPC  C315 7200   3.350   1.420   5.506 -0.5872 -0.2524 -0.5791
   78SLPC  H15X 7201   3.281   1.453   5.425 -0.8540 -0.3216 -0.3810
   78SLPC  H15Y 7202   3.357   1.309   5.513 -0.8684 -0.2500 -0.2318
   78SLPC  C316 7203   3.492   1.467   5.464  0.0117  0.9094 -0.0584
   78SLPC  H16X 7204   3.554   1.417   5.542 -1.2223  2.8211  2.2751
   78SLPC  H16Y 7205   3.516   1.575   5.479 -0.3238  1.0882 -0.7937
   78SLPC  C317 7206   3.536   1.422   5.327  0.2221  0.5474 -0.0099
   78SLPC  H17X 7207   3.522   1.312   5.323 -0.1072  0.4785  2.1005
   78SLPC  H17Y 7208   3.643   1.445   5.309  0.1442 -0.1461 -1.5752
   78SLPC  C318 7209   3.455   1.483   5.206 -0.4201  0.0117 -0.5645
   78SLPC  H18X 7210   3.512   1.481   5.111 -0.3065 -1.6929 -0.4963
   78SLPC  H18Y 7211   3.411   1.582   5.230  1.3366  0.3620  1.4608
   78SLPC  H18Z 7212   3.364   1.419   5.199 -1.5489  0.9784  2.9995
   79SLPC     N 7213   6.142   4.476   7.358  0.0908  0.7339 -0.0579
   79SLPC   C13 7214   6.056   4.473   7.241 -0.4638  0.3148 -0.8036
   79SLPC  H13A 7215   6.004   4.567   7.229 -0.0683  0.4125 -1.8754
   79SLPC  H13B 7216   6.120   4.458   7.155  2.9234 -0.5006  1.6704
   79SLPC  H13C 7217   5.987   4.390   7.248 -1.1283  0.9583  0.5649
   79SLPC   C14 7218   6.270   4.560   7.336  0.3881 -0.2607  0.3966
   79SLPC  H14A 7219   6.320   4.549   7.241  0.7352 -0.4029  0.5913
   79SLPC  H14B 7220   6.252   4.666   7.328  0.3559 -0.2097  1.0475
   79SLPC  H14C 7221   6.342   4.553   7.416  0.4866 -0.2644  0.3081
   79SLPC   C15 7222   6.189   4.333   7.382  0.1087  0.0833  0.0875
   79SLPC  H15A 7223   6.252   4.294   7.303  0.3318 -1.8363  1.1610
   79SLPC  H15B 7224   6.252   4.329   7.469  0.5519  0.6947 -0.1970
   79SLPC  H15C 7225   6.102   4.270   7.396  1.1361 -1.7263 -1.1773
   79SLPC   C12 7226   6.073   4.530   7.474  0.2682 -0.7229 -0.8218
   79SLPC  H12A 7227   6.131   4.520   7.564 -0.9650 -0.7552 -0.0057
   79SLPC  H12B 7228   5.983   4.473   7.492 -0.2122  0.0962 -0.6018
   79SLPC   C11 7229   6.016   4.679   7.466  0.4319  0.4122  0.1591
   79SLPC  H11A 7230   6.101   4.750   7.459 -0.4841  1.3394 -3.4902
   79SLPC  H11B 7231   5.953   4.710   7.552 -0.1677 -0.4275  0.0324
   79SLPC     P 7232   5.778   4.675   7.357 -0.1729  0.3740  0.1264
   79SLPC   O13 7233   5.763   4.538   7.406 -0.2165 -0.8076  0.1513
   79SLPC   O14 7234   5.720   4.786   7.441 -0.1950 -0.6189 -0.1056
   79SLPC   O12 7235   5.937   4.704   7.348 -0.4049  0.1046  0.0865
   79SLPC   O11 7236   5.738   4.683   7.198 -0.2845  0.6182  0.0334
   79SLPC    C1 7237   5.826   4.750   7.105 -0.0542 -0.2279  0.3319
   79SLPC    HA 7238   5.849   4.853   7.139 -1.3570  0.3377 -0.4387
   79SLPC    HB 7239   5.920   4.692   7.091 -1.0153 -1.9909  0.9498
   79SLPC    C2 7240   5.763   4.761   6.957  0.5979  0.6225 -0.0639
   79SLPC    HS 7241   5.837   4.800   6.884  1.7806 -0.1159  0.7010
   79SLPC   O21 7242   5.640   4.836   6.960 -0.0375 -0.4876  0.0002
   79SLPC   C21 7243   5.650   4.962   6.967 -0.0611  0.0750  0.3056
   79SLPC   O22 7244   5.755   5.027   6.970  1.0239  0.0876  0.2357
   79SLPC   C22 7245   5.516   5.026   6.976 -0.3762 -0.1210  0.3095
   79SLPC   H2R 7246   5.463   4.987   7.065  0.8061 -0.8771  0.7018
   79SLPC   H2S 7247   5.549   5.130   6.996  1.4019 -0.7528  0.7740
   79SLPC    C3 7248   5.718   4.622   6.907  0.4480  0.0241  0.4408
   79SLPC    HX 7249   5.646   4.582   6.982 -0.2072  0.4478  0.0391
   79SLPC    HY 7250   5.808   4.557   6.908  2.5636  2.6957 -1.2717
   79SLPC   O31 7251   5.654   4.631   6.779  0.3094  0.4865  0.3113
   79SLPC   C31 7252   5.736   4.642   6.672 -0.8529 -0.7811 -0.8165
   79SLPC   O32 7253   5.857   4.626   6.672  0.3426  0.0317 -0.4310
   79SLPC   C32 7254   5.655   4.716   6.558 -0.0277 -0.2836  0.2980
   79SLPC   H2X 7255   5.707   4.812   6.541  0.2844 -0.5187 -0.0985
   79SLPC   H2Y 7256   5.555   4.719   6.607 -0.0068 -1.4056  0.4496
   79SLPC   C23 7257   5.430   5.010   6.847 -0.0775 -0.2558 -0.1711
   79SLPC   H3R 7258   5.341   5.073   6.863  0.4299  0.0280  1.7759
   79SLPC   H3S 7259   5.407   4.901   6.839  1.3867 -0.5786 -0.3817
   79SLPC   C24 7260   5.500   5.052   6.716 -0.2586  0.3440 -0.3184
   79SLPC   H4R 7261   5.590   4.988   6.703 -0.5046 -0.3698  1.2907
   79SLPC   H4S 7262   5.529   5.160   6.719  0.5453  0.1519  3.4122
   79SLPC   C25 7263   5.411   5.022   6.592 -0.1686 -0.0876  0.2805
   79SLPC   H5R 7264   5.327   5.093   6.605  0.5606  0.7294  0.6499
   79SLPC   H5S 7265   5.372   4.919   6.610 -0.6895 -0.1206 -0.9446
   79SLPC   C26 7266   5.461   5.032   6.449 -0.2721  0.2959  0.4904
   79SLPC   H6R 7267   5.545   4.961   6.437 -0.8984 -0.4548  0.4110
   79SLPC   H6S 7268   5.500   5.135   6.440 -0.6503  0.2785 -1.9396
   79SLPC   C27 7269   5.349   4.998   6.354  0.0266 -0.3112 -1.0050
   79SLPC   H7R 7270   5.254   5.053   6.374  0.2076 -0.5615  0.6859
   79SLPC   H7S 7271   5.321   4.893   6.379  0.2033 -0.2163 -0.3834
   79SLPC   C28 7272   5.385   5.009   6.200  0.1620 -0.0758 -0.1634
   79SLPC   H8R 7273   5.306   4.965   6.137 -0.2627 -0.9547  0.9624
   79SLPC   H8S 7274   5.479   4.950   6.198  1.0018  1.1445  1.0686
   79SLPC   C29 7275   5.417   5.150   6.156 -0.9152  0.5432  0.8997
   79SLPC   H9R 7276   5.398   5.233   6.225 -0.0091  1.5785 -0.0657
   79SLPC  C210 7277   5.493   5.184   6.043  0.1942 -0.1045  0.4326
   79SLPC  H10R 7278   5.526   5.287   6.021  1.2043 -0.4094  0.4810
   79SLPC  C211 7279   5.540   5.080   5.947  0.3351  0.5003 -0.1830
   79SLPC  H11R 7280   5.486   5.107   5.854 -3.8687 -0.3095  1.8075
   79SLPC  H11S 7281   5.507   4.978   5.978  0.2621 -0.2962 -2.6049
   79SLPC  C212 7282   5.686   5.094   5.919 -1.0115  0.0136 -0.7429
   79SLPC  H12R 7283   5.750   5.083   6.008  0.7762  2.3623 -1.6325
   79SLPC  C213 7284   5.746   5.108   5.799  0.1155 -0.1511 -0.8380
   79SLPC  H13R 7285   5.856   5.112   5.796  0.0886  0.4547 -1.1291
   79SLPC  C214 7286   5.679   5.103   5.667 -0.3364  0.0192  0.9058
   79SLPC  H14R 7287   5.716   5.187   5.605  0.3749  0.1378  1.4812
   79SLPC  H14S 7288   5.568   5.108   5.665 -0.4218 -1.5660 -0.1313
   79SLPC  C215 7289   5.727   4.975   5.601  0.4799  0.3921  1.4278
   79SLPC  H15R 7290   5.670   4.885   5.629  1.1470 -0.6510 -0.3966
   79SLPC  H15S 7291   5.836   4.956   5.613  0.8465 -0.7803 -2.4369
   79SLPC  C216 7292   5.706   4.973   5.443  0.2646  0.7016 -0.5063
   79SLPC  H16R 7293   5.761   5.056   5.394 -0.7651  2.3222  0.9848
   79SLPC  H16S 7294   5.599   4.993   5.422 -0.6091 -0.0017  2.6414
   79SLPC  C217 7295   5.745   4.841   5.369  0.1573  0.6503  0.6459
   79SLPC  H17R 7296   5.724   4.851   5.260  1.2609  0.3684  0.3844
   79SLPC  H17S 7297   5.683   4.758   5.408  1.3521 -1.8785 -2.3708
   79SLPC  C218 7298   5.892   4.788   5.372 -0.6135 -0.0389  0.4105
   79SLPC  H18R 7299   5.914   4.737   5.468  2.4150 -1.6057 -0.9691
   79SLPC  H18S 7300   5.967   4.871   5.372  1.3452 -1.7072  1.4121
   79SLPC  H18T 7301   5.926   4.721   5.290  1.3324  2.5266 -1.0415
   79SLPC   C33 7302   5.658   4.621   6.436 -0.1508 -0.2622  0.1505
   79SLPC   H3X 7303   5.681   4.520   6.477 -0.3767 -1.2762 -2.0639
   79SLPC   H3Y 7304   5.742   4.655   6.372  0.1688 -0.5997  0.3890
   79SLPC   C34 7305   5.524   4.631   6.373  0.3761 -0.3174  0.7623
   79SLPC   H4X 7306   5.503   4.737   6.347 -1.3472 -0.8965 -0.3568
   79SLPC   H4Y 7307   5.447   4.615   6.452  1.5596  3.8855  3.1019
   79SLPC   C35 7308   5.508   4.556   6.237 -0.0689 -0.1136  0.0929
   79SLPC   H5X 7309   5.421   4.582   6.172  0.0761  0.7759  0.2470
   79SLPC   H5Y 7310   5.494   4.448   6.261 -1.4300  0.0455  0.0920
   79SLPC   C36 7311   5.630   4.559   6.145 -0.3844  0.1563 -0.4803
   79SLPC   H6X 7312   5.730   4.535   6.186 -0.5819  2.0425  1.2524
   79SLPC   H6Y 7313   5.650   4.668   6.131  1.8461  0.0731  1.3806
   79SLPC   C37 7314   5.604   4.499   6.005  0.1815  0.3849  0.6966
   79SLPC   H7X 7315   5.515   4.553   5.965  1.1081  1.6890  0.3230
   79SLPC   H7Y 7316   5.581   4.391   6.010 -0.7842  0.5902  0.8586
   79SLPC   C38 7317   5.707   4.529   5.898 -0.4276  0.8747 -0.4089
   79SLPC   H8X 7318   5.812   4.511   5.928 -0.3148 -1.2823 -1.9048
   79SLPC   H8Y 7319   5.695   4.639   5.888  1.1389  1.1040  0.0539
   79SLPC   C39 7320   5.680   4.461   5.767 -0.5915 -0.2472 -0.5892
   79SLPC   H9X 7321   5.579   4.488   5.727 -0.6603 -2.3973 -2.0906
   79SLPC   H9Y 7322   5.684   4.352   5.789 -3.0449  0.0429  1.8024
   79SLPC  C310 7323   5.779   4.512   5.662 -0.2223  0.2608  0.2931
   79SLPC  H10X 7324   5.785   4.623   5.669  0.3462  0.5310 -2.9022
   79SLPC  H10Y 7325   5.753   4.484   5.557 -0.6918 -0.0807  0.4954
   79SLPC  C311 7326   5.919   4.453   5.680 -0.0857  0.4939  0.0574
   79SLPC  H11X 7327   5.963   4.501   5.770 -0.7331  0.2263  0.5272
   79SLPC  H11Y 7328   5.978   4.464   5.587  2.2738 -1.4689  1.2029
   79SLPC  C312 7329   5.907   4.296   5.702 -0.0969 -0.5525  0.5973
   79SLPC  H12X 7330   5.846   4.256   5.619  1.8615  0.3934 -1.4031
   79SLPC  H12Y 7331   5.861   4.268   5.799 -2.6562 -2.1434 -0.9848
   79SLPC  C313 7332   6.039   4.214   5.677 -0.1984  0.2281  0.6097
   79SLPC  H13X 7333   6.113   4.255   5.748 -0.9425  3.5090 -0.3381
   79SLPC  H13Y 7334   6.073   4.247   5.577 -1.2241  0.7585  0.4179
   79SLPC  C314 7335   6.029   4.057   5.684  0.0374 -0.7164  0.5311
   79SLPC  H14X 7336   6.123   4.006   5.657 -0.4723 -1.4196  0.0758
   79SLPC  H14Y 7337   5.956   4.042   5.601  1.6188 -1.1347 -0.8319
   79SLPC  C315 7338   5.956   4.001   5.808 -0.5985 -0.2287  0.0791
   79SLPC  H15X 7339   5.911   3.903   5.780 -1.0200  0.0601 -0.2633
   79SLPC  H15Y 7340   5.866   4.063   5.824 -1.2913 -1.5850  1.8123
   79SLPC  C316 7341   6.040   3.984   5.930  0.5414 -0.0500 -0.1809
   79SLPC  H16X 7342   6.071   4.087   5.958 -1.4715  0.2892  1.0017
   79SLPC  H16Y 7343   6.128   3.928   5.891  0.4516 -0.6115  0.4043
   79SLPC  C317 7344   5.970   3.912   6.050  0.3633  0.1639 -0.0838
   79SLPC  H17X 7345   5.876   3.969   6.063 -0.4823 -0.6664 -2.0992
   79SLPC  H17Y 7346   6.032   3.910   6.142  0.5326 -1.4181 -0.1944
   79SLPC  C318 7347   5.918   3.770   6.014  0.2320 -0.2915 -0.9247
   79SLPC  H18X 7348   5.828   3.788   5.951 -0.3044  0.5290  0.0325
   79SLPC  H18Y 7349   5.898   3.720   6.111  0.8870  1.0957 -0.0428
   79SLPC  H18Z 7350   5.991   3.703   5.964 -1.8494 -2.7518 -0.8881
   80SLPC     N 7351   5.801   0.066   6.794 -0.3980  0.3713  0.4511
   80SLPC   C13 7352   5.840   0.207   6.758 -0.4312 -0.4778 -0.0142
   80SLPC  H13A 7353   5.760   0.254   6.703 -0.3531 -0.3435 -0.0142
   80SLPC  H13B 7354   5.854   0.258   6.852 -3.4416 -3.2349  2.1633
   80SLPC  H13C 7355   5.932   0.202   6.701 -1.6361 -0.3439 -2.0450
   80SLPC   C14 7356   5.686   0.076   6.898 -0.1368  0.0420 -0.0501
   80SLPC  H14A 7357   5.713   0.129   6.988 -0.2503 -1.6106  1.0116
   80SLPC  H14B 7358   5.607   0.134   6.853 -0.3647 -1.0002 -1.0417
   80SLPC  H14C 7359   5.643  -0.019   6.928 -0.2221 -0.2465 -1.0671
   80SLPC   C15 7360   5.918  -0.003   6.862 -0.4557  0.0227 -0.1126
   80SLPC  H15A 7361   6.009   0.004   6.804 -0.3621 -4.0229 -0.7311
   80SLPC  H15B 7362   5.934   0.038   6.961  0.8887  2.1569 -1.1309
   80SLPC  H15C 7363   5.902  -0.109   6.870  0.1117 -0.1909 -1.4852
   80SLPC   C12 7364   5.751  -0.001   6.667 -1.1970  0.1667  0.1939
   80SLPC  H12A 7365   5.738  -0.104   6.694  3.2208 -0.5176  0.2986
   80SLPC  H12B 7366   5.836   0.006   6.601 -1.4847  1.7493 -0.0645
   80SLPC   C11 7367   5.630   0.056   6.595  0.2998 -0.1402  0.1362
   80SLPC  H11A 7368   5.552   0.053   6.675 -0.1367  0.9570 -0.2342
   80SLPC  H11B 7369   5.607  -0.019   6.518  2.4023 -0.8046  0.0928
   80SLPC     P 7370   5.542   0.295   6.561 -0.0710 -0.4756  0.0416
   80SLPC   O13 7371   5.527   0.311   6.709 -0.1142  0.2425  0.3000
   80SLPC   O14 7372   5.570   0.415   6.479  0.2289 -0.0576 -0.0705
   80SLPC   O12 7373   5.655   0.188   6.544  0.2313  0.1852 -0.2648
   80SLPC   O11 7374   5.416   0.225   6.507  0.4254 -0.4103 -0.2171
   80SLPC    C1 7375   5.306   0.299   6.448 -0.5690  0.3103  0.7485
   80SLPC    HA 7376   5.211   0.263   6.493 -0.3104  0.9010  1.7988
   80SLPC    HB 7377   5.313   0.409   6.460 -1.4400  0.6246 -1.2315
   80SLPC    C2 7378   5.300   0.285   6.295 -0.4971  0.5142 -0.6310
   80SLPC    HS 7379   5.192   0.281   6.270 -0.4749  1.9128 -1.0146
   80SLPC   O21 7380   5.381   0.180   6.250  0.2457 -0.7275  0.4740
   80SLPC   C21 7381   5.330   0.060   6.262 -0.3481  0.2245 -0.1691
   80SLPC   O22 7382   5.230   0.027   6.317  0.3449  0.2269 -0.1648
   80SLPC   C22 7383   5.432  -0.041   6.200  0.3007 -0.2656 -0.1725
   80SLPC   H2R 7384   5.530  -0.019   6.247  0.6635  2.7357 -2.1052
   80SLPC   H2S 7385   5.390  -0.139   6.233 -0.3891 -0.9324 -2.8183
   80SLPC    C3 7386   5.360   0.413   6.228  0.4320  0.0039  0.1850
   80SLPC    HX 7387   5.471   0.419   6.237  0.3010 -0.4967  3.3534
   80SLPC    HY 7388   5.315   0.508   6.263 -1.5314 -0.6724 -0.3919
   80SLPC   O31 7389   5.346   0.399   6.085  0.0949  0.3463  0.1544
   80SLPC   C31 7390   5.218   0.413   6.049 -0.0055 -0.2510 -0.1818
   80SLPC   O32 7391   5.127   0.457   6.115  0.6507  0.5829  0.4581
   80SLPC   C32 7392   5.208   0.374   5.906  0.7129 -0.7109  0.6598
   80SLPC   H2X 7393   5.271   0.440   5.842  1.0961 -1.7388 -0.0470
   80SLPC   H2Y 7394   5.104   0.396   5.874  0.9166 -0.2813  0.2723
   80SLPC   C23 7395   5.426  -0.046   6.047 -0.1767 -0.4462 -0.2091
   80SLPC   H3R 7396   5.463   0.051   6.007  0.2735 -0.1133  0.9551
   80SLPC   H3S 7397   5.319  -0.062   6.021 -0.5657  1.3455  0.1309
   80SLPC   C24 7398   5.504  -0.163   5.984 -0.3481  0.0970  0.3891
   80SLPC   H4R 7399   5.478  -0.257   6.037 -0.7196 -0.0395 -0.0260
   80SLPC   H4S 7400   5.614  -0.154   5.993 -0.2012 -0.7846 -0.3141
   80SLPC   C25 7401   5.467  -0.194   5.843 -0.0505 -0.3495 -0.5467
   80SLPC   H5R 7402   5.537  -0.271   5.804 -0.2695  0.2280 -2.1660
   80SLPC   H5S 7403   5.477  -0.107   5.774  1.4001  0.8425  1.0832
   80SLPC   C26 7404   5.330  -0.262   5.842 -0.3505  0.3751 -0.4699
   80SLPC   H6R 7405   5.261  -0.176   5.835  0.8925  1.5051  0.4324
   80SLPC   H6S 7406   5.308  -0.305   5.942 -1.3562  0.9080 -0.4511
   80SLPC   C27 7407   5.312  -0.374   5.733  0.1549 -0.4738  0.3465
   80SLPC   H7R 7408   5.218  -0.429   5.757  0.4762 -0.9916  0.4314
   80SLPC   H7S 7409   5.389  -0.453   5.744  0.0708 -0.6694 -0.4414
   80SLPC   C28 7410   5.290  -0.313   5.588 -0.4482 -0.2499  0.4849
   80SLPC   H8R 7411   5.195  -0.257   5.600  0.0592  0.4222  1.4353
   80SLPC   H8S 7412   5.270  -0.404   5.526 -0.2158 -1.3974  2.0441
   80SLPC   C29 7413   5.395  -0.215   5.531 -0.2293  0.4102  0.6248
   80SLPC   H9R 7414   5.484  -0.192   5.592  1.0004 -0.0980 -0.8806
   80SLPC  C210 7415   5.401  -0.168   5.407 -0.0644 -0.0306  0.6496
   80SLPC  H10R 7416   5.485  -0.099   5.388  0.3231 -0.5773  0.3521
   80SLPC  C211 7417   5.304  -0.183   5.293  0.2716 -0.2565 -0.3444
   80SLPC  H11R 7418   5.221  -0.246   5.330  0.1664  1.2891  2.3006
   80SLPC  H11S 7419   5.356  -0.229   5.206  0.8518  2.1691 -1.3919
   80SLPC  C212 7420   5.246  -0.046   5.254 -0.3202  0.5635 -0.0945
   80SLPC  H12R 7421   5.213   0.020   5.336 -0.4442 -1.0370  1.1950
   80SLPC  C213 7422   5.210  -0.010   5.128 -0.3621 -0.1933  0.0805
   80SLPC  H13R 7423   5.150   0.082   5.120  0.6549  0.8266  2.9579
   80SLPC  C214 7424   5.242  -0.094   5.007  0.4528 -0.2741  0.1107
   80SLPC  H14R 7425   5.222  -0.198   5.042 -0.0055  0.5572  2.5491
   80SLPC  H14S 7426   5.349  -0.082   4.980  0.8814  1.0031  2.1485
   80SLPC  C215 7427   5.143  -0.063   4.897 -0.3457 -0.5598 -0.6136
   80SLPC  H15R 7428   5.058  -0.003   4.936  1.2601  1.1754  0.3703
   80SLPC  H15S 7429   5.115  -0.160   4.851  0.5038 -1.2243  0.2466
   80SLPC  C216 7430   5.215   0.021   4.792  0.5131 -0.6066  0.1700
   80SLPC  H16R 7431   5.316  -0.023   4.774  1.2723  1.3013 -0.4654
   80SLPC  H16S 7432   5.234   0.126   4.823  0.0592 -0.5822  0.3705
   80SLPC  C217 7433   5.136   0.014   4.659 -0.3483  0.0280 -0.6438
   80SLPC  H17R 7434   5.031   0.049   4.669 -0.6740 -0.9736 -0.3986
   80SLPC  H17S 7435   5.135  -0.088   4.616  1.3725 -1.0996  1.7406
   80SLPC  C218 7436   5.206   0.104   4.555  0.5600  0.3123 -0.1368
   80SLPC  H18R 7437   5.315   0.091   4.541  0.1214 -1.7009 -2.3146
   80SLPC  H18S 7438   5.195   0.210   4.587  0.7256  0.9523 -2.0460
   80SLPC  H18T 7439   5.154   0.097   4.457 -2.5221 -0.3277  1.3978
   80SLPC   C33 7440   5.258   0.226   5.875  0.3759 -0.1206  0.2072
   80SLPC   H3X 7441   5.206   0.152   5.939  0.6580 -0.5510 -0.0549
   80SLPC   H3Y 7442   5.365   0.227   5.905  0.2733  1.1548  0.5899
   80SLPC   C34 7443   5.241   0.190   5.729  0.3799  0.5182  0.2341
   80SLPC   H4X 7444   5.277   0.086   5.718 -1.6962 -0.9337  4.8729
   80SLPC   H4Y 7445   5.309   0.250   5.665 -0.4079 -0.2911 -1.4260
   80SLPC   C35 7446   5.094   0.195   5.690 -0.3748 -0.5518  0.0426
   80SLPC   H5X 7447   5.037   0.290   5.701  1.1537  0.6164 -1.5781
   80SLPC   H5Y 7448   5.039   0.124   5.755  1.3934 -1.2490  0.8315
   80SLPC   C36 7449   5.079   0.165   5.538 -0.3921 -0.2122  0.0830
   80SLPC   H6X 7450   5.109   0.062   5.508 -0.6660 -0.4444  0.5867
   80SLPC   H6Y 7451   5.137   0.236   5.477  0.4239 -0.7464  0.2212
   80SLPC   C37 7452   4.929   0.171   5.503  0.2608 -0.3063 -0.6140
   80SLPC   H7X 7453   4.883   0.241   5.577  3.9946 -0.7973  2.4553
   80SLPC   H7Y 7454   4.888   0.069   5.514 -2.0075  0.4823 -1.0287
   80SLPC   C38 7455   4.893   0.217   5.359 -0.1360  0.0706 -0.2564
   80SLPC   H8X 7456   4.967   0.160   5.298  0.1335 -1.8448  1.7548
   80SLPC   H8Y 7457   4.913   0.326   5.353 -1.2648  0.2747 -0.5900
   80SLPC   C39 7458   4.749   0.186   5.325 -0.9634  0.0312  0.2046
   80SLPC   H9X 7459   4.696   0.209   5.420 -0.5026 -0.7074  0.6442
   80SLPC   H9Y 7460   4.739   0.077   5.310  0.7169 -0.1964  0.5124
   80SLPC  C310 7461   4.706   0.245   5.194  0.1930 -0.6584  0.2883
   80SLPC  H10X 7462   4.777   0.208   5.117  2.3887  3.5768 -0.0469
   80SLPC  H10Y 7463   4.738   0.351   5.196  0.6941 -0.8101  0.3892
   80SLPC  C311 7464   4.561   0.219   5.150 -0.4082 -0.3183  0.5466
   80SLPC  H11X 7465   4.551   0.265   5.050 -0.2843  0.2418  0.7875
   80SLPC  H11Y 7466   4.491   0.261   5.225 -2.1813  1.8025 -2.1481
   80SLPC  C312 7467   4.533   0.075   5.133 -0.8864  0.6521  0.3573
   80SLPC  H12X 7468   4.550   0.018   5.227  1.8671  1.4545  0.4416
   80SLPC  H12Y 7469   4.597   0.024   5.058 -0.2404 -0.3733  1.5856
   80SLPC  C313 7470   4.384   0.040   5.095  0.1986 -0.1208 -0.4069
   80SLPC  H13X 7471   4.359   0.084   4.996  1.0078 -0.1060 -0.6120
   80SLPC  H13Y 7472   4.330   0.095   5.174  1.0119 -2.7886  2.1908
   80SLPC  C314 7473   4.365  -0.108   5.092  0.1777 -0.3677  0.3501
   80SLPC  H14X 7474   4.381  -0.156   5.191 -2.3369 -0.0588  0.9830
   80SLPC  H14Y 7475   4.441  -0.139   5.018 -0.4297  2.6639 -1.7236
   80SLPC  C315 7476   4.230  -0.153   5.040 -0.4624  1.0739 -0.7804
   80SLPC  H15X 7477   4.243  -0.248   4.984 -2.2482  1.3508 -1.7546
   80SLPC  H15Y 7478   4.188  -0.075   4.972  1.2684  1.6143 -1.2924
   80SLPC  C316 7479   4.136  -0.186   5.158 -0.2236 -0.4961  0.2151
   80SLPC  H16X 7480   4.113  -0.090   5.210  0.4692 -1.3513  2.2267
   80SLPC  H16Y 7481   4.182  -0.242   5.243 -1.6231 -0.2696  1.1660
   80SLPC  C317 7482   4.000  -0.233   5.118 -0.0711 -0.1003 -0.0653
   80SLPC  H17X 7483   4.013  -0.335   5.077  1.5793  0.9748 -2.4450
   80SLPC  H17Y 7484   3.949  -0.165   5.046 -0.4927 -0.0012  0.3193
   80SLPC  C318 7485   3.917  -0.243   5.251 -0.3312  0.2202 -0.2346
   80SLPC  H18X 7486   3.991  -0.284   5.323  1.7203  1.8430 -1.2981
   80SLPC  H18Y 7487   3.825  -0.302   5.231  0.5607 -0.5373 -2.4206
   80SLPC  H18Z 7488   3.898  -0.143   5.295 -0.1522  0.0614  0.2146
   81SLPC     N 7489   6.235   6.870   2.233 -0.4065  0.3314 -0.6055
   81SLPC   C13 7490   6.344   6.962   2.281  1.0826 -0.4981  0.2717
   81SLPC  H13A 7491   6.382   6.943   2.381 -1.2956  2.2791  1.8613
   81SLPC  H13B 7492   6.425   6.948   2.211  0.7324 -0.7110 -0.0929
   81SLPC  H13C 7493   6.320   7.067   2.272 -0.8705 -1.0132 -0.9636
   81SLPC   C14 7494   6.216   6.906   2.091  0.5875  0.3320 -0.3163
   81SLPC  H14A 7495   6.138   6.838   2.059  0.9048 -1.1986  1.9332
   81SLPC  H14B 7496   6.185   7.008   2.077 -0.4988  0.2875  1.4965
   81SLPC  H14C 7497   6.297   6.873   2.027  0.5647 -1.1087  0.3597
   81SLPC   C15 7498   6.112   6.888   2.315 -0.8747  0.4309 -0.2424
   81SLPC  H15A 7499   6.127   6.870   2.421 -2.0201 -1.8543 -0.3873
   81SLPC  H15B 7500   6.080   6.990   2.302 -0.2858  0.6521 -0.0075
   81SLPC  H15C 7501   6.030   6.830   2.275  0.7325 -3.2661  1.3007
   81SLPC   C12 7502   6.289   6.730   2.241 -0.4340  0.0630 -1.3743
   81SLPC  H12A 7503   6.379   6.717   2.183  1.0039 -0.8693  0.9270
   81SLPC  H12B 7504   6.217   6.660   2.201 -1.3349 -1.3405  2.2966
   81SLPC   C11 7505   6.319   6.676   2.389 -0.1489 -0.3826 -0.7788
   81SLPC  H11A 7506   6.343   6.567   2.391 -0.9681 -0.5964 -1.7649
   81SLPC  H11B 7507   6.232   6.687   2.457  0.7446 -0.6765  0.4534
   81SLPC     P 7508   6.575   6.733   2.419 -0.0511 -0.1297 -0.1961
   81SLPC   O13 7509   6.592   6.671   2.288 -0.3752  0.5461  0.5235
   81SLPC   O14 7510   6.622   6.872   2.442  0.2111 -0.5819 -0.6496
   81SLPC   O12 7511   6.421   6.741   2.447  0.1631  0.2250  0.0668
   81SLPC   O11 7512   6.643   6.640   2.531 -0.0490 -0.0287 -0.6217
   81SLPC    C1 7513   6.609   6.509   2.547  0.6592 -0.0405 -0.5045
   81SLPC    HA 7514   6.581   6.450   2.457 -1.0776 -1.0283  0.6251
   81SLPC    HB 7515   6.689   6.458   2.605 -0.6710 -0.6407  0.8646
   81SLPC    C2 7516   6.484   6.500   2.645 -0.1482 -0.7925 -0.2269
   81SLPC    HS 7517   6.401   6.512   2.572  0.3462  2.0273 -0.4514
   81SLPC   O21 7518   6.484   6.596   2.747  0.3193 -0.0466 -0.5966
   81SLPC   C21 7519   6.360   6.648   2.794 -0.3854  0.2469 -0.2256
   81SLPC   O22 7520   6.255   6.644   2.732 -0.5014 -0.6839  0.3114
   81SLPC   C22 7521   6.361   6.695   2.934 -0.3613 -0.2078  0.1167
   81SLPC   H2R 7522   6.354   6.601   2.994  0.6164 -0.4906 -0.1867
   81SLPC   H2S 7523   6.457   6.750   2.945 -0.2509 -0.3574 -0.0751
   81SLPC    C3 7524   6.455   6.357   2.695  0.0659  0.6816 -0.0268
   81SLPC    HX 7525   6.533   6.321   2.766  2.0774 -0.5690 -2.6963
   81SLPC    HY 7526   6.448   6.288   2.609  0.9705 -1.9827  1.8756
   81SLPC   O31 7527   6.322   6.342   2.756  0.0348  0.0529  0.1519
   81SLPC   C31 7528   6.305   6.276   2.865 -0.8668 -0.2624  0.1045
   81SLPC   O32 7529   6.394   6.221   2.930  0.2159  0.2390  0.0303
   81SLPC   C32 7530   6.160   6.258   2.897 -0.0379  0.7078  0.8061
   81SLPC   H2X 7531   6.110   6.186   2.829  2.3013  0.1794 -0.4632
   81SLPC   H2Y 7532   6.113   6.358   2.882 -0.5905  0.5224  1.2632
   81SLPC   C23 7533   6.246   6.781   2.977  0.0874 -0.0928 -0.3643
   81SLPC   H3R 7534   6.145   6.738   2.958  0.5891 -2.0526  1.0456
   81SLPC   H3S 7535   6.244   6.871   2.913  1.1610 -0.4214 -0.8910
   81SLPC   C24 7536   6.251   6.816   3.124  0.2919  0.2300 -0.0004
   81SLPC   H4R 7537   6.301   6.728   3.169  0.3485 -0.2807 -1.0212
   81SLPC   H4S 7538   6.144   6.815   3.154 -1.3753  2.8181 -4.6966
   81SLPC   C25 7539   6.298   6.954   3.147  0.0889 -0.2729 -0.5156
   81SLPC   H5R 7540   6.222   7.031   3.119  0.1969  0.6845  1.6463
   81SLPC   H5S 7541   6.388   6.990   3.094  0.1132  2.6389  1.2866
   81SLPC   C26 7542   6.318   6.986   3.293 -0.0632 -0.2470 -0.2728
   81SLPC   H6R 7543   6.245   6.928   3.354  0.8872 -1.0058  0.1833
   81SLPC   H6S 7544   6.289   7.091   3.309 -0.8777 -0.0980 -2.4082
   81SLPC   C27 7545   6.456   6.950   3.349  0.7445 -0.0322 -0.0732
   81SLPC   H7R 7546   6.538   7.010   3.304  0.5069  1.8347  1.8157
   81SLPC   H7S 7547   6.471   6.842   3.328  0.2416 -0.0552 -0.3278
   81SLPC   C28 7548   6.450   6.973   3.498  0.1580  0.1982  0.1911
   81SLPC   H8R 7549   6.391   7.066   3.518 -0.9552  0.0727 -2.0965
   81SLPC   H8S 7550   6.555   6.976   3.534  0.9248  1.8600 -1.9692
   81SLPC   C29 7551   6.382   6.852   3.563  0.4056 -0.9101 -0.2090
   81SLPC   H9R 7552   6.431   6.753   3.556  4.4881  0.9158 -0.4644
   81SLPC  C210 7553   6.283   6.874   3.654  0.2391  0.1338 -0.3348
   81SLPC  H10R 7554   6.243   6.784   3.703  0.9238 -0.2912 -0.5506
   81SLPC  C211 7555   6.230   7.008   3.701  0.5851 -0.5885 -0.3329
   81SLPC  H11R 7556   6.316   7.078   3.708  0.1231 -0.0720  0.4112
   81SLPC  H11S 7557   6.168   6.995   3.792  0.5984  0.0479 -0.2249
   81SLPC  C212 7558   6.147   7.077   3.594  0.0980  0.5764  0.6520
   81SLPC  H12R 7559   6.174   7.178   3.560 -1.2087  0.8841  0.4487
   81SLPC  C213 7560   6.036   7.024   3.540 -0.0806  0.5703  0.1345
   81SLPC  H13R 7561   5.987   7.063   3.450 -3.1302 -0.6121  1.1178
   81SLPC  C214 7562   5.971   6.894   3.583  0.4692  0.4967 -0.8435
   81SLPC  H14R 7563   6.002   6.868   3.687 -1.8478  1.9018  0.2982
   81SLPC  H14S 7564   6.005   6.817   3.510 -0.0760 -3.2309  2.4444
   81SLPC  C215 7565   5.816   6.899   3.589 -0.2501  0.6298  0.1027
   81SLPC  H15R 7566   5.769   6.800   3.575 -1.2734  1.1481 -0.2429
   81SLPC  H15S 7567   5.769   6.964   3.512  0.2332 -0.1905 -0.9084
   81SLPC  C216 7568   5.773   6.948   3.727 -0.6156 -0.0887 -0.1886
   81SLPC  H16R 7569   5.830   7.041   3.749  0.2680 -0.6249 -0.1574
   81SLPC  H16S 7570   5.788   6.881   3.814 -2.1165  0.3628  0.4342
   81SLPC  C217 7571   5.629   6.992   3.721  0.1158 -0.3915  0.3835
   81SLPC  H17R 7572   5.572   6.897   3.709  2.4478 -1.9059  0.6473
   81SLPC  H17S 7573   5.608   7.049   3.628 -1.4520 -2.2374 -0.4764
   81SLPC  C218 7574   5.579   7.074   3.843 -0.3926  0.4664 -0.0398
   81SLPC  H18R 7575   5.570   7.180   3.810 -0.6232  0.5071  0.1499
   81SLPC  H18S 7576   5.650   7.074   3.928  1.5061  0.1775 -1.5439
   81SLPC  H18T 7577   5.480   7.031   3.868 -0.2246  0.8821  1.3950
   81SLPC   C33 7578   6.131   6.221   3.036  0.4795  0.8054 -0.4457
   81SLPC   H3X 7579   6.177   6.125   3.066  1.1255  2.2587  3.9252
   81SLPC   H3Y 7580   6.025   6.188   3.026  0.5054  1.2377 -2.5558
   81SLPC   C34 7581   6.157   6.328   3.139 -0.4626  0.1581 -0.4550
   81SLPC   H4X 7582   6.124   6.423   3.090 -0.9497 -0.0275 -0.4873
   81SLPC   H4Y 7583   6.268   6.342   3.137 -0.3436 -0.1172  1.7655
   81SLPC   C35 7584   6.105   6.306   3.280  0.1757 -0.1640  0.6813
   81SLPC   H5X 7585   6.119   6.200   3.309 -0.0993 -0.7923 -1.3373
   81SLPC   H5Y 7586   5.995   6.320   3.275  0.2770  0.6565  0.5663
   81SLPC   C36 7587   6.150   6.404   3.385  0.0604  0.5626  0.2258
   81SLPC   H6X 7588   6.123   6.499   3.334 -0.5025  0.2172 -0.1204
   81SLPC   H6Y 7589   6.260   6.394   3.402  0.6240  2.8431 -1.6605
   81SLPC   C37 7590   6.076   6.400   3.519  0.5045 -0.0713  0.0239
   81SLPC   H7X 7591   6.055   6.294   3.547  3.6892 -0.9099 -0.4499
   81SLPC   H7Y 7592   5.977   6.449   3.506  1.4827  2.0475  0.2609
   81SLPC   C38 7593   6.135   6.477   3.636  0.2333 -0.0431 -0.5326
   81SLPC   H8X 7594   6.185   6.570   3.600  1.3675  0.2524  1.6472
   81SLPC   H8Y 7595   6.212   6.413   3.682 -0.4283  0.0194  0.7136
   81SLPC   C39 7596   6.033   6.507   3.748  0.4954 -0.2342  0.0513
   81SLPC   H9X 7597   5.985   6.412   3.779 -1.1115  0.3118 -0.6659
   81SLPC   H9Y 7598   5.955   6.574   3.705  0.6838 -0.1054 -0.0907
   81SLPC  C310 7599   6.092   6.580   3.875  0.2172  0.0391 -0.1148
   81SLPC  H10X 7600   6.185   6.632   3.844  1.1603 -0.9188  0.9755
   81SLPC  H10Y 7601   6.138   6.509   3.948  0.6263  1.0466  0.6377
   81SLPC  C311 7602   5.994   6.672   3.946  0.8816  0.0343 -0.3947
   81SLPC  H11X 7603   5.926   6.608   4.005 -1.2263  2.4489 -0.0585
   81SLPC  H11Y 7604   5.936   6.733   3.874  0.5188 -1.9178 -1.8446
   81SLPC  C312 7605   6.059   6.773   4.046  0.6616  0.9119  0.2117
   81SLPC  H12X 7606   6.152   6.804   3.994  1.7216 -2.8465 -0.4122
   81SLPC  H12Y 7607   6.086   6.717   4.138  0.3211  0.9080  0.3107
   81SLPC  C313 7608   5.962   6.883   4.089 -0.3072 -0.6372 -0.0285
   81SLPC  H13X 7609   5.952   6.950   4.001  0.0054 -0.3349  0.1670
   81SLPC  H13Y 7610   6.019   6.950   4.156 -0.3757  0.2967 -0.8807
   81SLPC  C314 7611   5.825   6.854   4.151  0.1043  0.0265  0.0971
   81SLPC  H14X 7612   5.828   6.763   4.216 -0.3265  0.2242  0.3980
   81SLPC  H14Y 7613   5.757   6.834   4.066 -2.7628  0.7534  2.0804
   81SLPC  C315 7614   5.765   6.974   4.226  0.0712  0.2235  0.6093
   81SLPC  H15X 7615   5.742   7.057   4.156 -2.1228 -1.1765 -0.4440
   81SLPC  H15Y 7616   5.845   7.004   4.297  1.4228  0.9100 -1.1349
   81SLPC  C316 7617   5.638   6.926   4.295 -0.0015 -0.0269 -0.5677
   81SLPC  H16X 7618   5.671   6.836   4.352  1.1656  0.4683 -0.4355
   81SLPC  H16Y 7619   5.552   6.898   4.231  0.0350  1.2181 -1.1785
   81SLPC  C317 7620   5.589   7.033   4.392 -0.7442  0.5158  0.2142
   81SLPC  H17X 7621   5.483   7.007   4.414  0.2525 -2.4804  2.1187
   81SLPC  H17Y 7622   5.602   7.128   4.337 -2.1544 -0.3959 -1.8342
   81SLPC  C318 7623   5.672   7.028   4.521  0.0076 -0.1241  0.0450
   81SLPC  H18X 7624   5.630   7.083   4.608 -1.0103 -0.6002 -0.1292
   81SLPC  H18Y 7625   5.778   7.061   4.513 -0.0141 -0.3691 -1.6139
   81SLPC  H18Z 7626   5.675   6.924   4.561 -0.1857 -0.2055 -0.1501
   82SLPC     N 7627   0.323   0.232   2.535 -0.4090  0.3752 -0.1823
   82SLPC   C13 7628   0.303   0.357   2.617 -0.2640  0.1754  0.1587
   82SLPC  H13A 7629   0.235   0.342   2.699  0.3474 -2.3970  0.2619
   82SLPC  H13B 7630   0.389   0.398   2.667  0.0125  0.3880 -0.4797
   82SLPC  H13C 7631   0.266   0.433   2.548  1.6079  1.2320  0.2642
   82SLPC   C14 7632   0.435   0.249   2.439 -0.5421  0.0590 -0.1925
   82SLPC  H14A 7633   0.444   0.153   2.391 -1.7221 -0.7004  1.0222
   82SLPC  H14B 7634   0.424   0.328   2.366 -0.7937 -0.7489 -1.0635
   82SLPC  H14C 7635   0.529   0.260   2.490  0.2984 -3.1410 -0.8503
   82SLPC   C15 7636   0.205   0.188   2.458 -0.0470 -0.1981 -0.3924
   82SLPC  H15A 7637   0.215   0.090   2.414 -0.0638 -0.5874  0.4552
   82SLPC  H15B 7638   0.130   0.165   2.532  0.2111 -0.3894 -0.1902
   82SLPC  H15C 7639   0.168   0.269   2.397 -0.7818  1.2050  1.8003
   82SLPC   C12 7640   0.353   0.117   2.631 -0.6782 -0.5988 -0.9334
   82SLPC  H12A 7641   0.447   0.147   2.676 -1.4900  2.4443 -1.0561
   82SLPC  H12B 7642   0.359   0.019   2.586 -1.2693 -1.0473 -0.0730
   82SLPC   C11 7643   0.258   0.117   2.756 -0.0568 -0.0396 -0.0641
   82SLPC  H11A 7644   0.238   0.216   2.801  1.3234  0.3573 -0.2730
   82SLPC  H11B 7645   0.317   0.053   2.825  0.8855  1.2452  0.3689
   82SLPC     P 7646   0.124  -0.101   2.724  0.1261 -0.4689 -0.2743
   82SLPC   O13 7647  -0.011  -0.154   2.693  0.3153  0.5847  0.1002
   82SLPC   O14 7648   0.244  -0.169   2.676 -0.6254 -0.4826  0.3847
   82SLPC   O12 7649   0.136   0.057   2.709  0.0429 -0.5581  0.4930
   82SLPC   O11 7650   0.137  -0.103   2.879  0.5980  0.2014  0.4866
   82SLPC    C1 7651   0.043  -0.021   2.961 -0.2841  0.4508 -0.6330
   82SLPC    HA 7652   0.099   0.072   2.987 -1.8357  1.6960 -1.6019
   82SLPC    HB 7653  -0.050   0.017   2.915 -1.0303 -2.1098 -1.4174
   82SLPC    C2 7654   0.009  -0.097   3.093  0.4700 -0.1009 -0.2300
   82SLPC    HS 7655  -0.047  -0.028   3.159 -2.2885 -1.1224 -1.3467
   82SLPC   O21 7656   0.119  -0.152   3.159 -0.1211  0.0334 -0.3069
   82SLPC   C21 7657   0.200  -0.071   3.221  0.1533  0.9905  0.7287
   82SLPC   O22 7658   0.196   0.048   3.216 -0.0428 -0.0821  0.2303
   82SLPC   C22 7659   0.298  -0.155   3.303  0.0966  0.0563 -0.1562
   82SLPC   H2R 7660   0.320  -0.244   3.240  0.2441  0.2351 -0.3567
   82SLPC   H2S 7661   0.398  -0.107   3.307  0.5875 -0.9053 -0.5985
   82SLPC    C3 7662  -0.090  -0.215   3.062  0.7225  0.4269 -0.4584
   82SLPC    HX 7663  -0.038  -0.289   2.997  0.0649 -1.3123  0.8954
   82SLPC    HY 7664  -0.178  -0.174   3.009 -0.7998 -0.1509  1.4991
   82SLPC   O31 7665  -0.135  -0.282   3.187  0.1094 -0.4212  0.5618
   82SLPC   C31 7666  -0.198  -0.196   3.271  0.3577 -1.0372 -0.0232
   82SLPC   O32 7667  -0.247  -0.089   3.236 -0.7249 -0.0819 -0.2193
   82SLPC   C32 7668  -0.201  -0.256   3.409 -0.0620 -0.1672 -0.7476
   82SLPC   H2X 7669  -0.116  -0.327   3.426  0.8207  1.1823  0.7774
   82SLPC   H2Y 7670  -0.294  -0.316   3.417  0.3485 -0.6143  1.1359
   82SLPC   C23 7671   0.228  -0.199   3.435 -0.7777  0.2307  0.1519
   82SLPC   H3R 7672   0.289  -0.281   3.479 -0.5207  0.8675  1.0277
   82SLPC   H3S 7673   0.127  -0.234   3.408 -1.5810  2.2955  0.3226
   82SLPC   C24 7674   0.234  -0.096   3.543  0.2245  0.1403 -0.3892
   82SLPC   H4R 7675   0.168  -0.009   3.521 -1.2580 -0.4569  1.3811
   82SLPC   H4S 7676   0.341  -0.068   3.554 -0.0307  0.5720  1.4549
   82SLPC   C25 7677   0.194  -0.157   3.681  0.4796 -0.2513  0.0943
   82SLPC   H5R 7678   0.259  -0.247   3.693  0.2574 -0.4451 -0.1374
   82SLPC   H5S 7679   0.093  -0.201   3.671 -0.2125  1.4729 -0.6728
   82SLPC   C26 7680   0.192  -0.060   3.800 -0.0266  0.2771  0.0444
   82SLPC   H6R 7681   0.125   0.023   3.769  1.2276  1.3592  0.1430
   82SLPC   H6S 7682   0.297  -0.029   3.813  0.7411 -1.5516 -1.3303
   82SLPC   C27 7683   0.149  -0.120   3.935  0.1478  0.1940  0.0020
   82SLPC   H7R 7684   0.046  -0.160   3.922 -0.0796 -0.5142  3.1557
   82SLPC   H7S 7685   0.147  -0.040   4.013  0.8236  0.3458 -0.1331
   82SLPC   C28 7686   0.240  -0.226   4.000  0.1748  0.1622 -0.3144
   82SLPC   H8R 7687   0.338  -0.178   4.020 -0.8069  2.4201 -0.5592
   82SLPC   H8S 7688   0.259  -0.311   3.931 -2.2020  0.3140 -1.2466
   82SLPC   C29 7689   0.170  -0.279   4.125  0.3155 -0.2731  0.6231
   82SLPC   H9R 7690   0.130  -0.379   4.103  2.4203 -0.2311 -5.2666
   82SLPC  C210 7691   0.181  -0.222   4.251 -0.8185  0.3784 -0.8522
   82SLPC  H10R 7692   0.138  -0.282   4.332 -2.6773  1.2236 -1.1661
   82SLPC  C211 7693   0.243  -0.091   4.299  0.1527 -0.0138  0.7959
   82SLPC  H11R 7694   0.161  -0.016   4.306 -1.8455 -2.1604  1.7375
   82SLPC  H11S 7695   0.310  -0.063   4.215  0.6188 -0.0471  1.1574
   82SLPC  C212 7696   0.321  -0.104   4.428  0.1615  0.1066  0.2684
   82SLPC  H12R 7697   0.429  -0.125   4.420 -0.0707 -3.4273  3.6152
   82SLPC  C213 7698   0.264  -0.100   4.547  0.0763  0.4322  0.2982
   82SLPC  H13R 7699   0.330  -0.114   4.634  1.1963 -2.0295 -0.8566
   82SLPC  C214 7700   0.121  -0.082   4.583 -0.2971 -0.2926  0.3506
   82SLPC  H14R 7701   0.086  -0.151   4.663 -2.4329  0.5530  0.2095
   82SLPC  H14S 7702   0.060  -0.111   4.495 -1.5235  0.7252  0.8364
   82SLPC  C215 7703   0.072   0.053   4.631 -0.6717  0.0329 -0.6314
   82SLPC  H15R 7704  -0.026   0.073   4.584 -0.1382 -1.7746 -2.7059
   82SLPC  H15S 7705   0.142   0.132   4.596 -1.6561  1.6608  0.9015
   82SLPC  C216 7706   0.060   0.061   4.783  0.7679 -0.0871 -0.3545
   82SLPC  H16R 7707   0.161   0.048   4.827 -0.0622 -0.2028  1.6242
   82SLPC  H16S 7708   0.007  -0.031   4.816 -0.7139  0.4646 -1.0871
   82SLPC  C217 7709  -0.026   0.174   4.843  0.1479 -0.0889  0.3669
   82SLPC  H17R 7710  -0.034   0.150   4.951  2.8085 -2.8842  0.1005
   82SLPC  H17S 7711  -0.127   0.182   4.798  0.4017  0.8419 -0.0637
   82SLPC  C218 7712   0.043   0.303   4.823 -1.2608 -0.4500  0.1223
   82SLPC  H18R 7713   0.143   0.301   4.871 -0.1472  2.9325 -1.7248
   82SLPC  H18S 7714  -0.019   0.385   4.865  1.7606  1.8175  0.5367
   82SLPC  H18T 7715   0.060   0.335   4.718 -3.0147  0.4168  0.0748
   82SLPC   C33 7716  -0.195  -0.147   3.525  0.6777 -0.2275 -0.7851
   82SLPC   H3X 7717  -0.254  -0.059   3.490  1.4179  1.4622  1.9447
   82SLPC   H3Y 7718  -0.090  -0.118   3.549 -0.0077  0.2695  1.9632
   82SLPC   C34 7719  -0.270  -0.192   3.658  0.0463 -0.6588  0.9186
   82SLPC   H4X 7720  -0.367  -0.229   3.620  0.2287 -2.6838  2.2464
   82SLPC   H4Y 7721  -0.269  -0.104   3.726  0.8319 -0.2380  0.3841
   82SLPC   C35 7722  -0.195  -0.301   3.735 -0.3330 -0.0341 -0.5339
   82SLPC   H5X 7723  -0.085  -0.284   3.734  0.1717 -2.8614 -0.7481
   82SLPC   H5Y 7724  -0.211  -0.403   3.694  0.6228 -0.2549 -0.3827
   82SLPC   C36 7725  -0.234  -0.293   3.882 -0.4145  0.1107 -0.2275
   82SLPC   H6X 7726  -0.343  -0.303   3.904 -0.3594 -0.8814 -0.3507
   82SLPC   H6Y 7727  -0.199  -0.194   3.919  3.1277 -1.2374  0.4404
   82SLPC   C37 7728  -0.151  -0.400   3.960  1.1586  0.2227  0.1002
   82SLPC   H7X 7729  -0.042  -0.382   3.970  0.9675  1.0977  0.7022
   82SLPC   H7Y 7730  -0.149  -0.495   3.902  4.4984  0.1772  0.1101
   82SLPC   C38 7731  -0.225  -0.429   4.096 -0.0959 -0.8359  0.0089
   82SLPC   H8X 7732  -0.315  -0.490   4.070 -0.7783  0.7613 -1.5426
   82SLPC   H8Y 7733  -0.258  -0.334   4.143  2.1999  1.7909 -3.1838
   82SLPC   C39 7734  -0.137  -0.498   4.193  0.3363 -0.5561  0.3222
   82SLPC   H9X 7735  -0.037  -0.450   4.186  0.9811 -1.6744  1.5779
   82SLPC   H9Y 7736  -0.124  -0.604   4.163  0.8604 -0.5659  0.5786
   82SLPC  C310 7737  -0.196  -0.489   4.328  1.0768 -0.1551 -0.2843
   82SLPC  H10X 7738  -0.163  -0.573   4.393 -0.7480 -0.1901  0.6976
   82SLPC  H10Y 7739  -0.304  -0.504   4.307  1.3831 -2.8119 -0.3362
   82SLPC  C311 7740  -0.177  -0.357   4.417  0.1507 -0.2581  0.3546
   82SLPC  H11X 7741  -0.210  -0.267   4.361 -1.0801 -2.1961 -2.3014
   82SLPC  H11Y 7742  -0.073  -0.338   4.452  0.0052 -1.2796  1.3959
   82SLPC  C312 7743  -0.260  -0.362   4.556 -0.3550 -0.7791  0.7782
   82SLPC  H12X 7744  -0.232  -0.454   4.611 -0.4393 -1.6683 -0.6181
   82SLPC  H12Y 7745  -0.366  -0.374   4.523 -0.8821  1.5181  1.4215
   82SLPC  C313 7746  -0.253  -0.232   4.636  0.3719  0.6336  0.4152
   82SLPC  H13X 7747  -0.291  -0.162   4.560 -0.2868 -0.0568  0.0929
   82SLPC  H13Y 7748  -0.150  -0.209   4.671  1.3056 -1.3137 -0.8389
   82SLPC  C314 7749  -0.349  -0.242   4.756  0.4659  0.4370  0.0422
   82SLPC  H14X 7750  -0.307  -0.312   4.831  0.7734  0.9062  0.3123
   82SLPC  H14Y 7751  -0.441  -0.299   4.733  0.5345  0.3600 -0.0421
   82SLPC  C315 7752  -0.370  -0.102   4.817 -0.2119  0.1808  0.2815
   82SLPC  H15X 7753  -0.417  -0.033   4.745  1.2615 -0.4073 -1.3130
   82SLPC  H15Y 7754  -0.276  -0.051   4.846 -1.4287  1.7612  1.6483
   82SLPC  C316 7755  -0.453  -0.112   4.942  0.6518 -0.1003 -0.2144
   82SLPC  H16X 7756  -0.398  -0.186   5.004  1.6835  0.4311 -0.4660
   82SLPC  H16Y 7757  -0.551  -0.152   4.910  2.1490 -2.0176 -2.8063
   82SLPC  C317 7758  -0.465   0.014   5.019  0.3925 -0.6858 -0.1998
   82SLPC  H17X 7759  -0.534   0.090   4.975  1.6253  0.9099  0.4962
   82SLPC  H17Y 7760  -0.364   0.059   5.013  0.9337 -1.8173  0.1538
   82SLPC  C318 7761  -0.513  -0.000   5.167 -0.0173 -0.6709  0.4297
   82SLPC  H18X 7762  -0.500  -0.106   5.198 -0.2206 -0.8037  0.0633
   82SLPC  H18Y 7763  -0.621   0.023   5.179 -0.1604 -0.9824 -0.1989
   82SLPC  H18Z 7764  -0.460   0.073   5.232 -0.2426  2.5907 -2.7467
   83SLPC     N 7765   6.994   6.621   2.373 -0.3282  0.1991 -0.4378
   83SLPC   C13 7766   6.954   6.755   2.320  0.0610  0.5097 -0.4356
   83SLPC  H13A 7767   6.847   6.763   2.317 -0.0411 -0.8649 -2.0384
   83SLPC  H13B 7768   7.001   6.832   2.378  0.8362 -1.5697  1.8530
   83SLPC  H13C 7769   6.972   6.756   2.213  2.0500 -1.7939 -0.2196
   83SLPC   C14 7770   7.135   6.593   2.327 -0.4212  0.0092  0.5802
   83SLPC  H14A 7771   7.148   6.596   2.220  1.2182  2.3989  0.7783
   83SLPC  H14B 7772   7.200   6.671   2.364  0.2215 -0.7871  1.1661
   83SLPC  H14C 7773   7.167   6.497   2.366  1.3533  0.1556 -0.4025
   83SLPC   C15 7774   6.908   6.514   2.326  0.4681  0.0462  0.1638
   83SLPC  H15A 7775   6.945   6.416   2.354 -2.7798 -0.9106  1.4964
   83SLPC  H15B 7776   6.811   6.523   2.373  0.2689 -2.3301  0.3180
   83SLPC  H15C 7777   6.894   6.509   2.220 -0.2061 -0.4823  0.2741
   83SLPC   C12 7778   6.997   6.615   2.527  0.3234 -0.2428  0.0007
   83SLPC  H12A 7779   6.908   6.665   2.561  0.8352  0.0805  0.9052
   83SLPC  H12B 7780   7.083   6.676   2.553 -0.5235  2.3639 -2.8109
   83SLPC   C11 7781   6.998   6.477   2.603  0.7522 -0.3372 -0.5265
   83SLPC  H11A 7782   6.897   6.433   2.608 -0.2646  1.9753  1.5222
   83SLPC  H11B 7783   7.019   6.504   2.709  1.5471 -0.9239 -0.5272
   83SLPC     P 7784   7.077   6.242   2.508  0.7709 -0.0819  0.1015
   83SLPC   O13 7785   6.949   6.239   2.428 -0.5957 -0.1308 -1.0067
   83SLPC   O14 7786   7.197   6.200   2.430 -0.0999 -0.2776 -0.5185
   83SLPC   O12 7787   7.099   6.386   2.563 -0.2488 -0.0894  0.7449
   83SLPC   O11 7788   7.063   6.154   2.636  0.0914  0.2901  0.0334
   83SLPC    C1 7789   7.130   6.173   2.760  0.0732  0.1436 -0.6455
   83SLPC    HA 7790   7.159   6.069   2.786 -1.3368 -0.3614 -0.9706
   83SLPC    HB 7791   7.222   6.235   2.756  0.9127 -0.9374  0.9435
   83SLPC    C2 7792   7.038   6.228   2.868 -0.3073 -0.0313 -0.7216
   83SLPC    HS 7793   7.017   6.334   2.842 -1.2126 -0.7929 -3.5716
   83SLPC   O21 7794   7.102   6.209   2.991 -0.5092  0.0267  0.0821
   83SLPC   C21 7795   7.191   6.306   3.023 -0.2090  0.6377  0.0274
   83SLPC   O22 7796   7.214   6.402   2.954 -0.1097 -0.1849  0.6051
   83SLPC   C22 7797   7.255   6.267   3.159  0.4058 -0.1950 -0.1677
   83SLPC   H2R 7798   7.184   6.208   3.221 -0.3170 -0.2195 -0.9897
   83SLPC   H2S 7799   7.340   6.199   3.140 -0.0085 -0.8120  0.1582
   83SLPC    C3 7800   6.899   6.163   2.868  0.0716 -0.1919 -0.1879
   83SLPC    HX 7801   6.919   6.054   2.879  0.5534 -0.2699 -1.5644
   83SLPC    HY 7802   6.855   6.190   2.770  1.8332  1.4217 -0.5868
   83SLPC   O31 7803   6.819   6.202   2.979  0.5043 -0.1637  0.3521
   83SLPC   C31 7804   6.779   6.326   2.980  0.1564 -0.0179  0.0181
   83SLPC   O32 7805   6.789   6.410   2.890 -0.0405  0.2904 -0.4001
   83SLPC   C32 7806   6.703   6.348   3.113  0.3706 -0.3039 -0.3139
   83SLPC   H2X 7807   6.768   6.299   3.188 -0.1471  0.2509  0.5065
   83SLPC   H2Y 7808   6.600   6.306   3.108 -0.2279  1.0102  0.4925
   83SLPC   C23 7809   7.307   6.385   3.240  0.2113  0.1977  0.3830
   83SLPC   H3R 7810   7.389   6.429   3.180 -0.6732 -1.2758 -2.0609
   83SLPC   H3S 7811   7.354   6.345   3.333 -0.4100 -0.4936  0.4096
   83SLPC   C24 7812   7.203   6.493   3.292 -0.2228  0.7087  0.8573
   83SLPC   H4R 7813   7.175   6.552   3.202  0.6117 -0.5395 -0.2651
   83SLPC   H4S 7814   7.266   6.557   3.358  0.7419  1.1840 -0.4946
   83SLPC   C25 7815   7.078   6.434   3.360 -0.1689 -1.0546 -0.3850
   83SLPC   H5R 7816   7.043   6.338   3.317  0.0697 -1.9411  1.3497
   83SLPC   H5S 7817   7.004   6.517   3.354  0.6510 -0.1131  1.5500
   83SLPC   C26 7818   7.113   6.392   3.501  0.2024  0.2692  0.3761
   83SLPC   H6R 7819   7.190   6.313   3.508  2.0819  2.0789  1.3565
   83SLPC   H6S 7820   7.021   6.339   3.533 -0.1172 -0.2622 -1.3237
   83SLPC   C27 7821   7.164   6.499   3.596  0.1152  0.3876 -0.0985
   83SLPC   H7R 7822   7.096   6.586   3.585  0.0722  0.6475  1.8550
   83SLPC   H7S 7823   7.265   6.529   3.561 -0.6899  0.3945 -2.5760
   83SLPC   C28 7824   7.162   6.443   3.736  0.4011 -0.0875 -0.4042
   83SLPC   H8R 7825   7.069   6.382   3.748  1.5519 -2.2152 -1.6784
   83SLPC   H8S 7826   7.151   6.522   3.813  2.5752 -0.8160  0.7364
   83SLPC   C29 7827   7.285   6.363   3.764 -0.4018  0.4496  0.6257
   83SLPC   H9R 7828   7.329   6.317   3.674  1.9904 -1.4409  2.6251
   83SLPC  C210 7829   7.357   6.366   3.877 -0.4609 -0.0994 -0.1773
   83SLPC  H10R 7830   7.445   6.302   3.886  0.4698  1.1580 -0.1367
   83SLPC  C211 7831   7.313   6.424   4.008 -0.1514  0.1991  0.1709
   83SLPC  H11R 7832   7.304   6.535   4.005 -1.3706  0.3543  4.2337
   83SLPC  H11S 7833   7.404   6.407   4.069 -0.4419  0.1769  0.5964
   83SLPC  C212 7834   7.195   6.368   4.075 -0.0603 -0.4527 -0.1866
   83SLPC  H12R 7835   7.099   6.394   4.028 -0.5714 -1.3641  0.3125
   83SLPC  C213 7836   7.189   6.324   4.203  0.3810  0.2145  0.6482
   83SLPC  H13R 7837   7.087   6.296   4.234  0.3831  0.4628  0.8888
   83SLPC  C214 7838   7.301   6.304   4.307 -0.0882 -0.1922 -0.7149
   83SLPC  H14R 7839   7.390   6.286   4.244  0.5991  0.1990  0.1237
   83SLPC  H14S 7840   7.277   6.214   4.367 -0.2061 -0.3701 -1.0292
   83SLPC  C215 7841   7.319   6.429   4.389  0.2849  0.8213 -0.3337
   83SLPC  H15R 7842   7.346   6.507   4.315 -0.7605  2.1862  0.6697
   83SLPC  H15S 7843   7.407   6.420   4.457 -0.5979  0.2989  0.7805
   83SLPC  C216 7844   7.199   6.476   4.474 -0.0905 -0.0798 -0.7974
   83SLPC  H16R 7845   7.146   6.391   4.523  0.6703  0.3333  0.8026
   83SLPC  H16S 7846   7.127   6.531   4.409  2.1572  0.7606 -2.7086
   83SLPC  C217 7847   7.239   6.571   4.587 -0.5423  0.5779  0.6940
   83SLPC  H17R 7848   7.287   6.662   4.545 -2.5268  0.7279 -1.4226
   83SLPC  H17S 7849   7.317   6.506   4.633 -1.4618 -1.8504 -0.9967
   83SLPC  C218 7850   7.127   6.604   4.690  0.5761 -0.0968  0.8573
   83SLPC  H18R 7851   7.079   6.514   4.734 -0.5650  0.4845  0.8208
   83SLPC  H18S 7852   7.058   6.672   4.636  1.4117  0.1456  0.0588
   83SLPC  H18T 7853   7.171   6.654   4.780 -0.0616  0.7851  0.6907
   83SLPC   C33 7854   6.690   6.493   3.155 -0.6599 -0.8682  0.0579
   83SLPC   H3X 7855   6.650   6.552   3.070  1.4005  0.5534 -0.0016
   83SLPC   H3Y 7856   6.791   6.530   3.183 -0.2694 -2.3196  0.6429
   83SLPC   C34 7857   6.594   6.520   3.274 -0.3312  0.0486 -0.0034
   83SLPC   H4X 7858   6.491   6.498   3.240  0.7515 -1.8292 -2.3889
   83SLPC   H4Y 7859   6.581   6.628   3.299 -2.9259  0.3438 -2.1297
   83SLPC   C35 7860   6.621   6.434   3.392  0.0253 -0.4808  0.1350
   83SLPC   H5X 7861   6.729   6.449   3.412 -0.2002  3.1268 -0.5615
   83SLPC   H5Y 7862   6.591   6.334   3.353  2.4638 -1.0620 -0.4420
   83SLPC   C36 7863   6.542   6.466   3.520 -0.0362 -0.5920  1.1309
   83SLPC   H6X 7864   6.432   6.456   3.506  0.1300 -1.9327  0.6601
   83SLPC   H6Y 7865   6.548   6.577   3.527  2.9359 -0.6489  0.6615
   83SLPC   C37 7866   6.589   6.398   3.640  0.3066 -0.5826 -0.1734
   83SLPC   H7X 7867   6.698   6.377   3.645  0.6409  0.3413 -2.4704
   83SLPC   H7Y 7868   6.546   6.296   3.630 -2.4588  0.2261  2.0181
   83SLPC   C38 7869   6.536   6.468   3.776 -0.4058  0.2870  0.8681
   83SLPC   H8X 7870   6.425   6.465   3.768 -0.3320 -1.0208  0.1263
   83SLPC   H8Y 7871   6.573   6.573   3.764  3.2523 -1.1511 -2.9245
   83SLPC   C39 7872   6.579   6.394   3.901 -0.3451 -0.1944 -0.0157
   83SLPC   H9X 7873   6.689   6.388   3.919 -0.5667 -2.2045  0.9915
   83SLPC   H9Y 7874   6.554   6.287   3.881 -0.5815 -0.0025 -0.7673
   83SLPC  C310 7875   6.495   6.432   4.026 -0.2994 -0.3994  0.2421
   83SLPC  H10X 7876   6.390   6.424   3.990 -0.4384  0.1153  0.5355
   83SLPC  H10Y 7877   6.521   6.533   4.062  2.6169 -1.0148  0.1404
   83SLPC  C311 7878   6.511   6.332   4.146  0.8982  0.2225  0.1071
   83SLPC  H11X 7879   6.621   6.325   4.165  0.3780 -0.4294  3.4176
   83SLPC  H11Y 7880   6.496   6.224   4.121  0.8859  0.3895 -0.6442
   83SLPC  C312 7881   6.433   6.365   4.269  0.0154  0.0237  0.3522
   83SLPC  H12X 7882   6.325   6.349   4.246  0.1890  1.4096 -1.6700
   83SLPC  H12Y 7883   6.444   6.473   4.291 -0.6414  0.0158  0.7380
   83SLPC  C313 7884   6.474   6.283   4.386 -0.0007  0.1081  0.3260
   83SLPC  H13X 7885   6.583   6.286   4.407 -0.2566  0.5813  1.6646
   83SLPC  H13Y 7886   6.462   6.176   4.359  0.0038  0.0864  0.4097
   83SLPC  C314 7887   6.411   6.321   4.520 -0.2464 -0.9030  0.1797
   83SLPC  H14X 7888   6.312   6.367   4.499  0.1241 -0.1911 -0.0368
   83SLPC  H14Y 7889   6.474   6.402   4.562  2.1368 -1.9390 -1.1756
   83SLPC  C315 7890   6.388   6.207   4.608 -0.0295  0.4023  0.4657
   83SLPC  H15X 7891   6.357   6.115   4.554 -0.0128  0.6340  0.0559
   83SLPC  H15Y 7892   6.307   6.231   4.681  0.4319  2.5450  0.3455
   83SLPC  C316 7893   6.499   6.174   4.696 -0.9658  0.2199 -0.0312
   83SLPC  H16X 7894   6.536   6.260   4.756  1.2165  0.5286 -1.7143
   83SLPC  H16Y 7895   6.585   6.135   4.639 -0.4408  0.9086  0.2812
   83SLPC  C317 7896   6.460   6.064   4.792  0.1768  0.0498  0.2355
   83SLPC  H17X 7897   6.401   5.981   4.748  1.7998 -0.7165 -0.5888
   83SLPC  H17Y 7898   6.398   6.105   4.874 -2.9947 -1.1321 -1.4062
   83SLPC  C318 7899   6.579   6.013   4.865 -0.2522 -0.3810 -0.8078
   83SLPC  H18X 7900   6.654   5.973   4.794  0.0961 -2.6822  0.7597
   83SLPC  H18Y 7901   6.558   5.927   4.932  1.2261  1.2684  1.9326
   83SLPC  H18Z 7902   6.613   6.102   4.923  0.0702  1.1245 -3.1391
   84SLPC     N 7903   6.487   4.672   2.803  0.3663  0.1648 -0.2467
   84SLPC   C13 7904   6.591   4.687   2.697 -0.6494  0.1870  0.1701
   84SLPC  H13A 7905   6.571   4.779   2.645  2.0753 -0.2868 -1.9504
   84SLPC  H13B 7906   6.684   4.699   2.750 -1.1733  4.0929  0.4405
   84SLPC  H13C 7907   6.596   4.602   2.629 -0.6961 -0.1502  0.5846
   84SLPC   C14 7908   6.355   4.665   2.731 -0.2689 -0.1397 -0.0337
   84SLPC  H14A 7909   6.359   4.575   2.672 -0.9016  0.3937 -0.9175
   84SLPC  H14B 7910   6.277   4.659   2.806 -1.7354  0.2993 -1.4771
   84SLPC  H14C 7911   6.349   4.738   2.652  1.5184  0.3021  0.1921
   84SLPC   C15 7912   6.482   4.806   2.871 -0.0970  0.7008  0.1311
   84SLPC  H15A 7913   6.470   4.877   2.790 -1.1735  0.0355 -0.3091
   84SLPC  H15B 7914   6.399   4.812   2.941  0.5069  0.6826  0.8648
   84SLPC  H15C 7915   6.575   4.817   2.925  0.7474  0.4266 -1.2440
   84SLPC   C12 7916   6.499   4.555   2.899  0.0240  0.0368 -0.1972
   84SLPC  H12A 7917   6.596   4.550   2.945 -0.5267 -2.2985  0.8503
   84SLPC  H12B 7918   6.496   4.458   2.852 -0.1374  0.6277 -1.4426
   84SLPC   C11 7919   6.387   4.559   3.021  0.1457  1.0314  1.0013
   84SLPC  H11A 7920   6.422   4.625   3.103 -0.8017  0.7133  1.6746
   84SLPC  H11B 7921   6.385   4.454   3.058  1.0463  1.3328  1.9608
   84SLPC     P 7922   6.155   4.681   3.080 -0.3050 -0.1590  0.3726
   84SLPC   O13 7923   6.204   4.821   3.101 -0.1674  0.2896 -0.4685
   84SLPC   O14 7924   6.023   4.665   3.017 -0.1280 -0.2244 -0.3898
   84SLPC   O12 7925   6.257   4.599   2.989  0.2126  0.4942  0.2849
   84SLPC   O11 7926   6.153   4.607   3.220  0.2944  0.5681  0.4611
   84SLPC    C1 7927   6.105   4.474   3.232  1.0269 -0.1053 -0.4782
   84SLPC    HA 7928   5.997   4.490   3.211  1.1422 -0.0570 -1.0667
   84SLPC    HB 7929   6.147   4.403   3.158 -0.8791 -0.5602 -1.1955
   84SLPC    C2 7930   6.139   4.427   3.377  0.0753 -0.6123 -0.8904
   84SLPC    HS 7931   6.083   4.333   3.396 -1.6178  0.8994  2.5102
   84SLPC   O21 7932   6.114   4.515   3.484  0.6559 -0.1288 -0.6139
   84SLPC   C21 7933   5.993   4.562   3.504 -0.7333 -0.0241  0.1999
   84SLPC   O22 7934   5.890   4.531   3.446  0.0139 -0.3514 -1.2322
   84SLPC   C22 7935   6.008   4.670   3.607  0.0031  0.1829  0.2044
   84SLPC   H2R 7936   6.086   4.641   3.681 -0.4994 -0.6839  0.4040
   84SLPC   H2S 7937   6.042   4.761   3.553  0.9162 -0.0549  0.3582
   84SLPC    C3 7938   6.291   4.389   3.381  0.3821 -0.0959 -0.1881
   84SLPC    HX 7939   6.342   4.487   3.378  1.0412 -0.4251  0.1978
   84SLPC    HY 7940   6.317   4.330   3.290 -0.1272  0.0216 -0.4185
   84SLPC   O31 7941   6.324   4.316   3.504 -0.4856 -0.1584  0.1979
   84SLPC   C31 7942   6.466   4.296   3.509  0.1729 -0.6358 -0.3157
   84SLPC   O32 7943   6.544   4.335   3.426 -0.6283 -0.2672 -0.8001
   84SLPC   C32 7944   6.505   4.238   3.647 -0.5225 -0.4764  0.2822
   84SLPC   H2X 7945   6.540   4.134   3.629 -0.1975 -0.4563  0.7835
   84SLPC   H2Y 7946   6.411   4.235   3.706 -0.5904 -1.5458  0.1451
   84SLPC   C23 7947   5.871   4.702   3.683  0.1556  0.7763 -0.0494
   84SLPC   H3R 7948   5.846   4.610   3.739  1.3414  0.6591  0.3058
   84SLPC   H3S 7949   5.793   4.722   3.606 -0.4588 -0.5395  0.2037
   84SLPC   C24 7950   5.894   4.820   3.774 -0.7559  0.5805 -0.2936
   84SLPC   H4R 7951   5.799   4.877   3.776 -1.7724 -1.0743  0.5574
   84SLPC   H4S 7952   5.977   4.882   3.733  0.0941 -0.1580  0.2680
   84SLPC   C25 7953   5.935   4.781   3.918 -0.3466  0.1587  0.5193
   84SLPC   H5R 7954   6.000   4.858   3.965  0.9041 -0.1060 -0.6942
   84SLPC   H5S 7955   6.008   4.697   3.916  3.1162  2.9255  1.0903
   84SLPC   C26 7956   5.817   4.764   4.005  0.1090  0.4367 -0.1895
   84SLPC   H6R 7957   5.751   4.677   3.985  2.2304 -1.1797 -0.5504
   84SLPC   H6S 7958   5.758   4.857   3.989  2.0692  1.5811 -1.1510
   84SLPC   C27 7959   5.857   4.755   4.159 -0.1252  0.0185  0.7269
   84SLPC   H7R 7960   5.932   4.674   4.167 -2.2788 -2.1073  0.7286
   84SLPC   H7S 7961   5.776   4.725   4.229  0.2761 -0.1645  1.1200
   84SLPC   C28 7962   5.925   4.878   4.216  0.0488 -0.0742  0.2940
   84SLPC   H8R 7963   6.005   4.913   4.146  1.1451 -2.3362  0.3188
   84SLPC   H8S 7964   5.969   4.871   4.318 -2.3308  0.1783  1.4108
   84SLPC   C29 7965   5.822   4.982   4.229  0.1398  0.4304  0.2029
   84SLPC   H9R 7966   5.817   5.055   4.147  1.0046 -0.3676 -0.5878
   84SLPC  C210 7967   5.743   5.000   4.332  0.3998 -0.4369  0.0436
   84SLPC  H10R 7968   5.665   5.076   4.314  0.1671 -0.5000  0.7645
   84SLPC  C211 7969   5.727   4.913   4.449  0.0270 -0.5915 -0.6355
   84SLPC  H11R 7970   5.797   4.826   4.453  1.6966  0.5902 -2.3953
   84SLPC  H11S 7971   5.627   4.869   4.469  0.8873 -1.3055  2.7912
   84SLPC  C212 7972   5.743   5.004   4.576  0.2435 -0.9223 -0.7367
   84SLPC  H12R 7973   5.650   5.052   4.612  1.3067  0.9682 -0.3440
   84SLPC  C213 7974   5.855   5.049   4.637 -0.2520  0.0740 -0.7256
   84SLPC  H13R 7975   5.838   5.106   4.729  2.4163 -0.3488  0.1164
   84SLPC  C214 7976   5.997   4.998   4.615  0.1486 -0.4027 -0.3266
   84SLPC  H14R 7977   6.053   5.067   4.548  0.3074 -0.8240 -0.6346
   84SLPC  H14S 7978   6.006   4.897   4.571 -0.1022 -1.1929  1.3690
   84SLPC  C215 7979   6.071   4.997   4.751  0.1093 -0.2775 -0.1073
   84SLPC  H15R 7980   6.164   4.936   4.745  0.3543 -0.0068  0.7109
   84SLPC  H15S 7981   6.018   4.937   4.828  0.8147 -1.0383 -0.1931
   84SLPC  C216 7982   6.102   5.134   4.802  0.2762  0.1089  0.9721
   84SLPC  H16R 7983   6.015   5.183   4.851 -0.7903 -1.2647  0.5131
   84SLPC  H16S 7984   6.116   5.200   4.713  1.1920 -0.1524  0.9101
   84SLPC  C217 7985   6.221   5.147   4.892  0.0872 -0.3728 -0.7615
   84SLPC  H17R 7986   6.229   5.057   4.957  1.4963  0.1723 -0.1325
   84SLPC  H17S 7987   6.218   5.226   4.969  1.6197 -0.3199 -0.7084
   84SLPC  C218 7988   6.349   5.169   4.808 -0.8005 -0.0302  0.3282
   84SLPC  H18R 7989   6.364   5.083   4.740 -1.5726 -0.4311  0.6530
   84SLPC  H18S 7990   6.436   5.182   4.876 -1.4415 -0.8162  1.3206
   84SLPC  H18T 7991   6.353   5.262   4.748 -0.3986  0.3353  0.9100
   84SLPC   C33 7992   6.605   4.322   3.731  0.1450  0.4675  0.1007
   84SLPC   H3X 7993   6.566   4.424   3.751  0.0281  0.5690 -0.5977
   84SLPC   H3Y 7994   6.697   4.341   3.672  0.9865  0.7008  1.4368
   84SLPC   C34 7995   6.638   4.256   3.860 -0.4145  0.0077 -0.3708
   84SLPC   H4X 7996   6.712   4.325   3.908  1.3209 -1.2546 -1.1296
   84SLPC   H4Y 7997   6.693   4.163   3.836  2.4329  1.9811 -2.1992
   84SLPC   C35 7998   6.522   4.248   3.961  0.1334  0.2292 -0.3873
   84SLPC   H5X 7999   6.447   4.176   3.922 -0.0102 -1.2192  2.3647
   84SLPC   H5Y 8000   6.471   4.346   3.953  0.2315  0.3064 -0.0842
   84SLPC   C36 8001   6.557   4.207   4.110  0.7105 -0.0319 -0.2801
   84SLPC   H6X 8002   6.664   4.234   4.121  0.4474  1.7262 -1.6318
   84SLPC   H6Y 8003   6.562   4.096   4.115 -0.4821 -0.1041 -0.3110
   84SLPC   C37 8004   6.461   4.262   4.219 -0.0394 -0.0112  0.0431
   84SLPC   H7X 8005   6.368   4.202   4.231  0.0667  0.0996  1.6995
   84SLPC   H7Y 8006   6.433   4.359   4.174  1.6220  0.2539 -0.4977
   84SLPC   C38 8007   6.532   4.269   4.358  0.0177  0.0664  0.1832
   84SLPC   H8X 8008   6.613   4.345   4.354 -0.0596  0.1022 -1.7873
   84SLPC   H8Y 8009   6.566   4.165   4.375 -1.6566 -0.5842 -0.3097
   84SLPC   C39 8010   6.454   4.318   4.474 -0.6576 -0.6462 -0.3434
   84SLPC   H9X 8011   6.371   4.248   4.496 -0.7177 -0.3404  0.4771
   84SLPC   H9Y 8012   6.408   4.419   4.461 -0.4883 -0.7252 -1.6047
   84SLPC  C310 8013   6.531   4.319   4.609  0.5488  0.4391 -0.5402
   84SLPC  H10X 8014   6.470   4.368   4.688 -0.7788 -0.5343 -0.9244
   84SLPC  H10Y 8015   6.607   4.400   4.605 -1.2275  2.4388  2.4096
   84SLPC  C311 8016   6.582   4.187   4.669  0.3622 -0.0351  0.3507
   84SLPC  H11X 8017   6.629   4.128   4.587  2.3486  1.0841  0.6128
   84SLPC  H11Y 8018   6.497   4.122   4.701  1.0502 -1.5849 -0.8261
   84SLPC  C312 8019   6.658   4.205   4.791 -0.3121 -0.7389 -0.1195
   84SLPC  H12X 8020   6.747   4.272   4.784 -0.9504  0.1091 -0.2214
   84SLPC  H12Y 8021   6.698   4.105   4.821 -1.5159 -1.2349 -0.0983
   84SLPC  C313 8022   6.560   4.254   4.903  0.0596 -0.2409 -0.1815
   84SLPC  H13X 8023   6.464   4.199   4.916 -0.1997  0.3203  0.3319
   84SLPC  H13Y 8024   6.533   4.358   4.876 -0.3953 -0.1721  0.5012
   84SLPC  C314 8025   6.629   4.245   5.040  0.4675  0.1710  0.4298
   84SLPC  H14X 8026   6.705   4.326   5.034  2.5859 -1.7114  0.5634
   84SLPC  H14Y 8027   6.672   4.147   5.071  0.3454  0.3879  1.3305
   84SLPC  C315 8028   6.535   4.275   5.161  1.1023 -0.3899  0.0943
   84SLPC  H15X 8029   6.461   4.193   5.176 -2.5578  2.7456  0.7640
   84SLPC  H15Y 8030   6.468   4.362   5.144 -1.2401 -2.0690  0.2266
   84SLPC  C316 8031   6.610   4.286   5.296  0.2531 -0.0926  0.2384
   84SLPC  H16X 8032   6.688   4.362   5.276  1.9769 -2.0357 -0.7490
   84SLPC  H16Y 8033   6.662   4.189   5.310  0.4881 -0.1285 -0.8108
   84SLPC  C317 8034   6.521   4.332   5.407 -0.6716  0.3107 -0.1223
   84SLPC  H17X 8035   6.447   4.251   5.422 -1.9246  1.3085 -0.7737
   84SLPC  H17Y 8036   6.470   4.428   5.385 -2.0338 -0.5047 -0.6819
   84SLPC  C318 8037   6.598   4.348   5.536 -0.8523 -0.4615 -0.9315
   84SLPC  H18X 8038   6.546   4.400   5.619  1.0973 -1.2615  0.8803
   84SLPC  H18Y 8039   6.700   4.393   5.524 -1.1717  0.6585  0.3351
   84SLPC  H18Z 8040   6.627   4.249   5.577  0.5493  0.1077 -0.4779
   85SLPC     N 8041   5.106   5.787   2.425  0.4159 -0.0758  0.7103
   85SLPC   C13 8042   5.203   5.825   2.524 -0.3832 -0.6702 -0.2239
   85SLPC  H13A 8043   5.270   5.903   2.494 -1.3562  0.3184  0.1100
   85SLPC  H13B 8044   5.159   5.860   2.617  1.6450 -0.7038  0.7991
   85SLPC  H13C 8045   5.275   5.749   2.549  2.4097  1.3550 -1.6316
   85SLPC   C14 8046   5.172   5.726   2.303  1.0503  0.5374  0.0596
   85SLPC  H14A 8047   5.104   5.725   2.219  0.1428 -3.7548  0.5868
   85SLPC  H14B 8048   5.258   5.785   2.279  0.7935  0.3095 -1.5040
   85SLPC  H14C 8049   5.185   5.619   2.315 -0.0532  0.1848 -1.5388
   85SLPC   C15 8050   5.034   5.914   2.386  0.5364  0.3009  0.3432
   85SLPC  H15A 8051   5.001   5.970   2.472  0.8028  0.6486  0.2206
   85SLPC  H15B 8052   5.096   5.988   2.337 -0.1256 -0.1955 -1.3127
   85SLPC  H15C 8053   4.945   5.897   2.327  1.3558 -0.9792 -0.5664
   85SLPC   C12 8054   4.994   5.697   2.476  0.0478 -0.2042 -0.0283
   85SLPC  H12A 8055   4.916   5.694   2.402 -0.3822  0.0624  0.4075
   85SLPC  H12B 8056   4.955   5.745   2.565  0.7639  0.9268 -0.3065
   85SLPC   C11 8057   5.033   5.550   2.522 -0.1850 -0.1970  0.1194
   85SLPC  H11A 8058   5.083   5.490   2.443 -0.3512 -0.1730 -0.0037
   85SLPC  H11B 8059   4.945   5.488   2.546  0.6944 -0.6687  2.3612
   85SLPC     P 8060   5.077   5.563   2.783  0.0506 -0.1100  0.1602
   85SLPC   O13 8061   5.028   5.437   2.834 -0.3564 -0.4957 -0.0987
   85SLPC   O14 8062   5.183   5.624   2.862 -0.0875 -0.3059  0.2968
   85SLPC   O12 8063   5.118   5.549   2.634  0.1740  0.0003  0.2531
   85SLPC   O11 8064   4.955   5.664   2.783 -0.1568  0.3390  0.4158
   85SLPC    C1 8065   4.817   5.623   2.812  0.1545  0.0224  0.7162
   85SLPC    HA 8066   4.749   5.678   2.743  0.3344 -1.9829 -1.1655
   85SLPC    HB 8067   4.802   5.514   2.804 -1.4585 -0.1872  4.5092
   85SLPC    C2 8068   4.775   5.654   2.963  0.7143  0.1466  0.3600
   85SLPC    HS 8069   4.666   5.640   2.979  0.9407  0.0256  1.9598
   85SLPC   O21 8070   4.800   5.791   2.995  0.2193 -0.0241  0.3707
   85SLPC   C21 8071   4.737   5.893   2.934  0.4302 -0.6446 -0.1862
   85SLPC   O22 8072   4.654   5.881   2.848 -0.1160  0.2274  0.0878
   85SLPC   C22 8073   4.785   6.020   3.000  0.6377 -0.2695 -0.7289
   85SLPC   H2R 8074   4.888   5.992   3.030  0.1320 -2.1605 -0.6336
   85SLPC   H2S 8075   4.786   6.098   2.921 -0.1768 -1.5696 -2.0671
   85SLPC    C3 8076   4.847   5.563   3.063  0.1539 -1.0536  0.5303
   85SLPC    HX 8077   4.954   5.594   3.070 -0.0728 -0.5937  2.8472
   85SLPC    HY 8078   4.845   5.458   3.025  0.8436  0.0863 -3.0382
   85SLPC   O31 8079   4.791   5.576   3.199  0.2379  0.1775 -1.1494
   85SLPC   C31 8080   4.705   5.479   3.235 -0.8550 -0.0180 -0.1869
   85SLPC   O32 8081   4.696   5.372   3.179  0.5962  0.5089 -0.4145
   85SLPC   C32 8082   4.601   5.537   3.333 -0.1984  0.0617  0.1941
   85SLPC   H2X 8083   4.522   5.590   3.275 -0.1108 -0.6213 -0.5665
   85SLPC   H2Y 8084   4.661   5.611   3.391  1.5698  1.0106 -2.6411
   85SLPC   C23 8085   4.706   6.064   3.124  0.3263 -0.0494  0.7465
   85SLPC   H3R 8086   4.595   6.072   3.116  0.4429  0.1975 -0.8544
   85SLPC   H3S 8087   4.732   6.169   3.150 -0.4392 -0.0010  1.3895
   85SLPC   C24 8088   4.734   5.977   3.241 -0.2275 -0.0620  0.6056
   85SLPC   H4R 8089   4.845   5.977   3.254 -0.2517  0.2175  0.7964
   85SLPC   H4S 8090   4.698   5.877   3.209 -0.8640  0.6667 -1.0568
   85SLPC   C25 8091   4.669   6.004   3.374 -0.4057 -0.1846  0.2692
   85SLPC   H5R 8092   4.666   6.111   3.404 -0.8435 -0.2252  0.3726
   85SLPC   H5S 8093   4.565   5.979   3.348  0.2585 -0.6118 -2.1615
   85SLPC   C26 8094   4.714   5.912   3.489  1.1567 -0.4926 -0.1291
   85SLPC   H6R 8095   4.800   5.965   3.535 -0.0408  0.7071  0.8086
   85SLPC   H6S 8096   4.752   5.820   3.439  0.2554  0.0120 -1.8187
   85SLPC   C27 8097   4.611   5.897   3.597 -0.1142  0.6161  0.5828
   85SLPC   H7R 8098   4.543   5.822   3.551  0.2981 -0.0509  1.0261
   85SLPC   H7S 8099   4.575   6.001   3.614  0.1020  1.1533 -1.9314
   85SLPC   C28 8100   4.663   5.844   3.729  0.0913 -0.4715  0.1338
   85SLPC   H8R 8101   4.731   5.923   3.766 -0.2222 -0.0744 -0.1279
   85SLPC   H8S 8102   4.734   5.762   3.701  2.0721  1.3442 -0.4255
   85SLPC   C29 8103   4.564   5.806   3.831 -0.3019  0.9319  0.2944
   85SLPC   H9R 8104   4.510   5.715   3.802 -0.4282  1.1498 -0.1543
   85SLPC  C210 8105   4.524   5.865   3.948  0.3001 -0.3769  0.0915
   85SLPC  H10R 8106   4.445   5.801   3.991  0.7941 -0.7416  0.4594
   85SLPC  C211 8107   4.581   5.987   4.012  0.6045  0.1867  0.0652
   85SLPC  H11R 8108   4.661   6.026   3.946 -0.3879  1.7061 -0.2591
   85SLPC  H11S 8109   4.643   5.958   4.101  0.0369  0.1943  0.4694
   85SLPC  C212 8110   4.471   6.095   4.020  0.3887  0.0494 -0.8378
   85SLPC  H12R 8111   4.417   6.088   4.115  1.5912 -2.2817 -0.2400
   85SLPC  C213 8112   4.431   6.176   3.925 -0.4029 -1.0493  0.0557
   85SLPC  H13R 8113   4.340   6.237   3.936 -0.5506 -0.7394 -2.3715
   85SLPC  C214 8114   4.500   6.199   3.793  0.1183 -0.2034  0.0561
   85SLPC  H14R 8115   4.426   6.162   3.719  0.3480  0.6108 -0.6119
   85SLPC  H14S 8116   4.588   6.134   3.777 -0.9637 -1.8386  0.5467
   85SLPC  C215 8117   4.527   6.349   3.770 -0.2642 -0.0575  1.1547
   85SLPC  H15R 8118   4.592   6.378   3.855 -1.3921  1.8949  1.4210
   85SLPC  H15S 8119   4.428   6.399   3.776  0.1916  0.7204  2.9093
   85SLPC  C216 8120   4.595   6.382   3.635  0.3005 -0.0280  0.7273
   85SLPC  H16R 8121   4.688   6.321   3.638 -0.4168 -1.2927 -1.0827
   85SLPC  H16S 8122   4.614   6.492   3.631 -1.9402  0.3913 -0.3313
   85SLPC  C217 8123   4.515   6.337   3.511  0.4523 -0.4702  0.9424
   85SLPC  H17R 8124   4.416   6.388   3.507 -0.0533 -1.3402  1.9056
   85SLPC  H17S 8125   4.496   6.227   3.509  0.9220 -0.5542 -0.4337
   85SLPC  C218 8126   4.595   6.374   3.383 -0.1252 -0.2613  0.5069
   85SLPC  H18R 8127   4.699   6.334   3.372  0.7230  2.3922 -3.0909
   85SLPC  H18S 8128   4.611   6.484   3.391 -1.1951 -0.0428 -0.1455
   85SLPC  H18T 8129   4.543   6.339   3.291 -0.0433 -1.6225  0.9522
   85SLPC   C33 8130   4.541   5.435   3.431 -0.4379  0.5340  0.7674
   85SLPC   H3X 8131   4.619   5.371   3.478 -3.1893 -2.0087  2.2394
   85SLPC   H3Y 8132   4.488   5.362   3.366 -0.4120  1.2149 -0.0263
   85SLPC   C34 8133   4.461   5.496   3.543  0.2764 -0.2807 -0.5668
   85SLPC   H4X 8134   4.381   5.567   3.515  0.1226  0.1634  0.9097
   85SLPC   H4Y 8135   4.528   5.552   3.612  0.7389 -1.0089 -0.4124
   85SLPC   C35 8136   4.389   5.388   3.633 -0.7172 -0.4799  0.4375
   85SLPC   H5X 8137   4.465   5.324   3.684 -2.8036 -1.6245  2.2529
   85SLPC   H5Y 8138   4.310   5.336   3.575  0.5130 -0.3999 -1.3987
   85SLPC   C36 8139   4.320   5.452   3.747  0.5870  0.0391 -0.1955
   85SLPC   H6X 8140   4.231   5.503   3.703 -0.5855 -0.8435  1.0532
   85SLPC   H6Y 8141   4.385   5.523   3.802 -0.4298 -0.4064  1.6610
   85SLPC   C37 8142   4.281   5.341   3.849  0.2233 -0.2162 -0.1954
   85SLPC   H7X 8143   4.366   5.294   3.902 -0.3571 -2.5237 -1.1432
   85SLPC   H7Y 8144   4.245   5.258   3.784  3.6578 -0.8906 -1.4444
   85SLPC   C38 8145   4.191   5.395   3.956  0.1188 -0.3971  0.8956
   85SLPC   H8X 8146   4.106   5.441   3.901  1.1123 -1.3893 -1.5886
   85SLPC   H8Y 8147   4.245   5.476   4.009  0.6545  0.2920 -0.6629
   85SLPC   C39 8148   4.157   5.295   4.066  0.7374 -0.5826  0.1993
   85SLPC   H9X 8149   4.252   5.247   4.098  0.7051 -2.2342 -1.8772
   85SLPC   H9Y 8150   4.099   5.217   4.011 -0.7831  1.7047 -1.6051
   85SLPC  C310 8151   4.079   5.353   4.186  0.2210 -0.6820  0.0331
   85SLPC  H10X 8152   3.973   5.371   4.158  0.3805 -0.3795 -0.3984
   85SLPC  H10Y 8153   4.136   5.438   4.230  0.0139 -0.0925 -0.8157
   85SLPC  C311 8154   4.085   5.247   4.304  0.1822 -0.1477  0.3622
   85SLPC  H11X 8155   4.191   5.226   4.327 -0.4207 -2.4697  1.3770
   85SLPC  H11Y 8156   4.053   5.152   4.256 -0.3980 -0.1421  0.7227
   85SLPC  C312 8157   4.000   5.290   4.418 -0.0198  0.9424 -0.0567
   85SLPC  H12X 8158   3.895   5.306   4.384  0.4903 -1.5001 -3.2193
   85SLPC  H12Y 8159   4.029   5.386   4.466  0.5015  1.4718 -1.4086
   85SLPC  C313 8160   3.989   5.180   4.526 -0.1824  0.3872  0.0847
   85SLPC  H13X 8161   4.090   5.136   4.538 -0.2506  0.5899  1.6849
   85SLPC  H13Y 8162   3.922   5.103   4.482 -0.3984 -0.4276  1.7834
   85SLPC  C314 8163   3.941   5.228   4.658  0.2784  0.8064 -0.4502
   85SLPC  H14X 8164   3.838   5.264   4.636 -0.8557 -1.5470  0.5846
   85SLPC  H14Y 8165   3.988   5.322   4.692 -0.5458  0.8488  0.6349
   85SLPC  C315 8166   3.940   5.114   4.770 -0.3597 -0.4066  0.7528
   85SLPC  H15X 8167   4.040   5.066   4.776  0.5654  1.0062 -1.6090
   85SLPC  H15Y 8168   3.869   5.033   4.743  2.0208 -1.1725 -4.4425
   85SLPC  C316 8169   3.913   5.168   4.913  0.3023 -0.7233  0.2166
   85SLPC  H16X 8170   3.816   5.221   4.905  1.1982  1.0653  0.8298
   85SLPC  H16Y 8171   3.994   5.243   4.928  2.2656 -2.8240  0.6991
   85SLPC  C317 8172   3.937   5.066   5.020  0.4109 -0.4186  0.8693
   85SLPC  H17X 8173   3.994   5.126   5.095  1.2307  0.8622 -0.7153
   85SLPC  H17Y 8174   4.015   4.991   4.993  0.9083 -0.2701  1.8219
   85SLPC  C318 8175   3.821   4.995   5.085  0.0498  0.8691 -0.1684
   85SLPC  H18X 8176   3.753   4.961   5.005  0.0546 -0.4701  0.3789
   85SLPC  H18Y 8177   3.755   5.070   5.134 -0.5114  0.4502 -0.2842
   85SLPC  H18Z 8178   3.847   4.911   5.153  0.4523 -0.7668 -2.2498
   86SLPC     N 8179   3.537   2.402   2.635 -0.5454 -0.3721  0.2384
   86SLPC   C13 8180   3.544   2.551   2.605  0.1195  0.3792 -0.0387
   86SLPC  H13A 8181   3.554   2.560   2.498 -0.2338  1.3351 -0.0009
   86SLPC  H13B 8182   3.453   2.603   2.632 -1.3478 -1.7343 -0.6167
   86SLPC  H13C 8183   3.626   2.603   2.652 -0.0724 -0.9863  1.9553
   86SLPC   C14 8184   3.666   2.345   2.578 -0.6079 -0.4683  0.3598
   86SLPC  H14A 8185   3.683   2.246   2.618  0.5866 -0.7283 -0.7391
   86SLPC  H14B 8186   3.663   2.334   2.471  0.4442 -1.1677  0.3888
   86SLPC  H14C 8187   3.742   2.418   2.603 -1.1769 -0.5291  2.5026
   86SLPC   C15 8188   3.418   2.345   2.562 -0.0479 -0.9354 -0.6600
   86SLPC  H15A 8189   3.423   2.369   2.457 -0.7496  1.4087 -0.1997
   86SLPC  H15B 8190   3.406   2.238   2.572 -1.1324 -0.6897  1.2162
   86SLPC  H15C 8191   3.333   2.393   2.607  0.0408  0.7648 -2.1941
   86SLPC   C12 8192   3.529   2.385   2.782  0.4662  0.4429  0.0129
   86SLPC  H12A 8193   3.448   2.449   2.813 -1.1543 -1.1526 -0.7503
   86SLPC  H12B 8194   3.619   2.417   2.832 -0.1165 -1.4261  2.4658
   86SLPC   C11 8195   3.491   2.246   2.834  0.1388 -0.1500  0.6526
   86SLPC  H11A 8196   3.388   2.232   2.796 -0.1032  2.0870  0.3841
   86SLPC  H11B 8197   3.485   2.257   2.945 -1.0250  2.6716  0.3898
   86SLPC     P 8198   3.704   2.085   2.873 -0.1768  0.2607  0.2049
   86SLPC   O13 8199   3.805   2.031   2.785  0.1838  0.0396  0.5450
   86SLPC   O14 8200   3.742   2.180   2.976  0.2280 -0.3059  0.3468
   86SLPC   O12 8201   3.581   2.145   2.783  0.0707 -0.6246  0.5239
   86SLPC   O11 8202   3.627   1.964   2.939 -0.2262  0.9324  0.2142
   86SLPC    C1 8203   3.563   1.981   3.063  0.6564  0.6169 -0.4706
   86SLPC    HA 8204   3.515   2.079   3.081 -1.8684 -1.1804  4.5302
   86SLPC    HB 8205   3.483   1.904   3.063 -0.5749  1.8627 -0.2197
   86SLPC    C2 8206   3.653   1.943   3.189  0.1491 -0.4527 -0.5504
   86SLPC    HS 8207   3.750   1.997   3.194  0.3938 -0.9832  1.3687
   86SLPC   O21 8208   3.679   1.801   3.193 -0.3035  0.0223  0.2177
   86SLPC   C21 8209   3.800   1.755   3.181  0.5405  0.1949  0.3819
   86SLPC   O22 8210   3.902   1.822   3.159 -0.3010 -0.2363 -0.3160
   86SLPC   C22 8211   3.799   1.605   3.183 -0.4615 -0.0802  0.2297
   86SLPC   H2R 8212   3.697   1.565   3.195 -1.0866  1.2966 -0.2827
   86SLPC   H2S 8213   3.838   1.574   3.083 -1.5355  2.0135 -0.9314
   86SLPC    C3 8214   3.575   1.968   3.314  0.4084  0.1463 -1.2223
   86SLPC    HX 8215   3.484   1.905   3.310 -0.4931  1.1915  1.1980
   86SLPC    HY 8216   3.545   2.074   3.322 -0.0059  0.0186 -1.0551
   86SLPC   O31 8217   3.648   1.922   3.435 -0.0209  0.2502 -0.6859
   86SLPC   C31 8218   3.751   1.999   3.463 -0.2835  0.5319  0.5809
   86SLPC   O32 8219   3.758   2.115   3.424 -0.0902  0.3232  0.1834
   86SLPC   C32 8220   3.850   1.926   3.556  0.4395  0.2280  0.0814
   86SLPC   H2X 8221   3.865   1.823   3.517  0.6702  0.3522 -0.1640
   86SLPC   H2Y 8222   3.791   1.908   3.648  2.5873 -2.0611  1.1468
   86SLPC   C23 8223   3.877   1.526   3.298 -0.1234  0.5119  0.4368
   86SLPC   H3R 8224   3.980   1.562   3.320  0.6618 -1.5721  0.3676
   86SLPC   H3S 8225   3.911   1.427   3.262  0.2607  0.0971  1.8713
   86SLPC   C24 8226   3.785   1.496   3.413  0.3067 -0.4270  0.2508
   86SLPC   H4R 8227   3.713   1.422   3.373  1.5276 -0.6379 -1.7128
   86SLPC   H4S 8228   3.720   1.582   3.440  1.5478 -0.1858  2.8224
   86SLPC   C25 8229   3.844   1.437   3.542  0.5492 -0.0370  1.1592
   86SLPC   H5R 8230   3.886   1.336   3.522 -0.7250 -0.2000 -0.9696
   86SLPC   H5S 8231   3.760   1.427   3.614 -1.3901 -0.1296 -0.9668
   86SLPC   C26 8232   3.953   1.520   3.601  0.3604 -0.4819  0.0313
   86SLPC   H6R 8233   3.912   1.622   3.618  1.6573  0.0569  0.0822
   86SLPC   H6S 8234   4.042   1.515   3.534 -0.5321 -1.2092 -1.1227
   86SLPC   C27 8235   3.999   1.464   3.733  0.2637 -0.2400 -0.2389
   86SLPC   H7R 8236   4.032   1.358   3.731  1.6961  0.1770  0.1121
   86SLPC   H7S 8237   3.913   1.458   3.803 -2.0859 -4.0125 -3.0556
   86SLPC   C28 8238   4.108   1.548   3.794  0.1199  0.8796  0.5395
   86SLPC   H8R 8239   4.192   1.548   3.722 -1.9261 -0.8567 -2.0287
   86SLPC   H8S 8240   4.141   1.482   3.878  1.3292  1.3810  0.4762
   86SLPC   C29 8241   4.089   1.685   3.846 -0.3171  0.0265 -0.2467
   86SLPC   H9R 8242   4.078   1.763   3.769 -3.4886 -0.2419 -0.2236
   86SLPC  C210 8243   4.083   1.716   3.978 -0.2714 -0.0111  0.1095
   86SLPC  H10R 8244   4.048   1.817   4.004  2.0187  0.5889  1.1096
   86SLPC  C211 8245   4.100   1.630   4.102  0.1799 -0.1723  0.1564
   86SLPC  H11R 8246   4.026   1.547   4.104 -1.3244  1.1253  1.4283
   86SLPC  H11S 8247   4.063   1.692   4.187 -0.6566  2.6801 -2.1374
   86SLPC  C212 8248   4.243   1.572   4.125 -0.2975 -0.2819  0.0109
   86SLPC  H12R 8249   4.300   1.560   4.032 -0.9678 -0.7623 -0.3487
   86SLPC  C213 8250   4.302   1.536   4.246  0.2790 -0.2422 -0.1739
   86SLPC  H13R 8251   4.407   1.502   4.249  1.1239  1.6640 -3.2608
   86SLPC  C214 8252   4.236   1.548   4.384 -0.2411 -0.1085  0.1971
   86SLPC  H14R 8253   4.131   1.585   4.382 -0.4688 -0.7485 -0.0176
   86SLPC  H14S 8254   4.290   1.619   4.449  0.2025 -2.1490  2.2037
   86SLPC  C215 8255   4.228   1.418   4.460 -0.0848 -0.5271 -0.2529
   86SLPC  H15R 8256   4.325   1.366   4.447 -0.2057 -0.3851 -1.8999
   86SLPC  H15S 8257   4.148   1.349   4.427 -0.9985  0.2575  0.2592
   86SLPC  C216 8258   4.219   1.444   4.611 -0.6173 -0.3045 -0.1749
   86SLPC  H16R 8259   4.120   1.483   4.644  0.0256 -0.2723  1.8882
   86SLPC  H16S 8260   4.294   1.516   4.650 -1.4438 -0.7373  2.4316
   86SLPC  C217 8261   4.238   1.316   4.697 -0.4512  0.2165  0.4595
   86SLPC  H17R 8262   4.342   1.280   4.681 -0.9199 -0.9198 -0.1465
   86SLPC  H17S 8263   4.170   1.236   4.661  1.1782 -0.8649 -0.3614
   86SLPC  C218 8264   4.218   1.342   4.843 -0.3686  0.3313 -0.1742
   86SLPC  H18R 8265   4.285   1.422   4.881  1.9336 -0.5621 -2.0603
   86SLPC  H18S 8266   4.255   1.256   4.902  1.3776  1.4962  0.5159
   86SLPC  H18T 8267   4.111   1.358   4.868 -0.2497  1.2677 -0.2257
   86SLPC   C33 8268   3.982   1.997   3.578 -0.0358  0.8669 -0.1918
   86SLPC   H3X 8269   4.047   2.012   3.490  1.7049  3.1667  1.3566
   86SLPC   H3Y 8270   4.052   1.932   3.634 -1.2026 -1.5609 -1.3944
   86SLPC   C34 8271   3.966   2.123   3.676  0.8257 -0.4959  0.8839
   86SLPC   H4X 8272   3.878   2.098   3.739  0.1203  0.2551  0.2121
   86SLPC   H4Y 8273   3.943   2.214   3.617 -0.2224 -2.1107 -1.3817
   86SLPC   C35 8274   4.094   2.144   3.753 -0.7040  0.6404  0.0926
   86SLPC   H5X 8275   4.173   2.174   3.681 -0.6267 -1.0531 -0.5734
   86SLPC   H5Y 8276   4.127   2.049   3.799  0.7612  0.1571 -1.8355
   86SLPC   C36 8277   4.074   2.241   3.869 -0.5659  0.0741  0.1367
   86SLPC   H6X 8278   3.971   2.226   3.909 -0.4888  0.9850  0.6957
   86SLPC   H6Y 8279   4.080   2.341   3.821  0.6804  0.7682  1.6649
   86SLPC   C37 8280   4.177   2.233   3.986 -0.1005  0.7472 -0.2774
   86SLPC   H7X 8281   4.188   2.329   4.041 -1.5446  1.1274 -0.6181
   86SLPC   H7Y 8282   4.275   2.217   3.936 -1.0441 -1.9583 -1.4428
   86SLPC   C38 8283   4.152   2.124   4.086  0.0629  0.4516  0.4866
   86SLPC   H8X 8284   4.138   2.026   4.035 -1.7766  2.0422 -2.3239
   86SLPC   H8Y 8285   4.065   2.160   4.144  0.5741  1.2721  0.7597
   86SLPC   C39 8286   4.257   2.104   4.190 -0.5003 -0.1943  0.5194
   86SLPC   H9X 8287   4.288   2.187   4.256 -0.8542 -2.6233  4.0374
   86SLPC   H9Y 8288   4.352   2.082   4.137 -0.7152  2.4045 -1.0959
   86SLPC  C310 8289   4.233   1.983   4.281  0.7465  0.5428  0.8228
   86SLPC  H10X 8290   4.196   1.898   4.220 -0.1309  1.1717  0.4448
   86SLPC  H10Y 8291   4.142   2.003   4.342  2.0310 -0.0553  3.0497
   86SLPC  C311 8292   4.341   1.950   4.381  0.5238  0.5305  0.7847
   86SLPC  H11X 8293   4.385   2.048   4.410  1.6968  0.3098 -0.1736
   86SLPC  H11Y 8294   4.429   1.896   4.340  0.6154  1.0945  0.2264
   86SLPC  C312 8295   4.290   1.894   4.519  0.0077 -0.2937  0.7791
   86SLPC  H12X 8296   4.229   1.805   4.491  0.6552 -0.2047 -1.0192
   86SLPC  H12Y 8297   4.216   1.963   4.565  1.1863  1.6726 -0.1643
   86SLPC  C313 8298   4.400   1.865   4.621 -0.6044  0.1147  0.1305
   86SLPC  H13X 8299   4.465   1.954   4.635 -1.8687  1.3091 -1.2189
   86SLPC  H13Y 8300   4.455   1.778   4.580 -1.2866 -0.5278  0.5639
   86SLPC  C314 8301   4.344   1.823   4.759 -0.7858 -0.4406  0.1605
   86SLPC  H14X 8302   4.254   1.764   4.730 -1.1377  0.0159  0.3082
   86SLPC  H14Y 8303   4.322   1.922   4.803  2.1111  0.5121 -0.3511
   86SLPC  C315 8304   4.444   1.737   4.843 -0.4195  0.1611 -0.8344
   86SLPC  H15X 8305   4.544   1.782   4.861 -0.5311 -0.7259  2.6437
   86SLPC  H15Y 8306   4.447   1.634   4.801 -0.2652 -0.9192  1.6679
   86SLPC  C316 8307   4.396   1.706   4.985  0.7802 -0.3297 -1.0662
   86SLPC  H16X 8308   4.298   1.654   4.989  0.3661  0.5101  0.2198
   86SLPC  H16Y 8309   4.381   1.807   5.028 -2.0453 -1.2036  0.2324
   86SLPC  C317 8310   4.496   1.621   5.069  0.6542 -0.0977  0.1185
   86SLPC  H17X 8311   4.562   1.555   5.010  2.1252  0.7400  0.7462
   86SLPC  H17Y 8312   4.434   1.546   5.123 -0.7745  0.7697 -0.2695
   86SLPC  C318 8313   4.587   1.694   5.177 -0.4661 -0.1575 -0.0245
   86SLPC  H18X 8314   4.661   1.763   5.132 -0.7730 -0.2756 -0.7206
   86SLPC  H18Y 8315   4.648   1.619   5.232 -0.6196  0.7351  1.4061
   86SLPC  H18Z 8316   4.525   1.756   5.245 -0.2683  0.8703 -0.7639
   87SLPC     N 8317   2.168   2.348   2.280  0.5983 -0.0418 -0.7082
   87SLPC   C13 8318   2.261   2.224   2.261 -0.6635  0.2647 -0.0355
   87SLPC  H13A 8319   2.221   2.148   2.196  2.0489  0.8480 -2.5756
   87SLPC  H13B 8320   2.357   2.252   2.222 -2.1935  3.6250 -1.8133
   87SLPC  H13C 8321   2.275   2.173   2.356  0.0918 -0.7207 -0.6573
   87SLPC   C14 8322   2.152   2.419   2.152  0.4179 -0.3709  0.9753
   87SLPC  H14A 8323   2.244   2.472   2.136  1.1146 -1.8703 -0.3087
   87SLPC  H14B 8324   2.144   2.346   2.073 -1.0049  1.0757 -0.2916
   87SLPC  H14C 8325   2.068   2.487   2.148  0.4495 -0.3869 -0.1264
   87SLPC   C15 8326   2.239   2.442   2.378 -0.4546 -0.6480  0.1000
   87SLPC  H15A 8327   2.332   2.470   2.332 -1.4614 -0.7134 -2.0822
   87SLPC  H15B 8328   2.173   2.525   2.396  0.2274  0.1651 -1.0289
   87SLPC  H15C 8329   2.269   2.396   2.472  1.0596 -3.3779 -1.5658
   87SLPC   C12 8330   2.033   2.301   2.339  0.4468  0.4189  0.7009
   87SLPC  H12A 8331   1.979   2.259   2.255 -1.4031 -1.4835  2.7164
   87SLPC  H12B 8332   1.983   2.388   2.380 -2.2094 -2.1769  3.4715
   87SLPC   C11 8333   2.030   2.190   2.451  0.2089  0.2908  0.1000
   87SLPC  H11A 8334   2.073   2.099   2.404 -3.2083 -1.3123 -0.2360
   87SLPC  H11B 8335   1.926   2.157   2.472  0.7426 -2.1837 -0.8010
   87SLPC     P 8336   2.173   2.146   2.671 -0.0636 -0.4839  0.2572
   87SLPC   O13 8337   2.272   2.061   2.593  0.2317  0.2496 -0.5194
   87SLPC   O14 8338   2.230   2.228   2.773  0.2016  0.4129 -0.5171
   87SLPC   O12 8339   2.097   2.237   2.568  0.2464  0.2370 -0.6112
   87SLPC   O11 8340   2.056   2.058   2.731 -0.1783  0.7646  0.0434
   87SLPC    C1 8341   1.933   2.126   2.788 -0.8825  0.6295  0.0634
   87SLPC    HA 8342   1.923   2.229   2.746 -1.5020  0.9589  0.9956
   87SLPC    HB 8343   1.846   2.061   2.763 -0.6753 -0.1645  1.3449
   87SLPC    C2 8344   1.943   2.132   2.940  0.0254  0.0035 -0.8671
   87SLPC    HS 8345   2.039   2.177   2.973  1.5415 -2.4338 -1.6777
   87SLPC   O21 8346   1.923   2.003   2.992  0.0197 -0.2873 -0.1908
   87SLPC   C21 8347   2.036   1.937   3.027  0.0163 -1.1173  0.7331
   87SLPC   O22 8348   2.150   1.983   3.025 -0.2865  0.3179 -0.6613
   87SLPC   C22 8349   1.994   1.791   3.065  0.3045 -0.0276 -0.1405
   87SLPC   H2R 8350   1.952   1.737   2.978 -0.1987 -2.7784  1.6617
   87SLPC   H2S 8351   2.084   1.735   3.097  0.8655  0.4981 -0.7832
   87SLPC    C3 8352   1.831   2.227   2.999  0.0819 -0.1370 -0.2718
   87SLPC    HX 8353   1.731   2.179   2.999  0.0306 -0.0500 -1.3838
   87SLPC    HY 8354   1.832   2.315   2.931  1.3967  1.0883  1.2533
   87SLPC   O31 8355   1.865   2.262   3.135 -0.6817  0.1487 -0.3775
   87SLPC   C31 8356   1.905   2.388   3.155  0.5073 -0.2084 -0.0120
   87SLPC   O32 8357   1.917   2.473   3.071 -0.3112  0.2583 -0.1335
   87SLPC   C32 8358   1.930   2.407   3.307  0.2824 -0.5369 -0.3252
   87SLPC   H2X 8359   2.022   2.470   3.312  0.4071 -0.7640  0.3443
   87SLPC   H2Y 8360   1.946   2.310   3.360  2.5999  0.9898  2.0379
   87SLPC   C23 8361   1.889   1.779   3.174  0.1053 -0.6738 -0.1080
   87SLPC   H3R 8362   1.870   1.673   3.202  1.7545 -0.5043  1.9163
   87SLPC   H3S 8363   1.798   1.840   3.157  1.2497  0.6389 -1.8182
   87SLPC   C24 8364   1.946   1.838   3.305  0.6210 -0.5838 -0.8259
   87SLPC   H4R 8365   1.990   1.939   3.293  2.7853 -1.0316  2.1511
   87SLPC   H4S 8366   2.031   1.773   3.334  0.2612 -0.3952  0.7668
   87SLPC   C25 8367   1.852   1.846   3.417  0.3837 -0.3093 -0.4109
   87SLPC   H5R 8368   1.812   1.745   3.440 -1.1954  0.4852  0.5206
   87SLPC   H5S 8369   1.756   1.896   3.390  0.9076 -0.1151 -1.9931
   87SLPC   C26 8370   1.898   1.922   3.540  1.1086  0.6950 -0.8772
   87SLPC   H6R 8371   1.857   2.024   3.526 -1.1559 -0.2402 -1.4485
   87SLPC   H6S 8372   2.009   1.916   3.544  1.2136  1.7652 -1.8288
   87SLPC   C27 8373   1.837   1.853   3.668  0.0955  0.1852 -0.0711
   87SLPC   H7R 8374   1.880   1.754   3.695  1.4357  1.0170  0.9913
   87SLPC   H7S 8375   1.728   1.833   3.656  0.0252  1.5048 -1.9507
   87SLPC   C28 8376   1.866   1.930   3.802 -0.0321 -0.0526 -0.8603
   87SLPC   H8R 8377   1.817   2.029   3.813  1.8077  1.3593 -3.9422
   87SLPC   H8S 8378   1.973   1.960   3.802 -0.3386  1.4774  2.1762
   87SLPC   C29 8379   1.858   1.853   3.934  0.1906 -0.2838 -0.3266
   87SLPC   H9R 8380   1.918   1.760   3.937  0.2194 -0.2603  1.6398
   87SLPC  C210 8381   1.796   1.888   4.043 -0.3122 -0.5923  0.0739
   87SLPC  H10R 8382   1.804   1.816   4.126  1.6549 -0.6166 -0.0950
   87SLPC  C211 8383   1.720   2.013   4.070  0.1166 -0.0089  0.1011
   87SLPC  H11R 8384   1.624   1.992   4.122  0.2556 -2.7183 -0.6114
   87SLPC  H11S 8385   1.690   2.068   3.978  0.9890 -1.1062 -0.8659
   87SLPC  C212 8386   1.806   2.106   4.153 -0.4531  0.3670  0.2154
   87SLPC  H12R 8387   1.873   2.179   4.106 -1.1567  0.8615 -0.0354
   87SLPC  C213 8388   1.803   2.112   4.290  0.1698 -0.0576 -0.5003
   87SLPC  H13R 8389   1.866   2.181   4.347  0.2034 -1.1214  0.7957
   87SLPC  C214 8390   1.714   2.032   4.389  0.0182  0.6374 -1.1955
   87SLPC  H14R 8391   1.658   1.955   4.332 -2.5225 -0.2128  2.1765
   87SLPC  H14S 8392   1.642   2.099   4.440  1.1383  0.3348  0.9334
   87SLPC  C215 8393   1.791   1.947   4.497 -0.3165 -0.0210  1.2358
   87SLPC  H15R 8394   1.729   1.914   4.583 -0.8447 -0.1910  0.7981
   87SLPC  H15S 8395   1.878   2.013   4.520  0.1694  0.2813 -1.2327
   87SLPC  C216 8396   1.855   1.827   4.425  0.1951  0.6698 -0.4718
   87SLPC  H16R 8397   1.936   1.865   4.359  0.4582 -0.4241 -0.8022
   87SLPC  H16S 8398   1.789   1.765   4.361  3.3383 -1.2601 -2.0669
   87SLPC  C217 8399   1.914   1.723   4.522 -0.5735 -0.7081  0.3959
   87SLPC  H17R 8400   1.992   1.767   4.588  0.3056 -0.4812 -0.7542
   87SLPC  H17S 8401   1.960   1.647   4.456 -0.9826  0.3382 -1.1498
   87SLPC  C218 8402   1.803   1.649   4.601 -0.1530 -0.1982 -0.3056
   87SLPC  H18R 8403   1.796   1.693   4.703 -0.5982  0.6003 -0.6665
   87SLPC  H18S 8404   1.836   1.545   4.624  0.3419  0.3816  1.8499
   87SLPC  H18T 8405   1.719   1.664   4.531  0.7295 -0.4718 -1.4453
   87SLPC   C33 8406   1.812   2.490   3.377 -0.4402  0.0351  0.1281
   87SLPC   H3X 8407   1.819   2.452   3.481  0.0107 -2.8706 -0.8645
   87SLPC   H3Y 8408   1.718   2.456   3.329 -0.6317  0.5561  0.1236
   87SLPC   C34 8409   1.816   2.639   3.380  0.5256  0.9333  0.0192
   87SLPC   H4X 8410   1.717   2.688   3.370  0.4529  1.1886  1.6498
   87SLPC   H4Y 8411   1.873   2.669   3.290  1.5281  0.4433  0.4719
   87SLPC   C35 8412   1.902   2.695   3.499 -0.1603 -0.4750 -0.1574
   87SLPC   H5X 8413   1.933   2.799   3.480  3.2096 -1.8099 -2.8725
   87SLPC   H5Y 8414   1.993   2.632   3.507  1.8619  2.5061  2.5062
   87SLPC   C36 8415   1.815   2.705   3.629 -0.1274  0.2185  0.1721
   87SLPC   H6X 8416   1.719   2.650   3.613 -0.6035  1.4249 -1.4185
   87SLPC   H6Y 8417   1.787   2.808   3.658 -1.4679 -0.6689  2.2740
   87SLPC   C37 8418   1.895   2.636   3.739  0.1272  0.0126 -0.3649
   87SLPC   H7X 8419   1.999   2.673   3.732  0.3499 -0.7764 -1.4331
   87SLPC   H7Y 8420   1.892   2.528   3.714 -0.0245  0.2316 -1.3193
   87SLPC   C38 8421   1.833   2.661   3.876  0.1559 -0.0687 -0.0382
   87SLPC   H8X 8422   1.726   2.643   3.857 -0.1351  1.2800  0.2069
   87SLPC   H8Y 8423   1.849   2.767   3.906 -0.2108 -0.4773  1.7059
   87SLPC   C39 8424   1.885   2.562   3.987  0.3615 -0.2830  0.1849
   87SLPC   H9X 8425   1.992   2.541   3.969  0.7231  1.2253  0.5003
   87SLPC   H9Y 8426   1.824   2.469   3.977  1.7934 -1.3159  0.8130
   87SLPC  C310 8427   1.859   2.608   4.136 -0.5119  0.2783  0.1236
   87SLPC  H10X 8428   1.753   2.642   4.143 -0.6624  0.4049 -1.9989
   87SLPC  H10Y 8429   1.919   2.700   4.154 -0.4087 -0.1291  2.0677
   87SLPC  C311 8430   1.895   2.516   4.250 -0.1703  0.1970 -0.3141
   87SLPC  H11X 8431   2.002   2.484   4.248  0.4845  1.9450  2.0119
   87SLPC  H11Y 8432   1.826   2.429   4.255 -0.1342  0.2317  1.9390
   87SLPC  C312 8433   1.876   2.598   4.385  0.3040 -0.0174  0.0643
   87SLPC  H12X 8434   1.935   2.690   4.371 -1.8922  1.5749  0.6791
   87SLPC  H12Y 8435   1.923   2.546   4.471 -2.3416 -1.8812  0.5332
   87SLPC  C313 8436   1.729   2.638   4.423 -0.1537 -0.2056 -0.4193
   87SLPC  H13X 8437   1.670   2.689   4.344 -0.3010  2.4654  1.2806
   87SLPC  H13Y 8438   1.727   2.706   4.511  0.5014  0.7287 -1.0938
   87SLPC  C314 8439   1.634   2.518   4.463 -0.5222  0.0025  0.0829
   87SLPC  H14X 8440   1.653   2.497   4.571  2.0420 -3.8639 -0.9264
   87SLPC  H14Y 8441   1.645   2.425   4.402 -2.0741  0.0441 -0.3015
   87SLPC  C315 8442   1.486   2.559   4.455  0.2123  0.6058  0.2069
   87SLPC  H15X 8443   1.466   2.596   4.352  0.6671  1.2648  0.3486
   87SLPC  H15Y 8444   1.479   2.650   4.518  1.1770 -0.0648  1.3220
   87SLPC  C316 8445   1.381   2.453   4.511 -0.0403  0.1824  0.1737
   87SLPC  H16X 8446   1.400   2.462   4.620  1.8371  4.4846 -0.3230
   87SLPC  H16Y 8447   1.403   2.354   4.465 -1.5083  0.2483 -0.7477
   87SLPC  C317 8448   1.248   2.500   4.460  0.2129 -0.1501 -0.2798
   87SLPC  H17X 8449   1.251   2.506   4.349  1.7156  0.5652 -0.2328
   87SLPC  H17Y 8450   1.224   2.604   4.490 -0.4428 -0.4162  0.1321
   87SLPC  C318 8451   1.128   2.430   4.529 -0.1614  0.5439  0.1467
   87SLPC  H18X 8452   1.151   2.418   4.637  1.2059 -0.4134 -0.2169
   87SLPC  H18Y 8453   1.111   2.331   4.482 -0.5198  0.8890 -0.4717
   87SLPC  H18Z 8454   1.031   2.481   4.511 -0.2406  1.0686  1.8999
   88SLPC     N 8455   3.622   3.089   3.039 -0.1754  0.0738 -0.4874
   88SLPC   C13 8456   3.580   2.992   2.930 -0.1158  0.2622 -0.7712
   88SLPC  H13A 8457   3.503   2.929   2.970 -1.0029  1.8368  0.1058
   88SLPC  H13B 8458   3.563   3.044   2.837 -1.6918  1.3051  0.0696
   88SLPC  H13C 8459   3.671   2.935   2.914 -2.1870 -3.1077 -1.6216
   88SLPC   C14 8460   3.511   3.179   3.073 -0.0790 -0.5625 -0.3876
   88SLPC  H14A 8461   3.448   3.139   3.151  0.0935  1.0793  0.6441
   88SLPC  H14B 8462   3.563   3.266   3.112 -1.5516  0.7425 -1.2155
   88SLPC  H14C 8463   3.466   3.214   2.981  1.2041  0.6492 -0.5998
   88SLPC   C15 8464   3.726   3.178   2.982  0.2473 -0.0922 -0.8820
   88SLPC  H15A 8465   3.812   3.118   2.956  0.4833 -0.7130  1.1505
   88SLPC  H15B 8466   3.689   3.229   2.894 -0.7794  0.6818 -0.0331
   88SLPC  H15C 8467   3.752   3.247   3.061  0.8191 -1.6339  0.3197
   88SLPC   C12 8468   3.664   3.002   3.155  0.2048  0.0560  0.1146
   88SLPC  H12A 8469   3.688   3.063   3.241 -2.3316 -0.1873  1.0947
   88SLPC  H12B 8470   3.749   2.941   3.128 -0.1121 -0.1425 -0.4420
   88SLPC   C11 8471   3.559   2.892   3.197  0.2686 -0.4063 -0.4706
   88SLPC  H11A 8472   3.462   2.941   3.216 -0.4812 -1.6459 -0.9866
   88SLPC  H11B 8473   3.601   2.860   3.294  0.4039  0.8005 -0.1087
   88SLPC     P 8474   3.651   2.681   3.062  0.2586 -0.2362 -0.0848
   88SLPC   O13 8475   3.632   2.634   2.926 -0.7811 -0.1883  0.1700
   88SLPC   O14 8476   3.786   2.736   3.091 -0.0804 -0.2630  0.1752
   88SLPC   O12 8477   3.539   2.779   3.105  0.2156 -0.3295 -0.3842
   88SLPC   O11 8478   3.610   2.571   3.165 -0.3672  0.7469  0.3694
   88SLPC    C1 8479   3.486   2.505   3.177 -0.4901  0.1058  0.1946
   88SLPC    HA 8480   3.401   2.568   3.142 -1.4819 -0.8384  0.8128
   88SLPC    HB 8481   3.486   2.409   3.121  0.0092 -1.1911  2.3438
   88SLPC    C2 8482   3.453   2.455   3.324 -0.4642 -0.2066  0.1751
   88SLPC    HS 8483   3.359   2.397   3.319 -0.8063  0.4094 -0.6441
   88SLPC   O21 8484   3.447   2.565   3.419  0.0387 -0.2214  0.0852
   88SLPC   C21 8485   3.336   2.622   3.414  0.0257 -1.0946 -0.2731
   88SLPC   O22 8486   3.253   2.622   3.325  0.1765 -0.4723 -0.9227
   88SLPC   C22 8487   3.318   2.704   3.543  0.4243 -0.1406  0.6093
   88SLPC   H2R 8488   3.418   2.728   3.585  0.1088  1.0086  0.7354
   88SLPC   H2S 8489   3.270   2.799   3.511 -1.4914 -0.5653  2.0757
   88SLPC    C3 8490   3.554   2.358   3.388  0.8605 -0.4292 -1.1371
   88SLPC    HX 8491   3.648   2.415   3.402  1.3948 -2.0057  3.7155
   88SLPC    HY 8492   3.574   2.274   3.318 -1.9612 -1.8831 -0.3592
   88SLPC   O31 8493   3.514   2.300   3.525 -0.3019 -0.4283  0.2867
   88SLPC   C31 8494   3.435   2.203   3.517  0.5220  0.8732 -0.3258
   88SLPC   O32 8495   3.361   2.183   3.416  0.2476 -0.5602 -0.0779
   88SLPC   C32 8496   3.434   2.124   3.652  0.0310  0.2083  0.5024
   88SLPC   H2X 8497   3.442   2.015   3.635 -1.3366  0.3243 -1.3025
   88SLPC   H2Y 8498   3.328   2.132   3.684  0.1147  0.0951  0.8012
   88SLPC   C23 8499   3.220   2.660   3.641 -0.5860 -0.1947 -0.5221
   88SLPC   H3R 8500   3.121   2.657   3.591 -1.2077  0.1035  0.6588
   88SLPC   H3S 8501   3.222   2.742   3.716  3.7439  0.6718 -1.2898
   88SLPC   C24 8502   3.248   2.523   3.713  0.5702 -0.7744 -0.3211
   88SLPC   H4R 8503   3.348   2.528   3.762  0.4965  0.3432 -0.2581
   88SLPC   H4S 8504   3.251   2.444   3.635 -0.9733  1.3845 -2.7457
   88SLPC   C25 8505   3.159   2.506   3.842  0.1377 -0.3367 -0.0323
   88SLPC   H5R 8506   3.049   2.518   3.831 -0.0413  0.8665  2.4618
   88SLPC   H5S 8507   3.190   2.594   3.901 -1.7584 -0.4919  1.2703
   88SLPC   C26 8508   3.187   2.374   3.911  0.4750  0.3186  0.0377
   88SLPC   H6R 8509   3.297   2.376   3.930  0.9426  2.4815 -2.3906
   88SLPC   H6S 8510   3.167   2.286   3.846 -0.5275  1.7061 -1.5897
   88SLPC   C27 8511   3.108   2.371   4.045  0.3031 -0.0141 -0.4868
   88SLPC   H7R 8512   3.005   2.367   4.006  0.3974 -0.1297 -0.7241
   88SLPC   H7S 8513   3.127   2.459   4.110 -0.6876 -1.1927  1.5054
   88SLPC   C28 8514   3.129   2.242   4.119 -0.5685 -0.3283 -0.3567
   88SLPC   H8R 8515   3.240   2.240   4.129 -0.6833  0.9897  2.0633
   88SLPC   H8S 8516   3.087   2.151   4.073 -1.0153 -0.6342  0.6281
   88SLPC   C29 8517   3.070   2.257   4.259 -0.4144  0.5026  0.4759
   88SLPC   H9R 8518   2.965   2.288   4.267 -0.1060  1.3469  1.4693
   88SLPC  C210 8519   3.138   2.262   4.379 -0.0582  0.3820  0.2695
   88SLPC  H10R 8520   3.087   2.277   4.476 -0.8582  0.8503 -0.2068
   88SLPC  C211 8521   3.287   2.246   4.396 -0.4655  0.1012  0.1158
   88SLPC  H11R 8522   3.331   2.320   4.467  2.3940  0.2994 -1.7015
   88SLPC  H11S 8523   3.331   2.278   4.299 -1.1955  1.5414  0.2327
   88SLPC  C212 8524   3.346   2.105   4.426  0.0847 -0.7875  0.3720
   88SLPC  H12R 8525   3.312   2.029   4.355  0.0055  0.0661 -0.5217
   88SLPC  C213 8526   3.408   2.059   4.535 -0.2547  0.0063 -0.5805
   88SLPC  H13R 8527   3.449   1.957   4.540  1.9070  0.8904  1.6433
   88SLPC  C214 8528   3.449   2.132   4.664  0.1681  1.0317  0.3423
   88SLPC  H14R 8529   3.409   2.236   4.665 -0.8166  0.6701 -0.1746
   88SLPC  H14S 8530   3.559   2.133   4.682  0.3288  0.3970 -0.5575
   88SLPC  C215 8531   3.382   2.071   4.793  0.0129  0.2535 -1.3643
   88SLPC  H15R 8532   3.402   1.962   4.786  0.3802  0.2999 -1.0024
   88SLPC  H15S 8533   3.271   2.080   4.788 -0.2512 -1.4662  0.3122
   88SLPC  C216 8534   3.430   2.116   4.927 -0.7151 -0.2161 -0.0846
   88SLPC  H16R 8535   3.433   2.227   4.921 -0.3288 -0.1159  1.5334
   88SLPC  H16S 8536   3.533   2.080   4.944 -0.2457  0.3293 -1.6128
   88SLPC  C217 8537   3.345   2.072   5.047 -0.0980 -0.2780 -0.9262
   88SLPC  H17R 8538   3.358   1.962   5.056  0.5834 -0.1814 -0.6491
   88SLPC  H17S 8539   3.238   2.092   5.025  0.0337 -0.7595 -2.0738
   88SLPC  C218 8540   3.392   2.148   5.170  0.5182 -0.2513 -0.4552
   88SLPC  H18R 8541   3.345   2.109   5.263  2.0219 -1.1451 -0.0233
   88SLPC  H18S 8542   3.362   2.253   5.148  1.1941 -0.2130 -1.2375
   88SLPC  H18T 8543   3.502   2.146   5.186  0.4223  1.0911  0.4891
   88SLPC   C33 8544   3.521   2.193   3.763 -0.0412 -0.1517 -0.0897
   88SLPC   H3X 8545   3.487   2.298   3.754  0.2576  0.0608  1.1044
   88SLPC   H3Y 8546   3.626   2.182   3.728  0.5331 -1.7909  1.9524
   88SLPC   C34 8547   3.501   2.133   3.898  0.2038  0.0273 -0.2578
   88SLPC   H4X 8548   3.519   2.025   3.911  2.0623  0.2069 -1.1271
   88SLPC   H4Y 8549   3.395   2.160   3.920  0.4816  1.9400 -1.0743
   88SLPC   C35 8550   3.592   2.208   4.001  0.5273 -0.0480 -0.2036
   88SLPC   H5X 8551   3.553   2.311   4.013  0.5812 -0.1539  1.0677
   88SLPC   H5Y 8552   3.700   2.218   3.976  1.0844  0.1955  2.0349
   88SLPC   C36 8553   3.582   2.157   4.147 -0.4236  0.2767 -0.4599
   88SLPC   H6X 8554   3.624   2.056   4.168 -0.5364  0.4264  0.5024
   88SLPC   H6Y 8555   3.473   2.137   4.160 -0.1498 -0.0460  1.7072
   88SLPC   C37 8556   3.625   2.256   4.254 -0.7834 -0.4847  0.2808
   88SLPC   H7X 8557   3.572   2.221   4.345 -1.4792  0.1293  0.1242
   88SLPC   H7Y 8558   3.584   2.356   4.228 -2.0458 -0.6934  1.3752
   88SLPC   C38 8559   3.779   2.262   4.269  0.9176 -0.5385  0.2183
   88SLPC   H8X 8560   3.829   2.339   4.206  1.1888 -0.1265  0.9290
   88SLPC   H8Y 8561   3.801   2.158   4.235 -3.3500 -1.5617 -0.0758
   88SLPC   C39 8562   3.816   2.288   4.421  0.2418  0.2899  0.0929
   88SLPC   H9X 8563   3.755   2.233   4.496 -2.9348  2.0573 -0.9872
   88SLPC   H9Y 8564   3.794   2.392   4.455 -1.5429  0.0894 -0.3472
   88SLPC  C310 8565   3.963   2.266   4.456  0.1425  0.4371  0.2472
   88SLPC  H10X 8566   4.012   2.342   4.392  0.5084  1.3795  1.5967
   88SLPC  H10Y 8567   3.992   2.161   4.430 -2.0971  0.4746 -2.9823
   88SLPC  C311 8568   3.994   2.298   4.604  0.0991 -0.3317  0.0602
   88SLPC  H11X 8569   3.962   2.206   4.657 -1.6018 -0.1575 -0.6248
   88SLPC  H11Y 8570   3.937   2.387   4.640 -0.2309 -0.0176 -1.2022
   88SLPC  C312 8571   4.146   2.326   4.638  0.2793  0.1707  0.9994
   88SLPC  H12X 8572   4.184   2.428   4.613  1.5381 -0.6566 -0.6091
   88SLPC  H12Y 8573   4.204   2.264   4.566 -0.4801  1.1986 -0.5683
   88SLPC  C313 8574   4.162   2.305   4.786  0.2027 -0.4623 -0.1282
   88SLPC  H13X 8575   4.126   2.201   4.803 -0.3512 -0.2494  0.0407
   88SLPC  H13Y 8576   4.100   2.378   4.844 -0.5028 -1.9042  1.0014
   88SLPC  C314 8577   4.297   2.323   4.843 -0.4477 -0.1972  0.0097
   88SLPC  H14X 8578   4.288   2.303   4.952  0.7797 -0.5866  0.0499
   88SLPC  H14Y 8579   4.355   2.415   4.824 -1.0565  0.0999 -0.4606
   88SLPC  C315 8580   4.394   2.210   4.791 -0.4552 -0.6722 -0.2163
   88SLPC  H15X 8581   4.417   2.224   4.683  2.2331 -0.8931  0.2634
   88SLPC  H15Y 8582   4.328   2.122   4.805 -0.3424 -0.4845  1.7804
   88SLPC  C316 8583   4.529   2.197   4.864 -0.6975 -0.4403 -0.7236
   88SLPC  H16X 8584   4.589   2.291   4.865  0.3321 -1.0214 -2.5874
   88SLPC  H16Y 8585   4.589   2.119   4.813  0.4105 -0.9172  1.2146
   88SLPC  C317 8586   4.521   2.131   5.001  0.3387  0.4764  0.6992
   88SLPC  H17X 8587   4.462   2.037   5.008  1.4231 -0.4628 -1.5134
   88SLPC  H17Y 8588   4.466   2.205   5.062 -0.9438  0.9302 -0.9287
   88SLPC  C318 8589   4.653   2.102   5.067 -1.1700  0.5766 -0.3234
   88SLPC  H18X 8590   4.690   1.997   5.065 -1.8753  0.2603  1.4091
   88SLPC  H18Y 8591   4.647   2.130   5.175 -1.2830 -2.1051  0.4363
   88SLPC  H18Z 8592   4.738   2.159   5.025 -0.3626  1.0749  1.8473
   89SAPE     N 8593   1.320   5.249   7.356 -0.1452 -0.6577 -0.1653
   89SAPE   HN1 8594   1.253   5.305   7.300 -1.9042 -1.0323  1.4610
   89SAPE   HN2 8595   1.334   5.289   7.451 -1.2563  0.2748 -0.3674
   89SAPE   HN3 8596   1.412   5.270   7.314  0.0087  0.0578  0.4981
   89SAPE   C12 8597   1.290   5.101   7.365 -0.6071  0.2289 -0.5789
   89SAPE  H12A 8598   1.204   5.082   7.432 -0.8962 -0.4704 -1.1346
   89SAPE  H12B 8599   1.374   5.039   7.404 -1.8889 -1.2981 -0.1324
   89SAPE   C11 8600   1.275   5.044   7.229 -0.0475  0.6577  0.3976
   89SAPE  H11A 8601   1.252   4.936   7.225  5.0958 -0.6338 -0.7869
   89SAPE  H11B 8602   1.377   5.036   7.185 -0.2238  0.0298  0.0961
   89SAPE     P 8603   1.181   5.100   6.998 -0.3737 -0.3940  0.0001
   89SAPE   O13 8604   1.210   4.959   6.983  0.1473 -0.0427 -0.2327
   89SAPE   O14 8605   1.053   5.153   6.955 -0.1369  0.0385 -0.0412
   89SAPE   O12 8606   1.185   5.121   7.150 -0.2733  0.1745  0.7128
   89SAPE   O11 8607   1.291   5.184   6.939 -0.3897 -0.3416  0.2994
   89SAPE    C1 8608   1.422   5.147   6.900  0.9951  0.0812 -0.0203
   89SAPE    HA 8609   1.487   5.229   6.938  1.3234  0.2867 -0.9821
   89SAPE    HB 8610   1.452   5.050   6.944 -0.2186  0.3790  1.5351
   89SAPE    C2 8611   1.430   5.155   6.747 -0.0570  0.5920 -0.2996
   89SAPE    HS 8612   1.388   5.253   6.719 -0.8331  0.3928  0.1335
   89SAPE   O21 8613   1.362   5.047   6.687  0.4061  0.6666  0.7398
   89SAPE   C21 8614   1.244   5.065   6.635 -0.2333  0.0735  0.1317
   89SAPE   O22 8615   1.173   5.168   6.644  0.3958  1.0776  0.0438
   89SAPE   C22 8616   1.211   4.935   6.562  0.0732 -0.2603 -0.6579
   89SAPE   H2R 8617   1.304   4.880   6.538 -0.4991 -2.1349  1.1085
   89SAPE   H2S 8618   1.148   4.872   6.629 -1.5680  0.1746 -1.7259
   89SAPE    C3 8619   1.578   5.161   6.697  0.3828 -0.2329  0.1356
   89SAPE    HX 8620   1.627   5.253   6.737  0.2178  0.0115 -0.2205
   89SAPE    HY 8621   1.575   5.168   6.586  0.4428  0.6807  0.1791
   89SAPE   O31 8622   1.657   5.044   6.736  0.0348  0.0037 -0.3857
   89SAPE   C31 8623   1.662   4.947   6.641 -0.0595 -0.3180  0.0296
   89SAPE   O32 8624   1.609   4.953   6.535  0.6147 -0.5789  0.9889
   89SAPE   C32 8625   1.755   4.829   6.696 -0.3944 -0.5265 -0.4590
   89SAPE   H2X 8626   1.711   4.783   6.787  0.4757  1.1966  0.8814
   89SAPE   H2Y 8627   1.852   4.866   6.734 -0.9965 -0.8767  1.5782
   89SAPE   C23 8628   1.119   4.959   6.439 -0.1494 -0.0716  0.2832
   89SAPE   H3R 8629   1.038   5.033   6.455  1.2223  1.5974 -0.0758
   89SAPE   H3S 8630   1.081   4.857   6.420  0.3995  0.1075 -2.1251
   89SAPE   C24 8631   1.208   5.003   6.316  0.9042 -0.5500 -0.2562
   89SAPE   H4R 8632   1.258   5.097   6.349  0.7543 -0.5100 -0.1416
   89SAPE   H4S 8633   1.141   5.023   6.230 -0.0797 -0.2524  0.5671
   89SAPE   C25 8634   1.312   4.907   6.274 -0.1855 -0.8616  0.6814
   89SAPE   H5R 8635   1.387   4.903   6.354 -0.7671 -0.8159  1.2391
   89SAPE   C26 8636   1.329   4.844   6.157  0.8891  0.5259  0.2308
   89SAPE   H6R 8637   1.410   4.770   6.153  1.7083  1.4501 -1.9191
   89SAPE   C27 8638   1.243   4.843   6.035 -0.0021  0.5314 -0.6302
   89SAPE   H7R 8639   1.176   4.931   6.032  1.5465  1.7250 -1.8335
   89SAPE   H7S 8640   1.175   4.755   6.045  1.0635 -0.2249  0.2928
   89SAPE   C28 8641   1.320   4.836   5.912 -0.7092 -0.2032 -0.4858
   89SAPE   H8R 8642   1.428   4.850   5.925 -0.5736 -0.8746 -0.8692
   89SAPE   C29 8643   1.272   4.797   5.796 -0.6135  0.4036  0.2328
   89SAPE   H9R 8644   1.339   4.800   5.709  0.9960  0.6517  1.4145
   89SAPE  C210 8645   1.127   4.766   5.757 -0.1493 -0.1950 -0.4230
   89SAPE  H10R 8646   1.053   4.830   5.810  0.8037  1.5369 -1.1192
   89SAPE  H10S 8647   1.110   4.665   5.800 -1.8673  1.0360  2.0103
   89SAPE  C211 8648   1.102   4.783   5.615  0.4397  0.2581  0.2281
   89SAPE  H11R 8649   1.073   4.886   5.589  0.2695  0.5884  1.6814
   89SAPE  C212 8650   1.113   4.692   5.515 -0.1396  0.1734 -0.0554
   89SAPE  H12R 8651   1.088   4.722   5.413  1.6047 -1.3571 -0.9876
   89SAPE  C213 8652   1.166   4.548   5.533  0.2493  0.6011 -0.6809
   89SAPE  H13R 8653   1.088   4.476   5.563  1.3861 -0.5909 -0.4709
   89SAPE  H13S 8654   1.243   4.542   5.613 -1.9054  0.1810  1.4703
   89SAPE  C214 8655   1.243   4.499   5.416  0.7522 -0.4000  0.3149
   89SAPE  H14R 8656   1.257   4.566   5.329 -3.3579 -1.4790 -1.4441
   89SAPE  C215 8657   1.277   4.367   5.391  0.0691 -0.0774  0.4037
   89SAPE  H15R 8658   1.336   4.339   5.302 -1.0052  2.2089 -1.1122
   89SAPE  C216 8659   1.255   4.253   5.488 -0.2332 -0.0861  0.1139
   89SAPE  H16R 8660   1.216   4.162   5.438 -0.3685  0.2791 -0.4514
   89SAPE  H16S 8661   1.182   4.290   5.564  0.8240  1.6900  0.3293
   89SAPE  C217 8662   1.386   4.239   5.571  0.0504 -0.1330 -0.6348
   89SAPE  H17R 8663   1.358   4.179   5.660  1.4552  0.8579  0.5122
   89SAPE  H17S 8664   1.417   4.338   5.611 -0.0345 -0.5989  0.6258
   89SAPE  C218 8665   1.521   4.188   5.497 -0.0916  0.2389 -0.2814
   89SAPE  H18R 8666   1.564   4.273   5.440 -0.0484  1.0590  0.9298
   89SAPE  H18S 8667   1.498   4.110   5.421 -0.0246 -1.0056  0.9425
   89SAPE  C219 8668   1.620   4.144   5.597  0.0708  0.4363  0.6698
   89SAPE  H19R 8669   1.610   4.044   5.645 -0.8737  1.0762  1.8428
   89SAPE  H19S 8670   1.624   4.216   5.681 -1.4795  1.8743 -0.4073
   89SAPE  C220 8671   1.757   4.148   5.531 -1.1202 -0.0394 -0.2194
   89SAPE  H20R 8672   1.844   4.124   5.596 -0.8828 -1.2720 -0.9509
   89SAPE  H20S 8673   1.765   4.251   5.491 -0.7105 -0.8140 -2.2698
   89SAPE  H20T 8674   1.757   4.080   5.443 -0.3811  0.7019 -0.8106
   89SAPE   C33 8675   1.799   4.728   6.584 -0.4691  0.8099 -0.7170
   89SAPE   H3X 8676   1.836   4.783   6.494  0.6734  0.4873 -0.4580
   89SAPE   H3Y 8677   1.705   4.678   6.552 -0.7543  1.6718 -1.2684
   89SAPE   C34 8678   1.910   4.642   6.637 -0.2665 -0.2455 -0.2927
   89SAPE   H4X 8679   1.864   4.582   6.718  0.7831 -1.9189 -0.8806
   89SAPE   H4Y 8680   1.996   4.699   6.678 -0.5834 -0.6217  0.9305
   89SAPE   C35 8681   1.962   4.555   6.522 -0.4399 -0.1567  0.0141
   89SAPE   H5X 8682   1.889   4.515   6.448  0.4532 -1.1799 -0.3332
   89SAPE   H5Y 8683   2.009   4.464   6.564 -1.0218  0.2688  1.6787
   89SAPE   C36 8684   2.067   4.625   6.441 -0.0242  0.2186 -0.2463
   89SAPE   H6X 8685   2.123   4.696   6.505 -0.6733  1.9381 -1.5060
   89SAPE   H6Y 8686   2.027   4.693   6.362  0.8811  1.0147 -0.0351
   89SAPE   C37 8687   2.169   4.536   6.367  0.0627  0.1385  0.1160
   89SAPE   H7X 8688   2.218   4.451   6.419  1.8955  1.6331  0.9600
   89SAPE   H7Y 8689   2.254   4.603   6.340  0.8169 -0.2052  1.5242
   89SAPE   C38 8690   2.106   4.477   6.239 -0.2453  0.4678 -0.2673
   89SAPE   H8X 8691   2.002   4.442   6.255 -0.3820  0.8213 -0.3824
   89SAPE   H8Y 8692   2.168   4.394   6.199  0.2148  0.1691  0.9997
   89SAPE   C39 8693   2.091   4.575   6.119 -0.1685 -1.1956  0.7215
   89SAPE   H9X 8694   2.194   4.606   6.089  0.2121 -0.5621  2.5427
   89SAPE   H9Y 8695   2.044   4.673   6.144  0.9921 -0.6468  0.8423
   89SAPE  C310 8696   2.024   4.521   5.996 -0.4445 -0.0024 -0.3630
   89SAPE  H10X 8697   2.022   4.593   5.911 -0.7419  2.6699  1.7764
   89SAPE  H10Y 8698   1.917   4.499   6.020 -0.3739 -0.7007 -0.6536
   89SAPE  C311 8699   2.096   4.400   5.947 -0.1057 -0.1892 -0.0888
   89SAPE  H11X 8700   2.086   4.322   6.026  0.7994 -0.7338 -0.4958
   89SAPE  H11Y 8701   2.204   4.419   5.932  0.6288 -3.2015  0.6442
   89SAPE  C312 8702   2.034   4.342   5.821  0.4584  0.0667 -0.0482
   89SAPE  H12X 8703   1.929   4.379   5.829  0.6396  0.9611 -1.4371
   89SAPE  H12Y 8704   2.045   4.232   5.818 -1.8017 -0.2943  1.8668
   89SAPE  C313 8705   2.099   4.409   5.697  1.0957  0.2891 -0.4325
   89SAPE  H13X 8706   2.210   4.407   5.702  1.0514 -0.5093  0.7619
   89SAPE  H13Y 8707   2.064   4.514   5.710 -1.6862 -0.8154  1.9302
   89SAPE  C314 8708   2.050   4.336   5.568  0.0715  0.0748 -0.7149
   89SAPE  H14X 8709   1.946   4.365   5.545  0.9412  3.0523 -1.4076
   89SAPE  H14Y 8710   2.041   4.227   5.589 -2.5271  0.3598 -0.0752
   89SAPE  C315 8711   2.140   4.369   5.447 -0.9840  0.9981  0.2568
   89SAPE  H15X 8712   2.248   4.350   5.464 -0.2390  2.5909 -2.1487
   89SAPE  H15Y 8713   2.136   4.477   5.421  0.3633  0.1917 -4.0988
   89SAPE  C316 8714   2.100   4.284   5.323  0.0747 -0.0781  0.0985
   89SAPE  H16X 8715   1.996   4.301   5.290  0.0340  0.8952  0.7200
   89SAPE  H16Y 8716   2.110   4.176   5.349 -2.9353 -0.4858 -0.0610
   89SAPE  C317 8717   2.184   4.317   5.200  0.0411 -0.0752 -0.2314
   89SAPE  H17X 8718   2.289   4.289   5.222 -0.4571 -1.3415  0.6525
   89SAPE  H17Y 8719   2.187   4.427   5.184  0.7014 -0.1040 -0.3454
   89SAPE  C318 8720   2.142   4.251   5.069  0.5553 -0.4431  0.3739
   89SAPE  H18X 8721   2.147   4.140   5.071  2.4960 -0.4656 -1.9953
   89SAPE  H18Y 8722   2.214   4.282   4.991  0.3705 -0.3655  0.2322
   89SAPE  H18Z 8723   2.039   4.283   5.042  1.2478  2.8413  1.1693
   90SAPE     N 8724   6.857   2.509   7.167  1.0381 -0.1879 -0.4347
   90SAPE   HN1 8725   6.822   2.588   7.110 -3.1071 -1.8870 -0.6296
   90SAPE   HN2 8726   6.778   2.452   7.204  0.9467 -1.7481 -2.8113
   90SAPE   HN3 8727   6.914   2.543   7.247  0.4581  0.6486 -0.3696
   90SAPE   C12 8728   6.941   2.422   7.083  0.0686 -0.1497  0.4909
   90SAPE  H12A 8729   6.973   2.333   7.142  0.5329  0.1364  0.6764
   90SAPE  H12B 8730   7.037   2.469   7.054  0.5216 -1.3965 -0.1019
   90SAPE   C11 8731   6.860   2.373   6.963  0.4938 -0.0138 -0.1371
   90SAPE  H11A 8732   6.901   2.294   6.896  0.0427 -2.7955  2.6323
   90SAPE  H11B 8733   6.835   2.459   6.896 -0.7089 -0.3940 -0.1954
   90SAPE     P 8734   6.671   2.190   6.961  0.4907  0.1476 -0.3973
   90SAPE   O13 8735   6.780   2.092   6.952 -0.1582  0.3172 -0.3113
   90SAPE   O14 8736   6.563   2.170   7.056 -0.0601  0.8447  0.0454
   90SAPE   O12 8737   6.729   2.332   6.996  0.0517  0.1575  0.0652
   90SAPE   O11 8738   6.611   2.223   6.820 -0.6098  1.0463 -0.3816
   90SAPE    C1 8739   6.535   2.341   6.795  0.0688 -0.2244  0.9010
   90SAPE    HA 8740   6.570   2.429   6.854 -1.7067 -0.3681  2.2711
   90SAPE    HB 8741   6.558   2.365   6.689  2.2294  1.2355  1.6209
   90SAPE    C2 8742   6.382   2.308   6.801 -0.1783  0.4494 -0.0862
   90SAPE    HS 8743   6.366   2.312   6.911  1.8782  0.8441  0.2513
   90SAPE   O21 8744   6.367   2.170   6.751 -0.3316 -0.7174  0.2720
   90SAPE   C21 8745   6.260   2.109   6.781  0.8961  0.5814 -0.2081
   90SAPE   O22 8746   6.169   2.160   6.850  0.1749 -0.0158 -0.4162
   90SAPE   C22 8747   6.245   1.975   6.714 -1.0401 -0.2224  0.4495
   90SAPE   H2R 8748   6.269   1.984   6.605  0.6685 -0.7732  0.7476
   90SAPE   H2S 8749   6.333   1.916   6.748 -1.0388 -0.8852 -0.6535
   90SAPE    C3 8750   6.300   2.412   6.713  0.4305  0.2113 -0.5995
   90SAPE    HX 8751   6.319   2.516   6.748 -2.2296  0.7730 -0.5813
   90SAPE    HY 8752   6.196   2.396   6.751  1.2385 -1.6934  0.9952
   90SAPE   O31 8753   6.326   2.408   6.568  0.1532 -0.3302  0.3057
   90SAPE   C31 8754   6.228   2.355   6.496  0.1970 -0.3125  0.3081
   90SAPE   O32 8755   6.124   2.308   6.535  0.3537  0.4303 -0.0926
   90SAPE   C32 8756   6.271   2.356   6.346 -0.6394 -0.4038  0.2282
   90SAPE   H2X 8757   6.380   2.379   6.345 -0.5353 -0.8367  0.9446
   90SAPE   H2Y 8758   6.203   2.429   6.298 -3.1327 -2.2520  0.7582
   90SAPE   C23 8759   6.118   1.896   6.738  0.3370  0.1244  0.3079
   90SAPE   H3R 8760   6.088   1.905   6.845 -2.9632 -0.7657 -0.4391
   90SAPE   H3S 8761   6.143   1.792   6.707  2.1470  0.4740  0.4533
   90SAPE   C24 8762   5.995   1.935   6.658  0.2851 -0.5022 -0.9765
   90SAPE   H4R 8763   5.967   2.036   6.695  0.3012 -0.7605 -0.2402
   90SAPE   H4S 8764   5.912   1.864   6.678  0.6457 -1.1405 -1.6860
   90SAPE   C25 8765   6.029   1.971   6.522  0.1371 -0.1806  0.3907
   90SAPE   H5R 8766   6.033   2.080   6.505 -0.6591 -0.3397 -0.8846
   90SAPE   C26 8767   6.043   1.894   6.416  0.1703 -0.4535 -0.1998
   90SAPE   H6R 8768   6.053   1.933   6.314  2.0713 -0.1629  0.0694
   90SAPE   C27 8769   6.035   1.740   6.425 -1.0781  0.2233 -0.0951
   90SAPE   H7R 8770   5.951   1.720   6.355 -0.6990 -0.6544 -0.3086
   90SAPE   H7S 8771   5.996   1.703   6.522 -1.1909  0.1806 -0.1566
   90SAPE   C28 8772   6.166   1.666   6.398  0.2394  0.0327 -0.0022
   90SAPE   H8R 8773   6.242   1.666   6.478 -0.5803 -2.0227  0.8432
   90SAPE   C29 8774   6.211   1.625   6.280 -0.3712 -0.7360 -0.1235
   90SAPE   H9R 8775   6.305   1.568   6.288 -0.4478 -0.8127  0.2395
   90SAPE  C210 8776   6.135   1.620   6.152 -0.0611  0.2372 -0.3324
   90SAPE  H10R 8777   6.118   1.727   6.124  0.1529  1.3138  3.1469
   90SAPE  H10S 8778   6.034   1.575   6.166  1.0224 -2.2990 -0.2086
   90SAPE  C211 8779   6.203   1.542   6.044 -0.2906  0.4457 -0.2744
   90SAPE  H11R 8780   6.265   1.459   6.082 -1.6997 -1.0308 -1.0644
   90SAPE  C212 8781   6.181   1.562   5.908  0.1680 -0.1494 -0.7477
   90SAPE  H12R 8782   6.237   1.501   5.836  1.9038  0.4209  0.0583
   90SAPE  C213 8783   6.094   1.670   5.839  0.0702 -0.4942  0.2906
   90SAPE  H13R 8784   6.150   1.734   5.768  0.0960  0.1924  0.9148
   90SAPE  H13S 8785   6.057   1.744   5.914 -0.0968  0.1888 -0.4519
   90SAPE  C214 8786   5.978   1.609   5.770 -0.6559 -0.2419 -0.0800
   90SAPE  H14R 8787   6.008   1.524   5.707  0.6241  1.2779 -1.6217
   90SAPE  C215 8788   5.849   1.642   5.781 -0.7860  0.0203  0.1449
   90SAPE  H15R 8789   5.784   1.579   5.719  2.4163 -1.4952 -1.9516
   90SAPE  C216 8790   5.787   1.755   5.865 -0.3942 -0.0378 -0.6225
   90SAPE  H16R 8791   5.835   1.757   5.965  1.3202 -0.6064 -1.3931
   90SAPE  H16S 8792   5.678   1.742   5.881 -0.6475  1.7515 -0.6817
   90SAPE  C217 8793   5.810   1.885   5.793  0.5424  0.2913 -0.0460
   90SAPE  H17R 8794   5.920   1.895   5.777  1.3092  0.3673  4.1425
   90SAPE  H17S 8795   5.774   1.959   5.868 -0.7029 -0.3134 -0.0303
   90SAPE  C218 8796   5.717   1.909   5.679 -0.1227 -0.4378  0.7482
   90SAPE  H18R 8797   5.615   1.894   5.720 -0.2935 -1.9398 -0.1490
   90SAPE  H18S 8798   5.727   1.830   5.602 -0.1875 -2.0597  2.3369
   90SAPE  C219 8799   5.728   2.043   5.605 -0.4434 -0.1026  0.8319
   90SAPE  H19R 8800   5.833   2.063   5.576 -0.3362  0.2138  1.4214
   90SAPE  H19S 8801   5.698   2.123   5.676 -0.5256  0.8492 -0.2638
   90SAPE  C220 8802   5.635   2.061   5.485 -0.2239  0.0720  0.2601
   90SAPE  H20R 8803   5.687   2.046   5.388  0.7342 -0.5979  0.8640
   90SAPE  H20S 8804   5.601   2.167   5.475  0.5576  0.2026 -1.3272
   90SAPE  H20T 8805   5.546   1.995   5.487 -0.9185  0.9537 -0.2261
   90SAPE   C33 8806   6.267   2.219   6.273  0.8396  0.3611  0.3096
   90SAPE   H3X 8807   6.163   2.181   6.285  1.1889 -0.1100  2.1191
   90SAPE   H3Y 8808   6.336   2.148   6.323 -2.8853 -3.0222  1.1591
   90SAPE   C34 8809   6.307   2.230   6.126 -0.2131  0.8580  0.3764
   90SAPE   H4X 8810   6.416   2.234   6.106  0.2617 -2.4065  1.6763
   90SAPE   H4Y 8811   6.255   2.318   6.085 -0.1065  0.2078 -1.2176
   90SAPE   C35 8812   6.248   2.108   6.048  0.1029  0.6616 -0.4177
   90SAPE   H5X 8813   6.139   2.106   6.068 -0.0263 -2.4205 -0.9635
   90SAPE   H5Y 8814   6.299   2.012   6.073  2.2083  1.2062 -2.2809
   90SAPE   C36 8815   6.240   2.140   5.902 -0.3978  0.1914  0.7796
   90SAPE   H6X 8816   6.339   2.115   5.858 -0.6455  2.9154 -1.6132
   90SAPE   H6Y 8817   6.221   2.250   5.894  0.4738  0.3062  0.2169
   90SAPE   C37 8818   6.133   2.060   5.823  0.5611  0.1504  0.7578
   90SAPE   H7X 8819   6.029   2.078   5.859 -0.0453  1.5765 -1.5087
   90SAPE   H7Y 8820   6.154   1.951   5.831  2.0841  0.3920  0.3624
   90SAPE   C38 8821   6.127   2.112   5.673  0.1327 -0.3231 -0.7389
   90SAPE   H8X 8822   6.048   2.058   5.616 -0.7461 -0.1752  0.2956
   90SAPE   H8Y 8823   6.220   2.072   5.628  0.9236 -0.9158  1.3168
   90SAPE   C39 8824   6.100   2.264   5.644 -0.4846  0.7653 -0.0504
   90SAPE   H9X 8825   6.160   2.329   5.711 -1.8383  0.8606  1.0957
   90SAPE   H9Y 8826   5.991   2.272   5.662 -0.4027  1.3251  0.2107
   90SAPE  C310 8827   6.119   2.317   5.500 -0.6059  0.6791 -0.0510
   90SAPE  H10X 8828   6.221   2.359   5.483  0.9530 -2.9754 -0.8267
   90SAPE  H10Y 8829   6.047   2.401   5.492 -1.3132  0.1498  0.5999
   90SAPE  C311 8830   6.075   2.212   5.402  0.0318  0.1450  0.1170
   90SAPE  H11X 8831   5.965   2.200   5.408 -0.2680  2.0841 -0.7883
   90SAPE  H11Y 8832   6.114   2.111   5.425 -2.5397 -1.2611 -1.2769
   90SAPE  C312 8833   6.101   2.248   5.253  0.3135  0.9337  0.0476
   90SAPE  H12X 8834   6.211   2.260   5.252  0.4483 -0.1363  0.2480
   90SAPE  H12Y 8835   6.050   2.341   5.220 -1.7222  0.0065  0.4274
   90SAPE  C313 8836   6.075   2.131   5.167  0.1651  0.6876  0.8655
   90SAPE  H13X 8837   5.969   2.103   5.153  0.2080  1.2401 -0.8943
   90SAPE  H13Y 8838   6.129   2.052   5.223  1.5636  2.4996  2.1892
   90SAPE  C314 8839   6.147   2.162   5.031 -0.3612 -0.0419  0.5708
   90SAPE  H14X 8840   6.250   2.193   5.057 -0.0951 -1.4617  1.3177
   90SAPE  H14Y 8841   6.092   2.234   4.967 -3.6913 -3.1693 -0.4901
   90SAPE  C315 8842   6.156   2.032   4.948 -0.0016  0.4291 -0.4444
   90SAPE  H15X 8843   6.210   2.059   4.855 -1.1785  2.6581 -0.5519
   90SAPE  H15Y 8844   6.057   1.996   4.912 -0.8075  2.0503  0.0437
   90SAPE  C316 8845   6.239   1.922   5.013  0.4255  0.2096  0.5154
   90SAPE  H16X 8846   6.192   1.883   5.106  0.6488  0.6886  0.8346
   90SAPE  H16Y 8847   6.336   1.970   5.036  0.8152  0.4668 -1.4939
   90SAPE  C317 8848   6.265   1.806   4.914 -0.0112 -0.5836  0.0762
   90SAPE  H17X 8849   6.309   1.837   4.817  1.4278 -2.2275  0.1572
   90SAPE  H17Y 8850   6.167   1.758   4.894 -0.7538  1.3396 -1.2304
   90SAPE  C318 8851   6.363   1.702   4.965 -0.5976  0.0926 -0.4039
   90SAPE  H18X 8852   6.370   1.694   5.075  0.8766  2.0405 -0.2939
   90SAPE  H18Y 8853   6.467   1.717   4.926 -0.5649 -1.1436 -0.8316
   90SAPE  H18Z 8854   6.344   1.599   4.927  2.4985 -0.4006 -0.9400
   91SAPE     N 8855   5.359   5.977   7.319 -0.6157  0.1774  0.3152
   91SAPE   HN1 8856   5.435   5.969   7.389  0.0858  1.9945 -0.1842
   91SAPE   HN2 8857   5.330   6.075   7.302  1.2819  0.5816 -0.9593
   91SAPE   HN3 8858   5.283   5.927   7.368 -1.4165 -0.9293 -1.8997
   91SAPE   C12 8859   5.399   5.896   7.197  0.7298 -0.0731 -0.2796
   91SAPE  H12A 8860   5.376   5.961   7.110  0.9306  2.5107  1.4712
   91SAPE  H12B 8861   5.346   5.799   7.202 -0.4120  0.5812  2.5781
   91SAPE   C11 8862   5.549   5.876   7.192  0.3169 -0.4062  0.4157
   91SAPE  H11A 8863   5.572   5.799   7.115 -0.2606  1.0673 -1.2992
   91SAPE  H11B 8864   5.587   5.840   7.290 -0.1443 -1.1329  0.3342
   91SAPE     P 8865   5.679   6.041   7.025 -0.0439  0.0510 -0.3427
   91SAPE   O13 8866   5.632   6.178   7.006 -0.0334  0.0205  0.4223
   91SAPE   O14 8867   5.827   6.029   7.027 -0.2503  0.0723  0.3546
   91SAPE   O12 8868   5.619   5.999   7.169  0.1702 -0.1886 -0.2396
   91SAPE   O11 8869   5.623   5.944   6.916  0.7695 -0.4854  0.2179
   91SAPE    C1 8870   5.497   5.970   6.852  0.0497  0.7440  0.0905
   91SAPE    HA 8871   5.433   5.879   6.855  2.2258 -0.8469  0.3271
   91SAPE    HB 8872   5.442   6.059   6.890  2.2095  1.7096  1.1277
   91SAPE    C2 8873   5.521   5.998   6.699 -0.1260 -0.1908  0.2587
   91SAPE    HS 8874   5.548   6.104   6.684  0.2815 -0.2970  0.2255
   91SAPE   O21 8875   5.391   5.987   6.638  0.3041  0.1737 -0.3740
   91SAPE   C21 8876   5.379   6.045   6.520  0.2521 -0.9624 -0.2943
   91SAPE   O22 8877   5.456   6.126   6.469  0.2625  0.0070 -0.1150
   91SAPE   C22 8878   5.246   6.001   6.447 -0.3366 -0.0350  0.3841
   91SAPE   H2R 8879   5.221   5.900   6.487 -2.5723 -0.7272 -2.4040
   91SAPE   H2S 8880   5.154   6.055   6.478  0.3429  1.2887  0.1682
   91SAPE    C3 8881   5.625   5.899   6.634  0.1191  0.2618  0.4300
   91SAPE    HX 8882   5.576   5.800   6.638 -0.6023  0.5946 -0.0046
   91SAPE    HY 8883   5.715   5.891   6.700  0.7408 -0.9531 -0.5205
   91SAPE   O31 8884   5.667   5.939   6.496  0.5156  0.1398  0.2085
   91SAPE   C31 8885   5.745   6.045   6.480  0.0353  0.3441 -0.5181
   91SAPE   O32 8886   5.795   6.106   6.571 -0.5337 -0.1522  0.0928
   91SAPE   C32 8887   5.769   6.067   6.331 -0.4808 -0.5612 -0.0530
   91SAPE   H2X 8888   5.791   5.970   6.280  0.1214 -0.4160 -0.0784
   91SAPE   H2Y 8889   5.859   6.129   6.311  0.6784 -2.0950  0.1871
   91SAPE   C23 8890   5.263   5.994   6.300 -0.1628  0.4815  0.7268
   91SAPE   H3R 8891   5.294   6.088   6.249 -1.1848 -1.0532 -3.1198
   91SAPE   H3S 8892   5.170   5.961   6.248  1.5694  0.1422 -2.4482
   91SAPE   C24 8893   5.368   5.885   6.260  0.0119  0.6153 -0.2573
   91SAPE   H4R 8894   5.458   5.895   6.324  0.4361 -1.9084 -0.3452
   91SAPE   H4S 8895   5.416   5.912   6.164  3.2389  3.4180  1.9478
   91SAPE   C25 8896   5.312   5.750   6.281 -0.2527  0.7548  0.2138
   91SAPE   H5R 8897   5.303   5.707   6.382  2.1241  0.1047  0.2263
   91SAPE   C26 8898   5.271   5.664   6.186  0.2652 -0.2110 -0.4901
   91SAPE   H6R 8899   5.227   5.570   6.220 -0.5820  1.1814  2.5839
   91SAPE   C27 8900   5.273   5.684   6.039  0.3195 -0.5820  0.3868
   91SAPE   H7R 8901   5.367   5.641   5.997  0.5455 -0.9330  1.2446
   91SAPE   H7S 8902   5.291   5.792   6.021 -0.5827 -0.3018  1.1449
   91SAPE   C28 8903   5.148   5.641   5.959 -0.1938  0.1396 -0.3647
   91SAPE   H8R 8904   5.065   5.711   5.975  1.1372  1.6931 -0.0136
   91SAPE   C29 8905   5.150   5.543   5.867  0.2884  0.0719  0.7956
   91SAPE   H9R 8906   5.053   5.516   5.823  1.0054  0.4848 -1.1419
   91SAPE  C210 8907   5.273   5.464   5.822 -0.3067 -0.6289  0.2990
   91SAPE  H10R 8908   5.323   5.413   5.907 -0.9962  0.6993  1.5280
   91SAPE  H10S 8909   5.351   5.531   5.780  1.0119 -2.1762  0.1894
   91SAPE  C211 8910   5.244   5.367   5.713 -0.1778 -0.6883 -0.4353
   91SAPE  H11R 8911   5.252   5.264   5.750 -0.2954 -0.0122  1.5944
   91SAPE  C212 8912   5.198   5.392   5.586  0.1564 -0.1753  0.8550
   91SAPE  H12R 8913   5.171   5.301   5.531 -0.0171  0.1166  0.4525
   91SAPE  C213 8914   5.184   5.527   5.517 -0.7346 -0.3856  0.6744
   91SAPE  H13R 8915   5.236   5.602   5.581 -2.2753  2.7241 -1.4565
   91SAPE  H13S 8916   5.083   5.573   5.517 -0.4846  0.1741  0.8609
   91SAPE  C214 8917   5.245   5.542   5.381  0.2728  0.0009 -0.5397
   91SAPE  H14R 8918   5.344   5.588   5.373 -0.0820  1.1531  1.2820
   91SAPE  C215 8919   5.176   5.511   5.267 -0.3499  0.3385 -0.0024
   91SAPE  H15R 8920   5.233   5.521   5.174 -0.4191 -1.2536 -0.2368
   91SAPE  C216 8921   5.035   5.463   5.247 -0.6865  0.5033 -1.0300
   91SAPE  H16R 8922   4.991   5.540   5.180  2.1531  0.3070 -3.3353
   91SAPE  H16S 8923   4.994   5.455   5.349  1.6278  1.6042  0.0654
   91SAPE  C217 8924   5.020   5.324   5.171  0.6051 -1.0322 -0.0347
   91SAPE  H17R 8925   5.063   5.244   5.234  0.9267 -1.9117 -1.3188
   91SAPE  H17S 8926   5.097   5.337   5.092  0.7266  1.1637  0.3781
   91SAPE  C218 8927   4.891   5.310   5.092  0.3562 -0.8150 -0.3585
   91SAPE  H18R 8928   4.875   5.395   5.022  2.7398  0.1674  0.1943
   91SAPE  H18S 8929   4.804   5.320   5.160 -1.3365 -0.4922 -2.4702
   91SAPE  C219 8930   4.885   5.177   5.012  0.2289 -0.7327 -0.2767
   91SAPE  H19R 8931   4.898   5.088   5.077 -1.0108  0.2259  1.3473
   91SAPE  H19S 8932   4.964   5.179   4.934 -0.5367  1.7329 -1.0764
   91SAPE  C220 8933   4.743   5.145   4.944 -0.1949 -0.1072 -0.1758
   91SAPE  H20R 8934   4.688   5.091   5.024  1.7733 -1.8890  0.0628
   91SAPE  H20S 8935   4.761   5.085   4.852  1.5186  1.7177 -1.1200
   91SAPE  H20T 8936   4.688   5.236   4.912  1.2135  1.0789  0.6425
   91SAPE   C33 8937   5.656   6.148   6.265 -0.8921  0.1529 -0.3698
   91SAPE   H3X 8938   5.638   6.240   6.324  0.7958  0.3344 -0.0884
   91SAPE   H3Y 8939   5.559   6.094   6.265  0.0788 -1.7215  1.2443
   91SAPE   C34 8940   5.699   6.184   6.125  0.2721 -0.0613  0.4461
   91SAPE   H4X 8941   5.796   6.237   6.135  0.0277  0.5170 -0.1897
   91SAPE   H4Y 8942   5.631   6.260   6.081  0.3238 -0.2022  0.1250
   91SAPE   C35 8943   5.717   6.076   6.024 -0.2245  0.6687  0.2962
   91SAPE   H5X 8944   5.672   6.107   5.927  1.4508  0.4197 -0.6059
   91SAPE   H5Y 8945   5.665   5.986   6.064  0.9608  0.1730  0.7680
   91SAPE   C36 8946   5.867   6.049   6.003  0.0458  0.0117 -0.6644
   91SAPE   H6X 8947   5.908   5.998   6.093  2.9539 -2.3985 -3.1319
   91SAPE   H6Y 8948   5.920   6.145   5.988 -0.6467  0.8779  1.8863
   91SAPE   C37 8949   5.899   5.943   5.893 -0.7076  0.8607  0.8450
   91SAPE   H7X 8950   5.849   5.846   5.909 -1.3618  1.2334  1.1052
   91SAPE   H7Y 8951   6.010   5.944   5.897 -0.6453  2.7397  0.0631
   91SAPE   C38 8952   5.864   5.986   5.746 -0.6469 -0.4423 -0.5683
   91SAPE   H8X 8953   5.754   6.002   5.749 -0.8550 -1.8235 -0.1094
   91SAPE   H8Y 8954   5.880   5.906   5.671  1.7098  0.3474 -1.0000
   91SAPE   C39 8955   5.934   6.118   5.701 -0.1626  0.0563 -0.5186
   91SAPE   H9X 8956   6.039   6.104   5.735 -0.2428  0.2698 -0.1780
   91SAPE   H9Y 8957   5.899   6.196   5.771 -0.9155 -1.4905  0.9182
   91SAPE  C310 8958   5.944   6.159   5.549 -0.3958 -0.3555 -0.4614
   91SAPE  H10X 8959   6.011   6.086   5.498  0.3159 -0.1819  0.1893
   91SAPE  H10Y 8960   5.988   6.260   5.533 -1.4041 -0.2871 -3.2377
   91SAPE  C311 8961   5.804   6.169   5.484 -0.1380 -0.1077  0.6295
   91SAPE  H11X 8962   5.756   6.265   5.512 -1.0403 -0.8078  1.5223
   91SAPE  H11Y 8963   5.742   6.081   5.513 -0.6567  0.2691  0.6713
   91SAPE  C312 8964   5.815   6.162   5.329 -0.9383 -0.1212 -0.6178
   91SAPE  H12X 8965   5.885   6.083   5.295 -0.5417  0.4946 -1.2605
   91SAPE  H12Y 8966   5.868   6.254   5.296  2.0422 -1.0946  1.0660
   91SAPE  C313 8967   5.672   6.157   5.274 -1.0071  0.8021 -0.8233
   91SAPE  H13X 8968   5.621   6.246   5.317 -2.2808 -0.6736  0.8980
   91SAPE  H13Y 8969   5.625   6.068   5.321  1.1219 -0.2671 -0.6415
   91SAPE  C314 8970   5.661   6.155   5.117 -0.1794 -0.6267  0.4296
   91SAPE  H14X 8971   5.685   6.055   5.075  0.5828  0.2249 -1.2249
   91SAPE  H14Y 8972   5.739   6.222   5.076  0.0477 -1.1574 -0.0118
   91SAPE  C315 8973   5.526   6.209   5.063 -0.0076 -0.4498 -0.5318
   91SAPE  H15X 8974   5.512   6.317   5.087  5.8635  0.2553  1.5348
   91SAPE  H15Y 8975   5.446   6.160   5.123 -0.2189 -0.1811 -0.5952
   91SAPE  C316 8976   5.495   6.164   4.917 -0.0213 -0.3562  0.1421
   91SAPE  H16X 8977   5.390   6.131   4.900 -0.1936  0.0979  0.3120
   91SAPE  H16Y 8978   5.549   6.071   4.888 -1.3889 -1.3825  0.7784
   91SAPE  C317 8979   5.525   6.287   4.821  0.6536  0.2836 -0.3050
   91SAPE  H17X 8980   5.631   6.308   4.846  0.9837 -1.1670 -0.4236
   91SAPE  H17Y 8981   5.466   6.377   4.852 -0.2766  0.0604 -1.3624
   91SAPE  C318 8982   5.500   6.247   4.674  0.4306 -0.6809  0.4296
   91SAPE  H18X 8983   5.405   6.191   4.663 -0.2194  0.3632  0.5811
   91SAPE  H18Y 8984   5.580   6.174   4.648  1.1307  0.6777 -1.4623
   91SAPE  H18Z 8985   5.518   6.337   4.612  0.3891 -1.7483 -1.1934
   92SAPE     N 8986   6.028   5.162   7.389 -0.3934 -0.2357  0.6794
   92SAPE   HN1 8987   6.035   5.183   7.491 -2.0531 -0.7363  0.9343
   92SAPE   HN2 8988   6.097   5.204   7.324 -1.3875 -0.8223 -0.8272
   92SAPE   HN3 8989   5.939   5.200   7.350  0.9884  0.8245 -1.6738
   92SAPE   C12 8990   6.052   5.023   7.375  0.2250 -0.2447  0.2225
   92SAPE  H12A 8991   5.959   4.967   7.398 -0.9312  1.6898  0.5111
   92SAPE  H12B 8992   6.140   4.999   7.438 -0.0363  0.6763  0.9552
   92SAPE   C11 8993   6.088   4.981   7.231 -0.3652 -0.2775  0.5930
   92SAPE  H11A 8994   5.996   5.000   7.172 -1.2104 -3.5628  0.6364
   92SAPE  H11B 8995   6.123   4.876   7.242  2.0961  0.4356  0.2330
   92SAPE     P 8996   6.247   5.018   7.027  0.5436 -0.1768 -0.0456
   92SAPE   O13 8997   6.163   5.099   6.935 -0.2906 -0.4295  0.0711
   92SAPE   O14 8998   6.393   5.040   7.016  0.0229  0.1056  0.2509
   92SAPE   O12 8999   6.197   5.052   7.177  0.4840 -0.2868  0.1258
   92SAPE   O11 9000   6.206   4.874   7.004  0.5920  0.3427 -0.3700
   92SAPE    C1 9001   6.292   4.764   6.975 -0.1160  0.6717  0.0496
   92SAPE    HA 9002   6.396   4.775   7.011  0.0373 -1.1319  0.2580
   92SAPE    HB 9003   6.249   4.674   7.025  1.3415 -0.4263 -0.5863
   92SAPE    C2 9004   6.309   4.731   6.818  0.3358 -0.2488 -0.1387
   92SAPE    HS 9005   6.361   4.632   6.819  2.7202  0.9378  1.1216
   92SAPE   O21 9006   6.386   4.835   6.754  0.3188 -0.4139  0.1038
   92SAPE   C21 9007   6.482   4.798   6.679  0.0676 -0.7522  0.0712
   92SAPE   O22 9008   6.522   4.684   6.659  0.2516 -0.1987  0.1451
   92SAPE   C22 9009   6.533   4.922   6.603  0.4050  0.1232 -0.5576
   92SAPE   H2R 9010   6.450   4.954   6.537 -0.2801  0.7540  0.5812
   92SAPE   H2S 9011   6.557   5.005   6.673  3.7941 -0.9995 -0.1777
   92SAPE    C3 9012   6.166   4.724   6.758 -0.0299 -0.2977 -0.2259
   92SAPE    HX 9013   6.110   4.813   6.791  0.5955  0.0469 -0.0884
   92SAPE    HY 9014   6.117   4.635   6.804 -1.2767  0.6352  0.2938
   92SAPE   O31 9015   6.164   4.729   6.616 -0.2043 -0.6242  0.2280
   92SAPE   C31 9016   6.183   4.611   6.550  0.3894  0.0131 -0.5963
   92SAPE   O32 9017   6.177   4.501   6.604  0.4378  0.5168 -0.1138
   92SAPE   C32 9018   6.199   4.629   6.401 -0.0089 -0.2895  0.7502
   92SAPE   H2X 9019   6.102   4.671   6.367 -0.3727  0.6406  2.7342
   92SAPE   H2Y 9020   6.231   4.533   6.357 -0.9956  0.3156 -1.4071
   92SAPE   C23 9021   6.656   4.892   6.511 -0.3713  0.0426  0.3985
   92SAPE   H3R 9022   6.653   4.805   6.443 -0.1556 -0.7280  1.3453
   92SAPE   H3S 9023   6.739   4.870   6.583  0.2971 -0.1726 -0.4273
   92SAPE   C24 9024   6.721   4.998   6.425  0.1222  0.2417  0.6811
   92SAPE   H4R 9025   6.793   4.950   6.355 -2.3910 -0.3205 -1.7043
   92SAPE   H4S 9026   6.773   5.077   6.483  1.2560  1.7670 -2.1847
   92SAPE   C25 9027   6.625   5.071   6.339 -0.4065 -0.4509  0.5714
   92SAPE   H5R 9028   6.543   5.116   6.396  0.0229  1.0338  0.0534
   92SAPE   C26 9029   6.639   5.086   6.201  0.6238 -0.5864 -0.0728
   92SAPE   H6R 9030   6.559   5.141   6.150  0.9907  0.2208  0.2017
   92SAPE   C27 9031   6.747   5.024   6.113  1.8536  0.5435 -0.4366
   92SAPE   H7R 9032   6.701   5.003   6.015  0.1241  0.2459  0.3980
   92SAPE   H7S 9033   6.769   4.923   6.155  1.3985  0.7087  0.2279
   92SAPE   C28 9034   6.864   5.119   6.106 -0.0771  0.2310 -0.4255
   92SAPE   H8R 9035   6.937   5.101   6.186 -1.2277 -2.9123  0.0425
   92SAPE   C29 9036   6.882   5.202   6.004 -0.0567  0.4654 -0.6080
   92SAPE   H9R 9037   6.972   5.264   5.996  1.2044 -1.2952 -0.7187
   92SAPE  C210 9038   6.783   5.226   5.891 -0.3365  0.3226 -0.1283
   92SAPE  H10R 9039   6.748   5.329   5.913 -0.3174  0.1577  0.7216
   92SAPE  H10S 9040   6.697   5.157   5.899  0.7236 -0.8386  2.7176
   92SAPE  C211 9041   6.855   5.214   5.763 -0.2221  0.1558  0.2344
   92SAPE  H11R 9042   6.937   5.141   5.765 -1.9136 -1.8037  0.9316
   92SAPE  C212 9043   6.808   5.256   5.644  0.6007 -0.5872  0.3739
   92SAPE  H12R 9044   6.883   5.248   5.563  0.5890  2.6506 -0.0592
   92SAPE  C213 9045   6.678   5.329   5.614 -0.2495 -0.7154  0.2233
   92SAPE  H13R 9046   6.641   5.372   5.709  2.6761  0.0654  1.1215
   92SAPE  H13S 9047   6.611   5.244   5.586 -0.7312 -0.6301  1.0912
   92SAPE  C214 9048   6.702   5.445   5.516  0.2689  0.1935  0.1660
   92SAPE  H14R 9049   6.755   5.421   5.423 -2.0551  0.8201 -1.4183
   92SAPE  C215 9050   6.665   5.577   5.525 -0.2723  0.0048  0.3320
   92SAPE  H15R 9051   6.682   5.646   5.441  1.3073 -1.1766 -0.3681
   92SAPE  C216 9052   6.580   5.639   5.636  0.0018  0.0191 -0.3940
   92SAPE  H16R 9053   6.636   5.732   5.663  1.0568 -0.4624 -0.8698
   92SAPE  H16S 9054   6.574   5.573   5.725  0.8815  1.6951  0.9785
   92SAPE  C217 9055   6.437   5.682   5.607  0.0235  0.0942  0.0495
   92SAPE  H17R 9056   6.378   5.597   5.568 -0.5997  1.4172 -2.0373
   92SAPE  H17S 9057   6.443   5.750   5.519  2.3206  0.5299  0.4763
   92SAPE  C218 9058   6.377   5.744   5.734 -0.3767 -0.1532  0.6875
   92SAPE  H18R 9059   6.458   5.815   5.762  0.1438 -0.6765  0.5287
   92SAPE  H18S 9060   6.370   5.670   5.816 -0.5017 -0.8703  0.0441
   92SAPE  C219 9061   6.248   5.819   5.700 -0.7481  0.2544  0.0609
   92SAPE  H19R 9062   6.275   5.898   5.627 -2.0375  0.8024  0.1598
   92SAPE  H19S 9063   6.215   5.866   5.794  0.6868  0.3364  0.5515
   92SAPE  C220 9064   6.144   5.723   5.641  0.0375  0.1143  0.1151
   92SAPE  H20R 9065   6.116   5.647   5.716 -2.5478  0.7423 -0.1063
   92SAPE  H20S 9066   6.177   5.665   5.552 -3.7079 -1.7146 -0.2648
   92SAPE  H20T 9067   6.050   5.775   5.612 -0.1184 -0.0570  0.3118
   92SAPE   C33 9068   6.315   4.733   6.353 -0.3740  1.0160  0.4967
   92SAPE   H3X 9069   6.411   4.691   6.392 -1.6911 -0.4709  2.3169
   92SAPE   H3Y 9070   6.284   4.835   6.385  0.1677  1.8086 -1.3425
   92SAPE   C34 9071   6.311   4.730   6.199 -0.8705  0.1069  0.4392
   92SAPE   H4X 9072   6.338   4.832   6.165 -1.6844  0.6582  1.4007
   92SAPE   H4Y 9073   6.211   4.707   6.157 -1.1121 -0.7826  1.4614
   92SAPE   C35 9074   6.419   4.632   6.119 -0.6723 -0.4454 -0.2788
   92SAPE   H5X 9075   6.379   4.622   6.016 -0.9447  0.2059 -0.2387
   92SAPE   H5Y 9076   6.418   4.529   6.161 -1.3616 -0.4308 -0.2371
   92SAPE   C36 9077   6.563   4.696   6.135  0.2411  0.0878 -0.0687
   92SAPE   H6X 9078   6.569   4.683   6.245  0.7870 -1.6337 -0.2703
   92SAPE   H6Y 9079   6.557   4.803   6.109 -2.1055  0.1237  0.4889
   92SAPE   C37 9080   6.684   4.636   6.056 -0.2084 -0.2625  0.0484
   92SAPE   H7X 9081   6.686   4.526   6.073  0.3500 -0.1752  0.5843
   92SAPE   H7Y 9082   6.781   4.667   6.101  0.5032  1.6809 -2.6146
   92SAPE   C38 9083   6.680   4.668   5.909  0.4582 -0.2673 -0.5634
   92SAPE   H8X 9084   6.710   4.772   5.888 -0.9021  0.3620  0.4604
   92SAPE   H8Y 9085   6.576   4.651   5.874 -0.0017  0.3180  0.4571
   92SAPE   C39 9086   6.774   4.571   5.834  0.3253  0.0852 -0.1918
   92SAPE   H9X 9087   6.747   4.464   5.825 -1.7438  0.3513  1.9595
   92SAPE   H9Y 9088   6.875   4.575   5.881 -0.2778  2.0215  1.0487
   92SAPE  C310 9089   6.806   4.635   5.696  0.3375  0.5708 -0.3541
   92SAPE  H10X 9090   6.830   4.741   5.721 -2.8832  1.2783  0.2643
   92SAPE  H10Y 9091   6.722   4.636   5.623 -0.4230 -1.2386  0.4473
   92SAPE  C311 9092   6.923   4.560   5.629  0.8518  0.3917  0.1915
   92SAPE  H11X 9093   6.897   4.457   5.595 -1.0645  1.1612 -0.8184
   92SAPE  H11Y 9094   7.002   4.551   5.707  1.0399 -1.9219 -0.1775
   92SAPE  C312 9095   6.991   4.643   5.518 -0.1564 -0.3583  0.6770
   92SAPE  H12X 9096   7.084   4.589   5.488  2.1535  1.8340  3.2901
   92SAPE  H12Y 9097   7.019   4.745   5.553 -1.8600  0.4652 -0.2128
   92SAPE  C313 9098   6.911   4.663   5.390 -0.0768  0.7711  0.2216
   92SAPE  H13X 9099   6.803   4.687   5.399 -0.2209 -0.3607  1.8942
   92SAPE  H13Y 9100   6.915   4.574   5.323 -0.5642  0.7158  0.2627
   92SAPE  C314 9101   6.977   4.774   5.306 -1.2208  0.0964 -0.0201
   92SAPE  H14X 9102   7.001   4.857   5.376  2.8878 -0.9714  0.0719
   92SAPE  H14Y 9103   6.894   4.795   5.235 -1.0589  0.6327 -0.0583
   92SAPE  C315 9104   7.109   4.725   5.240 -0.0610 -0.4599  0.1983
   92SAPE  H15X 9105   7.081   4.638   5.177 -0.6036 -1.2570  1.5011
   92SAPE  H15Y 9106   7.188   4.696   5.312  0.4164  0.0959 -0.0900
   92SAPE  C316 9107   7.166   4.831   5.137  0.3969  0.6964 -0.1644
   92SAPE  H16X 9108   7.210   4.916   5.194 -1.8815 -0.3164  3.4576
   92SAPE  H16Y 9109   7.078   4.870   5.082  0.4125 -0.0162 -0.7100
   92SAPE  C317 9110   7.267   4.769   5.044  0.1389 -0.0026  0.3181
   92SAPE  H17X 9111   7.217   4.677   5.007 -2.1576  0.4251  2.1056
   92SAPE  H17Y 9112   7.363   4.742   5.092 -0.2535  0.1961  1.2207
   92SAPE  C318 9113   7.300   4.858   4.920 -0.1690  0.2515 -0.3740
   92SAPE  H18X 9114   7.240   4.826   4.832 -0.1282 -0.2745 -0.2139
   92SAPE  H18Y 9115   7.408   4.852   4.894 -0.1110  0.4404 -0.1783
   92SAPE  H18Z 9116   7.272   4.965   4.929 -2.0170 -0.2493  0.0755
   93SAPE     N 9117   5.478   4.951   7.532 -0.8226 -0.0368  0.0574
   93SAPE   HN1 9118   5.498   4.865   7.478 -2.6050 -0.2204 -0.3793
   93SAPE   HN2 9119   5.435   5.018   7.465  0.6116 -0.8355 -1.7603
   93SAPE   HN3 9120   5.560   4.996   7.576 -1.9482  0.7031  1.5039
   93SAPE   C12 9121   5.386   4.911   7.637 -0.1844 -0.3285 -0.8675
   93SAPE  H12A 9122   5.324   4.994   7.675  0.4778 -0.1156 -0.2187
   93SAPE  H12B 9123   5.446   4.885   7.727 -1.8127  0.4121  0.4795
   93SAPE   C11 9124   5.294   4.794   7.598  0.6032 -0.0396  0.4735
   93SAPE  H11A 9125   5.246   4.825   7.503 -0.0261  1.0319  1.1190
   93SAPE  H11B 9126   5.217   4.773   7.675  1.8710 -0.2573  1.7165
   93SAPE     P 9127   5.319   4.550   7.534  0.3892 -0.1971 -0.4307
   93SAPE   O13 9128   5.414   4.442   7.554 -0.3372  0.3383 -0.1748
   93SAPE   O14 9129   5.195   4.534   7.615  0.1616  0.7508 -0.6131
   93SAPE   O12 9130   5.382   4.688   7.579 -0.3856 -0.0280  0.4601
   93SAPE   O11 9131   5.284   4.562   7.388 -0.3020 -0.2550  0.3464
   93SAPE    C1 9132   5.372   4.644   7.304  0.4390 -0.1616  0.2711
   93SAPE    HA 9133   5.321   4.740   7.282  1.6707  1.5718  4.0170
   93SAPE    HB 9134   5.470   4.666   7.352  1.1569 -1.0694 -0.7285
   93SAPE    C2 9135   5.397   4.582   7.161 -0.0195  0.8689 -0.6017
   93SAPE    HS 9136   5.475   4.644   7.114  0.7881  1.4604  1.4536
   93SAPE   O21 9137   5.274   4.576   7.093 -0.3447  0.1800  0.7377
   93SAPE   C21 9138   5.224   4.672   7.018  0.2826  0.4100 -0.1818
   93SAPE   O22 9139   5.262   4.789   7.025 -0.1301  0.0303 -0.2676
   93SAPE   C22 9140   5.116   4.614   6.933  0.0194 -0.5504 -0.5538
   93SAPE   H2R 9141   5.139   4.505   6.928  1.7190 -0.3468  1.6213
   93SAPE   H2S 9142   5.029   4.645   6.994  1.3516  0.9495  0.6599
   93SAPE    C3 9143   5.460   4.437   7.173  0.3464 -0.3735 -0.0583
   93SAPE    HX 9144   5.388   4.372   7.227  0.7139  0.7428  1.8387
   93SAPE    HY 9145   5.545   4.441   7.244 -0.3149  0.7865  0.7137
   93SAPE   O31 9146   5.505   4.378   7.048  0.4592 -0.1883  0.4877
   93SAPE   C31 9147   5.427   4.326   6.957  0.0007  0.0316 -0.1096
   93SAPE   O32 9148   5.306   4.323   6.950  0.4277  0.8308  0.2547
   93SAPE   C32 9149   5.529   4.263   6.866 -0.0893  0.4937  0.1592
   93SAPE   H2X 9150   5.574   4.185   6.931 -2.8093 -0.3915  1.1309
   93SAPE   H2Y 9151   5.601   4.346   6.848 -1.0072  1.1779 -0.5152
   93SAPE   C23 9152   5.109   4.686   6.796  0.8418 -0.1689 -0.5589
   93SAPE   H3R 9153   5.107   4.796   6.812 -1.0043 -0.5613  2.7919
   93SAPE   H3S 9154   5.009   4.657   6.756  0.2441 -0.4310  1.0398
   93SAPE   C24 9155   5.217   4.648   6.689 -0.4227  0.3325 -0.1502
   93SAPE   H4R 9156   5.210   4.537   6.689  0.0824  0.2784  1.5619
   93SAPE   H4S 9157   5.322   4.674   6.712 -0.7067 -0.0342  1.6556
   93SAPE   C25 9158   5.177   4.705   6.558 -0.1919 -1.2552 -0.2452
   93SAPE   H5R 9159   5.228   4.796   6.524  1.8837 -2.8547 -1.7113
   93SAPE   C26 9160   5.108   4.643   6.458 -0.0824  0.1176 -0.1705
   93SAPE   H6R 9161   5.076   4.701   6.370 -0.4723  0.9362  0.4945
   93SAPE   C27 9162   5.050   4.502   6.446 -0.9759 -1.1219 -0.2072
   93SAPE   H7R 9163   5.076   4.451   6.541 -1.3763 -1.1488 -0.1119
   93SAPE   H7S 9164   5.104   4.441   6.371 -0.8581  0.2233 -1.2649
   93SAPE   C28 9165   4.907   4.492   6.417 -0.1637 -0.1224 -0.1687
   93SAPE   H8R 9166   4.839   4.480   6.502  1.0843  0.1388  0.9109
   93SAPE   C29 9167   4.859   4.479   6.289 -0.9298  0.5438  0.6573
   93SAPE   H9R 9168   4.750   4.466   6.280 -0.5947 -3.1450  0.7412
   93SAPE  C210 9169   4.942   4.487   6.161  0.1388  0.6735  0.1416
   93SAPE  H10R 9170   5.024   4.561   6.166  0.5905  0.2325 -0.6690
   93SAPE  H10S 9171   4.874   4.514   6.078 -1.7483  0.9423  1.6923
   93SAPE  C211 9172   4.994   4.359   6.098 -0.1912  0.2065 -0.5044
   93SAPE  H11R 9173   4.954   4.268   6.144 -0.8779  1.2822  1.1040
   93SAPE  C212 9174   5.078   4.340   5.993 -0.5322 -0.1937  0.2101
   93SAPE  H12R 9175   5.102   4.242   5.950  1.4272 -0.3763  1.5902
   93SAPE  C213 9176   5.143   4.456   5.916  0.4139  0.7198 -0.4590
   93SAPE  H13R 9177   5.179   4.536   5.984  0.8089  0.7300 -0.6755
   93SAPE  H13S 9178   5.071   4.504   5.846  3.0018  2.3261 -2.1760
   93SAPE  C214 9179   5.266   4.401   5.850 -0.2442  0.2193 -0.6244
   93SAPE  H14R 9180   5.329   4.342   5.918 -1.0260 -2.1183 -1.8084
   93SAPE  C215 9181   5.298   4.404   5.721 -0.3200  0.0489 -0.4061
   93SAPE  H15R 9182   5.401   4.370   5.701 -0.0604  0.5849  0.0008
   93SAPE  C216 9183   5.223   4.474   5.606  0.7310  0.0341  0.2554
   93SAPE  H16R 9184   5.177   4.568   5.644 -0.3472  0.5556 -2.1528
   93SAPE  H16S 9185   5.139   4.409   5.571  1.0875 -0.6668  0.6639
   93SAPE  C217 9186   5.304   4.505   5.485  0.3028  0.2552 -0.3560
   93SAPE  H17R 9187   5.337   4.415   5.429  1.6470  1.7853 -2.1303
   93SAPE  H17S 9188   5.395   4.553   5.527  0.2328 -1.3158  1.7885
   93SAPE  C218 9189   5.235   4.613   5.401  0.3912 -0.3308 -0.4831
   93SAPE  H18R 9190   5.208   4.703   5.460 -1.1269 -0.1291 -1.4513
   93SAPE  H18S 9191   5.146   4.568   5.353  1.8130 -3.2270 -0.6953
   93SAPE  C219 9192   5.334   4.657   5.293 -0.1211  0.1667  0.1553
   93SAPE  H19R 9193   5.375   4.569   5.241 -1.5861  0.2053 -1.1355
   93SAPE  H19S 9194   5.415   4.711   5.347  0.2538  0.1452 -0.3866
   93SAPE  C220 9195   5.277   4.751   5.184 -0.4828 -0.3734  0.1856
   93SAPE  H20R 9196   5.341   4.743   5.093  0.5108 -0.3426  0.8697
   93SAPE  H20S 9197   5.270   4.857   5.217 -1.4273 -0.4150  0.1588
   93SAPE  H20T 9198   5.177   4.719   5.145 -0.4300 -0.2438 -0.0583
   93SAPE   C33 9199   5.469   4.205   6.732 -0.3772 -0.3315 -0.5912
   93SAPE   H3X 9200   5.412   4.114   6.760 -0.0924  0.0433  1.3171
   93SAPE   H3Y 9201   5.559   4.171   6.676 -0.1387  0.5156 -0.7400
   93SAPE   C34 9202   5.383   4.306   6.651 -0.4735  0.2906  0.2245
   93SAPE   H4X 9203   5.404   4.407   6.691 -0.1704  0.4997 -0.4525
   93SAPE   H4Y 9204   5.276   4.288   6.672 -0.1358  1.3774  3.3796
   93SAPE   C35 9205   5.401   4.299   6.501 -0.0848  0.5005 -0.1203
   93SAPE   H5X 9206   5.509   4.293   6.477 -0.4662  0.3084 -1.9103
   93SAPE   H5Y 9207   5.362   4.389   6.449  0.3299 -0.9971 -3.2830
   93SAPE   C36 9208   5.330   4.164   6.452 -0.0071 -0.6236  0.5381
   93SAPE   H6X 9209   5.230   4.154   6.500 -0.7265 -1.3042 -1.0336
   93SAPE   H6Y 9210   5.390   4.076   6.484  1.0504 -0.8852 -1.9082
   93SAPE   C37 9211   5.327   4.170   6.298 -0.4517 -0.0705  0.1313
   93SAPE   H7X 9212   5.309   4.275   6.268 -0.2595 -0.0726  0.0095
   93SAPE   H7Y 9213   5.231   4.128   6.261  0.6602 -0.8536 -2.0474
   93SAPE   C38 9214   5.456   4.112   6.236  0.0896 -0.8098 -0.9480
   93SAPE   H8X 9215   5.455   4.005   6.265 -1.9842 -0.1492  2.0125
   93SAPE   H8Y 9216   5.543   4.165   6.281 -1.1975 -1.7172  3.0703
   93SAPE   C39 9217   5.454   4.123   6.087  0.1797  0.3169  0.3586
   93SAPE   H9X 9218   5.432   4.229   6.061 -0.3189  0.0688 -0.2740
   93SAPE   H9Y 9219   5.370   4.061   6.050  0.7380 -0.0818 -0.2533
   93SAPE  C310 9220   5.585   4.097   6.013 -0.1604 -0.3177 -0.5296
   93SAPE  H10X 9221   5.621   3.994   6.034 -0.7082 -0.3343  0.3791
   93SAPE  H10Y 9222   5.664   4.171   6.038 -0.4830 -0.0668 -0.2469
   93SAPE  C311 9223   5.567   4.119   5.857  0.3527  0.6043 -0.8133
   93SAPE  H11X 9224   5.659   4.105   5.795 -0.0816  1.0354 -1.5678
   93SAPE  H11Y 9225   5.520   4.217   5.835 -0.3647 -0.1545 -3.0357
   93SAPE  C312 9226   5.464   4.017   5.803  0.3177  0.0564  0.9627
   93SAPE  H12X 9227   5.359   4.026   5.837 -0.6973  0.0758 -1.8818
   93SAPE  H12Y 9228   5.503   3.918   5.836 -0.0642  0.0027  1.2554
   93SAPE  C313 9229   5.462   4.030   5.645  0.3260 -0.1315 -0.0287
   93SAPE  H13X 9230   5.535   3.958   5.602 -1.2195 -2.2916  0.7472
   93SAPE  H13Y 9231   5.476   4.135   5.614 -2.1506 -0.0634 -1.1850
   93SAPE  C314 9232   5.315   4.002   5.597 -0.1793 -0.0899 -0.1606
   93SAPE  H14X 9233   5.242   4.068   5.649 -2.0830 -0.8267 -1.7422
   93SAPE  H14Y 9234   5.291   3.899   5.632 -1.9515  0.8242  1.4969
   93SAPE  C315 9235   5.294   4.005   5.445 -0.7220 -0.4538  0.3638
   93SAPE  H15X 9236   5.190   3.970   5.429 -1.7773  2.1313  1.1703
   93SAPE  H15Y 9237   5.372   3.945   5.393  0.5669  0.3978  1.2627
   93SAPE  C316 9238   5.292   4.148   5.384  0.5850  0.1793  0.3368
   93SAPE  H16X 9239   5.388   4.199   5.406  1.5875 -1.6637  0.4069
   93SAPE  H16Y 9240   5.207   4.207   5.427 -0.6202 -1.4136  0.2475
   93SAPE  C317 9241   5.259   4.142   5.233  0.7331 -0.0894  0.0839
   93SAPE  H17X 9242   5.159   4.095   5.235  1.1653 -1.0618 -0.7751
   93SAPE  H17Y 9243   5.338   4.080   5.186  0.2036  0.1886 -1.2264
   93SAPE  C318 9244   5.248   4.282   5.174  0.5610 -0.0175 -0.2919
   93SAPE  H18X 9245   5.188   4.337   5.250  2.2516 -1.3889  2.1592
   93SAPE  H18Y 9246   5.207   4.271   5.071  0.5554  1.8145 -0.5253
   93SAPE  H18Z 9247   5.355   4.309   5.167  1.6450 -3.7803 -0.2192
   94SAPE     N 9248   2.042   5.303   7.543  0.0270  0.0689 -0.4499
   94SAPE   HN1 9249   1.984   5.379   7.502 -1.1098 -0.7247 -0.3641
   94SAPE   HN2 9250   1.992   5.253   7.619 -0.6960 -1.0265 -1.6182
   94SAPE   HN3 9251   2.131   5.349   7.570 -0.8409  1.8145 -0.4676
   94SAPE   C12 9252   2.077   5.206   7.440  0.0057  0.5585 -0.1620
   94SAPE  H12A 9253   1.995   5.195   7.366 -0.5155  0.9525  0.3372
   94SAPE  H12B 9254   2.094   5.109   7.491 -2.5689  0.2585  0.2786
   94SAPE   C11 9255   2.204   5.243   7.370 -0.6981  0.8297 -0.4173
   94SAPE  H11A 9256   2.207   5.348   7.335 -0.5529  0.9938  0.0789
   94SAPE  H11B 9257   2.219   5.177   7.283  2.1763 -0.0142  0.6015
   94SAPE     P 9258   2.393   5.331   7.529  0.2210  0.4797 -0.0721
   94SAPE   O13 9259   2.293   5.432   7.569  0.1855  0.0247 -0.2266
   94SAPE   O14 9260   2.473   5.272   7.638  0.2787 -0.6931  0.1565
   94SAPE   O12 9261   2.314   5.216   7.453 -0.3695  0.0464 -0.0188
   94SAPE   O11 9262   2.501   5.388   7.426 -0.3693  0.1293  0.3763
   94SAPE    C1 9263   2.597   5.294   7.380 -0.4845 -0.7583  0.5113
   94SAPE    HA 9264   2.695   5.309   7.429 -0.2146 -4.1788  1.3116
   94SAPE    HB 9265   2.575   5.188   7.404 -1.0218 -0.3606  1.8788
   94SAPE    C2 9266   2.615   5.312   7.225  0.2975 -0.4032 -1.4086
   94SAPE    HS 9267   2.684   5.234   7.185  1.2859  0.3526 -1.2360
   94SAPE   O21 9268   2.669   5.446   7.207 -0.2002 -0.4278 -0.4947
   94SAPE   C21 9269   2.745   5.451   7.101  0.6669 -0.4686  0.0142
   94SAPE   O22 9270   2.763   5.361   7.024  0.2039  0.0660 -0.1037
   94SAPE   C22 9271   2.806   5.590   7.099 -1.1020 -0.1424 -0.5478
   94SAPE   H2R 9272   2.763   5.663   7.171  0.9553  3.4448 -2.6413
   94SAPE   H2S 9273   2.911   5.568   7.129 -1.4261 -2.8330 -1.1299
   94SAPE    C3 9274   2.474   5.304   7.166 -0.2990 -0.0352  0.7469
   94SAPE    HX 9275   2.409   5.375   7.223  1.7932  2.1112  0.6419
   94SAPE    HY 9276   2.447   5.198   7.182 -1.3356  0.0969 -0.0174
   94SAPE   O31 9277   2.472   5.346   7.028 -0.6293 -0.2806 -0.7426
   94SAPE   C31 9278   2.466   5.259   6.928 -1.0519 -0.0077  0.0937
   94SAPE   O32 9279   2.467   5.138   6.942 -0.9339  0.4577 -0.5039
   94SAPE   C32 9280   2.466   5.336   6.793  0.0602  1.2501  0.0633
   94SAPE   H2X 9281   2.546   5.413   6.794  1.8595 -0.5492  0.6217
   94SAPE   H2Y 9282   2.371   5.393   6.792 -0.5465  0.3948 -3.0757
   94SAPE   C23 9283   2.815   5.659   6.958  0.0859  0.3892 -0.4909
   94SAPE   H3R 9284   2.801   5.576   6.886 -2.2330  0.1536  0.1360
   94SAPE   H3S 9285   2.920   5.691   6.944 -0.3135  2.1105  0.1475
   94SAPE   C24 9286   2.712   5.773   6.926 -0.5409 -0.3524  0.2168
   94SAPE   H4R 9287   2.740   5.810   6.825 -0.4065 -0.5404  0.1864
   94SAPE   H4S 9288   2.715   5.852   7.005  0.1352 -1.7310  1.6104
   94SAPE   C25 9289   2.573   5.721   6.919  0.0169 -0.0767 -0.1596
   94SAPE   H5R 9290   2.540   5.677   7.014 -0.4879 -1.4849 -0.9511
   94SAPE   C26 9291   2.500   5.719   6.808 -0.2083  0.4979 -0.4866
   94SAPE   H6R 9292   2.402   5.670   6.817  1.3106 -2.6192  0.1801
   94SAPE   C27 9293   2.536   5.757   6.664  0.0047  0.2029 -0.0513
   94SAPE   H7R 9294   2.573   5.861   6.667  0.5095  0.0131  2.4686
   94SAPE   H7S 9295   2.445   5.760   6.599  2.1969  1.4516 -3.3318
   94SAPE   C28 9296   2.650   5.675   6.607  0.0856 -0.5276  0.5909
   94SAPE   H8R 9297   2.724   5.640   6.680  2.2542  0.4603 -1.0147
   94SAPE   C29 9298   2.682   5.658   6.476  0.1080 -0.1031 -0.2253
   94SAPE   H9R 9299   2.769   5.592   6.461  1.9685  1.8628  1.1876
   94SAPE  C210 9300   2.602   5.695   6.352 -0.5280  0.0506 -0.2965
   94SAPE  H10R 9301   2.529   5.779   6.367  0.3717  1.0312 -1.2282
   94SAPE  H10S 9302   2.561   5.599   6.316  0.9819 -0.5014 -0.5794
   94SAPE  C211 9303   2.698   5.754   6.254  0.0567 -0.5084 -0.1118
   94SAPE  H11R 9304   2.767   5.824   6.304  1.1521  0.5527 -2.9426
   94SAPE  C212 9305   2.697   5.723   6.119  0.2115 -0.7190 -0.0640
   94SAPE  H12R 9306   2.766   5.777   6.053  0.5655  0.4416  1.2132
   94SAPE  C213 9307   2.597   5.637   6.048  0.7632  0.0806 -0.4160
   94SAPE  H13R 9308   2.621   5.532   6.074  0.6153  0.7165  2.6024
   94SAPE  H13S 9309   2.612   5.659   5.940  1.2555 -0.5268 -0.4773
   94SAPE  C214 9310   2.446   5.644   6.080 -0.0509  0.6406  0.1835
   94SAPE  H14R 9311   2.417   5.687   6.177 -2.2605  6.9791 -2.6826
   94SAPE  C215 9312   2.346   5.638   5.993 -0.3277 -0.5995 -0.0486
   94SAPE  H15R 9313   2.242   5.645   6.029 -0.6396  0.6555 -1.1094
   94SAPE  C216 9314   2.348   5.622   5.849  0.2730  0.2940 -0.4388
   94SAPE  H16R 9315   2.302   5.529   5.810 -2.4307  2.7851 -3.7419
   94SAPE  H16S 9316   2.451   5.601   5.812 -0.8313 -3.7583 -1.6703
   94SAPE  C217 9317   2.301   5.745   5.762 -0.2287 -0.0271 -0.1725
   94SAPE  H17R 9318   2.374   5.824   5.789  2.0735 -1.1550 -2.5776
   94SAPE  H17S 9319   2.195   5.774   5.780 -0.8259 -1.7417 -0.6977
   94SAPE  C218 9320   2.317   5.720   5.614 -0.3361  0.1829 -0.1685
   94SAPE  H18R 9321   2.256   5.632   5.585 -1.4196  1.2400 -1.1624
   94SAPE  H18S 9322   2.418   5.677   5.596 -0.5879 -0.2545 -0.5589
   94SAPE  C219 9323   2.288   5.833   5.522  0.0989  0.2130  0.1904
   94SAPE  H19R 9324   2.332   5.927   5.561  1.3357  0.0357 -0.7256
   94SAPE  H19S 9325   2.180   5.858   5.534 -0.2008 -1.5126  1.4588
   94SAPE  C220 9326   2.319   5.808   5.372  0.3584  0.4692 -0.0338
   94SAPE  H20R 9327   2.239   5.749   5.323  2.4597 -1.7779 -1.0217
   94SAPE  H20S 9328   2.419   5.767   5.346  0.1432 -0.6599  0.8172
   94SAPE  H20T 9329   2.308   5.907   5.323 -2.7733 -0.4215 -1.3267
   94SAPE   C33 9330   2.488   5.248   6.669  0.3958  0.4614  0.3828
   94SAPE   H3X 9331   2.429   5.154   6.672  0.5239  0.3680  0.0628
   94SAPE   H3Y 9332   2.595   5.218   6.673  0.6803  1.4456  0.2963
   94SAPE   C34 9333   2.448   5.312   6.541 -0.0020 -0.1061  0.0366
   94SAPE   H4X 9334   2.514   5.399   6.521 -0.0017  0.0481  0.6708
   94SAPE   H4Y 9335   2.348   5.358   6.554  0.4580  1.2159 -0.9624
   94SAPE   C35 9336   2.450   5.216   6.420 -0.4413 -0.5598  0.0614
   94SAPE   H5X 9337   2.387   5.125   6.430  2.6618 -2.8842  0.0741
   94SAPE   H5Y 9338   2.552   5.177   6.402  0.0381 -0.2153  1.8741
   94SAPE   C36 9339   2.417   5.289   6.286  0.8440 -0.5842  0.2946
   94SAPE   H6X 9340   2.473   5.384   6.281  1.2566 -0.8380 -0.0089
   94SAPE   H6Y 9341   2.312   5.324   6.280  1.1632  0.1728 -2.8899
   94SAPE   C37 9342   2.434   5.198   6.159  0.0543  0.0571  0.1516
   94SAPE   H7X 9343   2.353   5.122   6.167 -1.6971  1.9159  1.0417
   94SAPE   H7Y 9344   2.524   5.135   6.175  2.7835  3.1723 -1.6533
   94SAPE   C38 9345   2.445   5.269   6.020  0.5492 -1.2075  1.0662
   94SAPE   H8X 9346   2.535   5.333   6.027 -0.8536  0.7619  2.1187
   94SAPE   H8Y 9347   2.367   5.347   6.012  1.0133 -0.8492 -0.0777
   94SAPE   C39 9348   2.442   5.176   5.901 -0.4596 -0.7777  0.2459
   94SAPE   H9X 9349   2.346   5.122   5.911  0.2875 -2.8188 -2.4477
   94SAPE   H9Y 9350   2.531   5.109   5.902  1.0572  1.0073 -2.0716
   94SAPE  C310 9351   2.429   5.242   5.765  0.1413  0.1125 -0.6675
   94SAPE  H10X 9352   2.507   5.321   5.754 -0.1686  0.6078  0.5439
   94SAPE  H10Y 9353   2.327   5.286   5.762 -0.0826 -0.4294 -1.2466
   94SAPE  C311 9354   2.438   5.146   5.637 -0.2568 -1.0064 -0.4473
   94SAPE  H11X 9355   2.364   5.063   5.643 -1.2650 -0.0442  0.9750
   94SAPE  H11Y 9356   2.537   5.099   5.660  1.7142  1.8278 -2.5466
   94SAPE  C312 9357   2.439   5.222   5.514 -0.1237  0.1259 -0.4122
   94SAPE  H12X 9358   2.493   5.316   5.536 -2.4331  1.4675 -0.1041
   94SAPE  H12Y 9359   2.342   5.258   5.473 -0.4419 -1.3402 -1.0141
   94SAPE  C313 9360   2.508   5.138   5.398 -0.5179  0.5939  0.2187
   94SAPE  H13X 9361   2.436   5.054   5.386  1.2052 -1.1027  1.1686
   94SAPE  H13Y 9362   2.608   5.101   5.429  0.2931  3.4857  1.3969
   94SAPE  C314 9363   2.503   5.223   5.271 -0.0025 -0.2306 -0.3336
   94SAPE  H14X 9364   2.414   5.288   5.267  1.9555  2.6711  0.3702
   94SAPE  H14Y 9365   2.502   5.152   5.185  1.1729 -1.2413  0.4496
   94SAPE  C315 9366   2.625   5.303   5.258 -0.8633 -0.1744 -0.5741
   94SAPE  H15X 9367   2.722   5.257   5.284 -0.6479 -0.2959 -1.5568
   94SAPE  H15Y 9368   2.621   5.387   5.330  0.0428  0.1594 -0.8953
   94SAPE  C316 9369   2.633   5.373   5.121 -0.4062  0.0986 -0.0209
   94SAPE  H16X 9370   2.540   5.418   5.080  0.2144  1.2643 -0.1852
   94SAPE  H16Y 9371   2.638   5.296   5.041 -0.3572 -0.5842  0.6211
   94SAPE  C317 9372   2.769   5.465   5.093 -0.0230  0.0062 -1.0321
   94SAPE  H17X 9373   2.861   5.405   5.074  0.8004  0.4049  1.3062
   94SAPE  H17Y 9374   2.789   5.508   5.194 -0.0050 -2.0559 -0.0961
   94SAPE  C318 9375   2.753   5.583   4.997 -0.0314  0.1766 -0.2842
   94SAPE  H18X 9376   2.692   5.660   5.050 -0.8024 -0.2696 -0.5104
   94SAPE  H18Y 9377   2.684   5.550   4.916  0.2266 -2.3726  0.4677
   94SAPE  H18Z 9378   2.853   5.616   4.961  1.2696 -2.5139  0.6348
   95SAPE     N 9379   1.535   3.538   7.486 -0.6672  0.5683 -0.6194
   95SAPE   HN1 9380   1.573   3.503   7.395  2.5508  1.8669  0.0700
   95SAPE   HN2 9381   1.469   3.471   7.531 -0.4577  1.4449  1.0912
   95SAPE   HN3 9382   1.478   3.621   7.461 -1.7475 -0.1877 -0.7320
   95SAPE   C12 9383   1.647   3.575   7.580 -0.6816 -0.7850 -0.6805
   95SAPE  H12A 9384   1.690   3.482   7.622 -0.3706 -1.1470 -1.7711
   95SAPE  H12B 9385   1.597   3.639   7.655 -3.1327 -2.3289 -0.8756
   95SAPE   C11 9386   1.757   3.660   7.511  0.1111  0.0635  0.6374
   95SAPE  H11A 9387   1.820   3.592   7.450 -0.3523  0.1413  0.0572
   95SAPE  H11B 9388   1.825   3.704   7.587  0.1116  0.5088  0.3786
   95SAPE     P 9389   1.776   3.830   7.308 -0.2039 -0.2938  0.4046
   95SAPE   O13 9390   1.731   3.966   7.295 -0.1523  0.1604  0.1041
   95SAPE   O14 9391   1.919   3.805   7.329 -0.3734 -0.0113 -0.1997
   95SAPE   O12 9392   1.694   3.757   7.427 -0.3919  0.6342  0.2351
   95SAPE   O11 9393   1.737   3.745   7.182 -0.5410  0.3566 -0.3618
   95SAPE    C1 9394   1.597   3.767   7.148  0.2485 -0.1081  0.1677
   95SAPE    HA 9395   1.516   3.763   7.224 -1.6266 -0.0540 -1.7013
   95SAPE    HB 9396   1.588   3.869   7.103  1.1876 -0.2521 -0.3712
   95SAPE    C2 9397   1.554   3.667   7.046  0.3372  0.4627  0.8218
   95SAPE    HS 9398   1.559   3.566   7.091  0.0660  0.0777  0.0141
   95SAPE   O21 9399   1.635   3.670   6.923 -0.1201  0.0565 -0.1512
   95SAPE   C21 9400   1.646   3.564   6.854 -0.2379 -0.2968  0.3459
   95SAPE   O22 9401   1.612   3.453   6.876 -0.3369  0.4015 -0.5435
   95SAPE   C22 9402   1.725   3.589   6.721  0.2154 -0.1488 -0.0206
   95SAPE   H2R 9403   1.664   3.662   6.663 -0.3929 -0.8083 -0.2215
   95SAPE   H2S 9404   1.816   3.642   6.756 -0.9752  1.7770  0.3032
   95SAPE    C3 9405   1.398   3.690   7.016 -0.7367  0.3991  0.3480
   95SAPE    HX 9406   1.383   3.789   6.967 -0.5659  0.3501  0.1968
   95SAPE    HY 9407   1.339   3.705   7.109  0.3950  1.2101  0.9630
   95SAPE   O31 9408   1.342   3.579   6.937  0.5805  0.4984 -0.5882
   95SAPE   C31 9409   1.321   3.459   6.996 -0.3833 -1.3489  0.2235
   95SAPE   O32 9410   1.343   3.436   7.114 -0.0563 -0.1533 -0.0763
   95SAPE   C32 9411   1.249   3.361   6.901 -0.9264  0.1568  0.0987
   95SAPE   H2X 9412   1.147   3.336   6.937  0.0030 -4.3658  0.2422
   95SAPE   H2Y 9413   1.314   3.271   6.887  1.1801  1.7342 -0.9886
   95SAPE   C23 9414   1.761   3.466   6.636  0.4461 -0.1567 -0.6426
   95SAPE   H3R 9415   1.663   3.414   6.624  0.2399 -0.1882  0.9842
   95SAPE   H3S 9416   1.832   3.399   6.690  0.8447 -0.2792 -1.3126
   95SAPE   C24 9417   1.818   3.514   6.497  0.3127 -0.1924 -0.3774
   95SAPE   H4R 9418   1.911   3.571   6.519 -0.2919  0.4873  0.4512
   95SAPE   H4S 9419   1.745   3.580   6.446  2.1105  0.5667 -2.1293
   95SAPE   C25 9420   1.857   3.395   6.420 -0.2960  0.1137  0.2964
   95SAPE   H5R 9421   1.896   3.319   6.489 -1.9586  1.6895  3.1198
   95SAPE   C26 9422   1.846   3.362   6.294  0.4583  0.1501 -0.4666
   95SAPE   H6R 9423   1.882   3.263   6.262 -1.9744 -1.0099  0.1062
   95SAPE   C27 9424   1.799   3.444   6.176 -0.1612 -0.0612  0.5741
   95SAPE   H7R 9425   1.764   3.545   6.205  0.3261 -0.0254  1.0734
   95SAPE   H7S 9426   1.701   3.393   6.162 -0.2390  0.6215 -1.6055
   95SAPE   C28 9427   1.900   3.443   6.065  0.7728  0.9473  0.1295
   95SAPE   H8R 9428   1.980   3.519   6.067  2.8575 -1.0711 -1.9949
   95SAPE   C29 9429   1.885   3.371   5.954 -0.3160  0.1256  0.4392
   95SAPE   H9R 9430   1.970   3.387   5.887  0.4702 -1.5274  0.9816
   95SAPE  C210 9431   1.786   3.264   5.916 -0.3216 -0.3149  0.4885
   95SAPE  H10R 9432   1.701   3.304   5.858  0.7377  1.3426  0.0150
   95SAPE  H10S 9433   1.742   3.212   6.004 -0.7853 -0.1246  0.3694
   95SAPE  C211 9434   1.859   3.157   5.838 -0.0312 -1.0390 -0.2246
   95SAPE  H11R 9435   1.965   3.140   5.861 -0.3304 -1.7157  0.7567
   95SAPE  C212 9436   1.819   3.073   5.738  0.2776 -0.0946  0.2117
   95SAPE  H12R 9437   1.884   2.994   5.696 -1.5195 -0.7479 -1.4985
   95SAPE  C213 9438   1.679   3.071   5.682  0.6533 -0.9044  0.3346
   95SAPE  H13R 9439   1.631   3.171   5.687 -0.7554 -1.6096  1.8518
   95SAPE  H13S 9440   1.620   3.007   5.751 -0.5451 -1.0432 -0.7730
   95SAPE  C214 9441   1.668   3.012   5.542 -0.4163  0.1924  0.6779
   95SAPE  H14R 9442   1.709   2.910   5.545  1.0107  0.7651  1.9134
   95SAPE  C215 9443   1.615   3.065   5.429 -0.2269  0.8885 -0.0436
   95SAPE  H15R 9444   1.611   3.003   5.338 -0.2344  0.4696  0.2426
   95SAPE  C216 9445   1.552   3.197   5.410  0.0346 -0.3678  0.6033
   95SAPE  H16R 9446   1.568   3.269   5.493 -1.8159  0.0690  0.6246
   95SAPE  H16S 9447   1.443   3.177   5.408  0.2421 -1.6091  1.0511
   95SAPE  C217 9448   1.588   3.263   5.267 -0.0008  0.0121  0.3241
   95SAPE  H17R 9449   1.590   3.181   5.192  0.2662  1.8384 -1.7538
   95SAPE  H17S 9450   1.685   3.315   5.281  0.1901 -0.3183  0.2556
   95SAPE  C218 9451   1.480   3.361   5.232  0.0095  1.0404 -0.6247
   95SAPE  H18R 9452   1.450   3.430   5.313 -2.8966  3.1088 -3.2238
   95SAPE  H18S 9453   1.393   3.295   5.210  0.2907 -0.8965  3.2426
   95SAPE  C219 9454   1.508   3.452   5.114 -0.6978 -0.1643 -0.3358
   95SAPE  H19R 9455   1.406   3.488   5.086 -1.9091 -0.8064  2.7727
   95SAPE  H19S 9456   1.549   3.392   5.030  1.4331 -2.6579  2.2775
   95SAPE  C220 9457   1.604   3.572   5.144  0.0668 -0.1314 -0.0469
   95SAPE  H20R 9458   1.592   3.634   5.236  0.7526  2.7928 -1.8017
   95SAPE  H20S 9459   1.576   3.647   5.067  2.4311  2.3743  1.3658
   95SAPE  H20T 9460   1.710   3.545   5.128 -0.2184 -1.1764 -0.2381
   95SAPE   C33 9461   1.215   3.425   6.760 -0.1077  0.6507 -0.1582
   95SAPE   H3X 9462   1.158   3.519   6.775 -3.5855 -1.7402  3.8196
   95SAPE   H3Y 9463   1.150   3.351   6.707  1.7210 -1.8098  0.8364
   95SAPE   C34 9464   1.328   3.449   6.658  0.6889 -0.4528  0.0424
   95SAPE   H4X 9465   1.372   3.350   6.637  0.3569 -0.8920  1.3545
   95SAPE   H4Y 9466   1.402   3.516   6.706  0.5305  0.6748 -1.2142
   95SAPE   C35 9467   1.286   3.518   6.528  0.0349  0.3293  0.4970
   95SAPE   H5X 9468   1.247   3.616   6.562 -2.6698 -0.1372 -0.9240
   95SAPE   H5Y 9469   1.200   3.477   6.470 -0.4093  0.2336  1.2082
   95SAPE   C36 9470   1.407   3.545   6.439  0.0319  0.2548  1.2922
   95SAPE   H6X 9471   1.451   3.448   6.405 -2.2402 -0.0195 -1.2539
   95SAPE   H6Y 9472   1.475   3.610   6.498  0.0472  0.9653  0.5076
   95SAPE   C37 9473   1.374   3.630   6.311 -0.3374 -0.5000 -0.1663
   95SAPE   H7X 9474   1.333   3.729   6.341 -0.1054 -0.0155 -1.4201
   95SAPE   H7Y 9475   1.294   3.581   6.253  0.0593 -0.3436 -0.8539
   95SAPE   C38 9476   1.491   3.656   6.223 -0.2588  0.1500 -0.0667
   95SAPE   H8X 9477   1.542   3.561   6.197  1.0846  1.1916 -1.5115
   95SAPE   H8Y 9478   1.560   3.735   6.261  0.8442 -0.6711 -0.3280
   95SAPE   C39 9479   1.455   3.720   6.088 -0.4073 -0.8258 -0.2227
   95SAPE   H9X 9480   1.426   3.826   6.103 -1.2465 -1.3253  2.1608
   95SAPE   H9Y 9481   1.372   3.663   6.040 -1.0605  2.5108 -3.4339
   95SAPE  C310 9482   1.572   3.731   5.984 -0.2436  0.6321 -0.2665
   95SAPE  H10X 9483   1.606   3.626   5.972  2.7353  1.1932  2.2733
   95SAPE  H10Y 9484   1.666   3.779   6.018  1.2903 -0.8540 -2.1898
   95SAPE  C311 9485   1.540   3.804   5.856  0.6662  0.0813  0.1016
   95SAPE  H11X 9486   1.632   3.821   5.796  0.6465 -0.1857 -0.0106
   95SAPE  H11Y 9487   1.509   3.909   5.873 -0.5922 -0.5916  2.4082
   95SAPE  C312 9488   1.438   3.732   5.771 -1.2619  0.1198  0.1934
   95SAPE  H12X 9489   1.339   3.754   5.818  0.1393  4.1497  1.7237
   95SAPE  H12Y 9490   1.453   3.622   5.763 -0.9700  0.1731  0.0242
   95SAPE  C313 9491   1.435   3.792   5.632 -0.6044  0.5522 -0.2971
   95SAPE  H13X 9492   1.535   3.766   5.593  1.5814  3.0010  3.0844
   95SAPE  H13Y 9493   1.439   3.902   5.646 -0.1338  0.2982  1.9610
   95SAPE  C314 9494   1.317   3.742   5.548 -0.2437  0.3161  0.4110
   95SAPE  H14X 9495   1.218   3.775   5.589 -0.8181 -2.3601  1.3865
   95SAPE  H14Y 9496   1.311   3.632   5.539 -0.3311  0.2561  1.1136
   95SAPE  C315 9497   1.321   3.806   5.406 -1.0317  0.0796  0.0529
   95SAPE  H15X 9498   1.426   3.785   5.377 -0.6458  1.5176  0.3257
   95SAPE  H15Y 9499   1.306   3.916   5.408 -4.4207 -0.2890  1.3753
   95SAPE  C316 9500   1.228   3.733   5.310 -1.0915  1.2011 -0.6993
   95SAPE  H16X 9501   1.246   3.624   5.318  0.0636  1.4048 -0.3584
   95SAPE  H16Y 9502   1.247   3.764   5.205  1.1535 -1.6347 -1.2383
   95SAPE  C317 9503   1.080   3.766   5.348  0.2929  0.4219 -0.5244
   95SAPE  H17X 9504   1.061   3.875   5.355 -0.9909  0.1676  0.2039
   95SAPE  H17Y 9505   1.066   3.719   5.448 -2.1203  0.9369 -0.5692
   95SAPE  C318 9506   0.966   3.716   5.255  0.1555  0.7944 -0.2920
   95SAPE  H18X 9507   0.971   3.605   5.255 -1.3554  0.6591  1.9192
   95SAPE  H18Y 9508   0.966   3.759   5.152  1.7528  1.4757 -0.0209
   95SAPE  H18Z 9509   0.867   3.729   5.304  0.5266 -0.9284  0.9886
   96SAPE     N 9510   0.824   6.916   7.263  0.0706  0.0146  0.4180
   96SAPE   HN1 9511   0.804   6.819   7.231  1.1369 -0.8642  2.2078
   96SAPE   HN2 9512   0.855   6.923   7.362  0.3048  3.5860  0.2298
   96SAPE   HN3 9513   0.738   6.974   7.265  1.1466  1.7434 -1.0640
   96SAPE   C12 9514   0.926   6.988   7.178 -0.0220 -0.3687  0.4799
   96SAPE  H12A 9515   0.972   7.065   7.243 -0.9902  2.4657 -1.9827
   96SAPE  H12B 9516   0.882   7.030   7.085  2.2070 -1.1023 -0.9966
   96SAPE   C11 9517   1.043   6.897   7.143  0.5096  0.4373  0.0926
   96SAPE  H11A 9518   1.115   6.966   7.093 -0.6929  0.0511 -2.3462
   96SAPE  H11B 9519   1.022   6.820   7.066  1.1590 -0.0650  0.4040
   96SAPE     P 9520   1.227   6.871   7.328  0.2602 -0.3085 -0.0535
   96SAPE   O13 9521   1.195   6.979   7.429 -0.3681 -0.6931 -0.4692
   96SAPE   O14 9522   1.309   6.758   7.379  0.1453  0.3571  0.0140
   96SAPE   O12 9523   1.098   6.829   7.257 -0.2995  0.0774  0.0027
   96SAPE   O11 9524   1.313   6.933   7.214 -0.8149 -0.1234 -0.1509
   96SAPE    C1 9525   1.426   6.873   7.143  0.2083 -0.3096 -0.7394
   96SAPE    HA 9526   1.526   6.902   7.182 -0.7379 -0.4554  2.0221
   96SAPE    HB 9527   1.425   6.762   7.151  1.3895 -0.3942 -1.4775
   96SAPE    C2 9528   1.431   6.913   6.994  0.2885 -0.2404  0.6527
   96SAPE    HS 9529   1.338   6.865   6.957  0.8608 -0.6169 -0.3497
   96SAPE   O21 9530   1.540   6.847   6.938  0.9018 -0.1199 -0.3509
   96SAPE   C21 9531   1.533   6.814   6.810  0.3135 -0.2181 -0.7982
   96SAPE   O22 9532   1.427   6.829   6.743 -0.4135 -0.3598  0.6157
   96SAPE   C22 9533   1.667   6.776   6.742 -0.2635 -0.0813 -0.5163
   96SAPE   H2R 9534   1.730   6.867   6.750  0.2944 -0.4866 -0.2282
   96SAPE   H2S 9535   1.721   6.699   6.800 -0.9904  0.6909  1.2624
   96SAPE    C3 9536   1.436   7.061   6.970  1.0835 -0.2262  0.1494
   96SAPE    HX 9537   1.521   7.106   7.026 -0.5263  4.2728 -0.6287
   96SAPE    HY 9538   1.356   7.120   7.020  3.9321  3.8174  0.4218
   96SAPE   O31 9539   1.442   7.104   6.834  0.3456 -0.0352 -0.1776
   96SAPE   C31 9540   1.322   7.105   6.776  0.1854 -0.8632 -0.1992
   96SAPE   O32 9541   1.217   7.069   6.830 -0.3436  0.3046  0.7415
   96SAPE   C32 9542   1.341   7.155   6.630  0.1468  0.4218 -1.0841
   96SAPE   H2X 9543   1.417   7.096   6.575 -2.1330 -2.8194 -1.1173
   96SAPE   H2Y 9544   1.372   7.261   6.634  0.2597  0.3520  0.3936
   96SAPE   C23 9545   1.656   6.734   6.593  0.7491 -0.3209  0.0000
   96SAPE   H3R 9546   1.624   6.818   6.527  1.6546 -1.1784 -1.5869
   96SAPE   H3S 9547   1.592   6.645   6.577 -1.0337  0.9330 -0.1128
   96SAPE   C24 9548   1.797   6.697   6.530  0.0527  0.2823 -0.5036
   96SAPE   H4R 9549   1.760   6.640   6.442  0.5902 -1.4922  0.3685
   96SAPE   H4S 9550   1.833   6.619   6.601 -2.3685  0.0382  0.5366
   96SAPE   C25 9551   1.899   6.810   6.503 -0.2629  0.8071 -0.0913
   96SAPE   H5R 9552   1.943   6.856   6.593  1.7113 -0.9580 -0.0616
   96SAPE   C26 9553   1.938   6.852   6.380  0.2752 -0.5276  0.3253
   96SAPE   H6R 9554   2.016   6.928   6.368 -1.2861  0.6462 -3.8828
   96SAPE   C27 9555   1.906   6.790   6.246  0.1758  0.5206 -0.2262
   96SAPE   H7R 9556   1.863   6.689   6.259 -0.1607  0.9379  2.8025
   96SAPE   H7S 9557   2.002   6.769   6.194  0.5326 -0.4611  0.7890
   96SAPE   C28 9558   1.806   6.873   6.171  0.4528 -0.5045 -0.5266
   96SAPE   H8R 9559   1.731   6.918   6.237  1.9374 -1.9985  2.3674
   96SAPE   C29 9560   1.805   6.889   6.037 -0.6517 -0.2360  0.7793
   96SAPE   H9R 9561   1.737   6.959   5.986  0.1400 -0.3024 -0.4030
   96SAPE  C210 9562   1.909   6.830   5.944  0.2483  0.4907  0.7354
   96SAPE  H10R 9563   1.967   6.746   5.988  1.1168  0.5526 -0.2501
   96SAPE  H10S 9564   1.986   6.906   5.918  1.0878 -0.6383 -0.1845
   96SAPE  C211 9565   1.850   6.778   5.810  0.1692  0.0846  0.0124
   96SAPE  H11R 9566   1.741   6.781   5.800  0.1137 -1.8498 -0.4146
   96SAPE  C212 9567   1.928   6.718   5.717  0.2689 -0.7085 -0.3542
   96SAPE  H12R 9568   1.889   6.666   5.628 -1.3270 -3.3983  1.7352
   96SAPE  C213 9569   2.078   6.706   5.722  0.4013 -0.4271 -0.2296
   96SAPE  H13R 9570   2.123   6.773   5.799  1.8140  0.7144 -1.9644
   96SAPE  H13S 9571   2.120   6.745   5.627  1.7796  0.4701  0.7014
   96SAPE  C214 9572   2.116   6.566   5.762 -0.1284  0.4483 -0.7360
   96SAPE  H14R 9573   2.116   6.550   5.871 -0.9477  0.9253 -0.6627
   96SAPE  C215 9574   2.166   6.472   5.686  0.2748  0.4485  0.6614
   96SAPE  H15R 9575   2.202   6.381   5.736 -0.2725 -1.4773 -2.1745
   96SAPE  C216 9576   2.199   6.466   5.535 -0.4611 -0.2791 -0.7668
   96SAPE  H16R 9577   2.241   6.562   5.499  0.6924 -0.5250 -0.1276
   96SAPE  H16S 9578   2.107   6.446   5.476  0.8501  0.8420 -3.3369
   96SAPE  C217 9579   2.304   6.363   5.490 -0.3312 -0.8902 -0.7439
   96SAPE  H17R 9580   2.269   6.261   5.514 -1.2198 -0.0251  2.0313
   96SAPE  H17S 9581   2.402   6.386   5.538 -1.2096 -0.0490  0.7051
   96SAPE  C218 9582   2.331   6.388   5.341 -0.0124  0.4445 -0.9053
   96SAPE  H18R 9583   2.440   6.377   5.323  0.1666  0.1719  0.3093
   96SAPE  H18S 9584   2.319   6.494   5.308  1.1470  1.6342  2.1881
   96SAPE  C219 9585   2.263   6.292   5.241 -0.1409  0.0265  0.2685
   96SAPE  H19R 9586   2.157   6.273   5.268  0.2233 -0.7979  1.1931
   96SAPE  H19S 9587   2.315   6.194   5.249  1.2965  0.6287 -1.2051
   96SAPE  C220 9588   2.261   6.346   5.097  0.0187 -1.0446 -0.1396
   96SAPE  H20R 9589   2.244   6.456   5.104  0.2091 -1.0829  1.2928
   96SAPE  H20S 9590   2.185   6.290   5.038 -1.0870 -0.7346  0.9529
   96SAPE  H20T 9591   2.368   6.341   5.068  0.3542 -2.5177  1.2024
   96SAPE   C33 9592   1.209   7.153   6.550 -0.2187 -0.6792 -0.1556
   96SAPE   H3X 9593   1.149   7.242   6.581  2.4771  0.7020  1.4733
   96SAPE   H3Y 9594   1.152   7.058   6.557  2.0302 -1.9697  2.2072
   96SAPE   C34 9595   1.233   7.184   6.404 -0.3261  0.4998  0.2151
   96SAPE   H4X 9596   1.134   7.185   6.354 -0.2013  1.0087 -0.0347
   96SAPE   H4Y 9597   1.286   7.098   6.358 -0.4580  0.5759 -0.0841
   96SAPE   C35 9598   1.311   7.311   6.374  0.0460 -0.6400 -0.3303
   96SAPE   H5X 9599   1.409   7.309   6.425 -0.2684 -1.2831  0.2631
   96SAPE   H5Y 9600   1.269   7.405   6.416  2.0412 -0.5459  1.6274
   96SAPE   C36 9601   1.337   7.315   6.227 -0.0098  0.2538  0.5982
   96SAPE   H6X 9602   1.387   7.221   6.195 -2.6452 -0.9417 -0.3736
   96SAPE   H6Y 9603   1.401   7.404   6.208  0.2641  0.3219  1.7953
   96SAPE   C37 9604   1.215   7.318   6.137  0.1928  0.5103  0.0336
   96SAPE   H7X 9605   1.159   7.409   6.168  1.0605  1.0851 -0.0520
   96SAPE   H7Y 9606   1.165   7.220   6.153 -0.2543  0.5093 -1.2632
   96SAPE   C38 9607   1.262   7.340   5.988 -0.7199 -0.2137  0.8758
   96SAPE   H8X 9608   1.371   7.318   5.982 -1.0455 -2.2320  1.5876
   96SAPE   H8Y 9609   1.241   7.449   5.979 -3.3345 -0.6493  0.9242
   96SAPE   C39 9610   1.174   7.280   5.888  0.1888  0.2332  0.3270
   96SAPE   H9X 9611   1.070   7.298   5.922  0.6835 -0.1186  2.1706
   96SAPE   H9Y 9612   1.203   7.173   5.884 -0.9365 -0.0484 -1.0016
   96SAPE  C310 9613   1.192   7.341   5.741  0.0560 -0.0803 -0.2187
   96SAPE  H10X 9614   1.289   7.306   5.699  0.4305  0.7802 -0.0826
   96SAPE  H10Y 9615   1.188   7.451   5.752 -2.8584 -0.2072  0.9153
   96SAPE  C311 9616   1.094   7.284   5.640  0.2665  0.0486  0.6494
   96SAPE  H11X 9617   0.995   7.317   5.677 -1.8497 -1.1272 -3.3839
   96SAPE  H11Y 9618   1.097   7.173   5.643 -1.4868 -0.0104  2.2241
   96SAPE  C312 9619   1.121   7.320   5.493  0.6170 -0.3007 -0.4169
   96SAPE  H12X 9620   1.060   7.252   5.430  2.9279 -2.2646 -0.7136
   96SAPE  H12Y 9621   1.229   7.320   5.464  1.4890  1.2870  2.3743
   96SAPE  C313 9622   1.071   7.467   5.460 -0.1163  0.1049  0.0150
   96SAPE  H13X 9623   1.072   7.528   5.553 -0.7482  0.4925 -0.2267
   96SAPE  H13Y 9624   0.965   7.482   5.429  0.4031  5.1149 -0.1162
   96SAPE  C314 9625   1.162   7.519   5.350 -0.8438  0.3918  0.5204
   96SAPE  H14X 9626   1.170   7.441   5.271  3.7779  0.8955  0.1972
   96SAPE  H14Y 9627   1.260   7.540   5.398 -0.3431 -1.3864  0.3313
   96SAPE  C315 9628   1.105   7.649   5.290 -0.0970  0.0093  0.6310
   96SAPE  H15X 9629   1.082   7.729   5.364 -0.0691  0.4023  0.2161
   96SAPE  H15Y 9630   1.009   7.624   5.242  0.4080 -0.1785 -0.3076
   96SAPE  C316 9631   1.197   7.707   5.186  0.1665 -0.0231  0.2030
   96SAPE  H16X 9632   1.253   7.630   5.130 -0.9484 -0.6534 -0.0685
   96SAPE  H16Y 9633   1.271   7.767   5.242  0.8910  0.1356 -0.8983
   96SAPE  C317 9634   1.119   7.795   5.086 -0.0876 -0.0585 -0.0386
   96SAPE  H17X 9635   1.025   7.750   5.049 -0.1539  1.1929 -1.4960
   96SAPE  H17Y 9636   1.190   7.809   5.002 -0.8797  0.9037 -0.5656
   96SAPE  C318 9637   1.089   7.938   5.141 -0.6611 -0.1901  0.3149
   96SAPE  H18X 9638   1.183   7.984   5.180 -1.0106  0.7186  0.1013
   96SAPE  H18Y 9639   1.021   7.920   5.227 -2.8846  0.5699 -1.1956
   96SAPE  H18Z 9640   1.024   8.001   5.077 -1.1353  0.7630  1.6912
   97SAPE     N 9641   3.072   1.637   7.225 -0.0868 -0.2742 -0.0672
   97SAPE   HN1 9642   3.096   1.625   7.326 -2.6742  0.5490  0.7149
   97SAPE   HN2 9643   3.160   1.606   7.178 -0.3966  0.4772 -1.1641
   97SAPE   HN3 9644   3.062   1.739   7.211 -2.2811  0.1917  3.5331
   97SAPE   C12 9645   2.952   1.562   7.177  0.5779 -0.2797  0.0992
   97SAPE  H12A 9646   2.930   1.582   7.070 -1.3044  2.4507  0.8854
   97SAPE  H12B 9647   2.863   1.597   7.234  0.1499 -1.9835  0.5161
   97SAPE   C11 9648   2.956   1.413   7.206 -0.4394  0.0088  0.4233
   97SAPE  H11A 9649   2.858   1.360   7.212 -0.7069  0.3909 -0.3878
   97SAPE  H11B 9650   3.006   1.392   7.303  0.9599 -0.2406 -0.3278
   97SAPE     P 9651   2.994   1.302   6.958  0.0532 -0.3964 -0.4626
   97SAPE   O13 9652   3.061   1.383   6.861  0.1234 -0.1287  0.0452
   97SAPE   O14 9653   3.013   1.154   6.976 -0.4349 -0.3299 -0.6877
   97SAPE   O12 9654   3.042   1.352   7.102  0.2357 -0.3579 -0.1223
   97SAPE   O11 9655   2.845   1.345   6.970  0.3930  0.0974 -0.4511
   97SAPE    C1 9656   2.780   1.439   6.881 -0.3753 -0.6786 -0.1547
   97SAPE    HA 9657   2.709   1.505   6.936  0.5717  0.8420 -0.6937
   97SAPE    HB 9658   2.852   1.510   6.835  0.7297 -0.7569  1.3632
   97SAPE    C2 9659   2.696   1.366   6.767 -0.3813 -0.0962 -0.4725
   97SAPE    HS 9660   2.627   1.307   6.832 -1.7628  3.0934  1.1748
   97SAPE   O21 9661   2.783   1.283   6.692 -0.4855  0.2915 -0.0455
   97SAPE   C21 9662   2.743   1.207   6.592 -0.2283  0.3305 -0.3000
   97SAPE   O22 9663   2.626   1.177   6.572  0.5742  0.2457  0.3260
   97SAPE   C22 9664   2.859   1.156   6.508  0.0843  0.0817  0.6384
   97SAPE   H2R 9665   2.958   1.195   6.540  0.6206 -0.6480 -0.0871
   97SAPE   H2S 9666   2.848   1.046   6.519  1.0707 -0.0455  0.3586
   97SAPE    C3 9667   2.612   1.468   6.683  0.0856  0.1501  0.3382
   97SAPE    HX 9668   2.536   1.511   6.750 -0.1847 -0.6752  0.5684
   97SAPE    HY 9669   2.545   1.410   6.616  0.9496 -0.5532  0.0477
   97SAPE   O31 9670   2.693   1.563   6.617  0.3036  0.8153  0.0651
   97SAPE   C31 9671   2.655   1.615   6.504 -0.5802 -0.4989  0.0283
   97SAPE   O32 9672   2.563   1.577   6.431 -0.7376  0.0946  0.0445
   97SAPE   C32 9673   2.749   1.736   6.476 -0.7445 -0.3751 -0.1186
   97SAPE   H2X 9674   2.689   1.828   6.493 -3.3738 -1.2585 -3.5158
   97SAPE   H2Y 9675   2.758   1.723   6.366  0.6022 -1.8539  0.1261
   97SAPE   C23 9676   2.845   1.183   6.355 -0.0895 -0.1919  0.5251
   97SAPE   H3R 9677   2.863   1.291   6.338  2.0623 -0.4135  1.1492
   97SAPE   H3S 9678   2.744   1.158   6.316 -0.7474 -0.2118  2.1604
   97SAPE   C24 9679   2.963   1.122   6.276  0.1298 -0.3230 -0.3332
   97SAPE   H4R 9680   3.048   1.158   6.338 -0.4925 -0.6773  0.7603
   97SAPE   H4S 9681   2.966   1.180   6.182  2.2567 -0.8968 -0.6726
   97SAPE   C25 9682   2.978   0.978   6.251  0.1025  0.1700  0.2685
   97SAPE   H5R 9683   3.034   0.915   6.322 -0.0840 -0.3119 -0.0066
   97SAPE   C26 9684   2.940   0.917   6.137  0.6208 -0.0962  0.0378
   97SAPE   H6R 9685   2.944   0.807   6.132 -0.4101 -0.1508  0.1714
   97SAPE   C27 9686   2.865   0.988   6.024  0.3015  0.1989  0.1540
   97SAPE   H7R 9687   2.818   1.082   6.060  0.1650 -0.1483  0.8993
   97SAPE   H7S 9688   2.789   0.922   5.977  0.2724  0.8133 -0.6928
   97SAPE   C28 9689   2.965   1.032   5.911 -0.0927 -0.0286 -0.4309
   97SAPE   H8R 9690   3.066   0.990   5.917  0.4969  1.4053  0.0938
   97SAPE   C29 9691   2.935   1.128   5.818 -0.8836 -0.6014 -0.5494
   97SAPE   H9R 9692   3.007   1.146   5.736  0.7097 -0.8883  0.7233
   97SAPE  C210 9693   2.797   1.196   5.793 -0.0377  0.1758 -0.0923
   97SAPE  H10R 9694   2.756   1.256   5.876 -1.9963 -0.8377 -0.2875
   97SAPE  H10S 9695   2.729   1.108   5.793 -0.6535  0.6121 -1.5357
   97SAPE  C211 9696   2.780   1.272   5.665 -0.8238  0.7694 -0.0412
   97SAPE  H11R 9697   2.813   1.377   5.661  2.0805  0.0443  1.9110
   97SAPE  C212 9698   2.730   1.223   5.550 -0.7590  0.0205  0.1313
   97SAPE  H12R 9699   2.730   1.293   5.464 -1.7643 -0.6651 -0.4490
   97SAPE  C213 9700   2.670   1.092   5.509 -0.6604  0.0714  0.4384
   97SAPE  H13R 9701   2.567   1.122   5.479 -0.1414  1.2722 -0.2283
   97SAPE  H13S 9702   2.658   1.023   5.595  2.3326 -1.9134 -0.5910
   97SAPE  C214 9703   2.743   1.010   5.402 -0.4334 -0.1370 -0.8999
   97SAPE  H14R 9704   2.846   1.043   5.380 -1.2755  2.0996 -1.7421
   97SAPE  C215 9705   2.684   0.911   5.329 -0.4349 -0.6600 -0.1347
   97SAPE  H15R 9706   2.744   0.850   5.259  2.0297  1.1628  0.2665
   97SAPE  C216 9707   2.539   0.873   5.345 -0.5648 -0.1732 -0.1154
   97SAPE  H16R 9708   2.487   0.931   5.424 -1.2188 -0.9789  0.0650
   97SAPE  H16S 9709   2.526   0.766   5.372 -0.5067  0.3723  2.2725
   97SAPE  C217 9710   2.473   0.912   5.212  0.2102  0.3198 -0.2579
   97SAPE  H17R 9711   2.369   0.873   5.220 -0.3438  2.0137  1.3792
   97SAPE  H17S 9712   2.504   0.857   5.121  1.0529 -2.4145  1.5515
   97SAPE  C218 9713   2.467   1.059   5.173  0.5917  0.0417 -0.3909
   97SAPE  H18R 9714   2.565   1.097   5.140  1.5608  0.2387  2.4300
   97SAPE  H18S 9715   2.446   1.125   5.261 -0.1222  1.8626 -1.8447
   97SAPE  C219 9716   2.367   1.081   5.056 -0.0459  0.6194  0.0647
   97SAPE  H19R 9717   2.371   1.191   5.040  1.1438  1.0324  2.6606
   97SAPE  H19S 9718   2.264   1.069   5.096  0.3765  1.5515  1.5240
   97SAPE  C220 9719   2.380   0.997   4.926  0.7301  0.3079  0.4331
   97SAPE  H20R 9720   2.361   0.890   4.949  1.1916  0.4475  1.5094
   97SAPE  H20S 9721   2.482   1.015   4.886  1.1546  0.8472  1.7233
   97SAPE  H20T 9722   2.306   1.032   4.851  2.0481  0.7527 -0.7016
   97SAPE   C33 9723   2.888   1.731   6.541  0.5980  0.7442 -0.3089
   97SAPE   H3X 9724   2.876   1.736   6.652  1.1148 -0.8736 -0.1468
   97SAPE   H3Y 9725   2.913   1.836   6.515 -1.4835  1.1543 -0.8770
   97SAPE   C34 9726   2.992   1.631   6.490 -0.6976 -0.0621 -0.3385
   97SAPE   H4X 9727   2.980   1.528   6.532  0.2311  0.2531  0.7782
   97SAPE   H4Y 9728   3.094   1.663   6.521  1.0439 -3.3486 -2.0623
   97SAPE   C35 9729   2.996   1.604   6.340 -0.3443 -0.4530 -0.4608
   97SAPE   H5X 9730   3.011   1.705   6.295  2.1221  0.1056  1.3579
   97SAPE   H5Y 9731   2.901   1.548   6.324  0.1154 -1.1248 -0.9149
   97SAPE   C36 9732   3.117   1.513   6.290  0.4049  0.9057 -0.9589
   97SAPE   H6X 9733   3.105   1.416   6.343  0.5091  1.5763  0.3181
   97SAPE   H6Y 9734   3.209   1.562   6.328  1.6280  0.2353 -2.8863
   97SAPE   C37 9735   3.118   1.481   6.137  0.6202  0.0196  0.0883
   97SAPE   H7X 9736   3.152   1.577   6.093 -1.5535  0.7744 -0.0733
   97SAPE   H7Y 9737   3.014   1.459   6.104  1.0443 -0.8652 -0.6887
   97SAPE   C38 9738   3.205   1.369   6.089 -0.5030  0.0592 -0.0595
   97SAPE   H8X 9739   3.187   1.353   5.981 -2.2097 -3.7496  0.6249
   97SAPE   H8Y 9740   3.174   1.272   6.134  1.5906 -0.6657 -0.1202
   97SAPE   C39 9741   3.358   1.386   6.114  0.3450  0.5159 -0.6223
   97SAPE   H9X 9742   3.386   1.385   6.222 -0.2304  2.5496 -0.3974
   97SAPE   H9Y 9743   3.387   1.485   6.072  0.6278 -0.1401 -2.0345
   97SAPE  C310 9744   3.453   1.293   6.040  0.2479  0.0862  0.2664
   97SAPE  H10X 9745   3.401   1.243   5.955  4.2916 -2.4434 -1.0220
   97SAPE  H10Y 9746   3.478   1.209   6.108  2.3944  1.9615  1.9393
   97SAPE  C311 9747   3.576   1.351   5.979  0.2154  1.2064  0.5853
   97SAPE  H11X 9748   3.549   1.433   5.909  2.4621 -0.5457 -2.6223
   97SAPE  H11Y 9749   3.629   1.273   5.921 -1.1806 -1.2258  2.3686
   97SAPE  C312 9750   3.671   1.411   6.083 -0.2769  0.1986 -1.0225
   97SAPE  H12X 9751   3.667   1.334   6.163  0.8115  0.2751 -0.8864
   97SAPE  H12Y 9752   3.617   1.501   6.120  1.4828  0.5358  0.8603
   97SAPE  C313 9753   3.813   1.421   6.045  0.1569  0.6083 -0.9601
   97SAPE  H13X 9754   3.849   1.316   6.039 -2.4345 -0.4718  0.5948
   97SAPE  H13Y 9755   3.872   1.462   6.130 -0.3148  0.6702 -0.6595
   97SAPE  C314 9756   3.847   1.489   5.918  0.2941 -0.4120  0.9016
   97SAPE  H14X 9757   3.786   1.446   5.836  0.3531 -1.2752  1.2996
   97SAPE  H14Y 9758   3.950   1.458   5.889 -0.1404 -1.3613  0.3053
   97SAPE  C315 9759   3.849   1.644   5.930 -0.5519  0.2363  0.4857
   97SAPE  H15X 9760   3.919   1.676   6.010  0.4502  1.7705 -0.9386
   97SAPE  H15Y 9761   3.750   1.675   5.968  0.0618 -0.6495  2.9569
   97SAPE  C316 9762   3.867   1.720   5.793 -0.5563 -0.1833  0.0177
   97SAPE  H16X 9763   3.874   1.828   5.818 -1.9918  0.8272 -3.2911
   97SAPE  H16Y 9764   3.787   1.704   5.717 -0.6541 -1.7313  0.4070
   97SAPE  C317 9765   3.997   1.678   5.720  0.1318  0.3220 -0.8757
   97SAPE  H17X 9766   3.992   1.580   5.669  3.2497  0.5804 -1.9251
   97SAPE  H17Y 9767   4.078   1.672   5.796 -0.3479  0.8342 -0.3193
   97SAPE  C318 9768   4.038   1.773   5.612  0.7535  0.0398 -0.7463
   97SAPE  H18X 9769   3.970   1.770   5.524 -1.2676 -1.9096  0.8004
   97SAPE  H18Y 9770   4.145   1.753   5.589  1.6240  1.2863  1.8704
   97SAPE  H18Z 9771   4.037   1.881   5.638  2.0164  0.3315 -1.7870
   98SAPE     N 9772   3.754   6.806   7.238  0.6029  0.3516  0.0944
   98SAPE   HN1 9773   3.831   6.818   7.168 -1.0119 -0.9186 -2.0444
   98SAPE   HN2 9774   3.718   6.897   7.271 -0.8870  0.0074 -0.5010
   98SAPE   HN3 9775   3.793   6.750   7.316  3.8307  0.6181 -1.1705
   98SAPE   C12 9776   3.646   6.734   7.167 -0.2583 -0.7020 -0.5803
   98SAPE  H12A 9777   3.606   6.797   7.084  1.7713  0.0207 -1.0545
   98SAPE  H12B 9778   3.573   6.703   7.245  0.7658 -1.1987  0.2066
   98SAPE   C11 9779   3.706   6.616   7.101  0.4316 -0.5041  0.4714
   98SAPE  H11A 9780   3.787   6.648   7.033 -1.2444 -0.1300 -1.4306
   98SAPE  H11B 9781   3.635   6.561   7.036  0.1769 -1.0841  1.2158
   98SAPE     P 9782   3.673   6.412   7.252 -0.0164  0.2218 -0.2885
   98SAPE   O13 9783   3.709   6.295   7.174 -0.6916  0.5948  0.2527
   98SAPE   O14 9784   3.674   6.404   7.400 -0.9168  0.3525 -0.4275
   98SAPE   O12 9785   3.757   6.530   7.203 -0.5001  0.1460  0.4458
   98SAPE   O11 9786   3.530   6.462   7.212 -0.5180  0.0848  0.0171
   98SAPE    C1 9787   3.426   6.385   7.153 -0.4896 -0.0620  0.2210
   98SAPE    HA 9788   3.445   6.276   7.149  1.2884  0.1749  1.4379
   98SAPE    HB 9789   3.333   6.389   7.214 -1.6835 -1.5570 -1.3885
   98SAPE    C2 9790   3.380   6.435   7.014 -0.5686  0.8551 -0.3751
   98SAPE    HS 9791   3.294   6.378   6.973 -0.1991  0.6723 -0.9141
   98SAPE   O21 9792   3.498   6.413   6.931 -0.1291 -0.3785 -0.1147
   98SAPE   C21 9793   3.515   6.290   6.886 -0.3267 -0.8063  0.0953
   98SAPE   O22 9794   3.425   6.205   6.875  0.2389 -0.3643 -0.2344
   98SAPE   C22 9795   3.661   6.280   6.829 -0.3474 -0.2419 -0.4562
   98SAPE   H2R 9796   3.715   6.376   6.841  1.0360 -0.6974 -2.4939
   98SAPE   H2S 9797   3.722   6.204   6.882 -0.1763  0.4762  0.3894
   98SAPE    C3 9798   3.338   6.582   6.998 -0.6310  0.7180 -0.4079
   98SAPE    HX 9799   3.426   6.646   7.020 -0.9297  1.4593 -1.3006
   98SAPE    HY 9800   3.253   6.603   7.067 -0.6732  2.2711 -0.8982
   98SAPE   O31 9801   3.293   6.596   6.862 -0.6162 -0.2382  0.2807
   98SAPE   C31 9802   3.322   6.717   6.809  0.4890 -0.5373  0.3759
   98SAPE   O32 9803   3.366   6.816   6.866  0.4028 -0.3228  0.1403
   98SAPE   C32 9804   3.268   6.716   6.662  0.0230 -0.3565  0.1504
   98SAPE   H2X 9805   3.198   6.802   6.652 -0.7497 -1.0648 -0.7444
   98SAPE   H2Y 9806   3.213   6.620   6.650  0.7467 -0.8309  0.5712
   98SAPE   C23 9807   3.663   6.261   6.674  0.0167  0.3282  0.1144
   98SAPE   H3R 9808   3.601   6.173   6.650 -1.1593  0.8113  1.2796
   98SAPE   H3S 9809   3.772   6.248   6.658  0.3009 -0.6327  2.4889
   98SAPE   C24 9810   3.629   6.383   6.586  1.1033  0.6149  0.2021
   98SAPE   H4R 9811   3.673   6.373   6.484  1.1732 -1.0568  0.3635
   98SAPE   H4S 9812   3.679   6.472   6.630  2.3873  0.1199 -0.2191
   98SAPE   C25 9813   3.474   6.412   6.579 -0.3187  0.9475 -0.2645
   98SAPE   H5R 9814   3.426   6.441   6.673 -0.3370  0.6611 -0.1845
   98SAPE   C26 9815   3.402   6.404   6.468  0.9258 -0.5186  0.1971
   98SAPE   H6R 9816   3.294   6.427   6.473  1.3437  1.7335 -0.3752
   98SAPE   C27 9817   3.434   6.376   6.322  0.0292  0.1889  0.0961
   98SAPE   H7R 9818   3.543   6.358   6.313  0.9855  4.6241  0.3714
   98SAPE   H7S 9819   3.411   6.465   6.260  0.9226  1.0161  0.9088
   98SAPE   C28 9820   3.354   6.273   6.256 -0.3301  0.1141 -0.0608
   98SAPE   H8R 9821   3.283   6.223   6.324 -1.4209  0.7896 -0.6642
   98SAPE   C29 9822   3.377   6.228   6.133 -0.2183  0.9597  0.2508
   98SAPE   H9R 9823   3.307   6.154   6.091 -0.7653  1.7991 -0.3523
   98SAPE  C210 9824   3.458   6.288   6.020  0.2383  0.8742  0.0474
   98SAPE  H10R 9825   3.552   6.232   6.001 -1.1491 -1.5262 -0.1050
   98SAPE  H10S 9826   3.501   6.385   6.053 -0.9251  1.3348  0.2529
   98SAPE  C211 9827   3.390   6.324   5.888  0.2843  0.6004  0.0377
   98SAPE  H11R 9828   3.295   6.272   5.867 -0.0270  0.5803  1.4087
   98SAPE  C212 9829   3.433   6.422   5.800 -0.2629  0.0205 -0.4124
   98SAPE  H12R 9830   3.383   6.428   5.702 -0.6339 -0.0847 -0.2318
   98SAPE  C213 9831   3.561   6.496   5.814  0.3935 -0.1074 -0.2513
   98SAPE  H13R 9832   3.643   6.480   5.741  0.8651 -1.0025  0.4621
   98SAPE  H13S 9833   3.620   6.470   5.904  2.8229 -0.8844 -1.9811
   98SAPE  C214 9834   3.523   6.639   5.790  0.1148  0.2093 -0.1047
   98SAPE  H14R 9835   3.515   6.705   5.877  1.8577 -0.4791  0.6191
   98SAPE  C215 9836   3.521   6.706   5.674 -0.2045  0.1837  0.1495
   98SAPE  H15R 9837   3.497   6.813   5.679  0.1143  0.4369 -2.5046
   98SAPE  C216 9838   3.548   6.656   5.539  0.4433  0.3015  0.0067
   98SAPE  H16R 9839   3.523   6.548   5.539  1.8741 -0.0662  1.1011
   98SAPE  H16S 9840   3.651   6.673   5.501  1.2440 -1.9486  0.9934
   98SAPE  C217 9841   3.450   6.711   5.430 -0.3393 -0.6670  0.1490
   98SAPE  H17R 9842   3.346   6.691   5.462 -1.0784  3.3244  0.8068
   98SAPE  H17S 9843   3.462   6.661   5.332 -0.3381  0.6355 -0.5330
   98SAPE  C218 9844   3.453   6.866   5.406 -0.7296 -0.2068 -0.4830
   98SAPE  H18R 9845   3.406   6.922   5.489 -0.5927 -0.6002 -0.1381
   98SAPE  H18S 9846   3.391   6.872   5.314 -2.1271 -2.6030  0.2087
   98SAPE  C219 9847   3.594   6.908   5.370 -0.4158  0.2586  0.3126
   98SAPE  H19R 9848   3.638   6.839   5.295 -0.6649  0.9541 -0.4969
   98SAPE  H19S 9849   3.649   6.890   5.464 -2.7813 -0.2990  1.6915
   98SAPE  C220 9850   3.607   7.051   5.328  1.0243  0.4215  0.6224
   98SAPE  H20R 9851   3.581   7.055   5.220  2.3445 -1.0571  0.1990
   98SAPE  H20S 9852   3.706   7.102   5.340  1.8804 -0.9346 -0.3557
   98SAPE  H20T 9853   3.536   7.120   5.377  0.7600  0.9926 -0.5335
   98SAPE   C33 9854   3.378   6.724   6.555  0.3851 -0.3883 -0.1078
   98SAPE   H3X 9855   3.341   6.670   6.465 -1.6766 -2.1261  1.6803
   98SAPE   H3Y 9856   3.467   6.668   6.592 -1.1504 -1.8038  1.6535
   98SAPE   C34 9857   3.407   6.873   6.523 -0.1687  0.1144  0.8139
   98SAPE   H4X 9858   3.471   6.928   6.596  1.5046 -1.3619  0.5336
   98SAPE   H4Y 9859   3.312   6.929   6.520 -0.9257 -1.1144  1.2235
   98SAPE   C35 9860   3.479   6.881   6.386 -1.2218  0.1358  0.2901
   98SAPE   H5X 9861   3.571   6.820   6.390 -0.4697  1.2815  1.0393
   98SAPE   H5Y 9862   3.506   6.988   6.373 -1.6521  0.1753 -0.3475
   98SAPE   C36 9863   3.407   6.841   6.262  0.3252 -0.0456 -0.3310
   98SAPE   H6X 9864   3.304   6.879   6.280  0.1219 -0.7184 -0.0207
   98SAPE   H6Y 9865   3.393   6.732   6.247 -1.9923  0.2371 -0.5603
   98SAPE   C37 9866   3.453   6.906   6.131  0.4503 -0.8605  0.2080
   98SAPE   H7X 9867   3.443   7.016   6.139 -1.3921 -1.0943  1.9525
   98SAPE   H7Y 9868   3.383   6.877   6.050 -1.3385  0.3342  1.2412
   98SAPE   C38 9869   3.600   6.884   6.087 -0.1770 -0.1314  0.1900
   98SAPE   H8X 9870   3.603   6.777   6.059  1.4576 -0.3748  1.1751
   98SAPE   H8Y 9871   3.681   6.906   6.160  0.3671  2.2868 -1.0330
   98SAPE   C39 9872   3.640   6.955   5.956  0.0644 -0.0004 -0.4032
   98SAPE   H9X 9873   3.666   7.062   5.971  1.4597 -0.1816 -1.3666
   98SAPE   H9Y 9874   3.553   6.941   5.888 -0.6867  1.9151  0.1132
   98SAPE  C310 9875   3.766   6.888   5.897  0.2190 -0.9213 -0.4457
   98SAPE  H10X 9876   3.751   6.781   5.873 -0.8916 -0.5076 -1.6976
   98SAPE  H10Y 9877   3.840   6.902   5.979  0.1964  1.7338 -0.8033
   98SAPE  C311 9878   3.824   6.958   5.777 -0.0557 -0.2770  0.1827
   98SAPE  H11X 9879   3.838   7.066   5.797 -2.2550  0.0291  0.2645
   98SAPE  H11Y 9880   3.749   6.941   5.697  1.1322 -1.2780 -0.7632
   98SAPE  C312 9881   3.959   6.904   5.724  0.6915  0.2332  0.0241
   98SAPE  H12X 9882   3.966   6.937   5.619  1.1321 -2.1711 -0.7622
   98SAPE  H12Y 9883   3.971   6.795   5.708  2.7614  0.5777 -1.0154
   98SAPE  C313 9884   4.072   6.947   5.811  0.3541 -0.0623 -0.1435
   98SAPE  H13X 9885   4.044   6.940   5.919  0.3183 -0.3403 -0.1697
   98SAPE  H13Y 9886   4.097   7.054   5.793  0.7487 -0.0197  0.6278
   98SAPE  C314 9887   4.189   6.852   5.806  0.2668  0.1111 -0.1432
   98SAPE  H14X 9888   4.230   6.841   5.704 -0.6835 -0.8231 -0.4407
   98SAPE  H14Y 9889   4.169   6.747   5.838  0.4072  0.0386 -0.2967
   98SAPE  C315 9890   4.307   6.903   5.890 -0.4596  0.8055 -0.4785
   98SAPE  H15X 9891   4.343   7.003   5.859  2.0731  0.1903  0.2548
   98SAPE  H15Y 9892   4.397   6.839   5.876  0.9290  2.3300  1.0746
   98SAPE  C316 9893   4.275   6.911   6.041 -0.1243 -0.3014  0.1010
   98SAPE  H16X 9894   4.250   6.810   6.080 -2.3692  0.4504  0.7725
   98SAPE  H16Y 9895   4.191   6.976   6.072 -0.3851 -0.0889 -1.0190
   98SAPE  C317 9896   4.406   6.959   6.106  0.4224  0.4312  0.9555
   98SAPE  H17X 9897   4.457   7.050   6.067 -2.8516  1.2199 -1.9554
   98SAPE  H17Y 9898   4.478   6.876   6.087  0.3602  0.4984  0.4036
   98SAPE  C318 9899   4.394   6.973   6.262  0.2039  0.6841 -0.1595
   98SAPE  H18X 9900   4.306   7.035   6.289  1.8422  1.5488  4.0013
   98SAPE  H18Y 9901   4.485   7.029   6.293  0.4808  0.2008 -0.0736
   98SAPE  H18Z 9902   4.392   6.870   6.305  0.0898  1.1830  1.0795
   99SAPE     N 9903   3.608   2.054   7.411 -0.2858  0.5564 -0.4423
   99SAPE   HN1 9904   3.624   2.096   7.504 -3.5398  1.4817 -0.1920
   99SAPE   HN2 9905   3.682   2.094   7.349  1.3192 -2.1262 -0.4390
   99SAPE   HN3 9906   3.512   2.083   7.383 -1.2412 -2.6776 -1.0056
   99SAPE   C12 9907   3.612   1.901   7.431 -1.1316  0.1662 -0.2707
   99SAPE  H12A 9908   3.588   1.869   7.328 -1.6103 -0.6560  0.0857
   99SAPE  H12B 9909   3.531   1.871   7.501 -1.9133  3.0686  0.2319
   99SAPE   C11 9910   3.751   1.853   7.478  0.4531 -0.5006 -0.5391
   99SAPE  H11A 9911   3.741   1.743   7.491 -0.6868 -0.1344  2.4418
   99SAPE  H11B 9912   3.771   1.896   7.578  0.0319  0.7017 -0.9593
   99SAPE     P 9913   3.958   1.806   7.307 -0.0500 -0.3711 -0.1312
   99SAPE   O13 9914   4.085   1.884   7.303  0.4480  0.2194  0.2128
   99SAPE   O14 9915   3.963   1.670   7.358  0.6737  0.3584 -0.3424
   99SAPE   O12 9916   3.860   1.890   7.394  0.5079  0.1484  0.3030
   99SAPE   O11 9917   3.894   1.810   7.162  0.1820 -0.0567  0.0583
   99SAPE    C1 9918   3.845   1.937   7.116  0.3161 -0.7271 -0.3548
   99SAPE    HA 9919   3.734   1.948   7.122  0.5011  1.1315  0.1964
   99SAPE    HB 9920   3.872   2.022   7.182  0.0935  0.6170 -1.8999
   99SAPE    C2 9921   3.910   1.964   6.982  0.8931 -0.7401  0.4299
   99SAPE    HS 9922   3.867   2.053   6.931  1.8802 -1.1257 -1.1923
   99SAPE   O21 9923   3.913   1.839   6.895 -0.1584 -0.0097  0.8038
   99SAPE   C21 9924   3.878   1.856   6.770 -0.1149 -0.0443 -0.2981
   99SAPE   O22 9925   3.843   1.962   6.727  0.0212  0.3657  0.3543
   99SAPE   C22 9926   3.890   1.728   6.685 -0.0183  0.3151  0.1097
   99SAPE   H2R 9927   3.816   1.651   6.715 -1.2624  1.2512 -0.4094
   99SAPE   H2S 9928   3.849   1.753   6.584 -1.9000  1.5045  1.1033
   99SAPE    C3 9929   4.061   2.001   6.998  0.1135 -0.8241 -0.4470
   99SAPE    HX 9930   4.107   1.903   7.023 -0.5122 -1.0297 -0.0785
   99SAPE    HY 9931   4.073   2.075   7.081  0.7704  0.2520 -1.4726
   99SAPE   O31 9932   4.124   2.050   6.880  0.2447 -0.4403  0.6904
   99SAPE   C31 9933   4.248   2.105   6.894  0.6137  1.0852 -0.0676
   99SAPE   O32 9934   4.309   2.112   7.004 -0.2698  0.1172  0.2720
   99SAPE   C32 9935   4.285   2.162   6.761 -0.0930  0.1561  0.4786
   99SAPE   H2X 9936   4.258   2.270   6.762  0.7962  0.3956 -0.5046
   99SAPE   H2Y 9937   4.232   2.110   6.679  0.1665  0.6719 -0.0250
   99SAPE   C23 9938   4.036   1.671   6.667  0.5103 -0.4578  0.5057
   99SAPE   H3R 9939   4.039   1.572   6.616 -2.0986  0.1029 -0.8858
   99SAPE   H3S 9940   4.086   1.657   6.765  1.0714 -0.1679  0.2719
   99SAPE   C24 9941   4.135   1.753   6.578 -0.5762  0.2434 -0.8220
   99SAPE   H4R 9942   4.234   1.702   6.582 -1.3889 -1.6955 -3.1081
   99SAPE   H4S 9943   4.144   1.848   6.635 -0.5116 -0.2825  0.0608
   99SAPE   C25 9944   4.090   1.785   6.437 -0.3920  0.2746  0.0767
   99SAPE   H5R 9945   4.012   1.863   6.438 -2.3423 -1.5504  0.5475
   99SAPE   C26 9946   4.136   1.730   6.326 -0.1839  0.1238  0.4033
   99SAPE   H6R 9947   4.098   1.764   6.229 -1.6553 -0.0671  0.8745
   99SAPE   C27 9948   4.238   1.618   6.306  0.3617 -0.0229 -0.1255
   99SAPE   H7R 9949   4.282   1.590   6.405  0.7820  2.8781  0.6083
   99SAPE   H7S 9950   4.327   1.647   6.246  1.3841  1.2751  1.8713
   99SAPE   C28 9951   4.181   1.494   6.252 -0.2875  0.2043  1.0771
   99SAPE   H8R 9952   4.118   1.432   6.318 -3.2294 -0.8274 -2.3963
   99SAPE   C29 9953   4.202   1.434   6.128  0.1493  0.5709 -0.1800
   99SAPE   H9R 9954   4.156   1.336   6.107  0.8906  0.4247 -1.2134
   99SAPE  C210 9955   4.288   1.462   6.012 -0.8514  0.1299 -0.0341
   99SAPE  H10R 9956   4.388   1.427   6.044 -1.6384 -1.6528  0.5872
   99SAPE  H10S 9957   4.289   1.570   5.984 -2.7014  0.1176 -0.2606
   99SAPE  C211 9958   4.250   1.385   5.889 -0.7135 -0.4505  0.8310
   99SAPE  H11R 9959   4.194   1.291   5.901  2.1734 -2.6020 -1.2083
   99SAPE  C212 9960   4.278   1.417   5.757  0.2073  0.7537  0.3049
   99SAPE  H12R 9961   4.240   1.353   5.675 -0.0207  0.1280  0.8918
   99SAPE  C213 9962   4.354   1.537   5.704  0.4539  0.8494  0.7351
   99SAPE  H13R 9963   4.415   1.585   5.784  4.0181 -1.6249 -0.2623
   99SAPE  H13S 9964   4.283   1.617   5.674  0.6855  2.0184  3.0563
   99SAPE  C214 9965   4.457   1.505   5.600 -0.4567  0.6840  0.7732
   99SAPE  H14R 9966   4.554   1.489   5.649 -0.1087 -1.3214 -0.4960
   99SAPE  C215 9967   4.439   1.507   5.462  0.2910 -0.2436  0.0156
   99SAPE  H15R 9968   4.517   1.489   5.387  2.4421 -1.3186  2.3661
   99SAPE  C216 9969   4.304   1.520   5.394  0.1407  0.4946  0.3791
   99SAPE  H16R 9970   4.304   1.587   5.305 -0.4411  0.9967  0.7497
   99SAPE  H16S 9971   4.221   1.546   5.462  0.9656 -0.7087  1.9174
   99SAPE  C217 9972   4.283   1.384   5.331 -0.4012  0.6616 -0.6003
   99SAPE  H17R 9973   4.244   1.317   5.411 -2.1315 -0.4518 -2.2946
   99SAPE  H17S 9974   4.377   1.344   5.288 -1.1281 -1.7470 -0.0711
   99SAPE  C218 9975   4.170   1.377   5.230  0.6730  0.1453 -1.0819
   99SAPE  H18R 9976   4.191   1.446   5.146 -1.0275  0.5497 -1.2087
   99SAPE  H18S 9977   4.078   1.406   5.285  1.2677 -1.6699  0.9827
   99SAPE  C219 9978   4.147   1.234   5.183  0.4447  0.1611  0.7067
   99SAPE  H19R 9979   4.239   1.182   5.147  1.3627  1.4356  1.1429
   99SAPE  H19S 9980   4.071   1.247   5.103 -0.5748  0.1067  1.6468
   99SAPE  C220 9981   4.081   1.143   5.289 -0.5089 -0.5504 -0.4167
   99SAPE  H20R 9982   4.023   1.212   5.355 -0.0984  0.9806 -1.5880
   99SAPE  H20S 9983   4.157   1.100   5.358 -0.3959 -1.4782 -1.0979
   99SAPE  H20T 9984   4.019   1.066   5.238 -1.1503 -0.2990 -0.0315
   99SAPE   C33 9985   4.431   2.136   6.738 -0.3950  0.4649  0.6839
   99SAPE   H3X 9986   4.469   2.032   6.730 -1.2704  0.2515 -1.5495
   99SAPE   H3Y 9987   4.503   2.180   6.810  2.0724 -1.1829 -0.6303
   99SAPE   C34 9988   4.470   2.188   6.598  0.0752  0.3715  0.1484
   99SAPE   H4X 9989   4.579   2.203   6.581  0.7704 -2.9090  1.0207
   99SAPE   H4Y 9990   4.422   2.284   6.568 -0.7514 -0.3317 -0.8634
   99SAPE   C35 9991   4.433   2.087   6.484 -0.0390 -0.4088 -0.2537
   99SAPE   H5X 9992   4.323   2.072   6.478 -0.2535  1.1285 -0.5759
   99SAPE   H5Y 9993   4.474   1.990   6.520  0.5860  0.1058  0.4463
   99SAPE   C36 9994   4.475   2.116   6.338 -0.1540 -0.2259  0.8078
   99SAPE   H6X 9995   4.580   2.150   6.328 -0.5426  1.1171  1.0751
   99SAPE   H6Y 9996   4.414   2.204   6.308 -2.3964 -2.1897 -0.8175
   99SAPE   C37 9997   4.445   2.000   6.241  0.3830  0.6036 -0.5001
   99SAPE   H7X 9998   4.367   1.935   6.288  0.0768  0.3287 -1.3698
   99SAPE   H7Y 9999   4.535   1.937   6.224  0.8704  1.1578  0.0064
   99SAPE   C3810000   4.393   2.042   6.106  0.5499 -0.6690  0.6162
   99SAPE   H8X10001   4.460   2.117   6.058  0.3151 -0.4129  0.6836
   99SAPE   H8Y10002   4.298   2.098   6.123  0.4283 -0.8156  0.4244
   99SAPE   C3910003   4.370   1.920   6.013 -0.1382 -0.0807 -0.3175
   99SAPE   H9X10004   4.277   1.867   6.041 -2.0314  2.6820 -0.9273
   99SAPE   H9Y10005   4.453   1.847   6.020 -0.0619  0.1027  0.8295
   99SAPE  C31010006   4.350   1.950   5.868  0.5772  0.1604  0.2144
   99SAPE  H10X10007   4.276   2.032   5.855  1.4509  0.6070 -2.7248
   99SAPE  H10Y10008   4.307   1.863   5.812  1.5780  0.4369 -1.0321
   99SAPE  C31110009   4.474   2.008   5.796  0.3043 -0.1330  0.3427
   99SAPE  H11X10010   4.568   1.950   5.811  1.1761  0.6074 -1.8936
   99SAPE  H11Y10011   4.493   2.113   5.829  0.8226 -0.3985  0.9259
   99SAPE  C31210012   4.454   2.011   5.640 -1.3751 -0.6431  0.2695
   99SAPE  H12X10013   4.344   2.009   5.623 -0.9892 -0.0536 -2.8095
   99SAPE  H12Y10014   4.486   1.916   5.593 -0.3160 -0.4962  0.6697
   99SAPE  C31310015   4.527   2.130   5.574 -0.0594  0.0612  0.1892
   99SAPE  H13X10016   4.634   2.115   5.599  0.3092  0.8147 -0.8752
   99SAPE  H13Y10017   4.486   2.222   5.620 -2.7944 -1.2067  0.4685
   99SAPE  C31410018   4.531   2.122   5.427  0.1532  0.5883  0.4226
   99SAPE  H14X10019   4.562   2.029   5.376  0.5657  0.0415  1.6420
   99SAPE  H14Y10020   4.599   2.197   5.382 -2.1268 -0.5634 -5.9753
   99SAPE  C31510021   4.393   2.172   5.366  0.9208  0.5905  0.3659
   99SAPE  H15X10022   4.414   2.240   5.281 -2.7970  1.4637 -0.0202
   99SAPE  H15Y10023   4.327   2.218   5.443 -0.6088 -1.2766  0.2665
   99SAPE  C31610024   4.322   2.050   5.300  0.1790 -0.4188  1.7404
   99SAPE  H16X10025   4.288   2.001   5.393 -0.4973 -0.3272  1.5496
   99SAPE  H16Y10026   4.387   1.982   5.242  1.1690  0.7708  1.3969
   99SAPE  C31710027   4.189   2.085   5.224 -0.4966  0.6542 -0.4358
   99SAPE  H17X10028   4.177   2.194   5.239 -2.2500  0.2301  1.8885
   99SAPE  H17Y10029   4.111   2.034   5.285  0.2010 -0.5483 -0.5053
   99SAPE  C31810030   4.188   2.020   5.090  0.1857 -0.2207  0.2110
   99SAPE  H18X10031   4.202   1.910   5.097 -0.6324 -0.3351  0.1218
   99SAPE  H18Y10032   4.261   2.056   5.014  0.0212 -1.9566 -0.8417
   99SAPE  H18Z10033   4.092   2.046   5.039 -0.0787  3.0081  2.1123
  100SAPE     N10034   6.878   0.800   7.519  0.0196 -0.3637  0.5158
  100SAPE   HN110035   6.966   0.745   7.529 -1.0779 -2.1795  0.7725
  100SAPE   HN210036   6.890   0.901   7.499  0.9982 -0.4585  0.5822
  100SAPE   HN310037   6.819   0.787   7.603  1.5551 -1.8695  1.4301
  100SAPE   C1210038   6.790   0.748   7.410 -0.1401  1.1579 -0.2030
  100SAPE  H12A10039   6.711   0.820   7.439  1.2934  1.9414  2.1606
  100SAPE  H12B10040   6.775   0.641   7.434 -1.0458  1.4447  0.6086
  100SAPE   C1110041   6.852   0.773   7.272  0.1699 -0.3894 -0.2230
  100SAPE  H11A10042   6.867   0.882   7.256  2.9091 -0.9693 -2.4412
  100SAPE  H11B10043   6.777   0.739   7.198  0.7997  0.7421 -1.4232
  100SAPE     P10044   7.000   0.565   7.202  0.4234 -0.3349  0.6324
  100SAPE   O1310045   7.145   0.536   7.212  0.3510 -0.6340  0.8071
  100SAPE   O1410046   6.894   0.479   7.263 -0.0459  0.2464 -0.0394
  100SAPE   O1210047   6.980   0.711   7.265  0.4554 -0.4858  0.5735
  100SAPE   O1110048   6.961   0.585   7.041  0.2808 -0.5749 -0.4600
  100SAPE    C110049   7.014   0.691   6.965 -0.5674  0.1352  0.0585
  100SAPE    HA10050   6.955   0.785   6.969  0.8414  1.0283  1.5367
  100SAPE    HB10051   7.111   0.720   7.012 -0.9327  1.2916  0.1450
  100SAPE    C210052   7.037   0.640   6.817 -0.0748 -0.7749 -0.4708
  100SAPE    HS10053   7.056   0.725   6.749 -0.9747  0.2966  0.5663
  100SAPE   O2110054   6.918   0.576   6.781  0.2876  0.1394 -0.2165
  100SAPE   C2110055   6.825   0.665   6.760  0.5849  0.4707  0.5022
  100SAPE   O2210056   6.838   0.782   6.752  0.5433  0.1297 -0.4575
  100SAPE   C2210057   6.684   0.593   6.763 -0.1641 -0.5287 -0.4588
  100SAPE   H2R10058   6.688   0.518   6.845 -1.7584  1.2087  1.3196
  100SAPE   H2S10059   6.615   0.676   6.790 -1.2442 -0.7206 -2.4253
  100SAPE    C310060   7.155   0.535   6.815 -0.0787 -0.4201 -0.3619
  100SAPE    HX10061   7.126   0.466   6.897  0.3809 -2.1206 -1.5758
  100SAPE    HY10062   7.243   0.600   6.833 -0.5956  0.1271  0.2422
  100SAPE   O3110063   7.156   0.483   6.679  0.3836  0.1584  0.6188
  100SAPE   C3110064   7.253   0.386   6.663  0.2610  0.2164 -0.0714
  100SAPE   O3210065   7.328   0.350   6.753 -0.3866 -0.0364 -0.6934
  100SAPE   C3210066   7.245   0.339   6.523 -0.1766  0.1386 -0.1170
  100SAPE   H2X10067   7.298   0.416   6.464  1.7008 -0.9952 -0.0242
  100SAPE   H2Y10068   7.138   0.328   6.495 -1.0413  1.3854  2.4415
  100SAPE   C2310069   6.656   0.526   6.626 -0.4587 -0.3035  0.1044
  100SAPE   H3R10070   6.589   0.441   6.651  1.5885 -1.5996  1.4567
  100SAPE   H3S10071   6.751   0.495   6.577 -1.2698  1.6938 -3.0445
  100SAPE   C2410072   6.584   0.628   6.535 -0.3037  0.3122  0.2959
  100SAPE   H4R10073   6.646   0.715   6.504 -1.1607  0.9002  0.1817
  100SAPE   H4S10074   6.491   0.656   6.588 -0.5105  2.1148 -0.9469
  100SAPE   C2510075   6.540   0.545   6.417  0.0997  0.3518  0.3660
  100SAPE   H5R10076   6.505   0.445   6.448  1.3603 -0.7354 -1.5616
  100SAPE   C2610077   6.544   0.574   6.288  0.0007  0.0982  0.5898
  100SAPE   H6R10078   6.518   0.501   6.210  3.3085 -2.1036  1.3518
  100SAPE   C2710079   6.593   0.703   6.227  0.0576  0.4079  0.0190
  100SAPE   H7R10080   6.602   0.777   6.310 -0.7914  1.9841 -1.2525
  100SAPE   H7S10081   6.525   0.751   6.154 -1.3565  1.2526  1.8066
  100SAPE   C2810082   6.729   0.689   6.161 -0.7925 -0.2376  0.1380
  100SAPE   H8R10083   6.740   0.599   6.099  1.6828  1.0056 -1.3834
  100SAPE   C2910084   6.828   0.782   6.159  0.5189  0.8555 -0.1056
  100SAPE   H9R10085   6.909   0.764   6.086  0.0696  0.3659 -0.4868
  100SAPE  C21010086   6.834   0.907   6.243  0.1689  0.0008 -0.2733
  100SAPE  H10R10087   6.746   0.973   6.226  0.9396  0.9002 -0.8444
  100SAPE  H10S10088   6.913   0.972   6.199 -0.3793 -0.3135 -1.7908
  100SAPE  C21110089   6.862   0.888   6.389  0.0923 -0.0394  0.3724
  100SAPE  H11R10090   6.904   0.790   6.416 -0.5906 -0.2250  0.7947
  100SAPE  C21210091   6.822   0.976   6.486 -0.4468 -0.2561  0.5407
  100SAPE  H12R10092   6.852   0.957   6.591  3.4001 -0.3274 -0.4057
  100SAPE  C21310093   6.738   1.097   6.474 -0.1702  0.0728  0.7655
  100SAPE  H13R10094   6.645   1.077   6.533  0.1350 -2.4208  0.5122
  100SAPE  H13S10095   6.711   1.121   6.369 -0.2657  0.9356  0.9722
  100SAPE  C21410096   6.804   1.221   6.526 -0.2418 -0.1148 -0.1660
  100SAPE  H14R10097   6.800   1.233   6.636 -0.5353  0.2221 -0.2142
  100SAPE  C21510098   6.881   1.304   6.452  0.4153 -0.6894  0.6151
  100SAPE  H15R10099   6.914   1.396   6.502 -0.4275  2.0444 -3.3790
  100SAPE  C21610100   6.905   1.307   6.304  0.4080  0.3386 -0.2518
  100SAPE  H16R10101   6.900   1.408   6.259 -1.4270  0.2807 -0.2524
  100SAPE  H16S10102   6.820   1.263   6.247  0.1344  2.6785 -1.8154
  100SAPE  C21710103   7.026   1.235   6.258  0.3553  0.3966 -0.2592
  100SAPE  H17R10104   7.023   1.129   6.291  0.7622 -0.0093 -1.4633
  100SAPE  H17S10105   7.125   1.280   6.283  1.5968 -2.7332  0.9253
  100SAPE  C21810106   7.042   1.222   6.101  0.3208  0.0302 -0.2878
  100SAPE  H18R10107   7.026   1.320   6.051  1.4091  0.6707  0.5664
  100SAPE  H18S10108   6.965   1.151   6.063 -1.7559  1.1026  1.6913
  100SAPE  C21910109   7.185   1.192   6.065 -0.4065  0.0774 -0.2511
  100SAPE  H19R10110   7.228   1.093   6.089  0.2473  0.5175  0.4586
  100SAPE  H19S10111   7.246   1.265   6.122 -0.3243 -0.7995  0.8057
  100SAPE  C22010112   7.214   1.203   5.917  0.4144 -0.4587 -0.4390
  100SAPE  H20R10113   7.324   1.186   5.908  0.8946  0.9931  1.9965
  100SAPE  H20S10114   7.198   1.305   5.875 -2.8551 -0.5161  0.3653
  100SAPE  H20T10115   7.164   1.124   5.856 -1.4044 -0.7210  1.2925
  100SAPE   C3310116   7.329   0.207   6.496  0.5543  0.2086  0.3053
  100SAPE   H3X10117   7.281   0.126   6.555 -0.9742 -1.3068 -2.7944
  100SAPE   H3Y10118   7.429   0.223   6.541  1.4548 -1.0596 -1.1535
  100SAPE   C3410119   7.322   0.158   6.354 -0.0364 -0.4994 -0.2589
  100SAPE   H4X10120   7.217   0.134   6.327 -0.8821  2.3071  0.1938
  100SAPE   H4Y10121   7.378   0.064   6.374  0.7659  0.2949  1.4352
  100SAPE   C3510122   7.392   0.236   6.238  0.4961 -0.1893  0.2902
  100SAPE   H5X10123   7.502   0.232   6.250  0.4675 -0.4962  0.4461
  100SAPE   H5Y10124   7.356   0.341   6.252 -0.6121 -0.5175  0.0034
  100SAPE   C3610125   7.356   0.178   6.091  0.3788 -0.7146  0.4672
  100SAPE   H6X10126   7.248   0.171   6.064  0.1422 -1.5577  1.5554
  100SAPE   H6Y10127   7.397   0.077   6.071 -1.9991 -1.4616 -1.1167
  100SAPE   C3710128   7.411   0.273   5.985  0.0774 -0.3319  0.0074
  100SAPE   H7X10129   7.521   0.285   5.997 -0.0593 -0.4284  1.6483
  100SAPE   H7Y10130   7.363   0.373   5.991 -0.8179 -0.6760 -1.0377
  100SAPE   C3810131   7.378   0.220   5.846 -0.7722 -0.0377 -0.2209
  100SAPE   H8X10132   7.275   0.182   5.830 -1.7450  2.8503 -1.2893
  100SAPE   H8Y10133   7.448   0.136   5.826 -0.9766 -0.4632  0.7513
  100SAPE   C3910134   7.393   0.332   5.749  0.4125  0.2134  1.0091
  100SAPE   H9X10135   7.482   0.390   5.783  0.7698  0.8042 -0.7854
  100SAPE   H9Y10136   7.307   0.401   5.758  0.2003 -0.0759  1.1985
  100SAPE  C31010137   7.412   0.293   5.602 -0.4594 -0.4191 -0.2455
  100SAPE  H10X10138   7.373   0.192   5.580  0.9786 -1.3613  1.2763
  100SAPE  H10Y10139   7.521   0.276   5.597 -0.3750 -0.0622  0.2526
  100SAPE  C31110140   7.379   0.405   5.508  0.1408 -0.7139  0.5679
  100SAPE  H11X10141   7.432   0.497   5.542  0.8086 -0.7885 -0.2339
  100SAPE  H11Y10142   7.276   0.439   5.533  0.4638  0.6157  0.1618
  100SAPE  C31210143   7.399   0.372   5.358  0.4138 -0.6048 -0.8917
  100SAPE  H12X10144   7.335   0.286   5.331 -0.2618 -0.1633 -0.7145
  100SAPE  H12Y10145   7.502   0.335   5.342  0.4782 -0.5924 -0.5205
  100SAPE  C31310146   7.367   0.490   5.260 -0.0225  0.1179  0.0936
  100SAPE  H13X10147   7.386   0.455   5.156  2.2207  1.0301  0.1331
  100SAPE  H13Y10148   7.445   0.566   5.280 -2.7788  2.5710  2.5394
  100SAPE  C31410149   7.228   0.555   5.270 -0.3665  0.4025 -0.6365
  100SAPE  H14X10150   7.225   0.598   5.373 -0.5995  0.0149 -0.4797
  100SAPE  H14Y10151   7.153   0.476   5.246 -1.1567  1.0066 -0.2294
  100SAPE  C31510152   7.206   0.668   5.165  0.2876 -0.4457  0.1562
  100SAPE  H15X10153   7.295   0.734   5.170  1.2876 -1.7159 -0.2699
  100SAPE  H15Y10154   7.118   0.731   5.189  0.1701  0.4693 -2.3935
  100SAPE  C31610155   7.190   0.625   5.015 -0.7234 -0.3971  0.6715
  100SAPE  H16X10156   7.097   0.565   5.010 -0.4315 -0.7402 -1.1074
  100SAPE  H16Y10157   7.272   0.559   4.979 -1.0309 -0.9240  0.9215
  100SAPE  C31710158   7.191   0.741   4.920 -0.3688 -0.4964 -0.7155
  100SAPE  H17X10159   7.294   0.782   4.921 -0.5240 -0.0980 -0.5920
  100SAPE  H17Y10160   7.123   0.823   4.954 -0.6497 -1.3964  1.0476
  100SAPE  C31810161   7.160   0.698   4.775  0.2719  0.2540  0.3460
  100SAPE  H18X10162   7.217   0.612   4.734  1.7547  1.3756 -0.0551
  100SAPE  H18Y10163   7.181   0.778   4.701  0.8109  0.3672  0.6169
  100SAPE  H18Z10164   7.053   0.669   4.783  0.2184  0.8277  2.2439
  101SAPE     N10165   5.910   1.045   6.907  0.2995 -0.0876  0.3465
  101SAPE   HN110166   5.822   1.075   6.861 -0.7350 -1.6767  1.1847
  101SAPE   HN210167   5.981   1.005   6.841  0.0252 -0.2827  0.1683
  101SAPE   HN310168   5.878   0.962   6.961 -0.3572 -1.9378 -2.6420
  101SAPE   C1210169   5.956   1.155   6.997 -0.1319  0.2810  0.0702
  101SAPE  H12A10170   5.999   1.238   6.937  2.5948 -1.1476 -0.1218
  101SAPE  H12B10171   6.043   1.118   7.055 -1.1163 -0.3471  1.1923
  101SAPE   C1110172   5.837   1.207   7.084  0.6353  0.7616  0.1303
  101SAPE  H11A10173   5.877   1.280   7.158 -0.1338  0.6504  0.6619
  101SAPE  H11B10174   5.798   1.124   7.146  0.1343 -0.3954 -1.6433
  101SAPE     P10175   5.600   1.323   7.034  0.0014 -0.0771  0.3819
  101SAPE   O1310176   5.500   1.275   6.931  0.3413 -0.1532 -0.5108
  101SAPE   O1410177   5.569   1.274   7.174 -0.8473 -0.6853 -0.0517
  101SAPE   O1210178   5.741   1.268   6.990 -0.2449 -0.1760 -0.1799
  101SAPE   O1110179   5.623   1.478   7.032  0.0550  0.1339  0.1339
  101SAPE    C110180   5.681   1.541   6.913 -0.4530 -0.2776  0.0873
  101SAPE    HA10181   5.792   1.540   6.924 -0.3019 -0.8133 -1.2723
  101SAPE    HB10182   5.663   1.473   6.827  0.0942 -0.2892 -0.0215
  101SAPE    C210183   5.614   1.676   6.876 -0.6579  0.0985 -0.3327
  101SAPE    HS10184   5.605   1.728   6.974  0.6405  1.4277 -0.8756
  101SAPE   O2110185   5.491   1.640   6.816 -0.0974  0.1308  0.2483
  101SAPE   C2110186   5.403   1.733   6.805 -0.4858  0.2319  0.3904
  101SAPE   O2210187   5.407   1.848   6.851 -0.2945 -0.0126 -0.1637
  101SAPE   C2210188   5.275   1.680   6.736 -0.6911 -0.2181  0.3318
  101SAPE   H2R10189   5.254   1.742   6.646  3.3473 -1.7997 -1.9895
  101SAPE   H2S10190   5.311   1.583   6.697  5.1272  1.5797  0.3290
  101SAPE    C310191   5.712   1.760   6.790 -0.1595  0.3545  0.2025
  101SAPE    HX10192   5.802   1.775   6.853  0.8751 -1.1323 -0.8594
  101SAPE    HY10193   5.663   1.859   6.783  0.2267  0.7432  2.3971
  101SAPE   O3110194   5.740   1.690   6.666  0.3577  0.4688 -0.1795
  101SAPE   C3110195   5.671   1.735   6.558  0.2243 -0.5023  0.5699
  101SAPE   O3210196   5.596   1.835   6.558 -0.5143 -0.9108 -0.3213
  101SAPE   C3210197   5.699   1.637   6.443 -0.0511 -0.6736  0.1911
  101SAPE   H2X10198   5.792   1.580   6.464 -0.1909 -1.5603 -1.4528
  101SAPE   H2Y10199   5.715   1.695   6.349  0.5900 -1.3791 -0.1477
  101SAPE   C2310200   5.151   1.672   6.822 -0.2439 -0.7265 -0.6816
  101SAPE   H3R10201   5.133   1.766   6.879 -0.6679 -1.0620 -0.2529
  101SAPE   H3S10202   5.157   1.588   6.894 -1.9038 -0.2228  0.0954
  101SAPE   C2410203   5.027   1.656   6.733  0.2340  0.0986 -0.4026
  101SAPE   H4R10204   5.018   1.748   6.671 -1.4706  0.1016 -0.1992
  101SAPE   H4S10205   4.936   1.661   6.796 -0.3397 -0.1673 -1.1982
  101SAPE   C2510206   5.028   1.533   6.648 -0.1137  0.4340  0.7586
  101SAPE   H5R10207   5.060   1.443   6.703  0.1422  0.4394  0.6225
  101SAPE   C2610208   5.003   1.512   6.517  0.6249  0.5997 -0.3026
  101SAPE   H6R10209   4.994   1.407   6.484  0.4228  0.2502  0.8151
  101SAPE   C2710210   4.973   1.622   6.421 -0.4852 -0.1893 -0.8675
  101SAPE   H7R10211   5.042   1.703   6.451 -0.6940 -0.2792 -0.1152
  101SAPE   H7S10212   4.869   1.658   6.434 -0.1087  0.0446  2.1818
  101SAPE   C2810213   5.004   1.591   6.285 -0.4969 -0.1198 -0.0237
  101SAPE   H8R10214   5.113   1.593   6.269 -0.3662  1.5985  0.8307
  101SAPE   C2910215   4.918   1.549   6.188 -0.4297 -0.7507  0.6371
  101SAPE   H9R10216   4.962   1.531   6.089  2.1727  1.6922  1.1996
  101SAPE  C21010217   4.771   1.540   6.194 -0.1436  0.0295  0.1678
  101SAPE  H10R10218   4.732   1.580   6.290 -1.7271 -0.1517 -0.3797
  101SAPE  H10S10219   4.751   1.430   6.195  1.0254 -0.2174  2.2034
  101SAPE  C21110220   4.691   1.597   6.076  0.0722  0.0513 -0.0035
  101SAPE  H11R10221   4.632   1.687   6.104  2.9758  1.4764  2.1110
  101SAPE  C21210222   4.682   1.556   5.948 -0.5319 -0.1451  0.3913
  101SAPE  H12R10223   4.611   1.610   5.884 -0.0329  1.8822  1.4234
  101SAPE  C21310224   4.757   1.447   5.882 -0.2397  0.1432  0.0718
  101SAPE  H13R10225   4.686   1.400   5.811 -2.2395 -0.9814  2.6612
  101SAPE  H13S10226   4.780   1.372   5.961 -1.6318 -0.2032  0.1645
  101SAPE  C21410227   4.887   1.487   5.809  0.5131  0.1396 -0.3897
  101SAPE  H14R10228   4.964   1.545   5.862 -0.8500  2.1154 -0.4789
  101SAPE  C21510229   4.920   1.465   5.684  0.3066  0.3073 -0.1857
  101SAPE  H15R10230   5.020   1.498   5.654  0.2245  0.4883 -0.2618
  101SAPE  C21610231   4.828   1.389   5.589 -0.5526  0.3403  0.4572
  101SAPE  H16R10232   4.721   1.406   5.611  0.0171  3.4308  1.2534
  101SAPE  H16S10233   4.854   1.281   5.586 -0.9132  0.2642 -1.8259
  101SAPE  C21710234   4.831   1.417   5.438 -0.2421  0.5182  0.2751
  101SAPE  H17R10235   4.761   1.499   5.409 -0.4192  0.2696 -0.0024
  101SAPE  H17S10236   4.791   1.327   5.386  1.1811  0.8213 -1.4584
  101SAPE  C21810237   4.983   1.428   5.377  0.3333  0.2392 -0.5879
  101SAPE  H18R10238   5.042   1.350   5.429  0.7643  0.4843 -0.7021
  101SAPE  H18S10239   5.031   1.525   5.403 -4.8973  2.3817  2.8580
  101SAPE  C21910240   4.982   1.415   5.222  0.3694  0.6416 -0.2175
  101SAPE  H19R10241   4.935   1.320   5.189  0.3207  0.9288 -0.9921
  101SAPE  H19S10242   5.088   1.393   5.195 -0.3180 -0.9238 -1.9034
  101SAPE  C22010243   4.942   1.535   5.136 -0.0997 -0.2148  0.0541
  101SAPE  H20R10244   4.971   1.635   5.177 -1.8022 -0.5198  2.2000
  101SAPE  H20S10245   4.832   1.539   5.122 -0.1302 -0.1152  0.3194
  101SAPE  H20T10246   4.999   1.517   5.042  1.9010  1.5692  0.8314
  101SAPE   C3310247   5.582   1.539   6.422  0.5971 -0.1285  0.0668
  101SAPE   H3X10248   5.525   1.516   6.515  0.4855  0.7418  0.2247
  101SAPE   H3Y10249   5.607   1.438   6.384  0.8999  0.0037 -0.0822
  101SAPE   C3410250   5.485   1.597   6.313  0.4633  0.1549 -0.3306
  101SAPE   H4X10251   5.473   1.707   6.322 -0.4014 -0.0743  2.4081
  101SAPE   H4Y10252   5.389   1.548   6.341  1.5187 -2.0230 -0.3288
  101SAPE   C3510253   5.538   1.564   6.169 -0.1131 -0.1475 -0.7411
  101SAPE   H5X10254   5.647   1.544   6.172  0.0856  0.5665 -2.1041
  101SAPE   H5Y10255   5.525   1.650   6.100  0.2983  0.7035  0.2284
  101SAPE   C3610256   5.476   1.443   6.097  0.7990  1.3468  0.4197
  101SAPE   H6X10257   5.366   1.450   6.112  0.8317 -0.0087  1.3959
  101SAPE   H6Y10258   5.511   1.355   6.154 -1.0445  0.2047 -0.1315
  101SAPE   C3710259   5.503   1.431   5.947 -0.3757  0.4541  0.1017
  101SAPE   H7X10260   5.612   1.438   5.926 -0.1076  1.8136  1.6708
  101SAPE   H7Y10261   5.453   1.518   5.898  2.8202  0.8352 -2.8461
  101SAPE   C3810262   5.447   1.297   5.897 -0.3633  0.0503  0.2149
  101SAPE   H8X10263   5.337   1.285   5.903 -0.6016  1.3720 -0.8519
  101SAPE   H8Y10264   5.490   1.207   5.945  0.2351 -1.4906 -2.9527
  101SAPE   C3910265   5.472   1.288   5.741 -0.5159 -0.1697  0.3757
  101SAPE   H9X10266   5.581   1.284   5.716 -0.5640 -2.8604  0.2326
  101SAPE   H9Y10267   5.435   1.386   5.704 -1.6407 -0.7324 -0.0278
  101SAPE  C31010268   5.404   1.166   5.681 -0.0020 -0.0510  0.1203
  101SAPE  H10X10269   5.295   1.190   5.681  0.0804  1.0220  3.9555
  101SAPE  H10Y10270   5.409   1.085   5.757 -1.4896  0.3225  0.6530
  101SAPE  C31110271   5.447   1.117   5.546 -0.1019  0.3864 -0.0227
  101SAPE  H11X10272   5.556   1.099   5.543  0.1462  1.8451 -2.1195
  101SAPE  H11Y10273   5.414   1.189   5.467 -1.6800 -0.3177 -0.0499
  101SAPE  C31210274   5.390   0.976   5.520 -0.3389 -0.0091  0.4547
  101SAPE  H12X10275   5.280   0.993   5.513 -0.4326 -0.7840 -0.0492
  101SAPE  H12Y10276   5.413   0.907   5.603 -0.4240 -1.2295 -0.5111
  101SAPE  C31310277   5.440   0.909   5.396  0.0667 -0.0732  0.6838
  101SAPE  H13X10278   5.550   0.925   5.387  0.0068  0.4524  0.8678
  101SAPE  H13Y10279   5.401   0.968   5.311 -0.2350 -0.7819  0.3226
  101SAPE  C31410280   5.407   0.763   5.372 -0.0049  0.0439 -0.6536
  101SAPE  H14X10281   5.303   0.739   5.404  0.3254 -1.2529 -0.4581
  101SAPE  H14Y10282   5.462   0.705   5.449  1.1630  1.0406 -0.7140
  101SAPE  C31510283   5.432   0.705   5.226 -0.1102  0.5575 -0.1224
  101SAPE  H15X10284   5.532   0.744   5.197  0.2792 -0.2067  0.1685
  101SAPE  H15Y10285   5.349   0.735   5.158  0.5913 -2.1722 -2.3693
  101SAPE  C31610286   5.448   0.554   5.232 -0.2064  0.2651  0.0369
  101SAPE  H16X10287   5.528   0.534   5.306 -0.7601 -1.4162  0.2048
  101SAPE  H16Y10288   5.476   0.521   5.130 -2.0125  0.0421 -0.4142
  101SAPE  C31710289   5.322   0.488   5.291  0.5362 -0.2255 -0.2824
  101SAPE  H17X10290   5.246   0.543   5.232  0.9089  0.0519 -0.5026
  101SAPE  H17Y10291   5.306   0.504   5.400  0.7990  0.1300 -0.2955
  101SAPE  C31810292   5.316   0.336   5.266 -0.4577 -0.8618  0.0459
  101SAPE  H18X10293   5.217   0.290   5.287 -0.6234 -0.2740  0.5689
  101SAPE  H18Y10294   5.396   0.290   5.327  2.3844  2.5128 -0.7747
  101SAPE  H18Z10295   5.328   0.304   5.160  0.1295 -1.4757  0.2904
  102SAPE     N10296   0.328   1.772   7.155 -0.0343  0.4227  0.3911
  102SAPE   HN110297   0.348   1.683   7.206 -1.1842  0.7542  1.4646
  102SAPE   HN210298   0.300   1.747   7.058  1.3963  2.1038 -0.5034
  102SAPE   HN310299   0.409   1.837   7.156  0.7277 -0.5010  2.0542
  102SAPE   C1210300   0.213   1.834   7.219 -0.1077  0.0943 -0.1914
  102SAPE  H12A10301   0.225   1.943   7.202  3.4117 -0.0772  0.4943
  102SAPE  H12B10302   0.224   1.815   7.328 -1.0573 -0.7964 -0.2332
  102SAPE   C1110303   0.066   1.798   7.165  0.3435  0.2752  0.3014
  102SAPE  H11A10304  -0.003   1.853   7.233 -2.0960 -2.7335  0.4602
  102SAPE  H11B10305   0.042   1.692   7.185 -2.3564  1.0422  1.6785
  102SAPE     P10306   0.047   1.719   6.914  0.2659 -0.0743  0.1322
  102SAPE   O1310307  -0.038   1.604   6.944 -0.0096 -0.1440 -0.1946
  102SAPE   O1410308   0.020   1.784   6.791  0.2712  0.0684  0.3923
  102SAPE   O1210309   0.046   1.836   7.028 -0.3636 -0.2259  0.4510
  102SAPE   O1110310   0.194   1.667   6.923 -0.2146  0.3883 -0.4287
  102SAPE    C110311   0.294   1.719   6.835 -0.1313 -0.5306 -0.1312
  102SAPE    HA10312   0.272   1.822   6.801  2.5950 -0.2483 -1.3211
  102SAPE    HB10313   0.392   1.707   6.887  1.1372 -1.3652 -2.5286
  102SAPE    C210314   0.320   1.620   6.720 -0.0106  0.3520 -0.4671
  102SAPE    HS10315   0.415   1.641   6.667  0.6263  1.1767  0.9718
  102SAPE   O2110316   0.212   1.634   6.625  0.2613 -0.4851 -0.6414
  102SAPE   C2110317   0.195   1.745   6.566 -1.1161 -0.4421  0.4432
  102SAPE   O2210318   0.265   1.846   6.574 -0.2590  0.1144  0.4621
  102SAPE   C2210319   0.081   1.729   6.467 -0.7505  0.7582  0.0768
  102SAPE   H2R10320  -0.007   1.719   6.533 -0.9824  1.5960 -0.1012
  102SAPE   H2S10321   0.078   1.827   6.416  0.7350 -0.2302 -2.0849
  102SAPE    C310322   0.333   1.469   6.763 -0.1289 -0.2452 -0.2261
  102SAPE    HX10323   0.233   1.442   6.804 -0.6128 -0.0528 -1.2308
  102SAPE    HY10324   0.415   1.460   6.837  1.5468  0.5452 -1.8948
  102SAPE   O3110325   0.362   1.398   6.642  0.0188  0.2315 -0.1036
  102SAPE   C3110326   0.299   1.287   6.634 -0.2585  0.3834 -0.0084
  102SAPE   O3210327   0.233   1.238   6.723  0.1701 -0.0274  0.0896
  102SAPE   C3210328   0.328   1.211   6.509 -0.1590  0.4549  0.3723
  102SAPE   H2X10329   0.237   1.216   6.446 -1.4004  0.0142  2.0521
  102SAPE   H2Y10330   0.336   1.102   6.530  1.0729 -0.1370 -2.6418
  102SAPE   C2310331   0.102   1.604   6.382 -0.2308 -0.6395 -0.9946
  102SAPE   H3R10332   0.029   1.617   6.299  0.2032 -1.1332 -1.4544
  102SAPE   H3S10333   0.077   1.520   6.450 -2.9685  2.7621  2.7123
  102SAPE   C2410334   0.244   1.574   6.327  0.6833 -0.7926 -0.1649
  102SAPE   H4R10335   0.241   1.474   6.277  0.6777 -0.8068 -0.1360
  102SAPE   H4S10336   0.314   1.559   6.412  0.0611  0.7951  0.6661
  102SAPE   C2510337   0.290   1.676   6.230  0.1884 -0.5361 -0.1310
  102SAPE   H5R10338   0.346   1.758   6.278  0.1992 -0.8474  0.3969
  102SAPE   C2610339   0.270   1.690   6.096  0.1271  0.4302  0.8276
  102SAPE   H6R10340   0.320   1.776   6.049 -2.6357  0.6840 -1.9752
  102SAPE   C2710341   0.181   1.595   6.010  0.0003 -0.3742 -0.6057
  102SAPE   H7R10342   0.128   1.534   6.087 -1.2727  0.8609 -0.4564
  102SAPE   H7S10343   0.244   1.525   5.952 -0.3498 -0.4024 -0.9583
  102SAPE   C2810344   0.080   1.665   5.920  0.0645  0.3468  0.3087
  102SAPE   H8R10345   0.005   1.726   5.972 -1.8739 -2.4518  1.0364
  102SAPE   C2910346   0.084   1.653   5.782  0.5897 -0.4092 -0.3115
  102SAPE   H9R10347  -0.002   1.694   5.728  0.2995  0.8971  1.0746
  102SAPE  C21010348   0.176   1.575   5.697 -0.5013  0.8839 -0.0258
  102SAPE  H10R10349   0.139   1.472   5.678  2.7983 -0.3419 -0.3328
  102SAPE  H10S10350   0.274   1.563   5.748 -0.9350 -1.8918  0.3229
  102SAPE  C21110351   0.206   1.650   5.572 -0.6535 -0.0334  0.6610
  102SAPE  H11R10352   0.252   1.748   5.591 -1.3533  0.3434  0.4439
  102SAPE  C21210353   0.211   1.596   5.449 -0.0398 -0.0373 -0.2026
  102SAPE  H12R10354   0.243   1.659   5.365  1.3974 -2.1329 -1.3057
  102SAPE  C21310355   0.176   1.456   5.414 -0.6321  0.2036  0.5362
  102SAPE  H13R10356   0.076   1.467   5.366 -0.6074  1.9758  0.7914
  102SAPE  H13S10357   0.164   1.381   5.494 -2.3497  0.9435  1.0292
  102SAPE  C21410358   0.261   1.392   5.308 -0.7702  0.2459  0.6344
  102SAPE  H14R10359   0.320   1.309   5.349  0.2376  0.5282 -0.2219
  102SAPE  C21510360   0.287   1.431   5.179  0.4185 -0.7133 -0.2337
  102SAPE  H15R10361   0.362   1.370   5.125  2.5737 -0.0056  1.7911
  102SAPE  C21610362   0.235   1.556   5.106  0.3487 -0.1704 -0.6307
  102SAPE  H16R10363   0.158   1.612   5.163  1.8285 -0.0025  1.3022
  102SAPE  H16S10364   0.183   1.528   5.012 -1.1405  0.2086  0.0440
  102SAPE  C21710365   0.356   1.640   5.064  0.5369  0.4846 -0.4830
  102SAPE  H17R10366   0.440   1.643   5.137  1.0884  0.6342 -1.1189
  102SAPE  H17S10367   0.312   1.741   5.050  0.6709  0.5530 -0.4114
  102SAPE  C21810368   0.422   1.598   4.936 -0.1739  0.4194 -0.3208
  102SAPE  H18R10369   0.461   1.494   4.945  0.8696  0.7521 -0.9317
  102SAPE  H18S10370   0.520   1.650   4.935  0.0199  0.0503 -0.9721
  102SAPE  C21910371   0.336   1.601   4.804  0.7668 -0.5710 -0.4464
  102SAPE  H19R10372   0.275   1.508   4.807  1.7706 -1.2860 -1.3309
  102SAPE  H19S10373   0.410   1.590   4.722  0.8126 -1.4103 -0.2947
  102SAPE  C22010374   0.236   1.718   4.786  0.0752  0.6533 -0.7321
  102SAPE  H20R10375   0.149   1.712   4.855 -0.5755 -1.9429 -1.6552
  102SAPE  H20S10376   0.189   1.717   4.686 -0.7961  0.5038 -0.3357
  102SAPE  H20T10377   0.291   1.813   4.801  0.7199  0.1250  0.4327
  102SAPE   C3310378   0.453   1.263   6.430 -0.9190  0.2909  0.3952
  102SAPE   H3X10379   0.549   1.237   6.478  1.0475 -0.8774 -3.6640
  102SAPE   H3Y10380   0.428   1.371   6.424 -1.3101  0.1515 -0.7326
  102SAPE   C3410381   0.463   1.202   6.288  0.4587  0.4220  0.0203
  102SAPE   H4X10382   0.516   1.283   6.233  0.0585  1.9013  1.7118
  102SAPE   H4Y10383   0.370   1.189   6.229  2.0063  0.4058 -2.5323
  102SAPE   C3510384   0.546   1.069   6.272 -0.0306 -0.2151 -0.3987
  102SAPE   H5X10385   0.514   0.990   6.343  0.1794 -0.0392 -0.1058
  102SAPE   H5Y10386   0.649   1.096   6.301 -0.3964 -0.6342  1.3656
  102SAPE   C3610387   0.553   1.016   6.127  0.3800  0.0232 -1.1525
  102SAPE   H6X10388   0.448   1.014   6.088  0.3326 -0.8558 -0.9911
  102SAPE   H6Y10389   0.592   0.912   6.124  1.5448  0.3996  0.1390
  102SAPE   C3710390   0.629   1.104   6.027 -0.2013  0.2763  0.1758
  102SAPE   H7X10391   0.735   1.111   6.060 -0.0000  0.0413 -0.4031
  102SAPE   H7Y10392   0.579   1.203   6.019 -0.4726  0.2837  1.7084
  102SAPE   C3810393   0.617   1.050   5.886 -0.2629  0.8683  0.0352
  102SAPE   H8X10394   0.512   1.045   5.848  0.8392 -3.1350 -3.2774
  102SAPE   H8Y10395   0.664   0.949   5.893 -0.9601  0.3947 -1.5484
  102SAPE   C3910396   0.703   1.126   5.781  0.8052 -0.2931  0.6541
  102SAPE   H9X10397   0.656   1.226   5.777 -0.0870 -0.7337 -1.0652
  102SAPE   H9Y10398   0.671   1.100   5.678 -1.2058  1.5206  0.7611
  102SAPE  C31010399   0.858   1.129   5.798  1.3603 -0.1488  0.3042
  102SAPE  H10X10400   0.888   1.023   5.810 -1.4386 -0.9127  1.1677
  102SAPE  H10Y10401   0.876   1.175   5.898  0.6977  1.5072 -0.3034
  102SAPE  C31110402   0.926   1.218   5.695 -0.8913  0.1553  0.0654
  102SAPE  H11X10403   1.030   1.219   5.734 -0.2564  1.7548 -1.5283
  102SAPE  H11Y10404   0.886   1.322   5.692 -2.0146 -0.1831  1.8183
  102SAPE  C31210405   0.943   1.164   5.543 -0.3428  0.1975 -0.6389
  102SAPE  H12X10406   0.838   1.143   5.514 -0.5700  2.5927 -1.8092
  102SAPE  H12Y10407   1.000   1.069   5.531  1.0401  1.1007 -1.4789
  102SAPE  C31310408   0.993   1.273   5.445  0.0221 -0.0464 -0.5271
  102SAPE  H13X10409   1.097   1.305   5.467 -0.7902  4.7523 -2.4284
  102SAPE  H13Y10410   0.941   1.371   5.453  0.2670  0.1215 -0.9567
  102SAPE  C31410411   0.983   1.228   5.295  0.2360  0.2790 -0.1814
  102SAPE  H14X10412   0.877   1.221   5.264 -0.0536  2.5849  0.1002
  102SAPE  H14Y10413   1.013   1.121   5.286  0.1282  0.3018 -0.8860
  102SAPE  C31510414   1.073   1.309   5.202 -0.0156 -0.3702  0.0671
  102SAPE  H15X10415   1.179   1.280   5.217  0.2461  0.1519 -0.7087
  102SAPE  H15Y10416   1.063   1.417   5.223 -0.3893  0.1070 -2.2966
  102SAPE  C31610417   1.045   1.277   5.050 -0.1757 -0.6549 -0.5686
  102SAPE  H16X10418   0.938   1.294   5.024 -1.4658 -1.8058  3.3053
  102SAPE  H16Y10419   1.077   1.170   5.046  2.5028 -0.2120  3.4046
  102SAPE  C31710420   1.135   1.367   4.970  0.3592 -0.3265 -0.2427
  102SAPE  H17X10421   1.234   1.362   5.018 -0.0408 -1.4169  0.5119
  102SAPE  H17Y10422   1.092   1.469   4.975 -1.7540 -1.2035  0.9808
  102SAPE  C31810423   1.165   1.310   4.832 -0.3323 -0.3142  0.7037
  102SAPE  H18X10424   1.072   1.273   4.785  1.6251 -3.9721 -0.7599
  102SAPE  H18Y10425   1.230   1.220   4.843 -0.7117 -0.8444 -1.0624
  102SAPE  H18Z10426   1.210   1.386   4.764 -1.7103 -0.8634 -0.9071
  103SAPE     N10427   5.832   6.769   2.612 -1.1513  0.4611 -0.3171
  103SAPE   HN110428   5.792   6.733   2.523 -0.7800 -0.2987 -0.1862
  103SAPE   HN210429   5.872   6.860   2.580 -1.3487  0.2704 -1.1279
  103SAPE   HN310430   5.913   6.713   2.647 -2.3224 -0.5601  0.8604
  103SAPE   C1210431   5.713   6.775   2.701 -0.0201  0.5617 -0.0331
  103SAPE  H12A10432   5.649   6.861   2.670 -0.7620  0.3359  0.8296
  103SAPE  H12B10433   5.753   6.787   2.804 -0.2051  1.1876 -0.0284
  103SAPE   C1110434   5.631   6.645   2.696 -0.2073  0.3070 -0.4700
  103SAPE  H11A10435   5.529   6.644   2.741 -0.5494 -1.7006 -1.1797
  103SAPE  H11B10436   5.693   6.574   2.754 -1.4642 -0.5278 -0.0974
  103SAPE     P10437   5.517   6.620   2.460 -0.1712  0.1699 -0.1083
  103SAPE   O1310438   5.492   6.761   2.434 -0.3548  0.3579  0.6359
  103SAPE   O1410439   5.555   6.550   2.333 -0.4013  0.1611  1.0161
  103SAPE   O1210440   5.630   6.600   2.565 -0.1301 -0.4207 -0.3274
  103SAPE   O1110441   5.393   6.549   2.519  0.2219  0.0919 -0.5664
  103SAPE    C110442   5.393   6.403   2.528  0.3834 -0.1107 -1.0952
  103SAPE    HA10443   5.294   6.367   2.493  1.0429 -2.7544 -0.4710
  103SAPE    HB10444   5.464   6.344   2.466  0.1762 -1.3892 -0.1485
  103SAPE    C210445   5.419   6.340   2.676 -0.0898  0.3531 -0.0827
  103SAPE    HS10446   5.345   6.257   2.674 -0.8151  0.9384  1.1596
  103SAPE   O2110447   5.386   6.433   2.781  0.3415 -0.0076 -0.5768
  103SAPE   C2110448   5.251   6.433   2.807 -0.3090 -0.1013 -0.1421
  103SAPE   O2210449   5.167   6.365   2.749 -0.0785 -0.7128 -0.4125
  103SAPE   C2210450   5.236   6.489   2.954  0.3806 -0.9338  0.2464
  103SAPE   H2R10451   5.261   6.400   3.015  0.1790 -1.4001 -0.3378
  103SAPE   H2S10452   5.307   6.574   2.961 -2.7399  1.8850 -0.2058
  103SAPE    C310453   5.565   6.289   2.696  0.1700 -0.0406  0.1373
  103SAPE    HX10454   5.640   6.363   2.664  1.2917 -0.2789  2.0390
  103SAPE    HY10455   5.592   6.196   2.642 -1.0736 -0.5656  0.3625
  103SAPE   O3110456   5.585   6.260   2.834 -0.2789  0.1319 -0.0889
  103SAPE   C3110457   5.539   6.147   2.877 -0.7237  0.0261 -0.2800
  103SAPE   O3210458   5.461   6.078   2.815  0.6049 -0.4788  0.4383
  103SAPE   C3210459   5.596   6.112   3.012 -0.1271  0.0166 -0.1319
  103SAPE   H2X10460   5.532   6.157   3.091  2.1793  0.4300  1.6374
  103SAPE   H2Y10461   5.700   6.149   3.027  1.0978 -2.6233 -1.4634
  103SAPE   C2310462   5.091   6.535   2.978 -0.1514  0.6583  0.1283
  103SAPE   H3R10463   5.024   6.511   2.893  2.0802  1.5305 -2.0226
  103SAPE   H3S10464   5.090   6.645   2.996 -2.1594  0.6156  0.4872
  103SAPE   C2410465   5.026   6.479   3.108 -0.2387 -0.3368 -0.1896
  103SAPE   H4R10466   4.932   6.538   3.118 -0.4271 -0.4853 -1.0340
  103SAPE   H4S10467   5.084   6.519   3.194 -2.6555 -1.6707  2.2086
  103SAPE   C2510468   4.986   6.330   3.102  0.6783 -0.3301  0.6863
  103SAPE   H5R10469   4.908   6.332   3.023  1.0459 -0.3847  0.3170
  103SAPE   C2610470   5.034   6.231   3.172 -0.1925  0.3456  0.1348
  103SAPE   H6R10471   4.990   6.131   3.156 -2.4387  1.0556  1.3675
  103SAPE   C2710472   5.139   6.239   3.282  0.7844 -0.0045  0.3673
  103SAPE   H7R10473   5.083   6.248   3.378 -0.3871 -0.5415 -0.2490
  103SAPE   H7S10474   5.191   6.335   3.264 -1.8294  1.3241 -0.5874
  103SAPE   C2810475   5.237   6.131   3.317 -0.8158 -0.6784  0.1830
  103SAPE   H8R10476   5.205   6.030   3.348  2.1642 -1.6695  0.3949
  103SAPE   C2910477   5.364   6.168   3.350  0.0104  0.0899  0.2276
  103SAPE   H9R10478   5.429   6.087   3.386  1.9863  1.1446 -0.8018
  103SAPE  C21010479   5.419   6.310   3.350  0.4337 -0.6918 -0.6514
  103SAPE  H10R10480   5.375   6.358   3.440 -1.7061 -0.9223 -1.5203
  103SAPE  H10S10481   5.384   6.380   3.272 -0.9117  1.9474  2.1081
  103SAPE  C21110482   5.568   6.305   3.381 -0.0099 -0.4687  0.2924
  103SAPE  H11R10483   5.604   6.244   3.464 -0.1277 -0.4925  0.3271
  103SAPE  C21210484   5.670   6.363   3.300 -0.0966 -0.4882 -0.6643
  103SAPE  H12R10485   5.775   6.366   3.333 -0.2611 -0.1290 -0.1653
  103SAPE  C21310486   5.642   6.463   3.193  0.0109  0.0589 -0.5288
  103SAPE  H13R10487   5.593   6.548   3.247 -0.1012 -1.3670  1.7550
  103SAPE  H13S10488   5.572   6.424   3.117  1.1059  0.3922 -1.7466
  103SAPE  C21410489   5.773   6.503   3.128  0.2845  1.0060 -0.3000
  103SAPE  H14R10490   5.802   6.450   3.036 -1.9190 -0.4468 -0.2273
  103SAPE  C21510491   5.832   6.619   3.148  0.5794  0.3190  0.4079
  103SAPE  H15R10492   5.914   6.647   3.079  0.2112  0.6977  0.1200
  103SAPE  C21610493   5.798   6.732   3.245  0.3713  0.6809  0.6344
  103SAPE  H16R10494   5.849   6.701   3.338 -1.4305 -1.0673  1.1116
  103SAPE  H16S10495   5.688   6.736   3.263 -0.1588 -2.2973 -1.1992
  103SAPE  C21710496   5.846   6.876   3.215 -0.5667  0.6288  0.7839
  103SAPE  H17R10497   5.954   6.879   3.241 -0.2077  0.2727 -0.5695
  103SAPE  H17S10498   5.786   6.936   3.286 -0.0438 -0.1711  1.9260
  103SAPE  C21810499   5.830   6.910   3.066 -0.0534 -0.0861  0.1534
  103SAPE  H18R10500   5.723   6.905   3.036  0.0116  0.8623 -0.2502
  103SAPE  H18S10501   5.890   6.843   3.002  1.4511  2.2251 -0.9940
  103SAPE  C21910502   5.885   7.051   3.034 -0.6935  0.2984  0.2724
  103SAPE  H19R10503   5.985   7.055   3.083 -0.4714 -2.7360  0.2652
  103SAPE  H19S10504   5.821   7.132   3.074 -0.3743  1.7011 -1.9278
  103SAPE  C22010505   5.891   7.060   2.882  0.5955 -0.5381  1.0520
  103SAPE  H20R10506   5.912   7.164   2.849 -1.9828 -0.4222 -0.5181
  103SAPE  H20S10507   5.790   7.047   2.837  0.1150  0.9153  1.6627
  103SAPE  H20T10508   5.959   6.985   2.837 -2.0991 -2.8799  0.5699
  103SAPE   C3310509   5.621   5.956   3.033 -0.2250  1.0176 -0.6203
  103SAPE   H3X10510   5.683   5.925   2.946 -0.3542 -0.5761 -0.1672
  103SAPE   H3Y10511   5.528   5.896   3.025  0.4596  0.0989 -2.1140
  103SAPE   C3410512   5.700   5.918   3.162 -0.2310  0.0071 -0.2437
  103SAPE   H4X10513   5.710   5.812   3.193  0.2785  0.5352  1.4915
  103SAPE   H4Y10514   5.654   5.970   3.248  2.2478  0.4295  0.9234
  103SAPE   C3510515   5.847   5.969   3.154 -0.2935 -0.5115  0.2418
  103SAPE   H5X10516   5.863   6.078   3.137  1.0885 -0.7688 -0.2791
  103SAPE   H5Y10517   5.895   5.912   3.072 -2.3659 -1.2794 -0.4956
  103SAPE   C3610518   5.914   5.923   3.287  0.3309  0.0450 -0.4224
  103SAPE   H6X10519   6.021   5.951   3.288  0.9240 -2.0096 -0.9791
  103SAPE   H6Y10520   5.905   5.812   3.294 -1.0651  0.0454 -1.6351
  103SAPE   C3710521   5.862   6.002   3.411  0.2391  0.5897  0.5449
  103SAPE   H7X10522   5.760   5.965   3.434  0.0782 -0.7329 -1.9372
  103SAPE   H7Y10523   5.845   6.104   3.369 -3.2346  0.0507  0.3129
  103SAPE   C3810524   5.951   6.011   3.531  0.7680  0.1967 -0.0554
  103SAPE   H8X10525   6.033   6.077   3.498  1.5485  0.8641  2.9321
  103SAPE   H8Y10526   5.991   5.914   3.566  0.3128 -1.3943 -3.5579
  103SAPE   C3910527   5.890   6.093   3.647  0.4472  0.1205 -0.5420
  103SAPE   H9X10528   5.845   6.188   3.613  2.9423  2.0116  1.0715
  103SAPE   H9Y10529   5.978   6.125   3.707  0.4657 -0.1713 -0.4134
  103SAPE  C31010530   5.792   6.015   3.725 -0.0673 -0.7609 -0.0835
  103SAPE  H10X10531   5.834   5.915   3.749  0.6518 -0.3050  0.6107
  103SAPE  H10Y10532   5.699   5.997   3.667 -1.3536 -0.5103  1.8304
  103SAPE  C31110533   5.761   6.081   3.856 -0.3783 -0.0081  0.3047
  103SAPE  H11X10534   5.688   6.159   3.825  1.2129  1.2423 -0.3853
  103SAPE  H11Y10535   5.849   6.129   3.903 -0.3857 -0.6445  0.9958
  103SAPE  C31210536   5.691   5.981   3.954  0.0569  0.0973  0.0055
  103SAPE  H12X10537   5.632   5.899   3.908 -1.0801 -0.2357  1.9700
  103SAPE  H12Y10538   5.622   6.049   4.008  3.2201  2.7507  1.0766
  103SAPE  C31310539   5.791   5.920   4.052 -0.3884 -0.2582  0.3239
  103SAPE  H13X10540   5.844   6.012   4.085 -0.7893 -0.1394  0.6516
  103SAPE  H13Y10541   5.861   5.852   3.999 -0.1290 -0.3590  0.7877
  103SAPE  C31410542   5.735   5.840   4.163 -0.4985  0.1970  0.2721
  103SAPE  H14X10543   5.816   5.792   4.222 -0.6519  1.5450  1.6503
  103SAPE  H14Y10544   5.678   5.750   4.132 -1.6454  0.4807  1.4863
  103SAPE  C31510545   5.653   5.926   4.260  0.0041  0.2781 -1.1850
  103SAPE  H15X10546   5.563   5.972   4.215 -1.6747  0.9673  2.5373
  103SAPE  H15Y10547   5.711   6.009   4.306  0.2642 -0.5410  0.0113
  103SAPE  C31610548   5.594   5.847   4.379 -0.1656 -0.7159  0.4996
  103SAPE  H16X10549   5.673   5.788   4.430  0.3564  0.4641  1.1060
  103SAPE  H16Y10550   5.519   5.778   4.336 -0.2551 -0.2594 -0.0850
  103SAPE  C31710551   5.529   5.925   4.489 -0.7591 -0.0052  0.3844
  103SAPE  H17X10552   5.451   5.997   4.455  2.6300  2.5961 -2.6312
  103SAPE  H17Y10553   5.611   5.985   4.534  0.7661 -1.5337 -0.2600
  103SAPE  C31810554   5.460   5.833   4.598 -0.1658  0.4041 -0.1323
  103SAPE  H18X10555   5.446   5.896   4.689  2.4469 -2.2684  2.3680
  103SAPE  H18Y10556   5.522   5.743   4.623 -0.8119 -0.2538 -0.8554
  103SAPE  H18Z10557   5.363   5.789   4.568 -0.1754  0.3546 -0.0321
  104SAPE     N10558   3.768   5.730   2.954 -0.6258 -0.1093  0.0202
  104SAPE   HN110559   3.710   5.767   3.033  1.3958  0.8688  1.1322
  104SAPE   HN210560   3.773   5.789   2.869  0.9636 -0.4692 -0.1772
  104SAPE   HN310561   3.729   5.637   2.928 -1.4199  0.3963 -0.6371
  104SAPE   C1210562   3.913   5.729   3.001 -0.8506  0.0558  0.0256
  104SAPE  H12A10563   3.970   5.647   2.953 -0.6731 -0.3940  0.9708
  104SAPE  H12B10564   3.916   5.688   3.105 -0.9885 -1.3554 -0.4982
  104SAPE   C1110565   3.963   5.872   3.011 -0.4299 -0.3393 -0.1956
  104SAPE  H11A10566   4.067   5.860   3.048 -0.8653 -1.1970  0.8188
  104SAPE  H11B10567   3.900   5.928   3.083 -0.6603 -0.6067 -0.1886
  104SAPE     P10568   4.047   6.068   2.852 -0.1241  0.3731 -0.0312
  104SAPE   O1310569   4.186   6.029   2.838 -0.1839 -0.3686  0.5703
  104SAPE   O1410570   3.997   6.132   2.734 -0.3950  0.7711 -0.0991
  104SAPE   O1210571   3.962   5.936   2.886  0.1874 -0.1848 -0.5494
  104SAPE   O1110572   4.027   6.157   2.979 -0.4721  0.2470 -0.1754
  104SAPE    C110573   3.912   6.240   2.994  0.1336  0.2151 -0.0895
  104SAPE    HA10574   3.822   6.199   2.943 -0.9175 -0.7792  2.3905
  104SAPE    HB10575   3.890   6.252   3.103 -1.3674  1.2183 -0.4703
  104SAPE    C210576   3.928   6.384   2.938 -0.3383 -0.2605  0.4029
  104SAPE    HS10577   3.939   6.387   2.828  0.0229  0.1805  0.4478
  104SAPE   O2110578   4.049   6.449   2.993  0.5246 -0.0748  0.4082
  104SAPE   C2110579   4.145   6.469   2.909 -0.3945 -0.4632  0.2641
  104SAPE   O2210580   4.151   6.434   2.793 -0.0828 -0.1252 -0.0229
  104SAPE   C2210581   4.262   6.537   2.990  0.1045 -0.0090  0.2913
  104SAPE   H2R10582   4.236   6.643   3.010  0.1021 -0.4555  3.1709
  104SAPE   H2S10583   4.267   6.488   3.090  1.9877 -2.3567 -0.8223
  104SAPE    C310584   3.813   6.477   2.959  0.1134 -0.0004  0.5101
  104SAPE    HX10585   3.736   6.441   2.888  0.7817  2.9152 -1.8569
  104SAPE    HY10586   3.832   6.582   2.929  1.3752 -0.1412  0.7579
  104SAPE   O3110587   3.764   6.453   3.092 -0.1170 -0.4316 -0.0846
  104SAPE   C3110588   3.805   6.528   3.190 -0.0230  0.1648 -0.2141
  104SAPE   O3210589   3.897   6.609   3.187  0.2471  0.2805 -0.2946
  104SAPE   C3210590   3.730   6.482   3.316 -0.0529  0.6419 -0.2546
  104SAPE   H2X10591   3.728   6.371   3.312  1.1868  0.6233 -0.7350
  104SAPE   H2Y10592   3.623   6.509   3.298 -0.0732  0.6068 -0.1877
  104SAPE   C2310593   4.403   6.515   2.922 -0.1005  0.0040  0.5171
  104SAPE   H3R10594   4.383   6.536   2.815 -1.4722 -2.8432  0.1194
  104SAPE   H3S10595   4.439   6.411   2.908  1.1723  0.5402 -0.3354
  104SAPE   C2410596   4.516   6.606   2.968 -0.2452 -0.4917  0.0471
  104SAPE   H4R10597   4.616   6.580   2.928  0.0071 -2.5689  1.8135
  104SAPE   H4S10598   4.531   6.591   3.077 -1.4972 -1.3388  0.1271
  104SAPE   C2510599   4.491   6.753   2.947 -0.5767 -0.1188  0.2713
  104SAPE   H5R10600   4.516   6.791   2.847 -0.1997 -0.5920  0.1857
  104SAPE   C2610601   4.459   6.839   3.047  0.1492 -0.1285  0.1934
  104SAPE   H6R10602   4.426   6.942   3.026 -0.2550 -0.3425 -0.2633
  104SAPE   C2710603   4.437   6.809   3.194  0.5063 -0.5995 -0.6934
  104SAPE   H7R10604   4.492   6.889   3.249 -0.0563 -1.1095  0.6505
  104SAPE   H7S10605   4.472   6.712   3.234  1.2297 -0.3828 -0.7931
  104SAPE   C2810606   4.287   6.814   3.212 -0.0989 -0.3397 -0.5155
  104SAPE   H8R10607   4.221   6.839   3.127 -0.3393  1.5461  0.1697
  104SAPE   C2910608   4.230   6.794   3.332 -0.2724 -0.4835  0.4833
  104SAPE   H9R10609   4.122   6.817   3.339 -0.1812 -0.3198  1.6303
  104SAPE  C21010610   4.298   6.790   3.471 -0.4729  0.3254  1.5157
  104SAPE  H10R10611   4.259   6.864   3.544  1.6640  0.8858  2.1691
  104SAPE  H10S10612   4.407   6.805   3.461 -0.4025 -1.2087 -0.8282
  104SAPE  C21110613   4.289   6.642   3.515 -0.3858 -1.3631  0.0085
  104SAPE  H11R10614   4.305   6.570   3.433 -1.3205 -0.8966 -0.5992
  104SAPE  C21210615   4.249   6.594   3.633 -1.2337  0.2007 -0.1770
  104SAPE  H12R10616   4.237   6.485   3.643 -2.2262  0.0766 -2.1927
  104SAPE  C21310617   4.222   6.670   3.757  0.3700 -0.4033 -0.6717
  104SAPE  H13R10618   4.116   6.663   3.789 -0.1507  3.7462 -1.0019
  104SAPE  H13S10619   4.227   6.778   3.733 -0.7852 -0.3868 -0.8952
  104SAPE  C21410620   4.314   6.644   3.867  0.0133  0.4145 -0.1076
  104SAPE  H14R10621   4.413   6.686   3.841 -1.2110  2.3950 -2.0027
  104SAPE  C21510622   4.291   6.586   3.987 -0.3805 -0.8087 -0.5893
  104SAPE  H15R10623   4.383   6.567   4.044  0.3229  0.5707 -1.2163
  104SAPE  C21610624   4.167   6.527   4.053 -0.2996 -0.7167 -0.6033
  104SAPE  H16R10625   4.089   6.525   3.974 -0.9560  1.3965 -0.0876
  104SAPE  H16S10626   4.122   6.608   4.115  0.0120  0.6610 -2.1048
  104SAPE  C21710627   4.167   6.403   4.143 -0.2302 -0.2432 -0.5724
  104SAPE  H17R10628   4.200   6.306   4.100 -0.2834 -1.0927  1.1875
  104SAPE  H17S10629   4.066   6.386   4.187  0.5232  0.4043  1.5498
  104SAPE  C21810630   4.253   6.432   4.272  0.3662  0.3398  0.4289
  104SAPE  H18R10631   4.355   6.469   4.245  0.5896 -0.7361 -0.2779
  104SAPE  H18S10632   4.259   6.336   4.328 -2.5729  0.2141  0.6524
  104SAPE  C21910633   4.185   6.528   4.370 -0.0331 -0.2651 -0.4991
  104SAPE  H19R10634   4.076   6.508   4.377  0.1330 -1.6578 -1.3497
  104SAPE  H19S10635   4.188   6.631   4.330  0.1151 -0.5756 -1.3186
  104SAPE  C22010636   4.242   6.518   4.515  0.0103  0.1780 -0.5029
  104SAPE  H20R10637   4.269   6.414   4.542  3.3957  1.6216  2.4840
  104SAPE  H20S10638   4.158   6.551   4.580 -0.1476 -0.7288 -0.2372
  104SAPE  H20T10639   4.326   6.587   4.541  1.3155 -0.8231 -1.9079
  104SAPE   C3310640   3.790   6.529   3.456 -0.5127  1.0690 -0.4751
  104SAPE   H3X10641   3.786   6.640   3.465 -0.4675  1.0950 -0.7812
  104SAPE   H3Y10642   3.898   6.501   3.451 -0.4942  1.1620 -0.6092
  104SAPE   C3410643   3.725   6.462   3.567  0.5381  1.2857  0.4496
  104SAPE   H4X10644   3.725   6.352   3.550  0.0756  1.2118  0.9022
  104SAPE   H4Y10645   3.619   6.492   3.581  0.0731  0.6557 -1.3822
  104SAPE   C3510646   3.803   6.494   3.703  0.1936 -0.1592  1.0695
  104SAPE   H5X10647   3.816   6.602   3.728  0.7077 -0.1603  0.8285
  104SAPE   H5Y10648   3.909   6.465   3.689  0.9852  2.1475  1.7139
  104SAPE   C3610649   3.741   6.440   3.831  0.3759 -0.4500 -0.8328
  104SAPE   H6X10650   3.750   6.330   3.839  0.3017 -0.4000 -0.0250
  104SAPE   H6Y10651   3.633   6.467   3.832  1.0778  2.8173  0.7932
  104SAPE   C3710652   3.793   6.498   3.968 -0.3111 -0.0900  0.1059
  104SAPE   H7X10653   3.747   6.599   3.974 -0.2188  0.0128 -0.8483
  104SAPE   H7Y10654   3.902   6.518   3.975 -0.4785  0.3489  2.3624
  104SAPE   C3810655   3.732   6.420   4.091  0.3649 -0.1556 -0.9311
  104SAPE   H8X10656   3.765   6.315   4.075  1.8092  0.2307 -0.6131
  104SAPE   H8Y10657   3.622   6.421   4.074  0.1369  1.4051  0.4532
  104SAPE   C3910658   3.779   6.472   4.225  0.8828 -1.0174  0.4703
  104SAPE   H9X10659   3.749   6.576   4.248  0.3713 -1.6247  2.9191
  104SAPE   H9Y10660   3.890   6.468   4.228  1.0328  1.2330 -0.5735
  104SAPE  C31010661   3.734   6.384   4.343 -0.0248 -0.4308  0.0362
  104SAPE  H10X10662   3.687   6.289   4.310  1.0410 -0.0758 -2.8592
  104SAPE  H10Y10663   3.650   6.439   4.390 -0.2562 -1.7381  1.2178
  104SAPE  C31110664   3.845   6.357   4.448  0.7057  0.2732 -0.5601
  104SAPE  H11X10665   3.897   6.446   4.490  0.6700  0.0874 -0.1163
  104SAPE  H11Y10666   3.918   6.297   4.389  1.6098  0.7605  0.0393
  104SAPE  C31210667   3.794   6.282   4.577  0.0083 -0.1971  0.6473
  104SAPE  H12X10668   3.729   6.207   4.527  0.0626 -0.3533  0.8102
  104SAPE  H12Y10669   3.740   6.347   4.650  0.6708  2.1655 -0.8619
  104SAPE  C31310670   3.905   6.219   4.657 -0.7837 -0.0677 -0.4599
  104SAPE  H13X10671   3.975   6.296   4.697 -3.2933  1.5388  1.0950
  104SAPE  H13Y10672   3.958   6.151   4.587  0.4299  1.1280 -0.7582
  104SAPE  C31410673   3.852   6.141   4.781 -0.6126 -0.6570 -0.1091
  104SAPE  H14X10674   3.781   6.061   4.753  0.4390 -1.4121 -0.6937
  104SAPE  H14Y10675   3.797   6.219   4.838  0.4920 -0.5851  0.9099
  104SAPE  C31510676   3.965   6.080   4.874  0.6147 -0.4493 -0.5086
  104SAPE  H15X10677   4.060   6.137   4.884  1.7120 -2.1910 -0.5912
  104SAPE  H15Y10678   4.005   5.990   4.822  0.6887  0.1897 -1.5658
  104SAPE  C31610679   3.916   6.060   5.018  0.3943  0.3259  0.5698
  104SAPE  H16X10680   3.812   6.021   5.022  0.5019  0.1093  1.2635
  104SAPE  H16Y10681   3.923   6.158   5.070  0.7796  1.3466 -1.3221
  104SAPE  C31710682   4.013   5.953   5.078  0.0212 -0.1508 -1.3010
  104SAPE  H17X10683   4.112   6.001   5.088  0.6592 -1.9497  2.8946
  104SAPE  H17Y10684   4.025   5.870   5.005 -0.1881  0.5849 -2.1908
  104SAPE  C31810685   3.968   5.902   5.215  0.8333  0.2797 -0.0379
  104SAPE  H18X10686   3.973   5.989   5.285 -1.4476 -1.0266  1.8983
  104SAPE  H18Y10687   4.033   5.815   5.239  0.2952 -0.4646 -1.2690
  104SAPE  H18Z10688   3.862   5.870   5.219  1.4121 -1.7012  0.9228
  105SAPE     N10689   2.584   2.074   2.772 -0.0904  0.0935 -0.7484
  105SAPE   HN110690   2.684   2.044   2.773 -0.1883 -0.2332 -0.7055
  105SAPE   HN210691   2.521   2.010   2.824  1.9686 -1.0810  0.4584
  105SAPE   HN310692   2.562   2.073   2.671 -1.6799  0.7672 -0.4358
  105SAPE   C1210693   2.576   2.218   2.820  0.1991  0.8673  1.1780
  105SAPE  H12A10694   2.596   2.229   2.929 -2.8054  0.0438  1.8939
  105SAPE  H12B10695   2.474   2.259   2.802  0.3789  1.6369  1.8295
  105SAPE   C1110696   2.687   2.287   2.745  0.1940 -0.2150  0.4237
  105SAPE  H11A10697   2.699   2.391   2.783 -1.7131  0.2625 -0.2065
  105SAPE  H11B10698   2.660   2.295   2.637 -1.3302  1.2318  0.8721
  105SAPE     P10699   2.924   2.246   2.858 -0.1515  0.2346 -0.2291
  105SAPE   O1310700   3.017   2.130   2.861  0.3471 -0.3269  0.0129
  105SAPE   O1410701   2.994   2.376   2.829 -0.4203 -0.0998  0.6225
  105SAPE   O1210702   2.811   2.216   2.752 -0.6947  0.4854 -0.3403
  105SAPE   O1110703   2.837   2.263   2.994  0.1959 -0.0639 -0.1859
  105SAPE    C110704   2.910   2.243   3.118  0.6387 -0.7613  0.1079
  105SAPE    HA10705   2.938   2.136   3.133 -0.5633 -0.7951  2.8641
  105SAPE    HB10706   2.990   2.319   3.127 -1.7239  2.0650 -1.2792
  105SAPE    C210707   2.809   2.282   3.239 -0.1698  0.0376  0.4695
  105SAPE    HS10708   2.793   2.391   3.230  0.9868  0.2100  0.3907
  105SAPE   O2110709   2.874   2.250   3.362 -0.0331 -0.0135  0.1142
  105SAPE   C2110710   2.961   2.344   3.399 -0.1455  0.1932  0.0362
  105SAPE   O2210711   3.008   2.438   3.334 -0.3839 -0.3823 -0.4545
  105SAPE   C2210712   2.992   2.326   3.546 -0.1551 -0.3959 -0.0944
  105SAPE   H2R10713   3.062   2.243   3.569 -0.1123 -0.4763 -0.5074
  105SAPE   H2S10714   3.045   2.420   3.572 -0.3532  0.1798 -1.7069
  105SAPE    C310715   2.677   2.198   3.232 -0.1317  0.4572  0.2623
  105SAPE    HX10716   2.698   2.094   3.266  2.4516  0.5065 -0.9290
  105SAPE    HY10717   2.652   2.184   3.125  1.6767  0.1071 -0.1549
  105SAPE   O3110718   2.573   2.251   3.320 -0.1552  0.1296 -0.3660
  105SAPE   C3110719   2.512   2.346   3.254 -0.0255  0.3903 -0.3437
  105SAPE   O3210720   2.538   2.383   3.143  0.0208  0.1863  0.3609
  105SAPE   C3210721   2.413   2.412   3.349  0.3515  0.1123 -0.1131
  105SAPE   H2X10722   2.353   2.486   3.291 -2.3565 -2.4966 -0.9082
  105SAPE   H2Y10723   2.467   2.450   3.438  0.0120 -2.5546  1.3355
  105SAPE   C2310724   2.867   2.321   3.633  0.0012  0.4165  0.1590
  105SAPE   H3R10725   2.907   2.328   3.737 -0.6745  1.0942  0.3833
  105SAPE   H3S10726   2.813   2.226   3.621 -0.1064  0.5454 -0.3773
  105SAPE   C2410727   2.762   2.428   3.597 -1.3342  0.3309  0.1403
  105SAPE   H4R10728   2.727   2.401   3.495  0.1537 -2.1453  0.2140
  105SAPE   H4S10729   2.815   2.526   3.602 -0.7597  0.0961 -0.9863
  105SAPE   C2510730   2.645   2.397   3.688  0.9418 -0.8175  0.2764
  105SAPE   H5R10731   2.598   2.298   3.682  0.6728 -0.9265  2.9935
  105SAPE   C2610732   2.591   2.469   3.784 -0.5298  0.1761 -0.1592
  105SAPE   H6R10733   2.515   2.427   3.852  1.2789 -2.8873  0.1338
  105SAPE   C2710734   2.633   2.607   3.831  0.3325  0.6936 -0.2289
  105SAPE   H7R10735   2.557   2.655   3.896  1.3978  3.0290 -0.6021
  105SAPE   H7S10736   2.631   2.661   3.734 -0.0900  0.7700 -0.1776
  105SAPE   C2810737   2.776   2.624   3.892  0.2483  0.1993  0.1749
  105SAPE   H8R10738   2.851   2.687   3.842  2.5003 -3.1379 -0.9959
  105SAPE   C2910739   2.821   2.561   4.000  0.2030  0.8552 -0.7465
  105SAPE   H9R10740   2.926   2.580   4.027 -0.1486  1.9084 -0.0454
  105SAPE  C21010741   2.759   2.458   4.089  0.3989  0.0808  0.0301
  105SAPE  H10R10742   2.840   2.395   4.134  0.6301 -0.8939 -1.6796
  105SAPE  H10S10743   2.707   2.383   4.026 -1.4129  0.2603  1.2147
  105SAPE  C21110744   2.655   2.507   4.188 -0.1923  0.1566 -0.7678
  105SAPE  H11R10745   2.588   2.587   4.154 -0.7718 -0.8376 -2.0961
  105SAPE  C21210746   2.636   2.458   4.308  0.3928 -0.3671  0.1423
  105SAPE  H12R10747   2.566   2.507   4.378 -0.8175  1.1146 -1.9998
  105SAPE  C21310748   2.707   2.338   4.368  0.5337 -0.2953 -0.2219
  105SAPE  H13R10749   2.794   2.363   4.432  1.3709  0.9083 -1.7583
  105SAPE  H13S10750   2.764   2.277   4.294  1.5830  0.3052  0.0713
  105SAPE  C21410751   2.604   2.255   4.438 -0.1065 -0.3547 -0.3166
  105SAPE  H14R10752   2.540   2.309   4.509 -2.4669 -1.6216 -1.3626
  105SAPE  C21510753   2.581   2.127   4.411 -0.3170 -1.0164 -0.0370
  105SAPE  H15R10754   2.514   2.066   4.474 -0.3505 -1.1030 -0.1561
  105SAPE  C21610755   2.665   2.035   4.317 -0.1760 -0.4659 -0.3970
  105SAPE  H16R10756   2.656   1.930   4.352 -0.9809  0.0269  0.9463
  105SAPE  H16S10757   2.773   2.063   4.326 -0.5933  0.8908  0.7315
  105SAPE  C21710758   2.620   2.058   4.169 -0.2601  0.2969 -0.2844
  105SAPE  H17R10759   2.637   2.164   4.142  1.0706  0.2038  0.0664
  105SAPE  H17S10760   2.517   2.025   4.144 -0.1498  1.5202 -2.6021
  105SAPE  C21810761   2.720   1.993   4.075  0.6100 -0.5749 -0.5237
  105SAPE  H18R10762   2.714   1.883   4.093 -2.1454 -0.1900  1.6286
  105SAPE  H18S10763   2.825   2.011   4.105  0.1974  1.7907 -0.3325
  105SAPE  C21910764   2.699   2.039   3.932 -0.2042 -0.2830 -0.1973
  105SAPE  H19R10765   2.672   2.147   3.931  0.1951 -0.1472  1.2702
  105SAPE  H19S10766   2.606   1.985   3.903 -0.5842 -0.3213  1.0460
  105SAPE  C22010767   2.810   2.009   3.830 -0.3232 -0.3063  0.1177
  105SAPE  H20R10768   2.832   1.901   3.828 -2.5981 -0.8059 -0.6630
  105SAPE  H20S10769   2.906   2.061   3.853 -0.4739  0.3802 -0.7611
  105SAPE  H20T10770   2.770   2.040   3.731 -2.4458 -0.8936  0.7295
  105SAPE   C3310771   2.302   2.309   3.399 -0.0452  0.3868 -0.3705
  105SAPE   H3X10772   2.347   2.209   3.418  0.5289  0.4707 -1.1949
  105SAPE   H3Y10773   2.229   2.304   3.316 -2.2664  2.0371  1.3680
  105SAPE   C3410774   2.214   2.357   3.518 -0.5361  0.0616 -0.0463
  105SAPE   H4X10775   2.137   2.432   3.489  1.1871  1.8250 -0.2794
  105SAPE   H4Y10776   2.280   2.405   3.592 -0.7369 -0.3043  0.3732
  105SAPE   C3510777   2.133   2.250   3.590 -0.4645  0.9537 -0.1919
  105SAPE   H5X10778   2.181   2.150   3.598 -0.3897  1.0550  0.8128
  105SAPE   H5Y10779   2.038   2.234   3.536  0.8834 -0.0219 -2.4501
  105SAPE   C3610780   2.115   2.278   3.742  0.7357  0.1107  0.3840
  105SAPE   H6X10781   2.026   2.222   3.776  0.5818 -1.1100 -1.8376
  105SAPE   H6Y10782   2.096   2.387   3.753 -1.2525 -0.3540  2.0189
  105SAPE   C3710783   2.243   2.256   3.825 -0.3126  0.1648  0.2281
  105SAPE   H7X10784   2.328   2.319   3.790  0.6139 -1.4314 -0.5093
  105SAPE   H7Y10785   2.279   2.151   3.827  1.1355  0.6022 -1.0387
  105SAPE   C3810786   2.216   2.296   3.972 -1.0651  0.0835 -0.2465
  105SAPE   H8X10787   2.128   2.235   4.002 -1.4451  1.2041  0.9989
  105SAPE   H8Y10788   2.196   2.405   3.961  0.7308  0.4909  0.1727
  105SAPE   C3910789   2.319   2.258   4.074 -0.3248  0.6593 -1.1451
  105SAPE   H9X10790   2.411   2.315   4.051  0.0851 -0.1514 -1.5433
  105SAPE   H9Y10791   2.348   2.154   4.047  0.8971  0.2452  1.4903
  105SAPE  C31010792   2.276   2.273   4.220  0.2595  0.3876  0.1902
  105SAPE  H10X10793   2.204   2.358   4.227 -1.3705 -0.8618 -0.8381
  105SAPE  H10Y10794   2.365   2.294   4.283  1.3847  0.6523 -1.4460
  105SAPE  C31110795   2.201   2.155   4.280 -0.1537  0.8026  0.7165
  105SAPE  H11X10796   2.283   2.080   4.286  0.8867  1.8122 -0.3078
  105SAPE  H11Y10797   2.130   2.110   4.208  3.0383 -3.7132  0.0143
  105SAPE  C31210798   2.117   2.181   4.410 -0.2312 -0.5259  0.4322
  105SAPE  H12X10799   2.059   2.090   4.436 -1.0994  0.4934  2.1742
  105SAPE  H12Y10800   2.051   2.265   4.378 -0.7095 -0.8642  0.5154
  105SAPE  C31310801   2.208   2.222   4.526 -0.1660 -0.0233 -0.4409
  105SAPE  H13X10802   2.286   2.293   4.490  0.0809 -0.7158 -1.3135
  105SAPE  H13Y10803   2.266   2.135   4.562 -3.4941 -1.0397  3.0684
  105SAPE  C31410804   2.137   2.287   4.641 -0.5619  0.4049 -0.5393
  105SAPE  H14X10805   2.057   2.354   4.601 -1.0061 -1.7372 -3.5770
  105SAPE  H14Y10806   2.209   2.326   4.716 -1.8803  1.5345  0.1854
  105SAPE  C31510807   2.057   2.187   4.732 -0.2013 -0.2316 -0.6357
  105SAPE  H15X10808   2.126   2.111   4.775  0.3738 -0.1834 -1.4601
  105SAPE  H15Y10809   1.988   2.130   4.665 -2.1850  0.0269  1.0706
  105SAPE  C31610810   1.986   2.246   4.851 -0.4303 -0.7422  0.0572
  105SAPE  H16X10811   1.944   2.348   4.836 -1.1703 -1.1559 -0.7176
  105SAPE  H16Y10812   2.065   2.244   4.930 -0.9277 -0.4760  0.5648
  105SAPE  C31710813   1.883   2.156   4.919 -0.6498 -0.5407  0.5503
  105SAPE  H17X10814   1.936   2.060   4.937  2.6808  0.6117 -2.1376
  105SAPE  H17Y10815   1.801   2.143   4.844 -0.3656 -1.7908  0.4269
  105SAPE  C31810816   1.825   2.222   5.047 -0.4776  0.1134 -0.4789
  105SAPE  H18X10817   1.740   2.167   5.090  0.2068 -1.7506 -1.3984
  105SAPE  H18Y10818   1.789   2.324   5.021 -2.9119 -0.8328 -1.0315
  105SAPE  H18Z10819   1.904   2.235   5.125 -0.6649  0.9819 -0.4166
  106SAPE     N10820   2.535   0.667   2.753  0.0594  0.0620  0.7133
  106SAPE   HN110821   2.559   0.580   2.702 -2.6933 -2.0361  2.6473
  106SAPE   HN210822   2.480   0.722   2.685 -0.9801 -0.7703  0.8471
  106SAPE   HN310823   2.625   0.708   2.786 -1.0031  0.0766  3.9930
  106SAPE   C1210824   2.451   0.626   2.869  0.7749 -0.2751 -0.3356
  106SAPE  H12A10825   2.346   0.614   2.837  1.1607  1.6240 -2.6547
  106SAPE  H12B10826   2.467   0.706   2.945 -0.6246 -1.8751  1.7566
  106SAPE   C1110827   2.495   0.488   2.925 -0.8194 -0.6165 -0.8751
  106SAPE  H11A10828   2.443   0.471   3.021  1.8305  1.6895  1.1186
  106SAPE  H11B10829   2.601   0.496   2.957 -0.6334  2.3391 -1.8753
  106SAPE     P10830   2.350   0.301   2.825  0.0049 -0.2878  0.0194
  106SAPE   O1310831   2.231   0.382   2.789  0.2800 -0.0217  0.2782
  106SAPE   O1410832   2.397   0.181   2.745  0.3368 -0.1001  0.2345
  106SAPE   O1210833   2.483   0.392   2.832  0.2120  0.4098 -0.0718
  106SAPE   O1110834   2.331   0.252   2.971  0.4393  0.8726  0.4156
  106SAPE    C110835   2.429   0.156   3.024  0.2756  0.5326 -0.8422
  106SAPE    HA10836   2.446   0.064   2.963  0.7333  0.4544 -0.5953
  106SAPE    HB10837   2.524   0.207   3.052  0.9822 -1.3849  0.4719
  106SAPE    C210838   2.385   0.107   3.169 -0.0896  0.2851 -0.0096
  106SAPE    HS10839   2.285   0.062   3.154 -0.1890  0.9931 -1.7474
  106SAPE   O2110840   2.370   0.220   3.249  0.2811 -0.4198  0.0295
  106SAPE   C2110841   2.292   0.213   3.355 -0.5486 -0.3791  0.6274
  106SAPE   O2210842   2.232   0.118   3.399  0.2247 -0.4796  0.4217
  106SAPE   C2210843   2.286   0.355   3.409 -0.2088  0.7534  0.9524
  106SAPE   H2R10844   2.362   0.361   3.489 -0.0280 -1.2674  0.9683
  106SAPE   H2S10845   2.302   0.429   3.327 -1.2038  0.2989  0.3209
  106SAPE    C310846   2.489   0.010   3.225 -0.1101 -0.0418  0.2643
  106SAPE    HX10847   2.590   0.056   3.234 -0.2224  0.5590 -1.3014
  106SAPE    HY10848   2.508  -0.068   3.149 -1.3911  0.7321 -0.8901
  106SAPE   O3110849   2.442  -0.053   3.338  0.6657 -0.0098 -0.2929
  106SAPE   C3110850   2.490  -0.013   3.454 -0.2594  0.7698 -0.5255
  106SAPE   O3210851   2.567   0.077   3.467 -0.8103  0.5424 -0.5024
  106SAPE   C3210852   2.419  -0.081   3.571 -0.1488  0.2288 -0.8087
  106SAPE   H2X10853   2.461  -0.184   3.576  2.3622  1.2362  0.1796
  106SAPE   H2Y10854   2.310  -0.095   3.556 -0.0934  0.5107 -1.4946
  106SAPE   C2310855   2.143   0.388   3.465  0.2388 -0.0436 -0.4408
  106SAPE   H3R10856   2.117   0.316   3.546 -0.4932  2.2797  1.5231
  106SAPE   H3S10857   2.067   0.368   3.386  0.0199 -0.2397 -0.1844
  106SAPE   C2410858   2.133   0.537   3.509  0.1610  0.4964 -0.3329
  106SAPE   H4R10859   2.029   0.567   3.534  0.5325  0.8261  0.9005
  106SAPE   H4S10860   2.168   0.599   3.424  1.3630 -0.2223 -0.4016
  106SAPE   C2510861   2.238   0.561   3.620  0.1548  0.4906  0.1808
  106SAPE   H5R10862   2.338   0.584   3.581  0.2234  2.0775  1.2214
  106SAPE   C2610863   2.219   0.571   3.757  0.2618 -0.0817 -0.1116
  106SAPE   H6R10864   2.300   0.586   3.829 -0.0799 -0.8759  0.4534
  106SAPE   C2710865   2.078   0.557   3.818 -0.4742  0.3440  0.0355
  106SAPE   H7R10866   2.011   0.499   3.751 -2.3992 -2.1364  3.7157
  106SAPE   H7S10867   2.039   0.660   3.831  1.2359  0.9004  1.0765
  106SAPE   C2810868   2.092   0.478   3.945 -0.0871  0.9463  0.0238
  106SAPE   H8R10869   2.150   0.386   3.930  1.5195  1.8309  0.5716
  106SAPE   C2910870   2.040   0.506   4.066 -0.8382 -0.3744  0.2090
  106SAPE   H9R10871   2.049   0.432   4.148 -0.9241  1.2031  1.6986
  106SAPE  C21010872   1.967   0.637   4.110  0.4872 -0.0118  0.4979
  106SAPE  H10R10873   1.858   0.616   4.104  0.1014  1.9667 -0.1697
  106SAPE  H10S10874   1.986   0.724   4.043  0.6609  1.2970  2.1969
  106SAPE  C21110875   2.001   0.700   4.245  0.1889  0.0425  0.5656
  106SAPE  H11R10876   2.072   0.784   4.238  0.5050 -0.2694 -0.0012
  106SAPE  C21210877   1.956   0.664   4.365  0.2837 -0.4674 -0.3044
  106SAPE  H12R10878   1.985   0.725   4.452 -2.3851  0.4722  0.0172
  106SAPE  C21310879   1.857   0.561   4.397 -0.1951  0.3473 -1.0138
  106SAPE  H13R10880   1.915   0.475   4.438 -0.0806  1.3928  1.1427
  106SAPE  H13S10881   1.802   0.530   4.306  0.6842  0.0298 -1.4459
  106SAPE  C21410882   1.762   0.622   4.495 -0.0183 -0.1627 -0.0148
  106SAPE  H14R10883   1.705   0.703   4.447 -1.8061 -0.1783  1.9123
  106SAPE  C21510884   1.746   0.587   4.626 -0.2501  0.4224 -0.3117
  106SAPE  H15R10885   1.678   0.646   4.689 -0.4680  0.8019 -0.8948
  106SAPE  C21610886   1.813   0.479   4.708  0.1093  0.1879  0.0114
  106SAPE  H16R10887   1.891   0.430   4.645  1.0413 -0.8762  1.9017
  106SAPE  H16S10888   1.734   0.420   4.758  0.4524  0.7818  1.2918
  106SAPE  C21710889   1.895   0.539   4.828  0.4623 -0.2490  0.5484
  106SAPE  H17R10890   1.944   0.461   4.890  0.5513  1.7896  3.2094
  106SAPE  H17S10891   1.829   0.591   4.900  0.6626  0.1395  0.4546
  106SAPE  C21810892   2.004   0.635   4.776 -0.0665  0.2204  0.5475
  106SAPE  H18R10893   1.959   0.725   4.728  2.4286  1.3055  0.0677
  106SAPE  H18S10894   2.066   0.581   4.701  0.6131  0.9450  0.5730
  106SAPE  C21910895   2.100   0.684   4.885 -0.0617  0.1316  0.2703
  106SAPE  H19R10896   2.190   0.719   4.830  1.3227  0.4046  2.5938
  106SAPE  H19S10897   2.125   0.597   4.949 -0.4378 -0.4010 -0.2888
  106SAPE  C22010898   2.040   0.792   4.968  0.2012 -0.0077  0.3448
  106SAPE  H20R10899   2.031   0.888   4.912  1.5735 -0.2054 -0.2650
  106SAPE  H20S10900   2.123   0.808   5.040  0.3750  1.0760 -0.0680
  106SAPE  H20T10901   1.949   0.757   5.020  0.0484  0.7668  0.6160
  106SAPE   C3310902   2.438  -0.003   3.704 -0.3526  0.1769  0.1017
  106SAPE   H3X10903   2.403   0.099   3.675 -0.7856 -0.1860 -0.6841
  106SAPE   H3Y10904   2.548   0.003   3.716 -0.5317  1.6647  1.4361
  106SAPE   C3410905   2.361  -0.063   3.821  0.2472 -0.0878  0.7004
  106SAPE   H4X10906   2.403  -0.166   3.822  1.3459  0.3365  0.0834
  106SAPE   H4Y10907   2.253  -0.073   3.795 -0.1081  1.0653  1.6344
  106SAPE   C3510908   2.365  -0.002   3.956 -0.3302 -0.0009  0.1147
  106SAPE   H5X10909   2.314   0.096   3.954 -0.3013  0.0425  1.0704
  106SAPE   H5Y10910   2.473   0.014   3.977  0.2392 -1.6845 -1.2289
  106SAPE   C3610911   2.292  -0.086   4.062 -0.0326  0.4541 -0.2777
  106SAPE   H6X10912   2.301  -0.196   4.056 -0.5714  0.2315  1.9896
  106SAPE   H6Y10913   2.187  -0.056   4.045  0.6138  2.2680 -1.3021
  106SAPE   C3710914   2.333  -0.055   4.203 -0.3774 -0.2631 -0.0804
  106SAPE   H7X10915   2.341   0.054   4.221  4.3226 -0.3917  0.0589
  106SAPE   H7Y10916   2.440  -0.083   4.217  0.2245  1.5401 -0.8402
  106SAPE   C3810917   2.256  -0.121   4.318 -1.1640 -0.1081  0.4284
  106SAPE   H8X10918   2.323  -0.114   4.407 -0.5205 -0.2567 -0.0315
  106SAPE   H8Y10919   2.243  -0.229   4.296  3.3898 -0.8878  0.5430
  106SAPE   C3910920   2.122  -0.059   4.342 -0.1993  0.1593  0.1898
  106SAPE   H9X10921   2.058  -0.063   4.251 -0.2980 -0.9109  0.2993
  106SAPE   H9Y10922   2.133   0.051   4.355 -0.5386  0.0045  2.0154
  106SAPE  C31010923   2.046  -0.112   4.465  0.2842 -0.1441 -0.2013
  106SAPE  H10X10924   1.939  -0.081   4.464  0.0485 -0.7341  1.6409
  106SAPE  H10Y10925   2.096  -0.052   4.544 -0.4050 -0.7131  0.6842
  106SAPE  C31110926   2.064  -0.266   4.498 -0.3003  0.8483 -0.2973
  106SAPE  H11X10927   2.166  -0.292   4.532  0.3601  0.2357 -2.6373
  106SAPE  H11Y10928   2.041  -0.323   4.406 -1.3958 -0.6620  0.8452
  106SAPE  C31210929   1.968  -0.291   4.618  0.1425 -0.0448 -0.5015
  106SAPE  H12X10930   1.878  -0.232   4.590  1.5053  1.9987 -0.7564
  106SAPE  H12Y10931   2.005  -0.250   4.714 -0.7515 -1.2543  0.3942
  106SAPE  C31310932   1.917  -0.431   4.638 -0.4178 -0.2550  0.0230
  106SAPE  H13X10933   1.892  -0.483   4.543 -1.0209 -2.8657  1.4988
  106SAPE  H13Y10934   1.832  -0.444   4.709  0.8399 -0.6446  1.5120
  106SAPE  C31410935   2.025  -0.516   4.707 -0.1681 -0.6748  0.3777
  106SAPE  H14X10936   2.048  -0.473   4.806 -0.6153  0.2820  0.0748
  106SAPE  H14Y10937   2.115  -0.517   4.640 -0.5381 -1.9060 -0.1350
  106SAPE  C31510938   1.976  -0.661   4.700 -0.0417  0.6946  0.0003
  106SAPE  H15X10939   2.060  -0.731   4.721 -1.5075 -1.7470 -1.7525
  106SAPE  H15Y10940   1.951  -0.699   4.599  1.3382 -1.1318  0.3011
  106SAPE  C31610941   1.853  -0.708   4.780 -0.1774 -0.8073 -0.5534
  106SAPE  H16X10942   1.759  -0.672   4.731  1.2077  2.4663 -1.0777
  106SAPE  H16Y10943   1.863  -0.665   4.882 -0.8189 -1.2253 -0.3073
  106SAPE  C31710944   1.851  -0.861   4.801 -0.3622  0.3152 -0.3089
  106SAPE  H17X10945   1.768  -0.905   4.860 -0.3055  0.8183  0.1586
  106SAPE  H17Y10946   1.942  -0.884   4.861 -1.8114  0.7610  2.2151
  106SAPE  C31810947   1.863  -0.950   4.675  0.3758 -0.6099 -0.3256
  106SAPE  H18X10948   1.947  -0.944   4.602 -0.4599 -2.2013 -1.4742
  106SAPE  H18Y10949   1.770  -0.949   4.615  2.3947  1.0784 -3.7575
  106SAPE  H18Z10950   1.856  -1.053   4.715  0.7245 -0.2535  0.6916
  107SAPE     N10951   4.779   3.114   2.790 -0.4131 -0.4395  0.2513
  107SAPE   HN110952   4.705   3.153   2.851  1.6111  2.0144  1.3398
  107SAPE   HN210953   4.784   3.166   2.700 -0.5949 -2.9912 -1.3358
  107SAPE   HN310954   4.757   3.015   2.765  0.4568 -0.6848  0.4037
  107SAPE   C1210955   4.915   3.118   2.857  0.3330 -0.3190  0.1298
  107SAPE  H12A10956   4.938   3.217   2.902  1.5575  0.2071 -1.5682
  107SAPE  H12B10957   4.997   3.101   2.784  0.8855 -0.7703  0.8327
  107SAPE   C1110958   4.926   3.016   2.968  0.3747 -0.7965  0.3009
  107SAPE  H11A10959   4.877   2.918   2.952  0.0832 -0.3956 -1.5450
  107SAPE  H11B10960   4.873   3.058   3.056 -2.8351  0.7112 -2.1103
  107SAPE     P10961   5.140   3.079   3.104 -0.3415  0.0882  0.4451
  107SAPE   O1310962   5.281   3.043   3.118 -0.0264 -0.5087  0.1440
  107SAPE   O1410963   5.102   3.219   3.074 -0.0890  0.5280 -0.1112
  107SAPE   O1210964   5.063   2.990   3.000  0.6288 -0.7798  0.9455
  107SAPE   O1110965   5.064   3.053   3.240 -0.1526 -0.1700 -0.6141
  107SAPE    C110966   5.101   2.944   3.326 -0.2814 -0.5733  0.0846
  107SAPE    HA10967   5.016   2.874   3.311 -0.7276  0.0638 -0.4030
  107SAPE    HB10968   5.201   2.902   3.301 -0.3674 -0.1682 -0.9750
  107SAPE    C210969   5.091   2.973   3.480  0.4709  0.0440 -0.6219
  107SAPE    HS10970   4.985   2.985   3.511  0.3067 -1.6287 -0.4517
  107SAPE   O2110971   5.166   3.092   3.515  0.2195 -0.2074  0.1026
  107SAPE   C2110972   5.110   3.167   3.604  0.6833  0.6049 -0.2711
  107SAPE   O2210973   5.002   3.140   3.662  0.4268 -0.4144  0.2119
  107SAPE   C2210974   5.184   3.294   3.630  0.3253  0.0880 -0.3612
  107SAPE   H2R10975   5.219   3.345   3.537  0.2391 -0.6819 -0.8202
  107SAPE   H2S10976   5.110   3.356   3.685 -1.2719 -0.2389 -2.0529
  107SAPE    C310977   5.134   2.841   3.559 -0.3135 -0.1341 -0.0325
  107SAPE    HX10978   5.231   2.795   3.531 -0.9951 -2.0716  0.5920
  107SAPE    HY10979   5.056   2.773   3.518  1.0626 -0.6688 -1.9058
  107SAPE   O3110980   5.123   2.853   3.702  0.4858  0.1160 -0.3475
  107SAPE   C3110981   5.227   2.886   3.773  0.1078 -0.6817 -0.2891
  107SAPE   O3210982   5.335   2.928   3.728 -0.2333 -0.7169  0.2724
  107SAPE   C3210983   5.183   2.884   3.916  0.0657  0.5230 -0.0761
  107SAPE   H2X10984   5.170   2.775   3.936 -1.3875  0.8119  0.6960
  107SAPE   H2Y10985   5.082   2.931   3.919 -1.0157 -1.3418 -2.7282
  107SAPE   C2310986   5.309   3.283   3.722 -0.2417 -0.6229  0.1691
  107SAPE   H3R10987   5.396   3.269   3.655  0.2032  0.9776  0.3767
  107SAPE   H3S10988   5.292   3.200   3.795 -0.0440 -0.1460  0.7707
  107SAPE   C2410989   5.332   3.414   3.799 -0.0111 -0.3395 -0.6611
  107SAPE   H4R10990   5.247   3.429   3.868  0.0154 -1.7935 -0.2741
  107SAPE   H4S10991   5.312   3.498   3.729 -2.3587 -1.8232 -1.9193
  107SAPE   C2510992   5.470   3.421   3.876  0.5908 -0.3723  0.0052
  107SAPE   H5R10993   5.563   3.385   3.830  0.8982 -0.9146  1.0083
  107SAPE   C2610994   5.481   3.459   4.003  0.3884 -0.5485 -0.0635
  107SAPE   H6R10995   5.570   3.448   4.066  0.0977  1.8860  0.8873
  107SAPE   C2710996   5.367   3.517   4.091 -0.1662  0.0931  0.2367
  107SAPE   H7R10997   5.277   3.560   4.042 -1.3720 -0.0461  2.2277
  107SAPE   H7S10998   5.403   3.604   4.150 -0.5153 -0.0420  0.6559
  107SAPE   C2810999   5.328   3.411   4.199 -0.1263 -0.6662  0.2562
  107SAPE   H8R11000   5.320   3.307   4.164  2.3315 -0.8057 -0.0708
  107SAPE   C2911001   5.306   3.438   4.333  0.0561 -0.9597 -0.1550
  107SAPE   H9R11002   5.283   3.355   4.401 -1.7775  0.3686  0.8884
  107SAPE  C21011003   5.307   3.579   4.397 -0.3091  0.4498 -0.2558
  107SAPE  H10R11004   5.207   3.626   4.389 -0.1986  0.5168 -1.4314
  107SAPE  H10S11005   5.382   3.645   4.349  1.1252 -1.8353 -1.3373
  107SAPE  C21111006   5.345   3.579   4.540 -0.0051 -0.8695 -0.2464
  107SAPE  H11R11007   5.451   3.603   4.561  0.5008 -0.1062 -3.1902
  107SAPE  C21211008   5.260   3.572   4.642  0.2912  0.8891  0.2552
  107SAPE  H12R11009   5.296   3.597   4.743 -3.1245  2.1350  1.3107
  107SAPE  C21311010   5.107   3.562   4.634 -0.5710  0.8626  0.2685
  107SAPE  H13R11011   5.077   3.644   4.565  0.2276  0.4924 -0.5420
  107SAPE  H13S11012   5.062   3.588   4.732 -1.3238 -0.6639  0.3638
  107SAPE  C21411013   5.054   3.431   4.594 -0.3345  0.0731  0.3896
  107SAPE  H14R11014   5.095   3.338   4.636  0.6827  0.4754  0.3151
  107SAPE  C21511015   4.964   3.406   4.496  0.3242  0.4586 -0.0049
  107SAPE  H15R11016   4.938   3.304   4.464  3.2080  0.0850 -1.5441
  107SAPE  C21611017   4.903   3.497   4.400  0.1679 -0.5635  0.3837
  107SAPE  H16R11018   4.986   3.542   4.340 -0.3860  0.2080  0.1830
  107SAPE  H16S11019   4.859   3.586   4.450  0.2721  0.2287 -0.8906
  107SAPE  C21711020   4.795   3.442   4.304 -0.1384  0.1824  0.4044
  107SAPE  H17R11021   4.785   3.522   4.228  0.8740 -0.3836 -0.3449
  107SAPE  H17S11022   4.704   3.417   4.363 -0.6023 -1.4056 -0.8983
  107SAPE  C21811023   4.839   3.326   4.214 -0.1782 -0.0625  1.1223
  107SAPE  H18R11024   4.742   3.308   4.162  0.0140  1.3391  0.2194
  107SAPE  H18S11025   4.875   3.232   4.262 -0.5973 -0.9836 -0.2925
  107SAPE  C21911026   4.936   3.364   4.103 -0.6100  0.0218  0.3030
  107SAPE  H19R11027   5.009   3.439   4.141  0.7977 -1.8626  1.5380
  107SAPE  H19S11028   4.880   3.417   4.023 -0.7403 -1.0472 -0.3402
  107SAPE  C22011029   5.004   3.245   4.027  0.0893 -0.0093 -0.1895
  107SAPE  H20R11030   5.074   3.279   3.948  1.2162 -0.0694  0.7488
  107SAPE  H20S11031   4.925   3.185   3.979 -0.8051  0.0958  1.1074
  107SAPE  H20T11032   5.069   3.192   4.100  2.2003  2.5267 -0.0695
  107SAPE   C3311033   5.283   2.929   4.021  0.2133  0.6138  0.1299
  107SAPE   H3X11034   5.312   3.034   3.997 -0.6257  0.6040 -1.0005
  107SAPE   H3Y11035   5.375   2.869   4.037 -0.0822  0.0050 -0.4193
  107SAPE   C3411036   5.238   2.953   4.160  0.2134 -1.3016  0.3216
  107SAPE   H4X11037   5.208   2.855   4.203  0.7528 -1.9064 -0.6515
  107SAPE   H4Y11038   5.144   3.011   4.174  1.8339  2.4712 -2.5983
  107SAPE   C3511039   5.353   3.015   4.244 -0.0684  0.1273 -0.2254
  107SAPE   H5X11040   5.387   3.113   4.204 -1.2019  1.0573  0.9886
  107SAPE   H5Y11041   5.439   2.946   4.232  0.8294  1.5105 -2.1589
  107SAPE   C3611042   5.315   3.029   4.394 -0.1772  0.8379  0.3805
  107SAPE   H6X11043   5.274   2.931   4.428 -0.8355 -0.6068 -3.9359
  107SAPE   H6Y11044   5.233   3.103   4.408 -1.6052 -0.8739  1.4903
  107SAPE   C3711045   5.441   3.064   4.478  0.1164 -0.3258 -0.4726
  107SAPE   H7X11046   5.457   3.173   4.476  0.1899 -0.3364 -0.4516
  107SAPE   H7Y11047   5.533   3.014   4.443  1.2245  0.5380  1.0729
  107SAPE   C3811048   5.421   3.046   4.629  1.3967  0.6434 -0.1609
  107SAPE   H8X11049   5.516   3.017   4.680  1.2434  0.6072  0.1063
  107SAPE   H8Y11050   5.334   2.982   4.652  0.5550  2.8423  3.6053
  107SAPE   C3911051   5.359   3.168   4.693 -0.5256 -0.1812 -0.4439
  107SAPE   H9X11052   5.250   3.168   4.674 -1.0588  0.6838  2.2113
  107SAPE   H9Y11053   5.401   3.268   4.669 -0.4769 -0.0560  0.1507
  107SAPE  C31011054   5.354   3.171   4.850 -0.8594  0.4658  0.0532
  107SAPE  H10X11055   5.455   3.141   4.883 -1.1800 -0.2637  0.3955
  107SAPE  H10Y11056   5.291   3.082   4.874 -0.7138 -0.0893 -1.5074
  107SAPE  C31111057   5.309   3.304   4.923  0.2864 -0.4238  0.2259
  107SAPE  H11X11058   5.236   3.355   4.857 -0.8025 -0.5428  1.3044
  107SAPE  H11Y11059   5.392   3.378   4.925 -1.0193  1.1241 -0.3021
  107SAPE  C31211060   5.241   3.272   5.056 -0.4272 -0.1023  0.1195
  107SAPE  H12X11061   5.245   3.162   5.071  0.1459 -0.5012 -2.4686
  107SAPE  H12Y11062   5.135   3.301   5.069 -0.3628  0.5472 -0.6946
  107SAPE  C31311063   5.323   3.334   5.171  0.0742 -0.4831 -0.7962
  107SAPE  H13X11064   5.324   3.445   5.167 -2.3033 -0.2952  1.2800
  107SAPE  H13Y11065   5.426   3.294   5.177  0.3808  0.4093  0.1342
  107SAPE  C31411066   5.274   3.281   5.306 -0.4214 -0.5871  0.6080
  107SAPE  H14X11067   5.335   3.325   5.387 -3.0838  1.0634  1.8510
  107SAPE  H14Y11068   5.272   3.170   5.320 -2.4359 -0.7003 -0.1587
  107SAPE  C31511069   5.121   3.306   5.340  0.1646 -0.0783  0.6892
  107SAPE  H15X11070   5.065   3.236   5.274  0.6840 -0.5689  0.7630
  107SAPE  H15Y11071   5.098   3.411   5.311  2.5969 -0.3471 -2.8589
  107SAPE  C31611072   5.087   3.273   5.486  0.7445 -0.8335 -0.1659
  107SAPE  H16X11073   5.168   3.321   5.545  3.7111 -2.6881 -2.4511
  107SAPE  H16Y11074   5.105   3.167   5.511  0.7393 -0.7256  0.3178
  107SAPE  C31711075   4.946   3.314   5.530 -0.8154 -0.6114  0.3864
  107SAPE  H17X11076   4.943   3.425   5.527  0.6987 -0.5633 -1.0595
  107SAPE  H17Y11077   4.926   3.293   5.637 -1.5466  1.7958  0.7924
  107SAPE  C31811078   4.833   3.256   5.448 -1.1461 -0.0755 -0.2642
  107SAPE  H18X11079   4.726   3.282   5.463 -1.7735 -0.8792 -2.9168
  107SAPE  H18Y11080   4.836   3.145   5.444 -0.8711 -0.0505 -3.7870
  107SAPE  H18Z11081   4.855   3.279   5.342  1.0270 -1.7672 -0.2534
  108SAPE     N11082   3.000   3.791   3.132 -0.3895 -0.4465 -0.8806
  108SAPE   HN111083   2.974   3.803   3.232 -1.7014 -1.7477 -1.0273
  108SAPE   HN211084   2.940   3.862   3.085  0.5787 -0.4999 -2.2587
  108SAPE   HN311085   2.974   3.696   3.101  0.1398 -0.6090 -0.8419
  108SAPE   C1211086   3.146   3.835   3.121 -0.7311 -0.1872 -0.7302
  108SAPE  H12A11087   3.177   3.849   3.015 -0.5712  0.1488 -0.6421
  108SAPE  H12B11088   3.206   3.756   3.170 -2.1959  0.0754  1.6093
  108SAPE   C1111089   3.180   3.976   3.176 -0.6190  0.1520  0.3168
  108SAPE  H11A11090   3.290   3.979   3.193 -0.6917 -0.5287  0.9410
  108SAPE  H11B11091   3.135   3.979   3.278 -0.8924  1.1000  0.1843
  108SAPE     P11092   2.988   4.150   3.140  0.0503 -0.0634  0.4556
  108SAPE   O1311093   2.960   4.263   3.048 -0.5610 -0.0809  0.3029
  108SAPE   O1411094   2.885   4.039   3.146 -0.3855 -0.3509 -0.0641
  108SAPE   O1211095   3.130   4.086   3.105  0.6427  0.3124  0.0668
  108SAPE   O1111096   3.010   4.207   3.285  0.4361  0.3008 -0.0031
  108SAPE    C111097   3.109   4.309   3.309  0.3690 -0.5040 -0.3692
  108SAPE    HA11098   3.207   4.280   3.265  0.6807 -0.8603  0.5231
  108SAPE    HB11099   3.084   4.406   3.262 -1.4834 -1.7191 -2.0371
  108SAPE    C211100   3.132   4.320   3.458 -0.4705  0.2170 -0.1945
  108SAPE    HS11101   3.227   4.376   3.475  0.3768 -1.4790  1.0139
  108SAPE   O2111102   3.134   4.188   3.519 -0.3572  0.0172 -0.1536
  108SAPE   C2111103   3.253   4.135   3.531  0.0196  0.1083 -0.2933
  108SAPE   O2211104   3.357   4.190   3.497 -0.5512  0.2100  0.1404
  108SAPE   C2211105   3.244   4.007   3.614  0.1447  0.1434 -0.7338
  108SAPE   H2R11106   3.139   3.998   3.651  0.5936  1.6149  1.0316
  108SAPE   H2S11107   3.272   3.921   3.549 -2.2145  0.0418 -1.7328
  108SAPE    C311108   3.023   4.398   3.531 -0.2478 -0.0855 -0.3360
  108SAPE    HX11109   2.934   4.333   3.518  0.4362 -0.7335 -2.0396
  108SAPE    HY11110   3.010   4.497   3.483  1.7033 -0.5326 -1.9180
  108SAPE   O3111111   3.056   4.427   3.670  0.8393  0.0695  0.1888
  108SAPE   C3111112   2.988   4.357   3.757 -0.4380 -0.2151 -0.3525
  108SAPE   O3211113   2.916   4.260   3.734  0.8746 -0.3849 -0.3338
  108SAPE   C3211114   3.005   4.413   3.903  0.0127 -0.3064  0.5048
  108SAPE   H2X11115   3.065   4.506   3.909  0.1404 -0.4394  1.5181
  108SAPE   H2Y11116   3.043   4.324   3.958  0.9865 -0.1175  0.1508
  108SAPE   C2311117   3.332   3.997   3.740 -0.4948  0.2301  0.4899
  108SAPE   H3R11118   3.328   3.891   3.774  0.4273  0.3413  0.9858
  108SAPE   H3S11119   3.292   4.065   3.818  1.1955  1.8900 -0.0253
  108SAPE   C2411120   3.487   4.030   3.724  0.4820  0.5537 -0.2757
  108SAPE   H4R11121   3.505   4.020   3.834 -2.3271 -0.2414  0.1835
  108SAPE   H4S11122   3.504   4.132   3.685  1.8445 -0.2341 -1.8872
  108SAPE   C2511123   3.583   3.939   3.650  0.3906  0.7625 -0.4030
  108SAPE   H5R11124   3.610   3.980   3.551 -1.1522  2.3912 -0.2002
  108SAPE   C2611125   3.623   3.816   3.684  0.3320  0.4129 -0.3326
  108SAPE   H6R11126   3.698   3.770   3.618 -0.0838  1.9713 -1.9548
  108SAPE   C2711127   3.573   3.732   3.805 -0.1673  0.2220  0.2328
  108SAPE   H7R11128   3.520   3.796   3.878  1.7848  1.6829  0.4102
  108SAPE   H7S11129   3.662   3.690   3.856 -2.4201 -1.5211  3.0682
  108SAPE   C2811130   3.487   3.617   3.761 -0.2633 -0.2095  0.2464
  108SAPE   H8R11131   3.519   3.561   3.672 -2.0828  1.4069 -1.5363
  108SAPE   C2911132   3.360   3.586   3.818 -0.7201 -0.1150 -0.5499
  108SAPE   H9R11133   3.303   3.501   3.776  1.9039 -2.0862 -0.3963
  108SAPE  C21011134   3.296   3.640   3.936  0.1892  0.0619  0.4649
  108SAPE  H10R11135   3.344   3.729   3.981 -3.5440  2.2795  0.5060
  108SAPE  H10S11136   3.299   3.565   4.017  2.8229  0.6330  0.9741
  108SAPE  C21111137   3.158   3.687   3.909  0.4997  0.1170  0.2096
  108SAPE  H11R11138   3.146   3.787   3.865 -0.9764  0.4549  1.2795
  108SAPE  C21211139   3.050   3.611   3.940 -0.0250 -0.3027  0.8802
  108SAPE  H12R11140   2.952   3.655   3.915  0.5029  0.9083  0.8487
  108SAPE  C21311141   3.044   3.481   4.019 -0.1689 -1.1428  0.0953
  108SAPE  H13R11142   3.122   3.479   4.099 -0.2501 -1.3740  0.1701
  108SAPE  H13S11143   3.080   3.403   3.948  1.0355 -0.9098  0.4270
  108SAPE  C21411144   2.903   3.453   4.067 -0.0967  0.6206 -0.1926
  108SAPE  H14R11145   2.833   3.415   3.991  1.0775  0.5133 -1.2566
  108SAPE  C21511146   2.868   3.432   4.197  0.1851 -0.4320 -0.2210
  108SAPE  H15R11147   2.762   3.411   4.217 -0.3467  2.0436 -0.1284
  108SAPE  C21611148   2.960   3.444   4.323  0.1257 -0.5341  0.2877
  108SAPE  H16R11149   2.914   3.509   4.401 -0.5823 -0.8066  0.1065
  108SAPE  H16S11150   3.048   3.497   4.282 -0.5174  0.5297  0.2308
  108SAPE  C21711151   3.004   3.330   4.402 -0.2456 -0.6285 -0.0373
  108SAPE  H17R11152   3.062   3.384   4.480  0.5412 -0.9421 -0.3940
  108SAPE  H17S11153   3.070   3.264   4.342  1.6989  1.5216 -0.4234
  108SAPE  C21811154   2.884   3.255   4.471  0.2972 -0.2237  0.0888
  108SAPE  H18R11155   2.935   3.178   4.533  2.4572  1.4376  0.5149
  108SAPE  H18S11156   2.819   3.205   4.397  1.8733 -0.8472 -0.9306
  108SAPE  C21911157   2.799   3.347   4.559 -0.4623  0.7028  0.7618
  108SAPE  H19R11158   2.728   3.404   4.496 -0.5994 -0.5758 -0.2928
  108SAPE  H19S11159   2.868   3.417   4.610  1.1681  1.2151 -1.9463
  108SAPE  C22011160   2.722   3.256   4.653 -0.5781  0.5888  0.0724
  108SAPE  H20R11161   2.670   3.190   4.581 -1.3006  1.8876 -0.6452
  108SAPE  H20S11162   2.643   3.324   4.692  0.1827  1.2968  0.4108
  108SAPE  H20T11163   2.777   3.204   4.734  1.3761  0.6102 -1.1794
  108SAPE   C3311164   2.866   4.437   3.957  0.7010 -0.7653 -0.5850
  108SAPE   H3X11165   2.791   4.354   3.956 -1.2357  0.8848  0.1360
  108SAPE   H3Y11166   2.816   4.506   3.885  1.6262  0.5257  0.0007
  108SAPE   C3411167   2.869   4.472   4.104  0.5766  0.3423 -0.3363
  108SAPE   H4X11168   2.935   4.560   4.119  0.4358  0.1444  1.6678
  108SAPE   H4Y11169   2.900   4.373   4.145  0.7379  0.7496  0.5399
  108SAPE   C3511170   2.733   4.507   4.156  0.9199  0.2410  0.1126
  108SAPE   H5X11171   2.699   4.598   4.103 -0.7822 -0.4894 -0.1024
  108SAPE   H5Y11172   2.661   4.428   4.125  1.9175 -0.5732 -0.2209
  108SAPE   C3611173   2.722   4.532   4.309  0.5752 -0.4584  0.2959
  108SAPE   H6X11174   2.741   4.436   4.361 -1.9777 -0.2472  1.7603
  108SAPE   H6Y11175   2.614   4.552   4.327  0.8765  0.9560  0.6150
  108SAPE   C3711176   2.828   4.633   4.361  1.1405 -0.3782 -0.2536
  108SAPE   H7X11177   2.930   4.596   4.338  0.6752 -0.3613 -2.5566
  108SAPE   H7Y11178   2.824   4.636   4.472  0.0082 -2.3181 -0.1815
  108SAPE   C3811179   2.814   4.775   4.310  0.1894 -0.6946  0.3479
  108SAPE   H8X11180   2.721   4.826   4.342  0.1992  0.7248 -1.6399
  108SAPE   H8Y11181   2.823   4.782   4.199 -0.1421  2.5397  0.4245
  108SAPE   C3911182   2.928   4.872   4.378  0.8849  0.5456  0.4850
  108SAPE   H9X11183   2.918   4.969   4.324  3.0659  0.2482 -0.5439
  108SAPE   H9Y11184   3.021   4.826   4.338  1.1347 -0.0640  1.7274
  108SAPE  C31011185   2.927   4.891   4.530 -0.2494 -0.0472 -0.1008
  108SAPE  H10X11186   2.854   4.827   4.585  0.5883  0.9079  2.2474
  108SAPE  H10Y11187   2.912   4.999   4.548  0.0139 -0.0175 -0.0489
  108SAPE  C31111188   3.068   4.873   4.586 -0.1593  0.7988 -0.2420
  108SAPE  H11X11189   3.139   4.885   4.501  0.9382 -2.2618  0.1213
  108SAPE  H11Y11190   3.088   4.774   4.632 -0.1838  1.2316  0.7019
  108SAPE  C31211191   3.106   4.987   4.690  0.1357  0.4143 -0.3841
  108SAPE  H12X11192   3.016   5.001   4.754 -0.6625 -0.4047 -1.2953
  108SAPE  H12Y11193   3.112   5.084   4.637  0.2669  0.9425  0.5884
  108SAPE  C31311194   3.238   4.956   4.766  0.7768  0.3130  0.2375
  108SAPE  H13X11195   3.318   4.941   4.690  1.2818 -1.2228  1.0228
  108SAPE  H13Y11196   3.219   4.856   4.812 -0.5901  0.7077  0.5860
  108SAPE  C31411197   3.279   5.052   4.879 -0.3470  0.2395 -0.3041
  108SAPE  H14X11198   3.212   5.044   4.967  1.7425  1.9783  1.5774
  108SAPE  H14Y11199   3.257   5.155   4.843  2.5404  1.4750  1.1581
  108SAPE  C31511200   3.426   5.054   4.911 -0.4403 -0.2151  0.1107
  108SAPE  H15X11201   3.489   5.086   4.825 -0.6319  1.0181  0.4152
  108SAPE  H15Y11202   3.460   4.955   4.948 -0.6499  0.3439  1.8832
  108SAPE  C31611203   3.454   5.151   5.022  0.3115 -0.4334 -0.1024
  108SAPE  H16X11204   3.537   5.115   5.086 -0.1032  0.8206  1.1915
  108SAPE  H16Y11205   3.366   5.168   5.087  1.0664  3.1497  0.1906
  108SAPE  C31711206   3.506   5.289   4.972 -0.0424 -0.3408  0.1146
  108SAPE  H17X11207   3.430   5.326   4.900  0.1297 -3.6474 -1.9812
  108SAPE  H17Y11208   3.604   5.294   4.919 -0.8887  2.6840 -1.4322
  108SAPE  C31811209   3.500   5.379   5.097 -0.1866 -0.1323  0.3556
  108SAPE  H18X11210   3.549   5.477   5.078  0.6609 -0.6315 -0.1013
  108SAPE  H18Y11211   3.551   5.332   5.184 -0.1765 -2.4747 -0.8437
  108SAPE  H18Z11212   3.394   5.392   5.128 -1.0081  3.2150 -3.1006
  109SAPE     N11213   6.372   2.211   3.016 -0.1992 -0.1806  0.3540
  109SAPE   HN111214   6.387   2.110   3.033 -2.3147 -0.2748  2.1659
  109SAPE   HN211215   6.459   2.267   3.025 -1.0663  0.9674  2.3641
  109SAPE   HN311216   6.312   2.252   3.091 -1.8157 -1.5381 -0.1423
  109SAPE   C1211217   6.317   2.251   2.882  0.0579  0.1729 -0.6365
  109SAPE  H12A11218   6.314   2.162   2.816 -1.8301 -0.2282 -0.0740
  109SAPE  H12B11219   6.369   2.339   2.839 -1.7676  1.1008 -1.0414
  109SAPE   C1111220   6.167   2.294   2.896 -0.4097  0.3597 -0.0584
  109SAPE  H11A11221   6.124   2.293   2.794 -2.2332  0.2220  0.6746
  109SAPE  H11B11222   6.165   2.395   2.944 -1.4240  0.5243 -0.4246
  109SAPE     P11223   5.949   2.166   2.974 -0.0995  0.1150  0.3725
  109SAPE   O1311224   5.886   2.240   2.863 -0.3274  0.4895  0.8708
  109SAPE   O1411225   5.928   2.022   2.981 -0.1129 -0.2079  0.1213
  109SAPE   O1211226   6.103   2.196   2.977  0.5290  0.3257  0.4542
  109SAPE   O1111227   5.904   2.234   3.111 -0.4398 -0.0297 -0.6489
  109SAPE    C111228   5.887   2.376   3.117  0.2694  0.2059 -0.0474
  109SAPE    HA11229   5.977   2.440   3.098  0.0591  0.8702  1.1220
  109SAPE    HB11230   5.801   2.406   3.053 -0.0559  1.0448  0.7537
  109SAPE    C211231   5.844   2.414   3.264  0.2132 -0.5405  0.4145
  109SAPE    HS11232   5.937   2.401   3.323 -0.7265  0.9501  2.3232
  109SAPE   O2111233   5.746   2.326   3.313  0.2845  0.0438  0.0936
  109SAPE   C2111234   5.750   2.305   3.439  0.5996 -0.6318 -0.0084
  109SAPE   O2211235   5.826   2.359   3.518 -0.3719 -0.2635 -0.3617
  109SAPE   C2211236   5.648   2.202   3.474  0.8234  0.5010  0.0721
  109SAPE   H2R11237   5.634   2.138   3.384 -0.1070  0.9033 -0.0706
  109SAPE   H2S11238   5.693   2.143   3.557 -0.5819 -0.6316  0.0738
  109SAPE    C311239   5.789   2.560   3.254  0.1342  0.2475 -0.3611
  109SAPE    HX11240   5.692   2.584   3.206 -0.4007 -1.6404 -0.3192
  109SAPE    HY11241   5.864   2.614   3.192  0.5480  0.6684  0.4839
  109SAPE   O3111242   5.787   2.618   3.387  0.0150 -0.0824  0.5966
  109SAPE   C3111243   5.671   2.624   3.449  0.1413 -0.2204  0.2285
  109SAPE   O3211244   5.561   2.590   3.406 -0.3322 -0.4535 -0.1509
  109SAPE   C3211245   5.700   2.670   3.589 -0.1773 -0.1244  0.7543
  109SAPE   H2X11246   5.694   2.780   3.595 -0.9450 -0.1226  0.0968
  109SAPE   H2Y11247   5.809   2.652   3.598  0.0028  0.1004 -0.7441
  109SAPE   C2311248   5.502   2.249   3.501 -0.6880 -0.3232  0.2383
  109SAPE   H3R11249   5.468   2.290   3.403  0.5493  1.0770  0.3680
  109SAPE   H3S11250   5.499   2.322   3.584 -3.0286 -2.0818  1.8247
  109SAPE   C2411251   5.404   2.132   3.545 -0.8370  0.0358  0.1668
  109SAPE   H4R11252   5.398   2.067   3.455  1.7747 -1.6737  1.1065
  109SAPE   H4S11253   5.304   2.182   3.549 -0.6868  0.6336 -2.0372
  109SAPE   C2511254   5.454   2.057   3.662 -0.0161 -0.1938 -0.3099
  109SAPE   H5R11255   5.439   2.105   3.760  0.2914 -0.8043  0.0424
  109SAPE   C2611256   5.514   1.934   3.671  0.2256  0.4061  0.0153
  109SAPE   H6R11257   5.531   1.898   3.774 -1.9540  1.0844  0.6608
  109SAPE   C2711258   5.544   1.842   3.555  0.3212  0.0501  0.1237
  109SAPE   H7R11259   5.479   1.870   3.469  0.5406 -0.1950 -0.1224
  109SAPE   H7S11260   5.503   1.742   3.579  0.0284 -0.1421 -1.0791
  109SAPE   C2811261   5.695   1.834   3.524  0.2277  0.6987 -0.0753
  109SAPE   H8R11262   5.720   1.892   3.434  1.0658 -0.4604 -0.6165
  109SAPE   C2911263   5.787   1.773   3.601  0.0337  0.3548 -0.1138
  109SAPE   H9R11264   5.890   1.774   3.562 -0.3922  1.3844 -1.3038
  109SAPE  C21011265   5.758   1.697   3.730 -0.2866 -0.4579 -0.4000
  109SAPE  H10R11266   5.665   1.734   3.779  0.4249  2.7554 -1.2827
  109SAPE  H10S11267   5.821   1.734   3.814  0.7972  0.5019 -1.6052
  109SAPE  C21111268   5.748   1.549   3.717  0.4839  0.2818 -0.2363
  109SAPE  H11R11269   5.716   1.514   3.618 -1.4410  0.4832  0.2686
  109SAPE  C21211270   5.782   1.459   3.804  0.1271  0.1105 -0.2054
  109SAPE  H12R11271   5.773   1.353   3.775  0.7855  0.4928 -1.9259
  109SAPE  C21311272   5.819   1.477   3.951 -0.2319 -0.4452 -0.2893
  109SAPE  H13R11273   5.839   1.587   3.956  0.1749 -0.4432 -1.7360
  109SAPE  H13S11274   5.910   1.415   3.964  0.7150  0.6096 -1.5681
  109SAPE  C21411275   5.705   1.441   4.036  0.3355 -0.0028 -0.3447
  109SAPE  H14R11276   5.635   1.365   3.999 -1.2239  1.7970 -1.3332
  109SAPE  C21511277   5.659   1.513   4.146  0.4383  0.0398 -0.4995
  109SAPE  H15R11278   5.575   1.474   4.205  0.9794 -1.4973 -0.6962
  109SAPE  C21611279   5.729   1.627   4.214  0.0626 -0.0877 -0.0476
  109SAPE  H16R11280   5.806   1.672   4.148 -0.8356 -0.7548 -1.5928
  109SAPE  H16S11281   5.773   1.596   4.311  0.4736  0.9463  0.1087
  109SAPE  C21711282   5.635   1.742   4.253  0.5063  0.5925  1.0696
  109SAPE  H17R11283   5.549   1.749   4.184  1.0892 -2.5032 -0.1373
  109SAPE  H17S11284   5.687   1.837   4.228 -0.3983  0.2523 -2.6611
  109SAPE  C21811285   5.585   1.732   4.399 -0.6911  0.0274 -0.3655
  109SAPE  H18R11286   5.515   1.815   4.422  0.2033 -0.1012  3.6439
  109SAPE  H18S11287   5.675   1.752   4.462 -1.0690 -1.6482  0.7782
  109SAPE  C21911288   5.536   1.598   4.448  0.5705  0.0078 -0.1626
  109SAPE  H19R11289   5.620   1.526   4.445  1.6722  1.1258  2.0162
  109SAPE  H19S11290   5.460   1.575   4.370  2.6163 -0.4319 -2.1167
  109SAPE  C22011291   5.469   1.600   4.592  0.1140  0.3345 -0.4544
  109SAPE  H20R11292   5.540   1.626   4.673  0.1055 -0.6410 -0.1285
  109SAPE  H20S11293   5.421   1.500   4.595  1.7061 -0.4949 -1.1136
  109SAPE  H20T11294   5.397   1.684   4.601 -1.5328 -1.1476  0.7807
  109SAPE   C3311295   5.635   2.597   3.707 -0.3717 -0.6507  0.1129
  109SAPE   H3X11296   5.687   2.643   3.794  0.6393  0.3499 -0.9752
  109SAPE   H3Y11297   5.658   2.489   3.698  0.9168 -0.6864  2.9083
  109SAPE   C3411298   5.484   2.634   3.724 -0.8847  0.5718 -0.5069
  109SAPE   H4X11299   5.433   2.600   3.632 -0.5940  0.5171 -0.6494
  109SAPE   H4Y11300   5.485   2.745   3.733  1.2287  0.6428 -1.0189
  109SAPE   C3511301   5.420   2.559   3.844  0.4013 -0.1969  0.6588
  109SAPE   H5X11302   5.425   2.449   3.829 -2.5324 -0.0379 -3.2966
  109SAPE   H5Y11303   5.315   2.594   3.852  0.1291 -1.1456  1.3706
  109SAPE   C3611304   5.493   2.579   3.977 -0.0505 -0.4791  0.2068
  109SAPE   H6X11305   5.499   2.690   3.980  0.6038 -0.4980 -0.2786
  109SAPE   H6Y11306   5.593   2.531   3.982  0.2904  0.2171  0.2487
  109SAPE   C3711307   5.405   2.535   4.089  0.4969 -0.0548  0.4426
  109SAPE   H7X11308   5.387   2.425   4.085  1.3352 -0.1454 -1.7640
  109SAPE   H7Y11309   5.309   2.589   4.074  0.6584 -0.0806 -0.7945
  109SAPE   C3811310   5.464   2.570   4.224  0.1569  0.3446 -0.1869
  109SAPE   H8X11311   5.492   2.678   4.224 -1.7129  0.8768 -0.9343
  109SAPE   H8Y11312   5.554   2.507   4.236  0.5825  0.5379 -2.1859
  109SAPE   C3911313   5.366   2.539   4.343  0.7034 -0.2667 -0.0859
  109SAPE   H9X11314   5.360   2.431   4.369 -2.9991 -0.0998  0.2352
  109SAPE   H9Y11315   5.262   2.570   4.321  1.2129  1.4110 -0.2787
  109SAPE  C31011316   5.402   2.619   4.473 -0.4432  0.7795 -0.3365
  109SAPE  H10X11317   5.324   2.592   4.547  1.3501 -0.3514  1.2144
  109SAPE  H10Y11318   5.408   2.728   4.452  1.3481  0.7930  0.1484
  109SAPE  C31111319   5.531   2.578   4.532 -0.5295  0.5742 -0.0044
  109SAPE  H11X11320   5.620   2.629   4.488 -0.0690  1.5795  1.9703
  109SAPE  H11Y11321   5.550   2.470   4.517  1.5762  0.4124  2.9741
  109SAPE  C31211322   5.532   2.612   4.676 -0.5955  0.2903  0.5668
  109SAPE  H12X11323   5.437   2.602   4.733 -0.5202  1.8105  0.9827
  109SAPE  H12Y11324   5.561   2.716   4.701 -1.8873  0.7868  0.0907
  109SAPE  C31311325   5.643   2.517   4.732 -0.2375  0.3149  0.0515
  109SAPE  H13X11326   5.720   2.522   4.652  0.3404  1.1168  0.6418
  109SAPE  H13Y11327   5.621   2.408   4.738  0.1133  0.0796 -2.0392
  109SAPE  C31411328   5.689   2.567   4.872 -0.4554  0.6667 -0.4676
  109SAPE  H14X11329   5.620   2.547   4.957  2.1083 -0.5588  1.4440
  109SAPE  H14Y11330   5.703   2.677   4.862 -2.6314  1.2785  1.9443
  109SAPE  C31511331   5.822   2.499   4.909  0.1128  0.6495  0.0871
  109SAPE  H15X11332   5.902   2.524   4.837 -0.7466 -0.1375 -1.1830
  109SAPE  H15Y11333   5.805   2.390   4.899 -1.8071  0.8518  0.6723
  109SAPE  C31611334   5.875   2.527   5.054  0.6015 -0.0204 -0.0496
  109SAPE  H16X11335   5.906   2.634   5.053 -1.2827  0.5687  0.1850
  109SAPE  H16Y11336   5.967   2.464   5.057  2.8590  2.9853 -1.0831
  109SAPE  C31711337   5.778   2.486   5.169  0.0220 -0.7928 -0.1622
  109SAPE  H17X11338   5.690   2.553   5.155  0.6045  0.1846  0.6584
  109SAPE  H17Y11339   5.817   2.500   5.272  1.1327 -1.4820 -0.4731
  109SAPE  C31811340   5.747   2.341   5.158  0.0107  0.3491  0.3007
  109SAPE  H18X11341   5.693   2.317   5.064  1.8871 -0.2912 -0.6556
  109SAPE  H18Y11342   5.689   2.316   5.250 -1.7956  0.9545 -0.6369
  109SAPE  H18Z11343   5.832   2.269   5.164 -1.1648 -0.9908  2.2558
  110SAPE     N11344   6.788   6.969   2.644  0.1003  0.1508  0.4098
  110SAPE   HN111345   6.853   7.047   2.623  0.4098  0.0457  0.9519
  110SAPE   HN211346   6.844   6.889   2.681  0.5592 -1.0797 -2.6595
  110SAPE   HN311347   6.734   6.938   2.561 -1.1908 -2.8032  2.1595
  110SAPE   C1211348   6.692   7.011   2.749 -0.4414 -0.5234  0.2774
  110SAPE  H12A11349   6.755   7.019   2.840  0.8427 -1.3104 -0.4983
  110SAPE  H12B11350   6.618   6.929   2.759 -0.2083 -0.5754  1.6595
  110SAPE   C1111351   6.624   7.136   2.700 -0.4363  0.8328 -0.0122
  110SAPE  H11A11352   6.693   7.220   2.722  0.6645 -0.0181 -0.1355
  110SAPE  H11B11353   6.551   7.152   2.782  1.4959 -0.4162  2.0654
  110SAPE     P11354   6.508   7.255   2.508 -0.3949 -0.2751  0.3565
  110SAPE   O1311355   6.610   7.330   2.430  0.5932  0.6088 -0.3419
  110SAPE   O1411356   6.381   7.234   2.440  0.0941  0.6257 -0.2983
  110SAPE   O1211357   6.557   7.122   2.569  0.4858  0.3205  0.4147
  110SAPE   O1111358   6.485   7.352   2.641 -0.2816 -0.4754  0.7030
  110SAPE    C111359   6.349   7.356   2.683 -0.6661  0.3929  0.2282
  110SAPE    HA11360   6.289   7.412   2.608 -0.3859 -0.5644 -0.7431
  110SAPE    HB11361   6.315   7.251   2.702  1.3301 -0.4958 -0.8558
  110SAPE    C211362   6.336   7.442   2.815 -0.6495 -0.0320 -0.4710
  110SAPE    HS11363   6.413   7.522   2.806 -0.4730 -0.1027  0.3559
  110SAPE   O2111364   6.366   7.361   2.933 -0.0030 -0.2659  0.0167
  110SAPE   C2111365   6.433   7.416   3.034 -0.4547  0.3728  0.3268
  110SAPE   O2211366   6.496   7.522   3.024  0.0222 -0.5084  0.1730
  110SAPE   C2211367   6.429   7.325   3.160  0.3205 -0.4636  0.2266
  110SAPE   H2R11368   6.330   7.338   3.210  1.5233  2.5059  2.1158
  110SAPE   H2S11369   6.447   7.221   3.124  0.2243 -0.5749  0.4990
  110SAPE    C311370   6.197   7.509   2.827 -0.5701 -0.1530  0.6206
  110SAPE    HX11371   6.167   7.556   2.730  0.0291 -0.1760  0.4176
  110SAPE    HY11372   6.133   7.433   2.875 -0.6842  0.7414  1.9390
  110SAPE   O3111373   6.195   7.612   2.929  0.3506  0.0323 -0.0865
  110SAPE   C3111374   6.259   7.724   2.883  0.1104  0.2556  0.3148
  110SAPE   O3211375   6.307   7.739   2.774 -0.0627 -0.3431 -0.3318
  110SAPE   C3211376   6.246   7.826   3.000 -0.5314  0.2639  0.2519
  110SAPE   H2X11377   6.255   7.776   3.099 -2.4485 -0.3466  0.1710
  110SAPE   H2Y11378   6.140   7.860   2.990 -0.8757 -1.2623 -2.0448
  110SAPE   C2311379   6.524   7.377   3.277  0.2251  0.7087  0.2378
  110SAPE   H3R11380   6.626   7.393   3.236  0.7123  1.1947  1.5916
  110SAPE   H3S11381   6.541   7.295   3.350 -1.8991 -1.4586 -1.5189
  110SAPE   C2411382   6.480   7.521   3.330 -0.7917  0.2478 -0.0674
  110SAPE   H4R11383   6.440   7.588   3.251  1.4662 -0.2033 -1.6793
  110SAPE   H4S11384   6.579   7.560   3.360  0.7164 -1.9180 -1.8825
  110SAPE   C2511385   6.392   7.516   3.458 -0.3799 -0.1745  0.0109
  110SAPE   H5R11386   6.294   7.567   3.460 -0.3230 -0.0409  2.4399
  110SAPE   C2611387   6.428   7.474   3.575 -0.5548  0.5334  0.5499
  110SAPE   H6R11388   6.360   7.485   3.661 -0.9861 -1.2433  0.4850
  110SAPE   C2711389   6.566   7.411   3.606 -0.1528 -0.0116 -0.1243
  110SAPE   H7R11390   6.639   7.429   3.525 -0.1058 -2.8576 -0.8298
  110SAPE   H7S11391   6.559   7.301   3.589  1.9531 -0.0910 -0.7100
  110SAPE   C2811392   6.628   7.440   3.738  0.2512 -0.5904  0.4709
  110SAPE   H8R11393   6.700   7.524   3.741  1.0172 -0.9735 -3.1543
  110SAPE   C2911394   6.581   7.384   3.853  0.2020  0.2093  0.4755
  110SAPE   H9R11395   6.625   7.423   3.946  0.9593 -0.8504  0.5758
  110SAPE  C21011396   6.492   7.262   3.866  0.3326  0.4283 -0.5088
  110SAPE  H10R11397   6.552   7.169   3.873  0.4445  0.5717  0.7282
  110SAPE  H10S11398   6.437   7.242   3.772 -0.8865 -0.8519  0.4179
  110SAPE  C21111399   6.383   7.280   3.978 -0.1065 -0.4788  0.5602
  110SAPE  H11R11400   6.321   7.370   3.966 -0.0641 -0.5044  0.1366
  110SAPE  C21211401   6.360   7.192   4.073 -0.3128  0.0216  0.7799
  110SAPE  H12R11402   6.288   7.214   4.153 -0.3003 -1.2317  1.1535
  110SAPE  C21311403   6.440   7.069   4.108 -0.3425 -0.9403  0.6778
  110SAPE  H13R11404   6.405   7.040   4.209 -1.1098 -1.7518  0.1981
  110SAPE  H13S11405   6.547   7.095   4.120 -0.0399 -2.3967  1.3734
  110SAPE  C21411406   6.423   6.942   4.029  1.0053  0.3166 -0.6223
  110SAPE  H14R11407   6.393   6.951   3.923 -2.1596  1.1255  0.2543
  110SAPE  C21511408   6.428   6.817   4.087  1.0850 -0.0224 -0.2969
  110SAPE  H15R11409   6.404   6.739   4.012 -0.8490  1.3182 -1.1688
  110SAPE  C21611410   6.464   6.778   4.226  0.2618 -0.2059  0.2778
  110SAPE  H16R11411   6.518   6.864   4.273 -1.3560  0.1893  1.5019
  110SAPE  H16S11412   6.537   6.694   4.230 -0.9555 -1.3064 -0.0364
  110SAPE  C21711413   6.338   6.766   4.320 -0.6404  0.0711  0.6519
  110SAPE  H17R11414   6.371   6.724   4.418 -2.2839 -0.4970  1.0015
  110SAPE  H17S11415   6.275   6.687   4.273  0.6945 -0.4556 -0.2961
  110SAPE  C21811416   6.249   6.886   4.337  0.2545 -0.2983 -0.4387
  110SAPE  H18R11417   6.218   6.921   4.237  0.6205 -1.6048 -1.0375
  110SAPE  H18S11418   6.295   6.964   4.401 -1.4101 -1.3669  2.2370
  110SAPE  C21911419   6.120   6.833   4.402 -0.3594  0.2118  0.1771
  110SAPE  H19R11420   6.070   6.754   4.341  0.9386  1.7235 -3.0891
  110SAPE  H19S11421   6.043   6.913   4.391 -0.2725  0.0348 -2.6517
  110SAPE  C22011422   6.144   6.790   4.543  0.0441 -0.8796 -0.0334
  110SAPE  H20R11423   6.216   6.706   4.538  1.7211  0.4793  0.2107
  110SAPE  H20S11424   6.046   6.768   4.589 -2.3355  0.6613 -3.9218
  110SAPE  H20T11425   6.197   6.863   4.608  0.1115  0.4508 -1.5372
  110SAPE   C3311426   6.318   7.960   2.959  0.3926  0.7216 -0.6354
  110SAPE   H3X11427   6.251   8.046   2.938  1.9156  1.7635 -1.3611
  110SAPE   H3Y11428   6.359   7.947   2.856 -3.3863  0.5111 -2.3053
  110SAPE   C3411429   6.415   8.003   3.076  0.7487  0.0377  0.8522
  110SAPE   H4X11430   6.355   7.985   3.168 -1.8548 -0.6943 -0.8637
  110SAPE   H4Y11431   6.444   8.110   3.072  0.7787  0.1996  3.6989
  110SAPE   C3511432   6.538   7.917   3.089 -0.0676  0.0974  0.3698
  110SAPE   H5X11433   6.603   7.907   3.000 -0.7284 -2.6077  0.1042
  110SAPE   H5Y11434   6.508   7.811   3.102  0.0841 -0.1134 -0.8894
  110SAPE   C3611435   6.627   7.961   3.207 -1.0887 -0.5471 -0.1878
  110SAPE   H6X11436   6.567   7.964   3.301 -2.4586  0.7235 -1.0433
  110SAPE   H6Y11437   6.658   8.067   3.191 -1.6419 -0.6788 -2.4835
  110SAPE   C3711438   6.759   7.884   3.212  0.3813 -0.0225 -0.5769
  110SAPE   H7X11439   6.821   7.921   3.128  0.1139 -0.4007 -0.9439
  110SAPE   H7Y11440   6.729   7.779   3.192  2.4377 -0.7656  0.0226
  110SAPE   C3811441   6.821   7.897   3.349  0.1865  0.2494 -0.4130
  110SAPE   H8X11442   6.813   8.001   3.386  0.0495  0.4532 -1.0129
  110SAPE   H8Y11443   6.930   7.878   3.344 -0.0523 -1.2720 -0.5211
  110SAPE   C3911444   6.767   7.807   3.454  0.1243  0.1275  0.4094
  110SAPE   H9X11445   6.782   7.699   3.434 -2.1609 -0.2402  0.3804
  110SAPE   H9Y11446   6.657   7.824   3.456  0.0388 -0.0260 -1.6373
  110SAPE  C31011447   6.820   7.843   3.589 -0.2251 -0.3966  0.4023
  110SAPE  H10X11448   6.827   7.953   3.601  0.9318 -0.5390  1.2263
  110SAPE  H10Y11449   6.922   7.798   3.595 -0.7164 -2.0889 -2.0832
  110SAPE  C31111450   6.747   7.797   3.715  0.3814  0.0972  0.2752
  110SAPE  H11X11451   6.756   7.686   3.713  0.3284  0.0896  0.4704
  110SAPE  H11Y11452   6.641   7.829   3.714  1.0071  2.2898  0.0601
  110SAPE  C31211453   6.820   7.840   3.845  0.1552  0.1262 -0.0902
  110SAPE  H12X11454   6.801   7.950   3.850 -0.0028  0.1907 -1.5042
  110SAPE  H12Y11455   6.930   7.825   3.840  0.5136  2.3481 -0.2077
  110SAPE  C31311456   6.772   7.774   3.978  0.5992  0.4999 -0.5650
  110SAPE  H13X11457   6.746   7.667   3.963 -0.9797  0.8502 -0.4988
  110SAPE  H13Y11458   6.672   7.823   3.989  0.0219 -0.4716 -1.3005
  110SAPE  C31411459   6.869   7.799   4.094 -0.2558 -0.0819 -0.5772
  110SAPE  H14X11460   6.872   7.908   4.115  2.6329 -0.1652 -0.2138
  110SAPE  H14Y11461   6.971   7.766   4.067 -0.9317 -1.5680 -1.4766
  110SAPE  C31511462   6.828   7.723   4.225  0.2139 -0.4570  1.1981
  110SAPE  H15X11463   6.866   7.619   4.216 -0.4456 -0.5379 -2.5884
  110SAPE  H15Y11464   6.717   7.726   4.225 -0.0033  3.2401 -3.1574
  110SAPE  C31611465   6.874   7.787   4.358  0.2616  0.5982  0.4302
  110SAPE  H16X11466   6.810   7.877   4.368  0.5329  1.3476 -3.2750
  110SAPE  H16Y11467   6.982   7.812   4.349 -0.1066  1.5221 -1.9899
  110SAPE  C31711468   6.858   7.681   4.477  0.0090  0.1355  0.4993
  110SAPE  H17X11469   6.762   7.629   4.455  0.9132 -1.7426  0.8725
  110SAPE  H17Y11470   6.858   7.735   4.574 -0.5728 -4.2673  3.1976
  110SAPE  C31811471   6.970   7.579   4.491 -0.3675 -0.3390 -0.3926
  110SAPE  H18X11472   7.005   7.523   4.402  1.0514 -1.2838  0.7096
  110SAPE  H18Y11473   6.945   7.507   4.572  2.7777 -1.1377 -0.0134
  110SAPE  H18Z11474   7.063   7.631   4.520  0.7957 -2.1268 -0.7534
  111SAPE     N11475   6.070   3.253   2.908  0.2109 -0.5838 -0.2034
  111SAPE   HN111476   6.066   3.353   2.937 -0.5380 -0.9022  0.8740
  111SAPE   HN211477   6.156   3.240   2.852  0.3299  0.1611 -0.2023
  111SAPE   HN311478   5.980   3.253   2.856  0.6011  3.3762 -1.2078
  111SAPE   C1211479   6.070   3.167   3.029  0.5146 -0.6877 -0.3245
  111SAPE  H12A11480   6.163   3.205   3.076  1.6582 -0.9875 -2.2667
  111SAPE  H12B11481   6.093   3.061   3.008 -0.2085 -0.8212 -0.4780
  111SAPE   C1111482   5.937   3.185   3.117  0.6991  0.1223 -0.2135
  111SAPE  H11A11483   5.950   3.115   3.202  1.9727  0.9450  0.3033
  111SAPE  H11B11484   5.849   3.150   3.059 -0.4293  0.4950  1.2330
  111SAPE     P11485   5.930   3.367   3.305 -0.2543 -0.0994  0.2322
  111SAPE   O1311486   6.033   3.291   3.371 -0.4270  0.4447 -0.0357
  111SAPE   O1411487   5.966   3.513   3.294  0.4736  0.9124 -0.1643
  111SAPE   O1211488   5.911   3.314   3.158 -0.3786 -0.0012  0.4171
  111SAPE   O1111489   5.793   3.354   3.378 -0.1204 -0.5079  0.1999
  111SAPE    C111490   5.740   3.232   3.420 -0.1153  0.3771  0.0166
  111SAPE    HA11491   5.637   3.221   3.380  0.1696  0.5675 -0.7871
  111SAPE    HB11492   5.795   3.145   3.377 -0.2910 -0.4053  1.3365
  111SAPE    C211493   5.732   3.232   3.568  0.1134 -0.4297  0.0174
  111SAPE    HS11494   5.683   3.328   3.595  1.9677  0.9156 -1.1716
  111SAPE   O2111495   5.862   3.221   3.629 -0.6728 -0.4947  0.7446
  111SAPE   C2111496   5.905   3.337   3.668 -0.2840  0.0956 -0.4943
  111SAPE   O2211497   5.845   3.441   3.670  0.2383 -0.0236 -0.4559
  111SAPE   C2211498   6.044   3.318   3.701 -0.8447 -0.6678  0.6237
  111SAPE   H2R11499   6.059   3.212   3.732 -2.6294 -1.0989  0.1442
  111SAPE   H2S11500   6.109   3.321   3.612  1.1008  0.6751  2.0091
  111SAPE    C311501   5.636   3.115   3.613  0.5322 -0.1290 -0.0282
  111SAPE    HX11502   5.691   3.025   3.579  0.6381  0.6015 -1.8816
  111SAPE    HY11503   5.541   3.117   3.556  0.2723 -1.7453  0.3038
  111SAPE   O3111504   5.604   3.114   3.754  0.4217  0.2033 -0.1494
  111SAPE   C3111505   5.687   3.039   3.829  0.5863 -0.4463  0.5209
  111SAPE   O3211506   5.782   2.970   3.793 -0.0874 -0.0918 -0.1851
  111SAPE   C3211507   5.648   3.059   3.979  0.3967  0.0747  0.5176
  111SAPE   H2X11508   5.687   2.970   4.032 -0.2113  0.3123  1.3872
  111SAPE   H2Y11509   5.539   3.082   3.979  0.1580 -1.0048  1.2296
  111SAPE   C2311510   6.098   3.430   3.793 -0.6505  0.2964 -0.2178
  111SAPE   H3R11511   6.059   3.530   3.765 -1.5562  0.0986  0.3061
  111SAPE   H3S11512   6.208   3.427   3.806 -0.9086  0.8222  2.8519
  111SAPE   C2411513   6.038   3.426   3.934  0.0145 -0.3151 -0.2828
  111SAPE   H4R11514   6.058   3.322   3.966 -0.7046 -0.5350 -0.5481
  111SAPE   H4S11515   5.929   3.443   3.924  0.1806  1.2153  0.1610
  111SAPE   C2511516   6.110   3.528   4.015 -0.4744 -0.6689  0.2137
  111SAPE   H5R11517   6.065   3.628   4.015  2.7139  0.9254  1.5756
  111SAPE   C2611518   6.223   3.511   4.087 -0.4734  0.0740  0.5013
  111SAPE   H6R11519   6.263   3.591   4.151  0.1029  0.3152 -0.1492
  111SAPE   C2711520   6.307   3.385   4.104 -0.1942 -0.8328  0.9409
  111SAPE   H7R11521   6.267   3.304   4.040 -1.9171 -0.7904  1.9035
  111SAPE   H7S11522   6.288   3.336   4.202 -1.7596 -1.3967  0.3935
  111SAPE   C2811523   6.453   3.402   4.076 -0.0438  0.4386  0.3388
  111SAPE   H8R11524   6.495   3.362   3.983 -1.5101 -0.3872 -0.0077
  111SAPE   C2911525   6.534   3.462   4.160  0.5215  0.5700 -0.1740
  111SAPE   H9R11526   6.636   3.475   4.119  0.0928 -1.1136 -1.8889
  111SAPE  C21011527   6.513   3.531   4.294 -0.3144  0.3362  0.3746
  111SAPE  H10R11528   6.577   3.477   4.368 -2.8688 -0.1630  2.3653
  111SAPE  H10S11529   6.409   3.527   4.333 -0.2898 -0.7529  0.3743
  111SAPE  C21111530   6.562   3.675   4.283 -0.6104 -0.5961 -0.4432
  111SAPE  H11R11531   6.647   3.689   4.215  0.3826  2.6727  1.2484
  111SAPE  C21211532   6.508   3.787   4.331  0.2389 -0.0727 -0.2881
  111SAPE  H12R11533   6.549   3.888   4.316 -1.9560  1.1184  1.2142
  111SAPE  C21311534   6.381   3.796   4.414  0.3497  0.0451 -0.3104
  111SAPE  H13R11535   6.426   3.837   4.507  3.3037 -1.2544 -1.0748
  111SAPE  H13S11536   6.337   3.697   4.437  0.1995  0.1973  0.0612
  111SAPE  C21411537   6.274   3.885   4.356 -0.8303 -0.5210 -0.5111
  111SAPE  H14R11538   6.309   3.964   4.287  1.1967  0.6672  1.7277
  111SAPE  C21511539   6.148   3.892   4.399  0.2676 -0.0852  0.0512
  111SAPE  H15R11540   6.075   3.961   4.353  0.2053  0.6061  1.1476
  111SAPE  C21611541   6.093   3.817   4.516  0.3804  0.1309  0.0638
  111SAPE  H16R11542   6.164   3.754   4.574  1.2242 -0.0148 -1.0850
  111SAPE  H16S11543   6.011   3.750   4.481  1.1369  0.7502 -3.2401
  111SAPE  C21711544   6.014   3.909   4.618  0.5148  0.0400  0.1286
  111SAPE  H17R11545   5.973   3.841   4.697  0.5758 -0.7694 -0.5211
  111SAPE  H17S11546   5.934   3.957   4.559 -1.1837 -0.1564  2.1430
  111SAPE  C21811547   6.097   3.998   4.708 -0.2444  0.1874 -0.1764
  111SAPE  H18R11548   6.045   4.050   4.792 -0.5959 -1.2313  0.5095
  111SAPE  H18S11549   6.153   4.067   4.640  1.7407 -0.3033  0.8580
  111SAPE  C21911550   6.225   3.939   4.782  0.3242 -0.1873  0.4394
  111SAPE  H19R11551   6.294   4.024   4.804  0.0033  0.4106 -0.8131
  111SAPE  H19S11552   6.270   3.862   4.715 -0.8487 -0.7145  0.2376
  111SAPE  C22011553   6.200   3.880   4.923 -0.4978 -0.6012  0.3569
  111SAPE  H20R11554   6.105   3.825   4.908 -1.2181  0.7756 -0.3465
  111SAPE  H20S11555   6.196   3.957   5.003  1.7790 -0.5291  0.4637
  111SAPE  H20T11556   6.272   3.802   4.955 -1.8125 -1.5367  1.1444
  111SAPE   C3311557   5.721   3.175   4.044 -0.1839  1.5675  0.4239
  111SAPE   H3X11558   5.708   3.267   3.983  0.9952  1.6372  0.2548
  111SAPE   H3Y11559   5.829   3.150   4.038 -0.7890 -2.3783  2.4291
  111SAPE   C3411560   5.691   3.181   4.192 -0.9425 -0.3908  0.3063
  111SAPE   H4X11561   5.715   3.083   4.238  2.4814  1.1021  2.0375
  111SAPE   H4Y11562   5.586   3.216   4.206 -0.0627  2.1442  1.0683
  111SAPE   C3511563   5.777   3.277   4.269  0.2806 -0.0144  0.2316
  111SAPE   H5X11564   5.789   3.371   4.212  1.6368 -0.0914  0.3688
  111SAPE   H5Y11565   5.881   3.239   4.280 -0.0701 -1.6081 -1.4969
  111SAPE   C3611566   5.702   3.308   4.408  0.2404 -0.3051 -0.7556
  111SAPE   H6X11567   5.708   3.210   4.460  2.3456 -2.3420 -4.4583
  111SAPE   H6Y11568   5.598   3.346   4.393  0.4422  1.4344  1.6415
  111SAPE   C3711569   5.770   3.412   4.488 -0.3886  0.1047 -0.2547
  111SAPE   H7X11570   5.780   3.509   4.436 -0.9735 -0.4341 -1.4107
  111SAPE   H7Y11571   5.876   3.381   4.501  0.7680  2.1134 -3.8336
  111SAPE   C3811572   5.707   3.431   4.624 -0.2455  0.0149  0.2336
  111SAPE   H8X11573   5.676   3.336   4.671 -0.3438 -0.1962 -0.2579
  111SAPE   H8Y11574   5.605   3.476   4.623 -1.1991 -1.9460  2.1109
  111SAPE   C3911575   5.789   3.523   4.715 -0.6756  0.1040  0.4158
  111SAPE   H9X11576   5.799   3.626   4.674 -2.6154  0.5738  1.0200
  111SAPE   H9Y11577   5.889   3.476   4.722 -0.0206  1.3247 -0.3455
  111SAPE  C31011578   5.718   3.539   4.850 -0.4217  0.3105 -0.3352
  111SAPE  H10X11579   5.716   3.442   4.904 -1.0229  0.9904  0.9218
  111SAPE  H10Y11580   5.614   3.579   4.844 -0.3861  0.5222  0.3078
  111SAPE  C31111581   5.800   3.618   4.948 -0.0503  0.0252 -0.3568
  111SAPE  H11X11582   5.832   3.699   4.879  0.6293 -0.1191 -0.2138
  111SAPE  H11Y11583   5.891   3.560   4.973 -0.3448 -0.2273  0.1404
  111SAPE  C31211584   5.734   3.659   5.079  0.0434 -0.2964  0.0007
  111SAPE  H12X11585   5.692   3.759   5.056 -3.0183 -1.3337  0.5587
  111SAPE  H12Y11586   5.807   3.668   5.162 -0.4939  0.5779  0.3920
  111SAPE  C31311587   5.630   3.561   5.134  0.2036 -0.1389  0.0231
  111SAPE  H13X11588   5.690   3.472   5.160  1.5468  1.2943  2.1910
  111SAPE  H13Y11589   5.557   3.535   5.054  2.1986  0.6507 -2.1988
  111SAPE  C31411590   5.546   3.623   5.250 -0.7066  0.0031  0.4653
  111SAPE  H14X11591   5.472   3.548   5.285  0.2675 -0.5562  1.4204
  111SAPE  H14Y11592   5.487   3.694   5.188 -0.3280  0.8092  1.0078
  111SAPE  C31511593   5.625   3.690   5.358  0.9199  0.3611 -0.5932
  111SAPE  H15X11594   5.549   3.760   5.401 -0.5540 -0.1599 -2.2490
  111SAPE  H15Y11595   5.696   3.760   5.309  0.7695  1.4857  0.7311
  111SAPE  C31611596   5.700   3.595   5.451  0.0917 -0.3586  0.0585
  111SAPE  H16X11597   5.768   3.527   5.395 -0.3627 -0.8520  0.0958
  111SAPE  H16Y11598   5.648   3.521   5.515  1.8769  1.3016  3.6816
  111SAPE  C31711599   5.796   3.671   5.545 -0.0986  0.0875 -0.2670
  111SAPE  H17X11600   5.738   3.737   5.613 -0.3592 -0.6269  0.2064
  111SAPE  H17Y11601   5.868   3.728   5.483  0.4452 -1.6987 -1.3339
  111SAPE  C31811602   5.888   3.573   5.625  0.0229  0.0436  0.0482
  111SAPE  H18X11603   5.834   3.505   5.694 -1.8599 -0.1548 -1.5169
  111SAPE  H18Y11604   5.975   3.623   5.673 -0.8170  0.8150  0.7903
  111SAPE  H18Z11605   5.923   3.504   5.545 -1.7313  0.9571 -1.5971
  112SAPE     N11606   2.085   6.184   3.129 -0.3639 -0.4014 -0.0849
  112SAPE   HN111607   2.101   6.132   3.041 -1.7683  1.9101 -1.8123
  112SAPE   HN211608   2.027   6.129   3.196  0.2252 -1.0254 -0.0694
  112SAPE   HN311609   2.045   6.272   3.092  0.4637 -0.5274 -1.3249
  112SAPE   C1211610   2.211   6.217   3.196  0.1275  0.3137  1.1304
  112SAPE  H12A11611   2.287   6.208   3.115 -0.7032  0.7075  0.2802
  112SAPE  H12B11612   2.235   6.152   3.282  0.8186  0.5263  1.1029
  112SAPE   C1111613   2.231   6.363   3.230  0.4768  0.1671  0.3263
  112SAPE  H11A11614   2.323   6.380   3.291  0.8126  1.9599 -0.6463
  112SAPE  H11B11615   2.148   6.388   3.300  0.2636 -1.7786  0.8482
  112SAPE     P11616   2.094   6.529   3.067 -0.1146 -0.4929  0.1646
  112SAPE   O1311617   2.133   6.627   2.958  0.2482  0.0382 -0.6500
  112SAPE   O1411618   1.986   6.435   3.027  0.5453 -0.4885  0.0337
  112SAPE   O1211619   2.225   6.442   3.108 -0.4961  0.4964 -0.5771
  112SAPE   O1111620   2.049   6.606   3.200  0.4020  0.3048  0.5258
  112SAPE    C111621   2.106   6.736   3.226  0.0061 -0.0656 -0.2179
  112SAPE    HA11622   2.215   6.729   3.245 -0.1827 -0.4704  0.8091
  112SAPE    HB11623   2.085   6.808   3.144  0.6262  2.6650  1.8819
  112SAPE    C211624   2.043   6.795   3.351 -0.2137  0.1795  0.6922
  112SAPE    HS11625   2.115   6.868   3.393  0.3344 -1.2710  2.3342
  112SAPE   O2111626   2.012   6.695   3.446  0.0021  0.0690 -0.3771
  112SAPE   C2111627   2.115   6.665   3.518  0.0980 -0.0858 -0.1018
  112SAPE   O2211628   2.227   6.715   3.508 -0.1516  0.0803 -0.9160
  112SAPE   C2211629   2.080   6.550   3.609  0.5202  0.4376  0.0873
  112SAPE   H2R11630   2.084   6.457   3.548 -1.8293 -0.0339  0.5744
  112SAPE   H2S11631   2.160   6.545   3.685  0.1018  0.0330  0.5072
  112SAPE    C311632   1.912   6.884   3.328 -0.3086  0.8202  0.0257
  112SAPE    HX11633   1.830   6.818   3.292 -1.5705  2.3849 -0.0665
  112SAPE    HY11634   1.938   6.954   3.246  0.7802  0.8765  0.4035
  112SAPE   O3111635   1.882   6.951   3.446 -0.1314 -0.1643  0.4327
  112SAPE   C3111636   1.913   7.079   3.448 -0.3438  0.0819  0.2934
  112SAPE   O3211637   1.938   7.154   3.356  0.1209 -0.0981  0.2982
  112SAPE   C3211638   1.899   7.113   3.592 -0.4001  0.1721 -0.3547
  112SAPE   H2X11639   1.823   7.053   3.645  0.3494 -0.6228 -0.1530
  112SAPE   H2Y11640   1.862   7.218   3.601 -0.6881 -0.0099  0.6945
  112SAPE   C2311641   1.934   6.569   3.672 -0.1534 -0.4450 -0.1611
  112SAPE   H3R11642   1.911   6.477   3.730 -0.8024  0.1088  0.4931
  112SAPE   H3S11643   1.866   6.560   3.585  1.3995 -3.5892 -1.1539
  112SAPE   C2411644   1.919   6.701   3.754  0.1941 -0.2781  0.0586
  112SAPE   H4R11645   1.812   6.712   3.783 -0.6245  0.3766 -2.9223
  112SAPE   H4S11646   1.934   6.785   3.683  1.8285 -1.5369 -1.1601
  112SAPE   C2511647   2.012   6.712   3.874  0.0898 -0.0672  0.1882
  112SAPE   H5R11648   2.109   6.753   3.845 -0.0794  0.0618 -0.2004
  112SAPE   C2611649   1.980   6.697   4.009 -0.0687  0.7558  0.0705
  112SAPE   H6R11650   2.069   6.699   4.074  0.0058 -0.0203 -0.0036
  112SAPE   C2711651   1.841   6.670   4.066  0.4972 -0.0088  0.4177
  112SAPE   H7R11652   1.820   6.560   4.066  3.1466 -0.6009  2.1564
  112SAPE   H7S11653   1.762   6.719   4.005  1.5937  0.0327 -1.0275
  112SAPE   C2811654   1.815   6.723   4.208 -0.4793  0.5266 -0.8814
  112SAPE   H8R11655   1.864   6.817   4.239 -0.5907  0.2899  0.0238
  112SAPE   C2911656   1.725   6.682   4.302  1.0581  0.1030 -0.5201
  112SAPE   H9R11657   1.741   6.723   4.403  1.5993  1.1215 -0.9974
  112SAPE  C21011658   1.641   6.554   4.289 -0.1323  0.1886  0.3425
  112SAPE  H10R11659   1.632   6.527   4.182 -0.1836  2.1498 -0.1887
  112SAPE  H10S11660   1.541   6.585   4.327  0.3793 -0.2179  2.1065
  112SAPE  C21111661   1.691   6.440   4.373 -0.5793  0.8860 -0.2724
  112SAPE  H11R11662   1.791   6.458   4.415  0.2046 -1.0105 -1.2014
  112SAPE  C21211663   1.636   6.320   4.380 -0.1033 -0.2377 -0.0971
  112SAPE  H12R11664   1.680   6.262   4.462  1.6050 -0.0293 -0.8231
  112SAPE  C21311665   1.504   6.276   4.314 -0.1293 -0.0291 -0.4828
  112SAPE  H13R11666   1.475   6.175   4.349 -3.0308 -0.0346 -2.5649
  112SAPE  H13S11667   1.513   6.276   4.204 -0.4534  1.1406 -0.5313
  112SAPE  C21411668   1.383   6.361   4.341 -0.6004  0.2210  0.2340
  112SAPE  H14R11669   1.391   6.464   4.304  1.6738  0.6291  1.6373
  112SAPE  C21511670   1.280   6.338   4.421  0.5396  0.4765  0.5281
  112SAPE  H15R11671   1.201   6.414   4.426  0.2791  0.1810  0.9574
  112SAPE  C21611672   1.250   6.209   4.502 -0.1918  0.3815 -0.2137
  112SAPE  H16R11673   1.286   6.240   4.602  0.1668  3.4316 -1.1837
  112SAPE  H16S11674   1.321   6.131   4.467 -2.3279 -1.5010 -0.5985
  112SAPE  C21711675   1.105   6.164   4.520 -0.6898 -0.0259 -0.0557
  112SAPE  H17R11676   1.069   6.157   4.415  0.3952  2.1545 -0.6210
  112SAPE  H17S11677   1.047   6.246   4.567  0.4799  0.6116  0.3234
  112SAPE  C21811678   1.095   6.025   4.593  0.5505  0.2709 -0.6775
  112SAPE  H18R11679   1.099   5.946   4.515  1.8720  1.2864 -1.6934
  112SAPE  H18S11680   0.998   6.012   4.645  0.0780  2.8366 -0.7918
  112SAPE  C21911681   1.207   5.988   4.694  0.2726  0.1879  0.3457
  112SAPE  H19R11682   1.312   5.978   4.660  0.8474 -1.6185  2.4173
  112SAPE  H19S11683   1.196   5.882   4.726  0.7524  0.1710  0.4654
  112SAPE  C22011684   1.189   6.067   4.824 -0.2822  0.3957  0.1205
  112SAPE  H20R11685   1.220   6.173   4.807  1.3560 -0.1453 -0.4054
  112SAPE  H20S11686   1.254   6.012   4.896  1.3215 -0.5689 -1.9590
  112SAPE  H20T11687   1.087   6.056   4.867  0.1876 -2.5857  0.6440
  112SAPE   C3311688   2.026   7.096   3.682 -0.3524  0.1244  0.1399
  112SAPE   H3X11689   2.110   7.159   3.647  1.1565 -0.8174  1.8760
  112SAPE   H3Y11690   2.072   6.996   3.671  0.8760  0.8667 -2.1382
  112SAPE   C3411691   1.997   7.142   3.826 -0.2516  0.2157 -0.9556
  112SAPE   H4X11692   2.010   7.250   3.849 -0.7170  0.0555  0.1140
  112SAPE   H4Y11693   2.076   7.090   3.884  1.0426  2.3970 -0.6307
  112SAPE   C3511694   1.867   7.093   3.890  0.8256 -0.5128  0.1928
  112SAPE   H5X11695   1.855   6.987   3.861  1.0121 -0.4775 -0.0171
  112SAPE   H5Y11696   1.777   7.146   3.854  0.1583 -1.6681  0.1114
  112SAPE   C3611697   1.872   7.106   4.047  0.0848  0.9426  0.5567
  112SAPE   H6X11698   1.976   7.084   4.081 -0.2151  0.5178  1.2136
  112SAPE   H6Y11699   1.812   7.020   4.083  2.4055 -1.6889 -1.3493
  112SAPE   C3711700   1.814   7.237   4.086 -0.6103  0.2624 -0.8796
  112SAPE   H7X11701   1.710   7.253   4.050 -2.2565 -2.2027  2.2708
  112SAPE   H7Y11702   1.877   7.321   4.052  1.7996 -1.7015 -1.5321
  112SAPE   C3811703   1.815   7.265   4.237  0.4816 -0.1269 -0.0739
  112SAPE   H8X11704   1.768   7.363   4.260 -0.5357 -0.7024  0.3604
  112SAPE   H8Y11705   1.921   7.261   4.271  0.7013 -1.0843 -0.8448
  112SAPE   C3911706   1.747   7.153   4.320  0.0817 -0.5901  0.0558
  112SAPE   H9X11707   1.793   7.055   4.299  0.7199 -0.1549 -0.5840
  112SAPE   H9Y11708   1.641   7.141   4.289  0.2827  1.1887 -1.4769
  112SAPE  C31011709   1.763   7.182   4.472  0.3560 -0.6680 -0.4951
  112SAPE  H10X11710   1.717   7.281   4.493 -0.2973 -1.3245  1.3512
  112SAPE  H10Y11711   1.869   7.167   4.502  0.6648  0.0878 -1.1620
  112SAPE  C31111712   1.679   7.072   4.546  0.0362  0.0243  0.1809
  112SAPE  H11X11713   1.727   6.972   4.535 -2.0924 -0.9551 -0.8041
  112SAPE  H11Y11714   1.578   7.061   4.502 -0.3364  2.9004  0.1513
  112SAPE  C31211715   1.671   7.083   4.700 -0.7812  0.5845  0.7715
  112SAPE  H12X11716   1.630   7.184   4.724 -0.8746  0.2414  2.1220
  112SAPE  H12Y11717   1.772   7.065   4.744 -1.9154 -3.8398  2.0245
  112SAPE  C31311718   1.590   6.969   4.759  0.8775 -0.3111 -0.0641
  112SAPE  H13X11719   1.646   6.874   4.742 -0.9585 -1.3436 -0.6214
  112SAPE  H13Y11720   1.493   6.964   4.705  0.9683 -1.8122 -0.1452
  112SAPE  C31411721   1.559   6.977   4.911 -0.0315 -0.4370 -0.0166
  112SAPE  H14X11722   1.528   7.081   4.930  0.4653 -0.0661 -1.1693
  112SAPE  H14Y11723   1.652   6.967   4.971  2.2045  1.4662 -2.8916
  112SAPE  C31511724   1.451   6.883   4.961  0.2426  0.1888 -0.2339
  112SAPE  H15X11725   1.472   6.775   4.973 -0.8063  0.0635  0.6355
  112SAPE  H15Y11726   1.374   6.885   4.881  1.1436 -3.1000 -1.3070
  112SAPE  C31611727   1.383   6.937   5.087 -0.0415  0.1595  0.4183
  112SAPE  H16X11728   1.361   7.044   5.069  1.6578  0.1087 -2.7881
  112SAPE  H16Y11729   1.465   6.926   5.161  1.1512  0.4612 -0.8175
  112SAPE  C31711730   1.261   6.862   5.139  0.5997 -0.3310 -0.3887
  112SAPE  H17X11731   1.302   6.796   5.219 -0.7016 -0.2049  0.4148
  112SAPE  H17Y11732   1.193   6.812   5.067  0.7717  0.6828 -1.2815
  112SAPE  C31811733   1.179   6.954   5.221  0.2672 -0.3799  0.2792
  112SAPE  H18X11734   1.237   7.005   5.301 -2.1779 -0.5075  2.2647
  112SAPE  H18Y11735   1.105   6.894   5.279 -0.9281 -1.4346 -2.1768
  112SAPE  H18Z11736   1.118   7.029   5.167 -2.6337 -2.7731 -0.0484
  113SAPE     N11737   5.268   4.797   2.988  0.1653 -0.2787 -0.3470
  113SAPE   HN111738   5.332   4.879   2.993 -0.6871  0.3477  1.0615
  113SAPE   HN211739   5.173   4.839   2.980 -0.6008 -1.3557  2.1439
  113SAPE   HN311740   5.264   4.744   3.077  0.8580 -2.6395 -1.6296
  113SAPE   C1211741   5.300   4.697   2.875  0.1622  0.7203 -0.0041
  113SAPE  H12A11742   5.392   4.640   2.899 -0.1040  0.3841  0.2229
  113SAPE  H12B11743   5.325   4.763   2.789  0.6196  0.9412  0.2908
  113SAPE   C1111744   5.188   4.595   2.847 -0.1999 -0.1555  0.2887
  113SAPE  H11A11745   5.212   4.527   2.763 -0.4028 -1.0277  0.9248
  113SAPE  H11B11746   5.095   4.645   2.813  0.1068  0.5009  0.3836
  113SAPE     P11747   5.099   4.385   2.964  0.5217  0.0076 -0.1120
  113SAPE   O1311748   4.965   4.389   3.029 -0.0953 -0.2558 -0.4480
  113SAPE   O1411749   5.098   4.329   2.829 -0.9257  0.4564  0.1560
  113SAPE   O1211750   5.163   4.527   2.968  0.2255  0.0226  0.1470
  113SAPE   O1111751   5.193   4.295   3.060  0.6634  0.1047  0.3717
  113SAPE    C111752   5.288   4.356   3.151  0.2168 -0.5213  0.0222
  113SAPE    HA11753   5.359   4.278   3.186  0.8504 -0.2062 -0.5629
  113SAPE    HB11754   5.345   4.439   3.106 -0.6288 -0.3200 -0.6938
  113SAPE    C211755   5.228   4.408   3.283  0.3392 -0.3545 -0.4432
  113SAPE    HS11756   5.137   4.469   3.261  0.1382 -0.3033  0.4962
  113SAPE   O2111757   5.321   4.483   3.361  0.5645  0.4962 -0.2692
  113SAPE   C2111758   5.344   4.607   3.321 -0.6786  0.1489 -0.1066
  113SAPE   O2211759   5.281   4.672   3.240 -0.3072 -0.2717  0.3003
  113SAPE   C2211760   5.450   4.667   3.407  0.1164  0.5862  0.3249
  113SAPE   H2R11761   5.521   4.599   3.459 -0.9440 -1.5805 -0.8917
  113SAPE   H2S11762   5.525   4.724   3.348  1.4559 -0.5863  0.8428
  113SAPE    C311763   5.164   4.291   3.363 -0.0392 -0.3069 -0.9313
  113SAPE    HX11764   5.232   4.203   3.366  1.4022  0.7262  2.3907
  113SAPE    HY11765   5.080   4.261   3.297 -0.9478 -0.2936  0.1886
  113SAPE   O3111766   5.112   4.316   3.494  0.1133  0.2751  0.1899
  113SAPE   C3111767   5.196   4.307   3.601  0.0244 -0.2073 -0.3516
  113SAPE   O3211768   5.310   4.260   3.600 -0.4037  0.5569  0.0376
  113SAPE   C3211769   5.123   4.353   3.722 -0.7369  0.7371 -0.3159
  113SAPE   H2X11770   5.021   4.313   3.741  0.1375 -2.2259 -1.3700
  113SAPE   H2Y11771   5.096   4.459   3.706  0.9827  1.0629 -1.3545
  113SAPE   C2311772   5.399   4.778   3.510  0.8303 -0.2014  0.5969
  113SAPE   H3R11773   5.334   4.850   3.456  1.0636 -0.8260 -0.5614
  113SAPE   H3S11774   5.486   4.824   3.559  0.6109 -1.0902  1.8678
  113SAPE   C2411775   5.315   4.726   3.624  0.5752 -0.1874 -0.0126
  113SAPE   H4R11776   5.383   4.666   3.689 -1.8097  0.2071  3.1138
  113SAPE   H4S11777   5.258   4.647   3.571  0.9884 -0.2917 -0.3067
  113SAPE   C2511778   5.235   4.834   3.703  0.1168  0.0354  0.2140
  113SAPE   H5R11779   5.178   4.910   3.647  1.1872  0.9900  0.3850
  113SAPE   C2611780   5.223   4.855   3.831 -0.1344  0.4947 -0.1943
  113SAPE   H6R11781   5.158   4.937   3.864  2.6009  2.2163  1.2417
  113SAPE   C2711782   5.287   4.771   3.942 -0.3895  0.2314 -0.1803
  113SAPE   H7R11783   5.323   4.675   3.898  0.1280  0.6426 -0.6620
  113SAPE   H7S11784   5.206   4.751   4.015 -0.9657  3.4240  0.2012
  113SAPE   C2811785   5.401   4.852   4.006 -0.4883  0.0759 -0.9659
  113SAPE   H8R11786   5.485   4.880   3.940  2.7561 -3.7090  1.1220
  113SAPE   C2911787   5.408   4.888   4.135 -0.8300 -0.0948  0.4584
  113SAPE   H9R11788   5.500   4.942   4.160  0.6007 -2.1514 -0.0394
  113SAPE  C21011789   5.300   4.873   4.244  0.2896 -0.1388  0.6518
  113SAPE  H10R11790   5.249   4.775   4.237 -2.4927  1.2946 -0.9427
  113SAPE  H10S11791   5.217   4.934   4.202  0.7488 -1.5028 -2.5298
  113SAPE  C21111792   5.350   4.915   4.378 -0.0744  0.8321 -0.2521
  113SAPE  H11R11793   5.402   4.837   4.434  1.1890  1.6877 -0.1967
  113SAPE  C21211794   5.329   5.030   4.442 -0.0222  0.8377  0.2557
  113SAPE  H12R11795   5.381   5.047   4.538  2.0121  2.0843 -0.9901
  113SAPE  C21311796   5.268   5.147   4.381 -0.1910 -0.0629 -0.2181
  113SAPE  H13R11797   5.315   5.170   4.283  0.5681  0.4940  0.2693
  113SAPE  H13S11798   5.298   5.234   4.444  1.0295  1.3423 -2.6180
  113SAPE  C21411799   5.118   5.158   4.378  0.0727 -0.0136  0.2917
  113SAPE  H14R11800   5.055   5.069   4.387 -1.0534  0.8326  1.0068
  113SAPE  C21511801   5.056   5.278   4.362 -0.1862  0.1477  0.6647
  113SAPE  H15R11802   4.947   5.290   4.373 -0.4013  0.7044 -1.5767
  113SAPE  C21611803   5.139   5.405   4.354  0.2044 -0.1316 -0.1223
  113SAPE  H16R11804   5.073   5.478   4.303 -0.9447 -0.5787  0.6767
  113SAPE  H16S11805   5.228   5.395   4.288 -0.0782 -1.0836 -0.3802
  113SAPE  C21711806   5.161   5.451   4.496  0.4256 -0.4291 -0.2185
  113SAPE  H17R11807   5.235   5.534   4.488  0.5863 -0.5478  0.0343
  113SAPE  H17S11808   5.203   5.370   4.559  1.0944  1.4701  1.8951
  113SAPE  C21811809   5.030   5.498   4.578 -0.6525  0.4625 -0.8722
  113SAPE  H18R11810   4.958   5.413   4.581  0.8584 -0.8288  0.9540
  113SAPE  H18S11811   4.980   5.578   4.518 -3.1481 -1.0976 -1.0168
  113SAPE  C21911812   5.059   5.556   4.713  0.2363 -0.1421  0.7202
  113SAPE  H19R11813   4.965   5.566   4.771  0.8172  0.5868  1.5735
  113SAPE  H19S11814   5.099   5.660   4.708  0.4109 -0.2536 -0.3019
  113SAPE  C22011815   5.147   5.475   4.812  0.3598 -0.0897  0.6408
  113SAPE  H20R11816   5.115   5.369   4.802  0.5691 -0.1150  0.1863
  113SAPE  H20S11817   5.144   5.514   4.916 -0.1144  3.0877 -0.4519
  113SAPE  H20T11818   5.253   5.469   4.779  1.0956 -1.1746  2.9998
  113SAPE   C3311819   5.218   4.352   3.846  0.3081 -0.1343  0.4874
  113SAPE   H3X11820   5.320   4.393   3.832  2.5710 -3.9448  3.6883
  113SAPE   H3Y11821   5.240   4.244   3.861  0.2744 -0.3478 -0.8458
  113SAPE   C3411822   5.138   4.402   3.958  0.3242  0.0507 -0.5360
  113SAPE   H4X11823   5.064   4.328   3.994  0.9699 -0.2460  0.2100
  113SAPE   H4Y11824   5.102   4.506   3.940  0.5668 -0.1474 -2.2857
  113SAPE   C3511825   5.217   4.413   4.093 -0.5419  0.3322  0.4879
  113SAPE   H5X11826   5.281   4.503   4.091 -0.5433  0.3320 -1.4342
  113SAPE   H5Y11827   5.275   4.318   4.098 -0.6217  0.2987  0.7553
  113SAPE   C3611828   5.131   4.429   4.213  0.5504 -0.2080 -0.7930
  113SAPE   H6X11829   5.073   4.338   4.239  2.2267 -1.0370  0.2825
  113SAPE   H6Y11830   5.052   4.504   4.193 -0.2118  0.5371  3.8921
  113SAPE   C3711831   5.202   4.468   4.346  0.6206 -0.4573 -0.3835
  113SAPE   H7X11832   5.252   4.566   4.324  0.0083  0.1175  0.7269
  113SAPE   H7Y11833   5.288   4.400   4.366  1.5517  1.4974  3.1470
  113SAPE   C3811834   5.120   4.474   4.477 -0.4010  0.1603 -0.0952
  113SAPE   H8X11835   5.020   4.514   4.451  0.2895  1.7536 -0.4893
  113SAPE   H8Y11836   5.117   4.374   4.523 -3.0236  0.0430 -0.3798
  113SAPE   C3911837   5.180   4.556   4.588 -0.4210  1.1218 -0.0755
  113SAPE   H9X11838   5.184   4.658   4.543  0.6553  1.6319  1.1257
  113SAPE   H9Y11839   5.288   4.539   4.608 -0.5697  0.8865  0.5283
  113SAPE  C31011840   5.100   4.570   4.712  1.0295  0.2092  0.5814
  113SAPE  H10X11841   5.093   4.466   4.750  1.2557 -0.0860 -0.1745
  113SAPE  H10Y11842   4.995   4.602   4.696  1.0833 -0.3623 -1.0715
  113SAPE  C31111843   5.166   4.671   4.807 -0.6157  0.3572 -0.6198
  113SAPE  H11X11844   5.264   4.626   4.834 -0.7823 -0.1499 -0.8492
  113SAPE  H11Y11845   5.112   4.691   4.902 -1.4991  2.8627 -1.5582
  113SAPE  C31211846   5.176   4.813   4.756  0.2938  0.1186  0.0540
  113SAPE  H12X11847   5.079   4.867   4.765  1.3871  1.9700  1.7150
  113SAPE  H12Y11848   5.207   4.822   4.650 -0.5119  1.9850 -0.0706
  113SAPE  C31311849   5.284   4.904   4.825  0.4249 -0.0701 -0.4447
  113SAPE  H13X11850   5.381   4.895   4.772 -0.4406 -2.1910 -1.8247
  113SAPE  H13Y11851   5.296   4.878   4.932 -0.7453  3.9082  0.8022
  113SAPE  C31411852   5.240   5.054   4.824  0.2783  0.6816 -0.2991
  113SAPE  H14X11853   5.146   5.064   4.884  0.3874 -0.5086  0.0901
  113SAPE  H14Y11854   5.207   5.085   4.723 -1.4430  0.8910  0.2747
  113SAPE  C31511855   5.348   5.148   4.884  0.7632  0.5669  0.1286
  113SAPE  H15X11856   5.318   5.242   4.831 -0.1636  0.3187  0.2009
  113SAPE  H15Y11857   5.447   5.118   4.843  0.6136  1.1922 -0.7342
  113SAPE  C31611858   5.352   5.157   5.032 -0.6326 -0.2056  0.4203
  113SAPE  H16X11859   5.381   5.058   5.074 -1.8168 -0.9919 -0.5375
  113SAPE  H16Y11860   5.251   5.175   5.073  0.0195  0.7380  1.6761
  113SAPE  C31711861   5.435   5.269   5.087 -0.0322  0.0304 -0.4015
  113SAPE  H17X11862   5.378   5.363   5.075 -0.0418  0.0568 -0.1525
  113SAPE  H17Y11863   5.526   5.285   5.024  0.0775  0.4181 -0.1468
  113SAPE  C31811864   5.472   5.254   5.229 -0.2405 -0.3520 -0.1299
  113SAPE  H18X11865   5.558   5.184   5.233  0.2149  0.2553  0.8229
  113SAPE  H18Y11866   5.384   5.216   5.285 -1.5200  1.4066 -0.8545
  113SAPE  H18Z11867   5.499   5.353   5.270  1.7005 -1.0519  0.3748
  114SAPE     N11868   3.479   1.057   2.786  0.1321 -0.1466 -0.1043
  114SAPE   HN111869   3.410   0.987   2.820 -0.1130 -0.0391 -0.3863
  114SAPE   HN211870   3.436   1.111   2.709  0.5713  1.5933  0.8163
  114SAPE   HN311871   3.570   1.031   2.743  0.7258  2.1743 -0.3688
  114SAPE   C1211872   3.501   1.157   2.900  0.8282  0.0669  0.8946
  114SAPE  H12A11873   3.566   1.239   2.863  1.5173 -0.4342  0.9747
  114SAPE  H12B11874   3.554   1.104   2.981  2.2092 -0.3802 -0.2677
  114SAPE   C1111875   3.357   1.202   2.949  0.4583  0.0669 -0.0811
  114SAPE  H11A11876   3.373   1.278   3.028 -2.8897  0.0327  0.7519
  114SAPE  H11B11877   3.300   1.122   3.001 -0.7139  1.9468  1.6219
  114SAPE     P11878   3.155   1.353   2.889 -0.0691 -0.1448  0.1473
  114SAPE   O1311879   3.234   1.472   2.920 -0.1358  0.1356  0.3433
  114SAPE   O1411880   3.067   1.360   2.772 -0.4870  0.1459 -0.2905
  114SAPE   O1211881   3.268   1.245   2.842  0.8653 -0.3397 -0.0645
  114SAPE   O1111882   3.089   1.285   3.017  0.5527 -0.1505  0.9735
  114SAPE    C111883   3.014   1.373   3.102  0.6381  0.3701  0.1058
  114SAPE    HA11884   3.005   1.482   3.085 -1.0632  0.2871  0.2711
  114SAPE    HB11885   2.912   1.328   3.105  1.3408 -1.2601  2.0790
  114SAPE    C211886   3.060   1.354   3.247  0.7359 -0.8446 -0.1423
  114SAPE    HS11887   3.001   1.426   3.307 -0.5053 -1.5982 -0.4273
  114SAPE   O2111888   3.200   1.375   3.270 -0.3648 -0.4610  0.5513
  114SAPE   C2111889   3.231   1.501   3.251  0.4881  0.0814 -0.1668
  114SAPE   O2211890   3.149   1.592   3.241 -0.1619 -0.3263  0.4033
  114SAPE   C2211891   3.386   1.520   3.252  0.3399  0.1318  0.7332
  114SAPE   H2R11892   3.429   1.419   3.268  0.6250 -0.1580 -1.5429
  114SAPE   H2S11893   3.415   1.571   3.158  1.9724 -0.7312  0.7278
  114SAPE    C311894   3.012   1.220   3.304 -0.5486  0.2160  0.1225
  114SAPE    HX11895   3.069   1.148   3.243  1.9829  3.0133 -1.0903
  114SAPE    HY11896   2.902   1.208   3.294 -0.9021  3.5494 -1.2154
  114SAPE   O3111897   3.041   1.220   3.441 -0.5113 -0.4674 -0.1054
  114SAPE   C3111898   3.158   1.171   3.480 -0.1319  0.4616 -0.8396
  114SAPE   O3211899   3.246   1.108   3.415  0.5667  0.3008 -0.3562
  114SAPE   C3211900   3.176   1.210   3.632 -0.0005  0.4126  0.7577
  114SAPE   H2X11901   3.085   1.195   3.694 -0.8781  0.9781 -0.3668
  114SAPE   H2Y11902   3.204   1.318   3.634  0.3471  0.3283  0.4932
  114SAPE   C2311903   3.402   1.619   3.367 -1.2173  0.8045 -0.1533
  114SAPE   H3R11904   3.353   1.715   3.341 -0.2921  1.1283 -0.7410
  114SAPE   H3S11905   3.509   1.643   3.381 -0.6055 -1.3224 -0.7870
  114SAPE   C2411906   3.359   1.577   3.511 -0.3855 -0.1180 -0.1352
  114SAPE   H4R11907   3.262   1.523   3.512  0.0074 -0.9365  3.0518
  114SAPE   H4S11908   3.367   1.673   3.566 -3.7842 -0.6352  1.4910
  114SAPE   C2511909   3.456   1.476   3.581 -0.3504  0.3559  0.3454
  114SAPE   H5R11910   3.486   1.387   3.524  1.3652  0.2188  1.4002
  114SAPE   C2611911   3.520   1.488   3.703  0.3526  0.3515 -0.5606
  114SAPE   H6R11912   3.586   1.406   3.734  0.5368 -0.6644 -3.4063
  114SAPE   C2711913   3.498   1.603   3.799 -0.2091 -0.3132  0.6107
  114SAPE   H7R11914   3.502   1.543   3.892  1.3698 -1.8558 -0.4009
  114SAPE   H7S11915   3.399   1.652   3.789 -0.4956 -0.8063  1.0135
  114SAPE   C2811916   3.593   1.720   3.799 -0.1240  0.2961  0.5440
  114SAPE   H8R11917   3.597   1.776   3.704 -0.8745  2.3811  1.6732
  114SAPE   C2911918   3.667   1.767   3.902  0.6782  0.0132 -0.2282
  114SAPE   H9R11919   3.719   1.863   3.887  2.5291 -1.1280 -1.5670
  114SAPE  C21011920   3.680   1.705   4.040  0.3219 -0.6219  0.3977
  114SAPE  H10R11921   3.741   1.783   4.091 -1.2460  1.4584 -0.7286
  114SAPE  H10S11922   3.728   1.607   4.021 -1.4434 -0.9268 -3.4920
  114SAPE  C21111923   3.557   1.686   4.116  0.2300  0.0019 -0.0740
  114SAPE  H11R11924   3.470   1.683   4.050  0.0958  0.5273  0.0754
  114SAPE  C21211925   3.549   1.670   4.251 -0.6128  0.3176  0.0405
  114SAPE  H12R11926   3.451   1.655   4.299 -0.9518  0.0423 -0.7078
  114SAPE  C21311927   3.678   1.665   4.335 -0.5524 -0.2731  0.3211
  114SAPE  H13R11928   3.759   1.602   4.291  0.8259  1.1990  0.6830
  114SAPE  H13S11929   3.650   1.604   4.424  2.3508 -4.2374 -1.1709
  114SAPE  C21411930   3.728   1.801   4.377 -0.9575  0.6502 -0.3878
  114SAPE  H14R11931   3.682   1.890   4.331  1.5347  2.7990  0.9410
  114SAPE  C21511932   3.829   1.827   4.467 -0.0900  0.2575 -0.2323
  114SAPE  H15R11933   3.864   1.927   4.496  1.9856 -0.6666  0.6709
  114SAPE  C21611934   3.898   1.723   4.550 -0.2862 -0.5657  0.1164
  114SAPE  H16R11935   4.007   1.744   4.557 -0.5045  0.0472  2.7802
  114SAPE  H16S11936   3.888   1.621   4.507  0.0509 -0.0021 -1.3702
  114SAPE  C21711937   3.827   1.727   4.687 -0.4920 -0.4424  0.3693
  114SAPE  H17R11938   3.878   1.660   4.760  0.2545  0.7738  0.9857
  114SAPE  H17S11939   3.726   1.685   4.666 -0.8502  0.2817  0.6313
  114SAPE  C21811940   3.799   1.870   4.743 -0.2185 -0.0303  0.1978
  114SAPE  H18R11941   3.724   1.927   4.683  1.2370  0.4443 -1.2646
  114SAPE  H18S11942   3.898   1.920   4.739  1.2266 -2.7027 -0.0425
  114SAPE  C21911943   3.739   1.862   4.883  0.0714 -0.4156 -0.4113
  114SAPE  H19R11944   3.720   1.964   4.921 -0.1854 -0.7835  0.4969
  114SAPE  H19S11945   3.810   1.812   4.953 -0.3083 -0.5921 -0.1520
  114SAPE  C22011946   3.606   1.779   4.883 -0.4779 -0.0162 -0.0498
  114SAPE  H20R11947   3.624   1.669   4.887 -0.4632 -0.0632 -1.1326
  114SAPE  H20S11948   3.554   1.796   4.786 -0.3397 -0.0160 -0.1247
  114SAPE  H20T11949   3.533   1.819   4.956 -1.1262  1.1298 -1.2900
  114SAPE   C3311950   3.291   1.132   3.709  0.1588 -0.6386 -0.2683
  114SAPE   H3X11951   3.390   1.174   3.681 -0.7502  2.1202  0.3122
  114SAPE   H3Y11952   3.270   1.033   3.663 -2.7794 -0.5613  0.7311
  114SAPE   C3411953   3.274   1.118   3.863 -0.2357  0.0707 -0.0998
  114SAPE   H4X11954   3.355   1.052   3.902 -1.3208 -0.8561  0.6494
  114SAPE   H4Y11955   3.189   1.050   3.888  1.0854 -0.8696  2.0762
  114SAPE   C3511956   3.273   1.247   3.941  0.0497 -0.2110 -0.0918
  114SAPE   H5X11957   3.173   1.296   3.932 -0.8819 -2.2728 -2.1797
  114SAPE   H5Y11958   3.347   1.319   3.902 -0.3263  0.9629  1.3132
  114SAPE   C3611959   3.293   1.216   4.092 -0.0661  0.5109 -0.5754
  114SAPE   H6X11960   3.399   1.189   4.110 -0.4133  0.1619  1.0498
  114SAPE   H6Y11961   3.222   1.135   4.115 -1.7428  2.0110 -0.2248
  114SAPE   C3711962   3.265   1.335   4.181  0.3154 -0.7114 -0.2713
  114SAPE   H7X11963   3.159   1.365   4.166 -0.2768 -2.8164 -0.6103
  114SAPE   H7Y11964   3.342   1.415   4.172 -1.6140  1.1654 -0.9410
  114SAPE   C3811965   3.273   1.293   4.325  0.1175  0.1123  0.1592
  114SAPE   H8X11966   3.366   1.235   4.343 -0.7393 -1.0535  1.0301
  114SAPE   H8Y11967   3.193   1.229   4.367 -0.2104  0.3611 -0.0823
  114SAPE   C3911968   3.285   1.411   4.430 -0.3855  0.8326  0.7030
  114SAPE   H9X11969   3.198   1.479   4.416 -0.1457  0.9881 -0.1211
  114SAPE   H9Y11970   3.371   1.473   4.397 -1.0754  1.2002 -0.4676
  114SAPE  C31011971   3.300   1.363   4.580  0.1519  0.1166  0.5693
  114SAPE  H10X11972   3.377   1.282   4.573 -0.8425 -0.9102  1.1143
  114SAPE  H10Y11973   3.206   1.313   4.611  0.6629 -0.3851  1.3424
  114SAPE  C31111974   3.340   1.477   4.677 -0.2287 -0.1308 -0.5184
  114SAPE  H11X11975   3.278   1.562   4.640  0.0960 -0.1105 -1.0412
  114SAPE  H11Y11976   3.448   1.504   4.667 -0.0585 -0.4627  0.4110
  114SAPE  C31211977   3.295   1.459   4.819 -0.4435 -0.2863  0.0897
  114SAPE  H12X11978   3.353   1.386   4.878  2.2231  0.8734 -0.9418
  114SAPE  H12Y11979   3.193   1.414   4.823 -0.2479 -1.0265 -1.9226
  114SAPE  C31311980   3.295   1.594   4.885 -0.6278  0.2995  0.3855
  114SAPE  H13X11981   3.270   1.682   4.823  0.6325  2.2070  2.4406
  114SAPE  H13Y11982   3.398   1.617   4.920  0.3064 -1.1075 -1.2931
  114SAPE  C31411983   3.196   1.592   5.000 -0.2861 -0.0653 -0.4069
  114SAPE  H14X11984   3.212   1.506   5.068 -3.7517 -1.6266 -1.3259
  114SAPE  H14Y11985   3.093   1.576   4.962 -0.4176  1.3566 -0.7174
  114SAPE  C31511986   3.198   1.725   5.091 -0.6162  0.6327 -0.1033
  114SAPE  H15X11987   3.183   1.801   5.012 -1.3786  0.3552 -0.2323
  114SAPE  H15Y11988   3.298   1.724   5.141 -1.4635  1.2186  1.6759
  114SAPE  C31611989   3.099   1.724   5.206  0.1231 -0.0500 -0.0359
  114SAPE  H16X11990   3.127   1.632   5.263  0.4706  0.2747  0.3233
  114SAPE  H16Y11991   2.996   1.720   5.165  0.7314  0.1769 -1.6631
  114SAPE  C31711992   3.128   1.852   5.297 -0.4411  0.0470  0.9017
  114SAPE  H17X11993   3.103   1.934   5.226  3.2136  0.7144  0.2154
  114SAPE  H17Y11994   3.232   1.884   5.317 -0.5118  2.0532 -1.4403
  114SAPE  C31811995   3.034   1.854   5.417  0.0148 -0.5940 -0.0113
  114SAPE  H18X11996   3.028   1.955   5.462  0.7727 -1.2037  1.5319
  114SAPE  H18Y11997   3.073   1.782   5.492 -1.0376 -0.3372  0.8032
  114SAPE  H18Z11998   2.934   1.823   5.381 -1.2949  2.0296  1.0621
  115SAPE     N11999   2.474   1.393   2.692 -0.8606  0.2226  0.2450
  115SAPE   HN112000   2.521   1.480   2.725 -0.9158  1.1507 -1.9049
  115SAPE   HN212001   2.530   1.370   2.608 -0.0327  1.0391  0.5551
  115SAPE   HN312002   2.375   1.415   2.667 -0.6026  0.4880 -0.5871
  115SAPE   C1212003   2.481   1.294   2.809 -0.2102  0.9103  0.2153
  115SAPE  H12A12004   2.588   1.280   2.836 -0.3215  0.3766  0.3997
  115SAPE  H12B12005   2.441   1.198   2.770  1.6502  0.8208 -1.7302
  115SAPE   C1112006   2.426   1.351   2.945 -0.0108  0.3097 -0.3406
  115SAPE  H11A12007   2.493   1.436   2.966  0.9548 -1.2383  3.8509
  115SAPE  H11B12008   2.440   1.284   3.033  1.8571 -0.9380 -1.5055
  115SAPE     P12009   2.158   1.306   2.913  0.2164  0.0187  0.0768
  115SAPE   O1312010   2.058   1.403   2.860 -0.1199  0.5903 -0.2107
  115SAPE   O1412011   2.185   1.183   2.834 -0.2675 -0.0293 -0.4842
  115SAPE   O1212012   2.287   1.391   2.936  0.0734 -0.1680 -0.4732
  115SAPE   O1112013   2.103   1.264   3.053 -0.5234  0.1284 -0.5166
  115SAPE    C112014   2.109   1.361   3.158  0.0566 -0.2969  0.3409
  115SAPE    HA12015   2.127   1.465   3.125  0.3141 -1.0703 -2.1872
  115SAPE    HB12016   2.013   1.368   3.215  1.3782  1.7355  2.4879
  115SAPE    C212017   2.214   1.326   3.269 -0.2809 -0.2193  0.7600
  115SAPE    HS12018   2.316   1.335   3.225 -0.9820 -0.8680 -1.1064
  115SAPE   O2112019   2.198   1.192   3.313  0.2039  0.1126 -0.5550
  115SAPE   C2112020   2.302   1.117   3.355 -0.4970  0.4922  0.9501
  115SAPE   O2212021   2.415   1.157   3.366  0.2223 -0.7844 -0.0017
  115SAPE   C2212022   2.267   0.972   3.377  1.2013  0.1403 -0.0079
  115SAPE   H2R12023   2.163   0.982   3.415  1.2992  2.0361 -0.1506
  115SAPE   H2S12024   2.269   0.918   3.280  1.5137  0.7764 -0.3608
  115SAPE    C312025   2.210   1.431   3.382  0.8140 -0.1550  0.4535
  115SAPE    HX12026   2.232   1.528   3.333  4.6523 -0.5573  1.0676
  115SAPE    HY12027   2.304   1.420   3.441  0.5784 -1.7964  0.5844
  115SAPE   O3112028   2.090   1.436   3.467  1.2951 -0.7836 -0.1276
  115SAPE   C3112029   2.109   1.416   3.602 -0.5900 -0.2757 -0.4054
  115SAPE   O3212030   2.217   1.410   3.655 -0.4368  0.0805  0.2125
  115SAPE   C3212031   1.978   1.399   3.685 -0.6142 -0.5413  0.2381
  115SAPE   H2X12032   1.972   1.482   3.759 -0.2292  1.1771 -1.5442
  115SAPE   H2Y12033   1.980   1.293   3.718  1.5060 -0.6140 -0.0077
  115SAPE   C2312034   2.363   0.898   3.472 -0.0345  0.3102 -0.3301
  115SAPE   H3R12035   2.469   0.896   3.439  1.2634  1.2392  3.2473
  115SAPE   H3S12036   2.331   0.792   3.466  0.0034  0.3494 -1.3684
  115SAPE   C2412037   2.352   0.952   3.614 -0.3068 -0.7735  0.1814
  115SAPE   H4R12038   2.258   0.919   3.663 -0.4024 -2.4155 -1.0189
  115SAPE   H4S12039   2.367   1.062   3.618  1.1436 -0.9470  0.0262
  115SAPE   C2512040   2.456   0.900   3.703  0.5574  1.4228 -0.5375
  115SAPE   H5R12041   2.548   0.875   3.649  0.4694 -0.7821  0.2193
  115SAPE   C2612042   2.446   0.882   3.842  0.0163  0.7016  0.4353
  115SAPE   H6R12043   2.538   0.844   3.889  1.2344  0.7096 -1.8088
  115SAPE   C2712044   2.333   0.911   3.942 -0.3991  0.4725 -0.0732
  115SAPE   H7R12045   2.234   0.903   3.892 -0.2321 -0.2960 -0.2988
  115SAPE   H7S12046   2.323   1.011   3.989 -2.0826 -0.7613  2.4042
  115SAPE   C2812047   2.329   0.801   4.055 -0.5031  0.3153  0.2542
  115SAPE   H8R12048   2.296   0.699   4.032 -2.3684  0.8073  0.5808
  115SAPE   C2912049   2.366   0.824   4.184  0.2015 -0.1072  0.4046
  115SAPE   H9R12050   2.367   0.737   4.252  1.7006 -0.9876 -0.6704
  115SAPE  C21012051   2.394   0.955   4.241  0.3592  0.3575  0.2288
  115SAPE  H10R12052   2.315   1.023   4.204  2.0119  1.3083 -1.7705
  115SAPE  H10S12053   2.485   0.990   4.188  0.4220 -1.1382 -0.7139
  115SAPE  C21112054   2.413   0.961   4.385 -0.7760 -0.3534 -0.2586
  115SAPE  H11R12055   2.507   0.911   4.412  0.5921  1.2816 -1.7568
  115SAPE  C21212056   2.345   1.019   4.483  0.0536 -1.0903  0.1422
  115SAPE  H12R12057   2.383   1.008   4.585  0.8216  1.7765  0.2577
  115SAPE  C21312058   2.226   1.113   4.463 -0.3056 -0.0853  0.1149
  115SAPE  H13R12059   2.137   1.057   4.500  1.1133 -1.7218  1.1870
  115SAPE  H13S12060   2.201   1.127   4.356 -0.7227 -3.1901 -0.2909
  115SAPE  C21412061   2.237   1.236   4.549 -0.4035  0.0725 -0.7050
  115SAPE  H14R12062   2.290   1.240   4.646  0.8932  0.4476 -1.4080
  115SAPE  C21512063   2.151   1.336   4.521  0.2931 -0.2356 -0.1663
  115SAPE  H15R12064   2.131   1.423   4.586 -4.2960  0.0543 -1.6679
  115SAPE  C21612065   2.053   1.340   4.408  1.0065 -0.1361  0.0924
  115SAPE  H16R12066   1.954   1.383   4.433  1.1064 -0.3705  0.9256
  115SAPE  H16S12067   2.035   1.239   4.366  1.6338  0.1711 -0.9505
  115SAPE  C21712068   2.126   1.412   4.291  0.1736 -0.0923 -0.3434
  115SAPE  H17R12069   2.202   1.347   4.242 -0.9543 -0.4907 -1.6302
  115SAPE  H17S12070   2.183   1.502   4.321  2.6325 -1.7486  0.2343
  115SAPE  C21812071   2.025   1.457   4.182 -0.0794 -0.0572 -0.3131
  115SAPE  H18R12072   2.070   1.545   4.131  1.3827 -0.8668 -0.4695
  115SAPE  H18S12073   1.935   1.495   4.236  1.6195 -1.0814  3.5468
  115SAPE  C21912074   1.975   1.347   4.078  0.0555 -0.4514 -0.7154
  115SAPE  H19R12075   1.921   1.401   3.998 -1.7004 -1.5024 -0.2944
  115SAPE  H19S12076   1.907   1.273   4.125  0.3130  0.7029  1.6145
  115SAPE  C22012077   2.093   1.265   4.019 -0.9186 -0.2726  0.7057
  115SAPE  H20R12078   2.139   1.208   4.103  1.2134 -1.6702 -1.3136
  115SAPE  H20S12079   2.172   1.331   3.980 -0.0293 -1.7772 -0.1109
  115SAPE  H20T12080   2.073   1.201   3.931  0.6624  2.5902 -1.9148
  115SAPE   C3312081   1.849   1.406   3.592 -0.2190 -0.1783  0.3283
  115SAPE   H3X12082   1.865   1.323   3.520 -1.4749  0.4345 -0.6945
  115SAPE   H3Y12083   1.847   1.509   3.552  0.7502  0.2826  1.4144
  115SAPE   C3412084   1.720   1.359   3.665 -0.4092  0.2691  0.4782
  115SAPE   H4X12085   1.732   1.260   3.712  0.0055 -0.4315 -1.0407
  115SAPE   H4Y12086   1.649   1.356   3.580  0.2123 -1.1695 -0.0226
  115SAPE   C3512087   1.683   1.463   3.763 -0.1565 -0.1775 -0.1503
  115SAPE   H5X12088   1.666   1.564   3.721 -0.0656  0.1967  0.7024
  115SAPE   H5Y12089   1.767   1.459   3.835 -1.1674 -2.1518  1.0289
  115SAPE   C3612090   1.553   1.421   3.836  0.8914  0.3237 -0.1590
  115SAPE   H6X12091   1.468   1.389   3.773 -0.0703  1.7226  0.3821
  115SAPE   H6Y12092   1.518   1.512   3.888  0.1427  1.1333 -1.9978
  115SAPE   C3712093   1.569   1.307   3.940  0.2790 -0.3192  0.0859
  115SAPE   H7X12094   1.636   1.334   4.025  0.4144 -1.6403  0.4225
  115SAPE   H7Y12095   1.609   1.219   3.886 -0.2874 -0.6894  0.2618
  115SAPE   C3812096   1.433   1.266   4.014  0.1481 -0.7159 -0.2178
  115SAPE   H8X12097   1.454   1.197   4.099  0.7278  0.2800  0.4744
  115SAPE   H8Y12098   1.367   1.211   3.944  1.0954 -1.3212 -0.6630
  115SAPE   C3912099   1.369   1.391   4.085  0.4235 -0.2597 -0.1156
  115SAPE   H9X12100   1.293   1.355   4.158  0.6173  1.5121  1.0347
  115SAPE   H9Y12101   1.314   1.461   4.019 -0.5833  0.4280  1.3809
  115SAPE  C31012102   1.471   1.484   4.160  0.8942  0.2776 -0.3406
  115SAPE  H10X12103   1.538   1.532   4.085 -1.0487  0.0923 -2.3158
  115SAPE  H10Y12104   1.532   1.424   4.231  1.5549  2.6509  1.2282
  115SAPE  C31112105   1.398   1.590   4.241 -0.4160  0.9746 -1.0435
  115SAPE  H11X12106   1.342   1.656   4.172 -2.0969 -1.6101 -2.3086
  115SAPE  H11Y12107   1.466   1.664   4.289 -0.7289  0.8388 -0.3723
  115SAPE  C31212108   1.286   1.538   4.337 -0.3578 -0.1595  0.3084
  115SAPE  H12X12109   1.199   1.493   4.286  0.4205  0.2196 -1.4127
  115SAPE  H12Y12110   1.263   1.633   4.390  1.9165  1.4152 -1.3506
  115SAPE  C31312111   1.329   1.440   4.439 -0.0331  0.2106 -0.7586
  115SAPE  H13X12112   1.349   1.342   4.391 -2.0685 -0.7919  0.3077
  115SAPE  H13Y12113   1.247   1.432   4.514  0.8877  0.2888  0.2817
  115SAPE  C31412114   1.463   1.482   4.512  0.1706  0.0547  0.3103
  115SAPE  H14X12115   1.430   1.570   4.570 -3.7588 -0.7702 -0.3885
  115SAPE  H14Y12116   1.547   1.506   4.444 -0.7485  0.9130 -0.5484
  115SAPE  C31512117   1.511   1.377   4.609 -0.0805  0.7024  0.9870
  115SAPE  H15X12118   1.421   1.346   4.667  1.1254  0.8717  3.0631
  115SAPE  H15Y12119   1.581   1.410   4.689  3.0465  0.8184 -1.6126
  115SAPE  C31612120   1.559   1.248   4.541  0.0402 -0.2691 -0.0842
  115SAPE  H16X12121   1.638   1.271   4.467  0.5606 -1.7160 -0.0147
  115SAPE  H16Y12122   1.472   1.198   4.493 -0.1972 -0.7457  0.8203
  115SAPE  C31712123   1.619   1.141   4.637 -0.3695 -0.7292  0.4000
  115SAPE  H17X12124   1.616   1.042   4.586 -3.2440  0.4344 -1.9903
  115SAPE  H17Y12125   1.557   1.144   4.728  1.6538 -0.3347  1.8404
  115SAPE  C31812126   1.759   1.179   4.681 -0.0494  1.1549  0.0643
  115SAPE  H18X12127   1.830   1.199   4.597  0.9232  3.2607  1.3049
  115SAPE  H18Y12128   1.801   1.097   4.743 -2.2671  1.8478  2.6385
  115SAPE  H18Z12129   1.747   1.271   4.741 -0.0916  0.4535  1.1559
  116SAPE     N12130   2.276   4.557   3.303  0.5921  0.3410  0.0180
  116SAPE   HN112131   2.336   4.642   3.300  1.1375 -0.0289  0.3919
  116SAPE   HN212132   2.315   4.472   3.258 -1.7837 -1.5076  1.2322
  116SAPE   HN312133   2.184   4.583   3.262  1.5843  2.4159 -1.0499
  116SAPE   C1212134   2.255   4.531   3.449 -0.3781 -0.0377  0.3963
  116SAPE  H12A12135   2.188   4.443   3.459  1.1450 -1.1746  0.9780
  116SAPE  H12B12136   2.221   4.623   3.501  1.4138 -0.0262  1.6354
  116SAPE   C1112137   2.396   4.494   3.511  0.4702  0.3309 -0.0995
  116SAPE  H11A12138   2.435   4.402   3.464 -0.6125 -0.6067  0.7590
  116SAPE  H11B12139   2.386   4.478   3.621 -0.0073 -0.4750 -0.2532
  116SAPE     P12140   2.640   4.579   3.482 -0.4428  0.0823  0.1753
  116SAPE   O1312141   2.670   4.441   3.533 -0.0607 -0.8249  0.4567
  116SAPE   O1412142   2.693   4.610   3.344 -0.0084  0.2656  0.8251
  116SAPE   O1212143   2.487   4.602   3.486 -0.1186 -0.2732 -0.5343
  116SAPE   O1112144   2.693   4.683   3.579  0.4316  0.6266  0.1102
  116SAPE    C112145   2.632   4.812   3.602  0.2376  0.0841 -0.1246
  116SAPE    HA12146   2.710   4.885   3.634 -0.3258  0.6486 -0.0302
  116SAPE    HB12147   2.582   4.843   3.509 -0.7033 -0.2265  0.2655
  116SAPE    C212148   2.533   4.803   3.725 -0.4347 -0.8165 -0.9915
  116SAPE    HS12149   2.453   4.726   3.719 -0.5328 -0.9989  1.3977
  116SAPE   O2112150   2.468   4.934   3.749 -0.2730 -0.0134  0.6658
  116SAPE   C2112151   2.387   4.959   3.651  0.4577 -0.1073 -0.1491
  116SAPE   O2212152   2.354   4.887   3.558 -0.0389  0.7208  0.3932
  116SAPE   C2212153   2.345   5.102   3.671 -0.1859 -0.1260 -0.8565
  116SAPE   H2R12154   2.430   5.173   3.664  1.0273 -1.4311  0.1581
  116SAPE   H2S12155   2.275   5.118   3.586  0.1240  0.9427 -0.9247
  116SAPE    C312156   2.611   4.767   3.862 -0.1933  0.3935  0.7801
  116SAPE    HX12157   2.711   4.816   3.863 -0.6855  1.4505  0.0001
  116SAPE    HY12158   2.627   4.657   3.862 -0.5213  0.3173 -0.7223
  116SAPE   O3112159   2.541   4.818   3.982 -0.1305 -0.1045  0.1100
  116SAPE   C3112160   2.448   4.737   4.032 -0.1520 -0.2528  0.7234
  116SAPE   O3212161   2.427   4.627   3.991  0.5240 -0.2995  0.3971
  116SAPE   C3212162   2.373   4.812   4.141  0.6849  0.0785 -1.0181
  116SAPE   H2X12163   2.272   4.827   4.097  0.8784 -0.8115 -1.7986
  116SAPE   H2Y12164   2.422   4.911   4.143  1.0471 -0.0950 -1.2754
  116SAPE   C2312165   2.268   5.137   3.802 -0.0300 -0.3304 -0.4215
  116SAPE   H3R12166   2.342   5.114   3.881  1.3391  0.0776 -1.5509
  116SAPE   H3S12167   2.176   5.076   3.817 -1.8642  2.6856  1.6140
  116SAPE   C2412168   2.226   5.281   3.820 -0.1894 -0.0070  0.2496
  116SAPE   H4R12169   2.320   5.341   3.822  2.2472 -3.4988 -1.0104
  116SAPE   H4S12170   2.172   5.284   3.918 -1.4656 -0.2713 -0.4223
  116SAPE   C2512171   2.120   5.326   3.723  0.2569  0.0846  0.4378
  116SAPE   H5R12172   2.149   5.380   3.632 -2.3303  2.9982  1.1732
  116SAPE   C2612173   1.990   5.308   3.729  0.2715 -0.2718 -0.2512
  116SAPE   H6R12174   1.931   5.347   3.645 -0.6422  0.9599  0.9085
  116SAPE   C2712175   1.903   5.239   3.833 -1.2173  0.4075  0.4453
  116SAPE   H7R12176   1.890   5.319   3.908 -0.0763  1.6853 -0.6508
  116SAPE   H7S12177   1.963   5.155   3.876  1.3397  1.1997 -1.2845
  116SAPE   C2812178   1.774   5.180   3.783  0.0598 -0.3030 -0.7667
  116SAPE   H8R12179   1.751   5.212   3.681  0.4532  1.0084 -0.4723
  116SAPE   C2912180   1.677   5.117   3.857 -0.0007  0.4813 -0.3438
  116SAPE   H9R12181   1.592   5.081   3.797  0.3786  1.4340 -1.4805
  116SAPE  C21012182   1.680   5.085   4.007  0.1211  0.7505 -0.3599
  116SAPE  H10R12183   1.763   5.144   4.052  0.8940 -0.7220  0.1759
  116SAPE  H10S12184   1.708   4.978   4.018  1.1632  1.0254 -0.2443
  116SAPE  C21112185   1.554   5.125   4.070 -1.0807  0.4274  0.2646
  116SAPE  H11R12186   1.519   5.226   4.044  1.1513  0.7371 -1.8587
  116SAPE  C21212187   1.479   5.042   4.146 -0.9570  0.8086  0.6804
  116SAPE  H12R12188   1.388   5.088   4.189 -1.3497  1.1603 -0.4988
  116SAPE  C21312189   1.519   4.905   4.195 -0.2204 -0.6576  0.3952
  116SAPE  H13R12190   1.585   4.903   4.284 -1.6456 -0.7636  1.4801
  116SAPE  H13S12191   1.565   4.842   4.115  2.1935  2.0119 -0.4714
  116SAPE  C21412192   1.394   4.834   4.247 -0.2498 -0.0140  0.4431
  116SAPE  H14R12193   1.339   4.777   4.171 -0.0887 -1.3467  1.2769
  116SAPE  C21512194   1.355   4.816   4.373  0.2211  0.1209 -0.7964
  116SAPE  H15R12195   1.254   4.776   4.386  0.4119 -0.6203 -1.5571
  116SAPE  C21612196   1.418   4.884   4.491  0.1513  0.4877  0.7060
  116SAPE  H16R12197   1.342   4.940   4.550 -0.6722  1.4107 -1.1561
  116SAPE  H16S12198   1.482   4.970   4.463 -0.6994  0.6787 -0.7530
  116SAPE  C21712199   1.492   4.791   4.582  0.3535  0.6522 -0.4402
  116SAPE  H17R12200   1.576   4.748   4.525 -0.6224 -0.6841 -0.9305
  116SAPE  H17S12201   1.433   4.704   4.619  1.1616  0.1514 -0.3266
  116SAPE  C21812202   1.561   4.864   4.701  0.5717 -0.4294  0.7181
  116SAPE  H18R12203   1.607   4.792   4.772  3.2694 -0.7401 -1.1650
  116SAPE  H18S12204   1.485   4.923   4.755  0.7966 -0.1070  0.6900
  116SAPE  C21912205   1.670   4.963   4.659 -0.3483 -0.6063  0.4548
  116SAPE  H19R12206   1.678   5.035   4.744 -1.1926  0.3469 -0.2509
  116SAPE  H19S12207   1.642   5.022   4.570  0.9314 -0.5744  0.0493
  116SAPE  C22012208   1.808   4.891   4.633  0.4731  0.3242  0.0993
  116SAPE  H20R12209   1.875   4.952   4.569 -0.7480 -0.2745 -1.8640
  116SAPE  H20S12210   1.780   4.813   4.560  1.7510  1.4420 -1.6842
  116SAPE  H20T12211   1.858   4.849   4.722 -0.4353  0.6763  0.7915
  116SAPE   C3312212   2.382   4.750   4.280  0.4463  0.0874 -0.1542
  116SAPE   H3X12213   2.476   4.776   4.331 -1.3374  2.1428  2.3504
  116SAPE   H3Y12214   2.368   4.640   4.266  1.5502 -0.0602 -0.1669
  116SAPE   C3412215   2.265   4.809   4.367 -0.5014 -0.0843 -0.0421
  116SAPE   H4X12216   2.162   4.791   4.330 -1.8665 -0.2108  3.4446
  116SAPE   H4Y12217   2.284   4.919   4.372  1.2017 -0.2868 -1.0774
  116SAPE   C3512218   2.284   4.752   4.507 -0.2206  0.3072  0.0167
  116SAPE   H5X12219   2.373   4.798   4.555 -0.5342 -0.0852  0.9773
  116SAPE   H5Y12220   2.301   4.643   4.491 -1.1992  0.2205 -0.5305
  116SAPE   C3612221   2.174   4.781   4.604  0.0768 -0.6014  0.1434
  116SAPE   H6X12222   2.079   4.761   4.550  0.1984  0.8682 -0.6668
  116SAPE   H6Y12223   2.167   4.891   4.621  1.7965 -0.4333 -0.1137
  116SAPE   C3712224   2.183   4.705   4.737 -0.1857  1.1279  0.3049
  116SAPE   H7X12225   2.275   4.729   4.794 -0.0296  2.6296 -0.5322
  116SAPE   H7Y12226   2.181   4.598   4.705 -0.0177  1.6116 -1.4245
  116SAPE   C3812227   2.059   4.725   4.822 -0.5748 -0.4798  0.7223
  116SAPE   H8X12228   1.963   4.694   4.776  0.2999 -2.4892  0.1284
  116SAPE   H8Y12229   2.061   4.833   4.846  1.1360 -0.3101 -0.0777
  116SAPE   C3912230   2.068   4.645   4.953  0.4212  0.1360  0.7786
  116SAPE   H9X12231   2.125   4.699   5.032  2.5037  1.0264 -1.1997
  116SAPE   H9Y12232   2.117   4.549   4.927  2.2452  1.6069 -1.5745
  116SAPE  C31012233   1.925   4.619   5.011 -0.4222  0.0738 -0.4756
  116SAPE  H10X12234   1.875   4.717   4.997 -1.6940 -0.5209 -0.1957
  116SAPE  H10Y12235   1.922   4.584   5.117 -1.5532 -1.8681 -1.0925
  116SAPE  C31112236   1.836   4.522   4.928 -0.6834  0.0754  0.3206
  116SAPE  H11X12237   1.879   4.420   4.942  0.4927  0.7327  1.7090
  116SAPE  H11Y12238   1.835   4.549   4.820  0.0018  1.5192  0.6537
  116SAPE  C31212239   1.694   4.526   4.982 -0.8119  0.7935  0.2043
  116SAPE  H12X12240   1.674   4.635   4.991 -0.1262  0.8678  0.8987
  116SAPE  H12Y12241   1.691   4.471   5.078 -0.7754 -3.0652 -1.7833
  116SAPE  C31312242   1.601   4.464   4.894  1.1220 -0.8962 -0.8722
  116SAPE  H13X12243   1.637   4.363   4.864 -0.6197 -1.5347 -0.9464
  116SAPE  H13Y12244   1.589   4.531   4.806 -0.2288 -1.7112 -1.3507
  116SAPE  C31412245   1.465   4.437   4.950  0.6869 -0.3517  0.0856
  116SAPE  H14X12246   1.414   4.534   4.967 -0.3312 -0.3862 -2.4339
  116SAPE  H14Y12247   1.461   4.374   5.042 -0.7677  0.0963  0.3605
  116SAPE  C31512248   1.363   4.373   4.852 -0.1114 -0.1399  0.3824
  116SAPE  H15X12249   1.418   4.292   4.800 -0.1505  0.3341 -0.4146
  116SAPE  H15Y12250   1.332   4.447   4.775  1.0538 -0.9820 -0.9417
  116SAPE  C31612251   1.236   4.322   4.931 -0.7442  0.0763 -0.5624
  116SAPE  H16X12252   1.273   4.247   5.004  2.1147  1.6225 -0.2416
  116SAPE  H16Y12253   1.178   4.261   4.859 -1.2243 -1.4802  1.0671
  116SAPE  C31712254   1.155   4.425   5.002 -0.2413  0.3407  0.3673
  116SAPE  H17X12255   1.207   4.482   5.081 -0.7910  1.5735 -0.1436
  116SAPE  H17Y12256   1.080   4.360   5.052  1.2085 -1.7919 -0.0885
  116SAPE  C31812257   1.082   4.517   4.899 -0.0090 -0.2524  0.3426
  116SAPE  H18X12258   1.029   4.453   4.826 -0.7596  1.0307 -0.2708
  116SAPE  H18Y12259   1.148   4.585   4.841 -1.5871 -0.7049 -2.1239
  116SAPE  H18Z12260   1.013   4.574   4.965 -0.2139 -1.0355  0.8203
  117SOPE     N12261   2.760   2.844   7.502 -0.4199  0.0782 -0.4705
  117SOPE   HN112262   2.708   2.927   7.468 -0.8931  0.1176  0.3368
  117SOPE   HN212263   2.816   2.877   7.583 -0.0712 -1.7604  0.0973
  117SOPE   HN312264   2.817   2.803   7.425 -1.1957 -0.5153 -0.7338
  117SOPE   C1212265   2.645   2.747   7.525  0.3530  0.1787 -0.1515
  117SOPE  H12A12266   2.586   2.771   7.617  0.6556 -0.4858  0.2251
  117SOPE  H12B12267   2.683   2.643   7.517  0.5165  0.2615 -0.4284
  117SOPE   C1112268   2.557   2.763   7.396  0.8759 -0.4235  0.6189
  117SOPE  H11A12269   2.472   2.691   7.395  0.2548  0.2958 -0.3929
  117SOPE  H11B12270   2.616   2.730   7.308  1.9982 -2.2909  1.9917
  117SOPE     P12271   2.351   2.926   7.415  0.1037 -0.0338 -0.2104
  117SOPE   O1312272   2.342   3.071   7.453  0.0676  0.6597  0.0411
  117SOPE   O1412273   2.306   2.835   7.520 -0.0103  0.4522  0.0914
  117SOPE   O1212274   2.501   2.888   7.374 -0.2808 -0.0733 -0.0104
  117SOPE   O1112275   2.273   2.910   7.284 -0.3469  0.2385 -0.6620
  117SOPE    C112276   2.342   2.887   7.166  0.9719  0.7696 -0.2285
  117SOPE    HA12277   2.282   2.821   7.101 -0.8606  1.9650  0.1551
  117SOPE    HB12278   2.442   2.839   7.170  1.4769  1.8147  0.1764
  117SOPE    C212279   2.372   3.024   7.111 -0.0129  0.3226  0.6094
  117SOPE    HS12280   2.441   3.076   7.181 -1.1618  0.9263  1.3434
  117SOPE   O2112281   2.257   3.111   7.089 -0.4177 -0.0764 -0.1829
  117SOPE   C2112282   2.278   3.239   7.068 -0.3445 -0.1172  0.3084
  117SOPE   O2212283   2.381   3.307   7.076  0.0297 -1.0415 -0.3611
  117SOPE   C2212284   2.142   3.307   7.041  0.7184 -0.2640 -0.3842
  117SOPE   H2R12285   2.113   3.367   7.130 -0.5887 -0.4901 -0.6368
  117SOPE   H2S12286   2.071   3.223   7.027 -0.1997  0.1853  1.2349
  117SOPE    C312287   2.439   3.001   6.976 -0.6222  0.3224  0.4018
  117SOPE    HX12288   2.533   2.947   6.999 -0.5471 -0.4012 -1.4370
  117SOPE    HY12289   2.473   3.098   6.932  0.1082 -0.0235  0.1864
  117SOPE   O3112290   2.355   2.926   6.879  0.3389  0.1038  0.0315
  117SOPE   C3112291   2.414   2.819   6.829  0.4646  0.5260  0.0390
  117SOPE   O3212292   2.528   2.780   6.858  0.2641  0.4309  0.3249
  117SOPE   C3212293   2.328   2.747   6.726  0.3072 -0.3407 -0.3878
  117SOPE   H2X12294   2.373   2.749   6.625 -1.1990 -1.8548 -1.1483
  117SOPE   H2Y12295   2.238   2.812   6.714  1.2527  0.9132 -0.8652
  117SOPE   C2312296   2.135   3.389   6.917 -0.2452 -0.4654 -0.0984
  117SOPE   H3R12297   2.191   3.481   6.944  0.7803 -1.2515  0.5103
  117SOPE   H3S12298   2.027   3.416   6.912  0.0791  0.7841 -0.9013
  117SOPE   C2412299   2.185   3.316   6.791  0.0090  0.4415 -0.3260
  117SOPE   H4R12300   2.169   3.387   6.707 -1.0009  0.2564 -0.3012
  117SOPE   H4S12301   2.288   3.275   6.801 -0.2929 -0.4825 -0.8496
  117SOPE   C2512302   2.099   3.189   6.764  0.5656  0.3914 -0.3138
  117SOPE   H5R12303   2.145   3.112   6.830  0.9018  2.6825  2.3141
  117SOPE   H5S12304   1.998   3.200   6.808  1.1082  0.3307  1.0141
  117SOPE   C2612305   2.094   3.129   6.625 -0.3750  0.0944  0.5908
  117SOPE   H6R12306   2.070   3.215   6.558 -2.7400  0.2525  1.5485
  117SOPE   H6S12307   2.200   3.103   6.606 -1.1636 -1.9594 -1.5364
  117SOPE   C2712308   2.004   3.011   6.608 -0.7618  0.0112 -0.1873
  117SOPE   H7R12309   2.026   2.936   6.688 -1.0938 -1.1513 -1.1533
  117SOPE   H7S12310   1.906   3.049   6.644 -0.5238  1.4637 -1.0008
  117SOPE   C2812311   1.980   2.969   6.457  0.6794 -0.4438  0.3077
  117SOPE   H8R12312   1.892   2.901   6.464  0.6893 -0.5334 -0.3534
  117SOPE   H8S12313   1.949   3.065   6.409 -0.5142 -0.7765  0.3650
  117SOPE   C2912314   2.088   2.889   6.384  0.4248 -0.5124  0.1923
  117SOPE   H9112315   2.159   2.840   6.452 -0.7375 -3.7730 -0.7668
  117SOPE  C21012316   2.100   2.883   6.252  0.2248 -0.2894 -0.8889
  117SOPE  H10112317   2.174   2.807   6.222 -0.1939 -0.2312 -2.1248
  117SOPE  C21112318   2.023   2.948   6.147  0.6907 -0.2838 -0.0210
  117SOPE  H11R12319   2.033   3.059   6.139 -0.6218 -0.2448 -1.5758
  117SOPE  H11S12320   1.913   2.930   6.154  0.7187 -0.1686  0.8821
  117SOPE  C21212321   2.070   2.891   6.008  0.3111 -0.8816 -0.1534
  117SOPE  H12R12322   2.180   2.882   5.995  0.2623 -0.7221 -0.6745
  117SOPE  H12S12323   2.049   2.959   5.923 -0.7902  2.5072  2.5809
  117SOPE  C21312324   2.018   2.743   5.990  0.9388  0.2803 -0.2271
  117SOPE  H13R12325   1.906   2.741   5.990  0.9181  1.1858 -0.5902
  117SOPE  H13S12326   2.039   2.685   6.082  0.1099 -4.2986 -2.5823
  117SOPE  C21412327   2.078   2.671   5.867  0.0345 -0.2662 -0.7414
  117SOPE  H14R12328   2.062   2.561   5.874 -1.0989 -0.0773 -0.0718
  117SOPE  H14S12329   2.187   2.689   5.869 -0.0054 -0.0702  0.2603
  117SOPE  C21512330   2.006   2.720   5.742  0.4215 -0.0376  0.5147
  117SOPE  H15R12331   2.047   2.821   5.721 -0.2682  0.2405  0.4637
  117SOPE  H15S12332   1.898   2.736   5.762 -0.1190  0.0685 -2.0969
  117SOPE  C21612333   2.033   2.631   5.620  0.1378  0.7626 -0.0202
  117SOPE  H16R12334   1.991   2.533   5.652 -2.3642  1.7745 -0.0068
  117SOPE  H16S12335   2.141   2.610   5.604 -0.4131 -1.0651 -1.7536
  117SOPE  C21712336   1.950   2.674   5.497 -0.5757  0.4328 -0.1263
  117SOPE  H17R12337   1.994   2.768   5.456 -0.0356 -0.4122 -1.5655
  117SOPE  H17S12338   1.845   2.696   5.526 -0.7632 -0.3512 -0.1967
  117SOPE  C21812339   1.948   2.583   5.374 -0.3194  0.1283 -0.0545
  117SOPE  H18R12340   2.051   2.586   5.332  2.1611 -1.5269  5.1396
  117SOPE  H18S12341   1.886   2.621   5.290  2.0655 -0.4003 -2.2070
  117SOPE  H18T12342   1.909   2.480   5.384 -3.7165  1.2941 -0.1271
  117SOPE   C3312343   2.296   2.597   6.757 -1.0723 -0.6185 -0.4341
  117SOPE   H3X12344   2.240   2.582   6.852  1.2380 -0.1424  1.0878
  117SOPE   H3Y12345   2.386   2.533   6.772 -0.1289  0.7686  0.0327
  117SOPE   C3412346   2.207   2.541   6.640  0.4255 -0.3805 -0.2851
  117SOPE   H4X12347   2.130   2.619   6.622 -0.9300 -1.1651  1.7445
  117SOPE   H4Y12348   2.157   2.449   6.676  0.8839 -1.1417 -1.5243
  117SOPE   C3512349   2.292   2.511   6.519  0.7030 -0.1124 -0.1326
  117SOPE   H5X12350   2.357   2.431   6.560  1.0340  0.9670  1.5617
  117SOPE   H5Y12351   2.345   2.603   6.487 -1.8870  0.8328 -2.0676
  117SOPE   C3612352   2.219   2.453   6.398 -0.0345  0.2805 -0.4044
  117SOPE   H6X12353   2.133   2.520   6.376 -0.5330 -0.5169 -0.9093
  117SOPE   H6Y12354   2.178   2.352   6.414 -0.4050 -0.2137 -3.7585
  117SOPE   C3712355   2.305   2.431   6.273  0.0989  0.1478  0.4972
  117SOPE   H7X12356   2.391   2.362   6.286 -0.8780 -0.7140  3.1035
  117SOPE   H7Y12357   2.347   2.532   6.250  1.0781 -0.1780  0.7966
  117SOPE   C3812358   2.228   2.397   6.150 -0.6342 -1.1040 -0.2219
  117SOPE   H8X12359   2.284   2.421   6.057 -1.2234  1.7384  0.0875
  117SOPE   H8Y12360   2.152   2.475   6.132  1.0747  0.0064 -3.5838
  117SOPE   C3912361   2.179   2.254   6.157  0.2580  0.1023 -0.1857
  117SOPE   H9X12362   2.118   2.233   6.247 -0.6353 -1.4170 -1.1008
  117SOPE   H9Y12363   2.268   2.187   6.156  1.6653  1.9028 -0.4582
  117SOPE  C31012364   2.087   2.228   6.034  0.6041 -0.1701  0.3961
  117SOPE  H10X12365   2.000   2.296   6.039  0.1805 -0.5445 -1.2465
  117SOPE  H10Y12366   2.061   2.120   6.043  1.2310 -0.2665  1.2529
  117SOPE  C31112367   2.161   2.252   5.909  0.1201  0.4157  0.7560
  117SOPE  H11X12368   2.260   2.203   5.904 -0.1984 -0.1297 -0.6019
  117SOPE  H11Y12369   2.171   2.362   5.903 -2.8989  0.9215  2.7504
  117SOPE  C31212370   2.078   2.205   5.788  0.2222 -0.2191 -0.3153
  117SOPE  H12X12371   1.971   2.233   5.797  0.0685 -0.8003 -0.2290
  117SOPE  H12Y12372   2.072   2.094   5.797 -0.2449 -0.0700  1.4719
  117SOPE  C31312373   2.144   2.247   5.655 -0.6724  0.8090  0.1625
  117SOPE  H13X12374   2.240   2.194   5.642 -1.0061  0.6035 -1.7686
  117SOPE  H13Y12375   2.170   2.354   5.663 -1.2059  1.1409 -1.9020
  117SOPE  C31412376   2.049   2.213   5.536 -0.4057 -0.2057 -0.3308
  117SOPE  H14X12377   1.951   2.265   5.530  0.2246  1.0688  0.0958
  117SOPE  H14Y12378   2.023   2.104   5.535  0.6147 -0.4756  0.9066
  117SOPE  C31512379   2.108   2.248   5.399 -0.8412  0.0980  0.5804
  117SOPE  H15X12380   2.188   2.325   5.410  0.1085 -1.1622  3.4704
  117SOPE  H15Y12381   2.030   2.274   5.324 -0.5827 -0.2290  0.1893
  117SOPE  C31612382   2.188   2.132   5.342  0.9845  0.2772  0.2416
  117SOPE  H16X12383   2.264   2.085   5.407 -0.6871 -1.6158  0.9413
  117SOPE  H16Y12384   2.231   2.167   5.245  1.2700  2.3168  1.0628
  117SOPE  C31712385   2.101   2.006   5.313  0.2462  0.2099  0.0413
  117SOPE  H17X12386   2.006   2.046   5.273 -0.5509 -0.1476  1.5123
  117SOPE  H17Y12387   2.078   1.955   5.409  2.0528 -0.5889  0.0984
  117SOPE  C31812388   2.175   1.908   5.217 -0.1012 -0.3970 -0.6346
  117SOPE  H18X12389   2.205   1.965   5.126 -1.4107  1.3499 -0.0270
  117SOPE  H18Y12390   2.103   1.830   5.183 -1.5928  1.0152 -0.8114
  117SOPE  H18Z12391   2.268   1.866   5.260  0.0484  0.6859  0.1115
  118SOPE     N12392   0.982   5.383   6.853 -0.8575 -0.2074 -0.4472
  118SOPE   HN112393   0.937   5.434   6.932 -2.6610  0.9635 -2.1370
  118SOPE   HN212394   0.904   5.375   6.784 -0.4631 -1.0591 -0.8003
  118SOPE   HN312395   1.017   5.295   6.896 -2.2238 -1.7813 -2.3694
  118SOPE   C1212396   1.088   5.476   6.804  0.7288  0.1754 -0.0622
  118SOPE  H12A12397   1.035   5.561   6.757  0.1582  0.2504  0.7012
  118SOPE  H12B12398   1.138   5.433   6.714 -0.8826 -0.3577 -0.7256
  118SOPE   C1112399   1.167   5.523   6.923 -0.1771  0.1329  0.6154
  118SOPE  H11A12400   1.176   5.440   6.997 -0.9768 -0.3131  0.2252
  118SOPE  H11B12401   1.126   5.608   6.983  0.5072  0.9562 -0.0685
  118SOPE     P12402   1.328   5.697   6.811  0.2788  0.4866  0.2152
  118SOPE   O1312403   1.231   5.698   6.696 -0.3508 -0.2894 -0.0020
  118SOPE   O1412404   1.472   5.703   6.781  0.4609  0.5044  0.7102
  118SOPE   O1212405   1.301   5.559   6.890 -0.0106 -0.0154  0.0919
  118SOPE   O1112406   1.302   5.815   6.909 -0.5572  0.2372 -0.3532
  118SOPE    C112407   1.253   5.942   6.854 -0.1079 -0.4841 -0.1089
  118SOPE    HA12408   1.230   6.001   6.946 -0.4039 -1.3501  0.3783
  118SOPE    HB12409   1.161   5.916   6.798  0.2036 -1.2637 -0.2654
  118SOPE    C212410   1.362   6.031   6.780  0.1849  0.0099  0.0235
  118SOPE    HS12411   1.301   6.123   6.765 -0.9278 -1.1040 -3.1507
  118SOPE   O2112412   1.404   5.978   6.655 -0.1096 -0.8256  0.3777
  118SOPE   C2112413   1.326   5.991   6.547  0.7723  0.3050  0.2032
  118SOPE   O2212414   1.217   6.048   6.542 -0.1927 -0.1448 -0.3709
  118SOPE   C2212415   1.371   5.902   6.433 -0.5715  0.0262  0.7032
  118SOPE   H2R12416   1.343   5.797   6.458 -0.8134 -0.3806 -1.1528
  118SOPE   H2S12417   1.481   5.916   6.427 -0.2395 -1.8076  1.7445
  118SOPE    C312418   1.483   6.068   6.871  0.2799 -0.4082 -0.2378
  118SOPE    HX12419   1.527   5.972   6.907  3.1374  0.7243 -0.4027
  118SOPE    HY12420   1.450   6.131   6.956  0.3633 -1.3776  0.5308
  118SOPE   O3112421   1.582   6.133   6.791  0.1635  0.0844  0.1083
  118SOPE   C3112422   1.562   6.268   6.774  0.2117 -0.2286 -0.1386
  118SOPE   O3212423   1.482   6.336   6.839 -0.1107  0.4658  0.5118
  118SOPE   C3212424   1.656   6.327   6.676 -0.6491 -0.6606  0.2336
  118SOPE   H2X12425   1.760   6.297   6.701  0.3247  1.4271 -0.9785
  118SOPE   H2Y12426   1.652   6.438   6.670 -1.7941 -0.6311  1.2040
  118SOPE   C2312427   1.300   5.932   6.292 -0.7161 -0.0458  0.9089
  118SOPE   H3R12428   1.323   6.036   6.260  0.1652 -0.8483 -1.3117
  118SOPE   H3S12429   1.190   5.921   6.298 -0.5585 -1.4283  1.7828
  118SOPE   C2412430   1.347   5.828   6.188 -0.0204 -0.1809  0.1119
  118SOPE   H4R12431   1.455   5.808   6.208  0.2217  0.7365 -0.2273
  118SOPE   H4S12432   1.288   5.735   6.198  0.8202 -0.7322  0.0610
  118SOPE   C2512433   1.319   5.864   6.034  0.1354  0.1359 -0.0405
  118SOPE   H5R12434   1.325   5.776   5.967 -0.9546  0.0331 -0.0235
  118SOPE   H5S12435   1.217   5.907   6.039  1.0450  2.3908  0.4710
  118SOPE   C2612436   1.413   5.968   5.981  0.4654 -0.6007  0.1494
  118SOPE   H6R12437   1.431   6.054   6.050  0.0460 -0.6331  0.3023
  118SOPE   H6S12438   1.515   5.935   5.953  2.0403  3.1552  0.7761
  118SOPE   C2712439   1.346   6.033   5.857 -0.6259 -0.7292  0.5625
  118SOPE   H7R12440   1.249   6.075   5.889 -1.2610 -1.2900 -0.5374
  118SOPE   H7S12441   1.405   6.116   5.812 -2.3155  0.6406  0.7930
  118SOPE   C2812442   1.302   5.947   5.734  0.0356 -0.1198 -0.2740
  118SOPE   H8R12443   1.259   5.852   5.771  0.6502  1.0284  3.9444
  118SOPE   H8S12444   1.234   6.006   5.669 -0.4559 -0.3840 -0.0046
  118SOPE   C2912445   1.431   5.922   5.654  0.0271 -0.1502 -0.4123
  118SOPE   H9112446   1.520   5.917   5.719  0.2073  1.6287 -0.4791
  118SOPE  C21012447   1.441   5.924   5.519 -0.4383 -1.2594  0.2050
  118SOPE  H10112448   1.538   5.897   5.474  0.8548 -0.6361  2.4465
  118SOPE  C21112449   1.327   5.939   5.423  0.0646  0.0721  0.4459
  118SOPE  H11R12450   1.336   6.035   5.367 -1.2639  1.0614  1.8606
  118SOPE  H11S12451   1.227   5.959   5.466 -0.6592 -0.0828 -1.1207
  118SOPE  C21212452   1.325   5.826   5.328  0.1437 -0.7031  0.0235
  118SOPE  H12R12453   1.226   5.816   5.279 -1.6073 -0.3667  3.2306
  118SOPE  H12S12454   1.330   5.731   5.386  1.1757 -1.2217 -0.8878
  118SOPE  C21312455   1.431   5.839   5.216  0.2340  0.1388 -0.9525
  118SOPE  H13R12456   1.536   5.857   5.245  0.2584  1.6312 -1.8542
  118SOPE  H13S12457   1.408   5.924   5.148 -1.8864 -1.0199 -1.7978
  118SOPE  C21412458   1.432   5.718   5.120 -0.5491 -0.3179  0.1256
  118SOPE  H14R12459   1.329   5.706   5.081 -0.1963  1.2573 -1.4376
  118SOPE  H14S12460   1.461   5.636   5.189  0.5626  0.7762  1.0236
  118SOPE  C21512461   1.541   5.727   5.009  0.3687 -0.5474  0.5149
  118SOPE  H15R12462   1.554   5.626   4.965 -0.0517 -0.4173  0.0764
  118SOPE  H15S12463   1.641   5.762   5.045 -0.1683  0.4684  1.0758
  118SOPE  C21612464   1.500   5.830   4.892  0.1747 -0.3636  0.1492
  118SOPE  H16R12465   1.495   5.930   4.941  0.4477 -0.4375  0.3283
  118SOPE  H16S12466   1.408   5.790   4.844 -0.0444 -1.6664  1.5849
  118SOPE  C21712467   1.612   5.842   4.783  0.6164  0.7459 -1.0461
  118SOPE  H17R12468   1.635   5.733   4.780  1.7089  0.8182  1.7699
  118SOPE  H17S12469   1.703   5.895   4.817  0.3739  0.8960 -0.6182
  118SOPE  C21812470   1.572   5.891   4.646  0.1439 -0.3857  0.0417
  118SOPE  H18R12471   1.491   5.832   4.600 -1.0268 -0.4149  2.0041
  118SOPE  H18S12472   1.663   5.884   4.583  0.9389 -0.0032  1.0987
  118SOPE  H18T12473   1.546   5.999   4.650 -1.3516 -0.7124 -0.2235
  118SOPE   C3312474   1.634   6.279   6.529  0.0964  0.3576 -0.4292
  118SOPE   H3X12475   1.642   6.169   6.524  2.4359  0.4066  0.6186
  118SOPE   H3Y12476   1.725   6.314   6.474 -1.1692  2.2451 -1.4233
  118SOPE   C3412477   1.506   6.317   6.460  0.1520  0.0437  0.1754
  118SOPE   H4X12478   1.498   6.428   6.461 -0.2835  0.0335 -1.1475
  118SOPE   H4Y12479   1.414   6.286   6.514 -0.2366  1.0644  0.1115
  118SOPE   C3512480   1.504   6.277   6.317  0.6071  1.3354  0.8333
  118SOPE   H5X12481   1.407   6.307   6.272  1.4376  1.1661 -1.1594
  118SOPE   H5Y12482   1.518   6.168   6.307  0.8294  1.4940 -0.9895
  118SOPE   C3612483   1.619   6.336   6.229 -0.0939 -0.2758  0.0306
  118SOPE   H6X12484   1.708   6.270   6.238  0.5919  0.3178 -1.8384
  118SOPE   H6Y12485   1.654   6.434   6.268  0.0669 -0.2036 -0.2872
  118SOPE   C3712486   1.581   6.329   6.082  0.3653  0.2815  1.2111
  118SOPE   H7X12487   1.493   6.397   6.075  0.7301  0.6928  0.4468
  118SOPE   H7Y12488   1.553   6.223   6.068 -2.2313  0.6118  3.1164
  118SOPE   C3812489   1.691   6.372   5.989 -0.1682 -1.0467 -0.7614
  118SOPE   H8X12490   1.785   6.325   6.026  2.0087  3.0863 -0.5000
  118SOPE   H8Y12491   1.704   6.480   6.007 -1.0016 -1.0668  0.0252
  118SOPE   C3912492   1.678   6.343   5.837 -0.2920  0.0788  0.2384
  118SOPE   H9X12493   1.679   6.233   5.828  1.4654 -0.0382  1.3412
  118SOPE   H9Y12494   1.772   6.384   5.794  0.1811 -0.3733  0.8159
  118SOPE  C31012495   1.553   6.407   5.775  0.4104 -0.0520  0.6185
  118SOPE  H10X12496   1.542   6.517   5.785 -0.8973 -0.1496  0.4872
  118SOPE  H10Y12497   1.462   6.368   5.825  1.0183 -0.8702  1.1169
  118SOPE  C31112498   1.528   6.356   5.624 -0.5287 -0.1744 -0.1920
  118SOPE  H11X12499   1.425   6.379   5.589  0.0613 -0.0788 -1.9865
  118SOPE  H11Y12500   1.544   6.246   5.613 -1.3112 -0.1461 -1.9909
  118SOPE  C31212501   1.619   6.444   5.531 -0.5522 -0.0054 -0.2107
  118SOPE  H12X12502   1.720   6.413   5.564 -0.5498 -0.2606 -0.4498
  118SOPE  H12Y12503   1.616   6.553   5.553  0.5022  0.2355 -1.1439
  118SOPE  C31312504   1.587   6.439   5.378  0.4691  0.5174 -0.2872
  118SOPE  H13X12505   1.486   6.481   5.361 -1.6932 -3.9901 -0.2041
  118SOPE  H13Y12506   1.577   6.332   5.348 -1.6858  0.4677  0.4418
  118SOPE  C31412507   1.690   6.505   5.294 -0.1905  0.0870 -0.9362
  118SOPE  H14X12508   1.782   6.447   5.314 -0.6429 -0.2424  0.2486
  118SOPE  H14Y12509   1.697   6.610   5.330 -1.5231 -0.0908 -0.0980
  118SOPE  C31512510   1.666   6.517   5.147 -0.3825 -0.2232 -0.1675
  118SOPE  H15X12511   1.571   6.569   5.123  0.2543  1.7378  1.2684
  118SOPE  H15Y12512   1.665   6.414   5.104 -0.7472  0.0522 -0.8242
  118SOPE  C31612513   1.783   6.579   5.075  0.0156 -0.0922  0.2919
  118SOPE  H16X12514   1.766   6.567   4.966 -2.1910  1.9581  0.3328
  118SOPE  H16Y12515   1.870   6.512   5.095  0.5078  0.8719  1.5281
  118SOPE  C31712516   1.810   6.731   5.091  0.1062  0.3728 -0.5872
  118SOPE  H17X12517   1.854   6.747   5.192  1.8224  1.0467 -1.4141
  118SOPE  H17Y12518   1.722   6.800   5.093 -0.4300 -0.1817 -2.8343
  118SOPE  C31812519   1.911   6.788   4.986 -0.2227  0.2353  0.2776
  118SOPE  H18X12520   1.998   6.720   4.973 -1.0947 -0.9288  0.3261
  118SOPE  H18Y12521   1.938   6.896   4.993 -0.9003  0.6213 -2.2074
  118SOPE  H18Z12522   1.861   6.779   4.887  0.3225 -1.4241  0.1166
  119SOPE     N12523   2.256   0.180   7.209 -0.1610  0.2089  0.6547
  119SOPE   HN112524   2.269   0.281   7.232  3.4645  0.3227 -1.1424
  119SOPE   HN212525   2.267   0.158   7.108  0.6562 -0.2025  0.8239
  119SOPE   HN312526   2.162   0.149   7.240 -0.5555 -0.0489 -0.7382
  119SOPE   C1212527   2.354   0.106   7.293  0.0614 -0.5433 -0.1986
  119SOPE  H12A12528   2.342   0.143   7.397  0.1446 -2.0131  0.3627
  119SOPE  H12B12529   2.456   0.127   7.256 -0.5002 -0.3771 -1.7221
  119SOPE   C1112530   2.334  -0.047   7.291 -0.4402  0.5344 -0.0186
  119SOPE  H11A12531   2.365  -0.078   7.189  0.3742 -1.6200  0.8224
  119SOPE  H11B12532   2.227  -0.068   7.312  0.4217 -0.9683  3.7084
  119SOPE     P12533   2.408  -0.266   7.412  0.1447  0.0379 -0.3173
  119SOPE   O1312534   2.266  -0.305   7.398  0.7378 -0.1327 -0.6709
  119SOPE   O1412535   2.476  -0.308   7.536  0.6349  0.6596  0.5585
  119SOPE   O1212536   2.416  -0.114   7.388  0.2785  0.3815 -0.9299
  119SOPE   O1112537   2.487  -0.319   7.282  0.2240  0.3552  0.5169
  119SOPE    C112538   2.618  -0.269   7.258 -0.4670 -0.5225 -0.5601
  119SOPE    HA12539   2.681  -0.264   7.349 -1.6646 -0.8885  0.3141
  119SOPE    HB12540   2.605  -0.169   7.210 -0.1317 -0.4398 -0.4775
  119SOPE    C212541   2.698  -0.345   7.156 -0.3864  0.6565 -0.3879
  119SOPE    HS12542   2.793  -0.298   7.126 -0.5585  0.2653 -1.6002
  119SOPE   O2112543   2.617  -0.385   7.045  0.0287 -0.8072  0.0464
  119SOPE   C2112544   2.592  -0.291   6.962 -0.4795  0.3260  0.3896
  119SOPE   O2212545   2.637  -0.178   6.959 -0.6979  0.0030  0.2633
  119SOPE   C2212546   2.510  -0.351   6.844  0.2500 -0.3930  0.3681
  119SOPE   H2R12547   2.414  -0.379   6.893  0.3148  0.3785  0.9641
  119SOPE   H2S12548   2.567  -0.438   6.804 -0.6795 -0.4414 -0.9143
  119SOPE    C312549   2.743  -0.482   7.225  0.4087  0.2100 -0.3328
  119SOPE    HX12550   2.651  -0.532   7.263  0.4274  0.7234  0.4189
  119SOPE    HY12551   2.807  -0.448   7.309  1.5027 -1.2732 -0.5447
  119SOPE   O3112552   2.812  -0.574   7.147  0.0782 -0.1265  0.8802
  119SOPE   C3112553   2.937  -0.541   7.109  0.8564  0.3214  0.4430
  119SOPE   O3212554   2.995  -0.444   7.156  0.0079  0.2017 -0.2722
  119SOPE   C3212555   2.982  -0.639   7.006  0.2800  0.1376  0.2753
  119SOPE   H2X12556   2.908  -0.721   6.994 -0.2359  0.1615  2.7346
  119SOPE   H2Y12557   3.071  -0.681   7.058 -0.0967  0.1912  0.9825
  119SOPE   C2312558   2.470  -0.253   6.737  0.1154 -0.1237  0.2102
  119SOPE   H3R12559   2.557  -0.210   6.684  0.4052 -0.5629  0.3238
  119SOPE   H3S12560   2.412  -0.166   6.776 -0.7289 -0.2648 -0.6844
  119SOPE   C2412561   2.376  -0.325   6.640 -0.0445  0.1255  0.0305
  119SOPE   H4R12562   2.433  -0.415   6.611  0.3583 -0.0366  1.2993
  119SOPE   H4S12563   2.286  -0.356   6.697  0.1664 -0.4581  0.0540
  119SOPE   C2512564   2.336  -0.233   6.525  0.5213  0.6476 -0.0809
  119SOPE   H5R12565   2.228  -0.207   6.517  0.6331  0.5505 -4.3097
  119SOPE   H5S12566   2.400  -0.142   6.526  0.3706  0.7516  0.8396
  119SOPE   C2612567   2.355  -0.316   6.391 -0.3751 -0.6586  0.0535
  119SOPE   H6R12568   2.459  -0.354   6.375  0.7465  1.6406  1.3712
  119SOPE   H6S12569   2.280  -0.397   6.399 -0.1761 -0.9269 -0.7836
  119SOPE   C2712570   2.335  -0.236   6.268 -0.0119 -0.6054 -0.0521
  119SOPE   H7R12571   2.261  -0.154   6.282  0.8052  0.1164  0.1161
  119SOPE   H7S12572   2.429  -0.183   6.244 -0.2237 -0.0205  0.3954
  119SOPE   C2812573   2.308  -0.323   6.146  0.8026  0.1108 -0.4992
  119SOPE   H8R12574   2.221  -0.386   6.175  0.0896  1.5625  0.6428
  119SOPE   H8S12575   2.277  -0.271   6.053  1.8697 -1.7652 -1.9755
  119SOPE   C2912576   2.429  -0.407   6.104 -0.1891 -0.1510 -0.3420
  119SOPE   H9112577   2.450  -0.500   6.159 -0.8792 -0.7451 -1.0476
  119SOPE  C21012578   2.502  -0.388   5.994 -0.0119 -0.6764  0.3336
  119SOPE  H10112579   2.581  -0.462   5.976 -1.6302 -2.2843 -0.5149
  119SOPE  C21112580   2.495  -0.281   5.889 -0.3127  0.7550  0.0153
  119SOPE  H11R12581   2.589  -0.222   5.901  0.2287  0.3481 -1.8425
  119SOPE  H11S12582   2.398  -0.230   5.905 -0.9846 -0.9697  1.8752
  119SOPE  C21212583   2.504  -0.342   5.748  0.1918 -0.0689 -0.5407
  119SOPE  H12R12584   2.502  -0.256   5.678  0.3302  0.6464  0.3154
  119SOPE  H12S12585   2.410  -0.397   5.726  1.8968 -3.6859  0.4938
  119SOPE  C21312586   2.636  -0.422   5.736  0.6420 -0.1697  0.4165
  119SOPE  H13R12587   2.637  -0.522   5.785 -0.2334 -0.0793  0.6422
  119SOPE  H13S12588   2.715  -0.357   5.779  1.2734  0.0144 -0.9903
  119SOPE  C21412589   2.669  -0.456   5.594 -0.0858  0.1832  0.3033
  119SOPE  H14R12590   2.681  -0.364   5.534  1.9437  0.6786  1.3969
  119SOPE  H14S12591   2.591  -0.511   5.536  1.0924 -0.8529 -0.3716
  119SOPE  C21512592   2.794  -0.539   5.575 -0.3409  0.2326 -0.4424
  119SOPE  H15R12593   2.808  -0.569   5.469  2.0358  0.0294 -0.1325
  119SOPE  H15S12594   2.786  -0.627   5.642 -2.1602 -1.1909 -2.4077
  119SOPE  C21612595   2.917  -0.461   5.612 -0.0112 -0.9999 -0.0469
  119SOPE  H16R12596   2.895  -0.418   5.712 -0.1046  1.5698 -1.0848
  119SOPE  H16S12597   2.918  -0.371   5.546 -1.1040  0.7948  2.2393
  119SOPE  C21712598   3.048  -0.538   5.603  0.2925 -0.1864 -0.6475
  119SOPE  H17R12599   3.117  -0.467   5.654 -1.0074 -1.0113  2.5175
  119SOPE  H17S12600   3.079  -0.554   5.498 -1.8124  2.4994 -1.8146
  119SOPE  C21812601   3.063  -0.675   5.675  0.5753 -0.5782  0.0253
  119SOPE  H18R12602   3.170  -0.703   5.685  0.9902 -1.1413 -4.1883
  119SOPE  H18S12603   3.008  -0.751   5.617 -0.1528 -0.9466  1.1715
  119SOPE  H18T12604   3.028  -0.674   5.780  2.3068  4.1407  0.7983
  119SOPE   C3312605   3.018  -0.568   6.876  0.6395  0.6930 -0.5335
  119SOPE   H3X12606   3.095  -0.620   6.814  0.0828 -0.2509 -0.4521
  119SOPE   H3Y12607   3.054  -0.463   6.882 -0.1611  0.9304  0.2540
  119SOPE   C3412608   2.884  -0.544   6.793 -0.4881  0.0149 -0.4243
  119SOPE   H4X12609   2.814  -0.472   6.841 -0.0596 -1.3431  2.4128
  119SOPE   H4Y12610   2.830  -0.639   6.775 -0.2144  0.0059 -1.2443
  119SOPE   C3512611   2.908  -0.472   6.654  0.3032  0.0827  0.2974
  119SOPE   H5X12612   2.957  -0.537   6.578  0.7352  1.3511 -0.5538
  119SOPE   H5Y12613   2.972  -0.382   6.668 -0.3298  0.5852  0.0473
  119SOPE   C3612614   2.779  -0.419   6.585  0.1198 -0.1993  0.9577
  119SOPE   H6X12615   2.745  -0.341   6.656 -1.5707 -0.0354  0.0213
  119SOPE   H6Y12616   2.694  -0.490   6.588  0.2996 -0.7552 -2.7629
  119SOPE   C3712617   2.789  -0.359   6.449 -0.4315 -1.0362  0.1107
  119SOPE   H7X12618   2.871  -0.284   6.448  1.4606 -2.9971 -0.8467
  119SOPE   H7Y12619   2.699  -0.306   6.413  0.4928  0.0946 -0.6239
  119SOPE   C3812620   2.819  -0.464   6.342 -0.8403  0.1601  0.1024
  119SOPE   H8X12621   2.747  -0.549   6.351 -1.4544  0.6368 -0.2164
  119SOPE   H8Y12622   2.921  -0.506   6.356  0.2246  1.7404 -2.3114
  119SOPE   C3912623   2.823  -0.407   6.196  0.2623 -0.1036 -0.3474
  119SOPE   H9X12624   2.738  -0.336   6.203 -0.3212 -0.9461  2.0963
  119SOPE   H9Y12625   2.793  -0.482   6.120 -0.3629  0.9216 -1.1372
  119SOPE  C31012626   2.953  -0.340   6.158  0.2465  0.1068 -0.4691
  119SOPE  H10X12627   3.039  -0.410   6.158  0.8217  0.4362 -5.7773
  119SOPE  H10Y12628   2.975  -0.267   6.239 -2.1317 -0.4584  0.8058
  119SOPE  C31112629   2.952  -0.275   6.016 -0.3939 -0.6909 -0.5525
  119SOPE  H11X12630   2.868  -0.204   6.002  0.3173 -0.0199 -1.6250
  119SOPE  H11Y12631   2.926  -0.347   5.936 -0.5974  0.7283 -1.8211
  119SOPE  C31212632   3.082  -0.213   5.960 -0.1262  0.0239  0.0727
  119SOPE  H12X12633   3.157  -0.292   5.939 -0.4341  0.0087 -0.9971
  119SOPE  H12Y12634   3.123  -0.152   6.043  1.5489 -0.0101 -0.6914
  119SOPE  C31312635   3.062  -0.125   5.838 -0.3999 -0.0929  0.2190
  119SOPE  H13X12636   2.988  -0.044   5.851  0.0327  0.3712 -0.1565
  119SOPE  H13Y12637   3.004  -0.192   5.770 -3.0542  1.0400  1.2353
  119SOPE  C31412638   3.195  -0.059   5.781  0.1917 -0.2569 -0.1039
  119SOPE  H14X12639   3.261  -0.142   5.749  1.9219  0.6150  1.0534
  119SOPE  H14Y12640   3.236  -0.016   5.875 -0.0977  1.3519 -0.6811
  119SOPE  C31512641   3.181   0.046   5.677 -1.1938  0.8099 -0.6826
  119SOPE  H15X12642   3.283   0.088   5.661 -0.2715 -0.2450  1.9347
  119SOPE  H15Y12643   3.123   0.132   5.716  2.1242  3.0577 -0.2541
  119SOPE  C31612644   3.119   0.005   5.540  0.0105 -0.1731  0.4440
  119SOPE  H16X12645   3.030  -0.058   5.559 -0.0394  0.0371  0.9107
  119SOPE  H16Y12646   3.197  -0.058   5.492 -0.2228  1.1019 -1.7954
  119SOPE  C31712647   3.096   0.129   5.440  0.3708 -0.3398  0.0355
  119SOPE  H17X12648   3.023   0.200   5.486  0.7392 -0.3543  0.6429
  119SOPE  H17Y12649   3.053   0.095   5.343 -1.2854  2.0974 -0.1926
  119SOPE  C31812650   3.222   0.207   5.400 -0.3142  0.4932  0.2663
  119SOPE  H18X12651   3.254   0.243   5.499 -0.3983 -0.1800  0.5461
  119SOPE  H18Y12652   3.194   0.291   5.333 -1.0102 -1.2244 -1.7145
  119SOPE  H18Z12653   3.305   0.145   5.359 -0.7364  0.2096 -0.1724
  120SOPE     N12654   3.310   1.314   7.221  0.1791  0.5468 -0.1247
  120SOPE   HN112655   3.360   1.239   7.273 -0.7317  0.4761  0.6839
  120SOPE   HN212656   3.305   1.390   7.291  0.9121  0.3602  0.1369
  120SOPE   HN312657   3.219   1.274   7.188  0.1191 -0.4002  1.0870
  120SOPE   C1212658   3.390   1.348   7.099  0.5522 -0.9344 -0.2912
  120SOPE  H12A12659   3.370   1.275   7.018 -0.3686  2.3515 -3.2639
  120SOPE  H12B12660   3.496   1.344   7.131  0.3472  1.6178  0.9696
  120SOPE   C1112661   3.344   1.478   7.043  0.5610 -0.3461  0.2056
  120SOPE  H11A12662   3.242   1.464   7.002  1.8346 -0.9091 -3.0982
  120SOPE  H11B12663   3.403   1.506   6.952  0.4090 -1.5995 -0.2889
  120SOPE     P12664   3.478   1.675   7.169 -0.4591 -0.2841 -0.2075
  120SOPE   O1312665   3.574   1.605   7.257 -0.0036  0.2387 -0.6721
  120SOPE   O1412666   3.410   1.802   7.209  0.0073  0.1121  0.1004
  120SOPE   O1212667   3.351   1.581   7.141 -0.0392 -0.8679  0.4711
  120SOPE   O1112668   3.549   1.695   7.025  0.2739  0.2315 -0.2224
  120SOPE    C112669   3.545   1.817   6.956 -0.1767 -0.0093  0.0014
  120SOPE    HA12670   3.645   1.845   6.915 -0.8226  2.7676  0.1166
  120SOPE    HB12671   3.508   1.901   7.018 -0.4020  0.8829 -1.3063
  120SOPE    C212672   3.468   1.809   6.819  0.4823 -0.3861 -0.5083
  120SOPE    HS12673   3.369   1.768   6.848  0.4678  0.1699  0.2590
  120SOPE   O2112674   3.532   1.725   6.726 -0.9929 -0.3079  0.3171
  120SOPE   C2112675   3.463   1.637   6.659  0.2444 -0.0477  0.7462
  120SOPE   O2212676   3.344   1.617   6.666  0.7930 -0.4030 -0.3045
  120SOPE   C2212677   3.552   1.576   6.554  0.5822  0.4862 -0.0437
  120SOPE   H2R12678   3.499   1.485   6.518 -0.6471 -0.1792  3.1292
  120SOPE   H2S12679   3.646   1.553   6.607  0.6116  2.4761  0.8657
  120SOPE    C312680   3.456   1.947   6.759  0.2374 -0.4604 -0.2203
  120SOPE    HX12681   3.559   1.975   6.731  0.5524 -0.0476  1.2666
  120SOPE    HY12682   3.416   2.016   6.836  1.4486 -0.3614  0.3299
  120SOPE   O3112683   3.375   1.957   6.642 -0.3832 -0.0157  0.4880
  120SOPE   C3112684   3.251   2.008   6.642  0.2864 -0.0070 -0.7321
  120SOPE   O3212685   3.204   2.065   6.739  0.1487 -0.1659  0.3494
  120SOPE   C3212686   3.178   1.998   6.505 -0.3562 -0.1893 -0.2487
  120SOPE   H2X12687   3.141   1.894   6.490  1.2327 -0.9046  0.5067
  120SOPE   H2Y12688   3.255   2.024   6.429 -1.5045  1.9810 -0.7454
  120SOPE   C2312689   3.587   1.661   6.426  0.3838 -0.2380 -0.8679
  120SOPE   H3R12690   3.658   1.612   6.356  0.3407 -0.7036 -0.5893
  120SOPE   H3S12691   3.638   1.756   6.453 -0.4579  0.3232 -1.2240
  120SOPE   C2412692   3.471   1.697   6.339  0.7081 -0.5712 -0.3497
  120SOPE   H4R12693   3.436   1.603   6.292  0.8143  0.3315 -2.3502
  120SOPE   H4S12694   3.387   1.759   6.379 -0.7856 -0.8961 -2.7599
  120SOPE   C2512695   3.504   1.791   6.220 -0.4838  0.3690  0.5529
  120SOPE   H5R12696   3.524   1.893   6.261  0.7769  0.8144 -1.0766
  120SOPE   H5S12697   3.587   1.756   6.155 -0.8922  1.4892 -0.6068
  120SOPE   C2612698   3.392   1.810   6.111 -0.7466 -0.1270  0.6223
  120SOPE   H6R12699   3.383   1.714   6.057  0.5394 -0.4705  0.9975
  120SOPE   H6S12700   3.292   1.829   6.157 -2.0811  0.8258 -2.3939
  120SOPE   C2712701   3.405   1.923   6.011  0.1570 -0.4221 -0.3237
  120SOPE   H7R12702   3.411   2.014   6.075  1.2521 -0.8322  0.1832
  120SOPE   H7S12703   3.493   1.905   5.946 -1.2643 -1.4601 -2.0413
  120SOPE   C2812704   3.282   1.934   5.918  0.3113  0.3495 -0.3504
  120SOPE   H8R12705   3.297   1.846   5.851  0.0447 -0.3479  0.4933
  120SOPE   H8S12706   3.194   1.928   5.985  1.9900 -0.8228  1.8541
  120SOPE   C2912707   3.279   2.069   5.851 -0.2240  0.0770  0.0177
  120SOPE   H9112708   3.278   2.157   5.918  0.2629 -1.7987  2.6465
  120SOPE  C21012709   3.314   2.096   5.720  0.2367  0.4917  0.0680
  120SOPE  H10112710   3.311   2.202   5.691  1.2909  0.7507  0.8818
  120SOPE  C21112711   3.320   1.985   5.613  1.0507  0.1478  0.2134
  120SOPE  H11R12712   3.257   2.015   5.527  0.4987  0.0320  0.5716
  120SOPE  H11S12713   3.275   1.889   5.646 -0.3055  0.4023 -0.7954
  120SOPE  C21212714   3.459   1.969   5.575 -0.7917  0.1901 -0.2721
  120SOPE  H12R12715   3.525   1.947   5.662  0.6554 -0.4160 -1.5019
  120SOPE  H12S12716   3.503   2.058   5.526  0.7585 -0.4793 -0.1556
  120SOPE  C21312717   3.476   1.855   5.482  0.3125  0.7120 -0.0076
  120SOPE  H13R12718   3.414   1.887   5.396 -0.1367  1.9225  0.7381
  120SOPE  H13S12719   3.429   1.761   5.519 -0.2046  1.5972  1.7060
  120SOPE  C21412720   3.614   1.824   5.431  0.3241 -0.1044 -0.3561
  120SOPE  H14R12721   3.606   1.733   5.368  0.9280 -0.3665 -0.0601
  120SOPE  H14S12722   3.677   1.815   5.523 -0.7316  2.0161  0.6531
  120SOPE  C21512723   3.679   1.934   5.345 -0.8106 -0.2332  0.3663
  120SOPE  H15R12724   3.688   2.038   5.383 -0.1414  0.2667 -1.0602
  120SOPE  H15S12725   3.609   1.943   5.259  0.3045  0.5083 -0.4885
  120SOPE  C21612726   3.818   1.900   5.289  0.5500 -0.6312 -0.6634
  120SOPE  H16R12727   3.886   1.901   5.377 -3.1827  1.4445  2.5084
  120SOPE  H16S12728   3.849   1.977   5.215  1.0034  0.5263  0.6709
  120SOPE  C21712729   3.823   1.759   5.232  0.0719 -0.4790  0.2761
  120SOPE  H17R12730   3.754   1.752   5.146 -1.8980 -1.1724  1.8350
  120SOPE  H17S12731   3.804   1.678   5.306  2.3504 -0.6159  0.7891
  120SOPE  C21812732   3.964   1.733   5.177  0.1005 -0.7981 -0.2495
  120SOPE  H18R12733   3.996   1.819   5.116 -0.5676  1.2906  2.1745
  120SOPE  H18S12734   3.979   1.637   5.122  0.0126 -1.5305  0.9596
  120SOPE  H18T12735   4.036   1.732   5.263 -0.5848  0.7422  0.3798
  120SOPE   C3312736   3.058   2.091   6.486 -0.1618  0.1789 -0.1462
  120SOPE   H3X12737   3.090   2.194   6.511 -0.6422  0.1129  0.7837
  120SOPE   H3Y12738   2.979   2.071   6.561 -0.6108  0.5602 -0.5132
  120SOPE   C3412739   2.990   2.076   6.352 -0.0128  0.7190  0.5125
  120SOPE   H4X12740   2.880   2.073   6.366 -0.2616  0.2195 -1.3456
  120SOPE   H4Y12741   3.014   1.980   6.301  1.1583  1.7028 -0.8814
  120SOPE   C3512742   3.017   2.194   6.250 -0.3086 -0.4734  0.1009
  120SOPE   H5X12743   3.126   2.195   6.230  0.0393  1.5722  1.7187
  120SOPE   H5Y12744   2.992   2.289   6.303  3.0196 -0.5792  2.1509
  120SOPE   C3612745   2.936   2.169   6.125 -0.2270 -0.3616 -0.4408
  120SOPE   H6X12746   2.828   2.173   6.152  0.0987  2.2320  0.8292
  120SOPE   H6Y12747   2.968   2.068   6.093  3.2373  0.8858 -1.4154
  120SOPE   C3712748   2.969   2.258   6.013  0.0169 -0.1906 -0.8671
  120SOPE   H7X12749   3.069   2.246   5.964  0.1476 -0.7226 -0.4775
  120SOPE   H7Y12750   2.951   2.365   6.037 -2.2284 -0.4603 -1.1478
  120SOPE   C3812751   2.875   2.227   5.904  0.5528  0.4083  0.4858
  120SOPE   H8X12752   2.772   2.257   5.933 -0.3173  1.8482 -3.4513
  120SOPE   H8Y12753   2.877   2.118   5.884  1.0136  0.3148  1.0183
  120SOPE   C3912754   2.899   2.307   5.776  0.7317  0.0940 -0.1205
  120SOPE   H9X12755   2.992   2.270   5.728 -0.2433 -0.9585 -1.2621
  120SOPE   H9Y12756   2.914   2.415   5.798 -1.2653  0.2986  0.4788
  120SOPE  C31012757   2.783   2.304   5.686 -0.1972 -0.2245 -0.0989
  120SOPE  H10X12758   2.795   2.386   5.613  2.1540 -0.5039 -0.1049
  120SOPE  H10Y12759   2.688   2.322   5.742 -0.4405  0.7105 -0.7970
  120SOPE  C31112760   2.780   2.170   5.612 -0.2448  0.9620  0.4161
  120SOPE  H11X12761   2.771   2.086   5.684 -1.6733  0.7304  0.0049
  120SOPE  H11Y12762   2.874   2.144   5.559 -0.2259 -1.1726  1.3931
  120SOPE  C31212763   2.664   2.143   5.511  0.5493 -0.5169 -0.0541
  120SOPE  H12X12764   2.575   2.135   5.577  1.1334  1.1413  1.0307
  120SOPE  H12Y12765   2.682   2.050   5.454  0.5007 -0.6721  0.1835
  120SOPE  C31312766   2.634   2.263   5.417 -0.3630 -0.2234  0.2281
  120SOPE  H13X12767   2.732   2.305   5.386 -0.4119 -0.0973  0.2464
  120SOPE  H13Y12768   2.576   2.338   5.475  1.2016  0.1082  1.4069
  120SOPE  C31412769   2.555   2.232   5.288  0.2360 -0.6478  0.0196
  120SOPE  H14X12770   2.484   2.150   5.315  0.7241 -1.4758 -1.0838
  120SOPE  H14Y12771   2.608   2.183   5.203 -0.9793 -0.6696 -0.7608
  120SOPE  C31512772   2.470   2.354   5.245  0.0097  0.2948 -0.0803
  120SOPE  H15X12773   2.394   2.386   5.320 -1.3491 -2.6546 -0.0851
  120SOPE  H15Y12774   2.414   2.321   5.155  0.2082 -0.8873  0.2146
  120SOPE  C31612775   2.564   2.483   5.223  0.0792  0.4148  0.6017
  120SOPE  H16X12776   2.642   2.469   5.145 -1.1618 -0.2800 -0.5661
  120SOPE  H16Y12777   2.613   2.500   5.321  0.6332  1.1098  0.2148
  120SOPE  C31712778   2.487   2.613   5.197  0.2405 -0.2309 -0.6269
  120SOPE  H17X12779   2.419   2.603   5.110 -1.5368 -0.6636  0.7499
  120SOPE  H17Y12780   2.576   2.676   5.175  0.7668 -0.6678  0.1636
  120SOPE  C31812781   2.407   2.657   5.322  0.2110  0.2425 -1.0829
  120SOPE  H18X12782   2.319   2.593   5.338 -0.0056  0.5482 -1.0418
  120SOPE  H18Y12783   2.377   2.764   5.320 -1.9162 -0.3028 -0.7636
  120SOPE  H18Z12784   2.478   2.647   5.407 -0.3660 -1.7594 -0.7982
  121SOPE     N12785   1.391   5.990   7.400 -0.6338  0.3407  0.4067
  121SOPE   HN112786   1.389   6.082   7.352 -1.1974  0.0658 -0.1161
  121SOPE   HN212787   1.428   5.922   7.329 -1.0659  0.4608  0.0597
  121SOPE   HN312788   1.294   5.961   7.423 -0.2420  0.5407  2.4720
  121SOPE   C1212789   1.482   5.997   7.513 -0.6799 -0.3376 -0.3861
  121SOPE  H12A12790   1.429   5.970   7.607 -0.5565  1.4631  0.2202
  121SOPE  H12B12791   1.502   6.105   7.524 -0.6733 -0.0094 -2.9768
  121SOPE   C1112792   1.607   5.923   7.487 -0.2208 -0.2507  0.3956
  121SOPE  H11A12793   1.592   5.813   7.480  4.4621 -1.0295 -2.1677
  121SOPE  H11B12794   1.675   5.947   7.572  0.0647  1.4705 -0.2720
  121SOPE     P12795   1.837   5.973   7.363  0.3975 -0.0472  0.3661
  121SOPE   O1312796   1.891   5.873   7.460 -0.0386 -0.3032  0.4894
  121SOPE   O1412797   1.881   6.112   7.378 -0.7284  0.5551 -0.5760
  121SOPE   O1212798   1.679   5.967   7.371  0.1077 -0.6861  0.5092
  121SOPE   O1112799   1.870   5.938   7.210 -0.1601 -0.2270  0.4402
  121SOPE    C112800   1.824   6.030   7.114  0.0487  0.4127  0.0457
  121SOPE    HA12801   1.753   6.101   7.161 -1.7780 -2.1789  1.4749
  121SOPE    HB12802   1.756   5.961   7.060  2.1467 -0.7654 -1.2360
  121SOPE    C212803   1.930   6.089   7.016 -0.5449 -0.4337 -0.4240
  121SOPE    HS12804   1.872   6.127   6.930 -1.2433  3.0451  1.4155
  121SOPE   O2112805   2.034   5.991   6.981 -0.4690  0.2787  0.5439
  121SOPE   C2112806   1.999   5.907   6.891 -0.2774 -0.4211 -0.7300
  121SOPE   O2212807   1.887   5.896   6.844 -0.2231 -0.0182  0.3744
  121SOPE   C2212808   2.120   5.825   6.836  0.5655  0.1928  0.3753
  121SOPE   H2R12809   2.110   5.715   6.847  0.1331  0.4046  2.4427
  121SOPE   H2S12810   2.204   5.848   6.905 -0.3542 -1.7810  2.2815
  121SOPE    C312811   2.003   6.211   7.089 -0.0081  0.8827 -0.2093
  121SOPE    HX12812   2.071   6.181   7.172  1.2249  1.1937 -1.0892
  121SOPE    HY12813   1.927   6.281   7.131  0.5568  0.0864  2.3293
  121SOPE   O3112814   2.069   6.279   6.982  0.2896 -0.3003 -0.0649
  121SOPE   C3112815   2.007   6.379   6.924 -1.0326 -0.6906  0.5896
  121SOPE   O3212816   1.897   6.418   6.947  0.7298  0.6095 -0.0184
  121SOPE   C3212817   2.096   6.452   6.832 -0.3775  1.1315  0.1753
  121SOPE   H2X12818   2.201   6.435   6.865  0.1439  0.4940 -1.6673
  121SOPE   H2Y12819   2.073   6.560   6.835 -0.7614  1.1362 -1.8741
  121SOPE   C2312820   2.170   5.878   6.694  0.2825  0.0177  0.4479
  121SOPE   H3R12821   2.266   5.826   6.669 -0.8436 -1.9354 -0.0467
  121SOPE   H3S12822   2.188   5.987   6.698 -0.9990  0.2104  2.7704
  121SOPE   C2412823   2.067   5.841   6.582  0.4073 -0.2288 -0.1344
  121SOPE   H4R12824   2.006   5.753   6.610  0.2428 -0.8411 -2.2607
  121SOPE   H4S12825   1.995   5.925   6.592 -1.3706 -1.7103 -0.1298
  121SOPE   C2512826   2.144   5.823   6.453  0.3398 -0.7400  0.2096
  121SOPE   H5R12827   2.208   5.910   6.425 -0.5703 -0.0491  0.2291
  121SOPE   H5S12828   2.202   5.729   6.464  3.0378  0.8273  0.3103
  121SOPE   C2612829   2.053   5.805   6.330  0.0960  0.1650  0.3643
  121SOPE   H6R12830   2.100   5.763   6.239 -2.5030  0.6510 -1.3132
  121SOPE   H6S12831   1.973   5.731   6.353 -1.7577  1.7870 -0.5270
  121SOPE   C2712832   1.995   5.942   6.287  0.5962  0.5076  0.3144
  121SOPE   H7R12833   1.932   5.976   6.371  0.0659  2.3103 -0.7517
  121SOPE   H7S12834   2.085   6.008   6.283  0.8039  0.2969  1.3433
  121SOPE   C2812835   1.920   5.937   6.155  0.5402 -0.5055  0.8300
  121SOPE   H8R12836   1.876   6.038   6.141 -0.0876 -0.6358  1.7465
  121SOPE   H8S12837   1.999   5.902   6.085  0.4049  0.5939  0.1077
  121SOPE   C2912838   1.806   5.842   6.152  0.0540 -0.9741 -0.1792
  121SOPE   H9112839   1.768   5.819   6.253 -0.1912  0.9104  0.2044
  121SOPE  C21012840   1.747   5.789   6.050  0.2289 -0.3486  0.4872
  121SOPE  H10112841   1.674   5.708   6.068 -0.5486 -0.2422 -1.8042
  121SOPE  C21112842   1.765   5.819   5.902 -0.0073  0.3035 -0.0387
  121SOPE  H11R12843   1.811   5.917   5.881 -0.0068  0.4703  0.7055
  121SOPE  H11S12844   1.669   5.808   5.846  0.7436 -0.9332 -1.1402
  121SOPE  C21212845   1.858   5.708   5.843 -0.0058  0.2844  0.1653
  121SOPE  H12R12846   1.831   5.605   5.875  0.6923  0.1625  0.3804
  121SOPE  H12S12847   1.957   5.736   5.885 -0.7169  1.3106  1.2233
  121SOPE  C21312848   1.869   5.706   5.689 -0.6193  0.1679 -0.5146
  121SOPE  H13R12849   1.972   5.671   5.665 -0.7871 -2.5747  2.1997
  121SOPE  H13S12850   1.863   5.813   5.659  0.0128  0.4496  0.3400
  121SOPE  C21412851   1.769   5.606   5.627 -0.1934  0.2759 -0.0839
  121SOPE  H14R12852   1.669   5.651   5.647 -0.2240 -0.8163  2.6403
  121SOPE  H14S12853   1.764   5.510   5.682  2.5302  1.0383  1.6914
  121SOPE  C21512854   1.795   5.588   5.475  0.3124  0.0129  0.8046
  121SOPE  H15R12855   1.898   5.550   5.458  0.9612  1.4740  1.2702
  121SOPE  H15S12856   1.788   5.687   5.424  0.0641  0.3110  1.4145
  121SOPE  C21612857   1.691   5.491   5.402  0.0870  0.2885 -0.5552
  121SOPE  H16R12858   1.597   5.549   5.419  1.0005  1.5103  0.5351
  121SOPE  H16S12859   1.689   5.398   5.462  1.7582  0.0350 -0.8454
  121SOPE  C21712860   1.721   5.483   5.251  0.0365 -0.5647 -0.0521
  121SOPE  H17R12861   1.827   5.449   5.245  1.4709  1.6396  5.5362
  121SOPE  H17S12862   1.727   5.582   5.202 -0.7590 -0.9103 -0.8733
  121SOPE  C21812863   1.630   5.388   5.177  0.1511  0.1373 -0.1598
  121SOPE  H18R12864   1.688   5.330   5.103  1.7867 -0.0181  1.1942
  121SOPE  H18S12865   1.540   5.438   5.135 -0.3749 -0.5920  0.0661
  121SOPE  H18T12866   1.598   5.311   5.251  0.2685  1.7017  1.5940
  121SOPE   C3312867   2.088   6.429   6.680 -0.3780 -0.3489  0.4518
  121SOPE   H3X12868   2.142   6.507   6.621 -2.6585  1.2240  0.3172
  121SOPE   H3Y12869   1.983   6.434   6.644 -0.3251 -2.3309 -0.0769
  121SOPE   C3412870   2.135   6.292   6.638 -0.2500  0.1237  0.0947
  121SOPE   H4X12871   2.060   6.229   6.691  1.7911 -1.7874  0.8652
  121SOPE   H4Y12872   2.236   6.272   6.681  0.8972  1.1942 -1.9126
  121SOPE   C3512873   2.127   6.249   6.488 -0.6872 -0.0678  0.1136
  121SOPE   H5X12874   2.028   6.204   6.466  0.3620 -1.8785 -1.2557
  121SOPE   H5Y12875   2.203   6.174   6.459  0.8278  1.9667 -1.5534
  121SOPE   C3612876   2.149   6.371   6.396  0.3615 -0.2844 -0.1039
  121SOPE   H6X12877   2.241   6.423   6.432  0.0943  0.2588 -0.1856
  121SOPE   H6Y12878   2.062   6.440   6.387 -0.6702 -1.0524  2.8780
  121SOPE   C3712879   2.188   6.334   6.252  0.4217 -0.2171 -0.5152
  121SOPE   H7X12880   2.264   6.253   6.249 -1.1288 -1.7116 -1.0172
  121SOPE   H7Y12881   2.229   6.428   6.208 -0.3129 -0.1288 -1.0311
  121SOPE   C3812882   2.071   6.280   6.171 -0.2007 -0.2687  0.9324
  121SOPE   H8X12883   2.006   6.367   6.148 -0.4170 -0.4666  0.7801
  121SOPE   H8Y12884   2.008   6.203   6.222  1.9756 -1.4100  2.0223
  121SOPE   C3912885   2.130   6.229   6.037  0.2111 -0.1232  0.9281
  121SOPE   H9X12886   2.194   6.141   6.061  1.2237  0.2895 -0.1810
  121SOPE   H9Y12887   2.207   6.303   6.008  0.2108  0.3101  1.9913
  121SOPE  C31012888   2.037   6.200   5.923 -0.9576  0.3712  0.0867
  121SOPE  H10X12889   1.985   6.292   5.889 -0.3272  2.3319  3.8754
  121SOPE  H10Y12890   1.952   6.135   5.952 -2.4825  1.3302 -1.9554
  121SOPE  C31112891   2.100   6.127   5.798 -0.1275 -0.5924  0.0822
  121SOPE  H11X12892   2.143   6.029   5.828 -0.2401  0.0430  2.6230
  121SOPE  H11Y12893   2.187   6.185   5.759  0.9695 -1.6662  0.8390
  121SOPE  C31212894   2.000   6.093   5.690  0.3989 -0.5512  0.6736
  121SOPE  H12X12895   1.901   6.064   5.731 -0.5913  2.8006  0.9871
  121SOPE  H12Y12896   2.048   6.012   5.632  1.1629 -0.9343  1.7957
  121SOPE  C31312897   1.964   6.204   5.589 -0.0607 -0.4792 -0.2028
  121SOPE  H13X12898   2.053   6.223   5.525  0.2402  1.7132  0.7533
  121SOPE  H13Y12899   1.931   6.291   5.649  0.4705 -2.8586  3.8641
  121SOPE  C31412900   1.856   6.162   5.491  1.1393  0.0465  0.2347
  121SOPE  H14X12901   1.817   6.245   5.428 -0.0885 -1.1470 -0.6484
  121SOPE  H14Y12902   1.775   6.106   5.543  1.0555  0.7305  0.8442
  121SOPE  C31512903   1.919   6.064   5.388  0.2957 -0.1683  0.6714
  121SOPE  H15X12904   1.947   5.973   5.446 -0.7066 -0.7455  0.2946
  121SOPE  H15Y12905   2.016   6.101   5.349 -0.8091  0.4353 -1.7079
  121SOPE  C31612906   1.834   6.045   5.261  0.2054 -0.1105 -0.3904
  121SOPE  H16X12907   1.790   6.140   5.225 -1.3906 -0.8616 -0.5349
  121SOPE  H16Y12908   1.744   5.985   5.286  1.7878 -0.9613  4.2987
  121SOPE  C31712909   1.911   5.986   5.139  0.0118  0.0446 -0.5746
  121SOPE  H17X12910   1.983   6.062   5.102  0.6257  0.9807  2.3134
  121SOPE  H17Y12911   1.855   5.973   5.044  0.8526  0.7534 -1.1847
  121SOPE  C31812912   1.984   5.856   5.175 -0.2264  0.5370 -0.4336
  121SOPE  H18X12913   2.011   5.790   5.090 -0.3394 -2.0191  1.4069
  121SOPE  H18Y12914   1.923   5.786   5.236  0.0327 -1.3152 -2.1902
  121SOPE  H18Z12915   2.082   5.880   5.222  1.3883 -0.5248 -3.0225
  122SOPE     N12916   4.434   6.373   7.162 -0.4071 -0.8956  0.3349
  122SOPE   HN112917   4.374   6.288   7.160 -0.7369 -0.6604 -0.8308
  122SOPE   HN212918   4.525   6.336   7.196  0.7747  2.0187  0.6424
  122SOPE   HN312919   4.400   6.453   7.219  1.7423  2.2051 -2.3722
  122SOPE   C1212920   4.443   6.426   7.019 -0.4647 -0.5289 -0.7233
  122SOPE  H12A12921   4.340   6.456   6.990 -0.7443 -0.1031  0.6421
  122SOPE  H12B12922   4.473   6.346   6.948  1.6056 -0.3093 -0.1561
  122SOPE   C1112923   4.529   6.549   7.020 -0.4843 -0.1109  1.1477
  122SOPE  H11A12924   4.535   6.573   6.912 -0.0903 -0.5591  1.0623
  122SOPE  H11B12925   4.632   6.526   7.056 -1.3764 -2.1121  2.6240
  122SOPE     P12926   4.378   6.760   7.044  0.3529 -0.2259 -0.0221
  122SOPE   O1312927   4.449   6.889   7.018  0.5695 -0.0060 -0.8181
  122SOPE   O1412928   4.248   6.767   7.116 -0.1671  0.1906 -0.4922
  122SOPE   O1212929   4.473   6.651   7.105 -0.0726  0.0357  0.3144
  122SOPE   O1112930   4.345   6.702   6.911 -0.0628 -0.6297 -0.1382
  122SOPE    C112931   4.220   6.696   6.853  0.2754 -0.3785 -0.4040
  122SOPE    HA12932   4.184   6.801   6.846  0.5019 -0.1574  1.3335
  122SOPE    HB12933   4.148   6.635   6.911  0.6102 -1.7457 -1.3680
  122SOPE    C212934   4.227   6.635   6.711 -0.1593 -0.2774 -0.3474
  122SOPE    HS12935   4.133   6.636   6.651  1.4967 -1.8485 -3.1848
  122SOPE   O2112936   4.259   6.497   6.732  0.1543 -0.0231 -0.0596
  122SOPE   C2112937   4.155   6.424   6.761 -0.0608 -0.0730  0.1142
  122SOPE   O2212938   4.044   6.477   6.779 -0.2976  0.2256  0.3514
  122SOPE   C2212939   4.183   6.278   6.752 -0.4237 -0.2734  0.1571
  122SOPE   H2R12940   4.254   6.251   6.833  0.0421  0.3304 -0.0426
  122SOPE   H2S12941   4.243   6.255   6.661  0.5245 -2.6311  1.2858
  122SOPE    C312942   4.341   6.697   6.616  0.2492  0.5759 -0.0848
  122SOPE    HX12943   4.439   6.658   6.651 -1.1062 -2.2655  0.8388
  122SOPE    HY12944   4.338   6.806   6.637  1.5884  0.4300  1.0715
  122SOPE   O3112945   4.311   6.671   6.474  0.1009  0.0982 -0.2495
  122SOPE   C3112946   4.346   6.550   6.420  0.1544 -0.3398 -0.2520
  122SOPE   O3212947   4.385   6.456   6.487  0.0670 -0.2656  0.2305
  122SOPE   C3212948   4.337   6.557   6.265  0.3706  0.8080 -0.1484
  122SOPE   H2X12949   4.393   6.642   6.220 -0.4189  0.2210 -2.3869
  122SOPE   H2Y12950   4.231   6.580   6.241  0.1611  2.0891  1.7674
  122SOPE   C2312951   4.062   6.180   6.761  0.1645  0.0061 -0.3794
  122SOPE   H3R12952   3.973   6.240   6.792  1.1246  0.3095  1.9941
  122SOPE   H3S12953   4.089   6.094   6.826  0.3336  0.5496  0.2795
  122SOPE   C2412954   4.028   6.122   6.621 -0.0105 -0.4129 -0.2379
  122SOPE   H4R12955   3.937   6.060   6.638 -0.6386  0.6045  0.1798
  122SOPE   H4S12956   4.001   6.195   6.543 -0.3255 -1.3515 -1.0302
  122SOPE   C2512957   4.121   6.017   6.563  0.1206 -0.1806 -0.0590
  122SOPE   H5R12958   4.219   6.065   6.541 -0.7147  0.6699 -2.1261
  122SOPE   H5S12959   4.136   5.934   6.636  1.8479 -0.2173 -0.3965
  122SOPE   C2612960   4.092   5.958   6.430  0.4737  0.1286  0.6645
  122SOPE   H6R12961   3.988   5.917   6.431  0.8309 -0.9926 -1.3920
  122SOPE   H6S12962   4.087   6.027   6.344 -0.8689 -2.0011 -1.0920
  122SOPE   C2712963   4.173   5.840   6.386  0.0266 -0.1820 -0.2678
  122SOPE   H7R12964   4.282   5.859   6.382 -0.0206 -0.0494 -3.5352
  122SOPE   H7S12965   4.157   5.754   6.453 -2.7469 -0.1454 -0.7687
  122SOPE   C2812966   4.124   5.789   6.251  0.8131 -0.5216  0.7508
  122SOPE   H8R12967   4.014   5.780   6.246  0.7194  0.9367 -1.3415
  122SOPE   H8S12968   4.151   5.871   6.180  3.3861  0.1679  2.3683
  122SOPE   C2912969   4.191   5.661   6.216 -0.2205  0.0488 -0.5130
  122SOPE   H9112970   4.264   5.623   6.289 -2.0771 -1.2120  0.8138
  122SOPE  C21012971   4.171   5.584   6.109 -0.2823 -0.1183  0.4669
  122SOPE  H10112972   4.215   5.485   6.089  0.0772  0.6045 -3.0398
  122SOPE  C21112973   4.074   5.631   6.005  0.6470 -0.2494  0.9358
  122SOPE  H11R12974   4.048   5.739   6.001 -3.6070 -1.1069 -1.3634
  122SOPE  H11S12975   3.978   5.575   6.009  0.1894  0.5253  1.1836
  122SOPE  C21212976   4.134   5.597   5.865  0.0296  0.0301  0.0695
  122SOPE  H12R12977   4.135   5.487   5.852  1.6064  0.0278  0.1132
  122SOPE  H12S12978   4.236   5.638   5.853 -0.0450  0.1108 -0.3297
  122SOPE  C21312979   4.048   5.663   5.756 -0.5727  1.0961 -0.6059
  122SOPE  H13R12980   4.058   5.773   5.765 -0.3705  1.1075 -0.9639
  122SOPE  H13S12981   3.942   5.645   5.785  0.0546 -0.3011  1.0397
  122SOPE  C21412982   4.085   5.611   5.618 -0.3158 -0.1943 -0.5934
  122SOPE  H14R12983   4.194   5.630   5.606 -0.6326  1.2613 -1.4560
  122SOPE  H14S12984   4.025   5.671   5.546 -0.3632  0.0731 -0.3331
  122SOPE  C21512985   4.043   5.466   5.599 -0.9135 -0.2106  0.3125
  122SOPE  H15R12986   3.947   5.459   5.655  0.0699 -0.2693  2.0337
  122SOPE  H15S12987   4.115   5.394   5.643  0.3928  1.0942  0.3838
  122SOPE  C21612988   4.017   5.441   5.447 -0.1687 -0.2886 -0.3043
  122SOPE  H16R12989   4.099   5.487   5.388 -1.2648  1.3692 -0.6201
  122SOPE  H16S12990   3.934   5.502   5.405  0.5154 -0.7177 -2.4067
  122SOPE  C21712991   4.008   5.295   5.405  0.2748  0.0103 -0.4376
  122SOPE  H17R12992   4.066   5.224   5.468  1.9527  2.1625  0.5879
  122SOPE  H17S12993   4.047   5.290   5.301  1.3047  0.7700 -0.1046
  122SOPE  C21812994   3.865   5.238   5.405  0.8692 -0.2754  0.2447
  122SOPE  H18R12995   3.815   5.285   5.318  1.8092 -0.8826 -0.6476
  122SOPE  H18S12996   3.814   5.256   5.502  0.7303  0.9071 -0.0285
  122SOPE  H18T12997   3.860   5.127   5.401 -1.4722 -0.2309  0.7126
  122SOPE   C3312998   4.381   6.427   6.201  0.2907 -0.0984 -0.2220
  122SOPE   H3X12999   4.333   6.338   6.248 -0.5900 -0.0687 -1.0465
  122SOPE   H3Y13000   4.490   6.418   6.221  0.2424  1.6115  1.1088
  122SOPE   C3413001   4.376   6.421   6.053  0.6914 -0.2305  0.4371
  122SOPE   H4X13002   4.447   6.342   6.019 -1.1564 -0.9256 -2.1467
  122SOPE   H4Y13003   4.407   6.516   6.004  0.9389 -1.6215 -2.3082
  122SOPE   C3513004   4.244   6.377   5.996 -0.1944 -0.0510  0.2574
  122SOPE   H5X13005   4.164   6.451   6.019 -2.8988 -1.7825 -2.6482
  122SOPE   H5Y13006   4.219   6.287   6.056  0.3803 -0.2039  0.2744
  122SOPE   C3613007   4.252   6.344   5.842  0.0042 -0.0822  0.9031
  122SOPE   H6X13008   4.147   6.318   5.818  0.2719 -1.1554  0.8488
  122SOPE   H6Y13009   4.317   6.255   5.828 -0.2677  0.0467 -1.4617
  122SOPE   C3713010   4.322   6.449   5.755 -0.0511 -0.0487 -0.6717
  122SOPE   H7X13011   4.430   6.459   5.778  0.3148 -0.7503 -1.9759
  122SOPE   H7Y13012   4.274   6.548   5.771  1.6872  1.0337 -1.9067
  122SOPE   C3813013   4.309   6.429   5.604 -0.1368 -0.2208  0.4701
  122SOPE   H8X13014   4.378   6.348   5.572  2.7053  1.4936  1.8995
  122SOPE   H8Y13015   4.356   6.523   5.566 -1.7872  0.2867 -0.4280
  122SOPE   C3913016   4.166   6.397   5.553  0.1454 -0.1012 -0.2957
  122SOPE   H9X13017   4.100   6.458   5.617 -0.2856 -2.0029  1.1458
  122SOPE   H9Y13018   4.136   6.292   5.572 -1.5375  0.7722  2.4293
  122SOPE  C31013019   4.153   6.432   5.404 -0.5195  0.8466 -0.0079
  122SOPE  H10X13020   4.182   6.535   5.375  0.3201  0.1067 -1.9708
  122SOPE  H10Y13021   4.049   6.412   5.370  0.0177  0.8676 -1.7846
  122SOPE  C31113022   4.245   6.343   5.313 -0.5475  0.6038 -0.7861
  122SOPE  H11X13023   4.214   6.238   5.332  0.7957 -0.0377 -1.9883
  122SOPE  H11Y13024   4.352   6.350   5.344 -0.0836 -0.1039 -2.1625
  122SOPE  C31213025   4.234   6.386   5.167  0.3816  0.2798  0.5021
  122SOPE  H12X13026   4.297   6.476   5.154 -0.1215  0.9294  2.3332
  122SOPE  H12Y13027   4.125   6.389   5.143  0.4623 -0.5429 -0.0304
  122SOPE  C31313028   4.299   6.283   5.076 -0.1116 -0.1437 -0.0364
  122SOPE  H13X13029   4.232   6.200   5.045 -0.3323 -0.2164  0.6298
  122SOPE  H13Y13030   4.378   6.243   5.142  0.3729  1.9659  0.7548
  122SOPE  C31413031   4.359   6.337   4.950 -0.5298 -0.3677  0.5401
  122SOPE  H14X13032   4.447   6.400   4.974 -0.4921 -1.0338  2.2554
  122SOPE  H14Y13033   4.291   6.416   4.911 -1.1547 -0.2113  1.8896
  122SOPE  C31513034   4.381   6.227   4.842  0.4846 -1.2269 -0.0675
  122SOPE  H15X13035   4.413   6.283   4.752  2.2885  1.2859  2.0057
  122SOPE  H15Y13036   4.284   6.180   4.815 -0.5520  0.3635  0.7400
  122SOPE  C31613037   4.482   6.114   4.886  0.4063  0.0459  0.5349
  122SOPE  H16X13038   4.439   6.067   4.977 -0.7645  1.2277  0.6289
  122SOPE  H16Y13039   4.583   6.155   4.907  0.3678 -0.2782  1.3833
  122SOPE  C31713040   4.500   6.014   4.772 -0.5129  0.1203  0.3691
  122SOPE  H17X13041   4.405   5.988   4.719  0.8893 -2.0359 -1.2425
  122SOPE  H17Y13042   4.560   5.930   4.812  1.6750  1.7517  0.6523
  122SOPE  C31813043   4.573   6.080   4.654  0.5279  0.0527 -0.7240
  122SOPE  H18X13044   4.502   6.112   4.574 -0.2714 -0.9752 -0.4409
  122SOPE  H18Y13045   4.641   6.010   4.601 -1.9611 -2.0125 -1.3754
  122SOPE  H18Z13046   4.637   6.162   4.694  0.7178 -1.1311  1.5176
  123SOPE     N13047   1.231   3.409   3.216 -0.3553  0.1951  0.2075
  123SOPE   HN113048   1.183   3.389   3.126 -0.4516 -0.3217  0.3689
  123SOPE   HN213049   1.263   3.313   3.242 -0.2131 -1.1263 -3.9737
  123SOPE   HN313050   1.159   3.432   3.287  0.6932 -0.3374  1.4891
  123SOPE   C1213051   1.343   3.513   3.196  1.1788  0.3687  0.9559
  123SOPE  H12A13052   1.418   3.475   3.124  0.0281  1.5977 -0.9811
  123SOPE  H12B13053   1.385   3.542   3.295  0.1987 -0.1987  1.5562
  123SOPE   C1113054   1.275   3.641   3.141 -0.1165  0.0892  0.5671
  123SOPE  H11A13055   1.257   3.625   3.033  2.4737  0.7301 -0.0312
  123SOPE  H11B13056   1.358   3.714   3.127  0.8588 -1.5108 -3.7500
  123SOPE     P13057   1.115   3.830   3.223 -0.4153 -0.4171 -0.0474
  123SOPE   O1313058   0.967   3.836   3.223 -0.2781 -0.2535  0.3172
  123SOPE   O1413059   1.191   3.914   3.127  0.3828  0.1188  0.4205
  123SOPE   O1213060   1.163   3.679   3.218  0.1021 -0.0762  0.8280
  123SOPE   O1113061   1.151   3.874   3.374  0.2114 -0.4476  0.7023
  123SOPE    C113062   1.287   3.912   3.406 -0.5314  0.1243  0.2583
  123SOPE    HA13063   1.319   4.012   3.372 -1.0849  0.2916  0.2130
  123SOPE    HB13064   1.354   3.838   3.358  1.3702  2.4290 -0.7877
  123SOPE    C213065   1.316   3.886   3.554  0.3863  1.0864  0.3315
  123SOPE    HS13066   1.239   3.938   3.614 -1.2297  1.3971 -1.8677
  123SOPE   O2113067   1.452   3.932   3.580 -0.7163  0.0416  0.0909
  123SOPE   C2113068   1.470   3.984   3.705 -0.3098  0.2847 -0.1504
  123SOPE   O2213069   1.387   3.976   3.793 -0.2682 -0.2067  0.1869
  123SOPE   C2213070   1.601   4.056   3.711 -1.3621 -0.2310 -0.5560
  123SOPE   H2R13071   1.586   4.147   3.649 -3.3340  0.4273  0.7914
  123SOPE   H2S13072   1.679   3.984   3.679  1.7850  1.6139  2.3136
  123SOPE    C313073   1.309   3.731   3.584  0.1155 -0.1825  0.9984
  123SOPE    HX13074   1.396   3.691   3.529  0.5746  1.5347  0.3919
  123SOPE    HY13075   1.220   3.676   3.546  0.9354 -1.7592  1.2994
  123SOPE   O3113076   1.332   3.708   3.722  0.2702  0.5145 -0.1963
  123SOPE   C3113077   1.227   3.724   3.803  0.1996  0.2735  0.3512
  123SOPE   O3213078   1.117   3.750   3.767  0.7061  0.0914  0.0169
  123SOPE   C3213079   1.255   3.704   3.953  0.5412 -0.2643  0.6713
  123SOPE   H2X13080   1.364   3.719   3.964  0.1199  2.0237  2.5684
  123SOPE   H2Y13081   1.240   3.596   3.976  0.2219 -0.8660 -2.0081
  123SOPE   C2313082   1.642   4.091   3.858  0.1093 -0.1433  0.5027
  123SOPE   H3R13083   1.586   4.028   3.930 -1.8852 -2.2333 -2.6116
  123SOPE   H3S13084   1.622   4.199   3.871 -0.4981  0.0695 -1.7685
  123SOPE   C2413085   1.792   4.093   3.880 -0.0763  0.0826 -0.6770
  123SOPE   H4R13086   1.839   3.992   3.886  3.0507  1.4606  0.0845
  123SOPE   H4S13087   1.835   4.159   3.802 -1.2192  0.7219 -0.7851
  123SOPE   C2513088   1.816   4.159   4.013  0.3198 -0.1067  0.0128
  123SOPE   H5R13089   1.804   4.269   4.004  1.3708 -0.0026 -0.2338
  123SOPE   H5S13090   1.746   4.122   4.090  0.3936 -0.4928 -0.1044
  123SOPE   C2613091   1.960   4.142   4.061 -0.0583  0.0715  0.1431
  123SOPE   H6R13092   2.001   4.039   4.055  2.4539  1.0127  0.2414
  123SOPE   H6S13093   2.030   4.185   3.987 -0.3132 -2.4492 -1.7239
  123SOPE   C2713094   1.995   4.198   4.201  0.8195  0.0632 -0.6880
  123SOPE   H7R13095   1.962   4.304   4.195 -1.4400 -0.5171  0.2157
  123SOPE   H7S13096   1.932   4.146   4.276  0.8366  0.5963 -0.3029
  123SOPE   C2813097   2.140   4.173   4.229 -0.4983  0.1196 -0.4857
  123SOPE   H8R13098   2.151   4.161   4.339  0.8893 -0.1523 -0.6433
  123SOPE   H8S13099   2.165   4.069   4.202 -1.3744 -0.8532  2.0886
  123SOPE   C2913100   2.234   4.269   4.175 -0.8767 -0.0444  0.9136
  123SOPE   H9113101   2.188   4.340   4.105  2.0623  0.3655 -0.7578
  123SOPE  C21013102   2.361   4.270   4.201 -1.3798  0.5269 -0.6773
  123SOPE  H10113103   2.429   4.328   4.136 -1.8501 -0.2680 -1.9052
  123SOPE  C21113104   2.428   4.169   4.282 -0.7440  0.2041 -0.0828
  123SOPE  H11R13105   2.520   4.124   4.236  0.5208  1.8709  0.7300
  123SOPE  H11S13106   2.368   4.079   4.309 -2.0231  0.5647 -1.5433
  123SOPE  C21213107   2.477   4.226   4.419  0.0207  0.5497  0.4002
  123SOPE  H12R13108   2.532   4.321   4.398 -1.5090  1.4798  0.4382
  123SOPE  H12S13109   2.554   4.159   4.461  1.7151  0.5134 -2.5077
  123SOPE  C21313110   2.369   4.251   4.528 -0.3409  0.2742 -0.8310
  123SOPE  H13R13111   2.324   4.157   4.566 -1.8000  1.4356  0.4336
  123SOPE  H13S13112   2.282   4.295   4.475  0.2579  0.8488 -1.3599
  123SOPE  C21413113   2.409   4.342   4.650 -0.7783 -0.2208  0.4341
  123SOPE  H14R13114   2.324   4.338   4.721  1.0117 -2.2899  2.6191
  123SOPE  H14S13115   2.408   4.447   4.613  0.4628  0.2471  1.6782
  123SOPE  C21513116   2.530   4.296   4.730  0.0288  0.2027 -0.9924
  123SOPE  H15R13117   2.618   4.318   4.666  1.5082 -0.7610  0.6167
  123SOPE  H15S13118   2.517   4.186   4.738 -1.8203  0.4447  0.1319
  123SOPE  C21613119   2.554   4.369   4.860 -0.5016  0.3447 -0.2223
  123SOPE  H16R13120   2.650   4.335   4.906  0.6741 -0.1435 -2.8741
  123SOPE  H16S13121   2.478   4.348   4.939 -1.8593  0.7663 -1.3812
  123SOPE  C21713122   2.585   4.519   4.842 -0.0361  0.0571 -0.5050
  123SOPE  H17R13123   2.599   4.571   4.940  3.3364  0.2747 -0.9765
  123SOPE  H17S13124   2.487   4.559   4.810 -0.9594 -1.1441  0.6914
  123SOPE  C21813125   2.700   4.550   4.748 -0.3481  0.0310 -0.7165
  123SOPE  H18R13126   2.787   4.486   4.773 -2.2954 -2.0948  1.0414
  123SOPE  H18S13127   2.725   4.657   4.753 -1.0840  0.2375 -1.1996
  123SOPE  H18T13128   2.673   4.523   4.643 -0.1252 -1.2771 -0.4608
  123SOPE   C3313129   1.169   3.800   4.038 -0.1162  0.5562  0.0431
  123SOPE   H3X13130   1.110   3.875   3.981 -2.5753 -2.1962 -1.2961
  123SOPE   H3Y13131   1.239   3.856   4.103  1.1993  0.8591 -1.5805
  123SOPE   C3413132   1.064   3.720   4.117 -0.1229  0.5357  0.0597
  123SOPE   H4X13133   1.112   3.656   4.193 -1.1966  0.2952  0.5580
  123SOPE   H4Y13134   0.992   3.659   4.058  1.1842 -0.7617 -0.2436
  123SOPE   C3513135   0.968   3.801   4.207  0.1990  0.5323  0.1580
  123SOPE   H5X13136   0.914   3.727   4.269 -0.0880  0.1865 -0.4926
  123SOPE   H5Y13137   0.894   3.863   4.153  2.8267  3.2238 -0.6160
  123SOPE   C3613138   1.052   3.886   4.311  0.1442 -0.3517 -0.0462
  123SOPE   H6X13139   1.125   3.953   4.261 -0.3961  1.4228  1.4164
  123SOPE   H6Y13140   1.103   3.807   4.371 -1.2668 -2.8867 -1.9797
  123SOPE   C3713141   0.961   3.977   4.392  0.7295  0.0719  0.2435
  123SOPE   H7X13142   0.912   3.922   4.476 -0.0623 -1.7299 -1.3283
  123SOPE   H7Y13143   0.881   4.018   4.327 -0.2741  2.6314  2.8372
  123SOPE   C3813144   1.041   4.097   4.442 -0.2078  1.0773  0.5162
  123SOPE   H8X13145   1.095   4.149   4.360  0.8729  1.6664  1.5509
  123SOPE   H8Y13146   1.110   4.064   4.523  1.1590 -1.5655 -1.5575
  123SOPE   C3913147   0.948   4.206   4.485 -0.0184  0.4206 -0.9990
  123SOPE   H9X13148   0.882   4.164   4.564  2.2828 -2.2958 -0.3169
  123SOPE   H9Y13149   0.882   4.221   4.397 -0.7001  0.9284 -0.4132
  123SOPE  C31013150   1.023   4.332   4.526  0.2582 -0.2646  0.4441
  123SOPE  H10X13151   1.105   4.337   4.451  0.5775 -0.9808  0.7420
  123SOPE  H10Y13152   1.067   4.319   4.627 -0.5904 -3.4654  0.4854
  123SOPE  C31113153   0.930   4.443   4.518 -0.2118  0.1829  0.3217
  123SOPE  H11X13154   0.885   4.433   4.417 -2.6849 -0.7196  1.4324
  123SOPE  H11Y13155   0.986   4.539   4.515  2.7637 -1.3689  2.2839
  123SOPE  C31213156   0.817   4.449   4.615 -0.0194  0.9399 -0.4794
  123SOPE  H12X13157   0.856   4.476   4.715  0.2613  2.0046 -0.8647
  123SOPE  H12Y13158   0.776   4.345   4.617  4.5983 -1.0958  1.0496
  123SOPE  C31313159   0.714   4.557   4.593 -0.8119 -0.8915 -0.4865
  123SOPE  H13X13160   0.756   4.656   4.566 -0.6738 -1.2285 -1.5677
  123SOPE  H13Y13161   0.656   4.558   4.688  1.0803 -1.0960  0.7250
  123SOPE  C31413162   0.616   4.530   4.473  0.7865  0.7065  0.3213
  123SOPE  H14X13163   0.549   4.443   4.486 -1.0231  1.7053 -1.6420
  123SOPE  H14Y13164   0.683   4.518   4.385  1.2048  2.8455  0.2799
  123SOPE  C31513165   0.521   4.641   4.444 -0.6207  0.3691 -0.1497
  123SOPE  H15X13166   0.578   4.726   4.401  0.2848  0.7647  1.7435
  123SOPE  H15Y13167   0.457   4.664   4.532 -0.3782 -1.7909  0.6671
  123SOPE  C31613168   0.431   4.599   4.326  0.4170 -0.1539 -0.0585
  123SOPE  H16X13169   0.352   4.529   4.361  0.4307 -0.2843 -0.2896
  123SOPE  H16Y13170   0.492   4.560   4.242 -0.2165  1.3753 -1.2570
  123SOPE  C31713171   0.360   4.726   4.271  1.0881  0.0067 -0.0965
  123SOPE  H17X13172   0.425   4.813   4.246 -0.4323  1.1211 -0.3166
  123SOPE  H17Y13173   0.306   4.768   4.359  0.3230  0.5384 -0.8125
  123SOPE  C31813174   0.246   4.703   4.168 -0.2689  0.6131 -0.2360
  123SOPE  H18X13175   0.286   4.683   4.066  0.0627  1.2295 -0.2350
  123SOPE  H18Y13176   0.177   4.789   4.172 -2.9191 -1.2084 -2.7205
  123SOPE  H18Z13177   0.188   4.615   4.201  0.4652  0.6111  1.1039
  124SOPE     N13178   1.534   5.826   2.855  0.3252  0.4817  0.0767
  124SOPE   HN113179   1.611   5.758   2.868 -0.1444 -0.6187 -2.3614
  124SOPE   HN213180   1.444   5.775   2.844 -0.5606  1.7412  1.1234
  124SOPE   HN313181   1.538   5.878   2.765 -3.7814 -1.0397 -1.2215
  124SOPE   C1213182   1.537   5.923   2.973  0.2293 -0.1783  0.4245
  124SOPE  H12A13183   1.461   5.883   3.044 -1.2665 -1.7216 -1.8849
  124SOPE  H12B13184   1.497   6.022   2.942  0.4424  0.4688  2.0893
  124SOPE   C1113185   1.676   5.948   3.031  0.6614 -0.0060  0.3740
  124SOPE  H11A13186   1.674   6.017   3.118  0.0166  0.3619  0.0689
  124SOPE  H11B13187   1.738   5.992   2.951 -0.1188  3.6329  1.6012
  124SOPE     P13188   1.708   5.751   3.204 -0.3363  0.0168 -0.0290
  124SOPE   O1313189   1.831   5.672   3.235 -0.2985 -0.0016  0.1407
  124SOPE   O1413190   1.584   5.668   3.201  0.1289 -0.1397 -0.9599
  124SOPE   O1213191   1.727   5.819   3.065  0.3649 -0.6267  0.1476
  124SOPE   O1113192   1.687   5.874   3.300  0.1400  0.0428  0.0076
  124SOPE    C113193   1.562   5.891   3.376 -0.8057 -0.1132 -0.2926
  124SOPE    HA13194   1.515   5.794   3.403 -0.5743  0.3627  1.9628
  124SOPE    HB13195   1.490   5.957   3.321 -2.7598 -0.8512  1.2819
  124SOPE    C213196   1.590   5.950   3.517  0.5107  0.3227 -0.2466
  124SOPE    HS13197   1.651   6.042   3.501  1.9297 -0.6416 -0.5699
  124SOPE   O2113198   1.650   5.851   3.598  0.2472 -0.6637  0.2190
  124SOPE   C2113199   1.776   5.847   3.605  0.6299 -1.1887  0.3550
  124SOPE   O2213200   1.848   5.939   3.559 -0.5737  0.3384  0.0365
  124SOPE   C2213201   1.827   5.714   3.661  0.0918  0.2939 -0.2774
  124SOPE   H2R13202   1.911   5.676   3.598 -0.1149  2.7171 -2.1782
  124SOPE   H2S13203   1.753   5.631   3.666  0.2728  0.1882  0.9249
  124SOPE    C313204   1.458   5.999   3.578  0.2610  0.3977 -0.6795
  124SOPE    HX13205   1.375   5.926   3.582 -1.3293  2.1874  0.7040
  124SOPE    HY13206   1.414   6.083   3.520 -0.7509  0.7621  0.5868
  124SOPE   O3113207   1.478   6.039   3.717 -0.4026  0.2126  0.2160
  124SOPE   C3113208   1.529   6.164   3.730  0.1454  0.6381 -0.2753
  124SOPE   O3213209   1.545   6.242   3.638  0.1784 -0.0678 -0.3616
  124SOPE   C3213210   1.555   6.205   3.872  0.1225 -0.7538 -0.2795
  124SOPE   H2X13211   1.465   6.232   3.931 -0.0341  0.4248 -1.0361
  124SOPE   H2Y13212   1.612   6.300   3.863 -1.5208  0.2106 -0.9968
  124SOPE   C2313213   1.883   5.733   3.804 -0.1581  0.1453  0.2017
  124SOPE   H3R13214   1.887   5.627   3.838 -1.2115 -0.1433 -0.5289
  124SOPE   H3S13215   1.807   5.789   3.864 -1.4293 -0.2683 -0.9675
  124SOPE   C2413216   2.021   5.782   3.817 -0.7223  0.6724  0.3172
  124SOPE   H4R13217   2.075   5.770   3.720  1.3042  1.1625  1.3155
  124SOPE   H4S13218   2.030   5.887   3.853  0.8087  0.1908  1.4494
  124SOPE   C2513219   2.115   5.700   3.918 -0.2501 -0.1938  0.2236
  124SOPE   H5R13220   2.088   5.729   4.021  0.0793 -2.0210  0.8566
  124SOPE   H5S13221   2.093   5.592   3.911  2.0260 -0.6873 -0.1601
  124SOPE   C2613222   2.267   5.719   3.908 -0.2596  0.1653  0.1480
  124SOPE   H6R13223   2.313   5.671   3.818  2.9709  1.1775  1.1112
  124SOPE   H6S13224   2.305   5.823   3.902 -0.7134  0.3208 -0.0740
  124SOPE   C2713225   2.344   5.669   4.032  0.1928  0.2805 -0.4500
  124SOPE   H7R13226   2.315   5.737   4.116  0.5167 -1.3744  1.0593
  124SOPE   H7S13227   2.297   5.575   4.068 -0.9771  1.2385  0.6349
  124SOPE   C2813228   2.493   5.668   4.013 -0.1525 -0.0504  0.4726
  124SOPE   H8R13229   2.526   5.613   4.104  3.1144  2.1194  0.7847
  124SOPE   H8S13230   2.516   5.599   3.929 -1.0314 -2.8372  2.3822
  124SOPE   C2913231   2.561   5.799   4.012  0.0931 -0.2968  0.6178
  124SOPE   H9113232   2.535   5.863   3.926 -0.6033 -0.1711  0.9207
  124SOPE  C21013233   2.654   5.844   4.099  0.0994 -0.9572 -0.3954
  124SOPE  H10113234   2.688   5.947   4.081 -2.0551 -0.3443 -1.3165
  124SOPE  C21113235   2.719   5.776   4.219 -0.3185  0.3751  0.5487
  124SOPE  H11R13236   2.829   5.792   4.212 -0.5627  1.6899 -1.0482
  124SOPE  H11S13237   2.701   5.668   4.200  2.0617 -0.1219  0.8972
  124SOPE  C21213238   2.667   5.807   4.358 -0.0250  0.1696  0.1343
  124SOPE  H12R13239   2.679   5.916   4.376 -0.2547  0.1250  0.5708
  124SOPE  H12S13240   2.740   5.756   4.425  2.3178  1.4673 -1.2900
  124SOPE  C21313241   2.519   5.770   4.388 -0.3893 -0.5030  0.7099
  124SOPE  H13R13242   2.508   5.664   4.356  0.0377 -0.4141  0.2582
  124SOPE  H13S13243   2.460   5.832   4.317  2.8231  0.1609 -1.6392
  124SOPE  C21413244   2.479   5.786   4.538  0.1691  0.0066 -0.1223
  124SOPE  H14R13245   2.573   5.772   4.595  0.5682  2.5860 -0.0483
  124SOPE  H14S13246   2.412   5.699   4.559  1.2456 -1.4853 -2.3912
  124SOPE  C21513247   2.419   5.919   4.571 -0.7078 -0.4250 -0.1081
  124SOPE  H15R13248   2.320   5.939   4.525 -0.5940 -1.3864 -0.7803
  124SOPE  H15S13249   2.496   5.990   4.532 -1.4980  0.6555  0.2315
  124SOPE  C21613250   2.405   5.922   4.733  0.3037 -0.7797 -0.2745
  124SOPE  H16R13251   2.422   6.029   4.761 -0.0884 -1.1640  1.5934
  124SOPE  H16S13252   2.494   5.871   4.775  1.8092  3.7997  3.0016
  124SOPE  C21713253   2.270   5.872   4.782  0.0273 -0.0508 -0.2874
  124SOPE  H17R13254   2.274   5.771   4.736 -0.3827  0.4480 -1.4461
  124SOPE  H17S13255   2.189   5.935   4.741 -0.8863 -0.7276  0.4182
  124SOPE  C21813256   2.260   5.852   4.938 -0.5564  0.3602 -0.8867
  124SOPE  H18R13257   2.293   5.945   4.989  1.2440 -1.7534  2.1185
  124SOPE  H18S13258   2.316   5.763   4.974 -0.5019  1.0600  0.8340
  124SOPE  H18T13259   2.151   5.841   4.956 -0.5865 -1.3275 -1.8060
  124SOPE   C3313260   1.641   6.098   3.941 -0.1132  0.0480 -0.0889
  124SOPE   H3X13261   1.603   5.995   3.923 -0.5508 -0.4449  3.0677
  124SOPE   H3Y13262   1.643   6.111   4.051  1.3365  2.4513 -0.3301
  124SOPE   C3413263   1.797   6.099   3.899  0.1897 -0.3864 -1.0667
  124SOPE   H4X13264   1.793   6.100   3.788  1.3094 -1.7452 -1.1438
  124SOPE   H4Y13265   1.838   6.000   3.926 -0.7183 -0.6661 -0.6631
  124SOPE   C3513266   1.867   6.220   3.966  0.1288 -0.4897 -0.7595
  124SOPE   H5X13267   1.815   6.315   3.942 -0.2823 -0.1992  1.1252
  124SOPE   H5Y13268   1.970   6.225   3.925  2.0105 -1.3435  3.3175
  124SOPE   C3613269   1.893   6.211   4.117  0.5099  0.1510 -0.2231
  124SOPE   H6X13270   1.796   6.242   4.161 -0.3088  1.4082 -2.7052
  124SOPE   H6Y13271   1.964   6.289   4.151  0.9647 -0.7144  0.8926
  124SOPE   C3713272   1.947   6.083   4.181  0.3696  0.4182  0.3050
  124SOPE   H7X13273   2.041   6.057   4.129  0.1302 -0.6145  0.3681
  124SOPE   H7Y13274   1.866   6.010   4.161  0.8929  0.0503 -0.5210
  124SOPE   C3813275   1.967   6.091   4.330 -0.0787  0.2406  0.1725
  124SOPE   H8X13276   1.870   6.097   4.384 -0.2434 -1.5594  0.1459
  124SOPE   H8Y13277   2.038   6.176   4.344 -0.3761  0.8801 -1.8448
  124SOPE   C3913278   2.037   5.963   4.387  0.0341 -0.0613  0.2285
  124SOPE   H9X13279   2.089   5.994   4.480 -0.6455  0.9535  0.2911
  124SOPE   H9Y13280   2.118   5.931   4.319  0.3701 -0.8130  0.9722
  124SOPE  C31013281   1.938   5.847   4.407  0.1031  0.0937 -0.1942
  124SOPE  H10X13282   1.922   5.781   4.319 -0.3418 -1.3038  0.9005
  124SOPE  H10Y13283   1.835   5.883   4.428 -0.3067  0.1357 -2.1142
  124SOPE  C31113284   1.991   5.752   4.517 -0.9843 -0.1466  0.1066
  124SOPE  H11X13285   1.914   5.674   4.538 -1.6754 -0.2215 -2.4118
  124SOPE  H11Y13286   2.010   5.808   4.611 -1.3103  3.0273 -1.5656
  124SOPE  C31213287   2.112   5.668   4.466 -1.2482  0.0847 -0.0394
  124SOPE  H12X13288   2.155   5.604   4.546  2.7195  1.7747 -0.5749
  124SOPE  H12Y13289   2.190   5.731   4.418 -2.0714  2.6018  1.7031
  124SOPE  C31313290   2.066   5.572   4.356 -0.2497  0.1880 -0.4812
  124SOPE  H13X13291   2.044   5.633   4.266 -2.5099  0.6034  0.2826
  124SOPE  H13Y13292   1.973   5.522   4.391  0.9752 -0.5292  1.9800
  124SOPE  C31413293   2.166   5.454   4.339  0.0005 -0.7181  0.1051
  124SOPE  H14X13294   2.182   5.390   4.429  0.1976  0.6870  1.0917
  124SOPE  H14Y13295   2.265   5.501   4.317  0.2606 -1.5947 -0.6646
  124SOPE  C31513296   2.135   5.363   4.224  0.5722  0.4002 -0.0541
  124SOPE  H15X13297   2.205   5.277   4.217  1.6442  1.0371  1.9310
  124SOPE  H15Y13298   2.125   5.421   4.130 -0.9960 -0.4052 -0.4220
  124SOPE  C31613299   2.001   5.286   4.225 -0.6824  0.5760  0.7520
  124SOPE  H16X13300   2.005   5.221   4.135 -0.9791  0.9940  0.4327
  124SOPE  H16Y13301   1.914   5.353   4.205 -2.1374 -1.1478  1.1171
  124SOPE  C31713302   1.971   5.199   4.348 -1.2092  0.3475 -0.0685
  124SOPE  H17X13303   1.864   5.170   4.348 -1.1356  0.0703 -0.7884
  124SOPE  H17Y13304   1.988   5.264   4.437 -0.3309 -0.6263  0.4980
  124SOPE  C31813305   2.056   5.072   4.340  0.2392 -0.4599 -0.7624
  124SOPE  H18X13306   2.155   5.087   4.293 -0.7097  0.7615 -2.4748
  124SOPE  H18Y13307   1.999   5.004   4.273  1.3970 -0.0829 -2.1881
  124SOPE  H18Z13308   2.070   5.028   4.441  0.1184  1.1674  0.0026
  125SOPE     N13309   4.227   5.019   2.700 -0.3273 -0.1818 -0.2329
  125SOPE   HN113310   4.126   4.994   2.696 -1.0488  2.6374 -2.5350
  125SOPE   HN213311   4.251   5.055   2.606 -2.8053  0.5237 -0.6735
  125SOPE   HN313312   4.291   4.940   2.720  2.3068  1.8084 -0.2579
  125SOPE   C1213313   4.261   5.128   2.801 -0.5527 -0.4374 -0.6920
  125SOPE  H12A13314   4.219   5.219   2.752  2.8414  0.8187 -1.5313
  125SOPE  H12B13315   4.369   5.151   2.804 -1.0370  2.2836 -0.9729
  125SOPE   C1113316   4.199   5.093   2.933  0.3106 -0.0505  0.1411
  125SOPE  H11A13317   4.198   5.185   2.994  1.7976  1.4680 -2.0007
  125SOPE  H11B13318   4.254   5.020   2.996 -1.8824  0.5085  2.8750
  125SOPE     P13319   3.956   5.066   3.030  0.1012  0.1128 -0.5363
  125SOPE   O1313320   3.838   4.977   3.002 -0.0058  0.1719  0.1036
  125SOPE   O1413321   3.926   5.211   3.043  0.0154 -0.3543 -0.1837
  125SOPE   O1213322   4.060   5.049   2.913 -0.4263  0.1647 -0.2442
  125SOPE   O1113323   4.021   5.007   3.163 -0.4217 -0.0403  0.4840
  125SOPE    C113324   4.088   4.880   3.166 -0.0757 -0.2733  0.4912
  125SOPE    HA13325   4.164   4.870   3.246  0.7706 -1.8223 -0.4621
  125SOPE    HB13326   4.131   4.854   3.067 -1.1972 -0.7511  0.1136
  125SOPE    C213327   3.999   4.749   3.188 -0.4401  0.0004 -0.0705
  125SOPE    HS13328   3.935   4.736   3.098 -1.2894  0.3233  0.4771
  125SOPE   O2113329   3.917   4.777   3.299  0.6129  0.5654 -0.6785
  125SOPE   C2113330   3.808   4.697   3.314  0.1370  1.1018 -0.5580
  125SOPE   O2213331   3.776   4.611   3.235 -0.3135  0.5120 -0.1707
  125SOPE   C2213332   3.730   4.732   3.439  0.3051 -0.2126 -0.0743
  125SOPE   H2R13333   3.708   4.840   3.431 -0.5443 -0.3436  0.3503
  125SOPE   H2S13334   3.793   4.705   3.526 -1.0668  0.2791  1.1186
  125SOPE    C313335   4.084   4.619   3.220  0.3821 -0.2962  0.1311
  125SOPE    HX13336   4.131   4.593   3.123  0.8869 -1.0467  0.5704
  125SOPE    HY13337   4.011   4.548   3.263 -0.6329  0.4144 -0.3885
  125SOPE   O3113338   4.191   4.648   3.312 -0.3042 -0.7500 -0.1014
  125SOPE   C3113339   4.255   4.544   3.367 -0.2521 -0.1832  0.1964
  125SOPE   O3213340   4.217   4.431   3.357 -0.0636 -0.2682  0.1803
  125SOPE   C3213341   4.374   4.584   3.446 -0.1720  0.7702  0.4382
  125SOPE   H2X13342   4.417   4.683   3.420 -0.1646  0.4715 -0.7446
  125SOPE   H2Y13343   4.444   4.500   3.424 -1.7532 -0.8262  1.2798
  125SOPE   C2313344   3.598   4.650   3.465 -1.1196 -1.1656  0.5924
  125SOPE   H3R13345   3.628   4.545   3.448 -0.5396 -0.8353 -0.5340
  125SOPE   H3S13346   3.511   4.669   3.399 -1.8652 -1.1251  1.5760
  125SOPE   C2413347   3.560   4.645   3.615 -0.0577  0.0536 -0.2930
  125SOPE   H4R13348   3.658   4.644   3.666  0.5741 -2.2569 -1.3961
  125SOPE   H4S13349   3.493   4.729   3.643  0.9998  0.3327  1.5415
  125SOPE   C2513350   3.489   4.512   3.651 -0.2632  0.2019  0.9045
  125SOPE   H5R13351   3.413   4.491   3.573  0.6120 -0.0728  0.1076
  125SOPE   H5S13352   3.565   4.432   3.637 -1.6522 -1.0071 -0.1374
  125SOPE   C2613353   3.437   4.499   3.797 -1.0334 -0.4720  0.3003
  125SOPE   H6R13354   3.514   4.546   3.862 -1.9316  0.2220  0.8921
  125SOPE   H6S13355   3.342   4.556   3.809  0.0573  1.9500 -1.5558
  125SOPE   C2713356   3.435   4.351   3.849 -0.5713 -0.7216  0.7431
  125SOPE   H7R13357   3.365   4.286   3.792  0.9483 -1.1125 -0.7676
  125SOPE   H7S13358   3.533   4.300   3.832 -0.1061  0.4797 -0.3667
  125SOPE   C2813359   3.384   4.343   3.994  0.2727  0.1336  0.1711
  125SOPE   H8R13360   3.294   4.408   3.998 -0.0417 -0.3570  1.7655
  125SOPE   H8S13361   3.345   4.240   4.006  0.5592  0.0181  0.1320
  125SOPE   C2913362   3.489   4.368   4.097 -0.1072  0.5328 -0.5213
  125SOPE   H9113363   3.578   4.305   4.092 -0.4527 -0.0916  0.7821
  125SOPE  C21013364   3.488   4.468   4.187 -0.4696 -0.5101 -0.5734
  125SOPE  H10113365   3.567   4.470   4.263  0.4878 -1.8665 -1.4976
  125SOPE  C21113366   3.373   4.565   4.219  0.3199  0.8036  0.1199
  125SOPE  H11R13367   3.294   4.544   4.143  2.4586 -1.8983 -1.5619
  125SOPE  H11S13368   3.410   4.669   4.223  2.9175  0.0674 -1.7169
  125SOPE  C21213369   3.307   4.534   4.356  0.2497 -1.0905 -0.1459
  125SOPE  H12R13370   3.259   4.630   4.385  1.5841 -0.4207 -0.0707
  125SOPE  H12S13371   3.391   4.511   4.425  0.2640  1.7330  0.8925
  125SOPE  C21313372   3.209   4.415   4.352 -0.9446 -0.5127 -0.3554
  125SOPE  H13R13373   3.270   4.322   4.353 -1.0435 -0.6031 -1.3514
  125SOPE  H13S13374   3.152   4.412   4.257 -2.6038  0.5366  0.5669
  125SOPE  C21413375   3.112   4.418   4.472  0.0118  0.2258 -0.6627
  125SOPE  H14R13376   3.041   4.503   4.473 -1.1871 -0.7468 -0.1085
  125SOPE  H14S13377   3.170   4.432   4.566 -2.0068 -0.1437  0.7114
  125SOPE  C21513378   3.037   4.290   4.496 -0.1666 -0.5352 -0.3949
  125SOPE  H15R13379   3.104   4.202   4.485  2.3009  1.3771 -1.9470
  125SOPE  H15S13380   2.951   4.265   4.430 -0.5126 -1.8667  0.5276
  125SOPE  C21613381   2.989   4.277   4.644  0.0267  0.4124  0.1832
  125SOPE  H16R13382   2.900   4.342   4.660 -0.7530  0.2825 -2.9732
  125SOPE  H16S13383   3.078   4.311   4.701  0.1977  0.4021 -0.0743
  125SOPE  C21713384   2.966   4.131   4.690  0.6015 -0.9311  0.4644
  125SOPE  H17R13385   3.060   4.073   4.678  1.4695  0.5623 -0.3069
  125SOPE  H17S13386   2.893   4.100   4.612 -0.5310  0.1987  1.0431
  125SOPE  C21813387   2.910   4.134   4.832  0.2247  0.0102  0.5378
  125SOPE  H18R13388   2.886   4.031   4.865  1.3054 -0.0986  1.0370
  125SOPE  H18S13389   2.818   4.197   4.833 -1.2126 -1.7475 -2.9804
  125SOPE  H18T13390   2.986   4.175   4.902 -1.4407  1.8834  1.3360
  125SOPE   C3313391   4.349   4.586   3.600  0.2259  0.7330 -0.0764
  125SOPE   H3X13392   4.251   4.633   3.627  1.0362  2.2289  0.3821
  125SOPE   H3Y13393   4.415   4.664   3.643 -0.4921  0.7223  1.0819
  125SOPE   C3413394   4.368   4.445   3.659 -0.6515 -0.2739  0.1825
  125SOPE   H4X13395   4.465   4.402   3.626  0.2135  1.3049  0.5709
  125SOPE   H4Y13396   4.291   4.378   3.615 -0.9872  0.5796 -0.5747
  125SOPE   C3513397   4.379   4.440   3.808 -0.6100 -0.1574  0.0602
  125SOPE   H5X13398   4.450   4.516   3.847 -0.2535  0.0247 -0.9147
  125SOPE   H5Y13399   4.418   4.339   3.833  0.0140 -0.8078 -3.1222
  125SOPE   C3613400   4.253   4.461   3.876  0.3386 -0.7546 -0.7375
  125SOPE   H6X13401   4.171   4.395   3.842 -0.3040 -0.2201 -0.2467
  125SOPE   H6Y13402   4.237   4.568   3.851  2.7466  0.1260  1.0445
  125SOPE   C3713403   4.272   4.471   4.031 -0.2002  0.7218  0.5287
  125SOPE   H7X13404   4.195   4.546   4.062 -0.9480  0.0169  0.4267
  125SOPE   H7Y13405   4.368   4.513   4.066  0.2186  1.5910 -1.5435
  125SOPE   C3813406   4.255   4.330   4.089 -0.1027 -0.5477  0.1464
  125SOPE   H8X13407   4.358   4.296   4.115  0.9393  2.9628  1.1165
  125SOPE   H8Y13408   4.208   4.270   4.008 -0.2737  0.3591 -0.4390
  125SOPE   C3913409   4.148   4.317   4.198  0.0573  0.3349  0.5000
  125SOPE   H9X13410   4.131   4.208   4.213  1.1371 -0.0381 -0.7911
  125SOPE   H9Y13411   4.058   4.375   4.171 -0.7738 -2.2460 -2.9448
  125SOPE  C31013412   4.199   4.376   4.338  0.5198  0.1746  0.5349
  125SOPE  H10X13413   4.214   4.485   4.317 -0.9203  0.0790 -1.2468
  125SOPE  H10Y13414   4.291   4.325   4.374  0.8497 -0.5372 -1.1852
  125SOPE  C31113415   4.092   4.344   4.453 -1.0279 -0.2837  0.4117
  125SOPE  H11X13416   4.057   4.240   4.440 -0.1708 -0.9352  2.8022
  125SOPE  H11Y13417   4.008   4.410   4.422  0.9430  2.4806  0.5420
  125SOPE  C31213418   4.131   4.369   4.597  0.5554  0.4417  0.2042
  125SOPE  H12X13419   4.203   4.452   4.606  1.4857 -0.3484  0.2008
  125SOPE  H12Y13420   4.190   4.284   4.636 -2.2579 -1.8294 -0.1439
  125SOPE  C31313421   4.008   4.375   4.693  0.0612 -0.0906 -0.9992
  125SOPE  H13X13422   3.949   4.285   4.664  0.7986 -0.2162 -2.2321
  125SOPE  H13Y13423   3.936   4.455   4.667  1.4496  1.4562 -0.2620
  125SOPE  C31413424   4.039   4.367   4.849  0.2277  0.4738  0.2219
  125SOPE  H14X13425   3.942   4.386   4.900  0.6281  0.8086  0.8689
  125SOPE  H14Y13426   4.115   4.445   4.870  2.0472 -1.1496 -0.0168
  125SOPE  C31513427   4.094   4.228   4.898 -0.0178  0.1857 -0.3226
  125SOPE  H15X13428   4.134   4.247   5.000  1.4052 -1.0816 -0.6087
  125SOPE  H15Y13429   4.177   4.191   4.835  0.5532 -2.4341  1.7979
  125SOPE  C31613430   3.982   4.117   4.894 -0.2086 -0.1266  0.0186
  125SOPE  H16X13431   4.027   4.016   4.886  0.5683  0.3127 -1.8878
  125SOPE  H16Y13432   3.923   4.135   4.801  0.2937  0.1641 -0.2474
  125SOPE  C31713433   3.902   4.135   5.021 -0.3763 -0.2229  0.1379
  125SOPE  H17X13434   3.809   4.074   5.020 -1.9516  2.0579  0.2359
  125SOPE  H17Y13435   3.860   4.236   5.037 -2.0232 -0.4193 -2.3712
  125SOPE  C31813436   3.986   4.087   5.150 -0.6179 -0.3399  0.2354
  125SOPE  H18X13437   4.069   4.155   5.178 -0.1340 -0.4714 -0.8279
  125SOPE  H18Y13438   4.027   3.988   5.123  0.0185 -0.2849  0.9515
  125SOPE  H18Z13439   3.918   4.076   5.237 -2.1012 -0.5350 -0.8949
  126SOPE     N13440   6.454   3.084   3.279  0.4654 -0.6789  0.3603
  126SOPE   HN113441   6.421   3.178   3.310  0.6814 -1.2358  2.4250
  126SOPE   HN213442   6.552   3.084   3.314  0.0268  1.8436  1.8723
  126SOPE   HN313443   6.449   3.080   3.175 -1.4506  0.4719  0.3706
  126SOPE   C1213444   6.363   2.974   3.337 -0.1225 -1.0309 -0.6971
  126SOPE  H12A13445   6.284   2.960   3.260 -1.0839 -0.2682  0.1261
  126SOPE  H12B13446   6.321   3.002   3.436  0.2275  2.1159 -1.3489
  126SOPE   C1113447   6.422   2.839   3.346  0.3735  0.4131 -0.0298
  126SOPE  H11A13448   6.338   2.766   3.358  0.5969 -0.1260 -1.5338
  126SOPE  H11B13449   6.485   2.835   3.437  3.8305  1.7279 -2.1846
  126SOPE     P13450   6.652   2.785   3.217  0.1225 -0.1384  0.3354
  126SOPE   O1313451   6.722   2.916   3.238 -0.5706  0.0797 -0.1284
  126SOPE   O1413452   6.681   2.712   3.093  0.3039 -0.5203  0.4125
  126SOPE   O1213453   6.494   2.800   3.231 -0.0641  0.0377  0.2302
  126SOPE   O1113454   6.684   2.685   3.337 -0.1452  0.2241 -0.4251
  126SOPE    C113455   6.616   2.557   3.343  0.4623 -0.0495  0.3358
  126SOPE    HA13456   6.696   2.481   3.326  0.7771  0.6748 -1.7007
  126SOPE    HB13457   6.530   2.549   3.273  1.1531  2.1919 -0.8571
  126SOPE    C213458   6.562   2.538   3.488 -0.9038 -0.2427 -0.5346
  126SOPE    HS13459   6.490   2.622   3.499  0.8388  1.2880 -0.2660
  126SOPE   O2113460   6.675   2.550   3.580  0.1096 -0.1318  0.4315
  126SOPE   C2113461   6.640   2.606   3.693 -0.1847 -0.0050 -0.0900
  126SOPE   O2213462   6.530   2.652   3.721  0.5198  0.9877  0.7889
  126SOPE   C2213463   6.763   2.644   3.775  0.7092  0.1807  0.4477
  126SOPE   H2R13464   6.840   2.678   3.703 -0.0363 -0.7042 -0.8129
  126SOPE   H2S13465   6.810   2.559   3.827  2.5267  0.3238 -0.8584
  126SOPE    C313466   6.490   2.404   3.497  0.1141 -0.1787 -0.0269
  126SOPE    HX13467   6.561   2.323   3.470 -1.1592 -1.0749 -0.8061
  126SOPE    HY13468   6.420   2.392   3.411 -0.4623 -2.5073  0.6912
  126SOPE   O3113469   6.424   2.377   3.620 -0.2235  0.1207 -0.2325
  126SOPE   C3113470   6.294   2.423   3.623  0.1171  0.4845  0.4213
  126SOPE   O3213471   6.231   2.446   3.521  0.3456 -0.2786 -1.0892
  126SOPE   C3213472   6.251   2.441   3.770  0.5628  0.5682 -0.1388
  126SOPE   H2X13473   6.323   2.516   3.808  0.1806  0.2779  1.1969
  126SOPE   H2Y13474   6.272   2.344   3.819  1.7459  0.0750 -1.5491
  126SOPE   C2313475   6.738   2.755   3.880 -0.2225 -0.1914 -0.5799
  126SOPE   H3R13476   6.647   2.726   3.936  1.7579 -6.0071  0.2374
  126SOPE   H3S13477   6.725   2.854   3.830  0.5381  1.9206  3.0039
  126SOPE   C2413478   6.862   2.764   3.965  0.0831 -0.4080 -0.9073
  126SOPE   H4R13479   6.884   2.671   4.020  1.4212  0.2059 -0.3703
  126SOPE   H4S13480   6.949   2.788   3.899 -0.9844  0.6817 -1.9940
  126SOPE   C2513481   6.843   2.873   4.075  1.0422 -0.5837 -0.4264
  126SOPE   H5R13482   6.827   2.970   4.025 -1.6461 -1.3264 -1.1880
  126SOPE   H5S13483   6.743   2.853   4.121  1.7605  1.6731  2.4012
  126SOPE   C2613484   6.943   2.877   4.196 -0.2362 -0.5316  0.6026
  126SOPE   H6R13485   6.935   2.786   4.260 -0.2871 -1.0665 -0.1504
  126SOPE   H6S13486   7.044   2.880   4.151 -0.2799  0.2331  0.5381
  126SOPE   C2713487   6.919   3.003   4.285 -0.1998  0.0065  0.3250
  126SOPE   H7R13488   6.971   2.986   4.383 -2.4990  0.8242  1.7646
  126SOPE   H7S13489   6.957   3.087   4.224 -2.2999  0.8288  0.0731
  126SOPE   C2813490   6.771   3.029   4.326 -0.0904  0.2960  0.2458
  126SOPE   H8R13491   6.716   3.070   4.238 -2.8917 -0.2313  1.6455
  126SOPE   H8S13492   6.724   2.930   4.347 -1.4498  0.6180 -1.0613
  126SOPE   C2913493   6.745   3.119   4.442 -0.0720 -0.0384 -0.0456
  126SOPE   H9113494   6.760   3.227   4.423 -0.5753 -0.1466 -1.1213
  126SOPE  C21013495   6.709   3.089   4.569 -0.6437  0.7917  0.5005
  126SOPE  H10113496   6.714   3.166   4.647 -1.0787 -0.3106  1.6712
  126SOPE  C21113497   6.660   2.952   4.612 -0.2854 -0.0199 -0.7447
  126SOPE  H11R13498   6.584   2.913   4.542  0.2648 -1.6408 -0.4683
  126SOPE  H11S13499   6.596   2.968   4.702 -1.4903  0.3611 -1.6452
  126SOPE  C21213500   6.771   2.852   4.652  0.3348 -0.5609 -0.1865
  126SOPE  H12R13501   6.753   2.826   4.759  1.0125  1.7170  0.5353
  126SOPE  H12S13502   6.873   2.895   4.647 -0.2876  0.9645 -0.0968
  126SOPE  C21313503   6.773   2.722   4.560 -0.4698  0.7227 -0.3614
  126SOPE  H13R13504   6.801   2.758   4.459  0.2612 -1.4614 -0.9677
  126SOPE  H13S13505   6.670   2.683   4.578  0.1135  0.1240  2.0374
  126SOPE  C21413506   6.880   2.619   4.607  0.4017 -0.3419 -0.5121
  126SOPE  H14R13507   6.970   2.669   4.649  0.1144 -0.0516 -0.2356
  126SOPE  H14S13508   6.904   2.560   4.516  0.5328 -0.2288 -0.5506
  126SOPE  C21513509   6.825   2.531   4.721  1.1322 -0.7922  0.6316
  126SOPE  H15R13510   6.716   2.509   4.717  0.5214  1.8157  1.4263
  126SOPE  H15S13511   6.843   2.597   4.808  1.3065 -0.1788  0.1323
  126SOPE  C21613512   6.895   2.398   4.763 -0.5388 -1.2194 -0.0978
  126SOPE  H16R13513   7.000   2.431   4.780 -1.7961  1.7572  2.8745
  126SOPE  H16S13514   6.884   2.330   4.676 -2.0582  0.8952 -1.6600
  126SOPE  C21713515   6.835   2.354   4.894  0.4463  0.2573  0.2079
  126SOPE  H17R13516   6.726   2.330   4.888  0.7308 -0.6943 -3.3389
  126SOPE  H17S13517   6.837   2.448   4.955 -0.8098  0.2645  0.2620
  126SOPE  C21813518   6.926   2.248   4.960 -0.3659  0.3251 -0.0895
  126SOPE  H18R13519   7.031   2.284   4.971  0.0948 -1.3672  1.4082
  126SOPE  H18S13520   6.925   2.162   4.890 -1.6303 -0.4714  0.8781
  126SOPE  H18T13521   6.893   2.228   5.064  0.5713  1.5557  0.4743
  126SOPE   C3313522   6.104   2.497   3.772 -0.0607  0.4937 -0.3747
  126SOPE   H3X13523   6.032   2.432   3.719 -0.9724  0.5534  0.7690
  126SOPE   H3Y13524   6.109   2.601   3.732  1.0304 -0.2591 -2.3149
  126SOPE   C3413525   6.047   2.516   3.918  0.1288 -0.0361  0.4140
  126SOPE   H4X13526   6.119   2.459   3.982  0.2364  2.2398  2.4372
  126SOPE   H4Y13527   5.948   2.469   3.932  0.1988 -0.5309 -0.6292
  126SOPE   C3513528   6.049   2.661   3.971  0.0385 -0.2563 -0.5128
  126SOPE   H5X13529   5.975   2.731   3.926  0.9897 -0.0749 -1.8294
  126SOPE   H5Y13530   6.145   2.713   3.951  0.0117  0.5450  1.2879
  126SOPE   C3613531   6.023   2.655   4.120  0.3684 -0.1796  0.0481
  126SOPE   H6X13532   6.068   2.745   4.166  1.5442 -0.5876 -0.2597
  126SOPE   H6Y13533   6.079   2.568   4.159 -0.2765 -0.9328 -0.6479
  126SOPE   C3713534   5.872   2.639   4.150 -0.9833 -0.0692  0.4761
  126SOPE   H7X13535   5.853   2.532   4.128  0.1631 -0.1868 -0.0162
  126SOPE   H7Y13536   5.823   2.708   4.078  1.3538 -0.0674 -1.2172
  126SOPE   C3813537   5.835   2.663   4.303  0.1358 -0.4761 -0.1022
  126SOPE   H8X13538   5.884   2.586   4.366  1.9815  1.5388  1.0367
  126SOPE   H8Y13539   5.724   2.657   4.311  0.1642  0.7918  1.7114
  126SOPE   C3913540   5.879   2.801   4.357  0.0504 -0.0325  0.4449
  126SOPE   H9X13541   5.839   2.876   4.287 -0.4790 -1.1076 -0.4323
  126SOPE   H9Y13542   5.990   2.813   4.361  0.2196 -1.4044  0.3410
  126SOPE  C31013543   5.839   2.840   4.501 -0.1296 -0.6098 -0.0357
  126SOPE  H10X13544   5.885   2.764   4.568 -1.3823 -1.4345 -0.0733
  126SOPE  H10Y13545   5.730   2.822   4.510  0.0216 -1.3495  0.4849
  126SOPE  C31113546   5.882   2.984   4.525  0.5635 -0.8863 -0.5126
  126SOPE  H11X13547   5.838   3.048   4.446 -0.9895  0.0994  1.0813
  126SOPE  H11Y13548   5.993   2.987   4.530  0.5237 -0.2043  2.9988
  126SOPE  C31213549   5.835   3.047   4.656  0.5910  0.5492 -0.0397
  126SOPE  H12X13550   5.726   3.062   4.639  0.2065 -0.8374  0.9908
  126SOPE  H12Y13551   5.877   3.149   4.670 -0.3297  0.8167  0.9773
  126SOPE  C31313552   5.850   2.969   4.795 -0.0804  0.0776 -0.6697
  126SOPE  H13X13553   5.959   2.956   4.812 -0.0997 -0.9260 -1.2468
  126SOPE  H13Y13554   5.809   2.870   4.767 -0.0181  0.3762 -1.8658
  126SOPE  C31413555   5.780   3.038   4.912  0.1884  0.4509 -0.0520
  126SOPE  H14X13556   5.671   3.041   4.890  0.6184  1.9622 -2.4874
  126SOPE  H14Y13557   5.813   3.144   4.926  1.4763 -0.1370  1.6348
  126SOPE  C31513558   5.802   2.965   5.051  0.0857  0.4719  0.8702
  126SOPE  H15X13559   5.910   2.976   5.074  0.7329 -2.7266 -0.2837
  126SOPE  H15Y13560   5.792   2.855   5.050 -0.5900  0.4103  3.9076
  126SOPE  C31613561   5.718   3.028   5.158  0.5770  0.1910  0.0749
  126SOPE  H16X13562   5.724   3.139   5.160  2.6483  0.2811 -3.3291
  126SOPE  H16Y13563   5.763   2.995   5.254  0.8196  1.6957  0.5155
  126SOPE  C31713564   5.578   2.978   5.153  0.4562  0.2036 -1.0002
  126SOPE  H17X13565   5.534   3.004   5.054 -0.1964  4.8716  0.2678
  126SOPE  H17Y13566   5.520   3.042   5.224 -1.9810 -1.1961 -1.6001
  126SOPE  C31813567   5.556   2.832   5.187  1.0535  0.9346 -0.4598
  126SOPE  H18X13568   5.447   2.814   5.201  0.9399  2.8131  1.8549
  126SOPE  H18Y13569   5.604   2.807   5.284 -0.1283  0.6405  0.0634
  126SOPE  H18Z13570   5.588   2.767   5.103  1.1465  0.1306  0.1884
  127SOPE     N13571   0.797   3.378   3.070  0.2843  0.4206  0.5003
  127SOPE   HN113572   0.738   3.444   3.016 -0.5547  0.9190  1.9597
  127SOPE   HN213573   0.838   3.436   3.147  0.3842 -0.0438  0.8047
  127SOPE   HN313574   0.861   3.334   3.001 -0.5543  1.3824 -0.9147
  127SOPE   C1213575   0.713   3.262   3.124  0.4786 -0.3954  0.4036
  127SOPE  H12A13576   0.776   3.182   3.168 -0.9648 -1.5505  0.4648
  127SOPE  H12B13577   0.663   3.212   3.038  0.3981  0.2463  0.0760
  127SOPE   C1113578   0.618   3.321   3.233  0.8692  0.4481 -0.4184
  127SOPE  H11A13579   0.686   3.361   3.312  3.8275 -1.1208 -2.0087
  127SOPE  H11B13580   0.575   3.232   3.284  1.3582  0.3206 -0.2201
  127SOPE     P13581   0.472   3.533   3.261 -0.1448 -0.0819 -0.1105
  127SOPE   O1313582   0.358   3.587   3.186 -0.5605  0.1621  0.1240
  127SOPE   O1413583   0.580   3.628   3.268 -0.1057  0.3537  0.3972
  127SOPE   O1213584   0.517   3.407   3.185 -0.2540  0.0754  0.2709
  127SOPE   O1113585   0.426   3.472   3.402 -0.7911  0.8268  0.0404
  127SOPE    C113586   0.291   3.461   3.445  0.1077 -0.4633 -0.4842
  127SOPE    HA13587   0.255   3.357   3.426  2.0199 -1.2499 -0.0118
  127SOPE    HB13588   0.233   3.531   3.382  1.5141 -0.3266 -1.6772
  127SOPE    C213589   0.282   3.502   3.588 -0.4133 -0.2866  0.3224
  127SOPE    HS13590   0.179   3.489   3.629 -0.1811  0.6384  1.2601
  127SOPE   O2113591   0.323   3.643   3.596  0.1770  0.6168 -0.0347
  127SOPE   C2113592   0.225   3.733   3.574  1.1434  0.7910  0.4569
  127SOPE   O2213593   0.109   3.705   3.556  0.2603  0.1170  0.0905
  127SOPE   C2213594   0.291   3.869   3.580  0.2966  0.3731  0.0477
  127SOPE   H2R13595   0.210   3.946   3.588  0.9797  1.0421  0.7391
  127SOPE   H2S13596   0.341   3.886   3.483  0.3548  1.0755  0.1917
  127SOPE    C313597   0.366   3.411   3.686 -0.4863 -0.8781 -0.8877
  127SOPE    HX13598   0.475   3.428   3.671  0.4695 -2.0796  3.3129
  127SOPE    HY13599   0.332   3.308   3.664 -0.7256 -0.6814 -1.4464
  127SOPE   O3113600   0.333   3.449   3.819  0.6014 -0.2389 -0.3700
  127SOPE   C3113601   0.419   3.529   3.883  0.6092 -0.2703 -0.6143
  127SOPE   O3213602   0.522   3.571   3.829 -0.2436  0.2782 -0.1060
  127SOPE   C3213603   0.375   3.571   4.023 -0.5528  0.5668 -0.2181
  127SOPE   H2X13604   0.380   3.480   4.087 -0.6801  1.7785  1.6046
  127SOPE   H2Y13605   0.266   3.595   4.015 -1.0181 -1.9398 -2.7693
  127SOPE   C2313606   0.368   3.900   3.704  0.6647 -0.8413  0.0461
  127SOPE   H3R13607   0.407   4.004   3.692  0.2418 -0.4523  1.8382
  127SOPE   H3S13608   0.452   3.828   3.715 -0.3086 -1.7325  2.0250
  127SOPE   C2413609   0.286   3.891   3.836  0.5656 -0.2924 -0.1000
  127SOPE   H4R13610   0.252   3.792   3.873  0.1021  0.8623  2.8602
  127SOPE   H4S13611   0.360   3.921   3.913 -1.2323  0.6848  1.3514
  127SOPE   C2513612   0.165   3.979   3.846 -1.1663 -0.0417  0.3197
  127SOPE   H5R13613   0.194   4.086   3.845  1.0328 -0.5572 -2.2272
  127SOPE   H5S13614   0.097   3.977   3.758 -0.0849  0.5542 -0.5453
  127SOPE   C2613615   0.073   3.954   3.972  0.0155  0.4122  0.7182
  127SOPE   H6R13616   0.052   3.845   3.973  0.0190  0.4103  0.5670
  127SOPE   H6S13617   0.144   3.967   4.057 -0.1903 -2.2773  1.3660
  127SOPE   C2713618  -0.056   4.022   3.982  0.7761 -0.4705 -0.0940
  127SOPE   H7R13619  -0.048   4.125   3.943  1.6725 -0.8114 -0.8492
  127SOPE   H7S13620  -0.125   3.970   3.912 -1.4240  0.9606  0.9348
  127SOPE   C2813621  -0.119   4.027   4.124  0.0474 -0.2524 -0.3694
  127SOPE   H8R13622  -0.061   4.091   4.194  3.4215 -0.2565 -2.9229
  127SOPE   H8S13623  -0.224   4.063   4.118 -0.0186  0.2576  2.3596
  127SOPE   C2913624  -0.116   3.892   4.185  0.6406  0.2520 -0.2566
  127SOPE   H9113625  -0.103   3.805   4.120 -2.2893  0.8739 -1.8650
  127SOPE  C21013626  -0.138   3.868   4.313 -0.4446  0.2148  0.1541
  127SOPE  H10113627  -0.136   3.765   4.352  2.7073  0.4179  0.7916
  127SOPE  C21113628  -0.159   3.970   4.419  0.2378  0.7669  0.4337
  127SOPE  H11R13629  -0.257   3.943   4.463  0.5510  2.0591  2.0216
  127SOPE  H11S13630  -0.192   4.062   4.367 -3.0615 -3.0890 -5.4511
  127SOPE  C21213631  -0.051   3.990   4.525  0.7000  0.2956 -0.0007
  127SOPE  H12R13632   0.015   4.054   4.463  1.0394 -0.2170 -0.1716
  127SOPE  H12S13633   0.009   3.903   4.559  0.7399  0.7176  1.0419
  127SOPE  C21313634  -0.099   4.073   4.647  0.3091 -0.1734 -0.2569
  127SOPE  H13R13635  -0.187   4.021   4.691  0.6818  0.0549  0.7780
  127SOPE  H13S13636  -0.127   4.176   4.616  1.6135  0.0924 -0.6006
  127SOPE  C21413637   0.017   4.089   4.757 -0.0384 -0.3990  0.8119
  127SOPE  H14R13638   0.109   4.138   4.718  2.2998 -2.6394  3.0385
  127SOPE  H14S13639   0.042   3.983   4.779 -0.9074 -1.3917 -2.4887
  127SOPE  C21513640  -0.028   4.166   4.877  0.2509 -0.1354  1.0855
  127SOPE  H15R13641  -0.098   4.099   4.931 -0.0720 -0.7259 -0.0247
  127SOPE  H15S13642  -0.073   4.266   4.857 -0.6809 -0.1798  2.8065
  127SOPE  C21613643   0.083   4.175   4.979 -0.5047  0.9112 -0.4054
  127SOPE  H16R13644   0.176   4.221   4.938 -0.2291  2.4703  1.7551
  127SOPE  H16S13645   0.108   4.070   5.008 -1.3217  0.9172  0.3579
  127SOPE  C21713646   0.037   4.274   5.092 -0.1864 -0.3010  0.6676
  127SOPE  H17R13647   0.003   4.363   5.036 -3.0486 -0.9668  1.1985
  127SOPE  H17S13648   0.138   4.289   5.136  0.0992 -1.6879  0.5271
  127SOPE  C21813649  -0.064   4.234   5.199  0.8725 -0.4296 -0.2173
  127SOPE  H18R13650  -0.152   4.179   5.158  0.6449 -0.2928  0.0808
  127SOPE  H18S13651  -0.087   4.328   5.253 -0.1984 -0.2786 -0.8873
  127SOPE  H18T13652  -0.022   4.157   5.268 -1.2769  2.2281  4.5539
  127SOPE   C3313653   0.464   3.684   4.074 -0.8399 -0.4209  0.3089
  127SOPE   H3X13654   0.500   3.749   3.991 -1.7070 -0.1595  0.1293
  127SOPE   H3Y13655   0.556   3.637   4.115 -1.2554 -0.5394  1.1189
  127SOPE   C3413656   0.409   3.775   4.185 -0.6637  0.6003 -0.1724
  127SOPE   H4X13657   0.309   3.806   4.148 -0.6275  0.5393 -0.3211
  127SOPE   H4Y13658   0.473   3.865   4.197  0.6168 -0.2818 -0.0861
  127SOPE   C3513659   0.390   3.702   4.324  0.3364  0.2205 -0.2517
  127SOPE   H5X13660   0.317   3.620   4.314 -0.1488  0.4920  0.8709
  127SOPE   H5Y13661   0.349   3.777   4.395  2.0546  1.6539 -0.6954
  127SOPE   C3613662   0.517   3.652   4.382 -0.0484  0.1212 -0.4274
  127SOPE   H6X13663   0.602   3.722   4.371  0.6842 -0.9077 -1.5208
  127SOPE   H6Y13664   0.546   3.562   4.324  1.7131  0.5620 -0.2816
  127SOPE   C3713665   0.504   3.611   4.521  0.1984  0.5314 -0.7198
  127SOPE   H7X13666   0.581   3.537   4.550 -0.7904  0.2517  1.3602
  127SOPE   H7Y13667   0.409   3.557   4.538  0.0050  1.9419  4.3092
  127SOPE   C3813668   0.511   3.720   4.629 -0.3374  0.7533  0.5049
  127SOPE   H8X13669   0.427   3.792   4.623 -1.9691 -0.6812  3.6621
  127SOPE   H8Y13670   0.605   3.772   4.603  0.0827  0.5658  1.5996
  127SOPE   C3913671   0.527   3.678   4.775 -0.7933  0.2026  0.8720
  127SOPE   H9X13672   0.604   3.599   4.784 -1.5213 -0.3590  2.6675
  127SOPE   H9Y13673   0.436   3.623   4.809  0.5508 -1.4271  2.0344
  127SOPE  C31013674   0.555   3.796   4.869  0.7775  0.3609  0.0455
  127SOPE  H10X13675   0.477   3.874   4.860  1.9917  1.6181  0.1665
  127SOPE  H10Y13676   0.650   3.849   4.850  1.4526 -0.6863  0.3942
  127SOPE  C31113677   0.552   3.749   5.018  0.1455  0.4894  0.3438
  127SOPE  H11X13678   0.638   3.680   5.031  0.5363  0.9299  0.1217
  127SOPE  H11Y13679   0.461   3.691   5.045 -1.0796  2.0247 -0.2971
  127SOPE  C31213680   0.577   3.866   5.115  0.2201  0.5110  0.1612
  127SOPE  H12X13681   0.658   3.929   5.071  0.6744  1.1986  1.9035
  127SOPE  H12Y13682   0.624   3.822   5.205  0.6256 -0.8999 -0.7070
  127SOPE  C31313683   0.452   3.948   5.150  0.7929  0.3119  0.3447
  127SOPE  H13X13684   0.370   3.883   5.185 -0.5643  2.0618  0.5547
  127SOPE  H13Y13685   0.418   3.995   5.055 -2.0608 -1.3178  0.4516
  127SOPE  C31413686   0.474   4.061   5.255 -0.3377 -0.7412  0.2281
  127SOPE  H14X13687   0.520   4.146   5.201 -2.3340  0.4491  0.3174
  127SOPE  H14Y13688   0.544   4.025   5.334  0.5328 -2.3575 -1.1943
  127SOPE  C31513689   0.354   4.126   5.328 -0.2127  0.0877  0.0414
  127SOPE  H15X13690   0.308   4.058   5.402 -1.1474  0.3165 -0.3131
  127SOPE  H15Y13691   0.267   4.150   5.264 -1.0574 -1.6818  0.4570
  127SOPE  C31613692   0.392   4.251   5.399 -0.1840 -0.1874  0.3382
  127SOPE  H16X13693   0.425   4.332   5.330  1.7796 -2.5281 -1.6839
  127SOPE  H16Y13694   0.481   4.228   5.461  0.1977  0.6317  0.1084
  127SOPE  C31713695   0.276   4.313   5.479  0.5615  0.3564 -0.5428
  127SOPE  H17X13696   0.232   4.237   5.547  0.8271 -0.5727 -1.3888
  127SOPE  H17Y13697   0.202   4.348   5.403 -0.1618 -1.3414 -0.6564
  127SOPE  C31813698   0.319   4.437   5.557 -0.6879  0.1777 -0.3280
  127SOPE  H18X13699   0.369   4.517   5.499 -1.0729  2.8875  2.7880
  127SOPE  H18Y13700   0.382   4.414   5.646  1.5142  3.3399 -0.8996
  127SOPE  H18Z13701   0.233   4.491   5.603 -1.0101 -1.0031  0.5149
  128SOPE     N13702   3.031   2.715   3.212  0.6587 -0.1810  0.0253
  128SOPE   HN113703   3.088   2.638   3.254  0.8589  1.2927  2.7032
  128SOPE   HN213704   3.074   2.809   3.223 -2.3513  1.3945 -0.7454
  128SOPE   HN313705   2.951   2.719   3.279  1.7072 -0.1137  1.3211
  128SOPE   C1213706   2.984   2.680   3.079 -0.6910  0.0260  0.0991
  128SOPE  H12A13707   3.024   2.581   3.047  1.2320  1.6459 -3.0558
  128SOPE  H12B13708   3.023   2.760   3.012  1.0043 -0.1404  0.8293
  128SOPE   C1113709   2.826   2.668   3.074  0.2648 -0.7359  0.5585
  128SOPE  H11A13710   2.792   2.582   3.136 -2.5604 -0.8128 -0.9411
  128SOPE  H11B13711   2.804   2.644   2.968 -1.2757 -0.9192  0.9031
  128SOPE     P13712   2.728   2.920   3.030 -0.4371 -0.1738  0.2824
  128SOPE   O1313713   2.685   2.883   2.891  0.3628 -0.6019 -0.7484
  128SOPE   O1413714   2.838   3.016   3.038 -0.0316 -0.3282  0.1544
  128SOPE   O1213715   2.766   2.790   3.109 -0.0747  0.6050 -0.2579
  128SOPE   O1113716   2.602   2.975   3.116  0.2896  0.2747 -0.2229
  128SOPE    C113717   2.621   3.080   3.209  0.1199 -1.2692  0.2132
  128SOPE    HA13718   2.532   3.147   3.206  1.5617  0.7213 -0.3700
  128SOPE    HB13719   2.706   3.150   3.192  0.2391 -1.5764 -0.4897
  128SOPE    C213720   2.637   3.025   3.353  0.2717  0.0338 -0.6384
  128SOPE    HS13721   2.697   2.932   3.351 -0.3848 -0.3958 -0.7660
  128SOPE   O2113722   2.503   2.983   3.401 -0.0155  0.3041  0.1796
  128SOPE   C2113723   2.495   2.887   3.482 -0.0160 -0.0134 -0.6860
  128SOPE   O2213724   2.584   2.813   3.526  0.2629 -0.0072  0.0589
  128SOPE   C2213725   2.353   2.864   3.509  0.0306 -0.2918 -0.1724
  128SOPE   H2R13726   2.302   2.808   3.427 -2.0248 -2.2608  2.2773
  128SOPE   H2S13727   2.299   2.957   3.536 -1.6940 -1.4668  0.6923
  128SOPE    C313728   2.693   3.129   3.454 -0.8811 -0.2950  0.6587
  128SOPE    HX13729   2.609   3.200   3.465 -2.0264 -1.1503 -1.8096
  128SOPE    HY13730   2.777   3.185   3.407  1.0595 -3.5549 -0.1214
  128SOPE   O3113731   2.740   3.059   3.573 -0.3213  0.3741  0.7348
  128SOPE   C3113732   2.676   3.080   3.685 -0.4308  0.0400 -0.6377
  128SOPE   O3213733   2.568   3.142   3.697 -0.4624 -0.2518  0.4933
  128SOPE   C3213734   2.742   2.999   3.795  0.0903 -0.4188 -0.0953
  128SOPE   H2X13735   2.847   3.034   3.798 -0.1466  0.2675  1.6678
  128SOPE   H2Y13736   2.737   2.895   3.755 -0.3718 -0.4863  0.1322
  128SOPE   C2313737   2.345   2.761   3.624  0.9462  0.1012 -0.2304
  128SOPE   H3R13738   2.407   2.673   3.599 -0.6174 -0.6305 -1.7687
  128SOPE   H3S13739   2.240   2.730   3.639  0.4253  1.8998  0.1305
  128SOPE   C2413740   2.376   2.833   3.757 -0.1933 -0.1099 -0.7689
  128SOPE   H4R13741   2.486   2.820   3.771 -0.0478  1.1097 -0.7251
  128SOPE   H4S13742   2.358   2.942   3.748 -0.2356 -0.2432 -2.7152
  128SOPE   C2513743   2.296   2.777   3.882 -0.1737  0.8292  0.5629
  128SOPE   H5R13744   2.190   2.775   3.849  0.4477 -0.9146 -1.5639
  128SOPE   H5S13745   2.319   2.669   3.891 -2.4052  0.1542 -0.8846
  128SOPE   C2613746   2.321   2.843   4.014 -0.0020 -0.2025 -0.1465
  128SOPE   H6R13747   2.432   2.844   4.012  0.0087  1.9931 -0.7724
  128SOPE   H6S13748   2.280   2.946   4.012 -0.9178 -0.4973  1.3918
  128SOPE   C2713749   2.270   2.774   4.137  0.4087  0.1315 -0.0079
  128SOPE   H7R13750   2.159   2.777   4.123  0.3582  0.3474  0.4156
  128SOPE   H7S13751   2.316   2.673   4.134 -0.8144 -0.4861  0.8652
  128SOPE   C2813752   2.298   2.849   4.276 -0.2183 -0.0767  0.5962
  128SOPE   H8R13753   2.246   2.945   4.256 -0.0022  0.1593  1.1418
  128SOPE   H8S13754   2.246   2.793   4.357 -1.4039 -0.2182 -0.2398
  128SOPE   C2913755   2.445   2.869   4.313  0.8554 -0.5115 -0.3451
  128SOPE   H9113756   2.500   2.906   4.225 -0.3550 -0.6705 -1.2007
  128SOPE  C21013757   2.508   2.850   4.430  0.5430  0.0811 -0.1950
  128SOPE  H10113758   2.616   2.868   4.424  1.1278 -2.9339 -0.1616
  128SOPE  C21113759   2.460   2.800   4.569 -0.3759  0.0014  0.9493
  128SOPE  H11R13760   2.352   2.777   4.578 -0.3360  0.0051  1.4662
  128SOPE  H11S13761   2.479   2.886   4.637  2.3792 -0.9175  1.4831
  128SOPE  C21213762   2.540   2.682   4.627 -0.0605 -0.4600  0.0162
  128SOPE  H12R13763   2.644   2.715   4.646 -1.1959  2.2638  2.0995
  128SOPE  H12S13764   2.555   2.592   4.563 -0.9725 -1.2555  0.8679
  128SOPE  C21313765   2.496   2.631   4.765 -0.1171 -0.6189 -0.1674
  128SOPE  H13R13766   2.388   2.606   4.756 -1.1097  3.5232 -3.3349
  128SOPE  H13S13767   2.496   2.727   4.820 -1.0112 -0.1520 -0.9515
  128SOPE  C21413768   2.595   2.544   4.842  0.7593  0.3958  0.0822
  128SOPE  H14R13769   2.559   2.513   4.942  0.2156  1.0846  0.1049
  128SOPE  H14S13770   2.676   2.616   4.864  1.4376 -0.5101  0.6070
  128SOPE  C21513771   2.650   2.420   4.772  0.3025  0.5748  0.3098
  128SOPE  H15R13772   2.738   2.379   4.827  1.2211  0.1003 -1.4422
  128SOPE  H15S13773   2.698   2.448   4.676  0.3824  0.3950  0.2959
  128SOPE  C21613774   2.537   2.308   4.769  0.8886 -0.3927  0.0528
  128SOPE  H16R13775   2.560   2.239   4.685  0.9409  1.1890 -1.2887
  128SOPE  H16S13776   2.439   2.352   4.740  1.8019  0.8955 -1.2165
  128SOPE  C21713777   2.528   2.224   4.894 -0.1841 -0.2584 -0.3195
  128SOPE  H17R13778   2.529   2.290   4.983  0.6182 -1.5918  0.7053
  128SOPE  H17S13779   2.623   2.165   4.898  0.5665  0.8405 -1.1788
  128SOPE  C21813780   2.400   2.140   4.905 -0.8399  0.2876 -0.2288
  128SOPE  H18R13781   2.385   2.079   4.814 -0.2305 -0.9897  0.5110
  128SOPE  H18S13782   2.300   2.189   4.910 -1.9082 -1.8381  2.7785
  128SOPE  H18T13783   2.403   2.070   4.991 -0.1597  1.9110  1.1411
  128SOPE   C3313784   2.667   3.007   3.935  0.6327  0.4575  0.4939
  128SOPE   H3X13785   2.667   2.905   3.980 -0.4451 -0.0124 -0.5230
  128SOPE   H3Y13786   2.563   3.046   3.931  0.1287 -0.4695  2.9415
  128SOPE   C3413787   2.752   3.090   4.031  1.2466  0.6815 -0.2736
  128SOPE   H4X13788   2.687   3.111   4.119  1.0336  0.7266 -0.4415
  128SOPE   H4Y13789   2.775   3.188   3.984  0.4437  0.3329 -1.4504
  128SOPE   C3513790   2.877   3.025   4.087  0.2757  0.2945 -0.1633
  128SOPE   H5X13791   2.957   3.098   4.113  1.5378 -0.9680 -0.3403
  128SOPE   H5Y13792   2.904   2.946   4.013 -1.1346 -1.1118  0.7663
  128SOPE   C3613793   2.852   2.949   4.219 -0.5286  0.0685 -0.3744
  128SOPE   H6X13794   2.757   2.896   4.197 -1.3936  1.8847 -1.2398
  128SOPE   H6Y13795   2.836   3.022   4.300 -1.4591 -1.7247  1.1406
  128SOPE   C3713796   2.969   2.850   4.257 -0.0231  0.7937 -0.0646
  128SOPE   H7X13797   3.059   2.912   4.279  0.1231  1.1938 -1.6391
  128SOPE   H7Y13798   2.983   2.781   4.172 -1.4858  0.4487 -0.0400
  128SOPE   C3813799   2.934   2.749   4.370  1.1898 -0.7403  0.0926
  128SOPE   H8X13800   2.857   2.681   4.329  1.3772  0.9622 -3.4874
  128SOPE   H8Y13801   2.886   2.796   4.459 -1.5617 -2.0503 -0.6016
  128SOPE   C3913802   3.050   2.665   4.412 -0.3345  0.0185  0.2815
  128SOPE   H9X13803   3.122   2.737   4.455  0.6514 -0.1205 -1.0665
  128SOPE   H9Y13804   3.086   2.617   4.319 -0.5577 -1.9599  1.1659
  128SOPE  C31013805   3.022   2.579   4.524 -1.3320  0.3711  0.0060
  128SOPE  H10X13806   2.970   2.488   4.487  0.0379 -1.0172  1.3237
  128SOPE  H10Y13807   2.944   2.615   4.594 -0.9084 -0.9182  1.1828
  128SOPE  C31113808   3.146   2.535   4.600 -0.9791 -0.3304 -0.5897
  128SOPE  H11X13809   3.196   2.619   4.653  0.7538 -1.0836 -0.9815
  128SOPE  H11Y13810   3.226   2.512   4.526 -0.1145  2.6955 -0.7686
  128SOPE  C31213811   3.128   2.434   4.717  0.2337 -0.2649 -0.2340
  128SOPE  H12X13812   3.223   2.405   4.767  0.1444  0.1334  0.1746
  128SOPE  H12Y13813   3.087   2.342   4.670  1.0376 -0.0831 -1.3322
  128SOPE  C31313814   3.059   2.489   4.831  0.4388  0.3792 -0.5492
  128SOPE  H13X13815   2.953   2.517   4.811 -0.0037  0.6321  1.7992
  128SOPE  H13Y13816   3.108   2.581   4.870  0.6999  0.5527 -1.2624
  128SOPE  C31413817   3.039   2.394   4.951  0.2319 -0.0469  0.4693
  128SOPE  H14X13818   3.138   2.350   4.974  1.0479  1.1968 -0.5413
  128SOPE  H14Y13819   2.981   2.306   4.917  0.5368  0.8217 -2.5713
  128SOPE  C31513820   2.989   2.453   5.085  0.5643  0.7446  0.2308
  128SOPE  H15X13821   2.923   2.541   5.073 -2.2464 -1.2215  0.1997
  128SOPE  H15Y13822   3.069   2.481   5.158  0.7907 -0.0565  0.3061
  128SOPE  C31613823   2.892   2.352   5.153 -1.1906  0.5043 -0.0917
  128SOPE  H16X13824   2.833   2.310   5.069  1.9516 -1.2383 -1.6276
  128SOPE  H16Y13825   2.828   2.408   5.224  1.5344 -0.4690  3.3959
  128SOPE  C31713826   2.963   2.234   5.223  0.9415 -0.7314  0.2271
  128SOPE  H17X13827   3.029   2.179   5.152  1.6024 -0.9568  1.0015
  128SOPE  H17Y13828   2.885   2.158   5.246  0.5689 -0.8491 -1.3246
  128SOPE  C31813829   3.033   2.259   5.359  0.4635  0.4558  0.5747
  128SOPE  H18X13830   2.951   2.309   5.416 -1.4532 -0.7229 -0.9910
  128SOPE  H18Y13831   3.118   2.330   5.349  2.2691 -1.7407 -0.3183
  128SOPE  H18Z13832   3.066   2.166   5.409  1.2438  0.9796  1.0570
  129OSM      N13833   0.757   5.119   7.196  0.5576  0.4214 -0.6865
  129OSM    C1513834   0.895   5.171   7.214  0.5886 -0.0696 -0.0978
  129OSM   H15A13835   0.935   5.211   7.121 -2.2718 -1.5744 -2.1381
  129OSM   H15B13836   0.972   5.109   7.257  1.5501  1.3400  0.3050
  129OSM   H15C13837   0.885   5.254   7.283  0.4619 -0.9584  0.9747
  129OSM    C1413838   0.757   5.010   7.089 -0.4408 -0.2175  0.2420
  129OSM   H14A13839   0.658   4.985   7.054 -0.7141 -0.9798  1.4665
  129OSM   H14B13840   0.799   4.917   7.125 -2.2600 -0.3218  2.2459
  129OSM   H14C13841   0.814   5.039   7.002  0.0098 -2.2578 -0.1920
  129OSM    C1313842   0.726   5.069   7.326 -0.2889  0.0665  0.4993
  129OSM   H13A13843   0.646   4.996   7.318 -0.4887  0.2275  0.9853
  129OSM   H13B13844   0.692   5.151   7.388 -1.2185  1.6021 -1.9048
  129OSM   H13C13845   0.814   5.017   7.361 -1.0642 -1.6137  0.0901
  129OSM    C1213846   0.648   5.228   7.149  0.4676  0.3840 -0.4677
  129OSM   H12A13847   0.561   5.174   7.117  1.9993 -2.5083 -0.0507
  129OSM   H12B13848   0.686   5.280   7.062  1.2717  0.2068 -0.2276
  129OSM    C1113849   0.618   5.338   7.254  0.3323 -0.0346 -0.8400
  129OSM   H11A13850   0.596   5.302   7.357  0.2730  1.8960 -0.1386
  129OSM   H11B13851   0.530   5.400   7.226  0.0565 -0.9765 -2.1827
  129OSM      P13852   0.768   5.525   7.143 -0.0001  0.3473 -0.1145
  129OSM    O1313853   0.757   5.661   7.195 -0.5327  0.6933  0.4207
  129OSM    O1413854   0.892   5.487   7.075 -0.0950 -0.1967  0.2064
  129OSM    O1113855   0.650   5.492   7.046 -0.6710 -0.2812  0.0083
  129OSM    O1213856   0.736   5.421   7.265  0.7383 -1.1364  0.5970
  129OSM    C1S13857   0.634   5.562   6.915 -0.2955 -0.9202  0.2780
  129OSM    H1S13858   0.730   5.577   6.862  0.6574  6.0255  2.9001
  129OSM    H1T13859   0.586   5.661   6.932 -1.7576 -1.0889 -2.3819
  129OSM     NF13860   0.559   5.520   6.684 -0.3060  0.3771  0.1948
  129OSM    HNF13861   0.485   5.568   6.637 -0.7474  0.3618  0.8601
  129OSM    C2S13862   0.533   5.481   6.822 -0.3739  0.3666  0.4975
  129OSM    H2S13863   0.567   5.377   6.840 -0.8063 -0.0519 -0.9813
  129OSM    C3S13864   0.388   5.491   6.877 -0.8685  0.2566  0.5958
  129OSM    H3S13865   0.345   5.594   6.877  1.4093  1.3217 -2.0078
  129OSM     O313866   0.381   5.443   7.008  0.4968  0.3750 -0.4742
  129OSM    HO313867   0.468   5.450   7.049 -0.1446 -0.3413  1.0937
  129OSM    C4S13868   0.308   5.396   6.790  0.1082  0.3086  0.5785
  129OSM    H4S13869   0.314   5.288   6.807  0.1352  0.3352  0.7407
  129OSM    C5S13870   0.229   5.436   6.689  0.8596  0.1651  0.4593
  129OSM    H5S13871   0.227   5.543   6.665 -2.4658 -0.2579 -1.9424
  129OSM    C6S13872   0.159   5.344   6.584 -0.7140 -0.2210  0.2159
  129OSM    H6S13873   0.059   5.311   6.621  0.3492 -0.8537  2.6805
  129OSM    H6T13874   0.213   5.248   6.570  2.1478  1.0375  1.7455
  129OSM    C7S13875   0.153   5.397   6.435  0.1702 -0.1673  0.6755
  129OSM    H7S13876   0.100   5.494   6.429  0.3567 -0.1136 -0.3530
  129OSM    H7T13877   0.086   5.330   6.377  1.4177 -0.5136 -0.4078
  129OSM    C8S13878   0.286   5.412   6.367  0.4878 -0.3176  0.7242
  129OSM    H8S13879   0.345   5.318   6.362 -0.6282 -1.0360  0.7613
  129OSM    H8T13880   0.346   5.499   6.401 -1.1236  0.6552  1.1946
  129OSM    C9S13881   0.245   5.463   6.226  0.0123 -1.2080  0.6720
  129OSM    H9S13882   0.211   5.568   6.236  1.3836 -0.6788  0.0158
  129OSM    H9T13883   0.176   5.396   6.170  0.3998 -1.7674  0.8522
  129OSM   C10S13884   0.361   5.473   6.134  0.3364  0.1507  0.7099
  129OSM   H10S13885   0.399   5.369   6.125 -1.9638 -0.7224  0.4902
  129OSM   H10T13886   0.438   5.533   6.187 -0.6236  1.3079  0.8329
  129OSM   C11S13887   0.334   5.534   6.002  0.0121 -0.0927  0.8669
  129OSM   H11S13888   0.243   5.597   5.997 -0.2230 -0.5346 -1.0076
  129OSM   H11T13889   0.304   5.456   5.929  0.9832  0.6274 -0.3232
  129OSM   C12S13890   0.466   5.611   5.955  0.1294 -1.2583  0.3616
  129OSM   H12S13891   0.550   5.538   5.959  1.2687  0.0377  0.7286
  129OSM   H12T13892   0.491   5.698   6.020  0.0459 -0.2647 -0.8952
  129OSM   C13S13893   0.451   5.677   5.814  0.5887  0.1253 -0.1908
  129OSM   H13S13894   0.526   5.759   5.802 -0.3549  0.8989 -0.8996
  129OSM   H13T13895   0.346   5.712   5.814  0.9313  1.2329  0.9145
  129OSM   C14S13896   0.446   5.574   5.699 -0.7507 -0.5442  0.3488
  129OSM   H14S13897   0.365   5.501   5.719 -1.0417 -0.1919  0.4483
  129OSM   H14T13898   0.545   5.522   5.705 -1.3123 -2.0212 -1.9475
  129OSM   C15S13899   0.419   5.632   5.556  0.3542 -0.5925 -0.2553
  129OSM   H15S13900   0.466   5.733   5.548 -1.6355  0.3943 -0.1578
  129OSM   H15T13901   0.310   5.646   5.539  0.0657 -0.8567  1.2754
  129OSM   C16S13902   0.475   5.547   5.444 -0.2988 -0.2067 -1.1248
  129OSM   H16S13903   0.417   5.453   5.436  1.1915 -1.1719 -0.9807
  129OSM   H16T13904   0.579   5.518   5.470 -0.8315 -0.5249  0.7898
  129OSM   C17S13905   0.460   5.616   5.304 -0.6424 -0.8086 -0.2882
  129OSM   H17S13906   0.510   5.715   5.312  0.2769 -1.0080 -2.6323
  129OSM   H17T13907   0.359   5.630   5.261  0.1690 -1.0591 -2.4156
  129OSM   C18S13908   0.527   5.520   5.197  0.2232  0.2078  0.2242
  129OSM   H18S13909   0.547   5.571   5.100  0.6616 -0.1973  0.0991
  129OSM   H18T13910   0.462   5.430   5.182 -0.3313  0.5768  0.3863
  129OSM   H18U13911   0.629   5.494   5.231  0.7455  2.9854  1.0118
  129OSM    C1F13912   0.681   5.492   6.623 -0.4456 -0.3561  0.2289
  129OSM     OF13913   0.771   5.432   6.679  0.2483 -0.4145  0.1510
  129OSM    C2F13914   0.693   5.550   6.484 -0.1150  0.0129  0.4011
  129OSM    H2F13915   0.746   5.647   6.501  1.5909 -1.2255  2.8202
  129OSM    H2G13916   0.591   5.563   6.442 -0.1420  1.0712  0.7574
  129OSM    C3F13917   0.786   5.462   6.395 -0.9363  0.4483  0.0376
  129OSM    H3F13918   0.753   5.357   6.406 -0.9650  0.5093  0.5549
  129OSM    H3G13919   0.880   5.470   6.454 -0.1853  2.0766 -1.2985
  129OSM    C4F13920   0.795   5.511   6.253 -0.2497  0.4042  0.2039
  129OSM    H4F13921   0.691   5.509   6.215 -0.7246  2.5624  1.1904
  129OSM    H4G13922   0.847   5.432   6.195 -2.0793 -0.1298 -0.7723
  129OSM    C5F13923   0.848   5.652   6.240  0.1612 -1.3472 -0.1730
  129OSM    H5F13924   0.950   5.649   6.285  0.4812 -2.3385 -0.9432
  129OSM    H5G13925   0.791   5.715   6.312 -0.2330 -1.0394 -0.7547
  129OSM    C6F13926   0.858   5.708   6.096  0.7717 -0.8510  0.4915
  129OSM    H6F13927   0.752   5.716   6.064 -0.3951 -3.0023  3.3785
  129OSM    H6G13928   0.910   5.634   6.032  0.8953 -0.3669  0.0232
  129OSM    C7F13929   0.927   5.845   6.083  0.5996 -0.3880  0.4749
  129OSM    H7F13930   1.025   5.850   6.136 -0.2744 -1.9594  2.4186
  129OSM    H7G13931   0.869   5.928   6.128  2.8171  0.7906  1.3021
  129OSM    C8F13932   0.955   5.867   5.932  0.3679  0.0101 -0.3306
  129OSM    H8F13933   1.009   5.776   5.898 -2.1597 -2.1948  1.2350
  129OSM    H8G13934   1.028   5.948   5.910  1.4682 -1.3101 -1.8065
  129OSM    C9F13935   0.829   5.889   5.852 -0.3667 -0.4344  0.5943
  129OSM    H9F13936   0.742   5.942   5.894  0.6161  1.0984  0.7687
  129OSM   C10F13937   0.811   5.847   5.727 -0.5676 -0.0119  0.2331
  129OSM   H10F13938   0.714   5.866   5.678  0.3190  3.5533 -0.3777
  129OSM   C11F13939   0.915   5.780   5.638 -0.6051  0.5052 -0.4773
  129OSM   H11F13940   1.002   5.749   5.700 -1.4102  1.8471  1.4153
  129OSM   H11G13941   0.955   5.853   5.564  1.2494  0.4519  0.4130
  129OSM   C12F13942   0.857   5.650   5.575 -0.6301 -0.5148 -0.5892
  129OSM   H12F13943   0.761   5.684   5.531  0.0949  1.0059 -1.0887
  129OSM   H12G13944   0.834   5.584   5.661 -1.3034 -0.7253 -0.9222
  129OSM   C13F13945   0.944   5.584   5.466 -1.0639  0.1395  0.3389
  129OSM   H13F13946   0.903   5.483   5.443  0.6594 -0.5078 -0.0686
  129OSM   H13G13947   1.045   5.552   5.501 -0.8243 -0.9583 -1.2322
  129OSM   C14F13948   0.959   5.665   5.339  1.1813  0.4163 -0.1506
  129OSM   H14F13949   0.986   5.769   5.367 -0.3511  0.5284  1.0311
  129OSM   H14G13950   0.858   5.671   5.292  1.1391 -1.2942 -0.3607
  129OSM   C15F13951   1.055   5.601   5.238 -0.3992  0.2940 -0.6633
  129OSM   H15F13952   1.043   5.491   5.230 -1.4655  0.4061 -0.7816
  129OSM   H15G13953   1.155   5.609   5.285  0.2582  0.4651 -2.0310
  129OSM   C16F13954   1.056   5.677   5.104  0.2761 -0.4431 -1.3742
  129OSM   H16F13955   1.128   5.629   5.034 -0.4956 -1.8698 -1.2109
  129OSM   H16G13956   1.099   5.773   5.140 -0.5672 -0.2132 -0.9597
  129OSM   C17F13957   0.921   5.686   5.036  0.5351  0.1459 -0.5000
  129OSM   H17F13958   0.844   5.738   5.098  1.7875  0.9586  0.4081
  129OSM   H17G13959   0.877   5.585   5.021  0.0721 -0.4217  3.5379
  129OSM   C18F13960   0.927   5.773   4.906 -0.2616  0.2953 -0.3241
  129OSM   H18F13961   0.925   5.706   4.817 -2.0212 -0.5618  0.3096
  129OSM   H18G13962   1.018   5.836   4.907  0.0676 -0.1835  0.3915
  129OSM   H18H13963   0.849   5.852   4.897 -0.1018  0.2614 -2.7311
  130OSM      N13964   0.275   6.225   6.785 -0.2435  0.3667  0.2116
  130OSM    C1513965   0.125   6.234   6.767 -0.4064  0.1297  0.1293
  130OSM   H15A13966   0.071   6.141   6.777 -2.7658  1.4604  0.6808
  130OSM   H15B13967   0.104   6.275   6.670  1.5692 -0.4706 -0.5842
  130OSM   H15C13968   0.082   6.304   6.838  0.8098  1.3500 -0.3077
  130OSM    C1413969   0.304   6.149   6.907 -0.6703  0.0831 -0.2560
  130OSM   H14A13970   0.232   6.195   6.973  0.2110  1.2561 -0.0934
  130OSM   H14B13971   0.406   6.163   6.940 -0.8273 -0.9950  0.7421
  130OSM   H14C13972   0.292   6.043   6.890 -0.9049  0.3934 -2.2883
  130OSM    C1313973   0.335   6.145   6.672  0.5909  0.7311 -0.2025
  130OSM   H13A13974   0.441   6.132   6.688  0.7019 -0.3115 -1.5797
  130OSM   H13B13975   0.328   6.195   6.577  1.1384 -0.0280 -0.6554
  130OSM   H13C13976   0.285   6.049   6.670 -1.1314  1.5805 -0.2584
  130OSM    C1213977   0.334   6.364   6.785 -0.5804  0.4892  0.3710
  130OSM   H12A13978   0.291   6.404   6.694  0.5434 -0.7809 -0.7646
  130OSM   H12B13979   0.441   6.354   6.777 -0.7828 -2.0041 -0.1058
  130OSM    C1113980   0.293   6.462   6.903 -1.1687  0.1759 -0.6820
  130OSM   H11A13981   0.183   6.459   6.921 -0.8425 -1.3751  1.4544
  130OSM   H11B13982   0.321   6.567   6.884 -0.8864  0.3007  0.3728
  130OSM      P13983   0.521   6.417   7.039 -0.1626  0.1118 -0.2032
  130OSM    O1313984   0.554   6.486   7.164  0.4693  0.6188 -0.1245
  130OSM    O1413985   0.569   6.278   7.038 -0.8408 -0.1552  0.2307
  130OSM    O1113986   0.577   6.499   6.913  0.1687 -0.2205  0.2561
  130OSM    O1213987   0.359   6.422   7.023  0.0321 -0.3401 -0.0395
  130OSM    C1S13988   0.713   6.509   6.901  0.1618 -0.1239 -0.3599
  130OSM    H1S13989   0.761   6.409   6.898 -0.5267 -0.4502 -0.5633
  130OSM    H1T13990   0.749   6.572   6.986 -0.4802 -1.4168  0.9051
  130OSM     NF13991   0.893   6.618   6.763  0.5505  0.3224  0.5250
  130OSM    HNF13992   0.929   6.707   6.791  2.0809  0.2772 -1.1206
  130OSM    C2S13993   0.749   6.593   6.775  0.8221 -0.3968  0.6486
  130OSM    H2S13994   0.719   6.541   6.682  0.4571  4.0972 -2.0460
  130OSM    C3S13995   0.671   6.727   6.754 -0.2728  0.2587 -0.6888
  130OSM    H3S13996   0.721   6.810   6.807 -0.0343  1.4628 -2.6885
  130OSM     O313997   0.534   6.720   6.784  0.2094 -0.2609  0.5544
  130OSM    HO313998   0.528   6.630   6.818 -1.5620 -0.7641 -0.8990
  130OSM    C4S13999   0.699   6.774   6.614 -0.7757 -0.2063  0.0055
  130OSM    H4S14000   0.743   6.874   6.622 -0.6446 -0.3710  1.8635
  130OSM    C5S14001   0.633   6.730   6.503 -0.9766  0.0204  0.5265
  130OSM    H5S14002   0.575   6.638   6.519 -0.4103 -0.0512  2.3970
  130OSM    C6S14003   0.632   6.802   6.370  0.1219 -0.7036  0.1323
  130OSM    H6S14004   0.554   6.879   6.388  0.5696 -0.4971  1.2509
  130OSM    H6T14005   0.600   6.738   6.285 -1.6872  1.6921 -1.1043
  130OSM    C7S14006   0.761   6.875   6.316 -0.5690  0.1995 -0.5162
  130OSM    H7S14007   0.835   6.793   6.317 -1.6748 -0.9325  2.9252
  130OSM    H7T14008   0.813   6.953   6.376  1.2737 -0.9928 -0.5084
  130OSM    C8S14009   0.736   6.929   6.168 -0.4522 -0.2779  0.4697
  130OSM    H8S14010   0.668   7.016   6.174 -0.6078 -0.3439 -0.2814
  130OSM    H8T14011   0.682   6.852   6.108  2.7508 -1.5215 -1.0742
  130OSM    C9S14012   0.875   6.973   6.107  0.1129  0.2222 -0.6874
  130OSM    H9S14013   0.936   6.884   6.079 -0.3650  0.0536 -1.2072
  130OSM    H9T14014   0.927   7.029   6.187 -0.0975  2.6759 -2.1883
  130OSM   C10S14015   0.875   7.073   6.000  0.3272  0.5140  0.8020
  130OSM   H10S14016   0.974   7.104   5.959 -0.8669  1.3730 -1.6626
  130OSM   H10T14017   0.834   7.172   6.028 -0.3375  0.2517  0.7520
  130OSM   C11S14018   0.797   7.022   5.881  0.4797 -0.1385 -0.0245
  130OSM   H11S14019   0.699   6.982   5.914  1.5002 -4.5843 -1.6960
  130OSM   H11T14020   0.842   6.932   5.834  1.4340  1.1913 -1.7622
  130OSM   C12S14021   0.788   7.129   5.771 -0.2901 -0.0466 -0.0549
  130OSM   H12S14022   0.897   7.140   5.751 -0.6826  0.9960 -1.8135
  130OSM   H12T14023   0.746   7.222   5.814 -2.4349 -0.2476 -1.5680
  130OSM   C13S14024   0.709   7.091   5.649 -0.2279  0.9814  0.2328
  130OSM   H13S14025   0.611   7.140   5.667 -0.6593  0.0495  0.4457
  130OSM   H13T14026   0.684   6.984   5.635  0.4753  0.9468 -0.9382
  130OSM   C14S14027   0.761   7.143   5.519 -0.4171 -0.8237  0.1427
  130OSM   H14S14028   0.865   7.110   5.496  0.4508  1.4318  0.5590
  130OSM   H14T14029   0.768   7.253   5.536 -2.0089 -0.9062  1.5893
  130OSM   C15S14030   0.670   7.121   5.392 -0.2207  0.2249 -0.5161
  130OSM   H15S14031   0.567   7.133   5.430  0.2526  1.3966  0.4665
  130OSM   H15T14032   0.687   7.019   5.351  1.6628  0.9035 -1.5438
  130OSM   C16S14033   0.693   7.224   5.281  0.4915  0.1161 -0.7061
  130OSM   H16S14034   0.803   7.234   5.266  0.0112  0.3468 -5.7690
  130OSM   H16T14035   0.661   7.314   5.338  2.0876  0.1895  0.1321
  130OSM   C17S14036   0.615   7.211   5.148  0.2990  0.1541 -0.3449
  130OSM   H17S14037   0.508   7.201   5.177  0.2676 -0.4543 -0.6595
  130OSM   H17T14038   0.639   7.115   5.097 -1.3895  0.0886 -1.0848
  130OSM   C18S14039   0.627   7.333   5.050  0.6100 -0.2666 -0.3758
  130OSM   H18S14040   0.720   7.326   4.989 -1.0853  2.4134 -3.5924
  130OSM   H18T14041   0.637   7.427   5.110  2.4121 -1.4800  1.3675
  130OSM   H18U14042   0.544   7.333   4.976  0.9726  1.2462 -0.8245
  130OSM    C1F14043   0.978   6.512   6.759  0.2772 -0.3258 -0.2325
  130OSM     OF14044   0.942   6.397   6.733  0.0347  0.5435  0.0965
  130OSM    C2F14045   1.124   6.542   6.796 -0.0358  0.3772  0.4985
  130OSM    H2F14046   1.182   6.471   6.859 -0.9189  0.2029  1.1375
  130OSM    H2G14047   1.132   6.636   6.855 -0.0096  1.0660 -0.5795
  130OSM    C3F14048   1.209   6.549   6.663  0.1851 -0.1667 -0.3778
  130OSM    H3F14049   1.201   6.453   6.607  1.6606  0.1233 -1.1162
  130OSM    H3G14050   1.310   6.548   6.708  0.3972 -1.1354 -0.8439
  130OSM    C4F14051   1.200   6.674   6.574  0.5682  0.3025 -0.9866
  130OSM    H4F14052   1.213   6.762   6.641 -0.4307 -0.1263 -0.2094
  130OSM    H4G14053   1.095   6.673   6.539 -0.6876 -0.3777  2.4121
  130OSM    C5F14054   1.291   6.671   6.457 -0.4441 -0.5322  0.4477
  130OSM    H5F14055   1.278   6.579   6.396  1.2464  0.1510 -1.0530
  130OSM    H5G14056   1.388   6.652   6.507 -0.8503 -0.3967  1.3002
  130OSM    C6F14057   1.302   6.794   6.369 -0.1658  0.1719 -0.6837
  130OSM    H6F14058   1.334   6.878   6.434 -0.4937 -0.3557  0.1677
  130OSM    H6G14059   1.200   6.817   6.331 -1.4164 -0.2740  2.1457
  130OSM    C7F14060   1.410   6.782   6.267  0.3616  0.3235 -0.6104
  130OSM    H7F14061   1.510   6.758   6.309  0.6563  3.0147  0.4400
  130OSM    H7G14062   1.439   6.883   6.232  1.6931  1.4144  3.1363
  130OSM    C8F14063   1.363   6.680   6.159 -1.0378 -0.2014  0.1778
  130OSM    H8F14064   1.343   6.582   6.207 -0.3445 -0.9885 -1.0625
  130OSM    H8G14065   1.449   6.660   6.090 -0.5925  1.4487  0.2135
  130OSM    C9F14066   1.242   6.728   6.076 -0.5402 -0.7131  0.6428
  130OSM    H9F14067   1.155   6.666   6.053  0.9975 -2.4062 -0.9227
  130OSM   C10F14068   1.255   6.838   5.995  0.0311 -0.0257 -0.7322
  130OSM   H10F14069   1.166   6.864   5.936 -0.1169 -0.8619 -0.8878
  130OSM   C11F14070   1.374   6.926   5.983 -0.6265 -1.0078 -0.1909
  130OSM   H11F14071   1.473   6.882   6.009 -0.5569 -1.1344 -0.6588
  130OSM   H11G14072   1.373   7.021   6.040  1.8930 -0.3267 -1.1272
  130OSM   C12F14073   1.393   6.961   5.835  0.0552  1.1123  0.2102
  130OSM   H12F14074   1.491   7.015   5.837  0.8351 -0.2715  0.1472
  130OSM   H12G14075   1.315   7.029   5.793  0.9573  2.3418  0.4570
  130OSM   C13F14076   1.400   6.835   5.746 -0.0626 -0.1773 -0.1022
  130OSM   H13F14077   1.307   6.774   5.743 -0.9977  1.2001 -3.5492
  130OSM   H13G14078   1.487   6.777   5.784  0.1434 -0.7826 -1.4591
  130OSM   C14F14079   1.431   6.875   5.601 -0.2424  0.1182  0.0002
  130OSM   H14F14080   1.372   6.965   5.575 -2.5817 -1.3797 -0.2314
  130OSM   H14G14081   1.415   6.781   5.544 -0.0363 -0.8986  1.5608
  130OSM   C15F14082   1.587   6.884   5.585 -0.1486  0.0306  0.5143
  130OSM   H15F14083   1.630   6.781   5.590 -1.9977 -0.7689  0.6711
  130OSM   H15G14084   1.617   6.940   5.676  2.0518  2.5906 -1.6179
  130OSM   C16F14085   1.623   6.953   5.456  0.6704 -0.1505  0.4097
  130OSM   H16F14086   1.573   7.052   5.455  0.6620 -0.0208  3.5989
  130OSM   H16G14087   1.581   6.890   5.375  0.3111  0.3533  0.1971
  130OSM   C17F14088   1.774   6.965   5.449  0.2853  0.0255  0.8335
  130OSM   H17F14089   1.808   6.859   5.446  0.0677 -0.0229 -0.5513
  130OSM   H17G14090   1.818   7.013   5.539  1.1183  0.2458  0.3126
  130OSM   C18F14091   1.818   7.036   5.322 -0.5577  0.1118  0.4577
  130OSM   H18F14092   1.787   6.973   5.236  0.0352 -1.1237  1.1153
  130OSM   H18G14093   1.927   7.052   5.328 -0.3733  0.0332 -1.8071
  130OSM   H18H14094   1.756   7.128   5.326 -2.3272 -1.0067 -0.0723
  131OSM      N14095   4.873   3.174   7.879 -0.1486 -0.3083 -0.1564
  131OSM    C1514096   4.984   3.269   7.873 -0.5682  0.0547  0.6892
  131OSM   H15A14097   5.041   3.286   7.963 -0.3978  1.0922  0.3929
  131OSM   H15B14098   4.942   3.365   7.849 -1.7720 -0.7993 -0.8577
  131OSM   H15C14099   5.050   3.250   7.789  0.8790  0.7035  1.6438
  131OSM    C1414100   4.938   3.042   7.908 -0.1805 -0.5108 -0.0503
  131OSM   H14A14101   4.979   3.049   8.008  0.5377 -1.3460 -0.2790
  131OSM   H14B14102   5.013   3.026   7.832 -0.2407  2.7958 -0.9583
  131OSM   H14C14103   4.868   2.960   7.911 -0.5598 -0.1978 -0.2659
  131OSM    C1314104   4.778   3.222   7.988  0.8205 -0.1070  0.9183
  131OSM   H13A14105   4.822   3.227   8.086  1.6661 -1.2917  0.6285
  131OSM   H13B14106   4.696   3.152   7.979  0.7318  0.1775 -0.7290
  131OSM   H13C14107   4.741   3.320   7.965  1.4639 -0.2556 -0.9343
  131OSM    C1214108   4.805   3.165   7.745 -0.5078 -0.3186  0.2553
  131OSM   H12A14109   4.754   3.260   7.735 -1.4059 -0.7796  0.4029
  131OSM   H12B14110   4.721   3.097   7.750 -1.9472  1.2555 -1.0848
  131OSM    C1114111   4.895   3.140   7.615  0.0978  0.0398  0.6348
  131OSM   H11A14112   4.839   3.101   7.528 -0.0759  1.3792  0.1305
  131OSM   H11B14113   4.972   3.063   7.634 -1.8236 -1.7390  1.7263
  131OSM      P14114   4.909   3.380   7.498 -0.4849  0.0545  0.0540
  131OSM    O1314115   4.818   3.461   7.579  0.6222 -0.2252 -0.8089
  131OSM    O1414116   5.025   3.444   7.440  0.2508 -0.1442  0.0877
  131OSM    O1114117   4.842   3.303   7.379  0.0765  0.0389  0.1042
  131OSM    O1214118   4.969   3.257   7.581  0.6505  0.0526  0.0256
  131OSM    C1S14119   4.703   3.305   7.362 -0.4880  0.2997 -0.0690
  131OSM    H1S14120   4.667   3.410   7.356 -2.0337 -0.2541 -1.2403
  131OSM    H1T14121   4.650   3.246   7.440 -0.4275 -1.3844 -1.2454
  131OSM     NF14122   4.507   3.247   7.227  0.0684  0.6473 -0.3167
  131OSM    HNF14123   4.448   3.167   7.232  0.8661 -0.0618 -1.5630
  131OSM    C2S14124   4.655   3.236   7.232  0.2019  0.3578  0.7480
  131OSM    H2S14125   4.690   3.288   7.141  0.0056 -2.1660 -0.8588
  131OSM    C3S14126   4.717   3.099   7.217 -0.0685  0.6636 -0.1696
  131OSM    H3S14127   4.689   3.046   7.310  1.4710  2.2731  1.3013
  131OSM     O314128   4.862   3.107   7.211 -0.7080 -0.4230  0.2196
  131OSM    HO314129   4.887   3.193   7.244  0.5848 -0.7514  0.1905
  131OSM    C4S14130   4.663   3.037   7.088 -0.6055  0.1523 -0.9862
  131OSM    H4S14131   4.576   2.970   7.094  0.2402 -0.8686  0.8022
  131OSM    C5S14132   4.727   3.038   6.974 -0.3064 -0.3839  0.1649
  131OSM    H5S14133   4.819   3.097   6.968 -0.5098  0.5135  3.4671
  131OSM    C6S14134   4.669   2.975   6.854  0.4364 -1.1605  0.2426
  131OSM    H6S14135   4.569   2.931   6.871 -0.2869 -0.5567 -2.1330
  131OSM    H6T14136   4.739   2.894   6.823 -0.4837 -1.1025 -2.1383
  131OSM    C7S14137   4.663   3.065   6.739  0.1108 -1.1790  0.2434
  131OSM    H7S14138   4.769   3.069   6.707  0.0298  0.7366  0.0939
  131OSM    H7T14139   4.625   3.166   6.765 -2.4121 -1.5391 -1.6059
  131OSM    C8S14140   4.586   3.008   6.617 -0.0197  0.7222  0.2802
  131OSM    H8S14141   4.565   3.096   6.553 -1.0782  0.2186 -0.0791
  131OSM    H8T14142   4.494   2.956   6.650  1.2256 -0.7230  1.6630
  131OSM    C9S14143   4.659   2.887   6.548 -0.4475  0.6726 -0.1840
  131OSM    H9S14144   4.650   2.796   6.612  0.4361 -1.0997 -2.4314
  131OSM    H9T14145   4.763   2.921   6.529  0.3890 -1.0389  1.0034
  131OSM   C10S14146   4.594   2.847   6.407 -0.6464 -0.5280 -0.6058
  131OSM   H10S14147   4.484   2.832   6.408 -1.1237  2.0738 -2.1896
  131OSM   H10T14148   4.643   2.750   6.386 -0.3658 -0.2677 -1.2035
  131OSM   C11S14149   4.620   2.948   6.298  0.1521 -0.5378 -0.2508
  131OSM   H11S14150   4.728   2.974   6.307  0.1993 -1.1753  1.3796
  131OSM   H11T14151   4.563   3.043   6.308  0.4860 -0.2167 -1.2635
  131OSM   C12S14152   4.608   2.894   6.159 -0.6607 -0.1710 -0.5906
  131OSM   H12S14153   4.660   2.797   6.148  0.1476  0.3499 -1.4806
  131OSM   H12T14154   4.645   2.964   6.081 -0.2259  0.2778  0.0096
  131OSM   C13S14155   4.457   2.874   6.119  1.3787  0.1497 -0.3133
  131OSM   H13S14156   4.402   2.969   6.137  0.9992 -0.2629  0.8170
  131OSM   H13T14157   4.402   2.799   6.180  0.6820  0.8469 -0.0630
  131OSM   C14S14158   4.449   2.827   5.969  0.5084 -0.0208  0.1265
  131OSM   H14S14159   4.352   2.775   5.956 -0.1789  1.5006 -1.2897
  131OSM   H14T14160   4.517   2.744   5.940  1.8461  0.9049  0.4726
  131OSM   C15S14161   4.485   2.936   5.861 -0.7076  0.7219 -0.1281
  131OSM   H15S14162   4.579   2.987   5.891 -1.2945  0.2609  2.8971
  131OSM   H15T14163   4.408   3.015   5.858 -1.2580  0.1684 -0.9720
  131OSM   C16S14164   4.496   2.867   5.723 -0.2585  0.1607  0.0326
  131OSM   H16S14165   4.409   2.807   5.689 -0.7425  0.5019  0.6470
  131OSM   H16T14166   4.585   2.801   5.719  0.4121  1.0769 -0.6042
  131OSM   C17S14167   4.522   2.980   5.621 -0.4066  0.2029  0.5725
  131OSM   H17S14168   4.601   3.046   5.661 -1.1633  1.0365  0.7322
  131OSM   H17T14169   4.430   3.039   5.600  0.2034  0.6766 -0.9056
  131OSM   C18S14170   4.576   2.930   5.493  0.0438  0.1884 -0.5849
  131OSM   H18S14171   4.665   2.864   5.493  0.2491  0.0926  4.5520
  131OSM   H18T14172   4.609   3.025   5.445 -0.0827  0.2922 -0.4686
  131OSM   H18U14173   4.495   2.879   5.436  1.5421 -2.0320 -0.8276
  131OSM    C1F14174   4.450   3.368   7.218 -0.4697  0.2798 -0.1171
  131OSM     OF14175   4.515   3.468   7.181  0.2828 -0.0195  0.1184
  131OSM    C2F14176   4.312   3.382   7.268  0.3437  0.2532  1.2562
  131OSM    H2F14177   4.312   3.472   7.333  3.6802  1.9291 -0.7987
  131OSM    H2G14178   4.273   3.290   7.316  2.2980 -1.8377 -0.9118
  131OSM    C3F14179   4.214   3.415   7.142 -0.5395  0.2732 -0.1799
  131OSM    H3F14180   4.254   3.504   7.089  0.3758 -1.3032 -2.2608
  131OSM    H3G14181   4.113   3.431   7.187 -0.9490  0.2349 -1.0637
  131OSM    C4F14182   4.192   3.303   7.039 -0.5351 -0.7672  0.4285
  131OSM    H4F14183   4.099   3.337   6.988 -0.3634  0.5961  0.9712
  131OSM    H4G14184   4.176   3.200   7.077 -1.3497 -0.8876 -0.2018
  131OSM    C5F14185   4.307   3.290   6.932 -0.0180 -0.9724  0.0169
  131OSM    H5F14186   4.404   3.257   6.975  1.2927  0.7349 -1.5234
  131OSM    H5G14187   4.328   3.393   6.896 -3.6961  0.0414  0.3457
  131OSM    C6F14188   4.270   3.203   6.807 -0.3306 -0.2101 -0.3529
  131OSM    H6F14189   4.231   3.111   6.856 -0.2466 -0.6539 -1.1140
  131OSM    H6G14190   4.366   3.170   6.762 -1.1039 -0.1099 -2.1507
  131OSM    C7F14191   4.168   3.262   6.713  0.0489 -0.5242 -0.0770
  131OSM    H7F14192   4.189   3.368   6.691  1.6783 -0.1185  2.9680
  131OSM    H7G14193   4.076   3.272   6.775  0.2212 -2.1591  0.4905
  131OSM    C8F14194   4.119   3.163   6.603 -0.5950  0.8817  0.0789
  131OSM    H8F14195   4.032   3.209   6.552 -0.8168 -0.3308 -0.6723
  131OSM    H8G14196   4.088   3.069   6.655  1.9952 -1.4011 -2.1907
  131OSM    C9F14197   4.234   3.138   6.511 -0.3225 -0.6482  0.1124
  131OSM    H9F14198   4.325   3.199   6.509 -0.5292 -0.3434 -1.2426
  131OSM   C10F14199   4.227   3.067   6.405  0.1218  0.7261  0.8152
  131OSM   H10F14200   4.324   3.061   6.352 -0.7499  0.6733 -0.8448
  131OSM   C11F14201   4.114   2.972   6.371  0.0351  0.4401  0.1020
  131OSM   H11F14202   4.064   2.927   6.460  2.9556 -2.8316  0.3105
  131OSM   H11G14203   4.162   2.887   6.317 -1.6760  0.2993 -1.2892
  131OSM   C12F14204   4.009   3.041   6.281 -0.3834  0.3120 -0.3155
  131OSM   H12F14205   3.949   3.104   6.351  0.7121 -1.2506  2.1812
  131OSM   H12G14206   3.939   2.966   6.238 -1.3177  1.3447 -0.6250
  131OSM   C13F14207   4.058   3.124   6.165 -0.1507  0.2680  0.2331
  131OSM   H13F14208   4.146   3.185   6.195 -0.3992 -0.0037  1.6002
  131OSM   H13G14209   3.984   3.205   6.147  0.4585  0.5410 -1.2163
  131OSM   C14F14210   4.070   3.045   6.039 -0.6084 -0.6117  0.1171
  131OSM   H14F14211   3.977   2.986   6.025 -0.4583 -0.7248 -0.4418
  131OSM   H14G14212   4.156   2.983   6.072 -0.1569  0.7822  1.6660
  131OSM   C15F14213   4.103   3.132   5.908 -0.3421  0.4586  0.1664
  131OSM   H15F14214   4.190   3.200   5.922  0.2412 -0.3380  0.4873
  131OSM   H15G14215   4.018   3.200   5.888 -0.0760 -0.3250 -5.3103
  131OSM   C16F14216   4.108   3.043   5.785  0.2052  0.3770  0.9298
  131OSM   H16F14217   4.012   2.987   5.787  0.2755  0.2166  0.1795
  131OSM   H16G14218   4.185   2.963   5.791 -0.7648 -0.8816 -1.7517
  131OSM   C17F14219   4.125   3.123   5.651  0.1503  0.3810  0.1481
  131OSM   H17F14220   4.139   3.053   5.566 -1.6872  1.8875 -1.4879
  131OSM   H17G14221   4.223   3.175   5.644 -0.7261  1.8335 -2.5930
  131OSM   C18F14222   4.008   3.222   5.628  0.0004  0.1602  0.3342
  131OSM   H18F14223   4.025   3.262   5.526 -1.4635 -3.2291 -1.4137
  131OSM   H18G14224   4.000   3.305   5.702 -1.2325 -1.5110  2.1906
  131OSM   H18H14225   3.911   3.167   5.620  0.0314  0.0073  0.9323
  132OSM      N14226   4.803   6.016   7.420 -0.2723 -0.2748  0.5683
  132OSM    C1514227   4.665   6.038   7.382 -0.5638  0.6709 -0.2069
  132OSM   H15A14228   4.627   5.954   7.327 -0.4295 -0.2890  1.1025
  132OSM   H15B14229   4.660   6.131   7.328 -1.1247  0.8251  0.0996
  132OSM   H15C14230   4.605   6.050   7.471 -0.3655  0.7193 -0.0791
  132OSM    C1414231   4.851   6.150   7.478  0.4371  0.0594  0.4089
  132OSM   H14A14232   4.777   6.202   7.538  1.6122  0.6553  1.3727
  132OSM   H14B14233   4.867   6.220   7.397  2.1251 -3.0838 -2.2072
  132OSM   H14C14234   4.940   6.145   7.539  0.5161 -2.5599  0.1589
  132OSM    C1314235   4.822   5.897   7.510 -1.0919 -0.5514  0.1194
  132OSM   H13A14236   4.925   5.898   7.543 -1.2121  0.0742  0.4838
  132OSM   H13B14237   4.801   5.800   7.466  1.4518 -0.6723 -1.0277
  132OSM   H13C14238   4.754   5.902   7.594 -0.6496  1.5678  0.4049
  132OSM    C1214239   4.885   5.986   7.284 -0.6775 -0.4936 -0.2572
  132OSM   H12A14240   4.839   5.900   7.238 -1.4466 -1.0173  1.4201
  132OSM   H12B14241   4.991   5.981   7.308  0.0012 -1.7961 -3.1032
  132OSM    C1114242   4.879   6.090   7.170  0.1419 -0.1320  0.3933
  132OSM   H11A14243   4.779   6.085   7.122 -0.3001 -1.9723  1.4152
  132OSM   H11B14244   4.949   6.057   7.090 -1.7753  0.5862 -1.6747
  132OSM      P14245   5.064   6.279   7.196  0.3450 -0.4237  0.0623
  132OSM    O1314246   5.065   6.397   7.279 -0.7741  1.0745 -0.3162
  132OSM    O1414247   5.168   6.173   7.222 -0.0178 -0.2595 -0.2566
  132OSM    O1114248   5.063   6.323   7.043  0.2415  0.2027  0.4382
  132OSM    O1214249   4.918   6.217   7.209  0.4188 -0.1560  0.6889
  132OSM    C1S14250   4.943   6.389   7.003 -0.5555  0.5523  0.2268
  132OSM    H1S14251   4.932   6.487   7.054  0.1757  0.0386  1.4112
  132OSM    H1T14252   4.850   6.334   7.026 -0.0856 -0.9258 -1.1941
  132OSM     NF14253   4.844   6.497   6.796  0.1414 -0.3266 -0.4128
  132OSM    HNF14254   4.766   6.477   6.737  1.1234 -0.3561 -1.7306
  132OSM    C2S14255   4.935   6.397   6.846  0.7430  0.3988  0.2293
  132OSM    H2S14256   5.033   6.439   6.812 -0.5530  3.3817 -0.0774
  132OSM    C3S14257   4.923   6.253   6.785 -0.0894 -0.0835  0.0652
  132OSM    H3S14258   4.838   6.194   6.824  0.3141 -0.6183  0.1505
  132OSM     O314259   5.032   6.169   6.808 -0.9228 -0.0674  0.0276
  132OSM    HO314260   5.082   6.209   6.880 -0.6723 -1.2717  0.5491
  132OSM    C4S14261   4.895   6.265   6.635  0.0659 -0.3290  0.0974
  132OSM    H4S14262   4.794   6.227   6.614  0.9914 -2.9278 -0.0044
  132OSM    C5S14263   4.971   6.300   6.531 -0.1797  0.2671  0.1679
  132OSM    H5S14264   5.078   6.313   6.553 -0.0509 -0.3438 -0.1001
  132OSM    C6S14265   4.910   6.314   6.396  0.4112  0.2072 -0.0356
  132OSM    H6S14266   4.952   6.399   6.338 -0.0803 -0.8233 -1.9997
  132OSM    H6T14267   4.803   6.336   6.415  0.5882  0.6918  0.4110
  132OSM    C7S14268   4.940   6.187   6.314 -0.5827  0.4597  0.2064
  132OSM    H7S14269   4.869   6.108   6.345 -0.9480  1.4239  1.9424
  132OSM    H7T14270   5.046   6.158   6.329 -0.3689  0.7283 -0.7301
  132OSM    C8S14271   4.927   6.207   6.163  0.4650 -0.0014  0.2449
  132OSM    H8S14272   5.010   6.272   6.129 -1.0202  1.7637 -0.1764
  132OSM    H8T14273   4.827   6.250   6.139  1.0019  0.1897 -1.8734
  132OSM    C9S14274   4.941   6.072   6.076  0.2790  0.0948  0.8474
  132OSM    H9S14275   4.864   6.009   6.126 -0.9857  1.2155  0.3902
  132OSM    H9T14276   5.038   6.026   6.105 -0.0786 -0.7454  0.7424
  132OSM   C10S14277   4.925   6.085   5.922 -0.9771 -0.4666 -0.5694
  132OSM   H10S14278   4.997   6.166   5.895  1.6788 -1.7346  2.1504
  132OSM   H10T14279   4.821   6.113   5.894 -1.2082  0.5434  1.1369
  132OSM   C11S14280   4.980   5.969   5.840 -0.2515  0.6544  0.7192
  132OSM   H11S14281   4.922   5.880   5.873 -0.6648  1.2636  1.6984
  132OSM   H11T14282   5.087   5.956   5.867 -0.3159 -1.1283  0.2283
  132OSM   C12S14283   4.964   6.006   5.691 -0.1464 -0.3120 -0.3632
  132OSM   H12S14284   5.040   6.080   5.658 -1.7307  0.8864 -1.5049
  132OSM   H12T14285   4.860   6.039   5.669  0.9396  2.1920 -2.2678
  132OSM   C13S14286   4.997   5.889   5.593  0.0699 -0.3629  0.2929
  132OSM   H13S14287   4.917   5.814   5.608 -0.9574  0.5797 -0.3578
  132OSM   H13T14288   5.098   5.855   5.625 -0.2114 -0.7826  0.7490
  132OSM   C14S14289   5.003   5.938   5.443  0.6200 -0.4485  0.2545
  132OSM   H14S14290   5.016   6.048   5.441 -1.7151 -0.1269 -0.8421
  132OSM   H14T14291   4.908   5.935   5.386  0.0060 -0.4247  1.2490
  132OSM   C15S14292   5.113   5.862   5.366 -0.7197 -0.9867  0.4710
  132OSM   H15S14293   5.088   5.758   5.335  0.9638 -0.5286 -2.9152
  132OSM   H15T14294   5.204   5.852   5.429 -1.0167 -1.5301  0.8203
  132OSM   C16S14295   5.155   5.932   5.235  0.6871  0.0975  0.1938
  132OSM   H16S14296   5.261   5.917   5.205 -0.1150 -0.7781 -2.5254
  132OSM   H16T14297   5.129   6.040   5.240 -0.8281  0.3081 -5.3573
  132OSM   C17S14298   5.078   5.871   5.113 -0.1437  0.2587  0.3127
  132OSM   H17S14299   4.968   5.876   5.129  0.1950 -0.3859  3.4773
  132OSM   H17T14300   5.109   5.766   5.093  0.2190  0.6696 -1.4511
  132OSM   C18S14301   5.109   5.952   4.988 -0.2316 -0.0435 -0.2120
  132OSM   H18S14302   5.202   5.919   4.936  0.4157  1.2390  0.0978
  132OSM   H18T14303   5.136   6.055   5.019  0.6203 -0.0414 -0.8997
  132OSM   H18U14304   5.033   5.958   4.907  0.1973 -1.6403 -0.7796
  132OSM    C1F14305   4.858   6.629   6.809 -0.2196 -0.0378  0.0110
  132OSM     OF14306   4.959   6.667   6.862  0.7157  0.3964 -0.6705
  132OSM    C2F14307   4.741   6.709   6.776 -0.1613 -0.0546 -0.2075
  132OSM    H2F14308   4.693   6.763   6.861 -1.1531  1.2636 -1.5400
  132OSM    H2G14309   4.663   6.646   6.727  0.1439 -0.7209  0.1558
  132OSM    C3F14310   4.789   6.819   6.683 -0.0543 -0.1773 -0.6642
  132OSM    H3F14311   4.870   6.866   6.743 -0.3217 -1.5872  0.8526
  132OSM    H3G14312   4.709   6.894   6.668  1.3431  1.3120 -1.0369
  132OSM    C4F14313   4.851   6.782   6.546  0.7495  0.2416 -0.0699
  132OSM    H4F14314   4.912   6.690   6.556 -1.1134 -1.1799 -0.9986
  132OSM    H4G14315   4.909   6.866   6.504 -1.4474  2.5684  1.2507
  132OSM    C5F14316   4.743   6.746   6.445 -0.5935 -0.6894  0.1309
  132OSM    H5F14317   4.685   6.834   6.410  1.2656  0.1423 -0.9993
  132OSM    H5G14318   4.677   6.667   6.486  0.9442 -1.5833  0.9665
  132OSM    C6F14319   4.803   6.681   6.316  0.6262 -0.4232 -0.4467
  132OSM    H6F14320   4.873   6.597   6.337  0.4877 -0.7614 -1.2856
  132OSM    H6G14321   4.860   6.760   6.263 -0.4698 -0.8044 -2.2969
  132OSM    C7F14322   4.695   6.627   6.217 -0.3430  0.0541 -0.0547
  132OSM    H7F14323   4.637   6.711   6.173  0.3462  1.0360  0.8639
  132OSM    H7G14324   4.629   6.562   6.279  0.5022 -1.0985 -0.3118
  132OSM    C8F14325   4.736   6.538   6.100 -0.4751  0.1652  0.2912
  132OSM    H8F14326   4.650   6.477   6.064 -0.7563  0.9704 -0.4345
  132OSM    H8G14327   4.808   6.458   6.129 -2.0275 -1.5113 -0.2944
  132OSM    C9F14328   4.807   6.621   5.994  0.1447  0.6208 -0.1864
  132OSM    H9F14329   4.875   6.698   6.033  0.1925  0.5734 -0.1742
  132OSM   C10F14330   4.788   6.623   5.862 -0.0854 -0.0116  0.1827
  132OSM   H10F14331   4.853   6.688   5.801 -1.1683 -2.1736 -3.6054
  132OSM   C11F14332   4.699   6.531   5.782  0.0536 -0.2708  0.2225
  132OSM   H11F14333   4.621   6.591   5.730  2.0659  0.7869 -1.7845
  132OSM   H11G14334   4.648   6.456   5.846 -0.1154 -1.3683 -1.1548
  132OSM   C12F14335   4.761   6.439   5.675 -0.1987 -0.3372  0.1616
  132OSM   H12F14336   4.830   6.370   5.728  1.6787  0.6144 -0.9348
  132OSM   H12G14337   4.823   6.508   5.615 -0.2446 -0.9734 -0.6331
  132OSM   C13F14338   4.674   6.357   5.585  0.5731 -0.2752  0.3161
  132OSM   H13F14339   4.587   6.418   5.551  1.1798  0.2444 -0.3168
  132OSM   H13G14340   4.636   6.262   5.629 -0.0014 -0.8805 -1.3726
  132OSM   C14F14341   4.743   6.322   5.454  0.6793  0.6926  0.3412
  132OSM   H14F14342   4.827   6.252   5.475 -0.3093 -0.1888  1.5650
  132OSM   H14G14343   4.781   6.412   5.402 -0.5342  0.6544 -0.6354
  132OSM   C15F14344   4.643   6.249   5.358 -0.0546  0.4859  0.2754
  132OSM   H15F14345   4.584   6.333   5.316 -1.0191 -0.1005  0.4477
  132OSM   H15G14346   4.581   6.173   5.410  0.0041  0.0328 -0.3125
  132OSM   C16F14347   4.719   6.186   5.241  0.2394  0.0915 -0.4639
  132OSM   H16F14348   4.651   6.115   5.188 -1.4464 -0.3506  2.1229
  132OSM   H16G14349   4.809   6.133   5.276  0.4242  0.4434 -0.3975
  132OSM   C17F14350   4.772   6.284   5.131  0.0855 -0.0425 -0.2782
  132OSM   H17F14351   4.839   6.356   5.183 -0.9508 -0.0382  1.0984
  132OSM   H17G14352   4.686   6.341   5.089  1.7713  1.6664 -1.6060
  132OSM   C18F14353   4.838   6.213   5.016  0.0101 -0.3129  0.1163
  132OSM   H18F14354   4.858   6.287   4.936 -0.1171  0.4691  0.7986
  132OSM   H18G14355   4.777   6.125   4.984 -1.0037  0.4224 -0.0262
  132OSM   H18H14356   4.934   6.164   5.045 -0.0035 -0.3457  0.1071
  133OSM      N14357   6.994   4.805   7.333  0.1818 -0.8907 -0.0288
  133OSM    C1514358   7.085   4.764   7.448 -0.1403  0.2854  0.4241
  133OSM   H15A14359   7.027   4.718   7.527  0.3725  0.8941  1.1830
  133OSM   H15B14360   7.138   4.849   7.488  2.8544 -2.0561  1.7583
  133OSM   H15C14361   7.161   4.702   7.406  1.2697  0.2342  2.8406
  133OSM    C1414362   6.923   4.683   7.276  0.1442  0.8524  0.0696
  133OSM   H14A14363   6.987   4.599   7.252  0.1981 -0.0886  3.0191
  133OSM   H14B14364   6.871   4.710   7.186 -1.0708  0.0396  0.5043
  133OSM   H14C14365   6.848   4.648   7.347  2.4381  0.0870  2.2764
  133OSM    C1314366   6.892   4.902   7.391  0.2094  0.1435  0.6759
  133OSM   H13A14367   6.823   4.944   7.320  0.4006  0.4415  0.6600
  133OSM   H13B14368   6.937   4.985   7.445 -0.2483  0.7111  0.1992
  133OSM   H13C14369   6.835   4.851   7.467  4.6367 -1.4719  3.3378
  133OSM    C1214370   7.081   4.869   7.223 -0.5198 -0.1117  0.0581
  133OSM   H12A14371   7.143   4.948   7.263  1.1628 -0.0457 -2.4109
  133OSM   H12B14372   7.027   4.918   7.144  1.4220 -0.1779 -1.3893
  133OSM    C1114373   7.174   4.772   7.143  0.5601 -0.3334 -0.3644
  133OSM   H11A14374   7.219   4.835   7.063  1.4039  2.8058  2.3592
  133OSM   H11B14375   7.122   4.696   7.081  0.0818  0.9116 -1.5512
  133OSM      P14376   7.396   4.815   7.271  0.1978 -0.0913 -0.1583
  133OSM    O1314377   7.323   4.924   7.345 -0.5496 -0.1488  0.2380
  133OSM    O1414378   7.500   4.742   7.340 -0.0999  0.1156 -0.2070
  133OSM    O1114379   7.462   4.869   7.139  0.0011  0.3174 -0.0646
  133OSM    O1214380   7.279   4.713   7.227  0.5034 -0.3085  0.4964
  133OSM    C1S14381   7.518   4.787   7.036 -0.3677  0.5481  0.1639
  133OSM    H1S14382   7.481   4.683   7.044 -1.8164  0.7527 -2.6333
  133OSM    H1T14383   7.629   4.781   7.041 -0.3261 -0.0069 -1.0996
  133OSM     NF14384   7.532   4.747   6.778 -0.0090 -0.1406 -0.2526
  133OSM    HNF14385   7.617   4.779   6.736  0.2488  1.5012  1.3849
  133OSM    C2S14386   7.489   4.835   6.885  0.2868  0.5144  0.0129
  133OSM    H2S14387   7.379   4.849   6.871  0.4315  1.7005 -0.0298
  133OSM    C3S14388   7.529   4.982   6.870 -0.6047  0.4826 -0.0628
  133OSM    H3S14389   7.637   4.983   6.896 -0.4280 -2.8319 -0.1711
  133OSM     O314390   7.483   5.071   6.972  0.0122 -0.1100  0.7921
  133OSM    HO314391   7.446   5.012   7.037 -0.3568  0.5645  1.2081
  133OSM    C4S14392   7.503   5.036   6.738  0.2258  0.1555  0.7303
  133OSM    H4S14393   7.405   5.012   6.694 -0.7723  2.0541  1.7757
  133OSM    C5S14394   7.591   5.115   6.665 -0.6093  0.5328 -0.0010
  133OSM    H5S14395   7.694   5.128   6.700 -0.3719 -0.8593 -0.1011
  133OSM    C6S14396   7.574   5.160   6.521 -0.4238 -0.2388  0.1819
  133OSM    H6S14397   7.599   5.267   6.508  0.1146 -0.3952 -0.0731
  133OSM    H6T14398   7.470   5.140   6.486 -0.4791  2.4786 -1.5428
  133OSM    C7S14399   7.685   5.089   6.434 -0.4592 -0.2373 -0.3617
  133OSM    H7S14400   7.678   4.978   6.438  0.5641 -0.4503 -2.7011
  133OSM    H7T14401   7.784   5.114   6.477 -0.8234  0.8518 -0.1206
  133OSM    C8S14402   7.678   5.139   6.287  0.2665  0.2817 -0.1536
  133OSM    H8S14403   7.661   5.248   6.280 -0.0992  0.2954  0.7650
  133OSM    H8T14404   7.593   5.080   6.245  0.3216  1.3586 -1.8840
  133OSM    C9S14405   7.805   5.105   6.213 -0.1895 -0.7359 -0.5354
  133OSM    H9S14406   7.839   5.014   6.268 -0.4071 -0.5314 -0.0643
  133OSM    H9T14407   7.879   5.185   6.237 -1.3962 -0.7638  4.2994
  133OSM   C10S14408   7.793   5.070   6.062 -0.4757 -0.0293  0.0554
  133OSM   H10S14409   7.705   5.006   6.041 -1.4743  1.4169 -0.3176
  133OSM   H10T14410   7.886   5.017   6.032 -1.4831 -3.1217  1.9575
  133OSM   C11S14411   7.789   5.200   5.978 -0.7745  0.2714  0.9969
  133OSM   H11S14412   7.878   5.261   6.005 -1.6510  1.9119  0.3490
  133OSM   H11T14413   7.700   5.265   5.992 -0.7023  0.8136 -0.7872
  133OSM   C12S14414   7.803   5.176   5.824 -0.0950  0.5003  0.1782
  133OSM   H12S14415   7.727   5.098   5.807  1.6798 -1.3497  0.3221
  133OSM   H12T14416   7.892   5.119   5.788 -0.9048 -1.9649  1.8630
  133OSM   C13S14417   7.769   5.284   5.725 -0.4136 -0.0914 -0.1837
  133OSM   H13S14418   7.842   5.367   5.726 -0.0693 -0.2813  3.6214
  133OSM   H13T14419   7.670   5.326   5.752  0.7326  2.7304  0.0204
  133OSM   C14S14420   7.758   5.221   5.588 -0.1055 -0.3265  0.2426
  133OSM   H14S14421   7.706   5.283   5.513  1.2383  0.9113  0.2904
  133OSM   H14T14422   7.687   5.137   5.608  1.5240 -1.7727  0.2706
  133OSM   C15S14423   7.877   5.165   5.509  0.0256 -0.0226 -0.3368
  133OSM   H15S14424   7.935   5.085   5.560 -1.4803 -0.9858 -0.0511
  133OSM   H15T14425   7.954   5.242   5.490  2.2020 -1.4138  2.1580
  133OSM   C16S14426   7.833   5.099   5.379  0.2858 -0.2806  0.1497
  133OSM   H16S14427   7.779   5.178   5.322  1.0446  0.2879  0.2075
  133OSM   H16T14428   7.762   5.022   5.416  0.3542 -0.0595  0.7439
  133OSM   C17S14429   7.939   5.045   5.280 -0.0809  0.0580 -0.1422
  133OSM   H17S14430   7.996   4.963   5.330 -0.2702  0.5735  0.9632
  133OSM   H17T14431   8.015   5.124   5.263  0.7579 -0.2069  1.9972
  133OSM   C18S14432   7.886   4.990   5.144 -0.1628  0.2031 -0.4950
  133OSM   H18S14433   7.849   5.067   5.073 -1.2713 -0.7803 -1.0002
  133OSM   H18T14434   7.801   4.921   5.160  0.6749 -0.7011  0.2213
  133OSM   H18U14435   7.969   4.945   5.085 -2.6924 -2.0410 -2.6004
  133OSM    C1F14436   7.475   4.627   6.774 -0.1424  0.1552  0.1735
  133OSM     OF14437   7.394   4.590   6.856 -0.5340 -0.4348  0.0324
  133OSM    C2F14438   7.512   4.533   6.665 -0.4177 -0.7544  0.5216
  133OSM    H2F14439   7.618   4.500   6.680 -0.2801 -1.1613 -1.0758
  133OSM    H2G14440   7.510   4.583   6.565 -0.9632  0.8094  1.2919
  133OSM    C3F14441   7.416   4.411   6.639 -0.2161 -0.1909 -1.1412
  133OSM    H3F14442   7.310   4.441   6.633 -0.7817 -0.8692  2.9572
  133OSM    H3G14443   7.418   4.343   6.726  0.0795 -2.7312 -3.0142
  133OSM    C4F14444   7.439   4.345   6.505  0.0008  0.2462 -0.1921
  133OSM    H4F14445   7.403   4.241   6.515 -0.1140  0.3720  0.7864
  133OSM    H4G14446   7.547   4.342   6.476  0.7308 -0.5536  2.3778
  133OSM    C5F14447   7.358   4.402   6.385  0.2000  0.0139  0.0968
  133OSM    H5F14448   7.322   4.506   6.401 -0.9704 -0.1851 -1.0843
  133OSM    H5G14449   7.272   4.332   6.387  2.1842 -2.6456  3.5426
  133OSM    C6F14450   7.433   4.390   6.252  0.0744  0.5321  0.1190
  133OSM    H6F14451   7.365   4.424   6.170 -1.4976 -0.6370  0.8888
  133OSM    H6G14452   7.458   4.284   6.227 -2.7473 -0.3484  0.6771
  133OSM    C7F14453   7.555   4.477   6.236  0.4329  0.1223  0.2435
  133OSM    H7F14454   7.626   4.443   6.314 -2.2276 -0.4471  2.5786
  133OSM    H7G14455   7.534   4.584   6.255 -1.1757 -0.2573  0.7364
  133OSM    C8F14456   7.609   4.452   6.087 -0.2981 -0.4104 -0.5883
  133OSM    H8F14457   7.603   4.344   6.063 -0.1303 -0.7552  0.7955
  133OSM    H8G14458   7.711   4.496   6.082 -1.3675  2.2780 -0.0459
  133OSM    C9F14459   7.525   4.509   5.973  0.4659  0.1271  0.1897
  133OSM    H9F14460   7.425   4.466   5.962  1.1392 -0.9150 -3.0055
  133OSM   C10F14461   7.563   4.598   5.879 -0.6231 -0.5373  0.0260
  133OSM   H10F14462   7.491   4.620   5.798  1.0146  3.5451 -0.5365
  133OSM   C11F14463   7.702   4.662   5.858 -0.6392  0.2321  0.4692
  133OSM   H11F14464   7.772   4.590   5.810 -1.7003  1.0542 -2.5017
  133OSM   H11G14465   7.741   4.686   5.960 -1.4533  1.4542  0.5055
  133OSM   C12F14466   7.703   4.794   5.784  0.5860 -0.1350  0.2326
  133OSM   H12F14467   7.786   4.861   5.816 -0.6738  0.2358  3.0359
  133OSM   H12G14468   7.604   4.841   5.804 -0.1449 -0.5207 -2.1787
  133OSM   C13F14469   7.716   4.785   5.632  0.9721 -0.4391  0.4467
  133OSM   H13F14470   7.812   4.732   5.611  0.8252 -0.8331  0.7578
  133OSM   H13G14471   7.723   4.886   5.585  0.5973 -0.9242 -0.6956
  133OSM   C14F14472   7.601   4.718   5.553  0.0117  0.2020 -0.1094
  133OSM   H14F14473   7.522   4.787   5.590 -0.4044 -0.2875 -0.0730
  133OSM   H14G14474   7.582   4.610   5.574 -0.4023  0.1722 -0.6224
  133OSM   C15F14475   7.604   4.736   5.402 -0.4193 -0.3607  0.1542
  133OSM   H15F14476   7.634   4.843   5.396  0.3090 -0.5419  0.4121
  133OSM   H15G14477   7.514   4.710   5.343 -1.3726 -0.5427  1.6189
  133OSM   C16F14478   7.713   4.654   5.343  0.2236 -0.3149 -0.3421
  133OSM   H16F14479   7.713   4.557   5.397 -2.6065 -0.7576 -0.9850
  133OSM   H16G14480   7.813   4.701   5.353  0.4288 -1.0119  1.2855
  133OSM   C17F14481   7.692   4.637   5.195  0.4104 -0.0526 -1.0554
  133OSM   H17F14482   7.661   4.729   5.141  2.4163  0.7325 -0.9475
  133OSM   H17G14483   7.620   4.558   5.163  0.3539  0.5095 -2.3836
  133OSM   C18F14484   7.827   4.587   5.150 -0.4874  0.4003  0.2208
  133OSM   H18F14485   7.906   4.664   5.157  0.4193 -0.5211  0.2831
  133OSM   H18G14486   7.820   4.555   5.044 -0.7829 -0.7415  0.5660
  133OSM   H18H14487   7.859   4.497   5.206 -1.1607  0.2868  0.4271
  134OSM      N14488   0.620   4.137   7.861 -0.4790 -0.2383 -0.2008
  134OSM    C1514489   0.497   4.208   7.874 -0.2180  0.1254  0.0139
  134OSM   H15A14490   0.490   4.270   7.963  1.3168 -2.1545  1.8562
  134OSM   H15B14491   0.421   4.134   7.891  0.1896  0.1283  2.2569
  134OSM   H15C14492   0.481   4.271   7.788  1.1206  0.2041 -0.1978
  134OSM    C1414493   0.727   4.245   7.834  0.0466  0.4343 -0.2997
  134OSM   H14A14494   0.829   4.224   7.863  0.2914  1.6235 -0.2496
  134OSM   H14B14495   0.706   4.347   7.865  0.2799  0.2618  0.4537
  134OSM   H14C14496   0.724   4.249   7.726 -1.1731 -2.5233 -0.4641
  134OSM    C1314497   0.657   4.061   7.979  0.4163 -0.1708  0.7971
  134OSM   H13A14498   0.588   3.980   7.998 -0.4749  0.5673  0.8087
  134OSM   H13B14499   0.661   4.119   8.070  0.1507 -0.6349  1.1049
  134OSM   H13C14500   0.756   4.024   7.959  1.1392  0.8006  2.3766
  134OSM    C1214501   0.602   4.054   7.731 -0.2537  0.9779 -0.0524
  134OSM   H12A14502   0.516   3.989   7.742  1.0902 -0.4923  3.2556
  134OSM   H12B14503   0.685   3.984   7.721 -1.1573 -0.4429  1.7493
  134OSM    C1114504   0.574   4.113   7.586 -0.5982 -0.2626 -0.1739
  134OSM   H11A14505   0.492   4.189   7.586  0.2758  0.8052 -2.8094
  134OSM   H11B14506   0.547   4.040   7.507 -1.0178  1.2385 -1.4832
  134OSM      P14507   0.807   4.098   7.479 -0.0463 -0.4468  0.5780
  134OSM    O1314508   0.924   4.186   7.448 -0.0202  0.8634 -0.1443
  134OSM    O1414509   0.827   3.982   7.574  0.3430 -0.4531  0.4516
  134OSM    O1114510   0.735   4.041   7.349 -0.3046 -0.8742 -0.4597
  134OSM    O1214511   0.691   4.191   7.537  0.2500 -0.1212 -0.5753
  134OSM    C1S14512   0.708   4.134   7.238  0.5660  0.5473  0.1069
  134OSM    H1S14513   0.800   4.177   7.193  0.4020  1.5699  0.7048
  134OSM    H1T14514   0.636   4.211   7.272 -0.3623  0.5675 -1.7909
  134OSM     NF14515   0.604   4.169   7.013 -0.2673 -0.5274  0.7846
  134OSM    HNF14516   0.515   4.210   6.994  0.0056  0.6498  1.9452
  134OSM    C2S14517   0.621   4.070   7.115 -0.5003 -0.4558  0.0432
  134OSM    H2S14518   0.666   3.980   7.069  0.1891 -0.4156  0.6263
  134OSM    C3S14519   0.490   4.022   7.180 -0.1734  0.5249 -0.6098
  134OSM    H3S14520   0.437   4.116   7.207  0.6345  1.0449 -0.8048
  134OSM     O314521   0.501   3.950   7.297 -0.0391  0.2610 -0.7824
  134OSM    HO314522   0.585   3.983   7.329 -1.4806  3.5014  0.0759
  134OSM    C4S14523   0.407   3.950   7.076 -0.1463 -0.9266  0.9175
  134OSM    H4S14524   0.373   4.023   7.001 -0.3143 -0.9880  0.9350
  134OSM    C5S14525   0.354   3.822   7.067 -0.1832 -0.5304 -0.1907
  134OSM    H5S14526   0.375   3.746   7.143  0.4929  0.0486  0.2197
  134OSM    C6S14527   0.265   3.781   6.953 -0.2148 -0.5461  0.3843
  134OSM    H6S14528   0.159   3.771   6.986 -0.6778 -1.1068 -1.1546
  134OSM    H6T14529   0.292   3.675   6.936 -1.6454 -1.1096  1.4150
  134OSM    C7S14530   0.261   3.858   6.819 -0.2780 -0.2986  0.2175
  134OSM    H7S14531   0.363   3.890   6.791 -0.9769  1.5896 -0.3107
  134OSM    H7T14532   0.207   3.953   6.838 -0.5036 -0.4322  0.2436
  134OSM    C8S14533   0.181   3.785   6.707 -0.4337  0.4032 -0.3157
  134OSM    H8S14534   0.080   3.768   6.750 -0.2501  1.9209  0.7883
  134OSM    H8T14535   0.233   3.689   6.686  0.4349  0.5445  1.0249
  134OSM    C9S14536   0.169   3.862   6.573  0.0865 -0.3069  0.1302
  134OSM    H9S14537   0.270   3.879   6.531 -0.2998  0.8883 -0.3679
  134OSM    H9T14538   0.111   3.954   6.595 -0.6569 -0.3920 -1.3632
  134OSM   C10S14539   0.089   3.779   6.473 -0.1816  0.0021  0.2641
  134OSM   H10S14540  -0.017   3.787   6.504 -0.5731 -0.6131 -0.8481
  134OSM   H10T14541   0.113   3.670   6.472 -1.7661 -0.3650  0.1065
  134OSM   C11S14542   0.089   3.823   6.319 -0.7366 -0.4156 -0.5147
  134OSM   H11S14543   0.155   3.913   6.311 -1.2897 -0.1056 -1.8545
  134OSM   H11T14544  -0.013   3.844   6.282 -0.2887  0.1876 -1.4544
  134OSM   C12S14545   0.170   3.734   6.215  0.3446  0.1822 -0.9318
  134OSM   H12S14546   0.166   3.789   6.118  1.7844  0.7273 -0.7097
  134OSM   H12T14547   0.112   3.640   6.210 -1.3821  1.1360  0.2813
  134OSM   C13S14548   0.322   3.706   6.259  1.0281 -1.1504 -1.3116
  134OSM   H13S14549   0.335   3.677   6.366 -1.4428 -0.4122 -0.7324
  134OSM   H13T14550   0.372   3.804   6.272  1.8517 -1.6581 -0.5507
  134OSM   C14S14551   0.387   3.615   6.160 -0.4099  0.1161  0.0246
  134OSM   H14S14552   0.323   3.525   6.145 -2.0247  1.4402 -1.6431
  134OSM   H14T14553   0.482   3.581   6.205 -0.7339  1.3014  1.6907
  134OSM   C15S14554   0.402   3.669   6.021 -0.2470 -0.5552 -0.5646
  134OSM   H15S14555   0.461   3.763   6.020 -1.0618  0.0075  1.3506
  134OSM   H15T14556   0.303   3.693   5.977 -0.2406  1.1534  0.2714
  134OSM   C16S14557   0.464   3.569   5.922  0.0153 -0.1462  0.4818
  134OSM   H16S14558   0.464   3.613   5.820 -2.4090  2.1145  1.3521
  134OSM   H16T14559   0.394   3.483   5.917  0.5636 -0.6215  0.8396
  134OSM   C17S14560   0.608   3.522   5.956 -0.0709  0.2255 -0.0711
  134OSM   H17S14561   0.626   3.523   6.066 -0.4584  2.4434  0.0156
  134OSM   H17T14562   0.675   3.605   5.924  0.2852 -0.3393 -0.8398
  134OSM   C18S14563   0.656   3.396   5.880  0.0433 -0.3929  0.2866
  134OSM   H18S14564   0.610   3.306   5.927 -1.7166  0.2940 -0.0321
  134OSM   H18T14565   0.766   3.388   5.872  0.0421  0.3052 -0.5645
  134OSM   H18U14566   0.621   3.410   5.776 -1.3825 -3.9230  0.1598
  134OSM    C1F14567   0.707   4.197   6.933  0.5471 -0.5367 -0.4629
  134OSM     OF14568   0.813   4.142   6.947  0.3320  0.1788 -0.0513
  134OSM    C2F14569   0.671   4.291   6.832 -0.7671  0.7299 -1.0294
  134OSM    H2F14570   0.728   4.385   6.841  0.4391  0.1792 -2.5769
  134OSM    H2G14571   0.563   4.318   6.839 -0.8104  0.6187 -1.2476
  134OSM    C3F14572   0.717   4.242   6.696 -0.8041  0.1390  0.1893
  134OSM    H3F14573   0.827   4.248   6.686 -0.7957 -0.8017 -0.3916
  134OSM    H3G14574   0.687   4.319   6.621  0.1293  0.3033 -0.0238
  134OSM    C4F14575   0.669   4.101   6.651 -0.1061 -0.6542 -1.0369
  134OSM    H4F14576   0.567   4.093   6.692  0.6347 -1.1043  0.8024
  134OSM    H4G14577   0.734   4.027   6.702 -0.8644 -1.6736 -1.5288
  134OSM    C5F14578   0.670   4.095   6.497  0.1239 -0.2483 -0.0205
  134OSM    H5F14579   0.772   4.127   6.467 -1.1621  2.4678 -1.8655
  134OSM    H5G14580   0.600   4.168   6.451 -1.2001 -2.1929 -1.1989
  134OSM    C6F14581   0.657   3.964   6.426 -0.2251  0.7200  0.6697
  134OSM    H6F14582   0.551   3.929   6.424  0.2142 -0.6872 -1.0089
  134OSM    H6G14583   0.712   3.883   6.478  0.7462  0.1170 -1.2120
  134OSM    C7F14584   0.710   3.973   6.282  0.3144  0.1006  0.1759
  134OSM    H7F14585   0.701   3.872   6.238 -0.8717  0.7274 -1.1088
  134OSM    H7G14586   0.819   3.987   6.299 -0.0223 -0.9540  4.3654
  134OSM    C8F14587   0.648   4.078   6.178 -0.1288 -0.2897  0.4090
  134OSM    H8F14588   0.719   4.085   6.092 -0.0199  3.0719  0.6295
  134OSM    H8G14589   0.660   4.179   6.221  3.0981 -1.1723  1.8897
  134OSM    C9F14590   0.505   4.049   6.148  0.3721 -0.2729  0.3054
  134OSM    H9F14591   0.447   4.029   6.240 -2.5625  0.5190 -1.2465
  134OSM   C10F14592   0.441   4.049   6.032 -0.0466 -0.1759  0.4313
  134OSM   H10F14593   0.335   4.019   6.033  0.6800 -3.0338  0.1150
  134OSM   C11F14594   0.505   4.052   5.895 -0.1199  0.0446 -0.6828
  134OSM   H11F14595   0.560   3.958   5.873 -0.7751 -0.8338  1.2386
  134OSM   H11G14596   0.570   4.141   5.880 -1.0404  1.0480  0.9854
  134OSM   C12F14597   0.404   4.071   5.785 -0.3095 -0.5708 -0.0193
  134OSM   H12F14598   0.467   4.078   5.693 -0.0703  0.2463  0.1989
  134OSM   H12G14599   0.334   4.157   5.790 -0.5875 -0.7553 -0.6431
  134OSM   C13F14600   0.320   3.947   5.760  0.2008  0.2719 -0.0070
  134OSM   H13F14601   0.380   3.857   5.786 -0.0764  0.3625  0.9923
  134OSM   H13G14602   0.305   3.936   5.651  1.2669  1.0505 -0.2497
  134OSM   C14F14603   0.181   3.937   5.828 -0.0639 -0.4436  0.3587
  134OSM   H14F14604   0.193   3.950   5.938 -0.3428  0.1764  0.3196
  134OSM   H14G14605   0.140   3.838   5.799 -2.7416  0.5104  0.6860
  134OSM   C15F14606   0.077   4.048   5.791  0.1751  0.4900 -0.0869
  134OSM   H15F14607   0.124   4.148   5.792 -0.7911  0.9552 -0.3592
  134OSM   H15G14608   0.009   4.027   5.877  2.7134 -3.3533  1.2702
  134OSM   C16F14609  -0.009   4.023   5.669  0.2525  0.1274 -0.2152
  134OSM   H16F14610  -0.050   3.920   5.684 -2.2068  1.0049 -0.5440
  134OSM   H16G14611   0.052   4.020   5.576  0.1027  0.3116 -0.3181
  134OSM   C17F14612  -0.134   4.109   5.660  0.1928  0.4953  0.6764
  134OSM   H17F14613  -0.119   4.218   5.653 -2.5528  0.9412  0.5984
  134OSM   H17G14614  -0.196   4.097   5.752 -2.0016  0.9126 -0.6744
  134OSM   C18F14615  -0.216   4.058   5.538 -0.5363 -0.0738  0.3023
  134OSM   H18F14616  -0.227   3.947   5.540  0.2527 -0.1555  0.0952
  134OSM   H18G14617  -0.166   4.091   5.445 -0.3887  0.7909  0.6787
  134OSM   H18H14618  -0.322   4.093   5.534 -1.2075 -1.9735 -4.0384
  135OSM      N14619   1.016   3.472   7.346  0.1320 -0.3910  0.3359
  135OSM    C1514620   0.963   3.433   7.214 -0.4181  0.0454  0.7801
  135OSM   H15A14621   0.991   3.333   7.183  2.3143  0.5024  1.5038
  135OSM   H15B14622   0.996   3.501   7.137 -0.8274 -2.1144 -1.4353
  135OSM   H15C14623   0.857   3.452   7.208 -0.3460  0.0336 -0.8717
  135OSM    C1414624   0.963   3.377   7.448 -0.0512  0.4315 -0.5094
  135OSM   H14A14625   0.857   3.359   7.449 -0.4037  2.2328  1.1530
  135OSM   H14B14626   0.999   3.409   7.545  1.9432 -0.4185 -0.9089
  135OSM   H14C14627   1.001   3.276   7.442  0.6687  0.6316  0.4262
  135OSM    C1314628   1.167   3.471   7.346  0.2842  0.1688  0.8935
  135OSM   H13A14629   1.210   3.373   7.329  2.2598  1.0883  0.4156
  135OSM   H13B14630   1.200   3.514   7.440 -1.3262 -0.5159  1.8254
  135OSM   H13C14631   1.215   3.530   7.270 -0.5572  0.6983  0.7615
  135OSM    C1214632   0.951   3.604   7.373 -0.3598 -0.5624 -0.5712
  135OSM   H12A14633   0.849   3.576   7.352  0.6660 -3.9221 -1.7602
  135OSM   H12B14634   0.978   3.672   7.294 -2.9809  0.4740 -0.6726
  135OSM    C1114635   0.993   3.684   7.503  0.8350  0.0370 -0.6412
  135OSM   H11A14636   0.947   3.631   7.590 -0.3676 -1.3768 -2.0864
  135OSM   H11B14637   0.957   3.789   7.501 -1.6749 -0.7775 -2.3769
  135OSM      P14638   1.230   3.794   7.463 -0.1847 -0.1969 -0.0889
  135OSM    O1314639   1.225   3.920   7.545 -0.2703  0.5326  0.2719
  135OSM    O1414640   1.365   3.730   7.449 -0.2922 -0.0004  0.6394
  135OSM    O1114641   1.173   3.820   7.317 -0.4585 -0.2704  0.8317
  135OSM    O1214642   1.130   3.694   7.527 -0.1334 -0.2831 -0.0273
  135OSM    C1S14643   1.118   3.944   7.272 -0.5125 -0.0075 -0.2904
  135OSM    H1S14644   1.186   4.030   7.294 -1.2249  0.5208 -0.1145
  135OSM    H1T14645   1.021   3.959   7.324  0.2113  0.2535  1.0483
  135OSM     NF14646   1.053   4.075   7.072  0.2879 -1.3306  0.2498
  135OSM    HNF14647   0.979   4.085   7.007 -0.9873 -0.3594  1.7923
  135OSM    C2S14648   1.098   3.941   7.119 -0.1771 -0.2914 -0.5086
  135OSM    H2S14649   1.198   3.939   7.071  0.0726  2.4196 -0.2673
  135OSM    C3S14650   1.017   3.814   7.077  0.0421 -0.2590 -0.7314
  135OSM    H3S14651   0.925   3.807   7.139 -0.3684 -1.7145 -1.4600
  135OSM     O314652   1.078   3.689   7.108 -0.0934 -0.1110 -0.4820
  135OSM    HO314653   1.150   3.726   7.158  0.4891 -0.8757 -0.7263
  135OSM    C4S14654   0.985   3.829   6.932  0.8517  0.0850 -0.3911
  135OSM    H4S14655   0.884   3.868   6.914  1.5520  2.9048  1.1917
  135OSM    C5S14656   1.059   3.787   6.831 -0.5079  0.1830  0.2235
  135OSM    H5S14657   1.141   3.716   6.852 -0.9265 -0.3533  0.0458
  135OSM    C6S14658   1.025   3.808   6.681 -0.0727 -0.1427  0.0004
  135OSM    H6S14659   0.915   3.804   6.664  0.0261 -0.8638 -0.5017
  135OSM    H6T14660   1.066   3.721   6.625 -1.3929 -2.1365  1.9259
  135OSM    C7S14661   1.094   3.944   6.648  0.5017  1.1004 -0.0775
  135OSM    H7S14662   1.203   3.937   6.662  0.2454  0.3280  1.7658
  135OSM    H7T14663   1.051   4.015   6.722 -1.3817 -0.6567  0.6018
  135OSM    C8S14664   1.060   4.013   6.510  0.2217  0.7545 -0.1582
  135OSM    H8S14665   1.142   4.086   6.495 -0.1136  1.9481  3.0106
  135OSM    H8T14666   0.967   4.074   6.516  0.7214  1.6966 -1.5043
  135OSM    C9S14667   1.060   3.906   6.401 -0.1987 -0.2026 -0.4409
  135OSM    H9S14668   0.967   3.846   6.416 -0.8763  1.0623  0.5878
  135OSM    H9T14669   1.147   3.839   6.418 -0.8180 -0.2651  3.3389
  135OSM   C10S14670   1.079   3.958   6.257  0.0366 -0.5028  0.3186
  135OSM   H10S14671   1.178   4.010   6.252  0.2110 -0.8873 -0.4374
  135OSM   H10T14672   1.009   4.042   6.235  1.1601 -0.1458 -2.4083
  135OSM   C11S14673   1.057   3.859   6.143 -0.6753  0.0476 -0.2840
  135OSM   H11S14674   0.951   3.834   6.163 -1.9999  4.2031 -1.0532
  135OSM   H11T14675   1.124   3.771   6.154 -2.0125 -0.8842  0.6638
  135OSM   C12S14676   1.059   3.912   5.990  0.1548  0.2978 -0.3085
  135OSM   H12S14677   1.159   3.952   5.965 -0.1722  0.7621 -0.8969
  135OSM   H12T14678   0.987   3.997   5.987  0.8853  0.9694  0.6503
  135OSM   C13S14679   1.027   3.791   5.897  0.6752 -1.0048 -0.5961
  135OSM   H13S14680   0.956   3.716   5.936 -0.4080  0.0651 -0.4765
  135OSM   H13T14681   1.120   3.732   5.878  1.8748  0.9196 -1.0639
  135OSM   C14S14682   0.963   3.834   5.767  0.1513  0.0388  0.9969
  135OSM   H14S14683   1.041   3.866   5.695  0.5155 -2.3457  0.2598
  135OSM   H14T14684   0.900   3.925   5.780  0.5656  0.5566 -0.4031
  135OSM   C15S14685   0.875   3.727   5.697  0.2594  0.4818 -0.0343
  135OSM   H15S14686   0.820   3.677   5.779  0.8357 -0.4220 -0.1794
  135OSM   H15T14687   0.938   3.661   5.634 -0.1278  0.9349 -0.9126
  135OSM   C16S14688   0.776   3.777   5.590 -0.1839  0.1705  0.1606
  135OSM   H16S14689   0.840   3.813   5.506 -0.0533 -1.4645 -0.4881
  135OSM   H16T14690   0.717   3.852   5.646  0.7184  1.4597 -0.5799
  135OSM   C17S14691   0.676   3.667   5.547  0.3401 -0.2418 -0.0135
  135OSM   H17S14692   0.654   3.608   5.639 -1.0569 -0.2536 -0.3358
  135OSM   H17T14693   0.722   3.600   5.472 -0.4815  1.2078 -1.8792
  135OSM   C18S14694   0.545   3.717   5.505  0.0126  0.1382  0.6537
  135OSM   H18S14695   0.540   3.754   5.400 -0.7737  0.3298  0.7494
  135OSM   H18T14696   0.512   3.803   5.567  2.4404  0.9724  0.8899
  135OSM   H18U14697   0.476   3.630   5.512 -0.0355  0.3159  3.3010
  135OSM    C1F14698   1.126   4.186   7.095 -0.5123  0.2901 -0.9568
  135OSM     OF14699   1.245   4.180   7.112 -0.3482  0.8038  0.3708
  135OSM    C2F14700   1.051   4.320   7.089  0.1679  0.3984 -0.1599
  135OSM    H2F14701   1.051   4.351   7.196  0.1744 -0.3202  0.0513
  135OSM    H2G14702   0.946   4.313   7.053 -0.0774  0.9839  0.4145
  135OSM    C3F14703   1.104   4.423   6.990  0.9677  0.6176 -0.8381
  135OSM    H3F14704   1.207   4.455   7.015  1.1012  0.8241 -1.6383
  135OSM    H3G14705   1.042   4.513   7.011  0.9013  0.5991 -0.9551
  135OSM    C4F14706   1.082   4.381   6.848 -0.3134 -0.1380  0.4536
  135OSM    H4F14707   1.152   4.298   6.828 -0.6653 -0.7420  1.6161
  135OSM    H4G14708   0.975   4.352   6.836 -0.5831  1.8503 -3.1813
  135OSM    C5F14709   1.105   4.502   6.761 -0.0742 -0.2674  0.2579
  135OSM    H5F14710   1.215   4.520   6.751  0.1335 -2.1172 -1.7149
  135OSM    H5G14711   1.064   4.591   6.813 -1.3959 -0.1726 -0.8923
  135OSM    C6F14712   1.044   4.499   6.623  0.1547  0.5132 -0.0340
  135OSM    H6F14713   1.026   4.599   6.579 -0.2484  0.9973  1.1969
  135OSM    H6G14714   0.945   4.452   6.639  1.1815 -1.2540  1.5281
  135OSM    C7F14715   1.107   4.402   6.525  0.4072  0.0890  0.5673
  135OSM    H7F14716   1.146   4.312   6.577  1.1170  0.0644  0.0146
  135OSM    H7G14717   1.196   4.446   6.473 -0.8470 -0.3891 -2.1592
  135OSM    C8F14718   1.019   4.363   6.403  0.5688  0.0947 -0.0447
  135OSM    H8F14719   0.922   4.324   6.438 -1.0880  2.6094 -1.4951
  135OSM    H8G14720   1.071   4.278   6.355  0.2094  0.3085 -0.8343
  135OSM    C9F14721   1.005   4.484   6.305  0.0578 -0.0858  0.6339
  135OSM    H9F14722   0.945   4.571   6.335 -2.0568 -1.6947  1.4110
  135OSM   C10F14723   1.064   4.502   6.186  0.7087  0.6859  0.0491
  135OSM   H10F14724   1.029   4.591   6.133 -0.2662  0.3389  0.0779
  135OSM   C11F14725   1.150   4.405   6.107 -0.7014 -0.6072 -0.1877
  135OSM   H11F14726   1.167   4.312   6.165 -0.0634  0.9293  2.2135
  135OSM   H11G14727   1.248   4.452   6.083 -0.6916 -0.6459 -0.2240
  135OSM   C12F14728   1.100   4.378   5.968 -0.0906 -0.9742  0.0783
  135OSM   H12F14729   1.170   4.314   5.909 -0.9724  0.1256 -2.3105
  135OSM   H12G14730   1.073   4.467   5.907  0.7747 -0.3781  0.5493
  135OSM   C13F14731   0.976   4.290   5.988 -0.5097  0.0042 -0.2602
  135OSM   H13F14732   0.888   4.341   6.033 -0.5517 -2.6206  2.9928
  135OSM   H13G14733   1.007   4.210   6.059  3.5037  1.8604  0.3615
  135OSM   C14F14734   0.938   4.217   5.857  0.5277  0.1179  0.5730
  135OSM   H14F14735   0.860   4.148   5.895 -0.0591  0.8525  0.7078
  135OSM   H14G14736   1.027   4.156   5.827  1.6998  1.7113  0.6756
  135OSM   C15F14737   0.885   4.307   5.742  0.1290 -0.7388  0.0361
  135OSM   H15F14738   0.948   4.397   5.722  0.0242 -0.4158  1.0839
  135OSM   H15G14739   0.786   4.345   5.774  0.1838  0.9035 -1.5879
  135OSM   C16F14740   0.874   4.227   5.612  0.6676 -0.5780  0.2311
  135OSM   H16F14741   0.805   4.140   5.619 -0.7118  0.3628 -1.0461
  135OSM   H16G14742   0.971   4.187   5.574  0.6333 -1.8459  1.3879
  135OSM   C17F14743   0.819   4.308   5.495 -0.4183 -0.6362  0.1759
  135OSM   H17F14744   0.872   4.405   5.484  0.6036 -1.4647 -3.4450
  135OSM   H17G14745   0.713   4.338   5.509 -0.2179  1.0983 -1.5694
  135OSM   C18F14746   0.830   4.241   5.357  0.1789 -0.2609  0.5282
  135OSM   H18F14747   0.770   4.280   5.273 -0.8743 -2.9234 -0.0597
  135OSM   H18G14748   0.805   4.133   5.370  1.6760 -0.6383  0.5023
  135OSM   H18H14749   0.937   4.242   5.325 -0.3072 -1.9107 -1.3686
  136OSM      N14750   3.831   3.923   7.482  0.8026 -0.2710 -0.7841
  136OSM    C1514751   3.974   3.921   7.452  0.0392  0.0956 -0.3730
  136OSM   H15A14752   4.025   3.973   7.532  1.4847 -1.4809 -0.2021
  136OSM   H15B14753   3.999   3.971   7.360 -3.2906  0.2313 -1.3209
  136OSM   H15C14754   4.009   3.822   7.428 -0.8138  0.3118 -2.7336
  136OSM    C1414755   3.752   3.839   7.386 -0.4374 -0.2573  0.0613
  136OSM   H14A14756   3.647   3.855   7.406 -0.1345  1.2955  0.5730
  136OSM   H14B14757   3.783   3.736   7.377 -0.6511 -0.1407 -3.6060
  136OSM   H14C14758   3.766   3.886   7.290  0.5576  2.4779  1.4352
  136OSM    C1314759   3.807   3.865   7.614 -0.1940 -0.5347 -0.2806
  136OSM   H13A14760   3.878   3.907   7.684  0.0001 -1.0001 -0.1915
  136OSM   H13B14761   3.822   3.759   7.631  1.6568 -0.6971 -2.4053
  136OSM   H13C14762   3.705   3.885   7.642  0.3406  0.1280  1.3216
  136OSM    C1214763   3.793   4.076   7.470 -0.8161 -0.2535 -0.4168
  136OSM   H12A14764   3.866   4.134   7.525 -0.5811 -0.0997 -0.8854
  136OSM   H12B14765   3.697   4.109   7.504 -1.2586 -0.1810 -1.6760
  136OSM    C1114766   3.809   4.129   7.328  0.2243 -0.4526  0.0580
  136OSM   H11A14767   3.788   4.238   7.327  0.8344 -0.3336  0.1189
  136OSM   H11B14768   3.722   4.086   7.273  1.0185 -0.7191 -1.0141
  136OSM      P14769   3.921   4.067   7.098  0.0281  0.1365  0.0552
  136OSM    O1314770   4.053   4.036   7.044 -1.1303 -0.5809 -0.1679
  136OSM    O1414771   3.819   3.964   7.073  0.2344  0.0502 -0.1287
  136OSM    O1114772   3.872   4.204   7.031  0.4418  0.7284 -0.4083
  136OSM    O1214773   3.932   4.101   7.256  0.3093  0.0214 -0.5542
  136OSM    C1S14774   3.903   4.247   6.900 -0.1210 -0.2687  0.0795
  136OSM    H1S14775   3.846   4.188   6.825 -0.1952  1.8259 -1.6054
  136OSM    H1T14776   4.011   4.235   6.876  0.0351  0.2959  0.4844
  136OSM     NF14777   3.864   4.419   6.729  0.6550  0.4472  0.0263
  136OSM    HNF14778   3.950   4.460   6.697  0.3471 -1.1784 -3.3877
  136OSM    C2S14779   3.852   4.393   6.875 -1.1238 -0.2112 -0.5658
  136OSM    H2S14780   3.742   4.402   6.889 -1.1044 -1.4660  0.5991
  136OSM    C3S14781   3.930   4.501   6.960  0.7333 -0.2363 -0.0518
  136OSM    H3S14782   4.037   4.491   6.933  1.4726  2.0076  1.7595
  136OSM     O314783   3.916   4.482   7.099  0.2997 -0.2903 -0.3775
  136OSM    HO314784   3.885   4.391   7.097  0.2601 -0.3687  1.7063
  136OSM    C4S14785   3.886   4.641   6.928 -1.1688 -0.0909 -0.3323
  136OSM    H4S14786   3.785   4.668   6.962  0.1306  1.8441  2.3359
  136OSM    C5S14787   3.956   4.738   6.862 -0.2472  0.0062 -0.2427
  136OSM    H5S14788   4.060   4.733   6.826  0.0855  2.8624  0.1399
  136OSM    C6S14789   3.911   4.881   6.834  0.7456 -0.6040  0.5983
  136OSM    H6S14790   3.988   4.955   6.802 -0.6017  0.8507  0.5592
  136OSM    H6T14791   3.879   4.927   6.930 -1.5389  1.8402 -1.1785
  136OSM    C7S14792   3.792   4.889   6.734  0.1844 -0.4634 -0.5869
  136OSM    H7S14793   3.788   4.998   6.713  1.0193 -0.0236  1.2992
  136OSM    H7T14794   3.703   4.867   6.799  0.8417  1.4676  1.0681
  136OSM    C8S14795   3.809   4.811   6.607  0.1762  0.1732 -0.2886
  136OSM    H8S14796   3.795   4.702   6.624  0.8251 -0.5158 -3.5576
  136OSM    H8T14797   3.916   4.814   6.579 -0.5531  0.6969 -3.3960
  136OSM    C9S14798   3.729   4.871   6.497 -0.0996  0.9636  0.4823
  136OSM    H9S14799   3.750   4.977   6.472  0.4959  1.3557  2.4952
  136OSM    H9T14800   3.626   4.868   6.538  0.7561  1.0985  2.7797
  136OSM   C10S14801   3.726   4.784   6.366 -0.5931  0.2457  0.1336
  136OSM   H10S14802   3.694   4.682   6.396  2.2626 -0.0225  2.7155
  136OSM   H10T14803   3.829   4.763   6.331 -0.2832  0.3767  0.9465
  136OSM   C11S14804   3.625   4.824   6.266 -0.6574 -0.6869  0.3493
  136OSM   H11S14805   3.622   4.933   6.246 -0.5208 -0.7485 -0.0172
  136OSM   H11T14806   3.521   4.805   6.301 -1.4538  0.0205 -1.4928
  136OSM   C12S14807   3.649   4.740   6.136 -0.2629 -0.3564 -0.1972
  136OSM   H12S14808   3.647   4.633   6.165  2.2858 -0.4170 -0.0018
  136OSM   H12T14809   3.756   4.760   6.114  0.1563  0.0420  1.9300
  136OSM   C13S14810   3.549   4.763   6.011 -0.0967  0.7386 -0.0229
  136OSM   H13S14811   3.592   4.701   5.930 -0.9606 -1.1709  0.9246
  136OSM   H13T14812   3.554   4.871   5.986  2.9838  0.8468  0.6542
  136OSM   C14S14813   3.401   4.723   6.039 -0.1334 -0.2928 -0.2504
  136OSM   H14S14814   3.337   4.742   5.949 -0.7150 -1.1702 -0.0312
  136OSM   H14T14815   3.371   4.800   6.113 -0.8933 -0.7914 -0.0286
  136OSM   C15S14816   3.364   4.584   6.084  0.3422 -0.5929 -0.2298
  136OSM   H15S14817   3.255   4.566   6.073  0.0090  0.7660  0.6104
  136OSM   H15T14818   3.394   4.571   6.190 -1.5685 -1.9694  0.2000
  136OSM   C16S14819   3.434   4.484   6.009 -0.0458  0.4073  0.3951
  136OSM   H16S14820   3.535   4.477   6.054 -1.0044 -0.4932  2.5640
  136OSM   H16T14821   3.432   4.514   5.902 -1.9985  0.9719  0.5507
  136OSM   C17S14822   3.363   4.338   6.024 -0.0409  0.0081 -0.0642
  136OSM   H17S14823   3.427   4.259   5.979 -0.1081  0.0786 -0.2855
  136OSM   H17T14824   3.266   4.329   5.971 -1.0664  2.4635  1.2363
  136OSM   C18S14825   3.357   4.295   6.170 -0.5224  0.0366  0.4538
  136OSM   H18S14826   3.315   4.192   6.180 -0.2005 -0.1272  0.1589
  136OSM   H18T14827   3.292   4.362   6.230  0.2815 -0.1690  1.5990
  136OSM   H18U14828   3.450   4.283   6.230 -0.9144 -0.9575  0.8917
  136OSM    C1F14829   3.788   4.359   6.639  0.2193 -0.6996 -0.7935
  136OSM     OF14830   3.683   4.301   6.662 -0.3975 -0.4578  0.0269
  136OSM    C2F14831   3.838   4.369   6.501 -0.1697  1.0769 -0.3779
  136OSM    H2F14832   3.944   4.336   6.497 -0.6152 -0.4700  0.1271
  136OSM    H2G14833   3.831   4.477   6.476  0.3625  0.9014 -1.3481
  136OSM    C3F14834   3.755   4.283   6.400  0.8148  0.1945 -0.2099
  136OSM    H3F14835   3.653   4.325   6.387  1.3655  1.7255  0.2496
  136OSM    H3G14836   3.737   4.177   6.429  0.1562  0.0968 -0.9510
  136OSM    C4F14837   3.833   4.263   6.268  0.2548 -0.8088 -0.1072
  136OSM    H4F14838   3.936   4.232   6.295  1.1704 -0.6035 -3.0217
  136OSM    H4G14839   3.835   4.365   6.223  0.8538 -0.4556  0.6975
  136OSM    C5F14840   3.765   4.168   6.165  0.0939  0.6330  0.3436
  136OSM    H5F14841   3.655   4.185   6.161 -0.5188 -2.6637  0.6396
  136OSM    H5G14842   3.776   4.064   6.203  2.2567  0.4332 -0.6792
  136OSM    C6F14843   3.829   4.171   6.032 -0.1694 -0.2223  0.6871
  136OSM    H6F14844   3.939   4.170   6.046  0.1812  1.3170 -1.4339
  136OSM    H6G14845   3.818   4.275   5.995  2.1128  1.2636  3.7751
  136OSM    C7F14846   3.781   4.055   5.933 -0.8625 -0.2689  0.0448
  136OSM    H7F14847   3.672   4.077   5.930 -0.6493  1.2958  1.6661
  136OSM    H7G14848   3.801   3.959   5.985 -3.2419 -0.3742  0.8993
  136OSM    C8F14849   3.843   4.079   5.797 -0.4283  0.2776  0.4034
  136OSM    H8F14850   3.815   4.182   5.766 -3.2220 -0.9837 -1.7160
  136OSM    H8G14851   3.801   4.010   5.720  2.4181 -0.8644 -0.2477
  136OSM    C9F14852   3.995   4.063   5.790 -0.5081 -0.1078  0.1693
  136OSM    H9F14853   4.038   4.010   5.877  2.1603  2.0473  0.2984
  136OSM   C10F14854   4.081   4.108   5.691 -0.2669  0.2486 -0.7508
  136OSM   H10F14855   4.187   4.079   5.700 -0.1674  0.8046  0.0224
  136OSM   C11F14856   4.052   4.185   5.568  0.7960 -0.0341 -0.2510
  136OSM   H11F14857   3.978   4.267   5.585 -1.2136 -1.3245 -2.2639
  136OSM   H11G14858   3.997   4.123   5.495  0.4469  0.4212 -0.3837
  136OSM   C12F14859   4.171   4.243   5.489  0.7649 -0.0338 -0.0615
  136OSM   H12F14860   4.249   4.298   5.547  2.2203 -3.4788  1.5040
  136OSM   H12G14861   4.138   4.316   5.411  0.0543 -0.2976 -0.0145
  136OSM   C13F14862   4.250   4.134   5.412 -0.2525 -0.0386 -0.4206
  136OSM   H13F14863   4.188   4.093   5.330 -0.3129 -2.0331  0.5776
  136OSM   H13G14864   4.271   4.046   5.476 -1.3438  1.1564  1.6686
  136OSM   C14F14865   4.370   4.188   5.337 -0.8400 -0.1486 -0.0516
  136OSM   H14F14866   4.445   4.198   5.418 -0.3123 -2.1942 -0.2211
  136OSM   H14G14867   4.346   4.284   5.285  0.6599  0.5199  0.4313
  136OSM   C15F14868   4.413   4.098   5.218 -0.0395 -0.0139 -0.5181
  136OSM   H15F14869   4.495   4.142   5.158  1.8585 -2.5954 -0.0085
  136OSM   H15G14870   4.326   4.089   5.150  0.5840 -0.9793 -1.2215
  136OSM   C16F14871   4.450   3.954   5.260 -0.1343  0.9837  0.4410
  136OSM   H16F14872   4.376   3.898   5.321 -0.8852  2.7791  1.2392
  136OSM   H16G14873   4.551   3.949   5.307  0.2760 -0.9306 -0.5081
  136OSM   C17F14874   4.457   3.852   5.143  0.0803 -0.4177  0.3613
  136OSM   H17F14875   4.358   3.854   5.092  0.4962 -0.7349 -0.4795
  136OSM   H17G14876   4.480   3.754   5.190  1.7126  0.1190  0.7327
  136OSM   C18F14877   4.562   3.890   5.040 -0.2510  0.0512 -0.0738
  136OSM   H18F14878   4.662   3.905   5.087  1.2085 -0.1275 -2.9322
  136OSM   H18G14879   4.546   3.984   4.984 -1.1742  2.1778  3.4436
  136OSM   H18H14880   4.571   3.810   4.964 -0.2107 -0.3497  0.3445
  137OSM      N14881   1.208   2.061   7.287  0.4375  0.4547  0.2562
  137OSM    C1514882   1.063   2.085   7.330  0.2007  0.5339 -0.3508
  137OSM   H15A14883   1.015   1.990   7.309  0.5749  0.1229  0.5694
  137OSM   H15B14884   1.020   2.171   7.280  0.7848  0.7528 -0.4770
  137OSM   H15C14885   1.059   2.108   7.436  0.8239  0.7059 -0.3593
  137OSM    C1414886   1.225   2.077   7.138 -0.2179  0.2865  0.1512
  137OSM   H14A14887   1.167   2.152   7.087 -1.9915 -0.3794  1.0813
  137OSM   H14B14888   1.190   1.988   7.088  0.2877  0.1357  0.0598
  137OSM   H14C14889   1.328   2.096   7.114 -0.0711 -0.6601 -0.0282
  137OSM    C1314890   1.300   2.161   7.351 -0.1929  0.2818 -0.4417
  137OSM   H13A14891   1.402   2.145   7.321 -0.0382 -2.4794  1.2187
  137OSM   H13B14892   1.306   2.151   7.458  0.2902  0.1392 -0.4840
  137OSM   H13C14893   1.280   2.264   7.324  0.1537  0.1962 -1.0461
  137OSM    C1214894   1.244   1.918   7.325  0.9864 -0.4168  0.7422
  137OSM   H12A14895   1.260   1.926   7.431 -1.9630  0.7292  1.1886
  137OSM   H12B14896   1.338   1.893   7.278  0.9342 -0.7820  0.8268
  137OSM    C1114897   1.157   1.793   7.277 -0.2558 -0.8580 -0.1740
  137OSM   H11A14898   1.207   1.700   7.311 -1.4903 -1.8321 -0.9307
  137OSM   H11B14899   1.175   1.792   7.167  2.7524 -0.0552  0.2190
  137OSM      P14900   0.916   1.692   7.261 -0.6664 -0.4530  0.1818
  137OSM    O1314901   0.981   1.634   7.140  0.2134 -0.5115  0.1062
  137OSM    O1414902   0.865   1.602   7.360 -0.2140  0.6262 -0.4838
  137OSM    O1114903   0.800   1.788   7.213 -0.6803 -0.1124  0.0488
  137OSM    O1214904   1.013   1.798   7.322 -0.5795 -0.8197  0.5708
  137OSM    C1S14905   0.845   1.892   7.120  0.7842 -0.0842 -0.3020
  137OSM    H1S14906   0.938   1.947   7.143  1.3493 -0.6962 -1.0998
  137OSM    H1T14907   0.762   1.966   7.129  0.7813 -0.0427 -0.6500
  137OSM     NF14908   0.865   1.957   6.883 -0.2124  0.4145  0.8481
  137OSM    HNF14909   0.788   2.014   6.857  0.2209  0.6599  0.0808
  137OSM    C2S14910   0.832   1.847   6.970  0.2182 -0.1900  0.5464
  137OSM    H2S14911   0.905   1.765   6.949 -2.1586 -2.0598 -0.8833
  137OSM    C3S14912   0.691   1.790   6.941 -0.3274 -1.0655  0.0430
  137OSM    H3S14913   0.620   1.874   6.935  2.2995  1.3072  0.0401
  137OSM     O314914   0.636   1.699   7.036  0.7621  0.2497  0.4601
  137OSM    HO314915   0.672   1.715   7.124 -1.7191  0.7856  1.4635
  137OSM    C4S14916   0.678   1.733   6.800 -0.2270 -0.1461 -0.6499
  137OSM    H4S14917   0.631   1.804   6.730 -2.3532  0.9664  1.7194
  137OSM    C5S14918   0.721   1.611   6.762 -0.0984 -0.4109 -0.8490
  137OSM    H5S14919   0.770   1.552   6.842 -0.5252  0.4646  0.0857
  137OSM    C6S14920   0.721   1.551   6.620 -0.3671  0.0206 -0.0603
  137OSM    H6S14921   0.629   1.492   6.602 -1.3756  2.0145 -1.7716
  137OSM    H6T14922   0.806   1.482   6.600  1.5403  2.2423 -0.0098
  137OSM    C7S14923   0.707   1.638   6.498  0.2109 -0.4940  0.5230
  137OSM    H7S14924   0.782   1.721   6.495 -2.1291  1.7382  0.7464
  137OSM    H7T14925   0.608   1.687   6.502  0.5131  0.2535 -0.7440
  137OSM    C8S14926   0.721   1.556   6.365  0.4552  0.8174  0.3295
  137OSM    H8S14927   0.642   1.479   6.353  0.5482  1.0328 -1.9799
  137OSM    H8T14928   0.820   1.505   6.365  0.9017  1.6576 -0.9378
  137OSM    C9S14929   0.698   1.640   6.236 -0.1535 -0.5959  0.8156
  137OSM    H9S14930   0.782   1.713   6.235 -0.3275 -0.3939  0.3267
  137OSM    H9T14931   0.602   1.696   6.247 -0.5705 -0.6262 -1.8966
  137OSM   C10S14932   0.703   1.548   6.113  0.4374 -0.0647  0.9505
  137OSM   H10S14933   0.623   1.471   6.117  0.7974 -0.6527 -1.7098
  137OSM   H10T14934   0.804   1.503   6.105  2.0551  2.3966  4.6760
  137OSM   C11S14935   0.657   1.607   5.977 -0.4788  0.9166 -0.4238
  137OSM   H11S14936   0.707   1.705   5.960 -2.1834  2.1687  1.3168
  137OSM   H11T14937   0.553   1.644   5.991  0.3242  2.5096  2.0089
  137OSM   C12S14938   0.676   1.505   5.863 -0.1924 -0.6337  0.3493
  137OSM   H12S14939   0.619   1.410   5.872  2.3013 -2.3034 -0.0472
  137OSM   H12T14940   0.780   1.465   5.857 -0.6686 -2.4888  2.8439
  137OSM   C13S14941   0.643   1.578   5.732 -0.0581  0.0585 -0.4911
  137OSM   H13S14942   0.698   1.674   5.730  1.5379 -0.8224 -1.9238
  137OSM   H13T14943   0.536   1.604   5.719  0.3203  1.1757 -1.5731
  137OSM   C14S14944   0.694   1.519   5.599 -0.2549  0.1028  0.7074
  137OSM   H14S14945   0.670   1.412   5.610 -1.3216  0.1404 -0.9127
  137OSM   H14T14946   0.804   1.530   5.583 -0.3697 -0.8614 -1.0105
  137OSM   C15S14947   0.629   1.595   5.489  0.6296  0.0161  0.6329
  137OSM   H15S14948   0.656   1.703   5.487 -0.0066  0.2079  1.3783
  137OSM   H15T14949   0.521   1.595   5.516  0.5307 -2.1349  0.3718
  137OSM   C16S14950   0.634   1.533   5.345  0.3766 -0.2470  0.9978
  137OSM   H16S14951   0.541   1.564   5.293  0.5143 -0.9646  0.2894
  137OSM   H16T14952   0.635   1.422   5.342 -0.0970 -0.2385 -0.0733
  137OSM   C17S14953   0.751   1.578   5.249  0.7979 -0.2514 -0.2366
  137OSM   H17S14954   0.849   1.574   5.301 -0.2658 -2.1526  1.8028
  137OSM   H17T14955   0.734   1.684   5.221 -0.4304 -0.1616  0.7697
  137OSM   C18S14956   0.751   1.490   5.119  0.2065 -0.0957  0.0714
  137OSM   H18S14957   0.657   1.506   5.063  0.0549 -2.5269 -0.5206
  137OSM   H18T14958   0.763   1.382   5.144 -0.3873 -0.3806 -0.8651
  137OSM   H18U14959   0.839   1.513   5.055 -0.0673 -1.2956 -0.7876
  137OSM    C1F14960   0.989   1.992   6.854  0.3630  0.5925  0.3547
  137OSM     OF14961   1.087   1.930   6.897  0.1248  0.0774 -0.5377
  137OSM    C2F14962   1.010   2.105   6.761  0.0320  0.2153  0.5316
  137OSM    H2F14963   1.081   2.180   6.802  1.2303 -0.0990 -0.8427
  137OSM    H2G14964   0.914   2.153   6.735  1.2858  0.7550 -4.0815
  137OSM    C3F14965   1.043   2.060   6.615 -0.0539  0.8398  0.5619
  137OSM    H3F14966   0.973   1.977   6.589 -0.4967  0.9598  1.3192
  137OSM    H3G14967   1.145   2.017   6.620 -1.0621 -1.5976  2.2524
  137OSM    C4F14968   1.052   2.167   6.502  0.2611  0.4192 -0.5776
  137OSM    H4F14969   1.134   2.239   6.522 -0.4660  1.2347 -0.4511
  137OSM    H4G14970   0.947   2.204   6.508 -0.2605 -1.1864  1.1574
  137OSM    C5F14971   1.092   2.098   6.370 -0.5552  0.1446  0.7850
  137OSM    H5F14972   1.017   2.022   6.338 -0.2289 -0.0011  0.3548
  137OSM    H5G14973   1.190   2.049   6.356 -0.4766  0.9288 -2.2230
  137OSM    C6F14974   1.102   2.210   6.263 -0.1431  0.9527 -0.0002
  137OSM    H6F14975   1.194   2.271   6.264  0.2786  0.4745 -2.6602
  137OSM    H6G14976   1.012   2.273   6.283 -0.3912  0.5108  0.3192
  137OSM    C7F14977   1.085   2.147   6.127 -0.5227 -0.3108  0.2122
  137OSM    H7F14978   0.986   2.098   6.131  0.6132 -2.7046  1.1594
  137OSM    H7G14979   1.158   2.064   6.119 -1.8085 -1.8561  2.9564
  137OSM    C8F14980   1.104   2.250   6.013 -0.4427 -0.3999  0.1135
  137OSM    H8F14981   1.208   2.289   6.010 -1.2272  1.9265  0.6832
  137OSM    H8G14982   1.051   2.345   6.038  2.5835  1.5129 -0.1642
  137OSM    C9F14983   1.064   2.193   5.873 -0.3449  1.1474 -0.2941
  137OSM    H9F14984   0.984   2.118   5.876 -0.2974  1.0920 -0.3915
  137OSM   C10F14985   1.116   2.213   5.753 -0.4522  0.2121 -0.4647
  137OSM   H10F14986   1.062   2.166   5.670  0.4705 -1.7354 -0.0218
  137OSM   C11F14987   1.212   2.326   5.719  0.1133  0.4038  0.0870
  137OSM   H11F14988   1.320   2.300   5.724  0.3024  1.2066  0.4779
  137OSM   H11G14989   1.204   2.410   5.791 -2.9120 -1.3068  1.9392
  137OSM   C12F14990   1.187   2.378   5.575 -0.1969 -0.4734 -1.0879
  137OSM   H12F14991   1.240   2.475   5.566 -0.2742 -0.4593 -1.3888
  137OSM   H12G14992   1.082   2.415   5.567 -0.2566 -0.1767  0.6341
  137OSM   C13F14993   1.206   2.283   5.464  0.6994 -0.2199 -0.0015
  137OSM   H13F14994   1.126   2.206   5.473 -1.2368  1.4988 -1.5033
  137OSM   H13G14995   1.304   2.232   5.472  1.3276  1.0965  1.3060
  137OSM   C14F14996   1.190   2.349   5.327 -0.3325  0.6774 -0.5274
  137OSM   H14F14997   1.269   2.428   5.327  1.6330 -1.0772  2.7316
  137OSM   H14G14998   1.094   2.403   5.311  0.1479  1.3654 -1.1779
  137OSM   C15F14999   1.213   2.248   5.221  0.0938  0.4391  0.2021
  137OSM   H15F15000   1.135   2.170   5.238 -0.4885  0.4437 -2.1996
  137OSM   H15G15001   1.309   2.194   5.231 -1.2121 -2.0888 -0.2515
  137OSM   C16F15002   1.185   2.301   5.079  0.0297 -0.3445 -0.5964
  137OSM   H16F15003   1.093   2.361   5.063  1.6401  1.8296 -2.5144
  137OSM   H16G15004   1.174   2.219   5.005 -2.9995  0.6835 -1.4209
  137OSM   C17F15005   1.301   2.393   5.035  0.5684  0.1305  0.2968
  137OSM   H17F15006   1.393   2.345   5.076  1.3198  1.7173  0.5369
  137OSM   H17G15007   1.298   2.494   5.080 -0.5098  0.1651  0.1565
  137OSM   C18F15008   1.315   2.399   4.883 -0.4397  0.0023 -0.3606
  137OSM   H18F15009   1.251   2.478   4.839  0.3869  0.5992 -0.5296
  137OSM   H18G15010   1.298   2.302   4.830 -0.2855  0.4337 -1.2257
  137OSM   H18H15011   1.421   2.427   4.864  0.1630 -0.8050  1.5642
  138OSM      N15012   3.051   3.961   7.331  0.1982  0.1136  0.5984
  138OSM    C1515013   3.136   3.999   7.442  0.6850 -0.9166  0.0914
  138OSM   H15A15014   3.089   4.084   7.489 -0.5016 -1.5928  0.1520
  138OSM   H15B15015   3.236   4.020   7.405  1.1811 -1.7139  0.9331
  138OSM   H15C15016   3.141   3.924   7.519 -0.1935 -0.2622  0.8056
  138OSM    C1415017   3.085   3.826   7.275  0.4297  0.5798  0.4162
  138OSM   H14A15018   3.013   3.796   7.201 -0.1375 -1.2530  1.6436
  138OSM   H14B15019   3.094   3.750   7.352  0.6915 -0.7690 -0.8895
  138OSM   H14C15020   3.182   3.831   7.228 -0.1554 -1.4360 -1.1740
  138OSM    C1315021   2.911   3.955   7.379  0.3025  0.3665  0.1505
  138OSM   H13A15022   2.876   4.051   7.414  0.0410  0.5466 -0.5716
  138OSM   H13B15023   2.899   3.865   7.437  0.9840 -1.1188 -1.8899
  138OSM   H13C15024   2.851   3.946   7.289  0.0060  0.5132  0.3315
  138OSM    C1215025   3.069   4.072   7.222  0.6941  0.0090 -0.7438
  138OSM   H12A15026   3.050   4.170   7.263  1.4589 -0.2865  0.3620
  138OSM   H12B15027   3.002   4.050   7.140  0.0517 -0.7800 -0.0223
  138OSM    C1115028   3.205   4.092   7.153  0.2915 -0.0608  0.7429
  138OSM   H11A15029   3.182   4.160   7.069 -0.8150 -1.7586 -0.4073
  138OSM   H11B15030   3.241   4.001   7.100 -2.6055  1.0579 -3.6654
  138OSM      P15031   3.332   4.279   7.262  0.3586  0.0304  0.2506
  138OSM    O1315032   3.211   4.361   7.222 -0.1528  0.2536  0.0204
  138OSM    O1415033   3.370   4.291   7.401  0.0461 -0.1482  0.0540
  138OSM    O1115034   3.454   4.310   7.164 -0.1435 -0.4263 -0.0089
  138OSM    O1215035   3.300   4.129   7.239 -0.7228  0.0144  0.1808
  138OSM    C1S15036   3.486   4.231   7.048 -0.2151 -0.0479  0.0482
  138OSM    H1S15037   3.471   4.122   7.067  0.2827 -0.3770 -1.3230
  138OSM    H1T15038   3.596   4.239   7.040 -0.2435  1.3803  0.7936
  138OSM     NF15039   3.496   4.184   6.812 -0.0526 -0.1262  0.2712
  138OSM    HNF15040   3.540   4.242   6.744 -1.2005  0.2774 -0.1532
  138OSM    C2S15041   3.420   4.258   6.908 -0.2138  0.5580  0.1393
  138OSM    H2S15042   3.318   4.216   6.920 -0.1711  1.1095  3.8262
  138OSM    C3S15043   3.406   4.408   6.872 -0.0222  0.1915 -0.3558
  138OSM    H3S15044   3.508   4.445   6.847  0.4101  1.0719  2.3673
  138OSM     O315045   3.363   4.495   6.978  0.1052  0.3319  0.5403
  138OSM    HO315046   3.388   4.448   7.058  0.4394 -2.1048 -0.8848
  138OSM    C4S15047   3.328   4.427   6.747  0.1740 -0.1530 -0.4039
  138OSM    H4S15048   3.229   4.379   6.757  1.5496 -2.6945  2.8836
  138OSM    C5S15049   3.377   4.487   6.636 -0.0921 -0.0477  0.3688
  138OSM    H5S15050   3.484   4.509   6.632  0.4240 -2.0703  1.5296
  138OSM    C6S15051   3.312   4.509   6.499 -0.7467 -0.3085  0.1821
  138OSM    H6S15052   3.255   4.425   6.452 -0.2966  0.2785 -1.5061
  138OSM    H6T15053   3.390   4.541   6.426  0.0059  2.5797  2.0941
  138OSM    C7S15054   3.204   4.622   6.518 -0.0644 -0.0031 -0.9877
  138OSM    H7S15055   3.246   4.707   6.575 -1.6100 -2.1415  3.9053
  138OSM    H7T15056   3.125   4.574   6.581  0.0907 -0.5534 -1.2020
  138OSM    C8S15057   3.131   4.667   6.395  0.5931  0.1769  0.9168
  138OSM    H8S15058   3.197   4.719   6.323  1.2482  0.9194  2.0439
  138OSM    H8T15059   3.061   4.748   6.427 -2.7007 -1.7580 -0.7842
  138OSM    C9S15060   3.049   4.562   6.316 -0.0739 -0.8840 -0.2488
  138OSM    H9S15061   2.984   4.519   6.395 -1.6803  2.8977  0.7325
  138OSM    H9T15062   3.116   4.488   6.268 -0.8136 -1.8548  0.1798
  138OSM   C10S15063   2.962   4.624   6.202 -0.1814  0.5701  0.0579
  138OSM   H10S15064   3.014   4.713   6.159 -1.7806  1.4002 -0.2439
  138OSM   H10T15065   2.867   4.662   6.246 -2.2432 -3.3931 -0.5397
  138OSM   C11S15066   2.922   4.522   6.088 -0.3736  0.0775  0.2824
  138OSM   H11S15067   2.838   4.454   6.115  1.2497 -1.6129  1.2946
  138OSM   H11T15068   3.006   4.455   6.062 -0.5183  0.4048 -1.0926
  138OSM   C12S15069   2.889   4.600   5.957 -0.6143  0.2568 -0.0629
  138OSM   H12S15070   2.983   4.650   5.926 -1.1298  0.4023 -1.4416
  138OSM   H12T15071   2.807   4.675   5.954  0.8491  1.9246  0.3993
  138OSM   C13S15072   2.849   4.488   5.856 -0.5016 -0.0697  0.7847
  138OSM   H13S15073   2.744   4.453   5.867 -0.7786 -0.3932 -2.1780
  138OSM   H13T15074   2.920   4.406   5.882  0.8134  1.3479  1.8209
  138OSM   C14S15075   2.844   4.537   5.713 -0.3153  0.2804  0.2654
  138OSM   H14S15076   2.948   4.567   5.687 -1.0408  1.4352 -1.5048
  138OSM   H14T15077   2.775   4.619   5.685 -0.2774  0.0022 -0.6766
  138OSM   C15S15078   2.811   4.410   5.617 -1.2087 -0.1529 -0.0359
  138OSM   H15S15079   2.701   4.404   5.605 -1.2676 -0.6705  0.7299
  138OSM   H15T15080   2.854   4.317   5.660  1.7601  2.2095  2.6319
  138OSM   C16S15081   2.869   4.436   5.478  0.9548 -0.2106 -0.2455
  138OSM   H16S15082   2.980   4.434   5.473  0.9870  0.9570 -0.1758
  138OSM   H16T15083   2.842   4.542   5.461 -0.4665 -0.4190  0.5036
  138OSM   C17S15084   2.815   4.350   5.370 -0.3488  0.1113  0.2399
  138OSM   H17S15085   2.704   4.356   5.359 -0.4353 -1.8400 -0.2546
  138OSM   H17T15086   2.851   4.247   5.388  0.3130  0.0926 -1.1006
  138OSM   C18S15087   2.862   4.387   5.226  0.0120 -0.7277 -0.8923
  138OSM   H18S15088   2.778   4.435   5.172 -0.5035 -2.2257 -1.4595
  138OSM   H18T15089   2.909   4.303   5.171  1.6396 -0.8712  0.6039
  138OSM   H18U15090   2.946   4.460   5.234 -1.5736  1.2571 -1.5326
  138OSM    C1F15091   3.506   4.051   6.802  0.6473  0.1175  0.0510
  138OSM     OF15092   3.449   3.974   6.887 -0.4339 -0.7037  0.0236
  138OSM    C2F15093   3.578   3.993   6.681 -0.3439 -0.1699 -0.3625
  138OSM    H2F15094   3.612   3.889   6.702 -2.3650 -1.1667 -1.7118
  138OSM    H2G15095   3.666   4.058   6.662 -0.7549  0.5667  0.1764
  138OSM    C3F15096   3.493   4.015   6.553 -0.2825 -0.0991 -0.1133
  138OSM    H3F15097   3.477   4.125   6.543 -1.2397 -0.3035 -0.9725
  138OSM    H3G15098   3.390   3.978   6.571 -1.0676  1.1930 -1.6406
  138OSM    C4F15099   3.552   3.948   6.425 -0.9024  0.0940  0.1345
  138OSM    H4F15100   3.580   3.848   6.466 -0.3713  0.5864  1.0135
  138OSM    H4G15101   3.644   3.995   6.385 -1.5471  1.5829  0.3581
  138OSM    C5F15102   3.455   3.933   6.301 -0.3915  0.5794 -0.0111
  138OSM    H5F15103   3.427   4.034   6.262  1.8859  1.1961 -0.1874
  138OSM    H5G15104   3.372   3.866   6.333  1.5890 -2.2923 -0.5648
  138OSM    C6F15105   3.535   3.856   6.197 -0.2525  0.3267 -0.6905
  138OSM    H6F15106   3.586   3.774   6.251 -1.0565 -0.2448 -0.7815
  138OSM    H6G15107   3.623   3.916   6.167 -0.0842  0.5150  0.1698
  138OSM    C7F15108   3.454   3.785   6.088 -0.6763 -0.5562  0.1313
  138OSM    H7F15109   3.399   3.866   6.036  0.0340 -0.4698 -0.5083
  138OSM    H7G15110   3.373   3.725   6.134 -2.0559  0.4482 -0.9056
  138OSM    C8F15111   3.537   3.710   5.982 -0.0657 -0.5433  0.4422
  138OSM    H8F15112   3.581   3.621   6.032  1.5546  0.1419  0.2974
  138OSM    H8G15113   3.619   3.774   5.942 -1.1654 -0.7092 -2.3157
  138OSM    C9F15114   3.450   3.652   5.869  0.5915  0.2395  0.1450
  138OSM    H9F15115   3.357   3.599   5.895 -0.8022  1.8206 -1.3311
  138OSM   C10F15116   3.460   3.680   5.739 -0.7258  0.4027 -0.0943
  138OSM   H10F15117   3.385   3.650   5.664 -0.3356 -1.8209  0.3496
  138OSM   C11F15118   3.569   3.763   5.665 -0.2188  0.4468 -0.2094
  138OSM   H11F15119   3.568   3.749   5.555 -0.5001 -1.5987  0.0217
  138OSM   H11G15120   3.664   3.734   5.714 -0.2354 -0.4246 -0.6757
  138OSM   C12F15121   3.553   3.915   5.678 -0.2519  0.6990  0.0853
  138OSM   H12F15122   3.639   3.956   5.621  0.7405 -0.1924  0.8959
  138OSM   H12G15123   3.546   3.951   5.783  1.8327 -0.1146  0.5640
  138OSM   C13F15124   3.424   3.959   5.604  0.0820  0.0474  0.0113
  138OSM   H13F15125   3.335   3.917   5.655 -0.8538  1.5410 -0.3408
  138OSM   H13G15126   3.427   3.931   5.497 -0.6018  1.2727 -0.3463
  138OSM   C14F15127   3.403   4.116   5.599  0.1924  0.0422 -0.6945
  138OSM   H14F15128   3.496   4.169   5.567  0.5970  0.0810  0.4865
  138OSM   H14G15129   3.386   4.145   5.704  2.0410 -0.3792 -0.2458
  138OSM   C15F15130   3.282   4.162   5.517 -0.0308 -0.1670 -0.2302
  138OSM   H15F15131   3.191   4.111   5.555 -0.1205 -0.4460 -0.8028
  138OSM   H15G15132   3.291   4.119   5.415 -0.2208 -0.4267 -0.1407
  138OSM   C16F15133   3.262   4.314   5.501  0.1717  0.1228  0.3647
  138OSM   H16F15134   3.166   4.325   5.446  0.3408  0.3030  0.1077
  138OSM   H16G15135   3.337   4.367   5.439 -1.6202  1.4057 -0.8157
  138OSM   C17F15136   3.264   4.395   5.634 -0.2560  0.4923 -0.1604
  138OSM   H17F15137   3.369   4.378   5.668 -0.2684 -2.8146 -1.4141
  138OSM   H17G15138   3.192   4.350   5.705 -1.1747  0.8203 -0.8734
  138OSM   C18F15139   3.238   4.543   5.612  0.1409  0.2127  0.3297
  138OSM   H18F15140   3.335   4.590   5.584 -0.1359  0.7533  0.2837
  138OSM   H18G15141   3.211   4.602   5.702  2.7715  0.5557  0.9996
  138OSM   H18H15142   3.170   4.562   5.527 -0.8451  0.0067  1.0532
  139OSM      N15143   5.955   6.378   6.943 -0.0652 -0.3749 -0.3934
  139OSM    C1515144   6.018   6.244   6.959 -0.1586 -0.7860  0.6902
  139OSM   H15A15145   6.061   6.211   6.866  1.2042 -1.3597  1.5051
  139OSM   H15B15146   5.938   6.174   6.980 -0.5582 -0.7142 -0.5463
  139OSM   H15C15147   6.090   6.240   7.039  1.3316 -0.6685 -0.6141
  139OSM    C1415148   5.873   6.408   7.056  0.2443  0.5629 -0.0642
  139OSM   H14A15149   5.825   6.505   7.052 -0.7153  0.1948  1.6331
  139OSM   H14B15150   5.922   6.393   7.151  1.1402  0.6166 -0.5042
  139OSM   H14C15151   5.789   6.340   7.055  0.4351  0.3189 -1.5888
  139OSM    C1315152   6.052   6.486   6.910 -0.1301 -0.4308  0.1294
  139OSM   H13A15153   6.120   6.507   6.992 -0.7014  1.3833  0.1818
  139OSM   H13B15154   5.993   6.574   6.890  0.1845  0.6336  3.2491
  139OSM   H13C15155   6.110   6.475   6.820  0.8342  3.7463  0.0109
  139OSM    C1215156   5.863   6.358   6.822 -0.4114  0.3854  0.0671
  139OSM   H12A15157   5.789   6.283   6.844  1.9116 -2.5199 -1.2201
  139OSM   H12B15158   5.918   6.317   6.738 -1.2016 -1.4944  0.4227
  139OSM    C1115159   5.793   6.483   6.766 -0.7182  0.6327  0.3563
  139OSM   H11A15160   5.732   6.434   6.687  0.2892  0.7057 -0.4874
  139OSM   H11B15161   5.874   6.544   6.722 -1.0623  1.2289  0.5446
  139OSM      P15162   5.745   6.710   6.871 -0.0295 -0.1203 -0.4007
  139OSM    O1315163   5.645   6.787   6.950 -0.3126  0.0865  0.0589
  139OSM    O1415164   5.886   6.735   6.913 -0.6901 -0.1304 -0.5246
  139OSM    O1115165   5.740   6.758   6.717 -0.2863  0.4423  0.0029
  139OSM    O1215166   5.707   6.557   6.857 -1.0583  0.3997 -0.2118
  139OSM    C1S15167   5.615   6.744   6.657  0.9096  0.3593  0.1069
  139OSM    H1S15168   5.542   6.825   6.680  0.5476  1.0160 -2.9174
  139OSM    H1T15169   5.561   6.655   6.696  0.9631 -0.4059 -1.4670
  139OSM     NF15170   5.486   6.640   6.459  0.5153 -0.6546  0.6415
  139OSM    HNF15171   5.475   6.541   6.449 -1.8517 -0.3526 -0.5098
  139OSM    C2S15172   5.611   6.708   6.493 -0.1551 -0.5863  0.0708
  139OSM    H2S15173   5.614   6.806   6.441  1.0517  0.5012  2.0678
  139OSM    C3S15174   5.743   6.639   6.446  0.2974  0.0231 -0.5359
  139OSM    H3S15175   5.757   6.535   6.483 -1.1627 -0.4091 -1.1599
  139OSM     O315176   5.857   6.712   6.495  0.5652  0.1281 -0.4016
  139OSM    HO315177   5.829   6.736   6.584  1.0116  1.3038 -0.5540
  139OSM    C4S15178   5.749   6.630   6.297  0.3694 -1.1648 -0.0355
  139OSM    H4S15179   5.802   6.712   6.248  0.3652 -1.1858 -0.0753
  139OSM    C5S15180   5.698   6.539   6.220 -0.3843 -0.0010 -0.7780
  139OSM    H5S15181   5.629   6.462   6.259  0.6060 -1.4986 -1.8814
  139OSM    C6S15182   5.705   6.542   6.073  0.3791  0.4379 -0.0165
  139OSM    H6S15183   5.608   6.577   6.034  0.5311  1.3994  0.4455
  139OSM    H6T15184   5.730   6.441   6.033 -0.2975  0.6886 -1.0820
  139OSM    C7S15185   5.812   6.639   6.012 -0.7037 -0.3413 -1.0637
  139OSM    H7S15186   5.910   6.595   6.041 -1.2573 -1.1098 -0.3053
  139OSM    H7T15187   5.795   6.737   6.062 -1.2614 -1.9051  2.0574
  139OSM    C8S15188   5.813   6.669   5.861 -0.2096 -0.6646 -0.0875
  139OSM    H8S15189   5.906   6.715   5.822 -0.3649 -0.5666 -0.3419
  139OSM    H8T15190   5.747   6.751   5.829  2.0681  0.9730 -0.8797
  139OSM    C9S15191   5.779   6.546   5.772 -0.1377 -0.8621  0.2295
  139OSM    H9S15192   5.696   6.487   5.815  0.4967 -1.0799  1.1730
  139OSM    H9T15193   5.872   6.486   5.771  1.5297  1.5180 -1.6901
  139OSM   C10S15194   5.741   6.570   5.623  0.1033 -0.6005 -0.6864
  139OSM   H10S15195   5.677   6.660   5.615 -0.8014 -0.8760  2.2394
  139OSM   H10T15196   5.692   6.483   5.575  0.4910 -0.3011 -1.6422
  139OSM   C11S15197   5.862   6.590   5.536  0.8249 -0.2874  0.1840
  139OSM   H11S15198   5.952   6.531   5.566  2.2715  1.2410 -0.9834
  139OSM   H11T15199   5.887   6.698   5.547 -2.4330  0.6281 -0.3743
  139OSM   C12S15200   5.832   6.574   5.389 -0.0452  0.8129  0.8747
  139OSM   H12S15201   5.812   6.467   5.367 -0.7080  1.2746 -0.9554
  139OSM   H12T15202   5.925   6.600   5.334 -0.7338  0.9649 -0.2626
  139OSM   C13S15203   5.722   6.650   5.327  0.5675  0.3494 -0.0090
  139OSM   H13S15204   5.738   6.759   5.341  0.0415  0.2374  1.7638
  139OSM   H13T15205   5.621   6.625   5.368 -0.0904  0.5042 -1.4591
  139OSM   C14S15206   5.718   6.620   5.179  0.6954  0.9237  0.0410
  139OSM   H14S15207   5.707   6.511   5.158 -1.2218  1.3553 -1.4940
  139OSM   H14T15208   5.813   6.660   5.138  1.8608 -2.3357 -0.8187
  139OSM   C15S15209   5.603   6.690   5.105 -0.0668  0.2897  0.0741
  139OSM   H15S15210   5.611   6.798   5.129 -0.2319 -0.2471  2.9642
  139OSM   H15T15211   5.505   6.659   5.147 -1.0477  2.6446 -0.3298
  139OSM   C16S15212   5.614   6.654   4.954 -0.4269 -0.4058  0.2845
  139OSM   H16S15213   5.597   6.544   4.956 -2.4465 -0.1370  0.1470
  139OSM   H16T15214   5.718   6.672   4.919 -1.7326  2.6023 -2.5563
  139OSM   C17S15215   5.524   6.731   4.865 -0.4170  0.3400  0.5837
  139OSM   H17S15216   5.557   6.836   4.847  0.0589  0.3522  1.5101
  139OSM   H17T15217   5.423   6.749   4.909  0.2361  1.7433  1.5839
  139OSM   C18S15218   5.522   6.669   4.723  0.0637  0.2443  0.2962
  139OSM   H18S15219   5.419   6.660   4.681 -0.1152  1.4403  0.4369
  139OSM   H18T15220   5.575   6.572   4.717  0.4228  0.4853 -0.5080
  139OSM   H18U15221   5.591   6.731   4.663  1.4098  3.0323  4.2921
  139OSM    C1F15222   5.379   6.716   6.477  0.8764  0.5651 -0.4327
  139OSM     OF15223   5.387   6.835   6.487 -0.1521  0.0854  0.2208
  139OSM    C2F15224   5.242   6.649   6.489  0.3358  0.0443 -0.6761
  139OSM    H2F15225   5.156   6.718   6.479  1.2423  1.1669 -0.9574
  139OSM    H2G15226   5.241   6.588   6.583 -0.8193  0.0326 -0.6799
  139OSM    C3F15227   5.218   6.539   6.379  0.0721 -1.1051  0.4319
  139OSM    H3F15228   5.132   6.474   6.405  0.6295 -2.0242  0.0223
  139OSM    H3G15229   5.312   6.481   6.369  0.8912 -0.5569  3.7434
  139OSM    C4F15230   5.196   6.619   6.248  0.6482  0.0127  0.7814
  139OSM    H4F15231   5.277   6.692   6.226  2.9484 -2.7588 -0.6207
  139OSM    H4G15232   5.105   6.683   6.252  1.0070  0.7476 -1.2229
  139OSM    C5F15233   5.171   6.522   6.125  0.5225  0.0396 -0.0124
  139OSM    H5F15234   5.141   6.580   6.034  0.6455  2.3733  1.3544
  139OSM    H5G15235   5.081   6.462   6.149 -1.1472  2.5444  0.3066
  139OSM    C6F15236   5.286   6.429   6.082  0.4483  1.1174 -0.1949
  139OSM    H6F15237   5.306   6.369   6.174  0.1055  1.3251  0.0155
  139OSM    H6G15238   5.371   6.500   6.069 -0.2512  1.8346 -0.9298
  139OSM    C7F15239   5.264   6.337   5.956  0.0461 -0.9841  0.7637
  139OSM    H7F15240   5.272   6.396   5.862 -0.0237 -2.1348  0.0147
  139OSM    H7G15241   5.162   6.295   5.964 -0.6598  0.9791  3.1499
  139OSM    C8F15242   5.369   6.227   5.949  0.0060 -0.5605 -0.0858
  139OSM    H8F15243   5.381   6.195   6.055 -1.9263 -0.5160  0.1723
  139OSM    H8G15244   5.470   6.268   5.928 -0.4408  2.2901  2.6106
  139OSM    C9F15245   5.347   6.105   5.865 -0.8854 -0.6862 -0.3949
  139OSM    H9F15246   5.336   6.010   5.919 -0.8181  0.4653  1.7301
  139OSM   C10F15247   5.360   6.107   5.729 -0.2373  0.3066 -0.3804
  139OSM   H10F15248   5.359   6.010   5.678 -1.1281  0.6850 -1.1026
  139OSM   C11F15249   5.377   6.220   5.632 -0.0233  0.0635 -0.5473
  139OSM   H11F15250   5.485   6.218   5.606  0.2792  1.3732  0.5025
  139OSM   H11G15251   5.371   6.316   5.688  0.2333 -1.3246  2.0088
  139OSM   C12F15252   5.275   6.227   5.515 -0.0778  0.2652 -0.5968
  139OSM   H12F15253   5.170   6.215   5.548  0.5453  1.5032  2.1872
  139OSM   H12G15254   5.294   6.138   5.451  0.8710  0.0615 -0.0584
  139OSM   C13F15255   5.287   6.357   5.434  0.0069 -0.1295  0.4237
  139OSM   H13F15256   5.392   6.390   5.422 -0.7838  2.4697  0.1387
  139OSM   H13G15257   5.233   6.439   5.486 -1.8075  0.5762 -2.3460
  139OSM   C14F15258   5.212   6.351   5.302  0.0066 -0.1272 -0.1738
  139OSM   H14F15259   5.109   6.311   5.320 -0.0475  0.8014  1.9019
  139OSM   H14G15260   5.269   6.285   5.234  0.4474 -0.8421  0.8632
  139OSM   C15F15261   5.200   6.491   5.246 -0.3422  0.4239 -0.8782
  139OSM   H15F15262   5.294   6.550   5.251  0.3145 -0.6904  1.1601
  139OSM   H15G15263   5.128   6.553   5.304  0.1190  0.0569  0.1122
  139OSM   C16F15264   5.134   6.485   5.110 -0.7149  0.5128  0.1965
  139OSM   H16F15265   5.085   6.582   5.086  0.4364  1.0978  0.1589
  139OSM   H16G15266   5.056   6.406   5.103 -0.8678  0.7164 -0.5305
  139OSM   C17F15267   5.226   6.470   4.993  0.6399 -0.5592 -0.0896
  139OSM   H17F15268   5.245   6.363   4.971 -0.1867 -1.0943  1.5522
  139OSM   H17G15269   5.326   6.500   5.032  0.0133  0.3201  0.9160
  139OSM   C18F15270   5.186   6.544   4.864  0.3585 -0.1444 -0.3025
  139OSM   H18F15271   5.096   6.498   4.817  0.7121 -0.9416 -0.2225
  139OSM   H18G15272   5.262   6.540   4.783 -0.7939  0.6858 -1.4699
  139OSM   H18H15273   5.157   6.651   4.867 -3.1843 -0.9644 -1.1376
  140OSM      N15274   1.588   3.129   7.867  0.0594 -0.2945 -0.5547
  140OSM    C1515275   1.711   3.046   7.859 -0.5322  0.2987  0.4316
  140OSM   H15A15276   1.749   3.043   7.758 -1.7899  0.5826 -0.0624
  140OSM   H15B15277   1.686   2.942   7.873 -1.0196  0.3173 -0.2444
  140OSM   H15C15278   1.791   3.077   7.924 -1.5821 -0.0869  1.9450
  140OSM    C1415279   1.554   3.138   8.018 -0.2237 -0.0578  0.5577
  140OSM   H14A15280   1.542   3.040   8.062  2.6125 -0.5904  0.2937
  140OSM   H14B15281   1.461   3.191   8.035  1.1530  1.8743  2.5663
  140OSM   H14C15282   1.631   3.184   8.079  1.2644 -2.4948  0.6506
  140OSM    C1315283   1.619   3.262   7.819 -0.6339 -0.4641 -0.6037
  140OSM   H13A15284   1.697   3.318   7.868 -1.3961  0.6401 -0.6139
  140OSM   H13B15285   1.533   3.327   7.824 -1.1982 -1.2845  1.5724
  140OSM   H13C15286   1.646   3.256   7.715 -0.7566 -0.5405 -0.6317
  140OSM    C1215287   1.487   3.049   7.787 -0.5048  0.4650 -0.3012
  140OSM   H12A15288   1.393   3.102   7.787  0.4133  2.1766  0.1477
  140OSM   H12B15289   1.465   2.955   7.836 -3.1609  1.3382  0.3739
  140OSM    C1115290   1.526   3.033   7.634 -0.4749 -0.1904  0.2292
  140OSM   H11A15291   1.467   2.949   7.592  0.1963 -0.2733 -0.5572
  140OSM   H11B15292   1.634   3.008   7.626  0.8283  4.3798  0.7080
  140OSM      P15293   1.358   3.226   7.531 -0.1933 -0.2066 -0.3388
  140OSM    O1315294   1.257   3.149   7.608 -0.1534  0.5863 -0.2647
  140OSM    O1415295   1.349   3.371   7.570 -0.3939 -0.1119 -0.4483
  140OSM    O1115296   1.329   3.217   7.375  0.0675 -0.3024  0.8459
  140OSM    O1215297   1.498   3.161   7.564 -0.0903 -0.2653  0.0539
  140OSM    C1S15298   1.262   3.099   7.324 -0.2438 -0.3578  0.6056
  140OSM    H1S15299   1.153   3.124   7.324  0.0213  1.4884 -3.2720
  140OSM    H1T15300   1.288   2.998   7.363 -0.1506 -1.4009 -1.9810
  140OSM     NF15301   1.218   2.996   7.102 -0.3816 -0.7794 -0.5595
  140OSM    HNF15302   1.252   2.916   7.054  0.5503  0.1248 -1.4334
  140OSM    C2S15303   1.310   3.087   7.169  1.0120 -0.0393 -0.2918
  140OSM    H2S15304   1.305   3.182   7.112 -0.9445  0.5861  0.8588
  140OSM    C3S15305   1.454   3.038   7.157  0.2478 -0.1119  0.5716
  140OSM    H3S15306   1.443   2.936   7.200 -0.2805 -0.0728  0.5351
  140OSM     O315307   1.534   3.101   7.255  0.3887 -0.3097  0.1599
  140OSM    HO315308   1.473   3.146   7.314  0.6777 -0.4264  0.5540
  140OSM    C4S15309   1.512   3.021   7.019  0.3642 -0.3975 -0.1138
  140OSM    H4S15310   1.480   2.930   6.966 -1.2194 -0.2630  0.5704
  140OSM    C5S15311   1.579   3.114   6.947 -0.4204  0.2589  0.6051
  140OSM    H5S15312   1.599   3.210   6.996  0.4584  0.0741  0.6130
  140OSM    C6S15313   1.635   3.103   6.807  0.2392 -0.4045  0.6657
  140OSM    H6S15314   1.738   3.060   6.806  0.2426 -0.3977  0.7004
  140OSM    H6T15315   1.666   3.204   6.773 -1.0196 -0.9106 -2.2489
  140OSM    C7S15316   1.552   3.041   6.689  0.1054 -0.4162 -0.0564
  140OSM    H7S15317   1.467   3.107   6.665 -0.0507 -1.5005 -2.8741
  140OSM    H7T15318   1.491   2.960   6.734 -0.3676 -1.1347 -1.9123
  140OSM    C8S15319   1.629   3.000   6.568  0.1159  0.2315  0.2044
  140OSM    H8S15320   1.698   2.917   6.598 -0.7476 -0.4561  0.3347
  140OSM    H8T15321   1.690   3.084   6.530  1.5071 -0.6066  0.5132
  140OSM    C9S15322   1.545   2.948   6.455  0.3148 -0.9101  0.2525
  140OSM    H9S15323   1.484   2.862   6.488 -0.4977 -0.6478 -0.5362
  140OSM    H9T15324   1.603   2.921   6.364  1.2891  1.2478  0.1628
  140OSM   C10S15325   1.456   3.060   6.399 -0.2222 -0.4273  0.0681
  140OSM   H10S15326   1.493   3.155   6.443  1.3618 -0.4751 -1.0497
  140OSM   H10T15327   1.356   3.046   6.444  1.2664  0.1876  3.9888
  140OSM   C11S15328   1.472   3.066   6.250  0.6836 -0.8352 -0.3213
  140OSM   H11S15329   1.418   2.974   6.221 -0.0158 -0.0452 -1.6117
  140OSM   H11T15330   1.577   3.055   6.215  1.1712 -0.5913  0.9687
  140OSM   C12S15331   1.415   3.195   6.197 -0.0117  0.3227  0.6344
  140OSM   H12S15332   1.470   3.281   6.239 -0.6762  0.5258  1.1020
  140OSM   H12T15333   1.308   3.202   6.226 -0.4148 -0.9075 -0.4584
  140OSM   C13S15334   1.402   3.198   6.041 -0.6689  1.0749 -0.6500
  140OSM   H13S15335   1.369   3.097   6.010  2.3011 -0.6175  1.2011
  140OSM   H13T15336   1.496   3.195   5.981 -0.1083  0.7082  0.2231
  140OSM   C14S15337   1.311   3.310   6.001  0.5902 -0.2493 -0.0192
  140OSM   H14S15338   1.336   3.414   6.029 -0.3939 -0.3421  1.3209
  140OSM   H14T15339   1.217   3.289   6.056  0.4326 -2.0102 -0.8852
  140OSM   C15S15340   1.252   3.292   5.862 -0.5123 -0.6991 -0.0907
  140OSM   H15S15341   1.228   3.186   5.840 -1.1351 -0.1998 -2.0092
  140OSM   H15T15342   1.333   3.317   5.790 -0.0460 -2.4158 -0.2058
  140OSM   C16S15343   1.125   3.375   5.829 -0.1185 -0.0019  0.1268
  140OSM   H16S15344   1.158   3.479   5.845 -0.4825  0.2670 -0.8213
  140OSM   H16T15345   1.050   3.350   5.908 -1.4777  0.1215 -1.0694
  140OSM   C17S15346   1.053   3.337   5.699  0.0272  0.0347  0.0293
  140OSM   H17S15347   0.951   3.379   5.709  0.2224  0.4976  0.0570
  140OSM   H17T15348   1.041   3.228   5.679  1.0668  0.3442 -2.6864
  140OSM   C18S15349   1.115   3.400   5.569 -0.0563  0.3976 -0.2549
  140OSM   H18S15350   1.217   3.358   5.559 -0.2383 -0.5995  1.5938
  140OSM   H18T15351   1.122   3.509   5.586  1.6074  0.0472  1.7567
  140OSM   H18U15352   1.058   3.382   5.475  0.8553 -0.3253 -0.6855
  140OSM    C1F15353   1.089   3.011   7.076  0.5974 -0.5719  0.5521
  140OSM     OF15354   1.030   3.116   7.099 -0.2234  0.0934 -0.2596
  140OSM    C2F15355   1.011   2.891   7.022 -0.4559 -0.1626 -0.4318
  140OSM    H2F15356   0.946   2.852   7.103 -2.5012  1.1073 -1.3747
  140OSM    H2G15357   1.084   2.810   7.002 -0.8105 -0.5363 -0.2311
  140OSM    C3F15358   0.938   2.922   6.887  0.1097 -0.1676 -0.0872
  140OSM    H3F15359   0.880   3.014   6.905  0.8105  0.0587  1.1383
  140OSM    H3G15360   0.873   2.836   6.862  0.0376 -0.3304  0.6421
  140OSM    C4F15361   1.031   2.947   6.769  0.1009  0.1732  0.2456
  140OSM    H4F15362   1.073   2.848   6.740 -2.5505 -0.4804 -1.7523
  140OSM    H4G15363   1.115   3.006   6.812  0.1341 -0.9271  1.7949
  140OSM    C5F15364   0.945   2.996   6.654  0.3486 -0.6775 -0.3324
  140OSM    H5F15365   0.867   3.065   6.693  1.5614  0.9293 -0.6470
  140OSM    H5G15366   0.891   2.906   6.617  0.5858 -1.5926  1.4345
  140OSM    C6F15367   1.021   3.067   6.548 -0.6016 -0.1085 -0.3814
  140OSM    H6F15368   1.094   2.996   6.502  0.1486 -0.2096  0.9042
  140OSM    H6G15369   1.089   3.143   6.592  0.5761 -2.4603  2.1997
  140OSM    C7F15370   0.932   3.133   6.435  0.5488 -0.9352 -0.3323
  140OSM    H7F15371   0.867   3.211   6.480  1.0278  0.0003 -1.2266
  140OSM    H7G15372   0.864   3.061   6.386 -0.7686  0.3958 -0.5335
  140OSM    C8F15373   1.020   3.197   6.318 -0.0096 -0.0550 -0.9229
  140OSM    H8F15374   1.073   3.110   6.272 -0.5460 -1.5410  1.1420
  140OSM    H8G15375   1.097   3.268   6.353 -3.1830  2.4247  1.6067
  140OSM    C9F15376   0.931   3.251   6.206  0.8000  0.7060 -0.1018
  140OSM    H9F15377   0.894   3.167   6.145 -4.0457  0.7432  2.3398
  140OSM   C10F15378   0.889   3.378   6.185 -0.7429 -0.0451  0.7193
  140OSM   H10F15379   0.823   3.397   6.099 -0.0401 -2.5202 -0.4687
  140OSM   C11F15380   0.932   3.496   6.271 -0.3121  0.7512  0.2304
  140OSM   H11F15381   0.987   3.569   6.209  1.2083  0.4063  1.1155
  140OSM   H11G15382   1.008   3.462   6.346 -2.5480 -1.5119  1.6373
  140OSM   C12F15383   0.812   3.557   6.345  0.2584  0.5126  0.0116
  140OSM   H12F15384   0.733   3.589   6.273  0.7970  0.2260 -0.7156
  140OSM   H12G15385   0.848   3.647   6.399 -1.2036  0.2825  1.4493
  140OSM   C13F15386   0.737   3.478   6.449  0.7865  0.2358  0.0721
  140OSM   H13F15387   0.807   3.417   6.510  1.0614  1.0447  0.5807
  140OSM   H13G15388   0.671   3.404   6.399  1.0327  0.2930 -0.3411
  140OSM   C14F15389   0.656   3.575   6.529  0.2895  0.1281  0.3157
  140OSM   H14F15390   0.568   3.605   6.469  1.8124  2.6467 -0.8560
  140OSM   H14G15391   0.709   3.672   6.542  1.0622 -0.0629 -1.0950
  140OSM   C15F15392   0.610   3.521   6.664 -0.1402  0.1220  0.7508
  140OSM   H15F15393   0.600   3.410   6.664 -2.0159  0.2528 -0.4234
  140OSM   H15G15394   0.504   3.553   6.674 -0.3049 -0.1359 -0.1730
  140OSM   C16F15395   0.687   3.568   6.789 -0.1134  0.0680  0.1710
  140OSM   H16F15396   0.625   3.532   6.874  0.0260  0.1427  0.3057
  140OSM   H16G15397   0.698   3.678   6.797  0.9299 -0.1151  1.8610
  140OSM   C17F15398   0.825   3.498   6.808  0.2393 -0.0861 -0.7847
  140OSM   H17F15399   0.887   3.542   6.889  0.0737  0.0591 -0.7371
  140OSM   H17G15400   0.893   3.504   6.720 -0.0463  0.7260 -0.9596
  140OSM   C18F15401   0.808   3.347   6.852  0.1408 -0.1063  0.8330
  140OSM   H18F15402   0.750   3.303   6.768  0.1788  0.6571  0.3976
  140OSM   H18G15403   0.768   3.336   6.955  2.0454  1.3391  1.7948
  140OSM   H18H15404   0.904   3.290   6.855 -1.7212 -3.7052 -1.1058
  141OSM      N15405   5.356   2.209   7.503  0.5902  0.3153 -0.1637
  141OSM    C1515406   5.371   2.158   7.644 -0.0594  0.5413 -0.0148
  141OSM   H15A15407   5.381   2.053   7.669  1.5953  1.1016  1.9648
  141OSM   H15B15408   5.286   2.186   7.704 -1.4004 -2.6896 -0.2144
  141OSM   H15C15409   5.458   2.199   7.693  1.2706  0.3561 -2.0764
  141OSM    C1415410   5.489   2.221   7.449 -0.2389 -0.2275 -0.0746
  141OSM   H14A15411   5.547   2.130   7.440  0.4796  0.1423  0.6621
  141OSM   H14B15412   5.548   2.286   7.512 -1.1984  1.6009 -1.0099
  141OSM   H14C15413   5.492   2.278   7.358  2.0896 -0.8978 -0.4924
  141OSM    C1315414   5.264   2.115   7.425 -0.1912 -0.3031 -0.2437
  141OSM   H13A15415   5.313   2.021   7.403  1.4312 -0.1778  2.3784
  141OSM   H13B15416   5.240   2.167   7.334 -1.5579 -0.5187 -0.0208
  141OSM   H13C15417   5.178   2.095   7.487 -0.3969  1.3369  0.0470
  141OSM    C1215418   5.283   2.342   7.519  0.1411 -0.1424 -0.3850
  141OSM   H12A15419   5.332   2.410   7.586 -2.0981  1.2621 -0.0582
  141OSM   H12B15420   5.186   2.324   7.565 -0.1790  0.4639 -0.8126
  141OSM    C1115421   5.258   2.431   7.394  0.3322  0.0106  0.0093
  141OSM   H11A15422   5.180   2.373   7.340 -1.7583  1.3414  1.4202
  141OSM   H11B15423   5.349   2.443   7.333 -0.1243  2.0561 -0.3349
  141OSM      P15424   5.059   2.578   7.446  0.2294  0.0528  0.2477
  141OSM    O1315425   4.995   2.491   7.553  0.0260 -0.1048 -0.4255
  141OSM    O1415426   5.030   2.723   7.473  0.1344  0.7542  0.4042
  141OSM    O1115427   5.006   2.532   7.304 -0.5946 -0.4607 -0.5092
  141OSM    O1215428   5.215   2.552   7.444 -0.5368 -0.3145  0.3598
  141OSM    C1S15429   5.060   2.563   7.178 -0.0740 -0.6973 -0.3663
  141OSM    H1S15430   5.171   2.570   7.182 -0.2217  2.3068  2.7896
  141OSM    H1T15431   5.020   2.659   7.139  0.3931  0.0468  0.9296
  141OSM     NF15432   5.121   2.446   6.970 -0.3829  0.2429  0.4047
  141OSM    HNF15433   5.089   2.499   6.891  0.9516 -0.2098 -0.4830
  141OSM    C2S15434   5.025   2.447   7.079  0.5456 -0.4623 -1.2967
  141OSM    H2S15435   5.047   2.351   7.130 -0.4296  0.0068  0.0678
  141OSM    C3S15436   4.877   2.452   7.036 -0.0119 -0.4328 -0.2488
  141OSM    H3S15437   4.876   2.554   6.992 -0.5572 -0.9017 -1.3436
  141OSM     O315438   4.781   2.439   7.152 -0.3007  0.3490 -0.4155
  141OSM    HO315439   4.833   2.415   7.229  0.5610 -2.7825 -1.8294
  141OSM    C4S15440   4.846   2.344   6.937  0.1646  0.0451 -0.1037
  141OSM    H4S15441   4.842   2.384   6.835 -2.9759  2.1465  0.6880
  141OSM    C5S15442   4.838   2.211   6.958 -0.0040 -0.5444 -0.7601
  141OSM    H5S15443   4.861   2.167   7.057 -0.3683  0.0856 -0.3928
  141OSM    C6S15444   4.808   2.107   6.859  0.3834 -0.3014 -0.1369
  141OSM    H6S15445   4.698   2.094   6.864  0.4108 -0.6138 -0.3102
  141OSM    H6T15446   4.849   2.006   6.882  2.3336 -0.1961 -2.7485
  141OSM    C7S15447   4.858   2.137   6.720 -0.4904 -0.1028  0.1811
  141OSM    H7S15448   4.968   2.141   6.735 -0.7373  0.1357  2.1634
  141OSM    H7T15449   4.805   2.232   6.696 -1.6046 -0.4590  1.1420
  141OSM    C8S15450   4.827   2.030   6.624 -0.0458  0.2216  0.0748
  141OSM    H8S15451   4.719   2.003   6.622 -0.2292  1.0136 -1.0044
  141OSM    H8T15452   4.893   1.944   6.649  0.3241  0.4227 -0.1979
  141OSM    C9S15453   4.872   2.082   6.486  0.0836  0.0843  0.2924
  141OSM    H9S15454   4.975   2.121   6.494 -0.4975  1.8468 -0.1953
  141OSM    H9T15455   4.807   2.168   6.457 -2.3004 -0.1430  4.2604
  141OSM   C10S15456   4.852   1.973   6.380 -0.0203  0.3700 -0.6796
  141OSM   H10S15457   4.758   1.919   6.401  0.2080  1.3264  3.8838
  141OSM   H10T15458   4.941   1.906   6.388  0.6708  1.1217 -1.7362
  141OSM   C11S15459   4.865   2.034   6.239  0.1039  0.5258  0.6504
  141OSM   H11S15460   4.968   2.074   6.233  1.1911 -2.2486 -1.1366
  141OSM   H11T15461   4.796   2.120   6.230  0.6072  0.8070 -0.8268
  141OSM   C12S15462   4.816   1.945   6.124 -0.5972 -0.4663 -0.1103
  141OSM   H12S15463   4.705   1.947   6.122 -0.5834  1.1145 -1.1166
  141OSM   H12T15464   4.845   1.839   6.144 -0.1891 -0.6357 -1.4695
  141OSM   C13S15465   4.877   1.990   5.986 -0.0660 -0.6772 -0.1765
  141OSM   H13S15466   4.987   1.988   5.997  0.2427 -3.4268 -2.5621
  141OSM   H13T15467   4.846   2.094   5.963 -1.4526 -0.8532  0.7235
  141OSM   C14S15468   4.850   1.897   5.874  1.5457 -0.8150 -0.0501
  141OSM   H14S15469   4.752   1.843   5.874  0.3300  1.2765  0.3247
  141OSM   H14T15470   4.936   1.826   5.876  1.5813 -0.7569  1.0682
  141OSM   C15S15471   4.865   1.977   5.746  0.3802 -0.3547  0.5234
  141OSM   H15S15472   4.955   2.043   5.747  0.8803 -0.9043 -1.9998
  141OSM   H15T15473   4.775   2.042   5.741  1.3591  1.0483  0.4809
  141OSM   C16S15474   4.865   1.887   5.630 -0.5792  0.2812 -0.3193
  141OSM   H16S15475   4.764   1.846   5.606 -0.6772 -0.1188  0.7566
  141OSM   H16T15476   4.938   1.805   5.643 -0.5640  0.4896  1.0431
  141OSM   C17S15477   4.907   1.948   5.491 -0.8945 -0.5911  0.3406
  141OSM   H17S15478   5.006   1.997   5.499 -0.9206 -0.5117  0.1653
  141OSM   H17T15479   4.824   2.021   5.485 -1.0901 -0.4972  2.9367
  141OSM   C18S15480   4.914   1.842   5.386  0.0167 -0.0171  0.2128
  141OSM   H18S15481   4.915   1.887   5.285  0.3292 -1.5535 -0.4975
  141OSM   H18T15482   4.826   1.774   5.385  1.7336 -2.3704 -0.4301
  141OSM   H18U15483   5.004   1.779   5.399  0.2259 -0.7195 -3.5438
  141OSM    C1F15484   5.249   2.411   6.973  0.1793  0.2616 -0.2550
  141OSM     OF15485   5.296   2.375   7.078 -0.1491 -0.1825 -0.5571
  141OSM    C2F15486   5.320   2.414   6.842  0.0288 -0.6560  0.2699
  141OSM    H2F15487   5.414   2.468   6.865 -0.2857 -0.9092  2.4200
  141OSM    H2G15488   5.262   2.468   6.764  0.1026 -1.1130 -0.0996
  141OSM    C3F15489   5.363   2.280   6.797 -0.0746  0.0616 -0.3802
  141OSM    H3F15490   5.440   2.246   6.870 -0.1364  2.8000  1.0741
  141OSM    H3G15491   5.412   2.279   6.697 -1.7277 -1.3654 -1.2306
  141OSM    C4F15492   5.242   2.188   6.765  0.9826 -0.3171  0.8109
  141OSM    H4F15493   5.157   2.250   6.728  1.3652 -0.5742 -0.5890
  141OSM    H4G15494   5.214   2.146   6.863  0.0312 -1.0003  0.2672
  141OSM    C5F15495   5.273   2.074   6.666 -0.1590  0.5838  0.6513
  141OSM    H5F15496   5.211   1.983   6.681 -0.8576  0.7529 -1.0950
  141OSM    H5G15497   5.377   2.052   6.698  0.8348  2.0285 -1.3744
  141OSM    C6F15498   5.284   2.116   6.517  0.9955 -0.7037 -0.6494
  141OSM    H6F15499   5.326   2.219   6.515 -0.4608 -0.0746 -0.2907
  141OSM    H6G15500   5.184   2.115   6.468  0.1460 -0.0473  0.9937
  141OSM    C7F15501   5.375   2.030   6.423 -0.5152 -0.1157 -0.2531
  141OSM    H7F15502   5.337   1.927   6.437 -0.4931  0.1495  2.2718
  141OSM    H7G15503   5.478   2.038   6.464 -0.6830 -0.6423  0.2872
  141OSM    C8F15504   5.383   2.080   6.282 -0.0223  0.0735 -0.1369
  141OSM    H8F15505   5.414   2.186   6.294  1.1378 -0.2530 -0.0860
  141OSM    H8G15506   5.286   2.090   6.229 -1.5455 -1.1132  2.2910
  141OSM    C9F15507   5.468   1.993   6.188  0.7748  0.0531 -0.3175
  141OSM    H9F15508   5.427   1.892   6.178  1.1478  0.0163 -1.6126
  141OSM   C10F15509   5.582   2.027   6.126  0.6982  0.7497 -0.2886
  141OSM   H10F15510   5.631   1.943   6.074 -1.4498 -1.1704  0.6274
  141OSM   C11F15511   5.638   2.164   6.132  0.2815 -0.6714  0.2514
  141OSM   H11F15512   5.575   2.236   6.188  0.0229  0.2135 -1.1473
  141OSM   H11G15513   5.647   2.216   6.035  0.0873 -2.1626 -0.6032
  141OSM   C12F15514   5.775   2.165   6.209  0.7355  0.0887  0.1924
  141OSM   H12F15515   5.853   2.109   6.154  0.7308  0.1890  0.0835
  141OSM   H12G15516   5.750   2.099   6.294 -2.3325 -0.1569 -0.7850
  141OSM   C13F15517   5.822   2.305   6.256  0.2986  0.3228  0.6499
  141OSM   H13F15518   5.916   2.290   6.313  0.7589  0.2757 -0.1111
  141OSM   H13G15519   5.737   2.357   6.306 -1.4135  1.3953 -3.0394
  141OSM   C14F15520   5.850   2.406   6.140 -0.5177  1.2056 -0.6049
  141OSM   H14F15521   5.893   2.497   6.188  0.1260  0.9193 -0.6271
  141OSM   H14G15522   5.751   2.431   6.097 -1.3114  0.3007  0.6189
  141OSM   C15F15523   5.924   2.348   6.028  0.0233 -0.6316 -0.1895
  141OSM   H15F15524   5.853   2.284   5.972 -0.6360 -0.2664  0.2178
  141OSM   H15G15525   6.001   2.280   6.071 -0.8164  0.0008  2.5062
  141OSM   C16F15526   5.995   2.446   5.934  0.2745  0.2311  0.0604
  141OSM   H16F15527   6.024   2.392   5.842 -2.4760 -2.3866  0.5565
  141OSM   H16G15528   6.087   2.481   5.987  1.7201 -2.3590 -0.5256
  141OSM   C17F15529   5.907   2.567   5.910  0.1024 -0.5880  0.0814
  141OSM   H17F15530   5.970   2.646   5.865  1.5934 -1.5679  0.3765
  141OSM   H17G15531   5.883   2.611   6.009 -0.1263 -1.0413  0.2320
  141OSM   C18F15532   5.786   2.542   5.825 -0.1912 -0.2422 -0.3222
  141OSM   H18F15533   5.819   2.525   5.721 -0.7366  2.7418 -1.0847
  141OSM   H18G15534   5.726   2.635   5.828  1.6393  0.9833  0.2570
  141OSM   H18H15535   5.722   2.460   5.865 -0.8090  0.4388  0.1239
  142OSM      N15536   5.345   2.876   7.315  0.0235 -0.1545  0.0675
  142OSM    C1515537   5.417   3.008   7.271  0.2246 -0.6024  0.2311
  142OSM   H15A15538   5.406   3.026   7.165 -0.0167  1.7637  0.5832
  142OSM   H15B15539   5.521   3.014   7.296  0.3957  3.7339 -0.5865
  142OSM   H15C15540   5.377   3.093   7.325  3.5494  0.6692  0.9379
  142OSM    C1415541   5.364   2.872   7.461 -0.8969 -0.4748  0.1751
  142OSM   H14A15542   5.312   2.789   7.505 -0.7602 -0.7262 -0.1338
  142OSM   H14B15543   5.323   2.956   7.515  0.1172 -0.1521  0.4670
  142OSM   H14C15544   5.469   2.863   7.482 -0.6168 -0.0169 -0.9388
  142OSM    C1315545   5.203   2.895   7.289  0.0013  0.0756 -0.0256
  142OSM   H13A15546   5.182   2.889   7.184 -0.2730 -3.2519  0.1113
  142OSM   H13B15547   5.162   2.992   7.315  0.7911  1.0252 -2.1090
  142OSM   H13C15548   5.140   2.820   7.335 -0.8676 -0.6029 -2.2304
  142OSM    C1215549   5.407   2.747   7.262 -0.5803 -0.1254  0.1384
  142OSM   H12A15550   5.351   2.659   7.291 -0.1908 -0.8205 -1.1249
  142OSM   H12B15551   5.505   2.739   7.305 -0.2685  0.2383 -0.4812
  142OSM    C1115552   5.412   2.741   7.108  1.0720  0.4407 -0.0567
  142OSM   H11A15553   5.318   2.777   7.062  1.2962 -1.5784 -2.3172
  142OSM   H11B15554   5.427   2.635   7.080 -0.6296 -0.6561  2.7739
  142OSM      P15555   5.667   2.800   7.048  0.2540 -0.0117  0.4237
  142OSM    O1315556   5.722   2.888   6.939  0.1377 -0.2086 -0.0238
  142OSM    O1415557   5.724   2.834   7.176  0.2822 -0.0840 -0.0765
  142OSM    O1115558   5.684   2.646   7.012 -0.6212 -0.3581 -0.4168
  142OSM    O1215559   5.509   2.822   7.043 -0.3519  0.0772  1.2452
  142OSM    C1S15560   5.661   2.601   6.879 -0.0695 -0.2028 -0.1468
  142OSM    H1S15561   5.558   2.632   6.851  0.1637 -0.2737 -1.0990
  142OSM    H1T15562   5.677   2.492   6.870  4.4034  0.2564 -0.0535
  142OSM     NF15563   5.705   2.606   6.643  0.0729  0.2370 -0.1910
  142OSM    HNF15564   5.735   2.518   6.610  2.3323  1.5903 -2.0273
  142OSM    C2S15565   5.762   2.643   6.768  0.1648  0.1599 -0.2114
  142OSM    H2S15566   5.769   2.753   6.759  0.8522  0.3773  2.1575
  142OSM    C3S15567   5.904   2.590   6.809 -0.3534 -0.0109  0.2770
  142OSM    H3S15568   5.895   2.480   6.805  2.6045 -0.2959 -1.2068
  142OSM     O315569   5.946   2.635   6.938  0.3551 -0.3300  0.3138
  142OSM    HO315570   5.870   2.676   6.980 -0.9922 -1.9106 -0.4791
  142OSM    C4S15571   6.009   2.623   6.706 -0.1269  0.6017 -0.3558
  142OSM    H4S15572   6.049   2.538   6.647 -0.2372 -0.1757  0.6551
  142OSM    C5S15573   6.056   2.747   6.690  0.6676 -0.4212  0.3645
  142OSM    H5S15574   6.023   2.836   6.745 -1.8215  0.6825 -2.6315
  142OSM    C6S15575   6.163   2.770   6.593 -0.6713 -0.2611  1.2667
  142OSM    H6S15576   6.183   2.677   6.535  1.2702 -0.2330  1.8261
  142OSM    H6T15577   6.255   2.800   6.646 -0.5630  0.2141  0.8170
  142OSM    C7S15578   6.131   2.891   6.498  0.2216 -0.7685 -0.7336
  142OSM    H7S15579   6.063   2.969   6.538 -0.5626 -1.8730  0.1461
  142OSM    H7T15580   6.081   2.843   6.411  1.0323 -2.2285 -0.4363
  142OSM    C8S15581   6.262   2.939   6.430 -0.2125 -0.4110  0.5215
  142OSM    H8S15582   6.328   2.975   6.512 -0.7112  1.0339  0.3232
  142OSM    H8T15583   6.260   3.040   6.384 -0.1129 -1.2570 -1.4053
  142OSM    C9S15584   6.325   2.827   6.339  0.6629 -0.1966  0.3130
  142OSM    H9S15585   6.300   2.725   6.375 -0.7031  0.0691  0.1651
  142OSM    H9T15586   6.436   2.824   6.348  0.5284 -1.1965  2.0164
  142OSM   C10S15587   6.303   2.853   6.194  0.5757  0.2302  0.4367
  142OSM   H10S15588   6.338   2.956   6.168  1.7388 -0.0817  0.7212
  142OSM   H10T15589   6.194   2.850   6.173  1.0148 -0.1301 -2.0188
  142OSM   C11S15590   6.362   2.740   6.107  0.0014 -0.7067  0.3956
  142OSM   H11S15591   6.333   2.637   6.136 -1.0261  0.1826  2.7315
  142OSM   H11T15592   6.473   2.744   6.111  0.0056  0.5618 -0.4206
  142OSM   C12S15593   6.327   2.762   5.959  0.2483 -0.5515 -0.1969
  142OSM   H12S15594   6.376   2.856   5.926 -0.8753  0.3956  0.7410
  142OSM   H12T15595   6.217   2.775   5.948  0.5934  2.1174 -1.3547
  142OSM   C13S15596   6.376   2.654   5.862 -0.2044  0.7812 -0.4450
  142OSM   H13S15597   6.324   2.559   5.886  1.8766 -0.3950 -0.3529
  142OSM   H13T15598   6.486   2.636   5.861 -0.4247 -0.6759 -2.1112
  142OSM   C14S15599   6.354   2.705   5.713  0.3636  0.1987 -0.5849
  142OSM   H14S15600   6.426   2.643   5.656  2.5671  0.3826  1.8245
  142OSM   H14T15601   6.383   2.812   5.714 -0.4170  0.4983  2.6757
  142OSM   C15S15602   6.211   2.679   5.674 -0.1694  0.8345  0.4521
  142OSM   H15S15603   6.146   2.736   5.744 -1.3061 -0.1348  0.2141
  142OSM   H15T15604   6.175   2.574   5.678 -0.8733  0.9558 -1.5177
  142OSM   C16S15605   6.180   2.734   5.527  0.2911  0.8833  0.0726
  142OSM   H16S15606   6.238   2.670   5.457 -0.7170  1.4272 -1.3174
  142OSM   H16T15607   6.221   2.837   5.524  1.8413  0.3834  2.1320
  142OSM   C17S15608   6.030   2.736   5.501  0.3200 -0.2434 -0.2326
  142OSM   H17S15609   5.972   2.791   5.578  0.6660  3.1468 -2.2110
  142OSM   H17T15610   5.993   2.633   5.483  1.5932 -0.3831 -2.3950
  142OSM   C18S15611   5.994   2.805   5.376 -0.2169  0.9334  0.2920
  142OSM   H18S15612   6.032   2.909   5.381  0.1261  0.8035  0.4237
  142OSM   H18T15613   5.883   2.805   5.362 -0.3004 -0.0115  0.8644
  142OSM   H18U15614   6.042   2.774   5.281  0.5727  1.1374  0.6197
  142OSM    C1F15615   5.594   2.657   6.581 -0.7865  0.1790  0.0030
  142OSM     OF15616   5.512   2.733   6.632 -0.0250  0.1782 -0.1297
  142OSM    C2F15617   5.567   2.600   6.445 -0.8404 -0.7871 -0.2801
  142OSM    H2F15618   5.463   2.559   6.450 -1.1326 -0.2644 -1.6799
  142OSM    H2G15619   5.637   2.516   6.429  0.7145  0.2464  0.7924
  142OSM    C3F15620   5.580   2.715   6.334  0.5697  0.6713 -0.4821
  142OSM    H3F15621   5.662   2.785   6.358  0.0002  0.7836  1.3317
  142OSM    H3G15622   5.481   2.765   6.337 -0.1625 -0.7323  0.0512
  142OSM    C4F15623   5.575   2.662   6.190  0.4411  0.1174  0.2146
  142OSM    H4F15624   5.657   2.587   6.192  1.2219  0.9037 -0.9847
  142OSM    H4G15625   5.596   2.751   6.127  1.4072 -0.0690  0.2553
  142OSM    C5F15626   5.446   2.593   6.151  0.0512 -0.4161 -0.3333
  142OSM    H5F15627   5.355   2.656   6.165  0.0638 -0.3367 -0.6010
  142OSM    H5G15628   5.434   2.504   6.216  0.6582 -0.3853 -0.1712
  142OSM    C6F15629   5.461   2.522   6.016  0.3646 -0.3894 -1.1650
  142OSM    H6F15630   5.545   2.450   6.027  0.7109  0.2658  0.9944
  142OSM    H6G15631   5.494   2.597   5.941 -0.9724  0.4121 -0.9930
  142OSM    C7F15632   5.327   2.466   5.958 -0.1875 -0.8151 -0.4931
  142OSM    H7F15633   5.255   2.550   5.965 -1.3097 -1.6455 -1.6421
  142OSM    H7G15634   5.289   2.386   6.025 -0.9618  0.7997  1.0880
  142OSM    C8F15635   5.336   2.430   5.811  0.1946 -0.4848 -0.4242
  142OSM    H8F15636   5.365   2.517   5.749 -0.2884  0.1331  0.2024
  142OSM    H8G15637   5.235   2.405   5.772 -1.1158  1.9330  1.1582
  142OSM    C9F15638   5.439   2.319   5.793 -0.3775  0.1777  0.1146
  142OSM    H9F15639   5.547   2.338   5.794 -0.1389 -1.0880  1.2135
  142OSM   C10F15640   5.403   2.192   5.800 -0.0619 -0.4411  0.2572
  142OSM   H10F15641   5.476   2.117   5.767  1.0546  1.8344 -2.8549
  142OSM   C11F15642   5.268   2.136   5.818  0.4148 -0.0396 -0.1831
  142OSM   H11F15643   5.193   2.185   5.753  0.3002  1.9778  1.3720
  142OSM   H11G15644   5.228   2.159   5.919  1.5808 -0.6335  0.4444
  142OSM   C12F15645   5.263   1.980   5.824  0.3742 -0.1303  0.2325
  142OSM   H12F15646   5.157   1.949   5.836  0.3757 -0.4925 -0.6611
  142OSM   H12G15647   5.325   1.958   5.913 -2.2995 -0.4248  2.1740
  142OSM   C13F15648   5.315   1.902   5.701  0.1826 -0.1915  0.2848
  142OSM   H13F15649   5.420   1.927   5.675  0.8755 -1.3840  1.8208
  142OSM   H13G15650   5.248   1.936   5.618  0.1847  0.2154  0.4448
  142OSM   C14F15651   5.297   1.757   5.722 -0.5025  0.2543  0.0179
  142OSM   H14F15652   5.189   1.746   5.749 -0.7780  2.2100 -0.1693
  142OSM   H14G15653   5.346   1.720   5.814  0.4789  0.1834 -0.5221
  142OSM   C15F15654   5.373   1.678   5.613  0.3898  0.4839 -0.0550
  142OSM   H15F15655   5.363   1.570   5.639  0.2714  0.7643  1.1261
  142OSM   H15G15656   5.478   1.713   5.623 -0.0554  1.7233  0.5334
  142OSM   C16F15657   5.314   1.703   5.473  0.1236 -0.1475  0.5389
  142OSM   H16F15658   5.298   1.809   5.445 -1.9556 -0.6381 -0.2883
  142OSM   H16G15659   5.213   1.657   5.464 -0.3743  1.2176 -1.7197
  142OSM   C17F15660   5.404   1.653   5.358 -0.2602 -0.1608  0.3869
  142OSM   H17F15661   5.495   1.717   5.354 -0.4646  0.0862 -0.5906
  142OSM   H17G15662   5.356   1.652   5.257  1.2936 -1.6709 -0.3895
  142OSM   C18F15663   5.445   1.511   5.390 -0.1820  0.1108 -0.3347
  142OSM   H18F15664   5.359   1.444   5.411 -0.4993  0.0125 -1.8685
  142OSM   H18G15665   5.525   1.510   5.468  0.6552  1.0943 -1.1614
  142OSM   H18H15666   5.486   1.463   5.299 -0.5951  0.4183 -0.6820
  143OSM      N15667   5.309   0.804   7.136  0.1054  0.0035 -0.7155
  143OSM    C1515668   5.250   0.711   7.232 -0.0914  1.0294  0.3463
  143OSM   H15A15669   5.320   0.634   7.263 -1.7533  0.2690  2.4255
  143OSM   H15B15670   5.156   0.672   7.195  0.0664 -0.3063  1.2560
  143OSM   H15C15671   5.233   0.759   7.327 -0.1172  1.3563  0.1778
  143OSM    C1415672   5.323   0.750   6.995 -0.5078 -0.3153 -0.3404
  143OSM   H14A15673   5.380   0.657   6.994  3.3600  1.7824  1.4365
  143OSM   H14B15674   5.383   0.816   6.933 -1.8188  0.4009 -0.8797
  143OSM   H14C15675   5.230   0.725   6.946 -0.5262  1.5648 -1.3369
  143OSM    C1315676   5.223   0.926   7.135 -0.1037 -0.3707 -0.1255
  143OSM   H13A15677   5.237   0.984   7.225 -1.0611 -0.7192  0.2540
  143OSM   H13B15678   5.118   0.903   7.140 -0.8271  2.7494  1.7985
  143OSM   H13C15679   5.242   0.981   7.044  0.5744 -1.0056 -0.3764
  143OSM    C1215680   5.446   0.849   7.186 -0.1702 -0.1474 -0.0013
  143OSM   H12A15681   5.502   0.760   7.209  0.9029 -0.3677 -2.9942
  143OSM   H12B15682   5.437   0.912   7.273  2.3822  2.1614 -1.2399
  143OSM    C1115683   5.535   0.915   7.080  0.8243 -0.3823 -0.2544
  143OSM   H11A15684   5.610   0.979   7.130 -0.7328  1.1805  0.1886
  143OSM   H11B15685   5.476   0.992   7.026  0.3214 -1.2738 -1.0118
  143OSM      P15686   5.727   0.744   7.027 -0.4168  0.3311 -0.4083
  143OSM    O1315687   5.832   0.839   7.078  0.2000  0.2647 -0.1568
  143OSM    O1415688   5.702   0.624   7.114 -0.3920  0.2299 -1.0143
  143OSM    O1115689   5.774   0.695   6.888  0.2957 -0.4280 -0.2913
  143OSM    O1215690   5.590   0.831   6.989  0.0198  0.2451 -0.0673
  143OSM    C1S15691   5.685   0.659   6.783 -0.2249  0.0556  0.4364
  143OSM    H1S15692   5.600   0.730   6.789  0.5283  0.9188  1.2533
  143OSM    H1T15693   5.658   0.551   6.789  0.4393 -0.1689 -0.3306
  143OSM     NF15694   5.658   0.669   6.527 -0.2602 -0.1481  0.2591
  143OSM    HNF15695   5.637   0.583   6.482 -2.7859  0.3338  0.3882
  143OSM    C2S15696   5.753   0.664   6.638  0.7479  0.3118 -0.0667
  143OSM    H2S15697   5.800   0.765   6.634 -0.0601  0.6745 -1.5645
  143OSM    C3S15698   5.872   0.567   6.626 -1.0041 -0.2533 -1.1349
  143OSM    H3S15699   5.831   0.463   6.624 -0.8667 -0.3005 -1.5403
  143OSM     O315700   5.961   0.569   6.741 -0.3775  0.4849  0.0194
  143OSM    HO315701   5.912   0.621   6.806 -1.2912  2.4214 -2.0734
  143OSM    C4S15702   5.945   0.594   6.495 -0.3989  0.1524  0.1901
  143OSM    H4S15703   5.916   0.540   6.404  0.8430 -1.0594  0.4858
  143OSM    C5S15704   6.042   0.683   6.489  0.1701  0.7060  0.0911
  143OSM    H5S15705   6.071   0.746   6.574  2.3016 -1.6416  1.2045
  143OSM    C6S15706   6.119   0.714   6.361 -0.0808 -0.2994  0.2719
  143OSM    H6S15707   6.223   0.677   6.373 -0.1799 -1.2191 -1.4062
  143OSM    H6T15708   6.124   0.825   6.358  0.7683 -0.3571 -0.7904
  143OSM    C7S15709   6.086   0.659   6.224  0.6145 -0.1356  0.0221
  143OSM    H7S15710   5.978   0.683   6.210  0.7401 -0.4181 -1.7707
  143OSM    H7T15711   6.087   0.549   6.238  2.2613 -0.2162 -0.5291
  143OSM    C8S15712   6.179   0.704   6.111  0.1327  0.2123 -0.3833
  143OSM    H8S15713   6.284   0.683   6.141 -0.1585  0.5803  0.9251
  143OSM    H8T15714   6.160   0.812   6.096  2.7309  0.6040 -1.4446
  143OSM    C9S15715   6.165   0.644   5.973 -0.0573 -0.2746 -0.7014
  143OSM    H9S15716   6.081   0.679   5.908 -0.0862  0.5524 -0.2304
  143OSM    H9T15717   6.145   0.536   5.992 -0.4392 -0.0669  0.0958
  143OSM   C10S15718   6.295   0.650   5.893 -0.6901  0.1581  0.0273
  143OSM   H10S15719   6.284   0.608   5.791 -1.7912  2.2639 -0.7862
  143OSM   H10T15720   6.376   0.601   5.951  0.1049  0.6522 -0.6462
  143OSM   C11S15721   6.347   0.798   5.869 -0.2625 -0.2879  0.0864
  143OSM   H11S15722   6.391   0.834   5.964  0.3876 -1.0859  0.0983
  143OSM   H11T15723   6.261   0.866   5.847  0.8404  0.6674 -1.5014
  143OSM   C12S15724   6.449   0.800   5.757 -0.2897  0.5340 -0.0033
  143OSM   H12S15725   6.480   0.906   5.752 -0.3898  0.5568 -0.1926
  143OSM   H12T15726   6.404   0.759   5.663  0.1632 -2.6723  1.0351
  143OSM   C13S15727   6.580   0.717   5.769  0.6938  0.2937 -0.5534
  143OSM   H13S15728   6.546   0.618   5.806 -1.2743  1.1194 -0.0294
  143OSM   H13T15729   6.619   0.759   5.865 -1.7392  1.0217  0.1765
  143OSM   C14S15730   6.665   0.718   5.638  0.1518 -0.3470  0.2463
  143OSM   H14S15731   6.668   0.818   5.590  0.4513 -0.5863 -0.2393
  143OSM   H14T15732   6.597   0.660   5.572  1.7234  0.1601 -1.9328
  143OSM   C15S15733   6.801   0.651   5.637 -0.4515  0.7778  0.7589
  143OSM   H15S15734   6.805   0.578   5.721 -0.5960  1.0380  0.9926
  143OSM   H15T15735   6.874   0.732   5.658 -0.8144  1.3369 -0.0939
  143OSM   C16S15736   6.828   0.593   5.503 -0.5829  0.4050 -0.6150
  143OSM   H16S15737   6.756   0.514   5.473 -0.5373  0.0135  0.2833
  143OSM   H16T15738   6.934   0.560   5.509 -0.8463 -0.1760  1.8680
  143OSM   C17S15739   6.824   0.689   5.387 -0.1033 -0.3273  0.1963
  143OSM   H17S15740   6.899   0.767   5.413  1.0653 -0.5149 -2.3148
  143OSM   H17T15741   6.724   0.736   5.375 -0.1152 -0.5327 -0.5747
  143OSM   C18S15742   6.867   0.636   5.254 -0.9563 -0.3025 -0.5600
  143OSM   H18S15743   6.904   0.713   5.183  1.3972 -1.1047 -0.2878
  143OSM   H18T15744   6.780   0.588   5.204 -0.4646  0.5449 -2.3088
  143OSM   H18U15745   6.957   0.572   5.264 -0.7752  0.1579  0.9408
  143OSM    C1F15746   5.580   0.774   6.498  0.2904  0.0383  0.1844
  143OSM     OF15747   5.584   0.878   6.557 -0.0956  0.0166 -0.6279
  143OSM    C2F15748   5.497   0.763   6.377 -0.2332 -0.1754  0.8967
  143OSM    H2F15749   5.391   0.790   6.397 -0.9955 -0.2273 -2.4114
  143OSM    H2G15750   5.503   0.664   6.326  0.7487  0.8945 -1.2114
  143OSM    C3F15751   5.541   0.880   6.278  0.6642  0.3494 -0.5180
  143OSM    H3F15752   5.646   0.857   6.252  0.5667  0.3073 -0.8677
  143OSM    H3G15753   5.534   0.982   6.322 -0.7237  0.6053 -1.2544
  143OSM    C4F15754   5.458   0.889   6.154  0.2276  1.3009 -0.6348
  143OSM    H4F15755   5.494   0.974   6.091  1.2998  2.1239  1.0132
  143OSM    H4G15756   5.351   0.898   6.181 -0.0169 -0.2678 -0.9965
  143OSM    C5F15757   5.481   0.764   6.060  0.3072 -0.2420 -0.0187
  143OSM    H5F15758   5.432   0.671   6.096 -0.5906  0.0027 -0.5549
  143OSM    H5G15759   5.590   0.750   6.047  0.5304  0.7340  0.6211
  143OSM    C6F15760   5.439   0.784   5.915 -0.0031 -0.3537 -0.4145
  143OSM    H6F15761   5.456   0.892   5.897 -3.0621  0.7989  2.4154
  143OSM    H6G15762   5.328   0.791   5.910  0.0738  2.4461 -0.0032
  143OSM    C7F15763   5.489   0.686   5.808 -0.0964  0.7312 -0.4071
  143OSM    H7F15764   5.461   0.702   5.701  0.2740  1.2810 -0.4296
  143OSM    H7G15765   5.444   0.590   5.841  0.1709  0.3217 -1.2063
  143OSM    C8F15766   5.647   0.673   5.798  0.0997  0.8320 -0.1696
  143OSM    H8F15767   5.664   0.589   5.726  0.7641  0.2730  0.6165
  143OSM    H8G15768   5.690   0.633   5.893  1.1692  0.3706 -0.8181
  143OSM    C9F15769   5.716   0.798   5.757  0.0569  0.0873 -0.3290
  143OSM    H9F15770   5.712   0.879   5.830 -1.2615  1.0567 -1.4189
  143OSM   C10F15771   5.752   0.821   5.632  0.1981  0.1642 -0.1661
  143OSM   H10F15772   5.809   0.912   5.610 -0.6303  0.6182 -0.4781
  143OSM   C11F15773   5.730   0.736   5.510  0.2978  0.3679  0.8601
  143OSM   H11F15774   5.702   0.801   5.425  1.0752 -1.7786 -1.1513
  143OSM   H11G15775   5.652   0.656   5.513 -1.5097  2.0785  1.4115
  143OSM   C12F15776   5.853   0.656   5.460  0.3976 -0.6304  0.1294
  143OSM   H12F15777   5.839   0.579   5.381 -0.5788 -0.2079 -0.1187
  143OSM   H12G15778   5.898   0.602   5.547  0.3752  1.0660  1.2390
  143OSM   C13F15779   5.960   0.740   5.395 -0.2789 -0.4821 -0.5037
  143OSM   H13F15780   5.942   0.847   5.421  0.7787 -0.2985 -0.4848
  143OSM   H13G15781   5.951   0.736   5.284  0.4889  1.6659 -0.6914
  143OSM   C14F15782   6.100   0.693   5.433 -0.3019 -0.4086  0.2725
  143OSM   H14F15783   6.108   0.585   5.408  0.8102 -0.1258 -0.6954
  143OSM   H14G15784   6.116   0.702   5.542 -0.3614 -2.1410  0.4599
  143OSM   C15F15785   6.207   0.767   5.355 -0.2141  0.0519 -0.4847
  143OSM   H15F15786   6.174   0.757   5.249 -2.3813  0.6863  0.0851
  143OSM   H15G15787   6.303   0.713   5.367  0.0126  0.3551 -0.9189
  143OSM   C16F15788   6.226   0.909   5.407  0.4398  0.3499 -0.3570
  143OSM   H16F15789   6.258   0.904   5.513 -2.1400  1.2864  0.5403
  143OSM   H16G15790   6.131   0.966   5.395 -0.3311 -0.5003  1.3243
  143OSM   C17F15791   6.340   0.991   5.337  0.4384 -0.5362 -0.5357
  143OSM   H17F15792   6.303   1.007   5.234 -1.6861  0.2653  0.2811
  143OSM   H17G15793   6.420   0.916   5.318  2.8155  1.5414  0.6992
  143OSM   C18F15794   6.374   1.126   5.396 -0.6201 -0.3324  0.5405
  143OSM   H18F15795   6.291   1.200   5.387  1.4844  2.1492  0.3814
  143OSM   H18G15796   6.460   1.169   5.340  0.2978 -1.8338  0.7548
  143OSM   H18H15797   6.397   1.130   5.504  1.3387 -1.7152  0.2375
  144OSM      N15798   4.005   5.797   7.199 -0.8833  1.1512  0.5781
  144OSM    C1515799   4.013   5.652   7.169  0.1725 -0.3844  0.1929
  144OSM   H15A15800   3.972   5.629   7.071  2.1032 -0.1114 -0.7327
  144OSM   H15B15801   3.967   5.596   7.249 -0.4765 -0.7428 -0.4156
  144OSM   H15C15802   4.113   5.612   7.165  0.9329  1.0831  2.6275
  144OSM    C1415803   3.871   5.829   7.254 -0.3735 -0.3352  0.4811
  144OSM   H14A15804   3.848   5.760   7.333 -2.6188 -0.7007 -0.4065
  144OSM   H14B15805   3.793   5.823   7.179  1.7484 -1.7645 -1.7597
  144OSM   H14C15806   3.870   5.924   7.306  0.3356 -1.8933  3.5420
  144OSM    C1315807   4.110   5.826   7.303  0.3114  0.2497  0.7519
  144OSM   H13A15808   4.114   5.934   7.302 -0.0488  0.2704 -0.6151
  144OSM   H13B15809   4.204   5.789   7.264 -0.0960  1.0868 -1.1619
  144OSM   H13C15810   4.106   5.782   7.401  2.4330 -1.1392  0.2880
  144OSM    C1215811   4.032   5.889   7.082  0.0260  0.4542  0.4428
  144OSM   H12A15812   4.075   5.979   7.122 -0.7955  0.0170  2.4062
  144OSM   H12B15813   3.933   5.910   7.043 -0.9256 -2.7591  0.8023
  144OSM    C1115814   4.131   5.842   6.974 -0.5024  0.1604 -0.3521
  144OSM   H11A15815   4.122   5.892   6.876  2.2963  0.9217 -0.3184
  144OSM   H11B15816   4.114   5.736   6.946  2.0173 -0.4786  0.2828
  144OSM      P15817   4.361   5.965   7.037  0.0780  0.3209  0.1121
  144OSM    O1315818   4.281   6.076   7.098  0.0881  0.3183 -0.4679
  144OSM    O1415819   4.481   5.922   7.112  0.5260 -0.5520  0.2172
  144OSM    O1115820   4.394   5.985   6.881 -0.2369 -0.7285  0.3249
  144OSM    O1215821   4.264   5.838   7.029  0.1339 -0.2441  0.0319
  144OSM    C1S15822   4.457   5.870   6.812  0.1509 -0.2431 -0.5580
  144OSM    H1S15823   4.387   5.784   6.817  0.7119 -0.8390 -2.1607
  144OSM    H1T15824   4.552   5.839   6.860 -1.1227 -0.4691  1.9734
  144OSM     NF15825   4.505   5.756   6.598 -0.0481 -0.2824  0.5792
  144OSM    HNF15826   4.603   5.739   6.588 -0.2176 -0.9420 -0.0692
  144OSM    C2S15827   4.471   5.879   6.663 -0.1223 -0.7244 -0.3414
  144OSM    H2S15828   4.372   5.910   6.621  0.1094  1.6386  0.7305
  144OSM    C3S15829   4.571   5.995   6.637 -0.1057  0.2110 -0.0029
  144OSM    H3S15830   4.661   5.961   6.692 -0.5761 -1.2167 -0.0992
  144OSM     O315831   4.528   6.124   6.679 -0.1630 -0.0056 -0.9630
  144OSM    HO315832   4.483   6.106   6.762 -0.1054  0.9719 -0.6990
  144OSM    C4S15833   4.596   5.991   6.488  0.1987  0.4519 -0.2794
  144OSM    H4S15834   4.688   5.933   6.470  1.8473  3.6288 -3.2221
  144OSM    C5S15835   4.539   6.067   6.392 -0.6189 -0.0029 -0.8318
  144OSM    H5S15836   4.472   6.151   6.417 -1.1832 -0.7298  0.1950
  144OSM    C6S15837   4.580   6.057   6.251 -0.2025 -0.2555  1.2367
  144OSM    H6S15838   4.670   5.993   6.236  1.4201  2.0050  0.7846
  144OSM    H6T15839   4.616   6.151   6.204 -0.6383 -0.3385  0.7272
  144OSM    C7S15840   4.465   6.001   6.162  0.5235 -0.0930 -0.5298
  144OSM    H7S15841   4.373   6.055   6.190  0.0455 -1.1532 -0.0080
  144OSM    H7T15842   4.433   5.897   6.186 -2.1646  1.2081  2.0762
  144OSM    C8S15843   4.496   5.999   6.013 -0.1582  0.3426 -0.2246
  144OSM    H8S15844   4.591   5.941   6.006  1.2182  2.3368  0.6715
  144OSM    H8T15845   4.536   6.098   5.980  2.1637 -0.8476 -1.2088
  144OSM    C9S15846   4.386   5.944   5.915  0.5095 -0.1957 -0.2113
  144OSM    H9S15847   4.295   6.000   5.943  0.0090 -0.2620 -1.6293
  144OSM    H9T15848   4.383   5.836   5.941 -0.8257  0.0621  0.7536
  144OSM   C10S15849   4.420   5.979   5.769  0.1318  0.1683 -0.3577
  144OSM   H10S15850   4.513   5.921   5.749  1.0173  0.9595  1.2220
  144OSM   H10T15851   4.445   6.087   5.756 -0.2817  0.4048  0.6987
  144OSM   C11S15852   4.321   5.946   5.662 -0.3937  0.2252  0.2609
  144OSM   H11S15853   4.238   6.019   5.655  0.0489  0.6838 -0.3758
  144OSM   H11T15854   4.273   5.849   5.685 -0.3097  0.4074  1.2391
  144OSM   C12S15855   4.385   5.931   5.527 -0.6659 -1.0364  0.7610
  144OSM   H12S15856   4.464   5.852   5.524  0.0257 -0.4109  1.6279
  144OSM   H12T15857   4.439   6.028   5.521 -0.7919 -0.7684  2.9377
  144OSM   C13S15858   4.292   5.909   5.404 -0.2621 -0.5649  0.7134
  144OSM   H13S15859   4.210   5.982   5.389  0.7870  0.3936 -0.5766
  144OSM   H13T15860   4.242   5.810   5.401  0.2073 -0.7919  0.3205
  144OSM   C14S15861   4.384   5.914   5.270 -0.5314  0.0243  0.2503
  144OSM   H14S15862   4.463   5.991   5.280 -0.5712 -0.0378  1.0638
  144OSM   H14T15863   4.303   5.940   5.198 -0.8574  0.2369  0.6919
  144OSM   C15S15864   4.451   5.783   5.229  0.2170 -0.5262 -0.6808
  144OSM   H15S15865   4.386   5.694   5.211  1.4858 -1.7382  0.4639
  144OSM   H15T15866   4.516   5.755   5.316 -0.1406 -1.5747 -0.7317
  144OSM   C16S15867   4.544   5.820   5.117  0.1070 -0.0982  0.0727
  144OSM   H16S15868   4.620   5.881   5.171 -0.1050  0.9078 -0.7433
  144OSM   H16T15869   4.501   5.882   5.036  0.6971 -0.4235 -0.5045
  144OSM   C17S15870   4.618   5.706   5.053 -0.2464  0.5986  0.1837
  144OSM   H17S15871   4.552   5.689   4.965  1.8395 -1.5396 -1.1091
  144OSM   H17T15872   4.612   5.611   5.110 -0.1319  0.0742 -0.6576
  144OSM   C18S15873   4.759   5.738   5.003 -0.0902 -0.0625 -0.8865
  144OSM   H18S15874   4.832   5.693   5.074  0.7207  0.6430 -1.2567
  144OSM   H18T15875   4.768   5.849   4.998  1.9820 -0.2267 -1.9078
  144OSM   H18U15876   4.762   5.700   4.899 -1.2205  0.8401 -1.2763
  144OSM    C1F15877   4.431   5.652   6.565  0.3360 -0.1050 -0.1300
  144OSM     OF15878   4.308   5.640   6.592  0.3634  0.3588 -0.5037
  144OSM    C2F15879   4.499   5.537   6.488 -0.6949  0.3873  0.6142
  144OSM    H2F15880   4.593   5.504   6.537  0.0655  2.3906  0.6267
  144OSM    H2G15881   4.536   5.576   6.391 -2.4373  2.5778  0.7532
  144OSM    C3F15882   4.397   5.427   6.458 -0.2582 -0.0182 -0.1676
  144OSM    H3F15883   4.301   5.464   6.415  0.2418  0.1911 -1.1229
  144OSM    H3G15884   4.371   5.388   6.559 -1.3847 -1.5845 -1.0242
  144OSM    C4F15885   4.437   5.313   6.368  0.9809 -0.0143 -0.0710
  144OSM    H4F15886   4.352   5.241   6.370  0.3990  0.3795  5.6286
  144OSM    H4G15887   4.518   5.252   6.413  2.0505  1.9251  0.7742
  144OSM    C5F15888   4.455   5.351   6.222  0.1165  0.0675 -0.0081
  144OSM    H5F15889   4.549   5.406   6.203 -0.7557  0.6882 -3.2087
  144OSM    H5G15890   4.375   5.418   6.184 -0.2566 -0.5601 -0.3464
  144OSM    C6F15891   4.448   5.230   6.130  0.1117 -0.2773  0.3219
  144OSM    H6F15892   4.344   5.190   6.125 -0.8793  2.0688  0.8167
  144OSM    H6G15893   4.509   5.148   6.174  0.7929 -0.4609 -0.9229
  144OSM    C7F15894   4.495   5.265   5.989 -0.0319  0.6853  0.1495
  144OSM    H7F15895   4.597   5.310   5.989  0.0601  0.7342 -3.0640
  144OSM    H7G15896   4.431   5.337   5.934 -0.1324  0.0137 -0.6408
  144OSM    C8F15897   4.490   5.140   5.904 -0.6948  0.3112 -0.3059
  144OSM    H8F15898   4.385   5.103   5.909 -0.5906  0.1868  1.2469
  144OSM    H8G15899   4.555   5.063   5.951 -1.0817  0.1206 -0.0829
  144OSM    C9F15900   4.538   5.164   5.768 -0.0061 -0.2626 -0.4083
  144OSM    H9F15901   4.607   5.248   5.753  1.7817 -1.9071 -2.0958
  144OSM   C10F15902   4.513   5.095   5.660 -0.1223  0.0796 -0.0356
  144OSM   H10F15903   4.555   5.132   5.566 -0.3618 -0.5735 -0.4080
  144OSM   C11F15904   4.430   4.975   5.639  0.2616 -0.1403  0.6917
  144OSM   H11F15905   4.395   4.921   5.730 -0.0789 -0.5252  0.3363
  144OSM   H11G15906   4.492   4.893   5.596  0.1180 -0.3203  0.8235
  144OSM   C12F15907   4.326   4.999   5.530  0.0289  0.0946 -0.0747
  144OSM   H12F15908   4.388   5.019   5.441  1.0122 -0.0147  0.5647
  144OSM   H12G15909   4.256   5.081   5.557  0.9816  0.7183  0.5362
  144OSM   C13F15910   4.248   4.864   5.501  0.1511 -0.1033 -0.1145
  144OSM   H13F15911   4.171   4.855   5.581  0.7465  0.6609  0.5544
  144OSM   H13G15912   4.321   4.780   5.493 -2.4301 -2.3316 -3.9150
  144OSM   C14F15913   4.168   4.885   5.365  0.0963 -0.1625  0.0514
  144OSM   H14F15914   4.247   4.896   5.287 -0.9187  0.9539 -0.8663
  144OSM   H14G15915   4.110   4.980   5.370 -1.8205 -1.1947 -1.2028
  144OSM   C15F15916   4.068   4.779   5.331 -0.3488 -0.0826 -0.2777
  144OSM   H15F15917   4.019   4.810   5.236 -2.6662 -0.2350  0.7953
  144OSM   H15G15918   3.998   4.775   5.418  0.6742  1.1034  0.6270
  144OSM   C16F15919   4.136   4.642   5.289  0.2605 -0.2228 -1.9476
  144OSM   H16F15920   4.157   4.594   5.387  3.2211  1.6928 -1.5153
  144OSM   H16G15921   4.237   4.656   5.247  1.4945 -0.4009  0.7415
  144OSM   C17F15922   4.046   4.549   5.202 -0.3351 -0.6706 -0.5206
  144OSM   H17F15923   4.097   4.450   5.193  1.2033  0.1161 -0.7412
  144OSM   H17G15924   4.034   4.592   5.101  0.1138  0.3656 -0.1412
  144OSM   C18F15925   3.905   4.523   5.256 -0.1121 -0.4205 -0.1241
  144OSM   H18F15926   3.859   4.430   5.216  0.4058  0.3810 -2.7924
  144OSM   H18G15927   3.838   4.608   5.231  0.9029  0.1361 -1.0047
  144OSM   H18H15928   3.909   4.514   5.367  0.8804  2.0949  0.1099
  145OSM      N15929   0.323   2.359   7.486  0.3487  0.0258 -0.4016
  145OSM    C1515930   0.467   2.373   7.479 -0.6182  0.2395 -0.0511
  145OSM   H15A15931   0.507   2.352   7.577 -0.5667  0.3046 -0.0587
  145OSM   H15B15932   0.494   2.475   7.457  2.1410 -0.1868  0.9991
  145OSM   H15C15933   0.509   2.322   7.394  0.5624 -0.0559  0.6924
  145OSM    C1415934   0.294   2.214   7.516 -0.5646 -0.6833 -0.2400
  145OSM   H14A15935   0.318   2.190   7.619  0.1801  0.8809 -0.0162
  145OSM   H14B15936   0.361   2.154   7.457  0.5109 -1.5173  1.7212
  145OSM   H14C15937   0.192   2.185   7.496 -0.8181  0.2310 -0.3069
  145OSM    C1315938   0.265   2.450   7.593 -0.0758 -0.7170 -0.3349
  145OSM   H13A15939   0.296   2.412   7.689  1.1192 -1.2061 -0.9093
  145OSM   H13B15940   0.157   2.442   7.598 -0.0921 -1.4203 -1.5463
  145OSM   H13C15941   0.304   2.550   7.580  1.0111 -0.9791  0.8171
  145OSM    C1215942   0.251   2.400   7.354  0.3685 -0.3447  0.4890
  145OSM   H12A15943   0.243   2.508   7.359 -1.1986 -0.4215  0.0576
  145OSM   H12B15944   0.148   2.369   7.365 -0.6598  2.0828 -1.3469
  145OSM    C1115945   0.311   2.355   7.222  0.1496  0.3043  0.4633
  145OSM   H11A15946   0.400   2.413   7.191 -0.9128  0.4118 -2.7432
  145OSM   H11B15947   0.233   2.367   7.144  0.5813  0.6027  0.0754
  145OSM      P15948   0.461   2.149   7.168 -0.0639  0.2523 -0.1361
  145OSM    O1315949   0.577   2.219   7.221 -0.0427  0.2965 -0.5882
  145OSM    O1415950   0.446   2.005   7.194 -0.1773 -0.4303  0.2184
  145OSM    O1115951   0.464   2.191   7.010  0.3811  0.2358  0.3889
  145OSM    O1215952   0.333   2.215   7.230 -0.2789  0.4688  0.4879
  145OSM    C1S15953   0.357   2.122   6.936  0.4657 -0.2169 -0.1476
  145OSM    H1S15954   0.264   2.180   6.958  2.2038  2.6267  0.1771
  145OSM    H1T15955   0.343   2.014   6.957  0.0562 -0.1207  0.1000
  145OSM     NF15956   0.253   2.085   6.696  0.0967 -0.6214 -0.4555
  145OSM    HNF15957   0.263   2.002   6.642 -1.7071 -1.0093 -0.2646
  145OSM    C2S15958   0.372   2.127   6.777 -0.6284 -1.0144 -0.0650
  145OSM    H2S15959   0.383   2.235   6.756 -1.0522 -0.6335  1.5458
  145OSM    C3S15960   0.513   2.058   6.741  0.3340 -0.3151  1.2066
  145OSM    H3S15961   0.497   1.950   6.763 -0.9031 -0.1233  1.2974
  145OSM     O315962   0.624   2.095   6.820 -0.2427 -0.4237 -0.0817
  145OSM    HO315963   0.589   2.141   6.897  2.2982 -0.3798  1.1294
  145OSM    C4S15964   0.565   2.062   6.598 -0.2241  0.3792 -0.4702
  145OSM    H4S15965   0.552   1.963   6.550  0.2592  0.6411 -1.1667
  145OSM    C5S15966   0.626   2.164   6.527 -0.0768  0.1679  0.3503
  145OSM    H5S15967   0.618   2.260   6.579  1.2772  0.3470  0.2694
  145OSM    C6S15968   0.668   2.157   6.385  0.1475  0.6754 -0.4152
  145OSM    H6S15969   0.772   2.196   6.375 -0.0217  2.8411  3.8186
  145OSM    H6T15970   0.597   2.216   6.324  1.0340  1.1415 -1.0194
  145OSM    C7S15971   0.673   2.014   6.326 -0.6753 -0.4147  0.5737
  145OSM    H7S15972   0.579   1.959   6.350 -1.9960  1.6538  0.3358
  145OSM    H7T15973   0.752   1.948   6.369 -0.3251 -1.1743 -1.1551
  145OSM    C8S15974   0.696   2.013   6.175 -0.8693 -1.1186  0.0755
  145OSM    H8S15975   0.783   1.946   6.167 -0.3492 -0.4614  0.1446
  145OSM    H8T15976   0.720   2.113   6.132  1.2496 -1.5166  0.2517
  145OSM    C9S15977   0.575   1.968   6.097  0.5979  0.3991 -0.0579
  145OSM    H9S15978   0.496   2.029   6.145  1.8782  0.6492  1.8628
  145OSM    H9T15979   0.558   1.860   6.113  0.6357  0.5193  0.8854
  145OSM   C10S15980   0.579   1.985   5.941 -0.7019 -0.3040 -0.0390
  145OSM   H10S15981   0.676   1.948   5.903 -0.1306 -0.7613  1.7636
  145OSM   H10T15982   0.577   2.094   5.920 -0.5811  0.3606  2.8436
  145OSM   C11S15983   0.455   1.936   5.872 -0.1809  0.0033 -0.2588
  145OSM   H11S15984   0.363   1.961   5.930 -0.7643 -1.4915 -0.4710
  145OSM   H11T15985   0.452   1.825   5.874 -0.0513  0.0161  1.0254
  145OSM   C12S15986   0.434   1.998   5.730  0.2106  0.3630 -0.4693
  145OSM   H12S15987   0.426   2.103   5.764 -2.6426  0.1576 -0.1980
  145OSM   H12T15988   0.345   1.964   5.672  0.6795 -0.0461 -0.9578
  145OSM   C13S15989   0.561   1.986   5.640  0.6317  0.5736 -0.0894
  145OSM   H13S15990   0.577   1.876   5.642 -0.8090  0.3474  2.2915
  145OSM   H13T15991   0.642   2.038   5.694 -0.4521  0.1304  2.0696
  145OSM   C14S15992   0.542   2.030   5.496  0.5199  0.4438  0.0144
  145OSM   H14S15993   0.509   2.136   5.503  0.3314  0.3881 -0.0056
  145OSM   H14T15994   0.454   1.979   5.452 -1.1164  2.4537  0.7520
  145OSM   C15S15995   0.671   2.023   5.425  0.1561  0.4606  0.7830
  145OSM   H15S15996   0.713   1.920   5.431 -0.2889  0.3442  2.7146
  145OSM   H15T15997   0.747   2.086   5.476  1.5493  0.9173 -1.7125
  145OSM   C16S15998   0.655   2.064   5.276  0.2477 -0.5233  0.4600
  145OSM   H16S15999   0.751   2.046   5.223 -1.0363 -0.3691 -2.0575
  145OSM   H16T16000   0.645   2.174   5.277 -1.3064 -0.6454  0.9626
  145OSM   C17S16001   0.545   1.987   5.200 -0.4211  0.7266 -0.1033
  145OSM   H17S16002   0.443   2.008   5.238 -0.1734  1.3733  0.2273
  145OSM   H17T16003   0.573   1.880   5.198 -1.3218  0.4728  0.3279
  145OSM   C18S16004   0.531   2.040   5.050 -0.1496 -0.2716 -0.0550
  145OSM   H18S16005   0.447   1.988   5.000 -0.3022 -2.0149  1.8373
  145OSM   H18T16006   0.627   2.021   4.998  0.5909  1.6690  0.5289
  145OSM   H18U16007   0.508   2.148   5.052 -0.3971 -0.3150 -0.6018
  145OSM    C1F16008   0.134   2.151   6.696  0.0612  0.5851 -0.6486
  145OSM     OF16009   0.132   2.262   6.749 -0.1071  0.6544 -0.5858
  145OSM    C2F16010   0.008   2.086   6.647 -0.2505 -0.0335  0.3923
  145OSM    H2F16011  -0.043   2.056   6.741  1.1948 -1.1876  0.8668
  145OSM    H2G16012   0.037   1.995   6.588  0.3641 -0.3331  1.1351
  145OSM    C3F16013  -0.065   2.179   6.553  0.0741  0.5012 -0.3271
  145OSM    H3F16014  -0.027   2.178   6.448 -2.2001 -2.7193 -1.2954
  145OSM    H3G16015  -0.057   2.278   6.602  0.7256 -0.2496  1.1296
  145OSM    C4F16016  -0.217   2.152   6.554 -0.1587 -0.1235  0.6445
  145OSM    H4F16017  -0.269   2.199   6.640  1.0223  3.5137 -0.4100
  145OSM    H4G16018  -0.238   2.044   6.545 -2.7889  0.4846 -1.7075
  145OSM    C5F16019  -0.296   2.233   6.444  0.0611 -0.0545  0.1049
  145OSM    H5F16020  -0.304   2.338   6.479  4.4459  0.1432  1.1625
  145OSM    H5G16021  -0.400   2.196   6.440  0.2936 -0.6502 -2.1497
  145OSM    C6F16022  -0.234   2.223   6.304 -0.0366 -0.4687 -0.0159
  145OSM    H6F16023  -0.196   2.129   6.260  0.3846  0.6705 -2.2747
  145OSM    H6G16024  -0.146   2.290   6.315 -1.6476  1.6532  0.8922
  145OSM    C7F16025  -0.323   2.302   6.204 -0.0959  0.1840 -0.8616
  145OSM    H7F16026  -0.347   2.404   6.239  0.0981  0.2497 -0.9163
  145OSM    H7G16027  -0.417   2.244   6.187 -0.6683  0.5600  0.8905
  145OSM    C8F16028  -0.269   2.316   6.067 -0.1320 -0.2702  0.1555
  145OSM    H8F16029  -0.209   2.222   6.059  0.4071  0.2094 -2.4886
  145OSM    H8G16030  -0.183   2.385   6.072  0.5999 -1.1179 -0.3312
  145OSM    C9F16031  -0.361   2.331   5.948  0.9375  0.0204  0.1307
  145OSM    H9F16032  -0.445   2.260   5.940 -0.8945  1.9772  1.0395
  145OSM   C10F16033  -0.347   2.418   5.839  0.3053 -0.7660 -0.1653
  145OSM   H10F16034  -0.432   2.420   5.769  0.1419  1.2865  0.0189
  145OSM   C11F16035  -0.237   2.513   5.814  0.2418 -0.8514 -0.2665
  145OSM   H11F16036  -0.141   2.468   5.847 -0.7189 -2.2068  0.8049
  145OSM   H11G16037  -0.253   2.605   5.874  0.5035  0.5792 -2.3020
  145OSM   C12F16038  -0.251   2.557   5.663 -0.3734 -0.3206  0.3467
  145OSM   H12F16039  -0.176   2.635   5.640 -0.6727  0.5146  2.0389
  145OSM   H12G16040  -0.352   2.597   5.641 -0.2967 -0.2605  0.0999
  145OSM   C13F16041  -0.221   2.437   5.566  0.3004 -1.0668 -0.1826
  145OSM   H13F16042  -0.307   2.370   5.585 -1.1079  1.1413  1.8459
  145OSM   H13G16043  -0.124   2.384   5.580  0.3111 -1.6014 -2.0806
  145OSM   C14F16044  -0.213   2.474   5.413  0.1239 -0.1867  0.2421
  145OSM   H14F16045  -0.169   2.391   5.355 -0.4276  0.3664 -0.9923
  145OSM   H14G16046  -0.158   2.570   5.410 -0.4544  0.1214 -0.6896
  145OSM   C15F16047  -0.350   2.511   5.354 -1.0948  0.5186 -0.2409
  145OSM   H15F16048  -0.331   2.532   5.246 -0.6729 -1.6150 -0.6300
  145OSM   H15G16049  -0.396   2.600   5.401 -2.6309 -1.0529  1.3551
  145OSM   C16F16050  -0.455   2.399   5.365 -0.7351  0.5295 -0.1376
  145OSM   H16F16051  -0.548   2.437   5.319 -0.3532  2.9224  0.9296
  145OSM   H16G16052  -0.482   2.395   5.473  0.5086  1.8087  0.2449
  145OSM   C17F16053  -0.418   2.264   5.308  0.8313  0.1115 -0.0864
  145OSM   H17F16054  -0.340   2.208   5.364 -1.6204 -1.1160  2.3690
  145OSM   H17G16055  -0.371   2.282   5.209  1.7750  1.9805  0.6515
  145OSM   C18F16056  -0.538   2.183   5.305  1.2376  1.0356  0.4973
  145OSM   H18F16057  -0.600   2.213   5.218  0.6052  0.9676  0.9147
  145OSM   H18G16058  -0.601   2.188   5.396  0.7925  3.3769  0.1135
  145OSM   H18H16059  -0.512   2.079   5.276  0.5477  0.6509  1.2012
  146OSM      N16060   4.356   0.445   7.064  0.2966 -0.9298  0.1639
  146OSM    C1516061   4.392   0.306   7.062 -0.3954  0.7205  0.5409
  146OSM   H15A16062   4.347   0.251   7.143  0.3215  1.0300  1.1707
  146OSM   H15B16063   4.498   0.286   7.071 -0.5838 -0.2550  0.6548
  146OSM   H15C16064   4.377   0.258   6.966  1.9239  0.6090  0.1623
  146OSM    C1416065   4.374   0.480   7.204 -0.1560 -0.1686  0.1296
  146OSM   H14A16066   4.328   0.573   7.233  0.8462  0.6777 -0.9454
  146OSM   H14B16067   4.481   0.488   7.216 -0.2070 -1.1445  1.4475
  146OSM   H14C16068   4.336   0.396   7.260  1.5656 -0.7336  0.5012
  146OSM    C1316069   4.449   0.527   6.978 -0.3523  1.7262 -1.1313
  146OSM   H13A16070   4.446   0.631   7.008 -3.6778  1.3738  0.1654
  146OSM   H13B16071   4.427   0.513   6.873 -0.3672  0.6134 -0.9937
  146OSM   H13C16072   4.548   0.491   7.005  0.2676  2.2193 -2.6548
  146OSM    C1216073   4.214   0.466   7.007 -0.3100 -0.5496 -0.2925
  146OSM   H12A16074   4.222   0.428   6.906  0.7248 -0.2203 -0.3421
  146OSM   H12B16075   4.202   0.573   6.999  2.3058  0.0949  2.4464
  146OSM    C1116076   4.093   0.408   7.080  0.3831 -0.7417 -0.2757
  146OSM   H11A16077   4.010   0.426   7.009  2.3561  0.1582 -2.4988
  146OSM   H11B16078   4.067   0.469   7.169  0.0600 -0.4176 -0.5911
  146OSM      P16079   4.050   0.173   6.999  0.0537 -0.4545  0.0563
  146OSM    O1316080   4.117   0.043   7.001 -0.0876  0.2478 -0.4686
  146OSM    O1416081   3.902   0.174   7.007 -0.2322  0.4232 -0.0725
  146OSM    O1116082   4.093   0.246   6.875 -0.2229  0.0342  0.3767
  146OSM    O1216083   4.100   0.270   7.113 -0.2658  0.1998 -0.0219
  146OSM    C1S16084   4.113   0.193   6.748 -0.3197  0.4135 -0.4094
  146OSM    H1S16085   4.112   0.083   6.756 -2.7765  0.4752  1.1124
  146OSM    H1T16086   4.211   0.224   6.705 -0.1343 -1.8071 -1.7066
  146OSM     NF16087   4.008   0.169   6.525  0.3904 -0.4875  0.3386
  146OSM    HNF16088   4.069   0.199   6.452 -0.4375 -0.4202 -0.3404
  146OSM    C2S16089   4.003   0.252   6.650 -0.4105  0.2619  0.5399
  146OSM    H2S16090   3.904   0.255   6.700  0.3503  1.4110  2.0667
  146OSM    C3S16091   4.023   0.400   6.631  0.7983  0.8168 -0.0981
  146OSM    H3S16092   4.114   0.423   6.572  1.3800  0.0886  0.4950
  146OSM     O316093   4.051   0.476   6.753  0.1546 -0.1145 -0.2176
  146OSM    HO316094   4.069   0.409   6.820 -0.8204  0.5727  0.7698
  146OSM    C4S16095   3.902   0.469   6.565  0.3414  0.1443  0.2327
  146OSM    H4S16096   3.805   0.431   6.601  0.5218  0.1616  0.7338
  146OSM    C5S16097   3.900   0.560   6.469  0.0658 -0.7143 -0.9386
  146OSM    H5S16098   3.997   0.601   6.437 -0.8372  2.9582  0.5738
  146OSM    C6S16099   3.771   0.617   6.406 -0.0991  0.2488  0.0106
  146OSM    H6S16100   3.673   0.577   6.439 -0.7858  2.0818  0.3259
  146OSM    H6T16101   3.786   0.604   6.297  0.9239  0.8384  0.0578
  146OSM    C7S16102   3.764   0.772   6.409 -0.3000 -0.6383 -0.2756
  146OSM    H7S16103   3.856   0.808   6.359  1.4049 -1.6888  1.9350
  146OSM    H7T16104   3.779   0.806   6.514 -1.1528 -0.4778 -0.1982
  146OSM    C8S16105   3.646   0.848   6.348  0.6249  0.1384 -0.6633
  146OSM    H8S16106   3.661   0.955   6.372 -0.2445 -0.2793  2.1326
  146OSM    H8T16107   3.547   0.824   6.391  0.1112  0.1397 -1.8143
  146OSM    C9S16108   3.635   0.820   6.194  0.2699 -0.4442  0.3631
  146OSM    H9S16109   3.606   0.713   6.191  1.8593 -1.0133  2.4860
  146OSM    H9T16110   3.731   0.843   6.144 -0.0692  0.9336  0.3145
  146OSM   C10S16111   3.528   0.893   6.110 -0.4403  0.7610  0.2378
  146OSM   H10S16112   3.554   1.001   6.105 -1.2107  0.8905 -2.3681
  146OSM   H10T16113   3.432   0.879   6.165  0.6250  1.0133  2.2437
  146OSM   C11S16114   3.528   0.850   5.963  0.5098 -0.1889 -0.1248
  146OSM   H11S16115   3.470   0.755   5.964  0.2770 -0.2073  3.8545
  146OSM   H11T16116   3.628   0.829   5.921  1.2809 -2.8863  2.6464
  146OSM   C12S16117   3.451   0.947   5.877 -0.0790  0.3434  0.2563
  146OSM   H12S16118   3.523   1.019   5.831 -1.1564  1.6450  0.5514
  146OSM   H12T16119   3.386   1.009   5.943 -0.5788 -0.5734  0.6284
  146OSM   C13S16120   3.362   0.878   5.773 -0.1549  0.8604 -0.3417
  146OSM   H13S16121   3.276   0.829   5.823 -0.2794  0.8870 -0.5259
  146OSM   H13T16122   3.413   0.803   5.709 -1.0457  0.0396 -0.1063
  146OSM   C14S16123   3.293   0.981   5.686 -0.6618 -0.3730 -0.0971
  146OSM   H14S16124   3.366   1.025   5.615 -2.2369 -0.0693 -1.5936
  146OSM   H14T16125   3.245   1.050   5.758 -0.6471 -0.4301 -0.0321
  146OSM   C15S16126   3.180   0.922   5.604  0.2963 -0.2499 -0.0144
  146OSM   H15S16127   3.115   0.863   5.671 -1.4466  1.1354 -0.4010
  146OSM   H15T16128   3.220   0.841   5.539  0.8717 -1.3334  1.6455
  146OSM   C16S16129   3.097   1.018   5.519 -0.3015 -0.5857  0.2044
  146OSM   H16S16130   3.115   1.115   5.570  1.2717  0.3288 -1.9636
  146OSM   H16T16131   2.990   0.988   5.514 -0.3358 -0.4671  0.2341
  146OSM   C17S16132   3.162   1.058   5.394 -0.0281  0.7353  0.4047
  146OSM   H17S16133   3.165   0.973   5.322  3.9439  2.1722 -1.4168
  146OSM   H17T16134   3.268   1.084   5.411 -0.6352  3.5707  0.2821
  146OSM   C18S16135   3.105   1.180   5.324  0.1992 -0.5150 -0.3016
  146OSM   H18S16136   3.141   1.270   5.379 -0.4868  0.6860 -1.7523
  146OSM   H18T16137   2.996   1.195   5.335  0.4335  1.4807 -0.2810
  146OSM   H18U16138   3.139   1.190   5.219  3.5576 -2.1616  0.4932
  146OSM    C1F16139   3.956   0.043   6.517 -0.4947  0.2576 -0.0322
  146OSM     OF16140   3.882  -0.009   6.606 -0.0103 -0.0514 -0.2032
  146OSM    C2F16141   3.979  -0.025   6.386  0.2515  0.3375  0.1572
  146OSM    H2F16142   4.088  -0.020   6.363 -0.0648  0.8880 -1.3518
  146OSM    H2G16143   3.923   0.028   6.306 -3.0698 -1.3497  1.1784
  146OSM    C3F16144   3.943  -0.175   6.380  0.3543 -0.0454  0.0787
  146OSM    H3F16145   3.842  -0.191   6.422 -0.3037  1.8660 -0.6750
  146OSM    H3G16146   4.017  -0.227   6.444 -0.4816  0.1610  1.2458
  146OSM    C4F16147   3.951  -0.233   6.243  0.2106  0.1514  0.2821
  146OSM    H4F16148   4.054  -0.227   6.201 -0.4819  4.3084 -1.3653
  146OSM    H4G16149   3.880  -0.177   6.178 -0.5246  2.4988  2.9063
  146OSM    C5F16150   3.896  -0.382   6.248 -0.3669 -0.5468 -0.2613
  146OSM    H5F16151   3.800  -0.377   6.305  0.1215  1.9500  0.4613
  146OSM    H5G16152   3.973  -0.433   6.309 -1.1464 -1.5094 -0.0533
  146OSM    C6F16153   3.878  -0.456   6.115 -0.6346 -0.1744 -0.3533
  146OSM    H6F16154   3.980  -0.481   6.077 -0.7055 -1.2607  0.1318
  146OSM    H6G16155   3.825  -0.393   6.042 -0.0637  1.8033  0.8666
  146OSM    C7F16156   3.795  -0.582   6.125 -0.1949  0.5062 -0.2363
  146OSM    H7F16157   3.769  -0.630   6.028  2.9008 -0.4526 -0.6753
  146OSM    H7G16158   3.698  -0.569   6.178  0.5774  0.5102  1.2112
  146OSM    C8F16159   3.886  -0.685   6.202 -0.0580  0.1973  0.7508
  146OSM    H8F16160   3.914  -0.646   6.302  0.4110 -0.1979  0.7840
  146OSM    H8G16161   3.983  -0.685   6.147  0.5539  0.3383  1.8008
  146OSM    C9F16162   3.835  -0.827   6.216 -0.7523  0.2869  0.0087
  146OSM    H9F16163   3.769  -0.853   6.301 -2.9123 -1.5822 -2.1125
  146OSM   C10F16164   3.874  -0.934   6.147 -0.6240  0.1421 -0.4284
  146OSM   H10F16165   3.825  -1.029   6.171 -0.1431 -0.9304 -3.2800
  146OSM   C11F16166   3.968  -0.944   6.025  0.4741 -0.3986 -0.1509
  146OSM   H11F16167   4.059  -0.994   6.065 -0.5803 -1.9344  0.4237
  146OSM   H11G16168   3.998  -0.844   5.987 -0.6704 -0.1846 -0.5405
  146OSM   C12F16169   3.904  -1.020   5.906  0.3424  0.0477 -0.0865
  146OSM   H12F16170   3.885  -1.125   5.938  2.7235 -0.5293 -0.4276
  146OSM   H12G16171   3.970  -1.035   5.818 -0.4821 -3.7799 -0.2257
  146OSM   C13F16172   3.783  -0.951   5.845  0.2050  0.0554  0.7299
  146OSM   H13F16173   3.815  -0.848   5.817  0.1492  0.2806  1.4666
  146OSM   H13G16174   3.701  -0.932   5.918 -0.6403  1.2315 -0.4564
  146OSM   C14F16175   3.744  -1.023   5.719  0.8435 -0.2475 -0.2524
  146OSM   H14F16176   3.824  -1.028   5.641  0.7398  0.2403 -0.3972
  146OSM   H14G16177   3.734  -1.131   5.743  0.4853  0.3488  2.6659
  146OSM   C15F16178   3.618  -0.961   5.660  0.4086  0.1592  0.3511
  146OSM   H15F16179   3.550  -0.920   5.738 -2.7028 -1.3075 -1.4383
  146OSM   H15G16180   3.558  -1.045   5.618  2.8463 -1.4641 -0.0899
  146OSM   C16F16181   3.650  -0.842   5.565  0.3429  0.3401 -0.2929
  146OSM   H16F16182   3.706  -0.761   5.617 -3.2071  1.5313  2.0381
  146OSM   H16G16183   3.551  -0.800   5.537  0.4207 -0.8416 -2.6334
  146OSM   C17F16184   3.696  -0.877   5.423  0.6695  0.1425 -0.6155
  146OSM   H17F16185   3.613  -0.929   5.370  0.8795 -1.5571  0.6774
  146OSM   H17G16186   3.792  -0.931   5.421  1.4819  1.5394 -1.1894
  146OSM   C18F16187   3.734  -0.753   5.348 -0.3984  0.0667  0.2708
  146OSM   H18F16188   3.831  -0.709   5.378 -1.2384  1.0630  1.6365
  146OSM   H18G16189   3.657  -0.673   5.356 -0.9277 -0.5216  1.2559
  146OSM   H18H16190   3.735  -0.781   5.240 -1.5204  0.8237  0.0459
  147OSM      N16191   6.689   0.649   2.708  0.1327  0.0371  0.8279
  147OSM    C1516192   6.589   0.580   2.617  0.0384 -0.0933  0.6639
  147OSM   H15A16193   6.605   0.473   2.614 -0.2095 -0.2183  2.4573
  147OSM   H15B16194   6.600   0.618   2.517  0.2191  0.5382  0.9221
  147OSM   H15C16195   6.488   0.601   2.647  0.0361  1.8254 -0.5554
  147OSM    C1416196   6.817   0.653   2.633  0.6052  0.4106  0.6596
  147OSM   H14A16197   6.810   0.727   2.554 -0.5015  0.1372  0.4861
  147OSM   H14B16198   6.852   0.559   2.592  2.3967  1.6471 -0.8520
  147OSM   H14C16199   6.893   0.691   2.699  0.9726  1.0190 -0.0880
  147OSM    C1316200   6.637   0.793   2.727  0.2957  0.7724  0.6614
  147OSM   H13A16201   6.609   0.821   2.627  1.8654 -0.8276 -0.2759
  147OSM   H13B16202   6.716   0.853   2.769  0.7014  0.4792  0.3319
  147OSM   H13C16203   6.544   0.809   2.780 -1.5699  1.5623 -2.6069
  147OSM    C1216204   6.708   0.579   2.835 -0.8718  0.4380 -0.1762
  147OSM   H12A16205   6.709   0.473   2.817 -1.2619  0.7373 -2.2419
  147OSM   H12B16206   6.614   0.585   2.888 -1.2992 -2.8752 -0.3636
  147OSM    C1116207   6.818   0.637   2.932  0.5608  0.5654  0.4190
  147OSM   H11A16208   6.802   0.592   3.032  0.5848  0.4343  0.3648
  147OSM   H11B16209   6.795   0.743   2.957 -1.7596 -0.5304  3.4466
  147OSM      P16210   7.032   0.505   2.876  0.1114 -0.0388 -0.1763
  147OSM    O1316211   6.931   0.405   2.825  0.2204 -0.1881  0.1869
  147OSM    O1416212   7.159   0.527   2.803 -0.0315 -0.0533  0.1670
  147OSM    O1116213   7.056   0.472   3.029 -0.5241  0.0937  0.4488
  147OSM    O1216214   6.951   0.636   2.882 -0.0798  0.6950  0.2134
  147OSM    C1S16215   7.168   0.407   3.069 -0.2207  0.5230 -0.9111
  147OSM    H1S16216   7.260   0.464   3.043  1.0217 -1.1253 -0.3194
  147OSM    H1T16217   7.171   0.303   3.030 -0.9476 -0.1710  0.8082
  147OSM     NF16218   7.272   0.332   3.278 -0.7629 -0.2479  0.2975
  147OSM    HNF16219   7.261   0.235   3.296 -1.2280 -0.4432 -0.9409
  147OSM    C2S16220   7.158   0.392   3.225  0.8454 -0.3434 -0.3896
  147OSM    H2S16221   7.156   0.498   3.260 -1.0838 -0.0319 -1.2746
  147OSM    C3S16222   7.030   0.321   3.266  0.6906 -0.4092  0.1695
  147OSM    H3S16223   7.031   0.226   3.208  0.5656 -0.5646  0.4195
  147OSM     O316224   6.904   0.386   3.233 -0.2076  0.8961  0.7085
  147OSM    HO316225   6.933   0.452   3.169 -0.2144 -0.1381 -0.3922
  147OSM    C4S16226   7.026   0.277   3.409  0.1018 -0.4032  0.2463
  147OSM    H4S16227   7.086   0.185   3.421  2.8226  0.6910 -3.1096
  147OSM    C5S16228   6.961   0.325   3.516  0.3597  0.2786 -0.7555
  147OSM    H5S16229   6.906   0.419   3.501 -0.6173  0.4356  2.9202
  147OSM    C6S16230   6.969   0.275   3.661  0.7202 -0.0656  0.2422
  147OSM    H6S16231   7.050   0.200   3.677  1.4946  0.5403 -0.6742
  147OSM    H6T16232   6.870   0.242   3.698  0.3095  1.2849  0.3958
  147OSM    C7S16233   7.009   0.389   3.750  0.4779 -0.5081 -0.4833
  147OSM    H7S16234   6.964   0.484   3.715  1.8441  1.3331  2.3198
  147OSM    H7T16235   7.114   0.420   3.768  0.8628 -0.9154 -1.9008
  147OSM    C8S16236   6.968   0.385   3.896 -0.3828 -0.3274  0.0337
  147OSM    H8S16237   6.865   0.427   3.897  0.7885  2.8152  1.0049
  147OSM    H8T16238   7.014   0.462   3.962  0.6570 -0.5943 -0.3648
  147OSM    C9S16239   6.969   0.244   3.960  0.2047  1.0150 -0.5302
  147OSM    H9S16240   7.076   0.213   3.957 -0.2794 -0.7402 -0.9852
  147OSM    H9T16241   6.919   0.166   3.899  0.6259  0.9456 -0.7955
  147OSM   C10S16242   6.905   0.233   4.100 -1.1306 -0.2258  1.3696
  147OSM   H10S16243   6.795   0.248   4.092 -1.0223 -0.6452 -3.2223
  147OSM   H10T16244   6.960   0.309   4.160  0.8036 -0.0760 -0.4837
  147OSM   C11S16245   6.935   0.103   4.173 -0.1002  0.1166  0.1650
  147OSM   H11S16246   7.040   0.071   4.157 -0.1398 -0.9044  1.7576
  147OSM   H11T16247   6.868   0.020   4.141  1.9267 -2.1849  1.5424
  147OSM   C12S16248   6.909   0.111   4.327  0.2033 -0.3935 -0.3248
  147OSM   H12S16249   6.982   0.183   4.369  1.0395 -1.2116 -0.3508
  147OSM   H12T16250   6.930   0.013   4.376 -1.7135 -0.8859 -0.4081
  147OSM   C13S16251   6.759   0.152   4.376  0.4420 -0.8997  0.6452
  147OSM   H13S16252   6.690   0.074   4.336 -1.4097  1.2683 -0.6531
  147OSM   H13T16253   6.739   0.248   4.323 -0.7923 -1.9627 -0.9223
  147OSM   C14S16254   6.746   0.163   4.527 -0.1988 -0.0419 -0.2214
  147OSM   H14S16255   6.833   0.213   4.573 -0.7582 -1.0982  2.1428
  147OSM   H14T16256   6.758   0.059   4.565  1.5481 -0.6596 -2.3085
  147OSM   C15S16257   6.627   0.240   4.580 -0.6170  0.3341  0.2319
  147OSM   H15S16258   6.536   0.179   4.564 -0.3057  0.3295 -1.7882
  147OSM   H15T16259   6.605   0.339   4.534 -2.0319  0.6303  1.4972
  147OSM   C16S16260   6.653   0.279   4.730  0.2958 -0.1850  0.1740
  147OSM   H16S16261   6.753   0.327   4.733  1.3809 -2.1165 -2.1316
  147OSM   H16T16262   6.650   0.182   4.782  2.1039 -0.1002  0.4855
  147OSM   C17S16263   6.542   0.376   4.778 -0.6418  0.1560 -0.1698
  147OSM   H17S16264   6.447   0.319   4.784 -1.2236  1.0234 -0.8407
  147OSM   H17T16265   6.535   0.458   4.703  2.8248  1.4907  0.7413
  147OSM   C18S16266   6.574   0.434   4.917  0.4970 -0.0680 -0.0430
  147OSM   H18S16267   6.492   0.505   4.942  1.3412  1.2030 -0.7645
  147OSM   H18T16268   6.671   0.488   4.908  0.3419  0.1882 -0.2240
  147OSM   H18U16269   6.569   0.366   5.004  0.0716 -0.0148 -0.0240
  147OSM    C1F16270   7.395   0.388   3.264 -0.3093 -0.9279 -0.7029
  147OSM     OF16271   7.411   0.506   3.245 -0.2533 -1.2222 -0.0606
  147OSM    C2F16272   7.520   0.305   3.292  0.4674 -0.1505 -0.0148
  147OSM    H2F16273   7.608   0.373   3.294  0.4044 -0.0471 -0.5685
  147OSM    H2G16274   7.534   0.235   3.206 -1.3074  1.0761 -1.3716
  147OSM    C3F16275   7.508   0.210   3.410  0.2081  0.1258  0.6245
  147OSM    H3F16276   7.602   0.151   3.415 -0.2998 -0.5711  2.4315
  147OSM    H3G16277   7.429   0.134   3.391 -0.0016  0.6612 -0.8022
  147OSM    C4F16278   7.476   0.273   3.548 -0.5629  0.1817  0.0198
  147OSM    H4F16279   7.377   0.322   3.558 -1.1929 -0.9134 -0.6322
  147OSM    H4G16280   7.562   0.336   3.579 -0.6696 -0.0819  0.9049
  147OSM    C5F16281   7.474   0.168   3.660 -0.3845  0.2020  0.3172
  147OSM    H5F16282   7.549   0.089   3.638  0.8269  1.1409  0.9744
  147OSM    H5G16283   7.370   0.128   3.657 -0.6514  0.9417 -2.0211
  147OSM    C6F16284   7.506   0.224   3.798 -0.5634 -0.4277  0.2952
  147OSM    H6F16285   7.600   0.282   3.801 -0.2318 -0.8896 -0.7279
  147OSM    H6G16286   7.518   0.138   3.868 -1.3654  1.8295  3.4772
  147OSM    C7F16287   7.388   0.309   3.850 -0.9075  0.0385 -0.3232
  147OSM    H7F16288   7.293   0.258   3.823 -0.0754 -1.1908 -1.0222
  147OSM    H7G16289   7.377   0.402   3.792 -1.3269  0.4468  0.3924
  147OSM    C8F16290   7.399   0.347   4.002 -0.1794  0.1124  0.3197
  147OSM    H8F16291   7.301   0.397   4.020  0.4617  0.7100  2.4047
  147OSM    H8G16292   7.478   0.423   4.021 -0.7400  0.8529 -0.2267
  147OSM    C9F16293   7.403   0.242   4.106 -0.3405  0.6293 -0.1424
  147OSM    H9F16294   7.366   0.147   4.066  1.2242 -0.8118  1.5885
  147OSM   C10F16295   7.440   0.252   4.238 -0.1926  0.5442 -0.2631
  147OSM   H10F16296   7.443   0.163   4.303  0.4126  0.9663  0.3075
  147OSM   C11F16297   7.472   0.382   4.322  0.3269  0.0045 -0.1299
  147OSM   H11F16298   7.496   0.469   4.257 -1.1553  1.6878  1.4902
  147OSM   H11G16299   7.566   0.363   4.376  0.5105  1.4150  0.0867
  147OSM   C12F16300   7.358   0.421   4.423  0.7381 -0.4153 -0.6757
  147OSM   H12F16301   7.261   0.411   4.370  0.8016  1.2714 -1.1493
  147OSM   H12G16302   7.371   0.526   4.455  2.4670 -1.0340  0.7775
  147OSM   C13F16303   7.355   0.345   4.557 -0.1916  0.5381  0.1426
  147OSM   H13F16304   7.362   0.237   4.531  2.9917  1.2175 -2.6234
  147OSM   H13G16305   7.266   0.376   4.614 -1.0271 -0.9185 -0.3013
  147OSM   C14F16306   7.480   0.364   4.649 -0.7128  0.3558  0.3441
  147OSM   H14F16307   7.565   0.313   4.599 -1.0613 -0.8719  0.9554
  147OSM   H14G16308   7.452   0.320   4.747  0.4550  1.1933  1.0717
  147OSM   C15F16309   7.513   0.508   4.662 -0.1838 -0.6925  0.0541
  147OSM   H15F16310   7.419   0.566   4.675  0.2173  0.5334 -2.0223
  147OSM   H15G16311   7.565   0.545   4.571 -2.3233 -2.0767 -1.8273
  147OSM   C16F16312   7.603   0.550   4.779 -0.0004 -0.8882 -0.2271
  147OSM   H16F16313   7.707   0.513   4.766  0.6132  1.0360 -1.1237
  147OSM   H16G16314   7.563   0.490   4.863 -3.4014  1.6683  0.1982
  147OSM   C17F16315   7.587   0.703   4.820  0.1584  0.0777 -0.6063
  147OSM   H17F16316   7.481   0.736   4.825  0.4963  1.1058 -0.0885
  147OSM   H17G16317   7.634   0.767   4.742  1.4655  2.4637  1.9779
  147OSM   C18F16318   7.645   0.739   4.957  0.1671 -0.3246 -0.3128
  147OSM   H18F16319   7.755   0.721   4.961  0.4707  1.4552  0.3100
  147OSM   H18G16320   7.596   0.665   5.023 -0.1662  0.0679 -0.1137
  147OSM   H18H16321   7.627   0.843   4.993  0.1736 -0.6282  0.5928
  148OSM      N16322   0.954   4.209   3.329  0.6349 -0.6770  0.4420
  148OSM    C1516323   0.850   4.122   3.260 -0.1371 -1.0528  0.6449
  148OSM   H15A16324   0.833   4.180   3.170  0.3712  1.4014  2.0350
  148OSM   H15B16325   0.753   4.113   3.306 -1.1044  0.2385 -1.0141
  148OSM   H15C16326   0.897   4.027   3.242  0.6262 -0.5282 -0.2603
  148OSM    C1416327   0.978   4.140   3.459 -0.2731  0.2596  0.4596
  148OSM   H14A16328   0.942   4.039   3.449  0.1008  0.0858  0.8557
  148OSM   H14B16329   0.922   4.188   3.538  0.3263  0.8396  0.5424
  148OSM   H14C16330   1.084   4.137   3.476  0.1528  2.7664 -1.2045
  148OSM    C1316331   1.069   4.207   3.244  0.3140 -0.2991  0.9251
  148OSM   H13A16332   1.153   4.256   3.291  0.8144 -0.5896  0.3604
  148OSM   H13B16333   1.045   4.247   3.146  3.2800 -1.1111 -0.2463
  148OSM   H13C16334   1.104   4.106   3.229 -0.3279 -0.3705 -0.2031
  148OSM    C1216335   0.896   4.348   3.347  0.1948 -0.3829 -0.6277
  148OSM   H12A16336   0.797   4.343   3.390 -1.0745 -2.3633 -3.4366
  148OSM   H12B16337   0.868   4.391   3.252 -2.6738  0.5409  0.5301
  148OSM    C1116338   0.980   4.461   3.413  0.2399  0.0206  0.3139
  148OSM   H11A16339   1.078   4.480   3.363 -0.8411  2.6344 -0.9953
  148OSM   H11B16340   1.008   4.423   3.514  0.1457 -2.4044 -0.5089
  148OSM      P16341   0.919   4.683   3.303  0.0650 -0.5492 -0.3581
  148OSM    O1316342   0.915   4.608   3.177  0.1725  0.7287  0.4351
  148OSM    O1416343   0.824   4.794   3.319 -0.0927 -0.1870 -0.1425
  148OSM    O1116344   1.061   4.734   3.334 -0.3943 -0.0878 -0.7174
  148OSM    O1216345   0.891   4.576   3.415 -0.5717  0.7309 -0.1948
  148OSM    C1S16346   1.090   4.801   3.456 -0.3971  0.1650  0.5379
  148OSM    H1S16347   1.005   4.846   3.511 -0.9285  0.8495 -0.7893
  148OSM    H1T16348   1.152   4.891   3.436 -0.5491 -0.0552 -1.0290
  148OSM     NF16349   1.200   4.794   3.672 -0.1245 -0.2554  0.6629
  148OSM    HNF16350   1.271   4.865   3.674  0.4917 -0.8471  0.2364
  148OSM    C2S16351   1.185   4.722   3.549  0.0984  0.5666  0.5832
  148OSM    H2S16352   1.146   4.618   3.561  0.4731  0.5719  2.1053
  148OSM    C3S16353   1.319   4.697   3.469  0.5464  0.4687 -0.7157
  148OSM    H3S16354   1.360   4.798   3.448  0.0230  0.7032 -0.6301
  148OSM     O316355   1.298   4.633   3.339 -0.6747  0.1687  0.4955
  148OSM    HO316356   1.208   4.666   3.330  0.2037  2.7741  0.2576
  148OSM    C4S16357   1.418   4.622   3.554  0.2441  0.4887  0.4498
  148OSM    H4S16358   1.381   4.521   3.579  0.0208  0.2309 -0.8288
  148OSM    C5S16359   1.533   4.669   3.602 -0.7089 -0.4600 -0.2469
  148OSM    H5S16360   1.563   4.774   3.587 -1.2143 -0.5372 -1.9720
  148OSM    C6S16361   1.607   4.580   3.702  0.3096  0.5150  0.0779
  148OSM    H6S16362   1.711   4.617   3.714  0.3103  0.7380 -0.5515
  148OSM    H6T16363   1.606   4.475   3.666 -3.7106  0.1737  0.6720
  148OSM    C7S16364   1.528   4.569   3.840 -0.5858  0.0033  0.0944
  148OSM    H7S16365   1.421   4.540   3.837 -0.8907  1.0510  0.2491
  148OSM    H7T16366   1.532   4.672   3.882 -0.5144 -0.8287  2.2755
  148OSM    C8S16367   1.587   4.473   3.943 -0.1560 -0.1052 -0.3369
  148OSM    H8S16368   1.697   4.488   3.948 -0.1161 -0.7778  2.8423
  148OSM    H8T16369   1.561   4.366   3.924  1.2208 -0.6008  0.4234
  148OSM    C9S16370   1.533   4.504   4.085 -0.8247 -0.4242 -0.3578
  148OSM    H9S16371   1.423   4.512   4.072 -0.5151  1.2719 -2.3738
  148OSM    H9T16372   1.582   4.597   4.121 -0.6944 -1.2324  1.7184
  148OSM   C10S16373   1.543   4.389   4.185 -0.2172 -0.3438 -0.2091
  148OSM   H10S16374   1.652   4.371   4.198 -0.4969 -0.6526  1.9131
  148OSM   H10T16375   1.483   4.304   4.147 -0.0431 -0.7909  0.5026
  148OSM   C11S16376   1.488   4.433   4.325  0.0640 -0.1454  0.1208
  148OSM   H11S16377   1.381   4.460   4.310 -0.7131 -1.7857  2.1185
  148OSM   H11T16378   1.543   4.525   4.354 -1.6942  0.5293  1.4608
  148OSM   C12S16379   1.489   4.328   4.441 -0.2699 -0.6000  0.0294
  148OSM   H12S16380   1.444   4.360   4.537  0.8804 -1.5016  0.8821
  148OSM   H12T16381   1.593   4.291   4.451 -0.1737  0.1080  2.0978
  148OSM   C13S16382   1.412   4.200   4.399  0.4616 -0.0493 -0.5928
  148OSM   H13S16383   1.465   4.163   4.308  1.4776 -2.1691  0.7810
  148OSM   H13T16384   1.302   4.209   4.385  0.2731 -1.0329  0.1493
  148OSM   C14S16385   1.435   4.089   4.500 -0.5389 -0.6613  0.2141
  148OSM   H14S16386   1.390   4.113   4.598 -0.5693 -4.3766  1.2218
  148OSM   H14T16387   1.545   4.079   4.514 -0.4434 -0.3838 -0.3094
  148OSM   C15S16388   1.375   3.951   4.446 -0.9016  0.0487 -0.2679
  148OSM   H15S16389   1.393   3.935   4.338  2.5296 -1.3213  0.3677
  148OSM   H15T16390   1.268   3.950   4.475 -0.8052 -0.6912  0.0787
  148OSM   C16S16391   1.453   3.829   4.511 -0.0941  0.1215  0.4030
  148OSM   H16S16392   1.559   3.861   4.498  0.1035 -0.1466  1.2857
  148OSM   H16T16393   1.435   3.726   4.474 -0.7898 -0.6790  2.7849
  148OSM   C17S16394   1.437   3.821   4.667 -0.8857  1.5878 -0.2508
  148OSM   H17S16395   1.347   3.759   4.685 -1.1783  2.0599 -0.0660
  148OSM   H17T16396   1.426   3.920   4.717 -0.5244  0.5114  2.1171
  148OSM   C18S16397   1.556   3.754   4.737  0.4422  0.8713 -0.0936
  148OSM   H18S16398   1.540   3.720   4.841 -0.7675  0.7539 -0.3130
  148OSM   H18T16399   1.645   3.821   4.730  0.5348  0.6261 -1.6084
  148OSM   H18U16400   1.572   3.666   4.672  0.5886  0.0548  1.0232
  148OSM    C1F16401   1.102   4.798   3.768  0.5563 -0.2524  0.0508
  148OSM     OF16402   0.993   4.747   3.748  0.6413 -0.0551  0.2359
  148OSM    C2F16403   1.135   4.850   3.911  1.0192  0.3237  0.0621
  148OSM    H2F16404   1.221   4.920   3.909 -0.0854  1.7555  1.0862
  148OSM    H2G16405   1.175   4.760   3.964 -0.7988 -1.1239 -0.8915
  148OSM    C3F16406   1.006   4.894   3.992 -0.3270  0.0419 -0.0190
  148OSM    H3F16407   0.925   4.822   3.964 -0.9589  0.4624  0.6871
  148OSM    H3G16408   0.970   4.992   3.954 -1.3424 -0.9671 -1.8288
  148OSM    C4F16409   1.029   4.900   4.138  0.3482  0.5472 -0.5437
  148OSM    H4F16410   1.118   4.958   4.170  1.9559 -1.4458 -1.1789
  148OSM    H4G16411   1.057   4.795   4.159  0.8583  0.6285 -0.8157
  148OSM    C5F16412   0.901   4.938   4.211  0.2813 -0.1949  0.4612
  148OSM    H5F16413   0.817   4.869   4.190 -0.0124  0.6099 -1.0977
  148OSM    H5G16414   0.879   5.040   4.173 -0.0330  0.3432  2.0163
  148OSM    C6F16415   0.923   4.960   4.362 -0.1194  0.0369  0.4940
  148OSM    H6F16416   0.835   5.019   4.395  0.1566 -0.7368  2.8004
  148OSM    H6G16417   1.013   5.022   4.383 -0.8656  0.5064  2.5530
  148OSM    C7F16418   0.940   4.828   4.446 -0.4240  0.2775  0.1605
  148OSM    H7F16419   1.011   4.763   4.392  0.1344  1.7489 -0.9233
  148OSM    H7G16420   0.846   4.768   4.445  0.9749 -2.0275 -0.2523
  148OSM    C8F16421   0.988   4.850   4.589  0.2740  0.5078  0.7624
  148OSM    H8F16422   1.068   4.927   4.579  1.2684 -0.5883 -0.0007
  148OSM    H8G16423   1.049   4.761   4.615 -0.9913 -0.8928 -0.8357
  148OSM    C9F16424   0.887   4.888   4.691 -0.2834  0.6740  0.2321
  148OSM    H9F16425   0.827   4.806   4.732 -1.8145  2.2696  1.2854
  148OSM   C10F16426   0.869   5.012   4.733  0.8997  0.8470  0.1855
  148OSM   H10F16427   0.798   5.032   4.815  1.1603 -1.3558  1.0293
  148OSM   C11F16428   0.945   5.136   4.692  0.7999  0.8093  0.3111
  148OSM   H11F16429   1.016   5.127   4.607  0.8862  3.3158  0.0567
  148OSM   H11G16430   0.996   5.189   4.775  2.1952 -0.3864  0.2519
  148OSM   C12F16431   0.857   5.248   4.636 -0.3404 -0.4436  0.1582
  148OSM   H12F16432   0.768   5.267   4.700 -0.6498  2.4126 -0.9655
  148OSM   H12G16433   0.826   5.213   4.535 -1.3647  0.9204 -0.0299
  148OSM   C13F16434   0.928   5.388   4.621 -0.2325 -0.7868 -0.2846
  148OSM   H13F16435   1.037   5.374   4.601  0.0612 -0.9581  1.2466
  148OSM   H13G16436   0.923   5.436   4.722  1.4416 -0.7505 -0.1779
  148OSM   C14F16437   0.847   5.467   4.512  0.1232 -0.2352 -0.7574
  148OSM   H14F16438   0.745   5.491   4.548  1.0241 -0.6922  2.4269
  148OSM   H14G16439   0.849   5.401   4.422 -0.3546 -0.5704 -0.5290
  148OSM   C15F16440   0.915   5.600   4.470 -0.0751 -0.0183  0.3548
  148OSM   H15F16441   1.025   5.599   4.487 -0.2438  0.0815  1.5497
  148OSM   H15G16442   0.882   5.687   4.531 -2.6962  0.7735 -1.9414
  148OSM   C16F16443   0.895   5.622   4.319 -0.9094  0.6538  0.2685
  148OSM   H16F16444   0.790   5.611   4.286 -1.0858 -0.3336  1.1001
  148OSM   H16G16445   0.969   5.557   4.268 -0.0787 -0.0243  2.2272
  148OSM   C17F16446   0.934   5.763   4.278  0.0078 -0.7232  0.7539
  148OSM   H17F16447   0.916   5.784   4.171 -0.9311 -1.3942  0.7656
  148OSM   H17G16448   1.044   5.763   4.297 -0.0345 -2.3757  1.2000
  148OSM   C18F16449   0.857   5.876   4.347  0.1369 -0.2078  0.0568
  148OSM   H18F16450   0.749   5.858   4.330  0.2403  0.6789 -1.8099
  148OSM   H18G16451   0.878   5.974   4.299  1.5648  0.2441  1.5314
  148OSM   H18H16452   0.878   5.898   4.454  0.7208 -0.9750  0.1071
  149OSM      N16453   0.965   2.453   2.528 -0.4713 -0.6055 -0.0444
  149OSM    C1516454   1.072   2.536   2.459 -0.2766 -0.3666 -0.5130
  149OSM   H15A16455   1.129   2.485   2.383 -1.4024 -2.0275 -0.2952
  149OSM   H15B16456   1.147   2.581   2.522 -0.0924  0.2490 -1.1527
  149OSM   H15C16457   1.018   2.616   2.411  0.7993  1.1622  0.7183
  149OSM    C1416458   0.872   2.379   2.436 -0.4504  0.1271 -0.7324
  149OSM   H14A16459   0.829   2.454   2.371  2.4473  1.5180 -1.2116
  149OSM   H14B16460   0.790   2.326   2.482  0.4085 -1.2835 -0.7912
  149OSM   H14C16461   0.930   2.304   2.385  1.2617 -0.2230  1.5515
  149OSM    C1316462   1.027   2.355   2.617 -0.2930  0.2785 -0.3950
  149OSM   H13A16463   1.104   2.310   2.555  0.5337  0.9495  0.1222
  149OSM   H13B16464   0.955   2.280   2.648  0.0554 -0.2035 -0.7304
  149OSM   H13C16465   1.080   2.398   2.700  2.4535  1.0887 -2.4187
  149OSM    C1216466   0.901   2.546   2.622  0.5515  0.2811 -0.1185
  149OSM   H12A16467   0.871   2.631   2.564  0.4204 -1.3145 -2.5506
  149OSM   H12B16468   0.980   2.576   2.689  1.3055  0.8266 -1.2269
  149OSM    C1116469   0.769   2.498   2.695  0.4137 -0.2399 -0.1085
  149OSM   H11A16470   0.690   2.454   2.629 -3.5538  1.1785  3.2742
  149OSM   H11B16471   0.715   2.584   2.739 -0.0432 -1.4531  1.8211
  149OSM      P16472   0.876   2.449   2.939  0.0378 -0.1111  0.3487
  149OSM    O1316473   0.822   2.365   3.048 -0.0162 -0.5210  0.0840
  149OSM    O1416474   1.022   2.435   2.914  0.0187  0.2094  0.4368
  149OSM    O1116475   0.852   2.603   2.969 -0.1922  0.0744  0.1918
  149OSM    O1216476   0.794   2.407   2.808  0.2257 -0.1417 -0.0949
  149OSM    C1S16477   0.747   2.654   3.055 -0.2663 -0.3117 -0.4008
  149OSM    H1S16478   0.658   2.590   3.038 -1.6366  0.9852  1.4629
  149OSM    H1T16479   0.718   2.756   3.021  0.7241  0.0407 -0.2088
  149OSM     NF16480   0.669   2.706   3.285 -0.1325  0.2813  0.2165
  149OSM    HNF16481   0.659   2.791   3.337 -0.0108  0.1811  0.4059
  149OSM    C2S16482   0.789   2.672   3.207 -0.0290 -0.7746  0.5032
  149OSM    H2S16483   0.825   2.575   3.247  2.2779 -0.1569  0.1020
  149OSM    C3S16484   0.921   2.761   3.223  0.3564  0.3958  0.6252
  149OSM    H3S16485   0.891   2.858   3.178  1.0488  0.2383 -0.2005
  149OSM     O316486   1.034   2.703   3.156 -0.1217  0.1178 -1.0819
  149OSM    HO316487   0.996   2.655   3.082  0.2225 -0.4782 -0.8772
  149OSM    C4S16488   0.943   2.781   3.374 -0.3320 -0.1788 -0.5176
  149OSM    H4S16489   0.911   2.878   3.415  1.2830 -0.5535  1.8044
  149OSM    C5S16490   1.019   2.708   3.456 -0.4005  0.3655  0.4347
  149OSM    H5S16491   1.047   2.608   3.420 -0.8032  1.1862 -2.4132
  149OSM    C6S16492   1.039   2.734   3.605  0.7385  0.1600  0.8121
  149OSM    H6S16493   1.136   2.788   3.613 -0.1815  2.0553 -0.0673
  149OSM    H6T16494   1.047   2.634   3.651 -0.0609  0.2026  1.0579
  149OSM    C7S16495   0.923   2.795   3.681  0.6023  0.0318  0.1462
  149OSM    H7S16496   0.832   2.733   3.669  1.5660 -1.1845 -1.2782
  149OSM    H7T16497   0.890   2.891   3.634  0.3597 -0.2284 -0.2192
  149OSM    C8S16498   0.944   2.795   3.833 -0.0969 -1.1909  0.3768
  149OSM    H8S16499   1.024   2.869   3.854  1.3592 -2.4652 -0.4542
  149OSM    H8T16500   0.965   2.689   3.858  0.4273 -1.4444 -1.0234
  149OSM    C9S16501   0.810   2.836   3.910 -0.4629  0.4533 -0.4524
  149OSM    H9S16502   0.750   2.746   3.882  0.4779  0.1161 -1.5144
  149OSM    H9T16503   0.760   2.930   3.877 -0.0473  0.7153 -0.3410
  149OSM   C10S16504   0.834   2.842   4.068 -0.5000 -0.4209  0.6897
  149OSM   H10S16505   0.866   2.947   4.086 -2.6048  0.4125 -0.0712
  149OSM   H10T16506   0.916   2.777   4.107 -0.5979 -1.6554 -1.0585
  149OSM   C11S16507   0.710   2.817   4.153 -0.0483  0.1578  0.0474
  149OSM   H11S16508   0.699   2.708   4.141 -0.7003  0.2729 -0.4223
  149OSM   H11T16509   0.617   2.872   4.129  0.6525  0.4975 -2.1222
  149OSM   C12S16510   0.730   2.858   4.301 -0.0147  0.2509  0.2809
  149OSM   H12S16511   0.708   2.967   4.306 -0.2099  0.3409 -1.6732
  149OSM   H12T16512   0.832   2.844   4.342 -1.3085  0.1392  3.8510
  149OSM   C13S16513   0.626   2.780   4.384 -0.1800 -0.2466  0.5062
  149OSM   H13S16514   0.653   2.676   4.356  3.6466  0.2628  1.7306
  149OSM   H13T16515   0.521   2.798   4.353  0.5064  1.0821 -1.2206
  149OSM   C14S16516   0.644   2.796   4.537  0.7960 -0.1836 -0.0076
  149OSM   H14S16517   0.642   2.905   4.559 -1.5459 -0.6248  2.5346
  149OSM   H14T16518   0.750   2.771   4.559  1.3655  1.1688 -1.1210
  149OSM   C15S16519   0.546   2.722   4.621 -0.1794  0.0982  0.6991
  149OSM   H15S16520   0.570   2.615   4.600  1.5486  0.8508 -1.5845
  149OSM   H15T16521   0.441   2.731   4.586 -0.3774 -0.4715  1.1152
  149OSM   C16S16522   0.537   2.761   4.770  0.1737  1.1294 -0.0301
  149OSM   H16S16523   0.531   2.869   4.794  2.2924  0.9994  1.3148
  149OSM   H16T16524   0.636   2.738   4.815 -0.8646  0.0768  1.8417
  149OSM   C17S16525   0.434   2.690   4.855 -0.8810  0.4286 -0.3374
  149OSM   H17S16526   0.460   2.712   4.960  1.3466 -0.0722 -0.7392
  149OSM   H17T16527   0.450   2.580   4.855  2.1006  0.7791 -0.1240
  149OSM   C18S16528   0.290   2.729   4.826  0.0767  0.6275 -0.8707
  149OSM   H18S16529   0.224   2.713   4.914  2.1256  2.5499  1.1418
  149OSM   H18T16530   0.252   2.652   4.755 -0.3094 -0.7209  0.7242
  149OSM   H18U16531   0.273   2.831   4.787  0.9196  0.2662 -2.2624
  149OSM    C1F16532   0.561   2.627   3.300 -0.5109 -0.2322 -0.0684
  149OSM     OF16533   0.547   2.523   3.242  0.4075 -0.7835  0.2792
  149OSM    C2F16534   0.458   2.671   3.403 -0.0127 -0.0089  0.3137
  149OSM    H2F16535   0.386   2.727   3.339 -2.2148 -2.3265  0.5750
  149OSM    H2G16536   0.515   2.718   3.486  2.2263 -0.2569 -1.0203
  149OSM    C3F16537   0.385   2.555   3.465  0.1175  0.6972 -0.8047
  149OSM    H3F16538   0.462   2.492   3.514 -0.5145  1.1375  0.8260
  149OSM    H3G16539   0.331   2.490   3.393 -2.9792  1.3590  0.7489
  149OSM    C4F16540   0.286   2.604   3.571  0.0571  0.1873  0.1262
  149OSM    H4F16541   0.205   2.661   3.522 -1.8270 -0.9677  1.7481
  149OSM    H4G16542   0.338   2.671   3.644 -0.8109  1.4387 -0.3727
  149OSM    C5F16543   0.220   2.483   3.643 -0.8278  0.4421 -0.3007
  149OSM    H5F16544   0.300   2.429   3.697  0.2820 -0.0024 -2.2967
  149OSM    H5G16545   0.159   2.432   3.566  0.3637  2.4154 -2.6970
  149OSM    C6F16546   0.113   2.536   3.744 -0.6949 -0.1434 -0.9495
  149OSM    H6F16547   0.055   2.449   3.781  2.3470 -1.9744 -0.1067
  149OSM    H6G16548   0.040   2.599   3.689 -0.0281 -0.8664 -2.7438
  149OSM    C7F16549   0.156   2.613   3.868  0.3741  0.0487  0.1375
  149OSM    H7F16550   0.074   2.621   3.942  2.7514  1.4239  2.8420
  149OSM    H7G16551   0.188   2.717   3.846  0.4551 -0.0963 -0.4468
  149OSM    C8F16552   0.272   2.546   3.939  0.2629 -0.8011 -0.3560
  149OSM    H8F16553   0.359   2.562   3.871  0.7038  0.3876  0.4548
  149OSM    H8G16554   0.259   2.436   3.943  1.3747 -1.0202 -1.8507
  149OSM    C9F16555   0.310   2.605   4.073 -0.9521  0.2560  0.0028
  149OSM    H9F16556   0.346   2.707   4.055 -2.8958  0.9225 -0.3857
  149OSM   C10F16557   0.304   2.554   4.200 -0.0115  0.0062  1.1183
  149OSM   H10F16558   0.356   2.604   4.283  1.9848 -0.2896  0.1143
  149OSM   C11F16559   0.237   2.425   4.224  0.5716  0.0241 -0.9409
  149OSM   H11F16560   0.316   2.353   4.255 -1.4232 -2.3554 -1.1048
  149OSM   H11G16561   0.192   2.380   4.133  0.0249 -2.2807  0.3793
  149OSM   C12F16562   0.140   2.440   4.338  0.0667 -0.4439  0.1472
  149OSM   H12F16563   0.106   2.544   4.357 -2.5330 -1.5631  2.2065
  149OSM   H12G16564   0.197   2.400   4.425  1.4498 -0.1531 -0.6012
  149OSM   C13F16565   0.013   2.362   4.331  0.5202  0.5076  0.1890
  149OSM   H13F16566  -0.043   2.364   4.426 -0.8607  0.5328 -0.5982
  149OSM   H13G16567   0.035   2.254   4.312  1.9701  0.7763  0.2445
  149OSM   C14F16568  -0.078   2.422   4.229 -0.2553 -0.6084 -0.0414
  149OSM   H14F16569  -0.019   2.433   4.135  1.1402 -2.0461  0.6285
  149OSM   H14G16570  -0.126   2.516   4.263  0.7198 -0.1301  0.0221
  149OSM   C15F16571  -0.192   2.324   4.191  0.1577 -0.3223 -1.0737
  149OSM   H15F16572  -0.264   2.303   4.273 -3.0987 -0.1120 -3.6939
  149OSM   H15G16573  -0.150   2.231   4.147 -1.0003 -0.4507 -1.9260
  149OSM   C16F16574  -0.290   2.381   4.093  0.1456  0.1592 -0.4400
  149OSM   H16F16575  -0.349   2.293   4.060  1.5581 -0.5786 -1.0867
  149OSM   H16G16576  -0.226   2.423   4.013 -0.7175  3.6904  0.5622
  149OSM   C17F16577  -0.381   2.492   4.143  0.3162  0.2743  0.1860
  149OSM   H17F16578  -0.334   2.592   4.127  0.4201  0.4125  1.2744
  149OSM   H17G16579  -0.400   2.483   4.252  0.5990  3.3290  0.5750
  149OSM   C18F16580  -0.514   2.486   4.076  0.9862 -0.2166  0.4832
  149OSM   H18F16581  -0.575   2.571   4.114  0.2159  0.1260 -1.3979
  149OSM   H18G16582  -0.568   2.391   4.096 -0.3612  0.2576 -0.6511
  149OSM   H18H16583  -0.510   2.494   3.965  1.5682  0.5823  0.5540
  150OSM      N16584   5.494   3.396   3.054 -0.0610  0.1405  0.0582
  150OSM    C1516585   5.455   3.450   2.923  0.3326  0.0349 -0.0432
  150OSM   H15A16586   5.353   3.429   2.897  0.2981 -0.6995  0.6529
  150OSM   H15B16587   5.514   3.401   2.847  0.6494  2.4385 -1.4504
  150OSM   H15C16588   5.480   3.555   2.917  2.3688 -0.3593  0.6969
  150OSM    C1416589   5.453   3.255   3.047  0.0176 -0.1305  0.4470
  150OSM   H14A16590   5.346   3.241   3.045  0.1751 -1.6900 -2.4966
  150OSM   H14B16591   5.480   3.202   3.137  1.4730  0.5019  0.4213
  150OSM   H14C16592   5.489   3.207   2.957  0.1807  2.4043 -0.9138
  150OSM    C1316593   5.641   3.401   3.066 -0.6270  0.6207 -0.3678
  150OSM   H13A16594   5.674   3.378   2.966  0.8045 -0.0780  0.2500
  150OSM   H13B16595   5.691   3.335   3.134  0.1776 -1.3741 -2.7441
  150OSM   H13C16596   5.678   3.502   3.077 -0.1349  0.3137  0.9608
  150OSM    C1216597   5.429   3.472   3.165 -0.3605 -0.1614 -0.5777
  150OSM   H12A16598   5.464   3.421   3.253 -1.4415 -1.6207 -0.9695
  150OSM   H12B16599   5.322   3.470   3.151 -0.1312  1.2858 -3.0708
  150OSM    C1116600   5.463   3.628   3.166  0.1729 -0.9968  0.2583
  150OSM   H11A16601   5.571   3.655   3.171 -0.4373  1.5628  1.7629
  150OSM   H11B16602   5.420   3.663   3.262 -0.9257  2.5086 -1.3652
  150OSM      P16603   5.437   3.842   3.004  0.0077  0.0695 -0.0737
  150OSM    O1316604   5.554   3.829   2.920 -0.5763  0.0464 -0.2524
  150OSM    O1416605   5.314   3.903   2.946 -0.0271  0.1052 -0.6416
  150OSM    O1116606   5.465   3.934   3.133  0.4849  0.2404  0.3878
  150OSM    O1216607   5.397   3.694   3.056 -0.1722 -0.1295 -0.1718
  150OSM    C1S16608   5.389   3.935   3.251  0.4017  0.0829 -0.1271
  150OSM    H1S16609   5.318   3.850   3.254  0.2158  0.2594  0.6482
  150OSM    H1T16610   5.319   4.020   3.234 -1.8557 -1.5687  0.4842
  150OSM     NF16611   5.384   3.972   3.498  0.5417 -0.4815  0.5344
  150OSM    HNF16612   5.384   4.053   3.556 -0.4165  0.9505 -1.3934
  150OSM    C2S16613   5.467   3.966   3.382  0.5184 -0.3250  0.3719
  150OSM    H2S16614   5.532   3.879   3.407 -0.6639 -1.2812  0.2188
  150OSM    C3S16615   5.554   4.098   3.371 -0.3206  0.0581  0.0259
  150OSM    H3S16616   5.487   4.179   3.335  1.4521  1.0175 -1.3458
  150OSM     O316617   5.650   4.079   3.263  0.2756  0.2245  0.6091
  150OSM    HO316618   5.608   4.010   3.210  1.2363 -0.3625  0.5888
  150OSM    C4S16619   5.623   4.134   3.499  0.2251 -0.9192  0.4759
  150OSM    H4S16620   5.694   4.062   3.543  0.5494 -1.6441 -1.1492
  150OSM    C5S16621   5.614   4.262   3.554 -0.4554 -0.1402 -0.3317
  150OSM    H5S16622   5.560   4.341   3.501  1.3904  1.4019 -0.0387
  150OSM    C6S16623   5.696   4.314   3.669 -0.1517 -0.4276  0.4066
  150OSM    H6S16624   5.766   4.394   3.638  0.4022 -0.9099  0.3991
  150OSM    H6T16625   5.754   4.237   3.725  1.6142  0.4572 -0.1122
  150OSM    C7S16626   5.591   4.368   3.765 -0.0701 -0.9148 -0.1460
  150OSM    H7S16627   5.518   4.287   3.788  0.9999 -1.7390  0.4226
  150OSM    H7T16628   5.542   4.458   3.723  2.5040  0.3857 -0.5842
  150OSM    C8S16629   5.655   4.394   3.901 -0.2308 -0.3265  0.0492
  150OSM    H8S16630   5.735   4.472   3.898  0.5168 -1.0926 -0.1387
  150OSM    H8T16631   5.711   4.306   3.937  0.6701 -0.0313 -0.5940
  150OSM    C9S16632   5.561   4.438   4.016  0.0332  0.2732 -0.1632
  150OSM    H9S16633   5.484   4.360   4.033 -0.1538  0.5779  0.4178
  150OSM    H9T16634   5.493   4.522   3.988 -1.6010 -0.6410  0.9201
  150OSM   C10S16635   5.644   4.459   4.141 -0.8461 -0.5721  0.0598
  150OSM   H10S16636   5.732   4.524   4.124 -0.8547 -1.1492 -2.5384
  150OSM   H10T16637   5.694   4.362   4.161  0.1622 -0.5352 -2.0561
  150OSM   C11S16638   5.571   4.496   4.267  0.3379  0.3184 -0.6813
  150OSM   H11S16639   5.487   4.424   4.273 -1.7641  2.6777 -0.2210
  150OSM   H11T16640   5.520   4.594   4.260 -1.7675 -0.6073  0.8083
  150OSM   C12S16641   5.658   4.482   4.392 -0.3252  0.0443  0.1272
  150OSM   H12S16642   5.746   4.549   4.382 -0.7058  0.4310 -0.7597
  150OSM   H12T16643   5.688   4.375   4.390 -3.5215 -0.9534  0.0518
  150OSM   C13S16644   5.581   4.513   4.516  1.0665 -0.5912  0.1749
  150OSM   H13S16645   5.498   4.441   4.530 -2.0579  2.7443  0.4763
  150OSM   H13T16646   5.542   4.617   4.509  1.9220 -0.3709 -2.1729
  150OSM   C14S16647   5.662   4.499   4.650 -0.0547 -0.0397  0.0743
  150OSM   H14S16648   5.747   4.569   4.637  0.6332 -1.0398 -1.0274
  150OSM   H14T16649   5.702   4.399   4.677 -1.3223 -1.0547 -1.6317
  150OSM   C15S16650   5.575   4.532   4.770  0.4627  0.3367 -0.2334
  150OSM   H15S16651   5.497   4.455   4.791  0.9897  0.1350  1.0641
  150OSM   H15T16652   5.526   4.631   4.757 -2.7582 -0.8221  1.9078
  150OSM   C16S16653   5.660   4.544   4.896  0.3475 -0.3705 -0.4332
  150OSM   H16S16654   5.735   4.626   4.894  0.6251 -0.6303 -0.7368
  150OSM   H16T16655   5.725   4.454   4.891 -1.1556 -1.4743 -0.5831
  150OSM   C17S16656   5.581   4.539   5.023 -0.0312 -0.3415 -0.9433
  150OSM   H17S16657   5.518   4.448   5.027 -1.0455  0.2718 -2.2017
  150OSM   H17T16658   5.511   4.625   5.022  1.6074  1.1081  1.0440
  150OSM   C18S16659   5.672   4.537   5.146  0.9425  0.3092 -0.8189
  150OSM   H18S16660   5.697   4.638   5.185 -0.1631 -0.0037  0.8433
  150OSM   H18T16661   5.767   4.481   5.135  0.7028  0.1162 -2.1104
  150OSM   H18U16662   5.617   4.496   5.234  0.9432 -0.6913 -1.2709
  150OSM    C1F16663   5.311   3.871   3.543 -0.5912  0.1906 -0.2088
  150OSM     OF16664   5.310   3.753   3.497 -0.3478  0.1371  0.3682
  150OSM    C2F16665   5.214   3.918   3.653  0.6719 -0.8948  0.6343
  150OSM    H2F16666   5.109   3.923   3.616  0.1928 -0.3100  2.0084
  150OSM    H2G16667   5.241   4.020   3.688 -1.7846 -0.1692  0.5802
  150OSM    C3F16668   5.203   3.821   3.770  0.5912  0.1818 -0.3228
  150OSM    H3F16669   5.303   3.792   3.810  0.4323 -0.9817 -0.7388
  150OSM    H3G16670   5.167   3.722   3.735  1.7934 -0.7020  0.8277
  150OSM    C4F16671   5.099   3.879   3.873  0.0553 -0.6510 -0.2916
  150OSM    H4F16672   5.008   3.915   3.821 -0.4811 -1.2767  0.1924
  150OSM    H4G16673   5.148   3.964   3.925 -0.2694 -0.4518 -0.3079
  150OSM    C5F16674   5.045   3.770   3.972 -0.0199  0.0448 -0.1205
  150OSM    H5F16675   5.122   3.765   4.053 -0.5428  3.4985  0.7550
  150OSM    H5G16676   5.055   3.675   3.915 -0.2338 -0.8530  1.2913
  150OSM    C6F16677   4.903   3.764   4.021  0.7333 -0.0540  0.7659
  150OSM    H6F16678   4.876   3.678   4.087  0.8877 -1.8991 -1.4577
  150OSM    H6G16679   4.840   3.748   3.931  1.4261 -1.7379  0.5397
  150OSM    C7F16680   4.864   3.893   4.093 -0.4792  0.5269 -0.1760
  150OSM    H7F16681   4.754   3.906   4.094 -0.5022  0.4379  1.6984
  150OSM    H7G16682   4.898   3.984   4.038 -0.2336 -0.5790 -1.9164
  150OSM    C8F16683   4.920   3.892   4.234  0.2987 -0.0213 -0.3436
  150OSM    H8F16684   5.031   3.881   4.237  0.2927 -0.0599 -0.2539
  150OSM    H8G16685   4.875   3.799   4.276  1.1842 -0.4852 -0.3880
  150OSM    C9F16686   4.870   4.015   4.303 -0.4316  0.2383  0.3009
  150OSM    H9F16687   4.864   4.105   4.241  1.4835 -1.1496 -2.1135
  150OSM   C10F16688   4.842   4.014   4.434  0.2698  0.3573  0.4717
  150OSM   H10F16689   4.810   4.113   4.470  2.3486  2.2951 -2.5424
  150OSM   C11F16690   4.872   3.898   4.524 -0.1519  0.3439 -0.0998
  150OSM   H11F16691   4.907   3.804   4.476 -1.8805 -0.7091  0.6285
  150OSM   H11G16692   4.775   3.872   4.571 -0.6851  1.5572 -0.4740
  150OSM   C12F16693   4.971   3.928   4.637 -0.4884  0.8472 -0.1864
  150OSM   H12F16694   5.070   3.961   4.598  0.9565 -0.8120  1.8121
  150OSM   H12G16695   4.996   3.836   4.694 -0.4656  1.3820  0.6924
  150OSM   C13F16696   4.914   4.010   4.752  0.3449 -0.1326 -0.6116
  150OSM   H13F16697   4.835   3.948   4.798  0.5478  0.5880  0.7496
  150OSM   H13G16698   4.883   4.110   4.714  0.6932 -0.2110 -1.1130
  150OSM   C14F16699   5.020   4.030   4.865  0.1400 -0.6372  0.1992
  150OSM   H14F16700   5.110   4.084   4.828 -1.9882  0.1035 -4.6233
  150OSM   H14G16701   5.065   3.933   4.896 -1.4923 -1.3313  0.5285
  150OSM   C15F16702   4.960   4.101   4.987  0.5479  0.1483 -0.5416
  150OSM   H15F16703   5.034   4.090   5.069 -1.5747 -0.1397  1.4672
  150OSM   H15G16704   4.868   4.051   5.024  0.9912 -0.4048 -0.1883
  150OSM   C16F16705   4.925   4.244   4.968 -0.2512 -0.6042  0.2916
  150OSM   H16F16706   4.843   4.240   4.893  1.3569 -1.1974 -1.5132
  150OSM   H16G16707   5.006   4.298   4.914 -0.5960 -0.6118 -0.2375
  150OSM   C17F16708   4.875   4.329   5.090  0.3606 -0.2363  0.6599
  150OSM   H17F16709   4.863   4.434   5.056 -0.7493 -0.0904  1.4248
  150OSM   H17G16710   4.949   4.339   5.172 -0.7409  1.2020  1.5384
  150OSM   C18F16711   4.746   4.282   5.156 -0.4251  0.1982 -0.0965
  150OSM   H18F16712   4.732   4.172   5.155 -3.1741  0.4790  0.0408
  150OSM   H18G16713   4.661   4.326   5.101  0.3999 -1.3729 -2.7794
  150OSM   H18H16714   4.749   4.316   5.262 -1.1724 -0.3893  0.1214
  151OSM      N16715   4.241   2.919   2.515  0.5888 -0.1829  0.8457
  151OSM    C1516716   4.201   2.842   2.391  0.3685 -0.7458  0.4350
  151OSM   H15A16717   4.200   2.890   2.293  2.4892 -2.5058 -0.5198
  151OSM   H15B16718   4.099   2.805   2.397 -0.1276 -0.0862 -2.3852
  151OSM   H15C16719   4.270   2.762   2.368 -0.1960 -0.4656 -2.8324
  151OSM    C1416720   4.378   2.967   2.473  0.4693  0.1271 -0.0213
  151OSM   H14A16721   4.378   3.036   2.390 -1.9543  1.1677  0.7573
  151OSM   H14B16722   4.451   2.892   2.445  2.0766  1.7057 -0.2088
  151OSM   H14C16723   4.425   3.016   2.557  2.1884  0.9298 -1.3883
  151OSM    C1316724   4.153   3.029   2.548  0.1661 -0.3345  0.3292
  151OSM   H13A16725   4.050   3.010   2.577 -0.3992  1.1881 -0.5857
  151OSM   H13B16726   4.155   3.107   2.473 -2.0098 -0.5482 -0.0165
  151OSM   H13C16727   4.191   3.072   2.639  3.3246  0.4776 -1.2397
  151OSM    C1216728   4.248   2.821   2.637 -0.8483 -0.1455  0.1128
  151OSM   H12A16729   4.324   2.747   2.613 -0.1913  1.0411 -1.7104
  151OSM   H12B16730   4.153   2.775   2.661  0.3379 -1.4670  2.7169
  151OSM    C1116731   4.290   2.876   2.777 -0.0848  0.6875  0.0033
  151OSM   H11A16732   4.272   2.798   2.855  2.9810  1.0475  1.2324
  151OSM   H11B16733   4.215   2.953   2.803  0.9141  0.5219  4.1370
  151OSM      P16734   4.539   2.813   2.820 -0.0879  0.1106 -0.0992
  151OSM    O1316735   4.508   2.679   2.766  0.0096 -0.4337 -0.2987
  151OSM    O1416736   4.668   2.869   2.772  0.4984 -0.3129 -0.0392
  151OSM    O1116737   4.546   2.805   2.973 -0.5497  0.3878  0.7567
  151OSM    O1216738   4.424   2.921   2.785  0.0783  0.1966 -0.0604
  151OSM    C1S16739   4.527   2.924   3.048  0.3391 -0.5735  0.0491
  151OSM    H1S16740   4.420   2.955   3.047  1.0745  2.2369 -1.2187
  151OSM    H1T16741   4.592   3.011   3.027 -1.4273  1.0873  1.1415
  151OSM     NF16742   4.520   3.043   3.271  0.3450  0.1529 -0.5497
  151OSM    HNF16743   4.597   3.097   3.303  0.8184 -1.7537  1.8231
  151OSM    C2S16744   4.555   2.911   3.207 -0.0270 -0.5394  0.0083
  151OSM    H2S16745   4.480   2.838   3.246  1.6115 -1.5545  1.3960
  151OSM    C3S16746   4.700   2.849   3.231  0.2260 -0.7650  0.9390
  151OSM    H3S16747   4.771   2.929   3.200 -1.8702  0.6487 -0.5198
  151OSM     O316748   4.737   2.728   3.156  0.3160 -0.0036 -0.1953
  151OSM    HO316749   4.679   2.728   3.079 -2.4899  0.4235  1.8000
  151OSM    C4S16750   4.725   2.836   3.376 -0.9658  0.1207 -0.1424
  151OSM    H4S16751   4.777   2.921   3.422  0.5655  0.0243 -1.5884
  151OSM    C5S16752   4.705   2.722   3.447 -1.0132 -0.0488 -0.4485
  151OSM    H5S16753   4.667   2.634   3.394 -2.2003  0.0313  0.2291
  151OSM    C6S16754   4.731   2.693   3.593 -0.5568 -0.2867 -0.3537
  151OSM    H6S16755   4.807   2.613   3.607 -1.0491 -0.8246 -0.7363
  151OSM    H6T16756   4.634   2.652   3.628 -0.6743  0.0854 -0.2350
  151OSM    C7S16757   4.769   2.814   3.683  0.1352  0.3738  0.8346
  151OSM    H7S16758   4.847   2.877   3.636  0.4300 -1.0368 -0.6611
  151OSM    H7T16759   4.814   2.772   3.776  0.5062 -0.0507  0.4631
  151OSM    C8S16760   4.654   2.903   3.721  0.3957 -0.3595 -0.5132
  151OSM    H8S16761   4.575   2.836   3.763  0.6965  1.2045  2.8769
  151OSM    H8T16762   4.614   2.962   3.636  1.5925 -0.0307 -0.8621
  151OSM    C9S16763   4.685   3.016   3.822 -0.6033 -0.2164 -0.2203
  151OSM    H9S16764   4.599   3.082   3.846  0.1573  0.5155  0.5202
  151OSM    H9T16765   4.756   3.088   3.777 -1.2154  0.6631  0.2083
  151OSM   C10S16766   4.729   2.957   3.958  0.0176  0.0897 -0.0020
  151OSM   H10S16767   4.749   3.043   4.025 -3.4644  1.7272 -0.8935
  151OSM   H10T16768   4.832   2.917   3.940  0.5468  1.8980 -1.2561
  151OSM   C11S16769   4.635   2.866   4.025  0.4129 -0.4431 -0.1932
  151OSM   H11S16770   4.682   2.834   4.120 -0.5579  0.8776  0.7500
  151OSM   H11T16771   4.615   2.783   3.953  3.0582 -1.2365 -0.1143
  151OSM   C12S16772   4.487   2.923   4.048  0.1569  0.7081  0.5965
  151OSM   H12S16773   4.437   2.830   4.084 -1.9361  0.4521 -2.5888
  151OSM   H12T16774   4.449   2.947   3.946  3.1815  0.1826 -0.7571
  151OSM   C13S16775   4.464   3.027   4.158  0.7124 -0.1688  0.3466
  151OSM   H13S16776   4.357   3.055   4.167  1.1384  0.9967  2.4800
  151OSM   H13T16777   4.520   3.121   4.136 -1.2744  0.4350 -2.7303
  151OSM   C14S16778   4.500   2.977   4.299  0.1077 -0.5331 -0.2369
  151OSM   H14S16779   4.604   2.936   4.301 -0.4785 -2.1907  2.6733
  151OSM   H14T16780   4.436   2.889   4.322 -0.1551 -0.4043 -0.4791
  151OSM   C15S16781   4.468   3.094   4.405  0.0251  0.2338  0.4659
  151OSM   H15S16782   4.395   3.160   4.354  1.3991  1.3154 -0.2018
  151OSM   H15T16783   4.569   3.139   4.420 -0.1984  0.4473  1.3305
  151OSM   C16S16784   4.423   3.048   4.539  0.9851  0.3333  0.1568
  151OSM   H16S16785   4.338   2.976   4.530 -2.0495  3.4494  1.4580
  151OSM   H16T16786   4.395   3.143   4.590 -1.3593 -0.2190  0.0154
  151OSM   C17S16787   4.542   2.987   4.621 -0.0557 -0.5435 -0.8293
  151OSM   H17S16788   4.569   3.048   4.710  0.0966 -1.0595 -0.5179
  151OSM   H17T16789   4.634   2.978   4.560  0.5235 -1.4947  0.1341
  151OSM   C18S16790   4.499   2.846   4.675  0.2547  0.1982 -0.0009
  151OSM   H18S16791   4.543   2.814   4.772  0.3594 -0.6464 -0.3186
  151OSM   H18T16792   4.518   2.762   4.605  1.9451 -0.4052  1.1333
  151OSM   H18U16793   4.389   2.845   4.694  0.4500 -0.9945  1.2109
  151OSM    C1F16794   4.404   3.100   3.266 -0.1672 -0.1406  0.0609
  151OSM     OF16795   4.307   3.049   3.221  0.4354  0.0697 -0.2464
  151OSM    C2F16796   4.395   3.246   3.306  0.2357 -0.3154 -0.3924
  151OSM    H2F16797   4.401   3.309   3.215  1.7149  1.4769  0.8668
  151OSM    H2G16798   4.485   3.273   3.364  1.3384 -0.6921 -1.8736
  151OSM    C3F16799   4.267   3.271   3.394 -0.0570 -0.2191  0.2765
  151OSM    H3F16800   4.175   3.243   3.339 -0.0215 -0.2164  0.2156
  151OSM    H3G16801   4.259   3.378   3.424  1.6983 -0.2226  0.9137
  151OSM    C4F16802   4.265   3.194   3.525  0.5351  0.5459 -0.0592
  151OSM    H4F16803   4.360   3.212   3.580  0.3567  1.3692 -0.0066
  151OSM    H4G16804   4.267   3.087   3.496  1.7030  0.8638 -1.2515
  151OSM    C5F16805   4.138   3.235   3.598  0.1015 -0.4068 -0.2317
  151OSM    H5F16806   4.054   3.235   3.525 -2.3653  0.9295  2.3731
  151OSM    H5G16807   4.144   3.341   3.630 -2.1516  0.2272 -1.6178
  151OSM    C6F16808   4.094   3.157   3.722  0.4097  0.0311 -0.4173
  151OSM    H6F16809   4.072   3.049   3.705  3.3921 -0.8164  0.4460
  151OSM    H6G16810   4.007   3.216   3.758  2.4802  2.6041  0.6838
  151OSM    C7F16811   4.189   3.162   3.836 -0.5333 -0.6361 -0.1734
  151OSM    H7F16812   4.245   3.257   3.826  0.9415 -1.5133 -0.4904
  151OSM    H7G16813   4.277   3.096   3.823  0.5748  0.6084  0.7524
  151OSM    C8F16814   4.127   3.150   3.977  0.0430 -0.6681  1.4519
  151OSM    H8F16815   4.067   3.242   3.995  0.5325  0.2599 -1.2727
  151OSM    H8G16816   4.220   3.149   4.038 -0.2457  1.6962  2.0375
  151OSM    C9F16817   4.055   3.020   4.017  0.4232  0.4449 -0.4431
  151OSM    H9F16818   4.109   2.925   4.002  0.3917  0.6238 -1.8751
  151OSM   C10F16819   3.930   3.018   4.067 -0.5672  0.0719 -0.5441
  151OSM   H10F16820   3.877   2.923   4.085 -1.6498  0.8914  0.7996
  151OSM   C11F16821   3.845   3.139   4.089  0.3867 -0.3625 -0.9513
  151OSM   H11F16822   3.906   3.230   4.107  1.7166 -1.3975 -0.0210
  151OSM   H11G16823   3.790   3.111   4.182  2.2264 -0.0652  0.2730
  151OSM   C12F16824   3.759   3.167   3.970 -0.1848  0.3918 -0.2493
  151OSM   H12F16825   3.692   3.085   3.936 -0.7283  1.0306 -0.7436
  151OSM   H12G16826   3.818   3.187   3.878  0.0498 -2.2110 -0.7606
  151OSM   C13F16827   3.670   3.294   3.987 -0.7131  0.1503 -0.5457
  151OSM   H13F16828   3.643   3.318   3.882 -0.7162  4.8119  0.2866
  151OSM   H13G16829   3.712   3.391   4.020 -2.0950 -0.2232  2.7208
  151OSM   C14F16830   3.546   3.267   4.064  0.5333 -0.2427  0.1995
  151OSM   H14F16831   3.550   3.354   4.133 -0.6869  1.7073 -2.0587
  151OSM   H14G16832   3.550   3.171   4.119  1.8754  0.9614  2.3093
  151OSM   C15F16833   3.411   3.283   3.988  0.2187 -0.5057  0.2329
  151OSM   H15F16834   3.428   3.314   3.882 -2.4886 -2.2244 -0.8120
  151OSM   H15G16835   3.370   3.370   4.045 -1.4817 -2.0218  1.4194
  151OSM   C16F16836   3.312   3.163   3.999 -0.3769  0.2178  0.0623
  151OSM   H16F16837   3.219   3.186   3.943 -0.1878 -0.1682 -0.4199
  151OSM   H16G16838   3.287   3.147   4.106 -0.5965 -0.0721 -0.0297
  151OSM   C17F16839   3.371   3.035   3.949 -0.3411 -0.2235 -0.5442
  151OSM   H17F16840   3.468   3.010   3.995 -1.4222  0.3580  2.2203
  151OSM   H17G16841   3.397   3.048   3.841 -0.0231 -0.8710 -0.5477
  151OSM   C18F16842   3.279   2.916   3.957 -0.9338  0.3660  0.3329
  151OSM   H18F16843   3.175   2.950   3.939 -0.5972  1.9827  1.2735
  151OSM   H18G16844   3.270   2.869   4.058  1.2097  0.6918  0.7134
  151OSM   H18H16845   3.308   2.832   3.891 -0.6003 -0.2091  1.1916
  152OSM      N16846   4.672   0.019   2.321 -0.0761  0.6459 -0.1575
  152OSM    C1516847   4.814  -0.030   2.352 -0.4019  0.2467 -1.2288
  152OSM   H15A16848   4.823  -0.131   2.387  0.8054  1.2272  1.5792
  152OSM   H15B16849   4.853   0.023   2.438  1.9806 -2.2153 -0.6490
  152OSM   H15C16850   4.874  -0.014   2.263  0.2398 -3.2083 -1.5308
  152OSM    C1416851   4.678   0.149   2.248 -0.5081  0.0464  0.3122
  152OSM   H14A16852   4.712   0.228   2.313  1.1774  1.0972 -1.7748
  152OSM   H14B16853   4.588   0.179   2.196  1.0099  0.6215 -2.1326
  152OSM   H14C16854   4.746   0.156   2.165  0.5084  0.4571  1.1471
  152OSM    C1316855   4.593  -0.086   2.244 -0.6220 -0.0405  0.1670
  152OSM   H13A16856   4.641  -0.111   2.151  1.6316 -1.6273  1.6423
  152OSM   H13B16857   4.496  -0.048   2.216 -0.8283 -0.5419  0.1885
  152OSM   H13C16858   4.592  -0.187   2.283 -1.9104 -0.6765 -1.4024
  152OSM    C1216859   4.596   0.031   2.451 -0.2755 -0.4397  0.0176
  152OSM   H12A16860   4.609  -0.066   2.497  1.6274 -0.4966 -0.5308
  152OSM   H12B16861   4.492   0.043   2.424 -0.4377 -2.1878 -0.2479
  152OSM    C1116862   4.634   0.147   2.549  0.2211  0.1019 -0.0909
  152OSM   H11A16863   4.744   0.144   2.560  0.0669 -2.0586  1.6092
  152OSM   H11B16864   4.602   0.112   2.649 -0.3774 -0.0036 -0.3162
  152OSM      P16865   4.448   0.327   2.515  0.1488 -0.0808 -0.1197
  152OSM    O1316866   4.443   0.469   2.477 -0.2221  0.4920 -0.7850
  152OSM    O1416867   4.353   0.223   2.452 -0.0167 -0.2360 -0.2610
  152OSM    O1116868   4.432   0.315   2.672 -0.4738  0.0393  0.4459
  152OSM    O1216869   4.594   0.278   2.504  0.2948 -0.0105  0.5286
  152OSM    C1S16870   4.518   0.402   2.755 -0.1872 -0.4826  0.5757
  152OSM    H1S16871   4.506   0.508   2.723  1.9387 -0.5783 -0.7020
  152OSM    H1T16872   4.626   0.382   2.740  0.3046  1.3083  1.4513
  152OSM     NF16873   4.560   0.480   2.995  0.1627  0.0140 -0.3600
  152OSM    HNF16874   4.641   0.444   3.041  0.8641  1.4831 -0.3888
  152OSM    C2S16875   4.487   0.391   2.912 -0.1493  0.1952  0.1794
  152OSM    H2S16876   4.379   0.413   2.925 -0.5497 -1.5473  0.0368
  152OSM    C3S16877   4.502   0.237   2.954 -0.0004 -0.0702 -0.2954
  152OSM    H3S16878   4.609   0.210   2.948 -0.5040 -2.0913 -0.8814
  152OSM     O316879   4.439   0.146   2.865  1.4095  0.0867  0.4643
  152OSM    HO316880   4.412   0.206   2.795  1.1584 -0.0838  0.4182
  152OSM    C4S16881   4.461   0.207   3.096  0.9517  0.3794  0.5651
  152OSM    H4S16882   4.540   0.244   3.164  0.9443  1.1401  0.1698
  152OSM    C5S16883   4.343   0.142   3.137 -0.3762  0.3733 -0.0774
  152OSM    H5S16884   4.270   0.112   3.061  1.9737 -3.0502 -1.2734
  152OSM    C6S16885   4.319   0.134   3.286  0.6796 -0.0715 -0.6272
  152OSM    H6S16886   4.267   0.038   3.306  1.7270 -0.9186 -1.8477
  152OSM    H6T16887   4.256   0.218   3.322  3.2233  1.4831  0.4756
  152OSM    C7S16888   4.443   0.140   3.381  0.2767  0.2615 -0.2979
  152OSM    H7S16889   4.486   0.242   3.371  0.1323  0.1604 -2.5703
  152OSM    H7T16890   4.516   0.063   3.348 -1.4118 -1.1047 -1.0004
  152OSM    C8S16891   4.405   0.097   3.528  0.1232 -0.2353 -0.6305
  152OSM    H8S16892   4.493   0.128   3.588  0.6994 -1.2000 -0.9556
  152OSM    H8T16893   4.397  -0.013   3.544 -2.3729 -0.1019 -0.5776
  152OSM    C9S16894   4.288   0.179   3.582 -0.5121 -0.4275 -0.0721
  152OSM    H9S16895   4.199   0.138   3.531 -0.0660  0.1203 -1.3454
  152OSM    H9T16896   4.300   0.285   3.549 -1.4370 -0.4158 -0.3852
  152OSM   C10S16897   4.276   0.159   3.725  0.0235 -0.2836 -0.4005
  152OSM   H10S16898   4.375   0.159   3.775  0.8361 -2.8725 -1.8077
  152OSM   H10T16899   4.230   0.059   3.744 -0.4366 -1.0476 -4.5201
  152OSM   C11S16900   4.198   0.274   3.798  0.1135  0.0686  0.0369
  152OSM   H11S16901   4.104   0.287   3.739  1.5920 -1.0221 -2.7375
  152OSM   H11T16902   4.263   0.363   3.786  1.0489 -0.6688 -0.5239
  152OSM   C12S16903   4.181   0.250   3.953 -0.1172  0.0244  0.0748
  152OSM   H12S16904   4.280   0.211   3.987 -0.1114 -0.5502 -0.5990
  152OSM   H12T16905   4.107   0.168   3.966  0.9320 -0.8655  0.5863
  152OSM   C13S16906   4.140   0.377   4.022 -1.0231 -0.1549 -0.6810
  152OSM   H13S16907   4.048   0.408   3.967 -0.2091  2.6807 -0.5731
  152OSM   H13T16908   4.206   0.466   4.020  1.0408 -1.5121  1.9028
  152OSM   C14S16909   4.093   0.372   4.170  0.2843 -0.1451 -0.1449
  152OSM   H14S16910   4.040   0.275   4.188 -1.5561  0.4189 -2.1119
  152OSM   H14T16911   4.014   0.450   4.170  1.1961  0.8542 -2.2900
  152OSM   C15S16912   4.205   0.420   4.271  0.0190 -0.3187  0.3310
  152OSM   H15S16913   4.252   0.514   4.233  0.1098 -0.9850 -1.2875
  152OSM   H15T16914   4.279   0.338   4.277 -1.1417 -1.3239  1.3351
  152OSM   C16S16915   4.158   0.452   4.409  0.9626  0.3384  0.7576
  152OSM   H16S16916   4.075   0.379   4.422 -0.1052  0.7730 -2.6433
  152OSM   H16T16917   4.106   0.550   4.417  1.0301  0.6412 -1.6328
  152OSM   C17S16918   4.259   0.442   4.524  0.3519  0.1087  0.5321
  152OSM   H17S16919   4.311   0.344   4.528  2.8284  1.3632  0.7883
  152OSM   H17T16920   4.209   0.455   4.622  1.5444  1.4322  1.0027
  152OSM   C18S16921   4.369   0.546   4.504 -0.1423 -0.1700 -0.5529
  152OSM   H18S16922   4.429   0.534   4.411  0.3324  0.8241 -0.4016
  152OSM   H18T16923   4.436   0.535   4.592 -0.4682  1.4063 -0.0706
  152OSM   H18U16924   4.329   0.649   4.519 -0.9550 -0.5855  0.2436
  152OSM    C1F16925   4.539   0.612   2.991  0.4551 -0.1150  0.4833
  152OSM     OF16926   4.475   0.668   2.905  0.4290 -0.0012 -0.0135
  152OSM    C2F16927   4.592   0.681   3.112  0.5656 -0.5803 -0.2689
  152OSM    H2F16928   4.698   0.652   3.125  1.0746  1.0859 -0.3917
  152OSM    H2G16929   4.528   0.652   3.198  0.6043 -0.5519 -0.2300
  152OSM    C3F16930   4.591   0.834   3.087 -0.5886 -0.0512 -0.4916
  152OSM    H3F16931   4.491   0.877   3.067 -0.9620  0.0234  1.3706
  152OSM    H3G16932   4.655   0.872   3.004 -1.2004  0.2414 -0.8343
  152OSM    C4F16933   4.645   0.912   3.207  0.2182 -0.3080  0.4270
  152OSM    H4F16934   4.578   0.886   3.292 -0.6861  1.5880  0.3573
  152OSM    H4G16935   4.636   1.023   3.201 -0.0858 -0.3384  0.2888
  152OSM    C5F16936   4.790   0.873   3.249  0.2493  0.1773  0.3982
  152OSM    H5F16937   4.854   0.868   3.158  0.7419  1.1109  0.6694
  152OSM    H5G16938   4.806   0.770   3.287 -1.4168 -0.2789 -0.0837
  152OSM    C6F16939   4.861   0.979   3.333 -0.2349  0.5173  0.4491
  152OSM    H6F16940   4.874   1.071   3.273  4.3497  0.3904  0.8557
  152OSM    H6G16941   4.964   0.942   3.354  0.4269  1.5175 -0.8902
  152OSM    C7F16942   4.791   1.012   3.472 -0.0179  0.0910  0.4704
  152OSM    H7F16943   4.700   1.072   3.450 -0.3988 -0.3293  0.9034
  152OSM    H7G16944   4.859   1.077   3.531  1.2336 -1.0279  0.2940
  152OSM    C8F16945   4.751   0.896   3.564 -0.6000 -0.2324 -0.4886
  152OSM    H8F16946   4.711   0.818   3.496  0.6198 -0.8032 -0.5733
  152OSM    H8G16947   4.682   0.940   3.639 -0.2714 -2.1309  1.0179
  152OSM    C9F16948   4.883   0.848   3.636 -0.1945  0.7886 -0.3141
  152OSM    H9F16949   4.940   0.767   3.588  0.4369  0.8278  0.3603
  152OSM   C10F16950   4.927   0.899   3.756  0.0390 -0.2477 -0.2696
  152OSM   H10F16951   5.012   0.847   3.803 -0.9197 -2.9401 -1.3273
  152OSM   C11F16952   4.863   1.011   3.840  0.1343 -0.4158  1.1273
  152OSM   H11F16953   4.809   1.079   3.771  1.1705 -1.1153 -0.4378
  152OSM   H11G16954   4.938   1.071   3.896  1.3818 -0.7594 -0.1094
  152OSM   C12F16955   4.767   0.947   3.936  0.5214  0.1701  0.0738
  152OSM   H12F16956   4.691   0.887   3.882 -0.5863  1.1572  0.4670
  152OSM   H12G16957   4.713   1.029   3.989  2.3232  1.0420  0.6370
  152OSM   C13F16958   4.826   0.853   4.042 -0.6278  0.3291  0.7178
  152OSM   H13F16959   4.882   0.771   3.992  1.6616  0.4659  2.8373
  152OSM   H13G16960   4.739   0.797   4.082 -0.7921  0.4970  0.5980
  152OSM   C14F16961   4.910   0.914   4.153 -0.3677  0.0737 -0.3918
  152OSM   H14F16962   4.847   0.991   4.203  0.6078 -1.0225  2.7929
  152OSM   H14G16963   5.002   0.966   4.117  0.8318 -1.5579  0.2336
  152OSM   C15F16964   4.950   0.819   4.260 -0.2617  0.5702 -0.3649
  152OSM   H15F16965   5.001   0.733   4.211  2.1510  0.3889  2.2413
  152OSM   H15G16966   4.856   0.787   4.310 -0.3218  0.7678 -0.3505
  152OSM   C16F16967   5.045   0.871   4.370  0.4355  0.6879  0.2310
  152OSM   H16F16968   4.988   0.940   4.436  0.3754  0.5190  0.3552
  152OSM   H16G16969   5.124   0.927   4.316 -0.9640  0.4842 -2.1745
  152OSM   C17F16970   5.128   0.768   4.446 -0.4005 -0.0923  0.6361
  152OSM   H17F16971   5.219   0.820   4.482  0.9379 -1.4135 -0.7425
  152OSM   H17G16972   5.153   0.696   4.366  2.8900  0.5972  0.9003
  152OSM   C18F16973   5.071   0.696   4.565  0.7928  0.4408 -0.6739
  152OSM   H18F16974   5.017   0.765   4.634  0.8810 -0.4715  0.3474
  152OSM   H18G16975   5.146   0.635   4.619 -0.2866 -1.3266 -1.0830
  152OSM   H18H16976   4.997   0.629   4.515 -0.9421  0.8691  1.1717
  153OSM      N16977   2.908   5.811   2.756 -1.0666 -0.6094 -0.1363
  153OSM    C1516978   3.045   5.831   2.698 -0.7362 -1.0120  0.4775
  153OSM   H15A16979   3.087   5.928   2.718  0.9053 -1.7891  0.9954
  153OSM   H15B16980   3.033   5.828   2.591  0.4270  0.0997  0.2890
  153OSM   H15C16981   3.113   5.751   2.724  0.6936 -0.2802 -0.8630
  153OSM    C1416982   2.824   5.936   2.732 -0.2378 -0.0356 -0.7951
  153OSM   H14A16983   2.722   5.913   2.759 -0.1884  0.2952 -0.3093
  153OSM   H14B16984   2.842   5.972   2.631 -0.1170 -0.8236 -1.0616
  153OSM   H14C16985   2.853   6.012   2.803 -1.3014  0.0852 -0.4862
  153OSM    C1316986   2.835   5.704   2.683  0.1523  0.5029  0.5595
  153OSM   H13A16987   2.800   5.737   2.586 -1.0647 -0.6935  0.5563
  153OSM   H13B16988   2.759   5.654   2.741  0.1681 -2.2900 -1.6365
  153OSM   H13C16989   2.908   5.628   2.658 -1.8278 -1.0864 -0.7346
  153OSM    C1216990   2.912   5.777   2.903 -0.7383 -0.3833 -0.7969
  153OSM   H12A16991   2.968   5.685   2.907 -0.0802  0.0241  2.5396
  153OSM   H12B16992   2.810   5.762   2.935 -1.0092 -1.2520 -2.0206
  153OSM    C1116993   2.976   5.873   3.009  1.1298  0.1609  0.2149
  153OSM   H11A16994   2.939   5.841   3.109  0.6757 -0.7169 -0.2240
  153OSM   H11B16995   2.924   5.969   2.988  2.0288  0.7409  0.5746
  153OSM      P16996   3.180   6.016   3.042  0.1689  0.3716 -0.3806
  153OSM    O1316997   3.328   6.019   3.043 -0.3508  0.8736 -0.5603
  153OSM    O1416998   3.117   6.122   2.959  0.3068 -0.1129 -0.4391
  153OSM    O1116999   3.121   6.023   3.184  0.7511 -0.3527  0.0909
  153OSM    O1217000   3.114   5.883   2.995 -0.3675  0.6497  0.2074
  153OSM    C1S17001   3.168   5.934   3.294 -0.0234 -1.2106 -0.0880
  153OSM    H1S17002   3.239   5.854   3.267  0.1916 -1.1229  0.2082
  153OSM    H1T17003   3.086   5.886   3.351  0.3290 -0.5581  1.0024
  153OSM     NF17004   3.281   5.934   3.521  0.6184  0.3484  0.1464
  153OSM    HNF17005   3.217   5.927   3.597 -0.3114  0.0073 -0.6351
  153OSM    C2S17006   3.242   6.019   3.410 -0.4808  0.1145  0.4168
  153OSM    H2S17007   3.333   6.063   3.365  0.1665 -1.1631  0.4261
  153OSM    C3S17008   3.158   6.146   3.446  0.2270  0.0296 -0.7110
  153OSM    H3S17009   3.057   6.113   3.478  0.4308 -0.5752 -0.6903
  153OSM     O317010   3.132   6.232   3.338 -0.2480  0.0369  0.3222
  153OSM    HO317011   3.170   6.188   3.262 -1.7638 -0.4419 -0.1872
  153OSM    C4S17012   3.217   6.214   3.563  0.0435  1.4420 -0.7316
  153OSM    H4S17013   3.156   6.203   3.654  0.8255 -0.4905 -0.3748
  153OSM    C5S17014   3.315   6.296   3.563 -0.1314 -0.4630 -0.6098
  153OSM    H5S17015   3.354   6.327   3.465 -1.5429 -1.7202 -1.6064
  153OSM    C6S17016   3.358   6.383   3.681 -0.1115  0.2057  0.4660
  153OSM    H6S17017   3.340   6.491   3.663 -2.8531 -0.2949 -0.2750
  153OSM    H6T17018   3.461   6.357   3.713 -0.1676 -1.3234 -0.5049
  153OSM    C7S17019   3.277   6.351   3.811 -1.4334 -0.4552  0.0452
  153OSM    H7S17020   3.309   6.250   3.847 -0.0831 -0.3280 -0.7317
  153OSM    H7T17021   3.166   6.356   3.806 -1.6205  0.3319  2.8767
  153OSM    C8S17022   3.323   6.450   3.928 -0.3013  0.0440  0.4289
  153OSM    H8S17023   3.286   6.551   3.900 -0.3185 -0.1169 -0.1445
  153OSM    H8T17024   3.434   6.450   3.935  0.0289 -0.6593 -2.9252
  153OSM    C9S17025   3.268   6.416   4.068  0.1050 -0.2995 -0.2906
  153OSM    H9S17026   3.275   6.307   4.087  0.0878 -0.3320 -0.4744
  153OSM    H9T17027   3.162   6.446   4.081 -0.0650 -0.5424 -1.0619
  153OSM   C10S17028   3.342   6.507   4.169 -0.1934  0.1097 -1.1214
  153OSM   H10S17029   3.315   6.612   4.146  0.9568  1.0426  1.3320
  153OSM   H10T17030   3.452   6.496   4.158 -0.4049 -6.3503 -0.5918
  153OSM   C11S17031   3.306   6.478   4.314 -0.4678 -0.1168  0.5828
  153OSM   H11S17032   3.356   6.382   4.337 -0.0862 -0.0939 -0.1233
  153OSM   H11T17033   3.196   6.468   4.332 -0.3650 -0.5486  0.9658
  153OSM   C12S17034   3.366   6.587   4.407  0.8113  0.0534 -0.1213
  153OSM   H12S17035   3.303   6.676   4.388  0.5927 -0.0709  0.0171
  153OSM   H12T17036   3.474   6.595   4.383  0.6571 -2.2360 -1.8752
  153OSM   C13S17037   3.360   6.531   4.553 -0.6752  0.0251 -0.3941
  153OSM   H13S17038   3.427   6.446   4.577 -1.0641 -0.0598  0.4084
  153OSM   H13T17039   3.254   6.501   4.564 -0.4448 -0.7076 -0.1048
  153OSM   C14S17040   3.375   6.646   4.651  0.8623 -0.8158 -0.8255
  153OSM   H14S17041   3.318   6.728   4.602  1.0991 -0.6424 -0.8170
  153OSM   H14T17042   3.480   6.683   4.649  0.3340  0.7332 -0.7169
  153OSM   C15S17043   3.328   6.616   4.791 -0.5108 -0.2042  0.0337
  153OSM   H15S17044   3.415   6.564   4.838 -0.7497 -0.3127  0.3628
  153OSM   H15T17045   3.239   6.552   4.776  0.4090 -0.8572 -3.4622
  153OSM   C16S17046   3.295   6.742   4.876 -0.9575  0.3918 -0.1916
  153OSM   H16S17047   3.240   6.823   4.824  0.5407  1.7092  0.2004
  153OSM   H16T17048   3.394   6.787   4.899 -0.9352  0.9125 -1.2443
  153OSM   C17S17049   3.234   6.706   5.010  0.6900 -0.0109 -0.2473
  153OSM   H17S17050   3.312   6.650   5.065 -0.1245  0.3666  1.3327
  153OSM   H17T17051   3.159   6.630   4.979  0.9761  0.4069 -2.1191
  153OSM   C18S17052   3.165   6.814   5.096  0.0786  0.0423 -0.0357
  153OSM   H18S17053   3.145   6.771   5.196 -0.0153  0.0867 -0.0350
  153OSM   H18T17054   3.070   6.848   5.049 -0.5289 -0.7286  0.6106
  153OSM   H18U17055   3.232   6.903   5.104  0.9214 -0.4284 -1.4095
  153OSM    C1F17056   3.398   5.870   3.515 -0.0158 -0.2055  0.2236
  153OSM     OF17057   3.460   5.865   3.405 -0.4480 -0.0821 -0.2997
  153OSM    C2F17058   3.447   5.811   3.645  0.4887  0.2075  0.5501
  153OSM    H2F17059   3.463   5.702   3.631 -0.7284  0.2251 -1.4033
  153OSM    H2G17060   3.367   5.827   3.720 -0.4003 -1.6513  0.0563
  153OSM    C3F17061   3.586   5.874   3.688  0.8870 -0.2956  0.3486
  153OSM    H3F17062   3.654   5.878   3.600  0.5957 -1.2635  0.0625
  153OSM    H3G17063   3.631   5.803   3.760 -1.1516  0.5250  2.5765
  153OSM    C4F17064   3.573   6.016   3.743 -0.0942  0.0468 -0.1474
  153OSM    H4F17065   3.524   6.096   3.685 -1.0722  0.1004  0.7227
  153OSM    H4G17066   3.672   6.062   3.760 -0.2770  0.8615 -1.2107
  153OSM    C5F17067   3.516   6.007   3.889  1.3793 -0.1044  0.4408
  153OSM    H5F17068   3.548   5.913   3.940 -2.5104 -1.9750 -0.2136
  153OSM    H5G17069   3.407   5.988   3.882  1.2004  1.4720 -1.9486
  153OSM    C6F17070   3.537   6.132   3.977 -0.2711  0.0461 -0.1324
  153OSM    H6F17071   3.497   6.227   3.937  0.3250  0.2082 -0.3627
  153OSM    H6G17072   3.648   6.135   3.987 -0.4464  0.7593  2.0572
  153OSM    C7F17073   3.469   6.114   4.109 -0.0970 -0.3743  0.4273
  153OSM    H7F17074   3.360   6.097   4.098 -0.0760  0.0801 -0.5990
  153OSM    H7G17075   3.486   6.214   4.154  1.9402 -0.4619 -0.0538
  153OSM    C8F17076   3.529   5.995   4.191 -0.0516 -0.4206  0.3028
  153OSM    H8F17077   3.639   5.991   4.171 -0.0755 -0.7016  0.2237
  153OSM    H8G17078   3.498   5.899   4.145  0.0189 -1.4837  2.3526
  153OSM    C9F17079   3.491   6.008   4.334 -0.0586 -0.4181  0.1631
  153OSM    H9F17080   3.504   6.110   4.374  1.5001 -0.7135  0.4451
  153OSM   C10F17081   3.465   5.921   4.432  0.0326  0.0614  0.5359
  153OSM   H10F17082   3.440   5.958   4.532 -1.1743  1.0767 -0.1011
  153OSM   C11F17083   3.450   5.774   4.407  0.6871 -0.1048  0.0824
  153OSM   H11F17084   3.485   5.752   4.304 -1.7401  0.4985 -0.9244
  153OSM   H11G17085   3.344   5.745   4.421  0.0193  1.9674 -0.2576
  153OSM   C12F17086   3.536   5.681   4.494 -0.0737 -0.6750 -0.0447
  153OSM   H12F17087   3.500   5.578   4.476  0.5007 -0.3277 -4.1177
  153OSM   H12G17088   3.515   5.719   4.597  2.9555 -0.0310  0.4224
  153OSM   C13F17089   3.691   5.685   4.468 -0.5545  0.2092  0.0609
  153OSM   H13F17090   3.716   5.792   4.485  0.2157  0.4723 -2.2959
  153OSM   H13G17091   3.715   5.660   4.362  0.9332 -0.6753  0.5638
  153OSM   C14F17092   3.763   5.584   4.564  0.2385  0.3605  0.5253
  153OSM   H14F17093   3.871   5.603   4.544  0.4032 -1.6494 -0.6723
  153OSM   H14G17094   3.738   5.485   4.521 -0.3264  1.0797 -0.8619
  153OSM   C15F17095   3.732   5.604   4.712 -0.0784 -0.4637  0.6807
  153OSM   H15F17096   3.638   5.549   4.733 -0.9280  1.0065  0.8597
  153OSM   H15G17097   3.727   5.712   4.734 -0.2153 -0.6439  1.5813
  153OSM   C16F17098   3.833   5.542   4.809 -0.1598 -0.0580 -0.2940
  153OSM   H16F17099   3.931   5.582   4.776 -0.5316  0.8567 -0.3221
  153OSM   H16G17100   3.823   5.431   4.802  1.6772 -0.2703 -0.1210
  153OSM   C17F17101   3.807   5.591   4.955 -0.3652 -0.2463  0.2965
  153OSM   H17F17102   3.699   5.582   4.976 -0.9536  0.9222 -1.8627
  153OSM   H17G17103   3.826   5.699   4.937 -0.7892 -0.7432 -4.3879
  153OSM   C18F17104   3.902   5.532   5.062 -0.0686  1.0528 -0.3521
  153OSM   H18F17105   3.896   5.421   5.058 -0.2357  1.0412  0.1521
  153OSM   H18G17106   3.866   5.561   5.163 -0.3558 -0.0397 -0.1295
  153OSM   H18H17107   4.005   5.570   5.047 -0.6010  2.6761 -0.0531
  154OSM      N17108   4.728   4.423   2.298 -0.5150  0.0056 -0.8915
  154OSM    C1517109   4.838   4.519   2.262  0.0449 -0.6794  0.5158
  154OSM   H15A17110   4.811   4.605   2.203  1.0718  0.6210  1.8863
  154OSM   H15B17111   4.925   4.477   2.213  2.1615  2.0829  1.6872
  154OSM   H15C17112   4.864   4.576   2.350 -0.8600 -0.5694  0.7236
  154OSM    C1417113   4.664   4.378   2.166 -0.5385 -0.6915  0.2040
  154OSM   H14A17114   4.654   4.463   2.100  1.7119 -0.0341  0.6316
  154OSM   H14B17115   4.568   4.335   2.193 -1.1884  0.8416  0.4272
  154OSM   H14C17116   4.729   4.313   2.110  0.4443  1.3806 -1.1855
  154OSM    C1317117   4.783   4.302   2.364 -0.5534 -0.1330  0.3793
  154OSM   H13A17118   4.846   4.257   2.290  0.5120 -0.8633  1.6821
  154OSM   H13B17119   4.707   4.227   2.384 -2.3608  1.1818 -1.2184
  154OSM   H13C17120   4.842   4.329   2.450 -1.3818  0.7388  0.6978
  154OSM    C1217121   4.626   4.503   2.388  0.4385  0.0109  0.0491
  154OSM   H12A17122   4.555   4.424   2.410  0.7074 -0.8852 -2.0989
  154OSM   H12B17123   4.571   4.575   2.330 -0.1691  1.7349  2.5670
  154OSM    C1117124   4.686   4.571   2.519  0.4287 -0.1816 -0.0841
  154OSM   H11A17125   4.738   4.486   2.569  1.0796 -0.2280 -0.8072
  154OSM   H11B17126   4.604   4.608   2.584  0.4857  0.5028 -0.3929
  154OSM      P17127   4.763   4.817   2.499 -0.0431 -0.2762  0.1029
  154OSM    O1317128   4.889   4.884   2.452  0.3900  0.2868  0.3867
  154OSM    O1417129   4.637   4.838   2.420 -0.0109 -0.0768 -0.0002
  154OSM    O1117130   4.737   4.848   2.654  0.0044 -0.2320  0.3961
  154OSM    O1217131   4.788   4.664   2.492  0.1001 -1.3989  0.6863
  154OSM    C1S17132   4.782   4.773   2.762  0.1290  0.1383  0.4713
  154OSM    H1S17133   4.892   4.771   2.751 -0.0092  0.9787 -1.6325
  154OSM    H1T17134   4.748   4.667   2.760 -0.1524  0.2307 -0.0437
  154OSM     NF17135   4.798   4.787   3.018  0.3533  0.5848 -0.1431
  154OSM    HNF17136   4.740   4.737   3.081 -1.8172  1.9824 -0.9266
  154OSM    C2S17137   4.729   4.832   2.898  0.4055  0.0184  0.3143
  154OSM    H2S17138   4.752   4.941   2.892  1.1129 -0.1723 -0.6501
  154OSM    C3S17139   4.575   4.820   2.903 -0.2574 -0.1135  0.4620
  154OSM    H3S17140   4.546   4.713   2.902  0.4203 -0.2922 -0.3219
  154OSM     O317141   4.506   4.874   2.794  0.5360 -0.4715 -0.3767
  154OSM    HO317142   4.572   4.901   2.730  1.1181 -1.7961 -0.3544
  154OSM    C4S17143   4.522   4.879   3.033  0.4485  0.0313  0.1013
  154OSM    H4S17144   4.499   4.793   3.099 -1.6490  0.4658  0.0018
  154OSM    C5S17145   4.511   5.007   3.070 -1.0136  0.0995  0.5374
  154OSM    H5S17146   4.546   5.084   3.000 -2.8943  1.0287  0.5448
  154OSM    C6S17147   4.467   5.058   3.209  0.0062 -0.4022 -0.0163
  154OSM    H6S17148   4.361   5.092   3.203  0.8361  2.4906  0.4093
  154OSM    H6T17149   4.514   5.156   3.230  0.6245 -0.8795  0.9454
  154OSM    C7S17150   4.495   4.979   3.338  0.3339 -0.6037 -0.2526
  154OSM    H7S17151   4.605   4.981   3.354  0.2766 -0.1537  0.0953
  154OSM    H7T17152   4.449   4.878   3.330 -1.1314 -0.0902  1.2831
  154OSM    C8S17153   4.432   5.054   3.463 -0.3125  0.1941  0.0863
  154OSM    H8S17154   4.333   5.096   3.435  0.0385  0.6808 -0.4448
  154OSM    H8T17155   4.486   5.147   3.493  1.1228 -1.1629  1.9645
  154OSM    C9S17156   4.431   4.961   3.576 -0.1716  0.8707 -0.0584
  154OSM    H9S17157   4.530   4.911   3.579 -1.4027 -1.7098  1.4137
  154OSM    H9T17158   4.351   4.889   3.547  0.2421  0.2535  0.3051
  154OSM   C10S17159   4.406   5.016   3.714 -0.0465 -0.0056  0.7031
  154OSM   H10S17160   4.307   5.066   3.721 -1.6560 -2.9442  0.4811
  154OSM   H10T17161   4.487   5.091   3.727 -0.2168  0.7196 -1.8626
  154OSM   C11S17162   4.415   4.901   3.811  0.2546 -0.5151 -0.2342
  154OSM   H11S17163   4.514   4.851   3.804  2.2418  2.8831  1.0999
  154OSM   H11T17164   4.332   4.829   3.797 -0.5855  0.2268  0.7791
  154OSM   C12S17165   4.382   4.956   3.948 -0.3408 -0.5213 -1.0292
  154OSM   H12S17166   4.292   5.021   3.946  0.2648  0.4493  0.7576
  154OSM   H12T17167   4.466   5.023   3.978 -1.0969  0.1886 -0.4562
  154OSM   C13S17168   4.355   4.843   4.052  0.0063 -0.5849 -0.2613
  154OSM   H13S17169   4.448   4.787   4.077  1.1626  1.4407  0.1521
  154OSM   H13T17170   4.276   4.778   4.008 -0.7353 -0.2452  0.5208
  154OSM   C14S17171   4.282   4.890   4.187  0.6260  0.0244  0.2905
  154OSM   H14S17172   4.193   4.950   4.159  0.4190  0.1300  1.1225
  154OSM   H14T17173   4.350   4.959   4.242  0.1330  2.2874 -1.7715
  154OSM   C15S17174   4.231   4.786   4.273  0.0556  0.6152 -0.2311
  154OSM   H15S17175   4.309   4.716   4.309 -2.2113 -2.6607 -1.1223
  154OSM   H15T17176   4.154   4.721   4.225  0.8656 -0.0264 -0.6843
  154OSM   C16S17177   4.167   4.844   4.404 -0.4350 -0.0729 -0.1808
  154OSM   H16S17178   4.082   4.912   4.380 -1.3949 -1.2832 -0.3120
  154OSM   H16T17179   4.234   4.918   4.452 -0.2026  0.4160 -1.2360
  154OSM   C17S17180   4.115   4.742   4.510 -0.2198  0.6014 -1.2182
  154OSM   H17S17181   4.204   4.686   4.544 -0.5876 -0.1832 -1.5289
  154OSM   H17T17182   4.042   4.678   4.456  2.2585 -2.1165 -1.6309
  154OSM   C18S17183   4.040   4.798   4.633 -0.4339  0.1305  0.6733
  154OSM   H18S17184   4.092   4.889   4.670  2.9942 -0.0871 -2.9889
  154OSM   H18T17185   4.044   4.722   4.714  1.6884 -1.3514 -0.7219
  154OSM   H18U17186   3.940   4.831   4.598  0.4541  0.8451 -1.3716
  154OSM    C1F17187   4.924   4.794   3.036  0.1737 -0.4578 -0.4874
  154OSM     OF17188   5.000   4.854   2.962 -0.2866  0.3384 -0.4136
  154OSM    C2F17189   4.976   4.729   3.159 -0.1789 -0.1373  0.7567
  154OSM    H2F17190   5.044   4.801   3.208 -0.8837 -0.1720  1.8077
  154OSM    H2G17191   5.031   4.639   3.126 -0.0326  0.6635 -1.3349
  154OSM    C3F17192   4.867   4.706   3.266  0.1537 -0.2573 -0.5846
  154OSM    H3F17193   4.780   4.650   3.225  1.1422 -0.8625 -1.9304
  154OSM    H3G17194   4.824   4.797   3.313  0.5305 -0.5760  0.4062
  154OSM    C4F17195   4.906   4.616   3.385 -1.0334 -0.0979  0.0685
  154OSM    H4F17196   4.991   4.661   3.442  0.4073 -2.3652 -0.1799
  154OSM    H4G17197   4.952   4.521   3.351 -1.0337  0.3743 -1.2916
  154OSM    C5F17198   4.797   4.597   3.493 -0.1788  0.8508  0.2454
  154OSM    H5F17199   4.829   4.533   3.578 -1.0182 -2.2157 -1.6148
  154OSM    H5G17200   4.705   4.564   3.441 -0.8701 -0.3266  2.1328
  154OSM    C6F17201   4.737   4.726   3.562 -0.3631  0.0341 -0.9399
  154OSM    H6F17202   4.640   4.700   3.611  0.6858 -2.1908  0.0963
  154OSM    H6G17203   4.723   4.807   3.488  0.4451 -0.3111 -1.4852
  154OSM    C7F17204   4.828   4.788   3.665 -0.2508  0.2702 -0.2278
  154OSM    H7F17205   4.787   4.883   3.705 -1.3349 -1.3349  2.7903
  154OSM    H7G17206   4.922   4.810   3.610 -0.7084 -0.4916 -1.3366
  154OSM    C8F17207   4.886   4.709   3.788  0.5634  0.3399 -0.2370
  154OSM    H8F17208   4.977   4.765   3.816  0.6427 -0.6217  1.6155
  154OSM    H8G17209   4.925   4.612   3.750 -1.1082 -0.2428 -0.5576
  154OSM    C9F17210   4.780   4.696   3.903  0.1542  0.0001  1.2224
  154OSM    H9F17211   4.686   4.650   3.868  0.2781  1.8043 -1.8397
  154OSM   C10F17212   4.801   4.733   4.032  1.0666 -0.0579  0.1130
  154OSM   H10F17213   4.728   4.718   4.113  2.5547  0.5472  1.6094
  154OSM   C11F17214   4.925   4.816   4.080  0.1419  0.0569  0.0259
  154OSM   H11F17215   4.989   4.835   3.991  1.2190  1.4300  1.0446
  154OSM   H11G17216   4.981   4.744   4.144 -0.4810 -0.5936 -0.1413
  154OSM   C12F17217   4.887   4.942   4.152 -0.5989 -1.0251 -0.7038
  154OSM   H12F17218   4.833   5.021   4.096  0.3452 -0.8681 -1.4059
  154OSM   H12G17219   4.979   5.000   4.174  0.5745 -3.0508  0.0756
  154OSM   C13F17220   4.810   4.924   4.280 -0.2308  0.5578 -0.7538
  154OSM   H13F17221   4.711   4.876   4.260  0.3728 -1.2216  0.3349
  154OSM   H13G17222   4.791   5.021   4.331  0.2481  0.7893 -1.0144
  154OSM   C14F17223   4.883   4.837   4.379  0.1825  0.5789  0.0271
  154OSM   H14F17224   4.991   4.858   4.365  0.7493 -1.1414  1.5134
  154OSM   H14G17225   4.861   4.731   4.353  0.4452  0.2873  0.9802
  154OSM   C15F17226   4.837   4.859   4.522  0.4581 -0.1376  0.2903
  154OSM   H15F17227   4.874   4.961   4.548 -0.0076  0.0387  0.2752
  154OSM   H15G17228   4.901   4.783   4.572 -0.0028 -1.0741 -0.5093
  154OSM   C16F17229   4.689   4.834   4.543 -0.2211  0.5960 -0.2874
  154OSM   H16F17230   4.671   4.726   4.525 -1.0217  0.6382  0.2145
  154OSM   H16G17231   4.638   4.889   4.462 -0.2973 -1.0343 -1.4036
  154OSM   C17F17232   4.635   4.852   4.687  0.3715  0.0749 -0.5486
  154OSM   H17F17233   4.644   4.962   4.701  1.1504  0.0647 -0.9199
  154OSM   H17G17234   4.699   4.792   4.754  0.0574 -1.6771 -1.7681
  154OSM   C18F17235   4.484   4.813   4.702 -0.0271 -0.3773  0.0115
  154OSM   H18F17236   4.469   4.708   4.735  2.2647 -0.9016 -0.4572
  154OSM   H18G17237   4.447   4.825   4.598  0.0522 -0.9411 -0.0856
  154OSM   H18H17238   4.424   4.885   4.762  0.2507 -0.1840  0.0598
  155OSM      N17239   2.994   0.476   2.576  0.3304 -0.5432 -0.0873
  155OSM    C1517240   2.936   0.429   2.446  1.0565 -0.5071  0.2965
  155OSM   H15A17241   3.014   0.450   2.374  2.3892 -0.3813  1.7178
  155OSM   H15B17242   2.843   0.479   2.425  1.3786  0.3199  0.7927
  155OSM   H15C17243   2.924   0.322   2.454 -2.2560 -0.1167  2.4941
  155OSM    C1417244   3.116   0.391   2.599 -0.1775 -0.0461  0.5682
  155OSM   H14A17245   3.172   0.411   2.689 -2.0176 -2.1921  2.3126
  155OSM   H14B17246   3.190   0.383   2.521  0.6615  0.2827  1.3173
  155OSM   H14C17247   3.089   0.286   2.602  1.5669 -0.5114  1.8441
  155OSM    C1317248   3.052   0.617   2.552  0.1908 -0.0690  0.5318
  155OSM   H13A17249   3.135   0.600   2.484  0.4848  3.8450 -0.3314
  155OSM   H13B17250   3.072   0.661   2.649  0.6338  1.9900 -0.4430
  155OSM   H13C17251   2.983   0.684   2.505 -3.0135 -3.6887 -0.4277
  155OSM    C1217252   2.897   0.465   2.687  0.0190 -0.2933  0.3716
  155OSM   H12A17253   2.863   0.362   2.689  2.8729 -1.3428  1.7034
  155OSM   H12B17254   2.819   0.538   2.683  0.6613  0.3785 -0.2569
  155OSM    C1117255   2.952   0.481   2.835 -0.2230  0.9864 -0.2219
  155OSM   H11A17256   3.020   0.395   2.855  1.1195  1.8835 -0.8062
  155OSM   H11B17257   2.859   0.472   2.897 -1.0364  0.9365 -1.4120
  155OSM      P17258   2.920   0.731   2.875 -0.0495 -0.2497 -0.2242
  155OSM    O1317259   2.998   0.854   2.887  0.1485  0.6796  1.1201
  155OSM    O1417260   2.804   0.744   2.786 -0.0807  0.7957  0.0624
  155OSM    O1117261   2.855   0.714   3.013  0.1312 -0.4970 -0.0404
  155OSM    O1217262   3.007   0.603   2.858 -0.0305  0.3904 -0.3329
  155OSM    C1S17263   2.906   0.641   3.122 -0.3472  0.0508 -0.4707
  155OSM    H1S17264   3.007   0.595   3.123 -1.0503 -1.5907 -1.4857
  155OSM    H1T17265   2.839   0.553   3.134 -1.1309  0.5499 -1.0618
  155OSM     NF17266   2.993   0.670   3.353  0.9398  0.2577 -0.0572
  155OSM    HNF17267   2.957   0.632   3.437  1.3234 -0.1846 -0.0884
  155OSM    C2S17268   2.908   0.726   3.253 -0.2746  0.2138 -0.4160
  155OSM    H2S17269   2.950   0.825   3.228 -0.8422  0.6761  0.4117
  155OSM    C3S17270   2.767   0.759   3.310  0.1020 -0.4096 -0.1172
  155OSM    H3S17271   2.724   0.662   3.342  1.1631 -1.0342 -0.5048
  155OSM     O317272   2.672   0.805   3.210 -0.0940  0.0254 -0.1013
  155OSM    HO317273   2.711   0.778   3.127  0.0190  1.9662 -0.7471
  155OSM    C4S17274   2.772   0.842   3.441  0.0440 -0.4801 -0.0014
  155OSM    H4S17275   2.790   0.774   3.525  1.6420 -1.9673 -1.4483
  155OSM    C5S17276   2.758   0.973   3.464 -0.5645 -0.0030  0.4235
  155OSM    H5S17277   2.731   1.042   3.383  0.9497 -0.5608 -0.5897
  155OSM    C6S17278   2.776   1.049   3.600 -0.1188 -0.6029  0.5372
  155OSM    H6S17279   2.681   1.101   3.627  1.1701  1.9458  0.3939
  155OSM    H6T17280   2.851   1.129   3.584 -0.4614 -0.1012  1.3844
  155OSM    C7S17281   2.830   0.970   3.719 -0.0715 -0.4379  0.0022
  155OSM    H7S17282   2.941   0.966   3.712  0.0059 -0.2458  0.9008
  155OSM    H7T17283   2.793   0.866   3.725 -2.9993  0.5428  0.6712
  155OSM    C8S17284   2.801   1.039   3.853 -0.5018  0.3292  0.0540
  155OSM    H8S17285   2.698   1.079   3.864 -1.3258 -1.4555 -0.6156
  155OSM    H8T17286   2.861   1.132   3.848  1.1438 -0.6998 -0.4164
  155OSM    C9S17287   2.841   0.959   3.975 -0.1543 -0.2941 -0.2534
  155OSM    H9S17288   2.947   0.930   3.957 -0.1710 -0.7906  0.4176
  155OSM    H9T17289   2.768   0.877   3.988 -0.0653 -0.2578  0.5394
  155OSM   C10S17290   2.834   1.052   4.099 -0.2083  0.5810  0.2967
  155OSM   H10S17291   2.734   1.098   4.088 -0.5766 -0.2531  0.0920
  155OSM   H10T17292   2.914   1.129   4.093 -0.8579  1.1961 -0.5486
  155OSM   C11S17293   2.826   0.979   4.231 -0.6990 -0.0315 -0.4777
  155OSM   H11S17294   2.762   0.889   4.238  0.3248 -0.9142 -2.0302
  155OSM   H11T17295   2.780   1.053   4.301  1.1536 -3.0693  4.5377
  155OSM   C12S17296   2.954   0.920   4.300  0.6357  0.1818  0.4049
  155OSM   H12S17297   3.040   0.962   4.243 -1.0059  0.4831 -1.9952
  155OSM   H12T17298   2.950   0.811   4.277 -0.3074  0.6253 -1.7085
  155OSM   C13S17299   2.952   0.935   4.451 -0.6812 -0.3153  0.0249
  155OSM   H13S17300   2.936   1.042   4.478  0.7033  0.1249 -0.8064
  155OSM   H13T17301   3.049   0.905   4.496 -1.1505 -3.0097 -0.6002
  155OSM   C14S17302   2.848   0.852   4.530 -0.0580 -0.7812 -0.1693
  155OSM   H14S17303   2.876   0.747   4.506  0.9398 -1.3024  2.7815
  155OSM   H14T17304   2.749   0.894   4.501  1.4219  0.9850 -3.1582
  155OSM   C15S17305   2.850   0.868   4.680 -0.2098  0.0002 -0.5183
  155OSM   H15S17306   2.835   0.974   4.711 -1.3088 -0.2627 -0.1226
  155OSM   H15T17307   2.946   0.838   4.729 -1.7144 -2.2170  1.2687
  155OSM   C16S17308   2.728   0.804   4.761 -0.1839  0.4303  0.8333
  155OSM   H16S17309   2.674   0.738   4.691  2.9110  0.0491 -1.4154
  155OSM   H16T17310   2.665   0.891   4.789  0.5497  1.7027 -1.2752
  155OSM   C17S17311   2.767   0.723   4.893  1.1174 -0.0573  0.1180
  155OSM   H17S17312   2.790   0.790   4.979 -0.9268  0.4741  0.3115
  155OSM   H17T17313   2.859   0.663   4.876 -0.2947 -2.5823  0.9916
  155OSM   C18S17314   2.660   0.631   4.945 -0.2150 -0.1845 -0.1838
  155OSM   H18S17315   2.704   0.548   5.005 -0.8709 -0.5063 -0.1466
  155OSM   H18T17316   2.627   0.578   4.853 -0.6659 -2.4402  1.1910
  155OSM   H18U17317   2.582   0.687   5.000  1.9138  3.6613 -0.7042
  155OSM    C1F17318   3.123   0.658   3.344 -0.1009  0.5594  0.3203
  155OSM     OF17319   3.177   0.706   3.245 -0.3200 -0.3591 -0.2561
  155OSM    C2F17320   3.192   0.571   3.440 -0.6431 -0.2181 -0.5848
  155OSM    H2F17321   3.212   0.470   3.399 -1.0718 -0.2251 -0.7811
  155OSM    H2G17322   3.121   0.549   3.522 -1.2588 -2.1877 -1.6001
  155OSM    C3F17323   3.331   0.622   3.494  0.3467  0.3806  0.0564
  155OSM    H3F17324   3.402   0.663   3.418  1.2552  0.3027  0.8445
  155OSM    H3G17325   3.398   0.547   3.541  0.6038 -0.1060 -1.0360
  155OSM    C4F17326   3.313   0.734   3.595 -0.2219  0.0210 -0.1831
  155OSM    H4F17327   3.260   0.821   3.550 -0.3690 -0.2308 -0.4987
  155OSM    H4G17328   3.414   0.776   3.611 -0.7001  0.6471  1.4008
  155OSM    C5F17329   3.271   0.698   3.735 -0.3257  0.4200 -0.0981
  155OSM    H5F17330   3.230   0.595   3.735  0.9664 -0.1153  0.2379
  155OSM    H5G17331   3.196   0.771   3.771 -0.0901  0.2826  0.6766
  155OSM    C6F17332   3.394   0.709   3.830  0.4412  0.5059 -0.1216
  155OSM    H6F17333   3.424   0.815   3.847 -1.5364  0.9475  1.0150
  155OSM    H6G17334   3.479   0.657   3.782  0.5980  1.6853 -1.1810
  155OSM    C7F17335   3.379   0.634   3.962 -0.6224 -0.1103 -0.2434
  155OSM    H7F17336   3.472   0.635   4.022 -0.2165 -1.2972 -0.8273
  155OSM    H7G17337   3.341   0.531   3.945 -0.5458 -0.5637  2.0562
  155OSM    C8F17338   3.276   0.688   4.059 -0.5829  0.2587 -0.3802
  155OSM    H8F17339   3.263   0.635   4.155  0.6746  3.3153  1.6404
  155OSM    H8G17340   3.183   0.679   3.999 -1.2704  0.0182  0.7174
  155OSM    C9F17341   3.317   0.828   4.096  0.5415  0.3471  0.0340
  155OSM    H9F17342   3.312   0.892   4.007  0.6121 -1.8381 -1.5991
  155OSM   C10F17343   3.361   0.868   4.215 -0.6202 -0.2177 -0.1910
  155OSM   H10F17344   3.384   0.975   4.228 -0.2584 -0.5157  1.8858
  155OSM   C11F17345   3.387   0.787   4.336  0.0466  0.0763  0.4987
  155OSM   H11F17346   3.388   0.677   4.321  0.9849  0.1921 -0.4093
  155OSM   H11G17347   3.295   0.790   4.397 -0.3393  1.4726 -0.1028
  155OSM   C12F17348   3.511   0.821   4.419 -0.1594 -0.2474  0.2268
  155OSM   H12F17349   3.599   0.845   4.355 -0.0406 -0.4717  0.3016
  155OSM   H12G17350   3.532   0.726   4.474 -1.2599 -1.3720 -1.2081
  155OSM   C13F17351   3.498   0.927   4.526  0.2872 -0.7179  0.7524
  155OSM   H13F17352   3.444   1.011   4.476  2.9307  0.7421  0.1696
  155OSM   H13G17353   3.598   0.968   4.553 -0.0279  0.4792  0.2033
  155OSM   C14F17354   3.426   0.874   4.655  0.0602 -0.5055  0.2834
  155OSM   H14F17355   3.497   0.818   4.720  0.9872  0.5417  0.1954
  155OSM   H14G17356   3.348   0.805   4.617 -1.1737  2.6215 -3.4156
  155OSM   C15F17357   3.349   0.987   4.721 -0.1944 -0.4758  0.7634
  155OSM   H15F17358   3.290   1.037   4.641 -1.1723 -1.6475  0.7276
  155OSM   H15G17359   3.429   1.059   4.748 -1.1785  1.7912 -1.9672
  155OSM   C16F17360   3.261   0.958   4.842  0.0528 -0.4587  0.0421
  155OSM   H16F17361   3.316   0.895   4.915 -1.9711 -3.2061 -0.6908
  155OSM   H16G17362   3.187   0.894   4.791  0.9434  0.2110 -2.1843
  155OSM   C17F17363   3.203   1.082   4.914 -0.5945 -0.3051  0.6047
  155OSM   H17F17364   3.280   1.160   4.900 -0.6697 -0.4144 -0.5748
  155OSM   H17G17365   3.186   1.049   5.019 -0.6811  1.0695  1.0321
  155OSM   C18F17366   3.084   1.136   4.837 -0.2776 -0.0722 -0.6699
  155OSM   H18F17367   3.057   1.243   4.856 -0.4217 -0.1948 -0.1784
  155OSM   H18G17368   2.997   1.067   4.837 -0.0536 -0.4341  2.0655
  155OSM   H18H17369   3.117   1.133   4.731 -0.2745 -1.0934 -0.6415
  156OSM      N17370   7.014   1.324   2.370 -0.5398  0.7548 -0.6285
  156OSM    C1517371   6.886   1.386   2.330  0.5761  0.1489 -0.6031
  156OSM   H15A17372   6.873   1.407   2.225 -0.3095 -1.2497 -0.7902
  156OSM   H15B17373   6.854   1.472   2.388 -1.5496 -1.3085  0.5114
  156OSM   H15C17374   6.808   1.318   2.361  0.6239 -0.2215 -1.2961
  156OSM    C1417375   7.031   1.197   2.282 -0.6761 -0.2441  0.4316
  156OSM   H14A17376   7.127   1.152   2.303 -0.3883  0.1666  0.0192
  156OSM   H14B17377   7.030   1.213   2.175 -0.3058 -2.1507  0.0951
  156OSM   H14C17378   6.951   1.125   2.286 -0.7045 -0.2394  0.0189
  156OSM    C1317379   7.124   1.418   2.340 -0.7547 -0.3322 -0.2922
  156OSM   H13A17380   7.221   1.372   2.329  0.6391  2.5319 -1.0360
  156OSM   H13B17381   7.131   1.498   2.412  1.7224 -1.3599  0.7218
  156OSM   H13C17382   7.098   1.454   2.241 -0.9490 -0.7397 -0.3927
  156OSM    C1217383   7.003   1.300   2.520 -0.2949  0.3568 -1.0012
  156OSM   H12A17384   6.930   1.225   2.547  1.5316 -1.6427 -1.3138
  156OSM   H12B17385   6.979   1.395   2.565  1.9719  1.3773 -1.7887
  156OSM    C1117386   7.131   1.251   2.589  0.3486 -0.0506 -0.7898
  156OSM   H11A17387   7.111   1.248   2.698 -0.8157  0.9712 -0.9567
  156OSM   H11B17388   7.217   1.320   2.579  0.7311 -0.7199 -2.3397
  156OSM      P17389   7.100   0.995   2.584 -0.0772 -0.0877  0.1173
  156OSM    O1317390   6.960   1.013   2.551 -0.3722  0.0053  0.2693
  156OSM    O1417391   7.170   0.877   2.526 -0.1576 -0.1686 -0.5248
  156OSM    O1117392   7.116   0.982   2.740 -0.1492 -0.3848 -0.1077
  156OSM    O1217393   7.177   1.126   2.540  0.4638  0.3528  0.0858
  156OSM    C1S17394   7.210   0.908   2.817  0.3283  0.0475  0.1258
  156OSM    H1S17395   7.308   0.914   2.764  1.7009  0.9202  2.6139
  156OSM    H1T17396   7.172   0.804   2.808 -3.4249  1.2583 -0.0472
  156OSM     NF17397   7.313   0.868   3.048  0.7089  0.3367 -0.1940
  156OSM    HNF17398   7.290   0.815   3.129 -0.8377 -1.2021 -1.5602
  156OSM    C2S17399   7.214   0.947   2.967 -0.1409  0.2517 -0.6980
  156OSM    H2S17400   7.260   1.046   2.948 -1.6406  0.6280 -2.6671
  156OSM    C3S17401   7.072   0.974   3.029  0.0680 -0.4937 -1.1956
  156OSM    H3S17402   7.020   0.877   3.043 -0.0075 -0.1304  1.4359
  156OSM     O317403   6.981   1.044   2.941  0.5415  0.4603 -0.1269
  156OSM    HO317404   7.036   1.039   2.863  0.5426 -0.7040 -0.0758
  156OSM    C4S17405   7.070   1.030   3.165  0.1217 -0.3599 -0.4659
  156OSM    H4S17406   7.086   0.957   3.246 -1.8300  0.0618  0.3573
  156OSM    C5S17407   7.057   1.160   3.194 -0.3616 -0.1292 -0.6299
  156OSM    H5S17408   7.027   1.228   3.113 -0.8196  1.5254  0.8583
  156OSM    C6S17409   7.063   1.233   3.332  0.5025  0.2724 -0.4183
  156OSM    H6S17410   6.984   1.308   3.350 -0.0167 -0.3840  0.1074
  156OSM    H6T17411   7.152   1.299   3.326 -0.3105  1.3341 -1.0091
  156OSM    C7S17412   7.069   1.146   3.460 -0.7537  0.2551  0.1059
  156OSM    H7S17413   7.144   1.064   3.451 -2.6390 -1.4051 -1.5995
  156OSM    H7T17414   6.971   1.095   3.471  0.6444 -2.9203 -0.9235
  156OSM    C8S17415   7.081   1.236   3.585  0.4990  1.1179 -0.6951
  156OSM    H8S17416   7.033   1.336   3.585 -0.4743  0.6689 -0.4372
  156OSM    H8T17417   7.187   1.262   3.604  0.0446  2.9828 -0.5480
  156OSM    C9S17418   7.032   1.151   3.705 -0.0410  0.6952 -0.0222
  156OSM    H9S17419   7.078   1.050   3.705 -1.2430  0.1343  0.3701
  156OSM    H9T17420   6.924   1.128   3.696  0.2614 -1.0980  0.5899
  156OSM   C10S17421   7.058   1.219   3.841 -0.0476 -0.5952  0.7178
  156OSM   H10S17422   7.007   1.317   3.848 -0.4413 -0.8259  1.1537
  156OSM   H10T17423   7.167   1.237   3.851 -0.1272  3.4742 -2.9019
  156OSM   C11S17424   7.018   1.133   3.961  0.0222 -0.2329  0.2212
  156OSM   H11S17425   7.072   1.036   3.964 -0.1733 -0.3233  1.5655
  156OSM   H11T17426   6.907   1.129   3.962 -0.0530  1.1949 -0.6028
  156OSM   C12S17427   7.046   1.202   4.096 -0.2045  0.1092  0.4632
  156OSM   H12S17428   7.006   1.306   4.094  1.4555  0.8067  1.2438
  156OSM   H12T17429   7.154   1.198   4.124 -0.6195 -0.0017  2.1829
  156OSM   C13S17430   6.964   1.131   4.207 -0.2345 -0.3325 -0.0329
  156OSM   H13S17431   7.003   1.027   4.206  1.8160  0.3482  1.4688
  156OSM   H13T17432   6.856   1.143   4.187 -0.4364  0.6666  1.4862
  156OSM   C14S17433   7.009   1.189   4.343 -0.9734  0.1745  0.0783
  156OSM   H14S17434   6.976   1.295   4.337  0.5222  0.7152  0.8566
  156OSM   H14T17435   7.120   1.182   4.350 -1.0208 -2.4362 -0.6497
  156OSM   C15S17436   6.966   1.111   4.465  0.5337 -0.0187 -0.0973
  156OSM   H15S17437   7.006   1.008   4.473 -1.6879 -1.0890 -1.6515
  156OSM   H15T17438   6.856   1.100   4.455  0.4535  0.6080  0.0295
  156OSM   C16S17439   6.994   1.183   4.592 -0.5061 -0.3319 -0.2021
  156OSM   H16S17440   6.948   1.283   4.583  0.1094  0.1470  1.6490
  156OSM   H16T17441   7.101   1.196   4.617 -0.5858 -0.0161 -0.0314
  156OSM   C17S17442   6.925   1.137   4.716 -0.3145 -0.0874 -0.9916
  156OSM   H17S17443   6.815   1.144   4.705 -0.8038  1.1076  2.9398
  156OSM   H17T17444   6.938   1.214   4.796  0.0255  0.4948 -1.5971
  156OSM   C18S17445   6.962   1.003   4.774  0.0272 -0.9764  0.3511
  156OSM   H18S17446   6.897   0.980   4.861  3.6327  0.8107  3.8546
  156OSM   H18T17447   7.066   1.010   4.811  0.0694  1.4798 -0.0359
  156OSM   H18U17448   6.946   0.930   4.692 -0.3817 -0.3145 -0.1763
  156OSM    C1F17449   7.439   0.860   3.007 -0.0102 -1.0638  0.0761
  156OSM     OF17450   7.482   0.935   2.918  0.0288 -0.5848  0.1296
  156OSM    C2F17451   7.526   0.757   3.076 -0.1042  0.3825 -0.0155
  156OSM    H2F17452   7.526   0.666   3.013 -1.6331  0.7564 -0.6227
  156OSM    H2G17453   7.487   0.735   3.177 -0.7071 -2.1384 -0.7317
  156OSM    C3F17454   7.663   0.812   3.090 -0.4311  0.3029 -0.3674
  156OSM    H3F17455   7.657   0.901   3.155 -2.9970 -0.9298  1.2363
  156OSM    H3G17456   7.698   0.842   2.989  3.2968  1.5256  1.1237
  156OSM    C4F17457   7.762   0.701   3.148  0.1325 -0.1673  0.5580
  156OSM    H4F17458   7.862   0.747   3.160  1.4379 -2.9412  1.1994
  156OSM    H4G17459   7.770   0.626   3.066  0.7952  1.1112 -0.5738
  156OSM    C5F17460   7.728   0.655   3.286  0.4377  0.0055 -0.3644
  156OSM    H5F17461   7.654   0.573   3.277 -0.5208  0.9550 -1.5068
  156OSM    H5G17462   7.694   0.742   3.347  0.8172 -0.5199  0.6133
  156OSM    C6F17463   7.844   0.596   3.358  0.6205  0.5732  0.1960
  156OSM    H6F17464   7.911   0.680   3.386  0.7548 -0.3191  2.8473
  156OSM    H6G17465   7.901   0.533   3.286 -0.6245  2.1031 -2.2500
  156OSM    C7F17466   7.818   0.521   3.490  0.6513  0.2711 -0.2082
  156OSM    H7F17467   7.745   0.441   3.464 -0.9675  2.1791 -1.9647
  156OSM    H7G17468   7.761   0.592   3.554 -0.8876  0.2309 -1.4646
  156OSM    C8F17469   7.940   0.453   3.555  0.0102  0.2459  0.4644
  156OSM    H8F17470   8.005   0.407   3.478 -1.0901 -0.9364  0.2058
  156OSM    H8G17471   7.910   0.366   3.617  1.2085  0.0914  0.8589
  156OSM    C9F17472   8.013   0.547   3.647  0.4539 -0.1933 -0.4030
  156OSM    H9F17473   8.109   0.593   3.617 -0.0314  0.9770 -0.2109
  156OSM   C10F17474   7.983   0.565   3.777  0.0906  0.6972 -0.3344
  156OSM   H10F17475   8.040   0.641   3.831 -0.9973  0.5463  1.0803
  156OSM   C11F17476   7.858   0.515   3.845 -0.2489 -0.9967 -0.7854
  156OSM   H11F17477   7.874   0.407   3.866  0.3418 -0.5592  1.2362
  156OSM   H11G17478   7.771   0.512   3.777 -0.0706 -2.4697 -0.9859
  156OSM   C12F17479   7.826   0.575   3.981 -0.0672 -0.3195 -0.0730
  156OSM   H12F17480   7.733   0.534   4.026  0.0620 -1.1369 -0.5128
  156OSM   H12G17481   7.809   0.684   3.972  2.4489  0.0689 -0.8573
  156OSM   C13F17482   7.933   0.566   4.085 -0.2229  0.1109 -0.7602
  156OSM   H13F17483   8.008   0.647   4.071  0.4388 -0.6041 -1.4148
  156OSM   H13G17484   7.987   0.470   4.076 -0.7063 -0.2630  0.1855
  156OSM   C14F17485   7.888   0.585   4.236  0.2811 -0.2667  0.0809
  156OSM   H14F17486   7.815   0.508   4.268  0.0902 -0.4571 -0.7684
  156OSM   H14G17487   7.831   0.680   4.241  0.6719 -0.1040  2.2791
  156OSM   C15F17488   8.009   0.589   4.326 -0.3146  1.1715  0.1837
  156OSM   H15F17489   8.067   0.682   4.306 -1.1538  2.0578  1.6811
  156OSM   H15G17490   8.077   0.503   4.310 -1.5154 -0.9491  4.7433
  156OSM   C16F17491   7.971   0.586   4.479 -0.1046 -0.3490  0.3834
  156OSM   H16F17492   7.935   0.490   4.521  0.7158 -0.7950  0.0857
  156OSM   H16G17493   7.893   0.663   4.494 -0.3856 -0.1704 -1.6757
  156OSM   C17F17494   8.087   0.622   4.576 -0.7997 -0.0056 -0.3047
  156OSM   H17F17495   8.134   0.720   4.551  1.5398 -1.2427 -1.1195
  156OSM   H17G17496   8.166   0.544   4.565 -1.8919 -0.8841 -2.8539
  156OSM   C18F17497   8.049   0.612   4.730 -0.3301 -0.3061 -0.0407
  156OSM   H18F17498   8.139   0.626   4.793  1.5935 -2.8398 -2.0399
  156OSM   H18G17499   8.012   0.510   4.753  0.9710 -1.5178 -2.9384
  156OSM   H18H17500   7.965   0.680   4.755  0.1944 -0.2587  1.7517
  157OSM      N17501   6.767   1.376   2.958 -0.0735 -0.2586  0.1140
  157OSM    C1517502   6.758   1.266   3.059 -1.1368 -0.3938 -0.6278
  157OSM   H15A17503   6.761   1.168   3.013 -1.2255 -2.1355  2.7138
  157OSM   H15B17504   6.659   1.262   3.104 -0.7067 -0.1143  0.3769
  157OSM   H15C17505   6.825   1.265   3.144 -0.3192  1.3129 -1.2218
  157OSM    C1417506   6.753   1.515   3.019  0.0674  0.3508 -0.0875
  157OSM   H14A17507   6.662   1.522   3.076 -0.0198 -1.2812  0.0310
  157OSM   H14B17508   6.747   1.596   2.948 -1.7372  1.4512  1.2424
  157OSM   H14C17509   6.841   1.523   3.080  1.2568 -2.0871 -1.3299
  157OSM    C1317510   6.903   1.373   2.896 -0.6987  0.1666  0.4067
  157OSM   H13A17511   6.938   1.279   2.856 -2.0361  0.1246 -0.7656
  157OSM   H13B17512   6.970   1.408   2.973  0.4702 -0.0887 -0.4632
  157OSM   H13C17513   6.915   1.442   2.814 -0.6649  1.4250  1.4311
  157OSM    C1217514   6.667   1.352   2.846  0.3816  0.3140  0.6556
  157OSM   H12A17515   6.696   1.264   2.789 -1.4077 -0.8718  1.4745
  157OSM   H12B17516   6.660   1.441   2.785 -0.1897  2.2870  3.4257
  157OSM    C1117517   6.516   1.320   2.887  0.3594  0.1856  0.4908
  157OSM   H11A17518   6.504   1.245   2.968 -2.4215  1.1212  1.0497
  157OSM   H11B17519   6.481   1.279   2.790 -1.2357  1.1778  0.6185
  157OSM      P17520   6.415   1.554   2.827 -0.0824 -0.0144  0.4994
  157OSM    O1317521   6.536   1.608   2.762  0.3201 -0.2511  0.0098
  157OSM    O1417522   6.309   1.501   2.740  0.3858 -0.0641  0.7020
  157OSM    O1117523   6.348   1.669   2.918  0.0254 -0.1842 -0.8854
  157OSM    O1217524   6.454   1.444   2.922  0.3013 -0.5020 -0.6284
  157OSM    C1S17525   6.234   1.635   2.998 -0.8246 -0.8871 -0.2226
  157OSM    H1S17526   6.232   1.526   3.017  1.1969 -0.5944  2.1988
  157OSM    H1T17527   6.141   1.664   2.945 -0.9938  0.7050  0.8800
  157OSM     NF17528   6.137   1.664   3.228 -0.4550  0.4678  0.6992
  157OSM    HNF17529   6.071   1.731   3.261 -0.9137  0.7273 -0.6854
  157OSM    C2S17530   6.235   1.716   3.134 -0.3901  0.4792  0.1471
  157OSM    H2S17531   6.327   1.684   3.189 -0.9196  0.6325  1.1351
  157OSM    C3S17532   6.239   1.868   3.112 -0.0294 -0.1586 -0.1677
  157OSM    H3S17533   6.139   1.885   3.067 -0.1517  1.6465  0.6912
  157OSM     O317534   6.338   1.902   3.020 -0.0400 -0.6306  0.3016
  157OSM    HO317535   6.371   1.816   2.993  0.5383 -0.6819  1.1419
  157OSM    C4S17536   6.256   1.935   3.248  0.7060  0.4863  0.0386
  157OSM    H4S17537   6.351   1.917   3.300  0.0896  0.9296  1.3449
  157OSM    C5S17538   6.163   2.012   3.310 -0.5838 -0.7205 -0.1167
  157OSM    H5S17539   6.070   2.044   3.261  0.2019  0.2380 -1.0495
  157OSM    C6S17540   6.195   2.079   3.438  0.2710 -0.2667 -1.0892
  157OSM    H6S17541   6.154   2.181   3.426  1.5773  0.2840 -0.9646
  157OSM    H6T17542   6.304   2.075   3.457  0.5581  0.9770 -2.3230
  157OSM    C7S17543   6.122   2.020   3.564 -0.4505  0.4802 -0.0894
  157OSM    H7S17544   6.188   1.935   3.591 -1.1269 -0.2566 -0.7012
  157OSM    H7T17545   6.019   1.990   3.534 -1.1952  0.5928  2.1506
  157OSM    C8S17546   6.122   2.123   3.679  0.2504 -0.1550  0.5150
  157OSM    H8S17547   6.067   2.208   3.633  1.3634 -0.1515 -0.8839
  157OSM    H8T17548   6.220   2.160   3.717 -0.1612  0.7686  0.6942
  157OSM    C9S17549   6.045   2.062   3.801 -0.5259 -0.0590  0.5317
  157OSM    H9S17550   6.072   2.128   3.887  2.1069  0.2119 -0.4124
  157OSM    H9T17551   6.075   1.959   3.827 -1.8645 -0.1480  1.8239
  157OSM   C10S17552   5.894   2.081   3.784  0.8474  0.3049  0.1084
  157OSM   H10S17553   5.860   2.003   3.713 -1.9516  1.3750  0.1464
  157OSM   H10T17554   5.862   2.177   3.740  1.3527  0.5323  0.2262
  157OSM   C11S17555   5.818   2.062   3.915 -0.1525 -0.4525  0.2358
  157OSM   H11S17556   5.851   1.971   3.970 -0.5649 -1.0557 -0.4878
  157OSM   H11T17557   5.716   2.029   3.885 -0.3646 -0.4920  0.9957
  157OSM   C12S17558   5.804   2.189   3.998 -0.0360 -1.0744 -0.0905
  157OSM   H12S17559   5.757   2.273   3.941 -0.6120 -1.0282  0.4433
  157OSM   H12T17560   5.904   2.232   4.019 -0.4176 -1.0888  1.9743
  157OSM   C13S17561   5.720   2.183   4.125 -0.2454  0.0499  0.4292
  157OSM   H13S17562   5.675   2.082   4.144  0.0058  0.1318  1.5492
  157OSM   H13T17563   5.629   2.246   4.120 -2.0512 -2.3814  0.5722
  157OSM   C14S17564   5.794   2.215   4.251  0.6398  0.1625 -0.6582
  157OSM   H14S17565   5.834   2.318   4.243  0.4512  0.2328 -0.6905
  157OSM   H14T17566   5.882   2.149   4.268 -0.4397 -1.0126  0.5803
  157OSM   C15S17567   5.697   2.191   4.369 -0.0749 -0.5016 -0.7048
  157OSM   H15S17568   5.676   2.083   4.382  2.1573 -1.0472 -1.2246
  157OSM   H15T17569   5.612   2.258   4.341  1.0221  0.7513 -1.1513
  157OSM   C16S17570   5.740   2.246   4.505 -0.5919  0.1805 -0.0867
  157OSM   H16S17571   5.647   2.255   4.565 -1.0650 -1.3936 -0.5534
  157OSM   H16T17572   5.786   2.347   4.492  1.1732 -0.7146 -1.2035
  157OSM   C17S17573   5.840   2.161   4.579  0.2089 -0.4486  0.1246
  157OSM   H17S17574   5.934   2.165   4.519 -0.6146 -1.0613 -1.2601
  157OSM   H17T17575   5.816   2.053   4.573  0.2469 -0.5432  1.5279
  157OSM   C18S17576   5.871   2.200   4.725 -0.0132 -0.2225  0.0603
  157OSM   H18S17577   5.946   2.281   4.741 -0.4350  0.4031 -1.0811
  157OSM   H18T17578   5.900   2.108   4.780  1.1391  0.0308 -0.1009
  157OSM   H18U17579   5.781   2.224   4.786  0.7340 -0.3035  1.2290
  157OSM    C1F17580   6.142   1.536   3.268 -0.1989 -0.9929 -0.0638
  157OSM     OF17581   6.227   1.456   3.237  0.0425  0.2866 -0.0453
  157OSM    C2F17582   6.035   1.498   3.360  0.3936  0.1938 -0.1289
  157OSM    H2F17583   5.937   1.546   3.340  1.4561  1.3385 -3.2055
  157OSM    H2G17584   6.064   1.534   3.461  0.7261  1.1630 -0.5562
  157OSM    C3F17585   6.014   1.349   3.358  0.5516 -0.3936 -0.4981
  157OSM    H3F17586   6.104   1.300   3.402  0.9559 -2.3532 -3.2595
  157OSM    H3G17587   5.992   1.317   3.254 -5.1606 -1.4178  0.7093
  157OSM    C4F17588   5.880   1.306   3.429 -0.4577  0.1945  0.2863
  157OSM    H4F17589   5.813   1.257   3.356  1.5092  1.0734 -2.2807
  157OSM    H4G17590   5.815   1.393   3.452  0.5418  0.8330  0.8012
  157OSM    C5F17591   5.902   1.219   3.548  0.7277  0.7600 -0.0522
  157OSM    H5F17592   5.915   1.283   3.638 -1.0417 -0.5455  1.2009
  157OSM    H5G17593   5.993   1.157   3.534  0.5443  1.0343 -3.3055
  157OSM    C6F17594   5.780   1.117   3.569 -0.8256 -0.0942 -0.0263
  157OSM    H6F17595   5.796   1.061   3.475  0.3461  1.7669 -0.9993
  157OSM    H6G17596   5.684   1.174   3.562 -1.8732 -1.9740 -2.0894
  157OSM    C7F17597   5.796   1.023   3.684  0.2810 -0.0159  0.0850
  157OSM    H7F17598   5.900   0.984   3.674 -0.1500 -1.7033  1.6270
  157OSM    H7G17599   5.709   0.955   3.670  1.0742 -0.6899 -1.9075
  157OSM    C8F17600   5.774   1.085   3.827 -0.3789 -0.3160  0.5311
  157OSM    H8F17601   5.686   1.152   3.833 -0.9833 -1.0200 -0.2687
  157OSM    H8G17602   5.858   1.154   3.850 -1.0587  1.2566 -1.4539
  157OSM    C9F17603   5.771   0.966   3.923 -0.0044  0.0672  0.5573
  157OSM    H9F17604   5.704   0.885   3.891  0.6779  0.2506 -1.4826
  157OSM   C10F17605   5.836   0.955   4.037  0.0849  0.5371 -0.5269
  157OSM   H10F17606   5.807   0.872   4.103 -0.4640  0.5326 -0.7686
  157OSM   C11F17607   5.932   1.052   4.095  0.4343  0.3446 -0.0469
  157OSM   H11F17608   6.002   1.098   4.023 -0.3621 -0.0304 -1.0886
  157OSM   H11G17609   6.009   0.997   4.154  0.1711  0.8432  0.7910
  157OSM   C12F17610   5.875   1.160   4.180  0.5456 -0.0036  0.3883
  157OSM   H12F17611   5.792   1.218   4.133  1.2521 -0.6173 -1.7115
  157OSM   H12G17612   5.953   1.235   4.203  0.1511 -0.2284  2.7097
  157OSM   C13F17613   5.844   1.121   4.328 -0.4444 -0.1420 -0.3593
  157OSM   H13F17614   5.915   1.039   4.354 -1.2588 -1.8831 -3.2027
  157OSM   H13G17615   5.750   1.063   4.320 -0.6494  0.2665 -0.9886
  157OSM   C14F17616   5.828   1.239   4.428 -0.5483  0.2602  0.4273
  157OSM   H14F17617   5.753   1.316   4.400  0.6994  1.2025 -0.4155
  157OSM   H14G17618   5.930   1.283   4.417 -1.0453  1.1374 -0.9223
  157OSM   C15F17619   5.799   1.205   4.575  0.2542 -0.2657 -0.5366
  157OSM   H15F17620   5.865   1.127   4.620 -0.4915 -0.5829  0.0267
  157OSM   H15G17621   5.699   1.156   4.572  0.7246 -1.2271 -3.0731
  157OSM   C16F17622   5.798   1.329   4.668  0.4899  0.4077 -0.9113
  157OSM   H16F17623   5.740   1.404   4.609 -1.5385 -1.9197 -2.0899
  157OSM   H16G17624   5.891   1.390   4.663  0.0661  1.1333 -0.1544
  157OSM   C17F17625   5.747   1.305   4.804  0.0108  0.1963  0.0562
  157OSM   H17F17626   5.812   1.241   4.867 -1.4030 -2.0548 -0.6813
  157OSM   H17G17627   5.651   1.252   4.786 -0.7552  1.7128 -0.5497
  157OSM   C18F17628   5.707   1.429   4.878 -0.4697 -0.5903 -0.0085
  157OSM   H18F17629   5.607   1.456   4.838  0.0094  0.8465 -0.2819
  157OSM   H18G17630   5.778   1.510   4.853 -0.7611  0.3662  2.0292
  157OSM   H18H17631   5.688   1.407   4.986 -1.8113 -1.3771 -0.3829
  158OSM      N17632   2.663   6.506   3.080  0.4321  0.1956  0.4926
  158OSM    C1517633   2.670   6.602   3.195  0.8589  1.0732  0.3935
  158OSM   H15A17634   2.703   6.553   3.285  2.9217  0.2304 -0.7374
  158OSM   H15B17635   2.572   6.644   3.211 -0.4784 -1.7237  0.0754
  158OSM   H15C17636   2.739   6.682   3.170  3.8175 -1.1520  0.8494
  158OSM    C1417637   2.553   6.400   3.111 -0.4544 -0.6431 -0.1863
  158OSM   H14A17638   2.555   6.320   3.038 -0.0221 -2.0493  1.3167
  158OSM   H14B17639   2.454   6.441   3.093 -0.7674 -1.8243 -1.3149
  158OSM   H14C17640   2.565   6.357   3.209  0.8818  0.6519  0.2579
  158OSM    C1317641   2.623   6.570   2.946  0.1050 -0.1069  0.6767
  158OSM   H13A17642   2.524   6.614   2.952 -0.0250 -0.5189  1.7127
  158OSM   H13B17643   2.618   6.493   2.870 -1.2693  0.9539 -0.3618
  158OSM   H13C17644   2.693   6.644   2.911 -1.4512  0.9891 -0.2101
  158OSM    C1217645   2.800   6.441   3.064 -0.1295  0.0912 -0.0202
  158OSM   H12A17646   2.784   6.370   2.984 -0.7414 -0.4618  0.5792
  158OSM   H12B17647   2.818   6.373   3.146  0.8752 -0.6075 -0.8100
  158OSM    C1117648   2.920   6.539   3.031 -0.6405  0.4837  0.0687
  158OSM   H11A17649   3.018   6.490   3.047 -0.4176  0.3795 -1.4198
  158OSM   H11B17650   2.924   6.620   3.107 -0.8573  1.5611 -1.0187
  158OSM      P17651   3.011   6.624   2.803 -0.0436  0.0030  0.1587
  158OSM    O1317652   3.083   6.507   2.745  0.9179 -0.2649  0.1712
  158OSM    O1417653   2.965   6.728   2.714 -0.7625 -0.3060 -0.1791
  158OSM    O1117654   3.110   6.693   2.903  0.3411 -0.1523 -0.2011
  158OSM    O1217655   2.893   6.582   2.898  0.2594 -0.2651 -0.1308
  158OSM    C1S17656   3.087   6.815   2.972  0.0493 -0.2749 -1.0489
  158OSM    H1S17657   2.979   6.830   2.990  0.3630  0.0242  0.8172
  158OSM    H1T17658   3.129   6.905   2.922 -0.7428  0.0689 -1.1085
  158OSM     NF17659   3.123   6.924   3.203 -0.6934  0.5138  0.3379
  158OSM    HNF17660   3.199   6.977   3.241 -0.2197 -1.1436  1.8620
  158OSM    C2S17661   3.170   6.818   3.117 -0.7619 -0.0158 -0.2163
  158OSM    H2S17662   3.149   6.723   3.170  0.6457  0.1959  0.7933
  158OSM    C3S17663   3.325   6.814   3.094  0.6423  0.1393 -0.0019
  158OSM    H3S17664   3.367   6.910   3.055  0.3069 -0.0023 -0.7287
  158OSM     O317665   3.360   6.717   2.993 -0.0884 -0.1320 -0.0918
  158OSM    HO317666   3.279   6.671   2.971  1.4007 -3.3200  0.5307
  158OSM    C4S17667   3.407   6.776   3.218  0.3737 -0.1955  0.6751
  158OSM    H4S17668   3.387   6.673   3.250 -0.3946 -0.0487  0.6822
  158OSM    C5S17669   3.505   6.845   3.281  0.2486  0.3912  0.0648
  158OSM    H5S17670   3.537   6.946   3.250 -1.2384  1.6074  2.2363
  158OSM    C6S17671   3.576   6.798   3.404  0.5327  0.3351 -0.2197
  158OSM    H6S17672   3.686   6.794   3.389  0.7263 -2.0459  1.4070
  158OSM    H6T17673   3.547   6.695   3.431 -1.6684  1.2290  1.1355
  158OSM    C7S17674   3.528   6.879   3.526 -0.0667 -0.4967 -0.1023
  158OSM    H7S17675   3.417   6.877   3.532 -0.0869 -0.2259 -0.3529
  158OSM    H7T17676   3.561   6.985   3.515 -1.8073  0.0950  0.1645
  158OSM    C8S17677   3.569   6.813   3.650  0.0528  0.0215 -0.9957
  158OSM    H8S17678   3.679   6.805   3.653  0.0714  0.4097  0.7625
  158OSM    H8T17679   3.537   6.706   3.650  2.7150 -0.8447  0.1350
  158OSM    C9S17680   3.509   6.872   3.777 -0.7634  0.3682 -0.3844
  158OSM    H9S17681   3.399   6.868   3.785 -0.6331 -0.3889  1.5457
  158OSM    H9T17682   3.545   6.977   3.779 -0.8911  0.4216 -0.8508
  158OSM   C10S17683   3.561   6.812   3.912  0.5182 -0.3059  0.8473
  158OSM   H10S17684   3.668   6.838   3.922  0.7015 -1.3495  1.8333
  158OSM   H10T17685   3.551   6.701   3.916  1.2161 -0.3607  1.0944
  158OSM   C11S17686   3.484   6.875   4.026  0.3516 -0.6290  0.0475
  158OSM   H11S17687   3.388   6.819   4.032  1.1145 -2.0427 -0.4548
  158OSM   H11T17688   3.478   6.982   3.997  3.8997 -0.1992  0.4852
  158OSM   C12S17689   3.543   6.874   4.169 -0.4274 -0.7113  0.1861
  158OSM   H12S17690   3.646   6.916   4.172 -0.3965 -0.7292 -0.4151
  158OSM   H12T17691   3.553   6.766   4.193 -0.5394 -0.6792  0.3759
  158OSM   C13S17692   3.452   6.942   4.269  0.7993  0.3273 -0.1481
  158OSM   H13S17693   3.348   6.903   4.260  0.9222  0.0015 -0.1720
  158OSM   H13T17694   3.446   7.048   4.238  0.5219  0.3993  0.1415
  158OSM   C14S17695   3.507   6.936   4.419 -0.2075 -1.0130 -0.3860
  158OSM   H14S17696   3.604   6.989   4.422 -0.9230  0.3541 -0.4192
  158OSM   H14T17697   3.545   6.836   4.447  0.0748 -0.8989 -0.3621
  158OSM   C15S17698   3.422   7.017   4.514 -0.3421 -0.1677 -0.6829
  158OSM   H15S17699   3.324   6.967   4.534  0.2740 -0.6959  1.2567
  158OSM   H15T17700   3.401   7.121   4.482  1.0591  0.7937  1.3295
  158OSM   C16S17701   3.499   7.029   4.646 -0.0122 -0.6605  0.8481
  158OSM   H16S17702   3.591   7.089   4.627  1.7981 -3.5073 -0.1109
  158OSM   H16T17703   3.523   6.929   4.688  0.7119 -0.5058  0.8120
  158OSM   C17S17704   3.416   7.112   4.738  0.0660 -0.0686 -0.3581
  158OSM   H17S17705   3.314   7.071   4.751 -0.5670  1.8940  1.2221
  158OSM   H17T17706   3.411   7.214   4.694  0.6671  0.7604  1.4020
  158OSM   C18S17707   3.476   7.122   4.882 -0.3518  0.2247  0.8911
  158OSM   H18S17708   3.576   7.164   4.858 -0.3227 -0.1502  0.3526
  158OSM   H18T17709   3.499   7.022   4.925 -0.9258  0.5075  1.9112
  158OSM   H18U17710   3.403   7.182   4.941 -2.2428 -0.0290 -1.0939
  158OSM    C1F17711   2.997   6.933   3.251 -0.0670  0.5845  0.0433
  158OSM     OF17712   2.910   6.853   3.222 -0.0892  0.3306  0.7941
  158OSM    C2F17713   2.977   7.051   3.344 -0.3704  0.0577  0.1426
  158OSM    H2F17714   2.908   7.125   3.297  0.3402 -0.1042 -1.2056
  158OSM    H2G17715   3.075   7.103   3.353 -0.0537 -0.2499 -1.2679
  158OSM    C3F17716   2.932   7.002   3.483  0.0364  0.5976 -0.3016
  158OSM    H3F17717   3.001   6.942   3.545 -1.3086  1.4987  2.2336
  158OSM    H3G17718   2.847   6.930   3.483  0.1934  0.4079  0.1798
  158OSM    C4F17719   2.886   7.113   3.574  0.5047  0.4450 -0.2087
  158OSM    H4F17720   2.807   7.076   3.643 -0.0443  0.6022 -0.7377
  158OSM    H4G17721   2.832   7.192   3.517 -1.0039 -1.7083 -1.9603
  158OSM    C5F17722   2.998   7.181   3.645  0.1625  0.7518 -0.0075
  158OSM    H5F17723   2.970   7.285   3.672 -0.8529  0.9779 -1.7455
  158OSM    H5G17724   3.085   7.180   3.575  0.3635 -2.0950  0.1757
  158OSM    C6F17725   3.042   7.103   3.767  0.4977 -0.0134  0.2978
  158OSM    H6F17726   3.081   7.002   3.744  1.6902 -0.1906  2.8582
  158OSM    H6G17727   2.949   7.088   3.826  1.0969 -1.2329  0.9656
  158OSM    C7F17728   3.147   7.178   3.857 -0.3692 -0.1768  0.7669
  158OSM    H7F17729   3.118   7.286   3.861 -0.0639  0.1696 -2.8314
  158OSM    H7G17730   3.233   7.170   3.787 -0.6974 -0.0181  0.3407
  158OSM    C8F17731   3.158   7.103   3.992 -0.6705 -0.0766 -0.4924
  158OSM    H8F17732   3.199   7.000   3.983 -3.2469 -1.2521  0.3281
  158OSM    H8G17733   3.053   7.096   4.026 -0.8374 -1.6851 -1.2621
  158OSM    C9F17734   3.247   7.194   4.067  0.2192 -1.2958 -1.6884
  158OSM    H9F17735   3.353   7.168   4.078  0.5452  0.3338 -0.6585
  158OSM   C10F17736   3.220   7.320   4.120 -0.0287 -0.5510 -0.1833
  158OSM   H10F17737   3.293   7.377   4.178 -0.1272 -2.9501  2.5358
  158OSM   C11F17738   3.082   7.386   4.122 -0.2474  0.1907  0.4926
  158OSM   H11F17739   3.001   7.321   4.083  2.2140 -1.0564 -3.1112
  158OSM   H11G17740   3.075   7.483   4.069 -0.4324  0.6820  1.3881
  158OSM   C12F17741   3.050   7.425   4.276 -0.4816  0.6822  0.1167
  158OSM   H12F17742   2.968   7.500   4.267 -0.1281  0.9655 -0.8344
  158OSM   H12G17743   3.130   7.491   4.316  0.2225  0.4784 -0.9148
  158OSM   C13F17744   3.015   7.307   4.371  0.2666  0.8381 -0.4210
  158OSM   H13F17745   3.097   7.232   4.376 -0.4424  0.0323 -0.5716
  158OSM   H13G17746   2.931   7.257   4.317  0.3413  1.6651 -1.3367
  158OSM   C14F17747   2.975   7.342   4.514  0.3311 -0.0040 -0.0587
  158OSM   H14F17748   2.985   7.244   4.567 -0.0770 -1.9921 -3.3571
  158OSM   H14G17749   2.870   7.378   4.516  0.8143  1.5580 -1.2577
  158OSM   C15F17750   3.073   7.441   4.579  0.3936 -0.0436  0.1056
  158OSM   H15F17751   3.033   7.472   4.678 -0.0141  1.5427 -0.5271
  158OSM   H15G17752   3.076   7.538   4.524 -0.6411 -0.4908 -0.7771
  158OSM   C16F17753   3.220   7.387   4.590  0.6238 -0.0059 -0.3602
  158OSM   H16F17754   3.241   7.311   4.512 -2.1948 -1.3672  0.0762
  158OSM   H16G17755   3.205   7.324   4.680  1.1151  0.7363  0.2557
  158OSM   C17F17756   3.321   7.497   4.622 -0.9118 -0.4282 -0.2883
  158OSM   H17F17757   3.341   7.559   4.532  0.9147 -0.0504  0.3383
  158OSM   H17G17758   3.418   7.448   4.647 -0.4270  1.0296  0.8208
  158OSM   C18F17759   3.281   7.594   4.735  0.0343  0.2718  0.0384
  158OSM   H18F17760   3.236   7.535   4.817 -2.7415  0.3322 -1.3358
  158OSM   H18G17761   3.207   7.664   4.692 -0.3425  0.0302  0.2933
  158OSM   H18H17762   3.363   7.660   4.769 -0.6210  0.9474  0.3174
  159OSM      N17763   3.281   6.962   2.543  0.4243 -0.1431 -0.3162
  159OSM    C1517764   3.299   7.081   2.460 -0.1238  0.0612 -0.4850
  159OSM   H15A17765   3.362   7.057   2.375 -1.2526 -1.5004 -0.9255
  159OSM   H15B17766   3.351   7.158   2.516 -0.4894 -0.7409  0.9996
  159OSM   H15C17767   3.211   7.138   2.433 -0.4082 -0.3493 -0.4301
  159OSM    C1417768   3.189   6.869   2.471  0.0935  0.1101 -0.5145
  159OSM   H14A17769   3.236   6.836   2.380 -0.2675 -0.3434 -0.5431
  159OSM   H14B17770   3.092   6.915   2.458 -0.2097 -0.0083  1.1468
  159OSM   H14C17771   3.171   6.777   2.525  1.8168  0.9440  1.6303
  159OSM    C1317772   3.410   6.889   2.549 -0.0735  0.0294  0.2861
  159OSM   H13A17773   3.439   6.848   2.454 -0.6387 -0.0079  0.1276
  159OSM   H13B17774   3.424   6.814   2.625  1.3033 -0.3729 -0.3461
  159OSM   H13C17775   3.478   6.969   2.575 -3.5332  4.1314 -1.7892
  159OSM    C1217776   3.232   6.999   2.687  0.0431  0.5141 -0.2622
  159OSM   H12A17777   3.240   6.909   2.748  3.5227  2.1342  1.9924
  159OSM   H12B17778   3.128   7.027   2.675  0.2094  1.0781 -0.4154
  159OSM    C1117779   3.300   7.103   2.783  0.1024  0.9402  0.1082
  159OSM   H11A17780   3.396   7.051   2.804  0.3505  0.9847 -0.8391
  159OSM   H11B17781   3.234   7.109   2.872  0.0142 -0.9989  0.2111
  159OSM      P17782   3.443   7.314   2.731 -0.3343 -0.0027  0.2434
  159OSM    O1317783   3.519   7.269   2.614  0.6154 -0.2817 -0.2055
  159OSM    O1417784   3.417   7.462   2.740 -0.0208  0.0921 -0.1027
  159OSM    O1117785   3.520   7.278   2.865  0.0672  0.0632 -0.4941
  159OSM    O1217786   3.312   7.232   2.725  0.2056 -0.1358  0.4808
  159OSM    C1S17787   3.468   7.301   2.990 -0.8018  0.5029 -0.5636
  159OSM    H1S17788   3.361   7.272   2.998 -0.8214  1.0984  1.9935
  159OSM    H1T17789   3.494   7.404   3.024  0.6194 -0.5323  1.6992
  159OSM     NF17790   3.488   7.259   3.223 -0.2213 -0.1890  0.5852
  159OSM    HNF17791   3.529   7.333   3.276  2.2038 -0.8253 -0.2641
  159OSM    C2S17792   3.550   7.218   3.091  0.9818 -0.2109  0.6118
  159OSM    H2S17793   3.522   7.114   3.062 -1.2866  1.0885 -2.2850
  159OSM    C3S17794   3.704   7.243   3.076 -0.3212 -0.4933 -0.3914
  159OSM    H3S17795   3.723   7.349   3.105  1.9845 -1.0545  0.3829
  159OSM     O317796   3.768   7.238   2.946  0.1132  0.1501 -0.2681
  159OSM    HO317797   3.689   7.239   2.891 -1.3163 -3.5461  1.3694
  159OSM    C4S17798   3.776   7.160   3.177  0.0142 -0.0071  0.1526
  159OSM    H4S17799   3.784   7.052   3.157  1.7811  0.4696 -2.1097
  159OSM    C5S17800   3.849   7.204   3.281  0.2607  0.9463  0.1606
  159OSM    H5S17801   3.853   7.308   3.316 -0.7662  0.4758  1.8111
  159OSM    C6S17802   3.924   7.112   3.376 -0.1972 -0.1904 -0.0545
  159OSM    H6S17803   4.032   7.136   3.373 -0.9024  3.5395 -1.0950
  159OSM    H6T17804   3.922   7.006   3.344 -1.3022 -0.0865 -0.3774
  159OSM    C7S17805   3.861   7.122   3.519  0.1513  0.1211  0.3764
  159OSM    H7S17806   3.754   7.093   3.514  0.5357 -1.1728 -1.0261
  159OSM    H7T17807   3.870   7.226   3.558  1.9192  0.8445 -1.7480
  159OSM    C8S17808   3.928   7.025   3.619 -0.8479  0.2746  0.0296
  159OSM    H8S17809   4.034   7.033   3.590 -1.0992 -1.6434 -1.6464
  159OSM    H8T17810   3.885   6.924   3.599  0.1961 -0.1136 -0.3049
  159OSM    C9S17811   3.905   7.068   3.765  0.0952 -0.1080 -0.2106
  159OSM    H9S17812   3.797   7.092   3.780  0.0281 -0.7137  0.3133
  159OSM    H9T17813   3.956   7.165   3.779 -0.6699 -0.0876  3.2821
  159OSM   C10S17814   3.938   6.967   3.873  0.0394  0.2434 -0.8788
  159OSM   H10S17815   4.049   6.961   3.866  0.0906 -0.2262  0.1890
  159OSM   H10T17816   3.908   6.867   3.835 -0.9091  0.9421 -2.0862
  159OSM   C11S17817   3.897   7.006   4.014 -0.0940 -0.4051 -0.0733
  159OSM   H11S17818   3.788   6.985   4.020 -0.1606 -0.4003 -1.0527
  159OSM   H11T17819   3.902   7.117   4.021  1.1701 -0.4469  0.0603
  159OSM   C12S17820   3.980   6.926   4.120 -0.0371  0.0860  0.1029
  159OSM   H12S17821   4.086   6.936   4.089 -0.1917  0.3177 -0.3767
  159OSM   H12T17822   3.946   6.821   4.126  1.4353 -0.3486  1.2739
  159OSM   C13S17823   3.960   6.976   4.265 -0.5107 -0.0315  0.0226
  159OSM   H13S17824   3.884   7.056   4.260 -2.6676 -2.0075 -0.2445
  159OSM   H13T17825   4.048   7.029   4.308  1.2804 -2.0140 -0.9567
  159OSM   C14S17826   3.915   6.866   4.358 -0.0955  0.9281  0.4652
  159OSM   H14S17827   3.989   6.785   4.339 -2.3991 -1.9094  2.6343
  159OSM   H14T17828   3.816   6.830   4.322 -0.1406 -1.3893  2.6516
  159OSM   C15S17829   3.928   6.894   4.506 -0.0250 -0.6128  0.6614
  159OSM   H15S17830   3.853   6.968   4.542 -2.1147 -1.2942 -1.9666
  159OSM   H15T17831   4.025   6.937   4.537 -0.7545  0.7898  1.1053
  159OSM   C16S17832   3.900   6.766   4.587  0.5176  0.2056 -0.0616
  159OSM   H16S17833   3.937   6.681   4.526  1.0258 -1.3370  2.2877
  159OSM   H16T17834   3.790   6.763   4.602  0.5318 -0.5802 -0.0801
  159OSM   C17S17835   3.964   6.757   4.723 -0.0898 -0.2383 -0.1473
  159OSM   H17S17836   3.937   6.852   4.775  0.1093 -0.5302  0.4953
  159OSM   H17T17837   4.075   6.764   4.716 -0.1442  0.5231 -0.3490
  159OSM   C18S17838   3.920   6.631   4.798  0.7116 -0.4848 -0.2814
  159OSM   H18S17839   3.813   6.613   4.775  0.3357  0.4057  0.6771
  159OSM   H18T17840   3.930   6.641   4.908  0.5418  3.2015 -0.4789
  159OSM   H18U17841   3.970   6.542   4.754  0.6910 -0.7547  0.2438
  159OSM    C1F17842   3.375   7.205   3.271 -0.6230  0.1528  0.6478
  159OSM     OF17843   3.308   7.129   3.209  0.3828  0.2227  0.0033
  159OSM    C2F17844   3.352   7.230   3.420  0.2727  0.5040 -0.1447
  159OSM    H2F17845   3.318   7.132   3.458  1.6243 -0.2735 -0.8548
  159OSM    H2G17846   3.281   7.315   3.429  2.1924  2.1799  0.0535
  159OSM    C3F17847   3.478   7.259   3.500  0.2450 -0.7090 -0.6253
  159OSM    H3F17848   3.528   7.356   3.481  0.1770 -0.2922  1.1479
  159OSM    H3G17849   3.558   7.187   3.471  2.8367  2.1217 -1.1254
  159OSM    C4F17850   3.464   7.250   3.653  0.0513 -0.0656 -0.1145
  159OSM    H4F17851   3.460   7.145   3.688 -0.3541  0.3557  1.1482
  159OSM    H4G17852   3.375   7.305   3.689 -0.1514 -0.5831  0.1825
  159OSM    C5F17853   3.589   7.307   3.729  0.8490 -0.6620  0.0272
  159OSM    H5F17854   3.602   7.413   3.700 -0.1611 -0.7953 -0.9984
  159OSM    H5G17855   3.670   7.243   3.688  1.6207  1.7931 -2.6195
  159OSM    C6F17856   3.562   7.290   3.879 -0.3535 -0.2800  0.6219
  159OSM    H6F17857   3.572   7.183   3.906 -2.0106 -0.5239  0.3833
  159OSM    H6G17858   3.460   7.326   3.903 -1.6500 -0.9872 -3.0863
  159OSM    C7F17859   3.677   7.352   3.952 -0.2791  0.3395 -0.7578
  159OSM    H7F17860   3.678   7.463   3.958 -0.8408  0.3948 -1.5490
  159OSM    H7G17861   3.771   7.322   3.901 -0.7731 -1.3178 -0.7578
  159OSM    C8F17862   3.689   7.296   4.098 -0.1625  0.1597 -0.2723
  159OSM    H8F17863   3.796   7.303   4.128  0.0562 -2.8645 -0.0248
  159OSM    H8G17864   3.667   7.187   4.106  0.0908  0.1873  1.1056
  159OSM    C9F17865   3.595   7.359   4.201  0.0055  0.3268  0.3241
  159OSM    H9F17866   3.500   7.395   4.159  0.7105  0.9110 -0.7989
  159OSM   C10F17867   3.625   7.396   4.325  0.0816  0.7285  0.4634
  159OSM   H10F17868   3.554   7.440   4.397  0.9302  2.1483  0.4603
  159OSM   C11F17869   3.752   7.360   4.401  0.0179 -0.4669 -0.2366
  159OSM   H11F17870   3.809   7.451   4.431  1.8241 -1.1223 -1.5309
  159OSM   H11G17871   3.814   7.291   4.340 -1.1563 -1.5723 -0.2045
  159OSM   C12F17872   3.730   7.284   4.527  0.1873  0.3882  0.4704
  159OSM   H12F17873   3.710   7.179   4.495  1.4664  0.3081 -0.1370
  159OSM   H12G17874   3.645   7.321   4.588  0.1745 -0.7179  1.1607
  159OSM   C13F17875   3.847   7.283   4.620 -0.9903 -0.0323  0.7542
  159OSM   H13F17876   3.888   7.386   4.630  0.5954 -0.0210 -3.6880
  159OSM   H13G17877   3.934   7.230   4.575 -1.0304  0.7896 -0.3345
  159OSM   C14F17878   3.816   7.220   4.752  0.3330 -0.0405 -0.5091
  159OSM   H14F17879   3.773   7.118   4.746  0.8357 -0.1772 -2.1157
  159OSM   H14G17880   3.743   7.286   4.803  0.5978 -0.7898  0.9159
  159OSM   C15F17881   3.946   7.212   4.840  0.1007  0.1963  0.2565
  159OSM   H15F17882   4.008   7.136   4.787  2.7035  2.2543  0.1459
  159OSM   H15G17883   3.916   7.171   4.938 -0.2837  0.3007  0.1832
  159OSM   C16F17884   4.040   7.338   4.841  0.1071 -0.0652 -0.3244
  159OSM   H16F17885   3.982   7.428   4.870 -0.6284  0.2980 -2.6757
  159OSM   H16G17886   4.078   7.351   4.737  0.8944  2.0135  0.1896
  159OSM   C17F17887   4.156   7.316   4.938 -0.5619 -0.3560  0.3401
  159OSM   H17F17888   4.184   7.212   4.914 -1.0443  0.1155 -2.7068
  159OSM   H17G17889   4.121   7.319   5.043 -0.1705 -0.2852  0.4689
  159OSM   C18F17890   4.274   7.412   4.926  0.5175  0.3386  0.6054
  159OSM   H18F17891   4.243   7.519   4.932 -1.6070 -0.1903 -0.1871
  159OSM   H18G17892   4.331   7.387   4.834  0.2346 -0.3467  0.6115
  159OSM   H18H17893   4.343   7.385   5.009  1.0854 -0.9200 -0.2423
  160OSM      N17894   4.459   3.682   2.724 -0.1738  0.4505  0.5689
  160OSM    C1517895   4.533   3.775   2.635 -0.0658 -0.1553 -0.0788
  160OSM   H15A17896   4.502   3.878   2.644  1.0528  0.1012  1.0926
  160OSM   H15B17897   4.529   3.746   2.531  1.1219  0.4187 -0.3060
  160OSM   H15C17898   4.636   3.777   2.667 -0.3322  1.9280  0.8012
  160OSM    C1417899   4.481   3.720   2.866 -0.5701 -0.4741  0.8545
  160OSM   H14A17900   4.396   3.778   2.899 -0.4816  0.3089 -0.2404
  160OSM   H14B17901   4.570   3.779   2.881  0.0243 -0.9025 -0.8531
  160OSM   H14C17902   4.484   3.635   2.933  2.9051 -1.8598 -0.8111
  160OSM    C1317903   4.310   3.684   2.690  0.1071  0.3687 -0.3099
  160OSM   H13A17904   4.287   3.678   2.585  0.1524  0.1827 -0.3091
  160OSM   H13B17905   4.267   3.778   2.723  0.0931 -0.1750  1.3112
  160OSM   H13C17906   4.249   3.611   2.742 -1.5028  0.9900 -1.2611
  160OSM    C1217907   4.516   3.546   2.697  0.5213  0.0558 -0.1642
  160OSM   H12A17908   4.507   3.523   2.592  3.3742 -0.3910 -0.3912
  160OSM   H12B17909   4.454   3.483   2.760 -2.5003  2.7696 -0.2024
  160OSM    C1117910   4.664   3.524   2.740  0.0662  0.7969 -0.1705
  160OSM   H11A17911   4.728   3.605   2.699 -1.2107  1.9533  0.0536
  160OSM   H11B17912   4.699   3.428   2.696  1.7987  0.8198  1.0318
  160OSM      P17913   4.620   3.398   2.962 -0.0847  0.3458  0.4846
  160OSM    O1317914   4.510   3.443   3.048 -0.3830  0.1765  0.0930
  160OSM    O1417915   4.586   3.283   2.869 -0.5182 -0.6001  0.0664
  160OSM    O1117916   4.742   3.346   3.048  0.2373  0.4967  0.1111
  160OSM    O1217917   4.690   3.521   2.885  0.6079 -0.0740 -0.2397
  160OSM    C1S17918   4.837   3.441   3.107  0.6763 -0.2286 -0.2826
  160OSM    H1S17919   4.861   3.528   3.042  0.0300  0.8352  0.8600
  160OSM    H1T17920   4.928   3.378   3.120  0.0111 -1.3501 -0.8819
  160OSM     NF17921   4.877   3.599   3.296  0.1900  0.2965  1.1247
  160OSM    HNF17922   4.956   3.570   3.349 -0.2237 -0.1133  1.5308
  160OSM    C2S17923   4.794   3.485   3.256  1.3341  0.1009 -0.2558
  160OSM    H2S17924   4.692   3.525   3.237  0.2943 -2.3940 -0.3461
  160OSM    C3S17925   4.790   3.362   3.347 -0.6603  0.5144 -0.4219
  160OSM    H3S17926   4.891   3.317   3.348 -0.9365 -0.1801 -1.4502
  160OSM     O317927   4.718   3.245   3.291 -0.2167 -0.0402  0.1839
  160OSM    HO317928   4.727   3.267   3.198  0.9076  1.7225  0.6611
  160OSM    C4S17929   4.727   3.404   3.481 -0.5029 -0.6090 -0.4110
  160OSM    H4S17930   4.623   3.439   3.489 -0.1717  0.3013  0.0434
  160OSM    C5S17931   4.792   3.391   3.596  0.5551  0.1394 -0.4912
  160OSM    H5S17932   4.889   3.340   3.600 -0.2883 -1.4786  0.5887
  160OSM    C6S17933   4.743   3.447   3.730 -0.3128  0.8959  0.4820
  160OSM    H6S17934   4.817   3.528   3.748  0.5550  0.5138 -1.1295
  160OSM    H6T17935   4.757   3.372   3.810 -1.2279  2.2433  1.9530
  160OSM    C7S17936   4.596   3.503   3.725  0.9892 -0.2009  0.2697
  160OSM    H7S17937   4.528   3.417   3.705 -1.1789  1.0672  1.7414
  160OSM    H7T17938   4.571   3.564   3.635 -1.0121 -0.0825  0.8396
  160OSM    C8S17939   4.535   3.580   3.854  0.1292  0.0096  0.6095
  160OSM    H8S17940   4.443   3.630   3.815  0.9558  0.1169 -1.3064
  160OSM    H8T17941   4.605   3.662   3.878  0.4772 -0.4004  1.0142
  160OSM    C9S17942   4.500   3.482   3.968 -0.1963  0.3716 -0.5276
  160OSM    H9S17943   4.596   3.439   4.002  0.2506  2.1055  0.5583
  160OSM    H9T17944   4.428   3.403   3.939 -0.8023  0.2677  1.1093
  160OSM   C10S17945   4.456   3.552   4.101  0.3085  0.3940  0.1752
  160OSM   H10S17946   4.385   3.634   4.074  1.1492  0.4495 -2.1537
  160OSM   H10T17947   4.538   3.608   4.149 -0.2266  1.4471 -0.1151
  160OSM   C11S17948   4.379   3.456   4.193 -0.7351 -0.5016 -0.7921
  160OSM   H11S17949   4.445   3.367   4.191  0.9589  0.7036 -2.5310
  160OSM   H11T17950   4.277   3.425   4.161 -1.1267  0.4614 -0.5058
  160OSM   C12S17951   4.375   3.525   4.328 -0.4717  0.2351 -0.6670
  160OSM   H12S17952   4.332   3.627   4.317  1.9463  1.0935 -3.7365
  160OSM   H12T17953   4.478   3.554   4.356  0.0325 -1.3447 -0.8177
  160OSM   C13S17954   4.321   3.439   4.435  0.2795 -0.0553 -0.6175
  160OSM   H13S17955   4.376   3.358   4.489 -0.9547 -0.0995  0.6427
  160OSM   H13T17956   4.233   3.388   4.390 -0.8727  1.4917 -0.2154
  160OSM   C14S17957   4.269   3.531   4.546  0.7165 -0.2158 -0.1554
  160OSM   H14S17958   4.190   3.594   4.499  1.1814  0.0949 -0.5341
  160OSM   H14T17959   4.353   3.595   4.580  0.0631  1.2130 -1.1163
  160OSM   C15S17960   4.214   3.433   4.655  1.0608  0.1352  0.1573
  160OSM   H15S17961   4.258   3.333   4.636 -1.3614 -0.7018 -1.6859
  160OSM   H15T17962   4.106   3.415   4.633  1.1551  1.8254 -2.1584
  160OSM   C16S17963   4.249   3.470   4.797 -0.1583 -0.0016 -0.2043
  160OSM   H16S17964   4.357   3.472   4.820 -0.3451 -1.3208  0.9051
  160OSM   H16T17965   4.201   3.394   4.862  1.5158 -1.0824 -0.1785
  160OSM   C17S17966   4.180   3.597   4.843  0.4869  0.4371  0.3096
  160OSM   H17S17967   4.073   3.589   4.814  1.0908 -2.7850 -1.5569
  160OSM   H17T17968   4.228   3.678   4.784 -3.1124  1.3612 -1.6168
  160OSM   C18S17969   4.196   3.646   4.999  0.9038  0.2867  0.3728
  160OSM   H18S17970   4.298   3.625   5.038  0.2833 -1.5156  1.1132
  160OSM   H18T17971   4.126   3.581   5.055  0.5641 -0.4206 -0.8417
  160OSM   H18U17972   4.162   3.752   5.005  0.3195  0.0995  0.4132
  160OSM    C1F17973   4.851   3.724   3.260  0.7063 -0.3670  0.4862
  160OSM     OF17974   4.769   3.754   3.176 -0.0265  0.4445  0.0430
  160OSM    C2F17975   4.910   3.829   3.357 -0.5306  0.7851 -0.5328
  160OSM    H2F17976   5.021   3.832   3.351 -0.5426 -0.7114 -2.8511
  160OSM    H2G17977   4.891   3.792   3.460 -0.3714  0.8275 -0.4882
  160OSM    C3F17978   4.857   3.973   3.339  0.2150 -0.3128 -0.1666
  160OSM    H3F17979   4.748   3.954   3.346  0.3177 -2.6573 -2.8814
  160OSM    H3G17980   4.901   4.020   3.249  3.5407 -0.7664  1.0829
  160OSM    C4F17981   4.887   4.069   3.457  0.1974  0.1934 -0.1439
  160OSM    H4F17982   4.858   4.168   3.417  0.7736  0.5022  0.1828
  160OSM    H4G17983   4.994   4.062   3.488 -0.1390 -0.4975  0.9459
  160OSM    C5F17984   4.799   4.051   3.585 -0.3340 -0.3277  0.9398
  160OSM    H5F17985   4.813   3.950   3.628  2.3856 -0.8097 -0.7946
  160OSM    H5G17986   4.691   4.058   3.557  0.0719  2.0451 -0.3132
  160OSM    C6F17987   4.822   4.149   3.707 -0.4991 -0.3610  0.6139
  160OSM    H6F17988   4.846   4.246   3.659 -3.0115 -0.1243 -0.3150
  160OSM    H6G17989   4.903   4.092   3.756 -1.2312 -1.5108  0.5346
  160OSM    C7F17990   4.706   4.160   3.802  0.0340  0.6560  0.2749
  160OSM    H7F17991   4.676   4.056   3.825  0.8036 -0.0172 -1.5756
  160OSM    H7G17992   4.618   4.212   3.758  0.8384  0.8429 -1.1928
  160OSM    C8F17993   4.755   4.235   3.936  0.2122  0.1203  0.0408
  160OSM    H8F17994   4.773   4.341   3.911 -2.2287  0.2185 -1.6202
  160OSM    H8G17995   4.848   4.181   3.965  0.3734 -0.5687 -1.6475
  160OSM    C9F17996   4.655   4.214   4.046 -0.4875 -0.1317 -0.2833
  160OSM    H9F17997   4.605   4.116   4.048 -0.1667 -0.2870  0.4577
  160OSM   C10F17998   4.622   4.303   4.142  0.2807 -0.0528 -0.5812
  160OSM   H10F17999   4.542   4.272   4.211 -1.2104  1.0992 -1.7293
  160OSM   C11F18000   4.674   4.446   4.170  0.0902 -0.3513 -1.0123
  160OSM   H11F18001   4.609   4.523   4.122 -2.7224 -1.5572  0.6100
  160OSM   H11G18002   4.776   4.450   4.126  0.3591  0.4582 -0.3434
  160OSM   C12F18003   4.686   4.470   4.325 -0.8144  0.5191 -0.1134
  160OSM   H12F18004   4.735   4.570   4.318  2.1782 -0.8232  0.4079
  160OSM   H12G18005   4.763   4.406   4.371 -1.7946  0.9090  2.2133
  160OSM   C13F18006   4.559   4.475   4.412  0.1647 -0.3026 -0.3352
  160OSM   H13F18007   4.469   4.487   4.349  0.2222 -0.0868 -0.3794
  160OSM   H13G18008   4.556   4.560   4.483  1.9260 -0.2341 -0.2877
  160OSM   C14F18009   4.552   4.345   4.503  0.4987  0.1525 -0.3261
  160OSM   H14F18010   4.579   4.256   4.443  1.1170 -0.1168  0.3358
  160OSM   H14G18011   4.450   4.333   4.543  0.4346 -2.9912 -1.1738
  160OSM   C15F18012   4.661   4.358   4.612 -0.1606  0.0797  0.1153
  160OSM   H15F18013   4.747   4.415   4.571 -0.0127  0.0411  0.3708
  160OSM   H15G18014   4.686   4.251   4.627  2.1030  0.7700  1.8143
  160OSM   C16F18015   4.624   4.419   4.743  0.4930  1.4308  0.0152
  160OSM   H16F18016   4.590   4.524   4.729 -0.4168  1.6078  2.9260
  160OSM   H16G18017   4.710   4.422   4.814  0.7422  0.6228 -0.2497
  160OSM   C17F18018   4.505   4.351   4.822  0.1003 -0.1220 -0.2447
  160OSM   H17F18019   4.550   4.259   4.865  1.0043  0.9842  1.2599
  160OSM   H17G18020   4.428   4.310   4.752  1.2265 -0.9730 -1.0335
  160OSM   C18F18021   4.431   4.439   4.922 -0.1356  1.0924 -0.6898
  160OSM   H18F18022   4.497   4.493   4.994  1.2949 -0.5795 -0.6760
  160OSM   H18G18023   4.363   4.382   4.989  0.2355  2.4613  0.9117
  160OSM   H18H18024   4.367   4.508   4.863 -1.3766  0.9080  0.3773
  161OSM      N18025   1.510   6.753   2.533  0.7395 -0.0268 -0.4237
  161OSM    C1518026   1.463   6.693   2.408  0.6186  0.2981 -0.5140
  161OSM   H15A18027   1.398   6.610   2.432  3.1787 -2.1676 -1.5314
  161OSM   H15B18028   1.544   6.667   2.342 -0.0847 -5.5407  0.3974
  161OSM   H15C18029   1.397   6.758   2.353  1.6405  1.5639 -0.2819
  161OSM    C1418030   1.613   6.670   2.609  0.0749  0.4249  0.3151
  161OSM   H14A18031   1.637   6.713   2.705  0.8654  0.3082  0.1741
  161OSM   H14B18032   1.705   6.666   2.553 -0.5482 -2.7727 -0.7207
  161OSM   H14C18033   1.582   6.567   2.617  0.0304  0.3964 -0.2140
  161OSM    C1318034   1.575   6.886   2.501 -0.7058  0.6594 -0.1771
  161OSM   H13A18035   1.504   6.964   2.477 -2.9505 -0.8564  1.2008
  161OSM   H13B18036   1.645   6.862   2.422 -2.9728 -1.9324 -1.5925
  161OSM   H13C18037   1.616   6.918   2.596 -0.6345 -0.7703  0.2918
  161OSM    C1218038   1.389   6.774   2.631 -1.0103  0.4567  0.4130
  161OSM   H12A18039   1.312   6.837   2.588 -0.6137  1.0534  0.5589
  161OSM   H12B18040   1.419   6.833   2.716 -2.5939 -0.6991  1.8400
  161OSM    C1118041   1.333   6.644   2.684  0.3980  0.1339 -0.4141
  161OSM   H11A18042   1.284   6.661   2.782 -1.3655  0.5278 -1.3128
  161OSM   H11B18043   1.414   6.568   2.690  1.1626  0.9203 -0.6582
  161OSM      P18044   1.108   6.669   2.560  0.2484  0.2457 -0.1032
  161OSM    O1318045   1.147   6.780   2.471 -0.4423 -0.0804  0.1081
  161OSM    O1418046   1.008   6.572   2.504 -0.6337 -0.8034  0.0977
  161OSM    O1118047   1.055   6.722   2.696  0.3241 -0.1724 -0.4038
  161OSM    O1218048   1.237   6.591   2.593 -0.2179  0.0032 -0.3058
  161OSM    C1S18049   1.014   6.646   2.807 -0.2514  0.6925  0.0815
  161OSM    H1S18050   1.084   6.560   2.812  0.0040  0.8633 -0.4674
  161OSM    H1T18051   0.911   6.611   2.786  0.1441  0.2411 -1.2587
  161OSM     NF18052   0.995   6.635   3.046 -0.3974 -0.3663  0.2770
  161OSM    HNF18053   0.903   6.649   3.081 -0.6828  1.6166 -1.1196
  161OSM    C2S18054   1.037   6.726   2.936  0.7974  0.3299 -0.6238
  161OSM    H2S18055   1.142   6.756   2.953  0.1609  1.3740  2.0145
  161OSM    C3S18056   0.953   6.857   2.925 -0.8885  0.2553 -0.5483
  161OSM    H3S18057   0.848   6.827   2.904 -0.4359  0.1650 -3.0146
  161OSM     O318058   0.991   6.942   2.810  0.0515 -0.4899 -0.0170
  161OSM    HO318059   1.030   6.882   2.747 -0.6677  1.0632 -2.0531
  161OSM    C4S18060   0.951   6.936   3.055  0.5215  0.6294 -0.2927
  161OSM    H4S18061   0.861   6.944   3.118  3.1068  1.9910  3.5614
  161OSM    C5S18062   1.058   7.016   3.102  0.6040  0.1073 -0.0833
  161OSM    H5S18063   1.148   7.038   3.042  1.9147  0.4820  1.9123
  161OSM    C6S18064   1.049   7.084   3.236 -0.0588 -0.3650 -0.8738
  161OSM    H6S18065   1.032   7.193   3.219 -2.3570 -0.6812 -0.8096
  161OSM    H6T18066   1.149   7.071   3.282 -1.6417 -0.6811  2.7887
  161OSM    C7S18067   0.946   7.042   3.346  0.6001  0.4071 -0.1604
  161OSM    H7S18068   0.940   6.933   3.370 -1.6596  0.3610 -0.7178
  161OSM    H7T18069   0.847   7.079   3.312  0.7027  1.0193  0.2081
  161OSM    C8S18070   0.962   7.115   3.483  0.7266  0.4082  0.1044
  161OSM    H8S18071   0.911   7.214   3.473 -3.0036 -1.3864 -0.3595
  161OSM    H8T18072   1.071   7.122   3.507  0.5998 -1.3075  1.3527
  161OSM    C9S18073   0.901   7.037   3.601  0.0287  0.3214 -0.9616
  161OSM    H9S18074   0.950   6.938   3.605  1.1298  0.8552 -0.7633
  161OSM    H9T18075   0.792   7.025   3.583 -0.3294  0.4208  0.9598
  161OSM   C10S18076   0.915   7.109   3.739  0.3696 -0.4405  0.0194
  161OSM   H10S18077   0.885   7.215   3.726  1.4877 -0.3953 -2.8095
  161OSM   H10T18078   1.020   7.117   3.774  0.7104 -1.4534 -0.7423
  161OSM   C11S18079   0.827   7.029   3.842 -0.1368  0.0930 -0.2552
  161OSM   H11S18080   0.846   6.921   3.828  1.2352  0.1902  0.7527
  161OSM   H11T18081   0.724   7.060   3.813 -0.3506 -1.6174 -1.4524
  161OSM   C12S18082   0.864   7.065   3.980  0.0784  0.6146  0.1616
  161OSM   H12S18083   0.970   7.032   3.992 -0.4220 -1.4198 -0.7265
  161OSM   H12T18084   0.804   6.994   4.041 -0.0042  0.7422  0.2280
  161OSM   C13S18085   0.814   7.206   4.027 -0.4540 -0.7092 -0.7479
  161OSM   H13S18086   0.707   7.218   4.000 -0.3195 -1.4537 -1.6528
  161OSM   H13T18087   0.870   7.286   3.975 -1.7467  1.5321  1.1116
  161OSM   C14S18088   0.838   7.227   4.183 -0.1208  0.3129 -0.1165
  161OSM   H14S18089   0.768   7.307   4.217  0.0988  0.3703  0.2002
  161OSM   H14T18090   0.942   7.264   4.193  0.1408 -0.1350 -1.1478
  161OSM   C15S18091   0.809   7.102   4.266  0.1820  0.3546 -1.0696
  161OSM   H15S18092   0.896   7.033   4.264  0.6102  0.6805  1.6142
  161OSM   H15T18093   0.727   7.039   4.225  1.0305 -1.4260 -0.1549
  161OSM   C16S18094   0.770   7.125   4.422 -0.0628  0.4556  0.2140
  161OSM   H16S18095   0.746   7.026   4.465  1.8937 -0.2970 -0.3037
  161OSM   H16T18096   0.679   7.187   4.430 -1.0786 -0.2241 -3.7843
  161OSM   C17S18097   0.887   7.186   4.497  0.3474  0.2669 -0.3901
  161OSM   H17S18098   0.909   7.290   4.466 -0.9791  0.2398 -1.5042
  161OSM   H17T18099   0.971   7.117   4.476 -1.3729 -2.1041  0.0726
  161OSM   C18S18100   0.877   7.184   4.653  0.2731 -0.1869 -0.8360
  161OSM   H18S18101   0.784   7.222   4.699  1.4234 -0.0355  1.4732
  161OSM   H18T18102   0.959   7.241   4.701 -0.8128 -0.2231  1.1419
  161OSM   H18U18103   0.886   7.075   4.671 -2.5015 -0.7949 -2.6194
  161OSM    C1F18104   1.056   6.528   3.096 -0.3263 -0.1528  1.1736
  161OSM     OF18105   1.168   6.487   3.048  0.2683 -0.1517  0.6610
  161OSM    C2F18106   0.999   6.458   3.214  0.1391 -0.0906 -0.1233
  161OSM    H2F18107   0.903   6.420   3.173  0.9412  0.4162 -2.6369
  161OSM    H2G18108   0.990   6.535   3.294 -0.2856  0.3494 -0.5846
  161OSM    C3F18109   1.094   6.349   3.273 -0.0859 -0.3111 -0.2849
  161OSM    H3F18110   1.196   6.393   3.285 -0.2480 -0.0229  0.0575
  161OSM    H3G18111   1.099   6.256   3.213  2.6638 -1.7165  1.8823
  161OSM    C4F18112   1.052   6.310   3.417 -0.0968 -0.4142  0.2301
  161OSM    H4F18113   0.949   6.268   3.417 -0.8790  1.3509 -1.8881
  161OSM    H4G18114   1.049   6.402   3.479 -1.0327 -2.1255  2.9182
  161OSM    C5F18115   1.147   6.215   3.489  0.5324 -0.1483  0.4447
  161OSM    H5F18116   1.247   6.263   3.486 -0.1599  1.3531  0.5598
  161OSM    H5G18117   1.138   6.121   3.431 -1.2454  0.0562  0.3241
  161OSM    C6F18118   1.117   6.174   3.638  0.4797 -0.0400 -0.2747
  161OSM    H6F18119   1.183   6.090   3.669 -2.0680 -1.9506  0.3689
  161OSM    H6G18120   1.015   6.130   3.646  1.1598 -1.5672  0.3935
  161OSM    C7F18121   1.138   6.290   3.734 -0.2109 -0.1242 -0.3623
  161OSM    H7F18122   1.058   6.364   3.712  1.0618  0.8903 -1.7455
  161OSM    H7G18123   1.227   6.354   3.713 -1.0191  1.1575 -0.0284
  161OSM    C8F18124   1.144   6.251   3.884 -0.3944  0.3436 -0.4897
  161OSM    H8F18125   1.148   6.344   3.943 -0.1168  1.4109 -2.1287
  161OSM    H8G18126   1.241   6.197   3.894 -1.6891 -2.1298 -0.3620
  161OSM    C9F18127   1.028   6.168   3.926  1.0055  0.9889 -0.0378
  161OSM    H9F18128   0.932   6.204   3.887  0.0008 -1.5690 -0.1546
  161OSM   C10F18129   1.032   6.043   3.978  0.6596 -0.6867  0.1071
  161OSM   H10F18130   0.934   6.000   4.005  0.3745  1.0711  2.0718
  161OSM   C11F18131   1.160   5.977   4.000 -0.2472  0.3991  0.2396
  161OSM   H11F18132   1.231   6.000   3.917  1.2892 -1.0909  1.0591
  161OSM   H11G18133   1.139   5.868   4.007  1.9291 -0.1107 -0.1692
  161OSM   C12F18134   1.225   6.012   4.135  0.3018 -0.9376  0.7607
  161OSM   H12F18135   1.154   5.988   4.217 -2.0639  1.2231 -0.4990
  161OSM   H12G18136   1.246   6.121   4.135 -2.2941 -0.3017 -1.6236
  161OSM   C13F18137   1.362   5.946   4.150  0.4585 -0.2836 -0.2733
  161OSM   H13F18138   1.440   6.023   4.167 -0.0963 -0.2701  2.6491
  161OSM   H13G18139   1.392   5.897   4.054 -2.9348  0.8408 -2.0710
  161OSM   C14F18140   1.364   5.833   4.255 -0.3744  0.7665  0.3033
  161OSM   H14F18141   1.284   5.757   4.241  0.3036 -0.7666  3.7972
  161OSM   H14G18142   1.352   5.888   4.351  0.9310  0.8033  0.4513
  161OSM   C15F18143   1.500   5.754   4.263  0.0604  0.1665 -1.1275
  161OSM   H15F18144   1.491   5.698   4.358 -1.9786 -0.9393 -1.9050
  161OSM   H15G18145   1.580   5.831   4.257  1.0644 -0.8656 -1.4140
  161OSM   C16F18146   1.523   5.659   4.150 -0.3560  0.4639  0.0186
  161OSM   H16F18147   1.556   5.708   4.056 -0.7952 -1.1855 -1.0438
  161OSM   H16G18148   1.435   5.593   4.134  1.5060 -2.7041  1.6994
  161OSM   C17F18149   1.649   5.564   4.168  0.0834 -0.1180 -0.4484
  161OSM   H17F18150   1.620   5.477   4.232  1.5953 -1.3093 -1.3469
  161OSM   H17G18151   1.731   5.624   4.212 -0.1262 -0.9798  1.1944
  161OSM   C18F18152   1.685   5.496   4.036 -0.5665 -0.7157 -0.3659
  161OSM   H18F18153   1.768   5.427   4.065  0.1288 -0.6646 -2.0992
  161OSM   H18G18154   1.734   5.564   3.963  1.6453 -1.1313  0.6227
  161OSM   H18H18155   1.603   5.431   3.999 -1.0465 -0.7969  0.7867
  162OSM      N18156   3.082   1.650   2.556 -0.1290  0.1148 -0.6495
  162OSM    C1518157   2.965   1.556   2.523 -0.0907 -0.0434 -0.1634
  162OSM   H15A18158   2.939   1.572   2.419 -0.0822 -2.3340 -0.5739
  162OSM   H15B18159   2.883   1.585   2.587  0.1461  0.3072 -0.0117
  162OSM   H15C18160   2.993   1.452   2.532  3.1302  0.7658  0.7975
  162OSM    C1418161   3.209   1.609   2.493  0.0052 -0.0523  0.0378
  162OSM   H14A18162   3.286   1.676   2.527  0.6398 -0.9612  0.4371
  162OSM   H14B18163   3.196   1.605   2.386 -1.0932  2.0157  0.0443
  162OSM   H14C18164   3.234   1.508   2.524  0.7673  0.9271  2.8467
  162OSM    C1318165   3.050   1.781   2.492  0.2239 -0.7222  0.2028
  162OSM   H13A18166   2.963   1.827   2.536  1.9641  1.7609  1.3026
  162OSM   H13B18167   3.048   1.787   2.384 -3.1044  1.3214  0.2484
  162OSM   H13C18168   3.132   1.848   2.513  1.0696 -1.4923 -0.5622
  162OSM    C1218169   3.103   1.667   2.700  0.0459 -0.2559 -0.5686
  162OSM   H12A18170   3.197   1.716   2.721 -0.3101  0.4677 -0.6375
  162OSM   H12B18171   3.097   1.571   2.750 -0.1454 -0.4580 -0.9713
  162OSM    C1118172   2.995   1.741   2.778  0.7149  0.8803 -0.1681
  162OSM   H11A18173   2.963   1.844   2.750 -1.5463  0.5928  1.0898
  162OSM   H11B18174   3.029   1.766   2.880  1.2697  4.0411 -1.0266
  162OSM      P18175   2.733   1.709   2.769  0.0434  0.0049 -0.2568
  162OSM    O1318176   2.740   1.820   2.672 -0.4652 -0.0910 -0.6766
  162OSM    O1418177   2.643   1.598   2.735  0.1562  0.0727 -0.0658
  162OSM    O1118178   2.688   1.753   2.916 -0.3775 -0.4847 -0.3678
  162OSM    O1218179   2.880   1.648   2.783 -0.2771 -0.8121  0.1916
  162OSM    C1S18180   2.739   1.683   3.032 -0.0296 -0.0714 -0.1838
  162OSM    H1S18181   2.842   1.723   3.045 -0.0428 -0.1109  0.0367
  162OSM    H1T18182   2.749   1.574   3.010 -0.0232  0.1235 -1.1992
  162OSM     NF18183   2.756   1.718   3.274  0.1695 -0.5244 -0.2073
  162OSM    HNF18184   2.733   1.640   3.333  0.9395  0.5754  1.6257
  162OSM    C2S18185   2.665   1.730   3.163  0.0336 -0.3178  0.3041
  162OSM    H2S18186   2.643   1.838   3.154 -0.4817 -0.5098 -0.9461
  162OSM    C3S18187   2.529   1.659   3.162  0.0552 -0.8471  0.1409
  162OSM    H3S18188   2.547   1.550   3.148  0.1320 -0.5708 -2.2419
  162OSM     O318189   2.452   1.695   3.048 -0.1323  0.4213  0.4318
  162OSM    HO318190   2.512   1.744   2.992  0.3781  0.5281  1.0636
  162OSM    C4S18191   2.457   1.698   3.287 -0.4296  0.0091 -0.8166
  162OSM    H4S18192   2.457   1.605   3.347 -1.6058 -1.3331 -2.7777
  162OSM    C5S18193   2.393   1.810   3.327  0.9763 -0.4899  0.0136
  162OSM    H5S18194   2.371   1.884   3.249  1.1561  0.2369  0.6394
  162OSM    C6S18195   2.311   1.820   3.455  0.2164  0.1729  0.4360
  162OSM    H6S18196   2.288   1.715   3.484 -2.7817  0.6026 -0.1469
  162OSM    H6T18197   2.214   1.874   3.450 -0.3243 -0.8422 -0.6005
  162OSM    C7S18198   2.395   1.883   3.571  0.4264  0.6654 -0.5206
  162OSM    H7S18199   2.414   1.985   3.532 -1.3070  1.0156 -0.5352
  162OSM    H7T18200   2.490   1.827   3.579  0.2898  0.3177 -1.2253
  162OSM    C8S18201   2.324   1.890   3.706 -0.1146  0.2603 -0.0752
  162OSM    H8S18202   2.239   1.961   3.693  1.4529  2.4085  0.7496
  162OSM    H8T18203   2.402   1.934   3.772  0.5266  1.1148 -1.3466
  162OSM    C9S18204   2.281   1.754   3.761  0.7468  0.6028 -0.2977
  162OSM    H9S18205   2.367   1.685   3.762  0.3001  0.0104 -1.2336
  162OSM    H9T18206   2.207   1.714   3.688  0.3309  2.9590 -1.2503
  162OSM   C10S18207   2.221   1.763   3.902  0.2059  0.2341  0.1469
  162OSM   H10S18208   2.188   1.658   3.917  0.9379  0.3803  3.7689
  162OSM   H10T18209   2.142   1.840   3.913  1.7727  1.6462  2.3097
  162OSM   C11S18210   2.324   1.790   4.013 -0.3819 -0.2176 -0.1711
  162OSM   H11S18211   2.372   1.889   3.995 -2.5973  0.6018 -2.1293
  162OSM   H11T18212   2.392   1.702   4.009  0.4883  0.4570 -2.8246
  162OSM   C12S18213   2.267   1.794   4.157 -0.3081 -0.6930  0.3007
  162OSM   H12S18214   2.194   1.710   4.162 -2.1513  0.8232  0.0287
  162OSM   H12T18215   2.217   1.890   4.182  1.0621  0.8402 -2.3493
  162OSM   C13S18216   2.368   1.775   4.270  0.0500  0.2527 -0.5711
  162OSM   H13S18217   2.466   1.823   4.250  0.3440 -0.8640 -1.9841
  162OSM   H13T18218   2.391   1.666   4.260 -0.1076  0.2850 -1.3034
  162OSM   C14S18219   2.314   1.807   4.411 -0.3427  0.1485  0.1337
  162OSM   H14S18220   2.212   1.763   4.418 -1.2837  1.9014 -1.4910
  162OSM   H14T18221   2.293   1.914   4.431  2.8481  0.8406  0.3802
  162OSM   C15S18222   2.401   1.744   4.528 -0.3303 -0.1407  0.3448
  162OSM   H15S18223   2.505   1.782   4.517  0.2344 -1.8006 -0.5168
  162OSM   H15T18224   2.417   1.636   4.507  0.5695  0.0327  0.0794
  162OSM   C16S18225   2.352   1.777   4.668 -0.0007 -0.0818 -0.4826
  162OSM   H16S18226   2.242   1.765   4.676  0.0010  0.6055  1.0475
  162OSM   H16T18227   2.369   1.885   4.688  0.4678 -0.2359 -0.0095
  162OSM   C17S18228   2.428   1.689   4.776  0.4901  0.1159  0.1307
  162OSM   H17S18229   2.529   1.666   4.735 -0.5826 -0.7616 -2.1798
  162OSM   H17T18230   2.377   1.590   4.773 -1.2652  0.9456  1.0884
  162OSM   C18S18231   2.423   1.742   4.918 -0.4376  0.2078 -0.5147
  162OSM   H18S18232   2.473   1.672   4.989  0.4342  0.3257 -1.0009
  162OSM   H18T18233   2.319   1.763   4.950  0.0321 -0.8329  1.9330
  162OSM   H18U18234   2.474   1.840   4.932 -0.5800  0.5683 -2.3215
  162OSM    C1F18235   2.855   1.805   3.298 -0.1606  0.8477 -0.7638
  162OSM     OF18236   2.885   1.892   3.220  1.2962  0.0817  0.2747
  162OSM    C2F18237   2.934   1.789   3.428  0.3545  0.0327 -0.5829
  162OSM    H2F18238   2.961   1.681   3.430 -3.6722 -1.1101  0.7031
  162OSM    H2G18239   2.879   1.829   3.516 -1.9500 -3.7581 -0.0874
  162OSM    C3F18240   3.060   1.880   3.432  0.4363 -0.3526 -0.5058
  162OSM    H3F18241   3.042   1.975   3.379 -2.3750  0.0106  0.8849
  162OSM    H3G18242   3.144   1.817   3.395  0.7741  0.7025 -1.5743
  162OSM    C4F18243   3.097   1.923   3.575  0.7276 -0.1099  0.7217
  162OSM    H4F18244   3.033   2.004   3.615  0.2029 -0.8603  1.4475
  162OSM    H4G18245   3.197   1.968   3.560 -0.2028  2.4550  1.6468
  162OSM    C5F18246   3.102   1.813   3.675  0.1609  0.0696  0.1564
  162OSM    H5F18247   3.163   1.727   3.640 -0.5851 -0.8814  1.0959
  162OSM    H5G18248   3.001   1.769   3.693  0.2738 -0.3860 -0.3001
  162OSM    C6F18249   3.160   1.859   3.807 -0.2286  0.2083  0.2180
  162OSM    H6F18250   3.105   1.954   3.824 -1.2189 -0.1183 -1.0295
  162OSM    H6G18251   3.265   1.889   3.791  0.6195 -2.6249 -0.0947
  162OSM    C7F18252   3.143   1.765   3.922 -0.3081  0.2324  0.6217
  162OSM    H7F18253   3.201   1.673   3.899  2.2454  2.3992 -2.4263
  162OSM    H7G18254   3.039   1.732   3.942 -1.1800  1.9188 -0.8878
  162OSM    C8F18255   3.205   1.816   4.050  0.8483 -0.0615  0.1387
  162OSM    H8F18256   3.162   1.914   4.078  0.0178 -0.6924  1.1331
  162OSM    H8G18257   3.314   1.829   4.034  0.5931  1.0905 -0.7470
  162OSM    C9F18258   3.175   1.713   4.156  0.4804 -0.0556 -0.5257
  162OSM    H9F18259   3.199   1.607   4.141 -1.6845 -0.4376 -1.7401
  162OSM   C10F18260   3.108   1.745   4.270  0.0848  0.2516  0.0805
  162OSM   H10F18261   3.069   1.662   4.331  0.1277 -0.5600 -0.9569
  162OSM   C11F18262   3.065   1.883   4.312  0.4520  0.3167 -0.0862
  162OSM   H11F18263   2.990   1.913   4.236  1.6409 -1.5416 -2.0744
  162OSM   H11G18264   3.146   1.959   4.312 -0.8995  1.8216 -1.2892
  162OSM   C12F18265   2.985   1.881   4.442  0.0036 -0.0688 -0.6135
  162OSM   H12F18266   2.903   1.806   4.432  1.2746 -1.3670 -1.8276
  162OSM   H12G18267   2.928   1.974   4.462 -1.1641 -0.8381 -0.2254
  162OSM   C13F18268   3.064   1.854   4.575  0.2604 -0.1134 -0.6622
  162OSM   H13F18269   3.145   1.929   4.588 -1.4484  1.5215  1.0878
  162OSM   H13G18270   3.103   1.751   4.587  0.7549  0.2402  1.1060
  162OSM   C14F18271   2.972   1.872   4.700 -0.0031  0.4657  0.2835
  162OSM   H14F18272   2.915   1.965   4.681 -1.0870 -0.3309 -0.4780
  162OSM   H14G18273   3.042   1.887   4.785  0.5482 -4.2026  0.9234
  162OSM   C15F18274   2.872   1.763   4.739 -0.2454  0.1748 -0.3730
  162OSM   H15F18275   2.920   1.664   4.755 -1.1318 -0.1064  0.6249
  162OSM   H15G18276   2.806   1.743   4.652  0.9135 -1.7913 -0.8860
  162OSM   C16F18277   2.775   1.803   4.860 -0.2693 -0.5280 -0.2989
  162OSM   H16F18278   2.733   1.706   4.896  0.5359 -0.9896 -0.5869
  162OSM   H16G18279   2.695   1.867   4.818  1.4818 -0.2582 -3.4894
  162OSM   C17F18280   2.825   1.887   4.972 -0.0619  0.3273  0.0565
  162OSM   H17F18281   2.827   1.994   4.943 -0.6583  0.1760 -0.5800
  162OSM   H17G18282   2.928   1.848   4.985 -0.1826  0.5385  1.8455
  162OSM   C18F18283   2.743   1.874   5.104  0.1736 -0.0326  0.2219
  162OSM   H18F18284   2.771   1.951   5.179  1.3174 -1.1924  1.0277
  162OSM   H18G18285   2.761   1.774   5.149  2.1733  1.2309  2.5006
  162OSM   H18H18286   2.636   1.895   5.086  0.7441  0.7706 -2.8522
  163OSM      N18287   0.086   2.029   2.586 -0.3586 -0.4154 -0.3972
  163OSM    C1518288  -0.062   2.020   2.566 -0.1274  0.2576  0.2718
  163OSM   H15A18289  -0.076   2.044   2.461  3.0067  2.2209  0.1645
  163OSM   H15B18290  -0.116   2.083   2.634  0.3463  1.4795 -0.4499
  163OSM   H15C18291  -0.087   1.915   2.576 -0.0490  0.2791  0.6870
  163OSM    C1418292   0.140   2.165   2.548  0.3025 -0.9823  0.0499
  163OSM   H14A18293   0.074   2.237   2.594  0.2403 -0.5565 -0.6769
  163OSM   H14B18294   0.123   2.184   2.443  1.3240 -0.4011 -0.0264
  163OSM   H14C18295   0.243   2.174   2.581 -0.0355 -0.3638  0.9637
  163OSM    C1318296   0.097   2.025   2.734 -0.5009 -0.3207 -0.7679
  163OSM   H13A18297   0.203   2.020   2.751 -0.5384  0.2012 -0.3405
  163OSM   H13B18298   0.042   1.940   2.770 -2.1553  1.2148  0.5416
  163OSM   H13C18299   0.037   2.108   2.770 -0.7418 -0.6259 -0.4654
  163OSM    C1218300   0.163   1.923   2.506 -0.5185 -0.0925 -0.8485
  163OSM   H12A18301   0.267   1.947   2.491 -1.1350  2.6921 -1.2526
  163OSM   H12B18302   0.121   1.916   2.407 -1.2925  1.4747 -0.6616
  163OSM    C1118303   0.155   1.780   2.565 -0.7176 -0.1324 -0.1097
  163OSM   H11A18304   0.204   1.774   2.665 -0.6488 -1.3188 -0.2001
  163OSM   H11B18305   0.227   1.728   2.499  2.0976  1.8498  1.2105
  163OSM      P18306  -0.055   1.667   2.672 -0.0966  0.0967 -0.1117
  163OSM    O1318307  -0.129   1.776   2.746 -0.4855  0.0400 -0.0107
  163OSM    O1418308  -0.135   1.559   2.614  0.3614 -1.0503 -0.6066
  163OSM    O1118309   0.046   1.601   2.765  0.8022 -0.1073  0.2734
  163OSM    O1218310   0.026   1.730   2.555 -0.5073  0.3874  0.8998
  163OSM    C1S18311   0.076   1.664   2.891 -0.3526 -0.0382 -0.3751
  163OSM    H1S18312  -0.015   1.672   2.954  0.5755  0.0709  0.9772
  163OSM    H1T18313   0.126   1.763   2.888  1.1573 -0.7548  0.1020
  163OSM     NF18314   0.181   1.627   3.109  0.1601 -0.8749  0.1923
  163OSM    HNF18315   0.243   1.705   3.117  2.8527 -2.2613 -4.1343
  163OSM    C2S18316   0.173   1.575   2.977  0.4723 -0.2901  0.0975
  163OSM    H2S18317   0.142   1.468   2.978 -0.5838 -0.0958 -2.9373
  163OSM    C3S18318   0.303   1.583   2.902 -0.7543  0.3479 -0.2165
  163OSM    H3S18319   0.324   1.692   2.894 -0.4842  0.3158  0.0493
  163OSM     O318320   0.298   1.544   2.766 -0.3155 -0.1102  0.5452
  163OSM    HO318321   0.205   1.551   2.743 -0.1782 -2.0116 -0.8523
  163OSM    C4S18322   0.415   1.513   2.986 -0.3102  0.0199 -0.3481
  163OSM    H4S18323   0.482   1.578   3.045  0.0444 -1.5158  0.9962
  163OSM    C5S18324   0.455   1.387   2.969 -0.2927  0.4996  0.4622
  163OSM    H5S18325   0.403   1.322   2.898 -0.6311 -0.7557  1.8317
  163OSM    C6S18326   0.572   1.317   3.036  0.0619 -0.1853  0.0266
  163OSM    H6S18327   0.647   1.391   3.072  1.1072 -1.9245  1.6539
  163OSM    H6T18328   0.618   1.256   2.955  2.3495 -0.4109  1.4185
  163OSM    C7S18329   0.510   1.229   3.142 -0.1988 -0.2829  0.1820
  163OSM    H7S18330   0.587   1.181   3.207  1.1556 -1.0019 -1.8763
  163OSM    H7T18331   0.458   1.144   3.092  1.7729 -0.8725 -0.9466
  163OSM    C8S18332   0.408   1.296   3.241  0.0083  0.1826  0.2821
  163OSM    H8S18333   0.352   1.208   3.281  0.8333 -1.1858 -1.4371
  163OSM    H8T18334   0.334   1.354   3.182  0.1061 -0.9498 -1.0189
  163OSM    C9S18335   0.472   1.374   3.352 -0.0898 -0.1118  0.1129
  163OSM    H9S18336   0.523   1.469   3.325  0.6035  0.2502  2.4748
  163OSM    H9T18337   0.547   1.307   3.400  1.1240  2.4455  2.0436
  163OSM   C10S18338   0.378   1.408   3.471  0.2363 -0.7422  0.5161
  163OSM   H10S18339   0.319   1.314   3.479 -0.6108 -0.3293 -0.6792
  163OSM   H10T18340   0.294   1.478   3.449 -0.7892 -2.6215 -2.0996
  163OSM   C11S18341   0.443   1.437   3.603  0.7972  0.2247  0.3447
  163OSM   H11S18342   0.486   1.538   3.588 -0.8652  0.6770 -1.7874
  163OSM   H11T18343   0.523   1.367   3.634  1.9428  0.7973 -1.1825
  163OSM   C12S18344   0.337   1.434   3.716  0.0494  0.2471 -0.2227
  163OSM   H12S18345   0.293   1.332   3.720 -1.1566  0.7264 -0.8093
  163OSM   H12T18346   0.251   1.501   3.696 -0.1655 -0.1575 -0.6688
  163OSM   C13S18347   0.399   1.453   3.853  0.8973  0.3985  1.1259
  163OSM   H13S18348   0.442   1.555   3.862  0.5627  0.8288 -1.4679
  163OSM   H13T18349   0.477   1.376   3.870  0.6678  0.1877  1.2192
  163OSM   C14S18350   0.297   1.447   3.969 -0.1429 -0.0015 -0.8033
  163OSM   H14S18351   0.264   1.348   4.006 -2.5763  1.0935  0.1191
  163OSM   H14T18352   0.204   1.504   3.952  0.0573  0.9277  1.0373
  163OSM   C15S18353   0.351   1.505   4.106 -0.1855  0.8425  0.1827
  163OSM   H15S18354   0.390   1.608   4.087  0.6941  0.2130 -1.5813
  163OSM   H15T18355   0.438   1.445   4.140 -0.9741 -0.0911  0.5893
  163OSM   C16S18356   0.239   1.507   4.207  0.6785  0.3459 -0.1989
  163OSM   H16S18357   0.205   1.403   4.230 -0.1531  0.4509 -0.8691
  163OSM   H16T18358   0.152   1.564   4.167 -0.5898 -0.4254  1.3243
  163OSM   C17S18359   0.278   1.571   4.338  0.2141 -0.2933  1.0487
  163OSM   H17S18360   0.201   1.544   4.414  1.2411 -3.3591  1.1293
  163OSM   H17T18361   0.274   1.682   4.329  0.7459 -0.2410  1.4238
  163OSM   C18S18362   0.410   1.521   4.393 -0.2274  0.4610 -0.3345
  163OSM   H18S18363   0.418   1.413   4.416 -0.2323  0.6872  0.8302
  163OSM   H18T18364   0.443   1.575   4.485  2.4513 -2.1562  0.3882
  163OSM   H18U18365   0.493   1.553   4.327  0.6168  2.3479  1.5214
  163OSM    C1F18366   0.084   1.600   3.197 -0.1804 -0.2643 -0.0474
  163OSM     OF18367  -0.011   1.531   3.166  0.4393 -0.0395 -0.3413
  163OSM    C2F18368   0.102   1.660   3.337  0.1243 -0.7345 -0.0745
  163OSM    H2F18369   0.089   1.770   3.324 -0.4245 -0.5033  2.1136
  163OSM    H2G18370   0.197   1.637   3.389 -0.5600 -1.6405  0.8133
  163OSM    C3F18371  -0.006   1.622   3.443 -0.1194  0.6054  0.0903
  163OSM    H3F18372   0.013   1.514   3.463 -3.2782 -0.8464 -3.4353
  163OSM    H3G18373  -0.106   1.616   3.395 -0.9158  0.8599  1.6816
  163OSM    C4F18374  -0.011   1.715   3.565  0.3620 -0.7460 -0.2795
  163OSM    H4F18375  -0.035   1.815   3.523  0.2158 -0.7009 -0.0930
  163OSM    H4G18376   0.092   1.727   3.603  0.0385  0.8003  0.1777
  163OSM    C5F18377  -0.106   1.668   3.675  0.5460 -0.9512 -0.8970
  163OSM    H5F18378  -0.099   1.557   3.682 -0.8780 -1.0320 -0.4672
  163OSM    H5G18379  -0.212   1.686   3.650  1.1122 -0.3046 -3.0023
  163OSM    C6F18380  -0.065   1.713   3.820  0.2556  0.6625  0.4712
  163OSM    H6F18381  -0.045   1.823   3.824 -1.2894  1.0977 -1.7989
  163OSM    H6G18382   0.033   1.665   3.842  0.3011  1.1701  1.4188
  163OSM    C7F18383  -0.150   1.660   3.932  0.1321  0.7362  0.0773
  163OSM    H7F18384  -0.147   1.549   3.935  0.1303  0.7496  0.7004
  163OSM    H7G18385  -0.256   1.685   3.911 -0.1588 -0.1842  0.4200
  163OSM    C8F18386  -0.098   1.716   4.064  0.3567  0.5098  0.3757
  163OSM    H8F18387  -0.123   1.823   4.081 -1.4320  0.0041  1.1146
  163OSM    H8G18388   0.012   1.700   4.059  0.0964 -1.1132 -0.8606
  163OSM    C9F18389  -0.153   1.632   4.179 -0.4447  0.1385  0.9787
  163OSM    H9F18390  -0.114   1.529   4.183 -1.3818 -0.2878 -0.3247
  163OSM   C10F18391  -0.257   1.666   4.256 -0.0554 -0.0450  0.1922
  163OSM   H10F18392  -0.284   1.595   4.336 -0.8042 -0.8443 -0.7252
  163OSM   C11F18393  -0.331   1.794   4.263  0.1726 -0.6038  0.4349
  163OSM   H11F18394  -0.429   1.764   4.304  0.6524 -2.2975  0.3999
  163OSM   H11G18395  -0.347   1.839   4.162 -0.8466  2.6314  1.8845
  163OSM   C12F18396  -0.287   1.909   4.364  0.1484 -0.1115  0.9938
  163OSM   H12F18397  -0.343   2.003   4.344  1.6669  0.4370 -1.0218
  163OSM   H12G18398  -0.181   1.931   4.337  0.1973 -0.3123  1.0248
  163OSM   C13F18399  -0.310   1.865   4.513  0.2104  0.5676  0.4339
  163OSM   H13F18400  -0.246   1.934   4.572  0.5602  0.1928  0.4945
  163OSM   H13G18401  -0.250   1.773   4.531 -0.4547  0.3890  1.8724
  163OSM   C14F18402  -0.457   1.851   4.562 -0.0850  0.8188 -0.3554
  163OSM   H14F18403  -0.454   1.821   4.669 -0.8170 -0.5432 -0.6914
  163OSM   H14G18404  -0.518   1.769   4.518 -0.6524 -0.5949  2.7907
  163OSM   C15F18405  -0.527   1.986   4.550  0.8600  0.4191 -0.1662
  163OSM   H15F18406  -0.630   1.976   4.590  1.2537 -0.0746  0.7563
  163OSM   H15G18407  -0.546   2.024   4.447 -1.5544  0.2423  0.1475
  163OSM   C16F18408  -0.466   2.094   4.632  0.1681  0.3265 -0.0959
  163OSM   H16F18409  -0.361   2.117   4.605  0.1515 -0.0469 -0.4959
  163OSM   H16G18410  -0.450   2.063   4.737  1.0543 -0.9954 -0.5966
  163OSM   C17F18411  -0.543   2.226   4.618  0.2576  0.2130 -0.3200
  163OSM   H17F18412  -0.526   2.280   4.714  0.3276  1.9024 -1.2470
  163OSM   H17G18413  -0.652   2.212   4.598 -0.6374  0.8933  3.2645
  163OSM   C18F18414  -0.489   2.330   4.525 -0.3841  0.6805  0.0286
  163OSM   H18F18415  -0.557   2.418   4.524 -2.8564 -1.1024 -0.2497
  163OSM   H18G18416  -0.493   2.302   4.418  1.9481  1.3719 -0.2959
  163OSM   H18H18417  -0.384   2.353   4.552  0.6512 -1.8489 -1.5316
  164OSM      N18418   3.541   4.212   3.046 -0.5101  0.1231 -0.6218
  164OSM    C1518419   3.402   4.197   2.995 -0.3309 -0.6411 -0.6531
  164OSM   H15A18420   3.396   4.199   2.887 -2.0343  0.6222 -0.5667
  164OSM   H15B18421   3.337   4.269   3.042 -1.1333 -1.5048 -0.4157
  164OSM   H15C18422   3.355   4.105   3.027 -0.5210 -0.4314 -0.3354
  164OSM    C1418423   3.572   4.345   3.004  0.1905 -0.0678  0.0947
  164OSM   H14A18424   3.678   4.360   3.009  0.4137  0.0458 -2.9662
  164OSM   H14B18425   3.535   4.430   3.060  2.5268  0.4013  1.0128
  164OSM   H14C18426   3.545   4.352   2.899  1.7576 -1.5563 -0.4559
  164OSM    C1318427   3.544   4.204   3.193 -0.1371 -0.0754  0.0906
  164OSM   H13A18428   3.485   4.285   3.235  0.9962  1.1084 -0.5163
  164OSM   H13B18429   3.640   4.212   3.243  0.8581 -2.1261 -1.3627
  164OSM   H13C18430   3.511   4.108   3.230  2.0545 -0.8701  0.1346
  164OSM    C1218431   3.633   4.102   2.979 -0.3652 -0.2485  0.3851
  164OSM   H12A18432   3.591   4.008   3.010 -1.0682  0.3807  1.4106
  164OSM   H12B18433   3.729   4.096   3.029 -0.1163 -0.0363 -0.0648
  164OSM    C1118434   3.655   4.100   2.826 -0.0507  0.1456 -0.2982
  164OSM   H11A18435   3.559   4.116   2.773 -0.0973  1.9710  0.2756
  164OSM   H11B18436   3.704   4.006   2.792 -0.0031 -0.3840  1.1316
  164OSM      P18437   3.879   4.230   2.825 -0.5929  0.2431  0.2343
  164OSM    O1318438   3.947   4.148   2.720 -0.0702  0.2982  0.1410
  164OSM    O1418439   3.909   4.376   2.825 -0.5286 -0.0978 -0.7431
  164OSM    O1118440   3.895   4.178   2.968  0.7686  0.2016  0.0861
  164OSM    O1218441   3.723   4.222   2.791  0.4510  0.1977 -0.0459
  164OSM    C1S18442   3.910   4.260   3.084  0.6500  0.4547  0.5465
  164OSM    H1S18443   3.818   4.300   3.130  0.6930  0.9366  0.2235
  164OSM    H1T18444   3.974   4.351   3.072  1.1552  0.2602  1.6710
  164OSM     NF18445   3.990   4.253   3.327 -0.0223 -0.0020 -0.1524
  164OSM    HNF18446   4.063   4.306   3.369 -0.1453 -1.3122  1.8376
  164OSM    C2S18447   3.998   4.180   3.197  0.2079 -0.1604  0.0128
  164OSM    H2S18448   3.944   4.083   3.207 -0.2089 -0.0595 -1.1386
  164OSM    C3S18449   4.147   4.142   3.156  0.6434 -0.3972 -0.1912
  164OSM    H3S18450   4.193   4.239   3.129  0.6510 -0.3063  0.1501
  164OSM     O318451   4.137   4.070   3.033 -0.4936  0.0777  0.5573
  164OSM    HO318452   4.043   4.063   3.016 -0.6151  2.3285  0.0438
  164OSM    C4S18453   4.216   4.065   3.261  0.4561  0.2451  0.4260
  164OSM    H4S18454   4.310   4.119   3.284  0.1474  0.4415  1.2638
  164OSM    C5S18455   4.175   3.954   3.325 -0.1130  0.6938  0.1110
  164OSM    H5S18456   4.099   3.897   3.269  1.8733 -0.6820 -1.3616
  164OSM    C6S18457   4.232   3.871   3.433 -1.1617  0.2903 -0.1843
  164OSM    H6S18458   4.328   3.911   3.472 -1.5480 -0.1888  1.3237
  164OSM    H6T18459   4.261   3.773   3.391  0.0993 -0.0673  1.4225
  164OSM    C7S18460   4.132   3.851   3.549  0.2730 -0.6060  0.1737
  164OSM    H7S18461   4.184   3.782   3.619  3.0511 -0.1100 -1.2662
  164OSM    H7T18462   4.039   3.802   3.512 -0.3138  0.7250 -0.1788
  164OSM    C8S18463   4.082   3.981   3.618  0.0123  0.2113  0.1713
  164OSM    H8S18464   4.018   3.949   3.703 -0.8671  0.7143 -0.2879
  164OSM    H8T18465   4.022   4.044   3.548 -0.7631  1.0182  1.5266
  164OSM    C9S18466   4.199   4.068   3.681  0.1032 -0.0998  0.2488
  164OSM    H9S18467   4.155   4.152   3.739 -0.8488  0.6772 -1.5225
  164OSM    H9T18468   4.250   4.117   3.596  0.3110 -0.7585 -0.0175
  164OSM   C10S18469   4.306   3.994   3.758 -0.4485 -0.3317 -0.9545
  164OSM   H10S18470   4.384   4.072   3.770 -0.7516 -0.2142  0.3947
  164OSM   H10T18471   4.342   3.908   3.698  0.1981  0.4120 -1.6686
  164OSM   C11S18472   4.259   3.954   3.903  0.1598 -0.4905 -0.1573
  164OSM   H11S18473   4.194   3.868   3.878 -0.0761  0.1027 -1.7145
  164OSM   H11T18474   4.191   4.033   3.941  0.6444 -1.0937  2.1461
  164OSM   C12S18475   4.380   3.938   3.996 -0.1748  0.1549 -0.0813
  164OSM   H12S18476   4.472   3.992   3.967 -0.8445  2.0266  1.0911
  164OSM   H12T18477   4.402   3.829   3.994  1.8129  0.4092  2.3790
  164OSM   C13S18478   4.329   3.971   4.140 -0.2495 -0.4752 -0.5573
  164OSM   H13S18479   4.242   3.911   4.173 -0.2281 -0.8000 -1.0899
  164OSM   H13T18480   4.302   4.079   4.139 -1.5312 -0.7916 -1.1992
  164OSM   C14S18481   4.433   3.945   4.254  0.4046  0.2028  0.3065
  164OSM   H14S18482   4.526   3.997   4.224 -0.3107  0.0816 -2.4147
  164OSM   H14T18483   4.451   3.836   4.243 -1.8515 -0.1469 -0.6652
  164OSM   C15S18484   4.387   3.975   4.394  0.1231  0.5796 -0.3351
  164OSM   H15S18485   4.360   4.083   4.400 -0.9276  0.6299 -3.7239
  164OSM   H15T18486   4.474   3.954   4.460  0.6626 -0.9389 -1.4689
  164OSM   C16S18487   4.278   3.883   4.462  0.4081  0.6285 -0.1682
  164OSM   H16S18488   4.329   3.785   4.477  1.0766  0.4360 -3.0108
  164OSM   H16T18489   4.199   3.870   4.386 -1.1396 -1.1948  1.6534
  164OSM   C17S18490   4.213   3.953   4.587 -0.4125 -0.0644 -0.5606
  164OSM   H17S18491   4.142   3.882   4.633  0.6198 -0.6114  0.2373
  164OSM   H17T18492   4.157   4.045   4.560 -1.1727 -0.4843 -0.4422
  164OSM   C18S18493   4.316   3.973   4.696  0.0834  0.1885 -0.1612
  164OSM   H18S18494   4.361   4.074   4.692  1.1087 -0.2438  0.2571
  164OSM   H18T18495   4.390   3.890   4.700 -1.5871 -1.3798 -0.1692
  164OSM   H18U18496   4.264   3.984   4.794 -0.0753  1.2013 -0.3523
  164OSM    C1F18497   3.877   4.265   3.389  0.6558  0.2755  0.4538
  164OSM     OF18498   3.780   4.203   3.351 -0.0002  0.3264  0.5681
  164OSM    C2F18499   3.874   4.359   3.505 -0.2535 -0.3488  0.7162
  164OSM    H2F18500   3.808   4.444   3.480 -1.2164 -0.5685  2.3598
  164OSM    H2G18501   3.973   4.398   3.536 -0.5236  1.5278 -0.6532
  164OSM    C3F18502   3.822   4.274   3.621  0.0170 -0.6766 -0.4974
  164OSM    H3F18503   3.882   4.183   3.640  0.2427 -0.9041 -2.1650
  164OSM    H3G18504   3.715   4.252   3.603  0.1626 -1.2784 -0.6422
  164OSM    C4F18505   3.838   4.352   3.757  0.5047 -0.0777 -0.0518
  164OSM    H4F18506   3.770   4.440   3.755  1.7580  0.9313  0.2116
  164OSM    H4G18507   3.941   4.390   3.771  0.3369 -0.3189  2.2729
  164OSM    C5F18508   3.795   4.272   3.879 -0.6624  1.0519 -0.1497
  164OSM    H5F18509   3.707   4.211   3.851  0.6524 -1.3427  0.6087
  164OSM    H5G18510   3.762   4.335   3.964 -0.9292 -0.2383  0.7315
  164OSM    C6F18511   3.895   4.168   3.924 -0.9823  0.5913  0.2239
  164OSM    H6F18512   3.972   4.223   3.983  1.4652 -2.9827  0.7144
  164OSM    H6G18513   3.948   4.125   3.836 -0.8505 -1.4698  1.2515
  164OSM    C7F18514   3.861   4.056   4.028  0.8802  0.1194  0.0094
  164OSM    H7F18515   3.941   4.001   4.083  0.9461  0.6051  0.3973
  164OSM    H7G18516   3.809   3.983   3.961 -0.1078  0.4792  0.3729
  164OSM    C8F18517   3.755   4.093   4.136 -0.6198 -0.4727 -0.2018
  164OSM    H8F18518   3.743   3.992   4.182  2.2045 -0.8196 -0.0748
  164OSM    H8G18519   3.660   4.104   4.079 -1.2388 -2.4913  0.3407
  164OSM    C9F18520   3.790   4.202   4.240 -0.6537  0.5162  0.3208
  164OSM    H9F18521   3.852   4.288   4.211  0.2076 -0.1399  0.1360
  164OSM   C10F18522   3.778   4.188   4.376 -0.1318 -0.5439  0.0516
  164OSM   H10F18523   3.814   4.273   4.435  2.3559  0.1609 -2.2973
  164OSM   C11F18524   3.709   4.079   4.457 -0.5886  0.6273  0.0727
  164OSM   H11F18525   3.757   4.049   4.552 -1.2322 -0.4404  0.0740
  164OSM   H11G18526   3.708   3.981   4.405 -1.3115 -0.5398  2.1744
  164OSM   C12F18527   3.570   4.119   4.494  0.5769 -0.1403 -0.4180
  164OSM   H12F18528   3.511   4.031   4.528  0.5751  0.1547  0.3768
  164OSM   H12G18529   3.509   4.149   4.406 -0.6905  0.4035  0.6098
  164OSM   C13F18530   3.550   4.228   4.608  0.0900 -0.1529 -0.0084
  164OSM   H13F18531   3.578   4.322   4.556 -0.2504 -0.8055 -1.4389
  164OSM   H13G18532   3.607   4.205   4.700 -0.9920 -0.2220  0.6526
  164OSM   C14F18533   3.405   4.251   4.651 -0.2912 -0.0843  0.4992
  164OSM   H14F18534   3.357   4.246   4.551  2.6145  0.2666 -1.0056
  164OSM   H14G18535   3.396   4.355   4.690  0.6277  0.0663  0.3170
  164OSM   C15F18536   3.352   4.140   4.746  0.0162  0.7207  1.0939
  164OSM   H15F18537   3.388   4.045   4.702 -0.0915  1.5577 -0.9255
  164OSM   H15G18538   3.243   4.153   4.731  0.1541 -0.9549 -2.7126
  164OSM   C16F18539   3.387   4.161   4.888  0.6796  0.0432  0.5303
  164OSM   H16F18540   3.380   4.270   4.910 -1.6219  0.3676 -1.4421
  164OSM   H16G18541   3.490   4.130   4.919  0.9639  0.6522  0.2062
  164OSM   C17F18542   3.294   4.070   4.973 -0.0089 -0.1141  0.5349
  164OSM   H17F18543   3.295   3.966   4.932  0.3700 -0.1124  0.5314
  164OSM   H17G18544   3.191   4.109   4.974  0.5926  1.5888 -0.4741
  164OSM   C18F18545   3.334   4.062   5.118 -0.4198 -0.7564  0.2118
  164OSM   H18F18546   3.441   4.031   5.128 -0.1179 -0.5646 -1.9421
  164OSM   H18G18547   3.269   3.985   5.164  1.1374 -2.3058 -0.0281
  164OSM   H18H18548   3.305   4.154   5.173 -0.7398  0.6962 -2.2237
  165SAPS     N18549   5.081   5.494   7.446 -0.3590 -0.4896  0.6092
  165SAPS   HN118550   5.164   5.450   7.402  1.4058  2.3557  0.9042
  165SAPS   HN218551   5.089   5.496   7.550 -3.0195  3.6277  0.9367
  165SAPS   HN318552   4.999   5.436   7.416 -0.4051 -0.9436  1.5552
  165SAPS   C1218553   5.058   5.630   7.396 -0.3646  0.2799 -0.2861
  165SAPS  H12A18554   4.963   5.661   7.437  0.4893 -0.3151  2.4049
  165SAPS   C1318555   5.157   5.741   7.440  0.4296 -0.1671 -0.4307
  165SAPS  O13A18556   5.241   5.726   7.523 -0.1888  0.9517 -0.4886
  165SAPS  O13B18557   5.126   5.856   7.405 -0.0739 -0.6822 -0.6200
  165SAPS   C1118558   5.066   5.632   7.240  0.0763 -0.0334  0.6306
  165SAPS  H11A18559   5.169   5.610   7.205  0.1078  0.7295  0.2275
  165SAPS  H11B18560   5.040   5.734   7.206  0.0127  0.4764  2.1110
  165SAPS     P18561   4.933   5.533   7.031 -0.2322 -0.2666 -0.1859
  165SAPS   O1318562   4.968   5.409   6.964  0.1685 -0.1689  0.5832
  165SAPS   O1418563   4.786   5.569   7.008 -0.0339  0.7884  0.3790
  165SAPS   O1218564   4.970   5.537   7.188 -0.0556  0.3539 -0.0281
  165SAPS   O1118565   5.017   5.645   6.977 -0.0467 -0.5378  0.4304
  165SAPS    C118566   4.975   5.755   6.893  0.2397 -0.7695 -0.7828
  165SAPS    HA18567   4.869   5.782   6.905  0.3369 -1.0332  0.8657
  165SAPS    HB18568   5.034   5.843   6.925  0.0256 -0.6403 -0.7486
  165SAPS    C218569   4.992   5.720   6.741 -0.4819 -0.4436 -0.0528
  165SAPS    HS18570   4.911   5.649   6.716 -0.4569  0.3109 -2.4817
  165SAPS   O2118571   5.118   5.646   6.741  0.2074 -0.3903 -0.4232
  165SAPS   C2118572   5.131   5.570   6.633 -0.6245  0.1498 -0.7130
  165SAPS   O2218573   5.045   5.547   6.548 -0.4571  0.3169  0.0196
  165SAPS   C2218574   5.276   5.527   6.630  0.4690 -0.4205 -0.7492
  165SAPS   H2R18575   5.326   5.623   6.606 -0.7893  0.3048 -0.5661
  165SAPS   H2S18576   5.308   5.489   6.729 -1.4638 -0.8603 -0.2447
  165SAPS    C318577   4.991   5.848   6.651 -0.1290 -0.0543  0.1976
  165SAPS    HX18578   5.073   5.916   6.682 -0.2962 -0.6113  1.9825
  165SAPS    HY18579   4.893   5.896   6.673 -0.0039  1.3435 -2.0605
  165SAPS   O3118580   5.001   5.810   6.512  0.1935  0.2417  0.0276
  165SAPS   C3118581   4.892   5.760   6.457 -0.4055 -0.1660 -0.7315
  165SAPS   O3218582   4.791   5.736   6.514 -0.2541  0.0622 -0.4117
  165SAPS   C3218583   4.911   5.732   6.308 -1.6172  0.3621  0.3534
  165SAPS   H2X18584   4.980   5.646   6.294 -2.0648  0.2905 -1.6334
  165SAPS   H2Y18585   4.951   5.825   6.262 -0.8248 -0.0229  0.2545
  165SAPS   C2318586   5.307   5.432   6.514  0.2612 -0.1646  0.4220
  165SAPS   H3R18587   5.258   5.467   6.420  2.1031 -1.2707 -1.0374
  165SAPS   H3S18588   5.266   5.334   6.543 -0.8744  0.5383  1.2521
  165SAPS   C2418589   5.457   5.416   6.488 -0.3575 -0.1690 -0.3750
  165SAPS   H4R18590   5.479   5.345   6.405  0.1526 -0.5583  0.0823
  165SAPS   H4S18591   5.490   5.371   6.585 -0.4236 -1.0303 -0.7377
  165SAPS   C2518592   5.535   5.541   6.449  0.1435  0.2422 -0.2360
  165SAPS   H5R18593   5.522   5.621   6.525  0.5580 -0.7413  0.9081
  165SAPS   C2618594   5.607   5.562   6.340 -0.7672  0.5257 -0.3711
  165SAPS   H6R18595   5.640   5.666   6.334 -0.2900  0.3971  0.0343
  165SAPS   C2718596   5.638   5.473   6.217 -0.4139 -0.0793 -0.3539
  165SAPS   H7R18597   5.547   5.477   6.153 -1.3739 -0.9639  0.8984
  165SAPS   H7S18598   5.633   5.367   6.250 -2.8538  0.5877  1.7313
  165SAPS   C2818599   5.770   5.493   6.146 -0.0123 -0.5507  0.2831
  165SAPS   H8R18600   5.860   5.470   6.205 -0.2507  0.0361  0.8821
  165SAPS   C2918601   5.789   5.523   6.018  0.3345  0.0488 -0.4002
  165SAPS   H9R18602   5.888   5.534   5.971  0.6063  1.1289  0.3859
  165SAPS  C21018603   5.682   5.564   5.918 -0.0368  0.5501  0.1625
  165SAPS  H10R18604   5.596   5.496   5.937  0.5020 -0.0593  0.5111
  165SAPS  H10S18605   5.714   5.540   5.814 -1.7130 -0.2690 -0.1903
  165SAPS  C21118606   5.617   5.703   5.918  0.0653  0.3075  0.1949
  165SAPS  H11R18607   5.626   5.755   6.014  1.9131  1.0368 -0.3303
  165SAPS  C21218608   5.553   5.753   5.809  0.1674  0.3663 -0.7194
  165SAPS  H12R18609   5.523   5.858   5.820  0.1777  0.3032 -0.0475
  165SAPS  C21318610   5.544   5.692   5.669  0.0718 -0.3671 -0.2579
  165SAPS  H13R18611   5.439   5.682   5.632  0.5506 -1.1545 -1.4606
  165SAPS  H13S18612   5.595   5.594   5.655  0.5993  0.0393 -1.2252
  165SAPS  C21418613   5.608   5.790   5.567 -0.0900 -0.3856  0.0706
  165SAPS  H14R18614   5.618   5.892   5.608  1.3360 -0.8160  0.8480
  165SAPS  C21518615   5.661   5.760   5.450 -0.4411  0.3848  1.0139
  165SAPS  H15R18616   5.698   5.838   5.380  0.0630  0.9592  1.9004
  165SAPS  C21618617   5.692   5.625   5.379 -0.4969 -0.1144 -0.6634
  165SAPS  H16R18618   5.681   5.549   5.459 -2.8446 -0.6575 -1.4272
  165SAPS  H16S18619   5.799   5.626   5.348 -0.4181 -0.1857 -0.3972
  165SAPS  C21718620   5.615   5.601   5.248  0.3159  0.4916  0.1198
  165SAPS  H17R18621   5.506   5.580   5.244  0.3238  0.4649  0.0462
  165SAPS  H17S18622   5.655   5.504   5.213 -1.7962 -0.1447 -0.6065
  165SAPS  C21818623   5.625   5.714   5.145 -0.9472  0.2213  1.0334
  165SAPS  H18R18624   5.726   5.759   5.148 -0.2043 -1.3398  0.6794
  165SAPS  H18S18625   5.544   5.787   5.167 -1.5405  0.7650 -2.2755
  165SAPS  C21918626   5.585   5.673   4.999  0.2354 -0.2621  1.0671
  165SAPS  H19R18627   5.644   5.589   4.958  0.8400 -0.0740  1.5276
  165SAPS  H19S18628   5.621   5.765   4.949  0.7201 -0.1514  1.6066
  165SAPS  C22018629   5.437   5.652   4.971 -0.0434  0.0648  0.4874
  165SAPS  H20R18630   5.397   5.565   5.027 -1.0226 -0.1448 -0.5004
  165SAPS  H20S18631   5.412   5.630   4.865 -0.5958  0.8453  0.4485
  165SAPS  H20T18632   5.381   5.747   4.980  0.0530  0.2535 -0.7280
  165SAPS   C3318633   4.774   5.687   6.232  0.7226  0.6398  0.5865
  165SAPS   H3X18634   4.685   5.748   6.261 -0.7942 -0.9965 -0.4051
  165SAPS   H3Y18635   4.756   5.588   6.280  0.6660  0.3261 -0.0763
  165SAPS   C3418636   4.796   5.693   6.080 -0.3624 -0.2504  0.2389
  165SAPS   H4X18637   4.879   5.624   6.054 -1.0238 -0.9000 -0.2061
  165SAPS   H4Y18638   4.811   5.797   6.045  0.4497 -0.0801  1.0551
  165SAPS   C3518639   4.677   5.631   6.008 -0.5109  0.5113 -0.8040
  165SAPS   H5X18640   4.582   5.689   6.012 -0.0821  1.2250 -0.8540
  165SAPS   H5Y18641   4.659   5.535   6.060 -0.8086  1.3637  0.7343
  165SAPS   C3618642   4.702   5.604   5.854 -0.0336 -0.2609 -0.2795
  165SAPS   H6X18643   4.768   5.515   5.848  0.7694  0.2172  1.0423
  165SAPS   H6Y18644   4.756   5.691   5.810  2.1538 -1.1412  0.4901
  165SAPS   C3718645   4.571   5.581   5.777  0.1125 -0.2569 -0.1297
  165SAPS   H7X18646   4.506   5.666   5.809  3.1915  1.6224  1.6769
  165SAPS   H7Y18647   4.521   5.488   5.811 -1.2119  0.8658  1.1807
  165SAPS   C3818648   4.592   5.535   5.630 -0.2121 -0.0966  0.3077
  165SAPS   H8X18649   4.650   5.440   5.638  2.5036  1.5640  1.7997
  165SAPS   H8Y18650   4.661   5.603   5.575 -1.7599 -0.9820 -2.9772
  165SAPS   C3918651   4.467   5.509   5.550  0.7818 -0.8430 -0.1185
  165SAPS   H9X18652   4.406   5.598   5.526  2.1101  0.0068 -0.4821
  165SAPS   H9Y18653   4.400   5.435   5.599 -1.2263 -0.7773 -2.5859
  165SAPS  C31018654   4.503   5.442   5.422  0.7242  0.1447  0.7124
  165SAPS  H10X18655   4.590   5.379   5.453  1.3982  1.2684  1.1533
  165SAPS  H10Y18656   4.533   5.518   5.347 -0.1850  1.0880  1.2789
  165SAPS  C31118657   4.387   5.354   5.368  0.0248 -0.2337 -0.1399
  165SAPS  H11X18658   4.300   5.420   5.345 -0.6694 -1.8529 -2.5625
  165SAPS  H11Y18659   4.357   5.282   5.447  1.5088 -1.2757 -0.4996
  165SAPS  C31218660   4.406   5.289   5.236 -0.3282  0.0122 -0.1112
  165SAPS  H12X18661   4.491   5.218   5.243  0.9086  1.5920  2.9086
  165SAPS  H12Y18662   4.423   5.376   5.168 -2.9748  0.9669  0.3205
  165SAPS  C31318663   4.288   5.212   5.168 -0.4428  0.3442  0.2920
  165SAPS  H13X18664   4.195   5.272   5.153 -1.4274 -0.2338  3.3097
  165SAPS  H13Y18665   4.241   5.145   5.244 -1.4051 -0.3315 -0.8639
  165SAPS  C31418666   4.323   5.154   5.032  0.2763 -0.1387  0.1796
  165SAPS  H14X18667   4.222   5.124   4.996 -0.9125  1.2168  2.1490
  165SAPS  H14Y18668   4.397   5.071   5.027  2.7531  1.9203 -5.4163
  165SAPS  C31518669   4.393   5.257   4.936 -0.5639 -0.1617  0.0686
  165SAPS  H15X18670   4.485   5.289   4.990 -0.1387  1.2486 -1.4058
  165SAPS  H15Y18671   4.333   5.350   4.944 -0.9608 -0.2918 -1.2187
  165SAPS  C31618672   4.416   5.206   4.797  0.1705 -0.5396  0.2668
  165SAPS  H16X18673   4.317   5.166   4.767 -0.7210  0.7130  1.4083
  165SAPS  H16Y18674   4.484   5.119   4.797 -1.0211 -1.5457  2.0433
  165SAPS  C31718675   4.448   5.313   4.696  0.2156  0.3662  0.3095
  165SAPS  H17X18676   4.542   5.368   4.720  1.3057 -1.6601  0.8943
  165SAPS  H17Y18677   4.364   5.387   4.693 -1.6853 -1.7195 -1.3274
  165SAPS  C31818678   4.463   5.252   4.556  0.4903 -0.4838  0.0934
  165SAPS  H18X18679   4.367   5.198   4.535  0.1363  0.5618 -1.0697
  165SAPS  H18Y18680   4.536   5.169   4.541  0.3664 -0.6299  0.3017
  165SAPS  H18Z18681   4.470   5.320   4.468 -0.0314 -2.1441 -1.3058
  166SAPS     N18682   5.938   5.218   6.915  0.3718  0.1428  0.2937
  166SAPS   HN118683   5.950   5.247   6.816 -0.0552  0.4414  0.3240
  166SAPS   HN218684   6.027   5.171   6.940  1.6879  2.1872 -0.3233
  166SAPS   HN318685   5.858   5.153   6.930  1.0957 -0.5391  1.2798
  166SAPS   C1218686   5.922   5.341   6.997  0.2370  0.0905 -0.3743
  166SAPS  H12A18687   5.845   5.398   6.948 -1.2883 -2.6224 -1.3315
  166SAPS   C1318688   5.865   5.330   7.149 -0.2553  0.0486  0.3530
  166SAPS  O13A18689   5.828   5.217   7.187 -0.6230 -0.0014 -0.5715
  166SAPS  O13B18690   5.864   5.429   7.219  0.1669 -0.2464 -0.3442
  166SAPS   C1118691   6.057   5.407   7.012 -0.0907 -0.4914  0.0077
  166SAPS  H11A18692   6.125   5.359   7.086 -0.3699  1.6401  1.7366
  166SAPS  H11B18693   6.041   5.506   7.059 -0.3301 -0.2856 -0.4967
  166SAPS     P18694   6.266   5.473   6.866 -0.3309  0.2202  0.1699
  166SAPS   O1318695   6.320   5.525   6.996 -0.2280 -0.0741  0.4139
  166SAPS   O1418696   6.351   5.378   6.793  0.7296  0.1295 -0.3839
  166SAPS   O1218697   6.122   5.417   6.887  0.1690  1.0377  0.0157
  166SAPS   O1118698   6.244   5.595   6.755  0.0172 -0.0698 -0.7841
  166SAPS    C118699   6.119   5.654   6.729 -0.0144  0.4920  0.0608
  166SAPS    HA18700   6.052   5.640   6.816  0.6255  1.4923  0.7278
  166SAPS    HB18701   6.132   5.764   6.716  0.2988  0.3634 -0.7723
  166SAPS    C218702   6.062   5.598   6.593 -0.1464  0.1215 -0.1471
  166SAPS    HS18703   6.108   5.499   6.572 -1.2106 -0.4338  0.1084
  166SAPS   O2118704   6.088   5.693   6.487  0.2976  0.5436 -0.7012
  166SAPS   C2118705   6.212   5.688   6.443 -0.3914  0.1871  0.0155
  166SAPS   O2218706   6.297   5.602   6.456  0.1061 -1.1799  0.0513
  166SAPS   C2218707   6.227   5.807   6.352 -0.3488 -0.2566  0.0208
  166SAPS   H2R18708   6.248   5.898   6.413  2.0068  0.9099 -2.3416
  166SAPS   H2S18709   6.317   5.798   6.288 -0.7654  1.4500 -0.8408
  166SAPS    C318710   5.907   5.577   6.586 -0.4449 -0.1601  0.3362
  166SAPS    HX18711   5.856   5.667   6.546  0.7135  0.5649  0.4372
  166SAPS    HY18712   5.870   5.563   6.690  1.0601  0.2394  0.9624
  166SAPS   O3118713   5.887   5.462   6.504  0.9808 -1.0759 -0.4742
  166SAPS   C3118714   5.875   5.339   6.559  0.1558  0.0830 -0.5680
  166SAPS   O3218715   5.832   5.321   6.671  0.0675  0.1621  0.6144
  166SAPS   C3218716   5.902   5.242   6.451  0.8159 -0.2187 -0.8841
  166SAPS   H2X18717   5.994   5.278   6.401 -0.2150  1.2760 -1.7983
  166SAPS   H2Y18718   5.825   5.266   6.374 -0.0774  3.1820  0.8354
  166SAPS   C2318719   6.105   5.852   6.264 -0.0401 -0.1291 -0.6812
  166SAPS   H3R18720   6.132   5.951   6.220  1.9854 -1.2221 -2.0963
  166SAPS   H3S18721   6.026   5.863   6.340 -0.1385  1.7571 -0.9959
  166SAPS   C2418722   6.065   5.752   6.155 -1.0096  0.6689  0.6394
  166SAPS   H4R18723   5.989   5.794   6.085  1.5001  0.3080 -2.4946
  166SAPS   H4S18724   6.036   5.662   6.213  1.2050  1.4075  3.1364
  166SAPS   C2518725   6.184   5.719   6.064  0.1748  0.5358 -0.5938
  166SAPS   H5R18726   6.234   5.806   6.019 -0.7628  0.8164 -1.1201
  166SAPS   C2618727   6.219   5.590   6.038  0.4361 -0.8033  0.2045
  166SAPS   H6R18728   6.310   5.579   5.978  0.9407 -1.6268  1.0719
  166SAPS   C2718729   6.158   5.462   6.081  0.3811  0.8611 -0.8139
  166SAPS   H7R18730   6.052   5.447   6.053 -0.3931 -4.0867  3.2409
  166SAPS   H7S18731   6.157   5.468   6.192 -1.9798  1.9855 -0.8419
  166SAPS   C2818732   6.233   5.335   6.046  0.9859 -0.0273 -0.6311
  166SAPS   H8R18733   6.259   5.273   6.133  0.9825 -1.3928 -1.5769
  166SAPS   C2918734   6.235   5.280   5.923 -0.1712  0.0011 -0.0832
  166SAPS   H9R18735   6.302   5.195   5.904 -0.6505 -0.0187 -1.8643
  166SAPS  C21018736   6.183   5.336   5.796 -0.3071  0.0748  0.1604
  166SAPS  H10R18737   6.180   5.447   5.804  0.5009 -0.0491  3.9617
  166SAPS  H10S18738   6.076   5.307   5.790 -0.5787  0.4369  2.4361
  166SAPS  C21118739   6.266   5.290   5.679 -0.6820 -0.7356 -0.2984
  166SAPS  H11R18740   6.370   5.323   5.691 -1.4379  1.2976  1.3303
  166SAPS  C21218741   6.225   5.240   5.563 -0.1525 -0.3302  0.2557
  166SAPS  H12R18742   6.300   5.218   5.485 -0.5674 -1.9532  0.2794
  166SAPS  C21318743   6.084   5.196   5.541 -0.5075 -0.3154  0.2372
  166SAPS  H13R18744   6.042   5.141   5.627  2.2996 -3.9634 -0.4636
  166SAPS  H13S18745   6.084   5.116   5.464  1.3124  1.0884 -1.3421
  166SAPS  C21418746   5.981   5.297   5.496  0.6916  0.2380 -0.4301
  166SAPS  H14R18747   5.909   5.334   5.571 -1.3651 -0.0550 -2.1406
  166SAPS  C21518748   5.947   5.326   5.373 -0.6002 -0.3220  0.6326
  166SAPS  H15R18749   5.873   5.407   5.360  0.8649  1.0372  0.4074
  166SAPS  C21618750   6.030   5.285   5.255 -0.4440 -0.0540 -0.6696
  166SAPS  H16R18751   6.015   5.176   5.243 -0.0249 -0.3332  1.1027
  166SAPS  H16S18752   6.133   5.321   5.277 -0.1633 -1.2981  0.1524
  166SAPS  C21718753   5.981   5.363   5.133 -0.4239 -0.2461 -0.4551
  166SAPS  H17R18754   5.870   5.357   5.126 -0.2586 -2.0984 -2.9664
  166SAPS  H17S18755   6.035   5.320   5.046  0.1205  1.3966 -0.9746
  166SAPS  C21818756   6.042   5.506   5.140 -0.5931 -0.3608 -0.1430
  166SAPS  H18R18757   6.153   5.501   5.151 -0.5547  1.4274  0.6467
  166SAPS  H18S18758   6.007   5.555   5.233 -0.4457  0.9368 -0.7565
  166SAPS  C21918759   6.018   5.608   5.032 -0.0603 -0.1310 -0.0309
  166SAPS  H19R18760   6.059   5.702   5.075  2.4772 -0.8868 -0.6333
  166SAPS  H19S18761   5.908   5.620   5.030 -0.0978 -0.5511 -0.8098
  166SAPS  C22018762   6.085   5.566   4.896  0.1896 -0.0104  0.1058
  166SAPS  H20R18763   6.195   5.577   4.905  0.1522  1.0042 -0.4812
  166SAPS  H20S18764   6.045   5.617   4.805 -1.2178 -0.8128  0.2374
  166SAPS  H20T18765   6.078   5.457   4.876  0.3042 -0.1475  0.8060
  166SAPS   C3318766   5.906   5.094   6.488 -0.3345 -0.3914 -0.6280
  166SAPS   H3X18767   5.804   5.067   6.522  0.3042 -1.3435  0.5950
  166SAPS   H3Y18768   5.982   5.077   6.567 -1.8914  1.4848  1.3968
  166SAPS   C3418769   5.962   5.005   6.368 -0.1352 -0.2153  0.4799
  166SAPS   H4X18770   5.996   4.908   6.410  2.2802  0.9309  1.4176
  166SAPS   H4Y18771   6.057   5.050   6.332  0.9555  0.1147  3.4332
  166SAPS   C3518772   5.857   4.970   6.263  0.1659  0.9117 -0.8850
  166SAPS   H5X18773   5.824   5.069   6.224  1.2951  1.2645 -1.0060
  166SAPS   H5Y18774   5.771   4.944   6.328 -0.9183  0.0149 -2.6225
  166SAPS   C3618775   5.887   4.869   6.150 -0.8304  0.7566 -0.1074
  166SAPS   H6X18776   5.795   4.851   6.090 -2.1104 -1.5515  2.3229
  166SAPS   H6Y18777   5.921   4.772   6.192  0.4000  1.1061 -0.2424
  166SAPS   C3718778   6.011   4.915   6.071  0.2138 -0.1189 -0.5264
  166SAPS   H7X18779   6.099   4.939   6.135 -1.0014  2.0879  0.4274
  166SAPS   H7Y18780   5.974   5.014   6.038  0.0237 -0.4195 -1.2190
  166SAPS   C3818781   6.045   4.821   5.954  0.2418  0.0312 -0.5597
  166SAPS   H8X18782   5.945   4.813   5.906  0.2701 -1.8904 -0.3805
  166SAPS   H8Y18783   6.077   4.720   5.988  0.1559  0.2294  0.1216
  166SAPS   C3918784   6.145   4.871   5.846  0.5918 -0.4101 -0.0306
  166SAPS   H9X18785   6.242   4.892   5.896 -0.0698  0.0447  1.1031
  166SAPS   H9Y18786   6.096   4.968   5.828  1.0378  0.5834  3.3572
  166SAPS  C31018787   6.162   4.767   5.730  0.3398  0.3118  0.1713
  166SAPS  H10X18788   6.059   4.741   5.698  0.3466 -0.9206  1.1054
  166SAPS  H10Y18789   6.195   4.669   5.771  0.3596 -1.0882 -2.9428
  166SAPS  C31118790   6.241   4.816   5.604 -0.6782 -0.6917  0.7051
  166SAPS  H11X18791   6.205   4.916   5.574  1.4692 -0.0853 -0.0397
  166SAPS  H11Y18792   6.217   4.754   5.515  1.2138 -0.3716 -0.0665
  166SAPS  C31218793   6.395   4.831   5.623 -0.4445 -0.4248 -0.1617
  166SAPS  H12X18794   6.442   4.733   5.646 -2.2664 -1.4314 -0.5270
  166SAPS  H12Y18795   6.413   4.906   5.703 -1.5555  0.2386 -0.5077
  166SAPS  C31318796   6.463   4.886   5.500 -0.4236 -0.2748 -0.2272
  166SAPS  H13X18797   6.412   4.980   5.467  0.1931  0.7102  1.4784
  166SAPS  H13Y18798   6.446   4.815   5.416  1.2068 -2.0705  0.8935
  166SAPS  C31418799   6.613   4.923   5.527 -0.1191  0.3884  0.9027
  166SAPS  H14X18800   6.663   4.832   5.567 -1.1492 -0.6516 -0.0611
  166SAPS  H14Y18801   6.617   5.012   5.592  0.2777 -0.3420  1.9072
  166SAPS  C31518802   6.697   4.972   5.400 -0.4329 -0.3606 -0.8766
  166SAPS  H15X18803   6.722   4.882   5.341 -0.7654 -2.0190  1.3765
  166SAPS  H15Y18804   6.799   5.010   5.425  0.3591 -1.4179 -2.3798
  166SAPS  C31618805   6.624   5.079   5.322 -0.0789  0.1240  0.4852
  166SAPS  H16X18806   6.577   5.148   5.395  0.8574  1.0433  0.2614
  166SAPS  H16Y18807   6.546   5.027   5.263  0.0589 -0.5469  0.8856
  166SAPS  C31718808   6.716   5.171   5.230 -0.4431 -0.0338 -1.0627
  166SAPS  H17X18809   6.766   5.122   5.145  1.1114  1.0816 -0.8275
  166SAPS  H17Y18810   6.793   5.216   5.296 -2.0685 -2.3296  2.8232
  166SAPS  C31818811   6.628   5.288   5.173  0.1015 -0.2161 -0.1092
  166SAPS  H18X18812   6.544   5.264   5.104  1.6101  1.4108 -2.6696
  166SAPS  H18Y18813   6.679   5.375   5.127 -2.0382  1.8059  1.1058
  166SAPS  H18Z18814   6.577   5.344   5.254  0.2482  0.3893 -0.4270
  167SAPS     N18815   2.774   5.641   7.669 -0.1784 -0.9674 -0.4940
  167SAPS   HN118816   2.693   5.706   7.668  1.2776  0.9478  0.2528
  167SAPS   HN218817   2.819   5.632   7.575 -0.2618 -2.2194 -0.4316
  167SAPS   HN318818   2.758   5.542   7.697 -0.4370 -0.7641  0.0809
  167SAPS   C1218819   2.889   5.689   7.751  1.2298  0.1544  0.3156
  167SAPS  H12A18820   2.866   5.684   7.857  1.9810 -1.8575  0.4303
  167SAPS   C1318821   3.021   5.608   7.736  0.7504 -0.4805  0.7257
  167SAPS  O13A18822   3.043   5.524   7.646  0.7332 -0.1597 -0.3052
  167SAPS  O13B18823   3.120   5.659   7.801 -0.0901  0.1552 -1.0346
  167SAPS   C1118824   2.922   5.836   7.718  0.1710  0.1518  0.2270
  167SAPS  H11A18825   2.928   5.841   7.607 -1.9709 -2.8990 -0.1714
  167SAPS  H11B18826   3.020   5.867   7.758  0.7067 -1.1229 -0.0493
  167SAPS     P18827   2.832   6.075   7.776  0.0666 -0.1877  0.1566
  167SAPS   O1318828   2.701   6.129   7.734 -0.0403  0.9584  0.2868
  167SAPS   O1418829   2.863   6.106   7.912  0.3192  0.7505  0.1525
  167SAPS   O1218830   2.821   5.920   7.760 -0.2217 -0.6252 -0.4099
  167SAPS   O1118831   2.950   6.123   7.680  0.4958 -0.0836  0.0428
  167SAPS    C118832   2.922   6.193   7.558  0.2676  0.2306 -0.1390
  167SAPS    HA18833   2.840   6.267   7.569 -1.2358 -0.8203 -3.1652
  167SAPS    HB18834   3.012   6.252   7.527  0.9207 -0.2251  0.8234
  167SAPS    C218835   2.866   6.107   7.442 -0.0292 -0.1074 -0.5584
  167SAPS    HS18836   2.774   6.056   7.480  1.0620 -1.9801 -0.2972
  167SAPS   O2118837   2.965   6.005   7.410  0.5368 -1.0277  0.8007
  167SAPS   C2118838   2.922   5.910   7.332 -0.2361  1.0646 -0.3520
  167SAPS   O2218839   2.810   5.875   7.306 -0.4968 -0.0114 -0.7181
  167SAPS   C2218840   3.047   5.832   7.275 -0.2313 -0.4100 -0.4071
  167SAPS   H2R18841   3.108   5.793   7.360 -0.6481 -0.2715 -0.0355
  167SAPS   H2S18842   3.010   5.748   7.212 -0.7953 -1.0103  0.6861
  167SAPS    C318843   2.828   6.199   7.312 -0.3328  0.0539  0.1980
  167SAPS    HX18844   2.925   6.235   7.272 -0.7625  0.5997 -0.3828
  167SAPS    HY18845   2.778   6.290   7.353 -0.2248  0.2719 -0.1496
  167SAPS   O3118846   2.758   6.120   7.214 -0.2463  0.1754  0.1265
  167SAPS   C3118847   2.630   6.125   7.245 -0.3111  0.0877  0.4524
  167SAPS   O3218848   2.578   6.145   7.349 -0.5859  0.1476 -0.4010
  167SAPS   C3218849   2.549   6.098   7.113 -0.4713  0.2336 -0.1292
  167SAPS   H2X18850   2.448   6.143   7.129 -0.3734  0.4537 -0.1260
  167SAPS   H2Y18851   2.547   5.988   7.101 -0.2927  0.3152 -0.8969
  167SAPS   C2318852   3.132   5.940   7.192  0.2286  0.5758 -0.0447
  167SAPS   H3R18853   3.222   5.891   7.150 -2.2103 -2.0234 -2.7559
  167SAPS   H3S18854   3.173   6.031   7.240  0.6646  0.2525  0.2001
  167SAPS   C2418855   3.050   5.973   7.060 -0.1616  0.0010 -0.2571
  167SAPS   H4R18856   2.953   6.017   7.091 -0.6860 -2.2199  1.5142
  167SAPS   H4S18857   3.011   5.882   7.010  0.2842 -0.2505 -0.1567
  167SAPS   C2518858   3.122   6.070   6.973 -0.0484 -0.3250  0.4486
  167SAPS   H5R18859   3.160   6.164   7.014  1.3008  1.2048 -3.7837
  167SAPS   C2618860   3.153   6.054   6.844  0.2829  0.3298 -0.7855
  167SAPS   H6R18861   3.234   6.117   6.803  1.5661 -2.1152 -2.2661
  167SAPS   C2718862   3.123   5.926   6.773  0.7235  0.5657  0.8901
  167SAPS   H7R18863   3.141   5.834   6.833  1.0576  0.5775  0.8087
  167SAPS   H7S18864   3.186   5.910   6.683 -2.0287 -4.4774 -0.5244
  167SAPS   C2818865   2.976   5.925   6.721 -0.5563  0.1329  0.4627
  167SAPS   H8R18866   2.903   5.922   6.803 -2.5909 -1.5549 -1.2887
  167SAPS   C2918867   2.932   5.958   6.601 -0.1361  0.6016  0.3398
  167SAPS   H9R18868   2.823   5.964   6.593  0.0386  1.7096 -2.5822
  167SAPS  C21018869   3.021   5.979   6.479 -0.1969  0.0510 -0.3905
  167SAPS  H10R18870   2.986   5.909   6.400 -1.4453  0.4909 -0.2486
  167SAPS  H10S18871   3.128   5.962   6.500  0.0865  3.1403  1.1220
  167SAPS  C21118872   3.009   6.117   6.422  0.1775  0.5558  1.0519
  167SAPS  H11R18873   2.995   6.194   6.499 -2.6419 -0.8549  2.1055
  167SAPS  C21218874   3.000   6.155   6.287 -0.1190  0.4504 -0.8978
  167SAPS  H12R18875   2.991   6.264   6.273 -0.3747  0.5364 -0.1028
  167SAPS  C21318876   2.999   6.063   6.165 -0.4392  0.6209 -0.9447
  167SAPS  H13R18877   2.915   5.990   6.170 -2.3765  2.7674 -0.6426
  167SAPS  H13S18878   3.093   6.005   6.154 -1.7765 -1.5910 -1.3158
  167SAPS  C21418879   2.986   6.129   6.032 -0.3983  0.1507 -0.7240
  167SAPS  H14R18880   2.999   6.238   6.046 -2.4126  0.4007 -0.5429
  167SAPS  C21518881   2.942   6.085   5.912  1.0264 -0.9032 -0.1437
  167SAPS  H15R18882   2.948   6.159   5.830  2.0444 -1.2701 -0.4135
  167SAPS  C21618883   2.900   5.948   5.870 -1.2314  0.6857  0.1307
  167SAPS  H16R18884   2.790   5.932   5.872 -1.1063 -0.2069  1.9251
  167SAPS  H16S18885   2.932   5.883   5.954 -0.4729  2.3279  1.1630
  167SAPS  C21718886   2.960   5.896   5.736 -0.4956  0.0121 -0.0868
  167SAPS  H17R18887   2.910   5.944   5.649  2.1006  0.1566 -1.6095
  167SAPS  H17S18888   2.937   5.788   5.725 -0.3513 -0.2239  1.7108
  167SAPS  C21818889   3.111   5.917   5.721 -0.7491  0.0233 -0.0949
  167SAPS  H18R18890   3.146   5.882   5.820  0.5122 -2.0282 -1.1695
  167SAPS  H18S18891   3.130   6.026   5.708 -1.0680 -0.0100 -0.8821
  167SAPS  C21918892   3.170   5.827   5.607  0.3981  0.7077 -0.1006
  167SAPS  H19R18893   3.139   5.720   5.618 -1.2335  1.2630  1.2110
  167SAPS  H19S18894   3.279   5.843   5.610  0.5462 -0.3172  0.5043
  167SAPS  C22018895   3.123   5.862   5.470 -0.4098  0.4443 -0.3359
  167SAPS  H20R18896   3.206   5.824   5.405 -1.4393 -1.3752 -0.6533
  167SAPS  H20S18897   3.121   5.971   5.454 -0.9883  0.9235  2.5018
  167SAPS  H20T18898   3.022   5.819   5.453 -1.7320  3.2572 -0.0114
  167SAPS   C3318899   2.618   6.168   6.996  0.3712  0.3368  0.0610
  167SAPS   H3X18900   2.727   6.148   7.003  0.0837 -0.6964  2.2204
  167SAPS   H3Y18901   2.612   6.277   7.017  0.1045  0.6881 -1.6856
  167SAPS   C3418902   2.544   6.134   6.864 -0.7898 -0.1203 -0.6249
  167SAPS   H4X18903   2.439   6.169   6.874 -1.1775 -1.6757  1.4666
  167SAPS   H4Y18904   2.543   6.024   6.852  0.2347 -0.2600  0.3491
  167SAPS   C3518905   2.607   6.202   6.743  0.0239 -0.0377  0.0120
  167SAPS   H5X18906   2.712   6.168   6.732  1.6495  3.7575  1.7879
  167SAPS   H5Y18907   2.626   6.311   6.758 -0.0344  0.2866 -2.0296
  167SAPS   C3618908   2.525   6.181   6.613 -0.2555 -0.7786 -0.1595
  167SAPS   H6X18909   2.443   6.256   6.603  1.4705  1.1428 -0.6883
  167SAPS   H6Y18910   2.488   6.078   6.628 -1.3164 -0.1115  2.3562
  167SAPS   C3718911   2.616   6.208   6.495 -0.3017 -0.8037 -1.1161
  167SAPS   H7X18912   2.692   6.128   6.487 -0.4382 -0.7974 -2.8813
  167SAPS   H7Y18913   2.671   6.305   6.502  0.2907 -1.2204  0.9351
  167SAPS   C3818914   2.542   6.205   6.360 -0.1985 -0.0383 -0.0693
  167SAPS   H8X18915   2.604   6.257   6.285  2.5938 -1.3989  1.1384
  167SAPS   H8Y18916   2.452   6.265   6.384  1.0109  0.6798  3.3343
  167SAPS   C3918917   2.519   6.054   6.317 -0.3853  0.1381  0.1712
  167SAPS   H9X18918   2.454   5.994   6.384 -1.6399  0.5333 -0.6528
  167SAPS   H9Y18919   2.623   6.020   6.294 -0.8179 -1.3279  0.2698
  167SAPS  C31018920   2.454   6.036   6.178  0.2706  0.0640  0.4524
  167SAPS  H10X18921   2.345   6.057   6.187  0.1897 -0.2331  0.1962
  167SAPS  H10Y18922   2.468   5.931   6.143  2.9013  0.7508 -0.7822
  167SAPS  C31118923   2.511   6.127   6.070  0.6688 -0.2031  0.3082
  167SAPS  H11X18924   2.622   6.137   6.074  0.7742 -1.2761  0.4171
  167SAPS  H11Y18925   2.471   6.230   6.078 -1.5694 -1.1294  2.1912
  167SAPS  C31218926   2.490   6.072   5.924 -0.6428 -0.5858  0.3453
  167SAPS  H12X18927   2.381   6.069   5.904 -0.2551  0.6540 -2.6184
  167SAPS  H12Y18928   2.538   5.971   5.926 -0.1003 -0.3546 -0.3022
  167SAPS  C31318929   2.564   6.141   5.814  0.5166  0.0072 -0.1369
  167SAPS  H13X18930   2.666   6.166   5.851  0.7466 -2.4279  1.0817
  167SAPS  H13Y18931   2.509   6.236   5.799  0.6354  0.0293 -0.4461
  167SAPS  C31418932   2.568   6.066   5.686 -0.1287 -0.2228  0.2119
  167SAPS  H14X18933   2.469   6.019   5.667 -0.6543  1.6653 -2.2170
  167SAPS  H14Y18934   2.638   5.982   5.705 -0.5408 -1.3721 -2.7249
  167SAPS  C31518935   2.627   6.147   5.564  0.4900  0.4382 -0.1205
  167SAPS  H15X18936   2.721   6.203   5.582  1.3104 -0.6313 -0.9741
  167SAPS  H15Y18937   2.542   6.209   5.527  0.3342  0.1490 -0.2489
  167SAPS  C31618938   2.668   6.046   5.452 -0.5757  0.0982 -0.1791
  167SAPS  H16X18939   2.588   5.969   5.452 -0.3577 -0.1401 -1.4355
  167SAPS  H16Y18940   2.762   5.994   5.482  1.7272  2.0567 -3.3874
  167SAPS  C31718941   2.680   6.107   5.312  0.4543 -0.2835  0.0287
  167SAPS  H17X18942   2.757   6.186   5.327 -0.7080  0.9767 -0.4875
  167SAPS  H17Y18943   2.587   6.161   5.287  1.4402  0.2723 -2.8575
  167SAPS  C31818944   2.725   6.018   5.201 -0.3323  0.0489  0.2355
  167SAPS  H18X18945   2.807   5.952   5.238  1.5095  1.6210 -0.8500
  167SAPS  H18Y18946   2.769   6.074   5.116 -0.1151 -1.4767 -0.7073
  167SAPS  H18Z18947   2.635   5.969   5.157 -1.3174 -0.2545  2.4820
  168SAPS     N18948   6.839   6.142   7.055  0.3085  0.7652 -0.6660
  168SAPS   HN118949   6.859   6.094   6.965 -1.6429  0.5934 -1.0472
  168SAPS   HN218950   6.925   6.138   7.114 -0.9373 -0.1520  1.1863
  168SAPS   HN318951   6.763   6.096   7.110  1.0387 -1.2797 -1.2765
  168SAPS   C1218952   6.811   6.291   7.031  0.4442  0.0781 -0.5601
  168SAPS  H12A18953   6.745   6.312   7.114  3.8560 -0.3096  2.5723
  168SAPS   C1318954   6.933   6.378   7.061 -0.0732  0.3720 -0.4207
  168SAPS  O13A18955   7.031   6.320   7.108  0.3401  0.7955 -0.5661
  168SAPS  O13B18956   6.923   6.503   7.064  0.4305 -0.2396 -0.1250
  168SAPS   C1118957   6.751   6.303   6.889  0.1110  0.3249  0.3666
  168SAPS  H11A18958   6.830   6.281   6.814 -0.6177 -2.3926  0.3023
  168SAPS  H11B18959   6.728   6.412   6.882  1.7497  0.8443  2.2556
  168SAPS     P18960   6.556   6.259   6.721  0.0494  0.0147 -0.0579
  168SAPS   O1318961   6.439   6.164   6.710 -0.2272 -0.5947  0.1388
  168SAPS   O1418962   6.533   6.405   6.712 -0.6708 -0.0295 -0.5709
  168SAPS   O1218963   6.627   6.228   6.864 -0.0182  0.1287 -0.4638
  168SAPS   O1118964   6.671   6.224   6.618 -0.0535 -0.6161  0.1612
  168SAPS    C118965   6.750   6.106   6.612 -0.4269  0.9813 -0.1592
  168SAPS    HA18966   6.857   6.135   6.622  0.7570 -2.6302 -0.9427
  168SAPS    HB18967   6.731   6.041   6.700 -0.4467  0.8805 -0.2376
  168SAPS    C218968   6.725   6.029   6.478 -0.8269 -0.9883  0.2961
  168SAPS    HS18969   6.808   5.960   6.453 -0.6688 -0.8729  0.5042
  168SAPS   O2118970   6.698   6.120   6.369  0.2040 -0.1481 -0.1169
  168SAPS   C2118971   6.800   6.205   6.342 -0.4135  0.3715 -0.0586
  168SAPS   O2218972   6.917   6.197   6.377  0.4433  0.3903  0.3238
  168SAPS   C2218973   6.742   6.323   6.275  0.3567 -0.1058  0.4600
  168SAPS   H2R18974   6.762   6.301   6.168  1.0328 -0.6560  0.6882
  168SAPS   H2S18975   6.632   6.329   6.292  0.5803  1.0123  1.6697
  168SAPS    C318976   6.599   5.939   6.485  0.1097  0.0323 -1.1523
  168SAPS    HX18977   6.507   5.994   6.516 -1.0881 -1.7960 -1.3357
  168SAPS    HY18978   6.613   5.873   6.573 -0.1195 -0.0391 -1.1679
  168SAPS   O3118979   6.581   5.872   6.356  0.9530  0.3195 -0.2431
  168SAPS   C3118980   6.635   5.756   6.336  0.0478 -0.1990 -0.1481
  168SAPS   O3218981   6.717   5.715   6.415 -0.2858 -0.4101 -0.2593
  168SAPS   C3218982   6.594   5.695   6.197 -0.2609  0.1994 -0.0844
  168SAPS   H2X18983   6.547   5.772   6.132  0.2989  0.7658  0.1708
  168SAPS   H2Y18984   6.523   5.618   6.234  0.7567  0.2702  2.2284
  168SAPS   C2318985   6.802   6.457   6.312  0.2968  0.3126 -0.4678
  168SAPS   H3R18986   6.897   6.436   6.365  0.4379  1.0271 -0.4211
  168SAPS   H3S18987   6.734   6.519   6.375 -0.5474 -1.2972  0.2589
  168SAPS   C2418988   6.842   6.538   6.188  0.2720  0.8270  0.3816
  168SAPS   H4R18989   6.935   6.488   6.152 -0.4399  0.4957 -1.0466
  168SAPS   H4S18990   6.871   6.638   6.225 -1.1682  1.2637  0.3832
  168SAPS   C2518991   6.744   6.552   6.077 -0.0577 -0.2410 -0.1577
  168SAPS   H5R18992   6.652   6.493   6.091  0.1051 -0.9371 -1.7959
  168SAPS   C2618993   6.742   6.648   5.978  0.4200  0.5049  0.0726
  168SAPS   H6R18994   6.649   6.645   5.920 -0.4345  0.5805  1.4102
  168SAPS   C2718995   6.846   6.741   5.929  0.3014  0.4204 -0.2050
  168SAPS   H7R18996   6.873   6.691   5.833 -2.3195 -3.4543  0.8540
  168SAPS   H7S18997   6.933   6.741   5.999 -0.0414  1.9071  0.2402
  168SAPS   C2818998   6.797   6.881   5.900 -0.2767  0.9449  0.1413
  168SAPS   H8R18999   6.781   6.942   5.990 -1.7854  0.1514  0.4352
  168SAPS   C2919000   6.756   6.931   5.788  0.7091  0.3843 -0.1773
  168SAPS   H9R19001   6.733   7.038   5.774 -2.0300 -0.2582 -1.3790
  168SAPS  C21019002   6.755   6.861   5.657 -0.4536  0.3646  0.1159
  168SAPS  H10R19003   6.751   6.751   5.675  0.6458  0.4461  0.9697
  168SAPS  H10S19004   6.850   6.883   5.603 -0.0540  0.5487  0.8788
  168SAPS  C21119005   6.650   6.909   5.561 -0.1034 -0.6971 -0.2135
  168SAPS  H11R19006   6.680   6.998   5.504  0.6579  0.0580  1.3114
  168SAPS  C21219007   6.525   6.872   5.559  0.5413 -0.3416  0.0647
  168SAPS  H12R19008   6.468   6.919   5.478  2.8726  1.4189 -0.6743
  168SAPS  C21319009   6.448   6.764   5.625 -0.4233  0.5038 -0.4105
  168SAPS  H13R19010   6.507   6.749   5.718 -1.5699 -1.0364  0.1189
  168SAPS  H13S19011   6.463   6.672   5.565 -0.7606  0.4509 -0.4137
  168SAPS  C21419012   6.302   6.781   5.669 -0.1079 -0.6003  0.2119
  168SAPS  H14R19013   6.286   6.805   5.775 -0.3903 -0.9332  0.2485
  168SAPS  C21519014   6.200   6.777   5.576  0.2761 -0.5509  0.3435
  168SAPS  H15R19015   6.099   6.798   5.613  0.0815 -0.5893 -0.1633
  168SAPS  C21619016   6.216   6.766   5.427  0.1528 -0.1381  0.1422
  168SAPS  H16R19017   6.162   6.676   5.390  2.1645 -0.4481 -2.2977
  168SAPS  H16S19018   6.323   6.750   5.403  0.6810 -0.0231  2.2777
  168SAPS  C21719019   6.145   6.872   5.326  0.2307 -0.0332  0.7095
  168SAPS  H17R19020   6.208   6.964   5.324 -0.4851  0.4828  1.3822
  168SAPS  H17S19021   6.049   6.900   5.375 -1.1421 -2.2895 -0.4928
  168SAPS  C21819022   6.118   6.817   5.180 -0.4011  0.0478 -0.8053
  168SAPS  H18R19023   6.048   6.731   5.174 -0.0380 -0.3502  0.3930
  168SAPS  H18S19024   6.213   6.783   5.133 -0.0402 -2.0740  1.2577
  168SAPS  C21919025   6.051   6.926   5.087  0.2954  1.1190  0.1078
  168SAPS  H19R19026   6.131   6.999   5.065 -1.4660  2.5520 -2.0293
  168SAPS  H19S19027   5.966   6.973   5.140 -0.3521 -2.8139  3.0274
  168SAPS  C22019028   6.009   6.867   4.954  0.6371  0.2954 -0.4282
  168SAPS  H20R19029   5.953   6.942   4.893 -3.8474  0.0862  2.9373
  168SAPS  H20S19030   5.949   6.774   4.965  3.4549 -1.5800  0.0294
  168SAPS  H20T19031   6.100   6.832   4.901  0.8941 -1.5526  1.1248
  168SAPS   C3319032   6.710   5.610   6.126  0.0133  0.1199  0.2144
  168SAPS   H3X19033   6.666   5.591   6.026  1.7275  0.3181 -0.5958
  168SAPS   H3Y19034   6.738   5.525   6.192  3.1702  2.4732  2.1538
  168SAPS   C3419035   6.838   5.690   6.116 -0.8783  0.1795  0.3382
  168SAPS   H4X19036   6.893   5.688   6.212 -0.5634  0.4614  0.1670
  168SAPS   H4Y19037   6.822   5.796   6.087 -1.5563  0.5392  1.9461
  168SAPS   C3519038   6.938   5.631   6.014 -0.0505  0.3348  0.2140
  168SAPS   H5X19039   6.943   5.521   6.027 -2.3341 -0.1440 -2.0546
  168SAPS   H5Y19040   7.037   5.675   6.037 -0.3389  1.9135 -1.2995
  168SAPS   C3619041   6.909   5.680   5.870 -0.4667  0.0269 -0.2735
  168SAPS   H6X19042   6.871   5.784   5.870  0.1421  0.3392 -3.2205
  168SAPS   H6Y19043   6.832   5.608   5.834 -0.8473 -0.0630  0.7082
  168SAPS   C3719044   7.029   5.685   5.770 -0.0461 -0.1413 -0.5264
  168SAPS   H7X19045   7.084   5.589   5.776  1.1821  0.3815 -2.6059
  168SAPS   H7Y19046   7.103   5.759   5.806 -0.7087 -0.8816  2.6765
  168SAPS   C3819047   7.002   5.701   5.621 -0.2899 -0.4142 -0.6089
  168SAPS   H8X19048   6.924   5.623   5.609 -0.7447 -0.2422  0.9184
  168SAPS   H8Y19049   7.095   5.685   5.563  0.2765 -0.7295  0.3717
  168SAPS   C3919050   6.950   5.839   5.585  0.7249 -0.4735 -0.3317
  168SAPS   H9X19051   7.014   5.924   5.616 -0.7966  0.8172 -0.6146
  168SAPS   H9Y19052   6.853   5.865   5.633  0.9956 -1.5326  0.8835
  168SAPS  C31019053   6.946   5.876   5.436 -0.3858 -0.2492 -0.5189
  168SAPS  H10X19054   6.893   5.801   5.374  0.5685 -0.9171 -0.5568
  168SAPS  H10Y19055   7.054   5.880   5.409  0.1685 -1.2664  1.4002
  168SAPS  C31119056   6.871   6.013   5.417 -0.2715 -0.1799 -0.0323
  168SAPS  H11X19057   6.919   6.101   5.465 -0.6516  0.2675 -0.4682
  168SAPS  H11Y19058   6.777   5.992   5.471  0.2227 -2.3113  0.1228
  168SAPS  C31219059   6.854   6.049   5.274  0.3739  0.5331  0.9809
  168SAPS  H12X19060   6.762   6.105   5.245  0.8672  0.5482 -0.6416
  168SAPS  H12Y19061   6.834   5.950   5.227  1.4958  0.8715 -0.2599
  168SAPS  C31319062   6.985   6.102   5.210 -0.1187 -0.7964  0.2253
  168SAPS  H13X19063   6.972   6.063   5.107 -0.3102  1.3853 -0.6308
  168SAPS  H13Y19064   7.072   6.057   5.264 -0.0928 -2.0563 -0.8209
  168SAPS  C31419065   6.996   6.253   5.183 -0.3870  0.0003 -0.2240
  168SAPS  H14X19066   7.011   6.309   5.279  0.8558 -0.9845  0.1806
  168SAPS  H14Y19067   6.897   6.287   5.147  0.1963  0.8492 -1.0723
  168SAPS  C31519068   7.117   6.301   5.099  0.9996 -0.9004  0.0501
  168SAPS  H15X19069   7.076   6.366   5.019 -0.5074 -2.6870 -0.6856
  168SAPS  H15Y19070   7.142   6.206   5.047 -1.1795 -1.6262  0.2462
  168SAPS  C31619071   7.234   6.362   5.178  0.1325 -0.1406  0.7769
  168SAPS  H16X19072   7.234   6.312   5.278 -0.0500 -1.0588  0.3262
  168SAPS  H16Y19073   7.217   6.470   5.199  3.2324  1.0929 -2.2379
  168SAPS  C31719074   7.379   6.359   5.112  0.1150 -0.4922  0.3667
  168SAPS  H17X19075   7.391   6.253   5.082  1.2847 -0.8907  2.1147
  168SAPS  H17Y19076   7.458   6.394   5.181  2.0011  0.1459 -1.9593
  168SAPS  C31819077   7.389   6.440   4.978 -0.7222 -0.1550  0.1403
  168SAPS  H18X19078   7.371   6.549   4.996 -0.9305  0.3197 -2.4832
  168SAPS  H18Y19079   7.317   6.401   4.903 -0.1099  0.7974 -0.9791
  168SAPS  H18Z19080   7.494   6.432   4.943 -0.6592  1.0437  0.0138
  169SAPS     N19081   4.157   2.049   7.521 -0.4424 -0.4093 -0.0440
  169SAPS   HN119082   4.114   2.003   7.439  0.2992 -4.1603  1.4507
  169SAPS   HN219083   4.213   2.135   7.501 -0.5453  0.2214  2.0799
  169SAPS   HN319084   4.206   1.976   7.576 -1.2147  1.1003  2.8865
  169SAPS   C1219085   4.043   2.098   7.604 -0.0989  0.7522 -0.2316
  169SAPS  H12A19086   3.962   2.028   7.590  1.0186 -0.5887 -0.2574
  169SAPS   C1319087   4.066   2.115   7.755  0.4436 -0.3087 -0.3163
  169SAPS  O13A19088   4.180   2.072   7.793 -0.3727 -0.2117  0.1403
  169SAPS  O13B19089   3.977   2.147   7.834 -0.1628  0.0622  0.1280
  169SAPS   C1119090   3.994   2.229   7.537  0.8069  0.7844  0.3188
  169SAPS  H11A19091   4.079   2.300   7.543  2.4858 -1.1740  1.2180
  169SAPS  H11B19092   3.909   2.278   7.589 -0.2417 -1.6795  1.0449
  169SAPS     P19093   3.869   2.292   7.312 -0.0176 -0.2965 -0.2236
  169SAPS   O1319094   3.758   2.202   7.264  0.0692  0.2503 -0.2724
  169SAPS   O1419095   3.826   2.420   7.380 -0.5890 -0.2052  0.7620
  169SAPS   O1219096   3.970   2.208   7.399  0.4023  0.2358 -0.0758
  169SAPS   O1119097   3.953   2.316   7.186 -0.4988  0.4543  0.7986
  169SAPS    C119098   4.091   2.352   7.181 -0.2549  0.5778 -0.0172
  169SAPS    HA19099   4.156   2.284   7.239 -0.0087  1.3421  0.6284
  169SAPS    HB19100   4.124   2.344   7.075 -2.4245 -2.2806 -0.5915
  169SAPS    C219101   4.113   2.504   7.224  0.3339  0.4018  0.4298
  169SAPS    HS19102   4.071   2.520   7.326  1.1585 -0.5798  0.9356
  169SAPS   O2119103   4.045   2.588   7.128  0.1106  0.0524 -0.1402
  169SAPS   C2119104   4.015   2.701   7.167 -0.3195  0.1110  1.3834
  169SAPS   O2219105   4.009   2.746   7.280 -0.0747 -0.4061 -0.3404
  169SAPS   C2219106   3.991   2.776   7.034  0.2525 -0.4069  0.4473
  169SAPS   H2R19107   4.074   2.768   6.961 -1.5099  1.2313 -1.9231
  169SAPS   H2S19108   3.916   2.728   6.968  2.1445  0.4672 -2.5354
  169SAPS    C319109   4.257   2.545   7.232  0.0625 -0.5122 -0.7191
  169SAPS    HX19110   4.310   2.498   7.318 -0.8741 -0.1423  0.0715
  169SAPS    HY19111   4.263   2.652   7.260  0.2809 -0.6058 -0.3993
  169SAPS   O3119112   4.336   2.515   7.116 -0.3363  0.4154  0.0622
  169SAPS   C3119113   4.349   2.626   7.035 -0.4562  0.2542  0.1803
  169SAPS   O3219114   4.315   2.740   7.062 -0.1380  0.2364  0.2647
  169SAPS   C3219115   4.408   2.589   6.908 -0.8275  0.4477 -0.2268
  169SAPS   H2X19116   4.437   2.481   6.909 -0.4656  0.5210  2.0479
  169SAPS   H2Y19117   4.501   2.649   6.901  0.0939 -1.0833 -2.5221
  169SAPS   C2319118   3.974   2.933   7.053  0.3518  0.5879 -0.0619
  169SAPS   H3R19119   4.064   2.971   7.105  0.4300  0.7527 -0.3202
  169SAPS   H3S19120   3.878   2.935   7.109  0.0140  0.1626 -0.6162
  169SAPS   C2419121   3.977   3.006   6.922  0.0590 -0.4623 -0.2904
  169SAPS   H4R19122   4.059   2.972   6.856 -0.2945 -0.8855 -0.5205
  169SAPS   H4S19123   4.002   3.113   6.938  1.9511 -1.2004  2.5053
  169SAPS   C2519124   3.843   2.992   6.849 -0.5352 -0.2354 -0.4075
  169SAPS   H5R19125   3.770   3.067   6.885  0.4284  0.1818  0.7586
  169SAPS   C2619126   3.819   2.916   6.742 -0.9626  0.3658  0.5560
  169SAPS   H6R19127   3.726   2.936   6.686 -0.6679  2.5986  0.7488
  169SAPS   C2719128   3.909   2.807   6.684  0.0842 -0.2462  0.2579
  169SAPS   H7R19129   3.985   2.784   6.761  1.1327 -2.8805 -1.4140
  169SAPS   H7S19130   3.970   2.849   6.601  1.8047 -2.9278  0.0401
  169SAPS   C2819131   3.835   2.672   6.663 -0.6912 -0.2092 -0.1644
  169SAPS   H8R19132   3.813   2.615   6.755 -1.0527  0.1079 -0.0485
  169SAPS   C2919133   3.772   2.636   6.551  0.0793 -0.2085 -0.3715
  169SAPS   H9R19134   3.725   2.537   6.553  0.6367 -0.4664  0.3107
  169SAPS  C21019135   3.771   2.716   6.424 -0.2269  0.1576  0.1454
  169SAPS  H10R19136   3.832   2.808   6.437  2.7621 -1.8824  1.7634
  169SAPS  H10S19137   3.664   2.739   6.402 -0.8502 -1.2347  1.5347
  169SAPS  C21119138   3.816   2.645   6.305 -0.6993 -0.2242 -0.6889
  169SAPS  H11R19139   3.893   2.573   6.337 -0.4216 -0.3347 -1.5733
  169SAPS  C21219140   3.791   2.676   6.176  0.7649  0.3271  0.5853
  169SAPS  H12R19141   3.834   2.604   6.105  0.7993  0.6930  0.2376
  169SAPS  C21319142   3.703   2.789   6.130  0.0228 -0.3500 -0.1829
  169SAPS  H13R19143   3.769   2.863   6.079 -2.0504  1.4143 -0.4550
  169SAPS  H13S19144   3.632   2.832   6.204 -0.6243 -3.4258  1.1351
  169SAPS  C21419145   3.619   2.740   6.017  0.8157  0.1077  0.2335
  169SAPS  H14R19146   3.511   2.747   6.039  0.8688 -1.9964  1.4067
  169SAPS  C21519147   3.649   2.708   5.887  0.4216  0.0627  0.4946
  169SAPS  H15R19148   3.561   2.689   5.825 -0.1182  0.3812  1.1433
  169SAPS  C21619149   3.785   2.705   5.828 -0.1732  0.6960 -0.2138
  169SAPS  H16R19150   3.784   2.604   5.781 -1.2652  0.0316  1.1561
  169SAPS  H16S19151   3.869   2.707   5.900 -0.9427 -1.0497  0.7947
  169SAPS  C21719152   3.792   2.812   5.724  0.2171 -0.0186  0.1392
  169SAPS  H17R19153   3.895   2.807   5.683  0.9195  1.8263  1.5276
  169SAPS  H17S19154   3.778   2.914   5.766 -0.8341 -0.2248  0.3098
  169SAPS  C21819155   3.697   2.791   5.606  0.0807 -1.6398  0.1704
  169SAPS  H18R19156   3.591   2.808   5.634  0.2618  0.8875 -0.3916
  169SAPS  H18S19157   3.691   2.690   5.561 -1.9148 -0.9438 -1.2501
  169SAPS  C21919158   3.731   2.892   5.492  0.5331 -0.0577 -0.8123
  169SAPS  H19R19159   3.811   2.959   5.531 -0.2262  1.5329 -1.8829
  169SAPS  H19S19160   3.646   2.957   5.464 -1.7590 -1.9294  1.3660
  169SAPS  C22019161   3.778   2.815   5.368  0.3067 -0.7515 -0.0173
  169SAPS  H20R19162   3.869   2.758   5.396  1.3042  0.8001  0.0252
  169SAPS  H20S19163   3.801   2.887   5.286  0.7723 -1.7721 -0.8119
  169SAPS  H20T19164   3.706   2.734   5.345 -0.3453 -0.6402  1.5486
  169SAPS   C3319165   4.306   2.615   6.793 -0.0937 -0.2782  0.0818
  169SAPS   H3X19166   4.291   2.725   6.787  0.9805 -0.1485 -0.6433
  169SAPS   H3Y19167   4.211   2.567   6.822  0.6221 -0.7583  1.7572
  169SAPS   C3419168   4.345   2.560   6.659 -0.0505 -0.1976  0.8998
  169SAPS   H4X19169   4.338   2.449   6.656 -2.9789 -0.0770 -0.5602
  169SAPS   H4Y19170   4.447   2.579   6.620 -0.2930 -1.3933 -0.4073
  169SAPS   C3519171   4.261   2.608   6.538 -0.4516  0.0785  1.1917
  169SAPS   H5X19172   4.288   2.716   6.532 -1.0486  0.2125  0.8470
  169SAPS   H5Y19173   4.153   2.597   6.563 -0.6516  2.0725  1.3469
  169SAPS   C3619174   4.294   2.533   6.412  0.1563  0.2984  0.1421
  169SAPS   H6X19175   4.269   2.425   6.422  1.9207 -0.0144  1.7016
  169SAPS   H6Y19176   4.404   2.539   6.394 -0.1487  1.9416 -1.4695
  169SAPS   C3719177   4.215   2.586   6.292 -0.4492  0.6151 -0.2230
  169SAPS   H7X19178   4.251   2.691   6.288  1.8533 -0.0427  0.9375
  169SAPS   H7Y19179   4.107   2.586   6.319 -0.1380 -0.9833  1.2165
  169SAPS   C3819180   4.244   2.523   6.159 -0.6108  0.6730  0.1396
  169SAPS   H8X19181   4.236   2.413   6.169 -0.6181  0.6434 -0.1694
  169SAPS   H8Y19182   4.352   2.529   6.135  0.3218 -2.5638  2.7228
  169SAPS   C3919183   4.162   2.567   6.039  0.1739 -0.2174  0.5660
  169SAPS   H9X19184   4.141   2.676   6.040  1.0221 -0.0372  2.1901
  169SAPS   H9Y19185   4.061   2.524   6.060 -0.1749  0.8220  1.1455
  169SAPS  C31019186   4.222   2.530   5.902 -0.3548  0.0484 -0.3766
  169SAPS  H10X19187   4.222   2.419   5.898 -0.1700  0.0728 -1.2051
  169SAPS  H10Y19188   4.322   2.579   5.905 -0.4019  0.2353 -1.3672
  169SAPS  C31119189   4.143   2.587   5.793 -0.2031 -0.1865  0.1450
  169SAPS  H11X19190   4.125   2.696   5.801 -1.1948 -0.2823 -0.5765
  169SAPS  H11Y19191   4.040   2.545   5.795 -1.1972  2.1105  0.7685
  169SAPS  C31219192   4.216   2.556   5.660 -0.0194 -0.6334 -0.0403
  169SAPS  H12X19193   4.227   2.445   5.657  0.6861 -0.5852  0.3642
  169SAPS  H12Y19194   4.319   2.596   5.645  0.1001 -1.3996 -1.4202
  169SAPS  C31319195   4.142   2.615   5.544 -0.1811  1.0649  0.6007
  169SAPS  H13X19196   4.132   2.726   5.543  2.1187  1.3222  0.4395
  169SAPS  H13Y19197   4.039   2.573   5.553  0.3923 -0.4481  0.3229
  169SAPS  C31419198   4.202   2.577   5.404  0.4798 -0.0661 -0.1551
  169SAPS  H14X19199   4.137   2.613   5.322  1.6211  1.7654 -0.3084
  169SAPS  H14Y19200   4.208   2.466   5.403 -2.2890 -0.3487  2.2481
  169SAPS  C31519201   4.337   2.641   5.373 -0.2983  0.0063  0.0073
  169SAPS  H15X19202   4.412   2.615   5.451 -0.9402 -2.0639  0.0043
  169SAPS  H15Y19203   4.325   2.751   5.382 -1.4279  0.1970 -2.8381
  169SAPS  C31619204   4.392   2.600   5.245  0.2230 -0.1241 -0.4371
  169SAPS  H16X19205   4.325   2.637   5.166 -1.5400  0.6497  1.3366
  169SAPS  H16Y19206   4.399   2.489   5.242 -1.7059 -0.2879 -0.0358
  169SAPS  C31719207   4.533   2.656   5.216  0.2320  0.1208  0.8551
  169SAPS  H17X19208   4.593   2.650   5.309  2.1264 -0.3001 -0.3395
  169SAPS  H17Y19209   4.525   2.764   5.192 -0.5687 -0.0359  0.3955
  169SAPS  C31819210   4.619   2.577   5.110  0.7815  0.0683 -0.5002
  169SAPS  H18X19211   4.608   2.466   5.113  3.6703 -0.4716 -3.1826
  169SAPS  H18Y19212   4.728   2.595   5.124  0.3998  1.1055  1.3948
  169SAPS  H18Z19213   4.588   2.603   5.006 -0.3281 -0.4723 -0.3160
  170SAPS     N19214   3.353   0.844   7.100 -0.1578 -0.3042 -0.6840
  170SAPS   HN119215   3.356   0.755   7.046 -0.1161  0.4563 -1.9743
  170SAPS   HN219216   3.316   0.814   7.192 -0.1731 -0.8202 -0.8543
  170SAPS   HN319217   3.290   0.910   7.050 -1.0051 -1.2310 -0.8609
  170SAPS   C1219218   3.499   0.889   7.108 -0.4970  0.0416 -0.3787
  170SAPS  H12A19219   3.534   0.898   7.007 -2.4264  0.2938 -1.0611
  170SAPS   C1319220   3.522   1.023   7.190 -0.3391 -0.1509  0.4782
  170SAPS  O13A19221   3.436   1.057   7.276  0.4719  0.0638  0.4113
  170SAPS  O13B19222   3.640   1.071   7.187  0.4701 -0.2950 -0.3107
  170SAPS   C1119223   3.574   0.781   7.190  0.3258  0.0404  0.2797
  170SAPS  H11A19224   3.542   0.788   7.297 -2.3070  2.4761 -0.5387
  170SAPS  H11B19225   3.677   0.820   7.193  0.6304 -0.7972  2.3236
  170SAPS     P19226   3.652   0.529   7.179  0.4070  0.4521 -0.3822
  170SAPS   O1319227   3.763   0.572   7.263 -0.1168  0.7101 -0.3474
  170SAPS   O1419228   3.566   0.426   7.241  0.5631 -0.2235  0.4129
  170SAPS   O1219229   3.558   0.645   7.135  0.3209  0.0406 -0.3776
  170SAPS   O1119230   3.718   0.468   7.051  0.1217  0.1484  0.2418
  170SAPS    C119231   3.730   0.543   6.931  1.1415  0.0450 -0.7883
  170SAPS    HA19232   3.758   0.649   6.948 -0.0408  0.1636  0.5646
  170SAPS    HB19233   3.823   0.509   6.881  2.4079  0.1099  1.4190
  170SAPS    C219234   3.604   0.538   6.844 -0.1325 -0.3722  0.3413
  170SAPS    HS19235   3.514   0.566   6.903 -0.3156  0.8899 -0.5049
  170SAPS   O2119236   3.584   0.402   6.798 -0.1395  0.1253  0.8640
  170SAPS   C2119237   3.460   0.358   6.779  0.1728  0.2016  0.5254
  170SAPS   O2219238   3.356   0.423   6.804  0.3493  0.3228  0.3900
  170SAPS   C2219239   3.453   0.211   6.726  0.2128  0.2427 -0.1497
  170SAPS   H2R19240   3.459   0.151   6.820  1.3290  0.7829  0.1451
  170SAPS   H2S19241   3.356   0.186   6.678  1.6490 -2.7262 -1.7908
  170SAPS    C319242   3.612   0.639   6.729 -0.0241  0.7499  0.1620
  170SAPS    HX19243   3.707   0.617   6.676 -0.2077 -1.8879  0.7916
  170SAPS    HY19244   3.619   0.744   6.765  0.6237  0.4472  0.9451
  170SAPS   O3119245   3.500   0.617   6.636 -0.1391 -0.3045  0.4341
  170SAPS   C3119246   3.391   0.672   6.675 -0.1296 -0.3073 -0.5286
  170SAPS   O3219247   3.379   0.740   6.778 -0.1825 -0.2452  0.1568
  170SAPS   C3219248   3.288   0.656   6.568  0.3843 -0.0767 -0.5694
  170SAPS   H2X19249   3.226   0.746   6.546  0.3700 -0.4120 -1.9574
  170SAPS   H2Y19250   3.207   0.591   6.608  0.3578 -1.2485 -2.3993
  170SAPS   C2319251   3.575   0.181   6.644 -1.1379  0.3449  0.3956
  170SAPS   H3R19252   3.572   0.073   6.617 -1.2819  0.4839 -0.1530
  170SAPS   H3S19253   3.669   0.193   6.702 -1.2453  0.1063  0.6242
  170SAPS   C2419254   3.586   0.258   6.508  0.2075 -0.0174  0.0853
  170SAPS   H4R19255   3.695   0.263   6.487  0.0675 -0.8305 -0.8892
  170SAPS   H4S19256   3.557   0.363   6.533  1.2872  0.1268  0.8297
  170SAPS   C2519257   3.502   0.203   6.393  0.1373 -0.3177  0.3007
  170SAPS   H5R19258   3.418   0.137   6.419  1.1042 -1.9667 -0.6019
  170SAPS   C2619259   3.503   0.245   6.263  0.0292  0.7935 -0.6159
  170SAPS   H6R19260   3.444   0.197   6.184  1.7564 -1.5571 -0.5712
  170SAPS   C2719261   3.598   0.343   6.209  0.0727  0.5124 -0.2655
  170SAPS   H7R19262   3.630   0.409   6.292  0.3757 -2.7326  2.4001
  170SAPS   H7S19263   3.539   0.409   6.142 -2.3010 -1.2043 -0.0268
  170SAPS   C2819264   3.709   0.266   6.148  0.5057 -0.4295 -0.1916
  170SAPS   H8R19265   3.742   0.179   6.207  0.2456 -0.7641 -0.5374
  170SAPS   C2919266   3.762   0.296   6.030 -0.2362 -1.1511  0.3500
  170SAPS   H9R19267   3.856   0.244   6.006  1.5287  1.2352  1.6088
  170SAPS  C21019268   3.732   0.409   5.935  0.3426 -0.7792  0.3605
  170SAPS  H10R19269   3.623   0.402   5.917  0.1606 -0.6622  1.3867
  170SAPS  H10S19270   3.776   0.390   5.835  0.4498 -0.1474  0.2816
  170SAPS  C21119271   3.751   0.549   5.984  0.1832  0.3459  0.4819
  170SAPS  H11R19272   3.674   0.579   6.057 -0.4715 -1.2073  0.4763
  170SAPS  C21219273   3.853   0.627   5.956 -0.1885  0.4325 -0.6751
  170SAPS  H12R19274   3.862   0.728   5.999  2.1289  0.2090 -0.5161
  170SAPS  C21319275   3.967   0.598   5.857 -0.5818  0.9406 -0.0709
  170SAPS  H13R19276   3.913   0.588   5.760  0.6032 -1.6830 -0.5332
  170SAPS  H13S19277   4.007   0.500   5.889 -0.8295  0.4133 -1.3112
  170SAPS  C21419278   4.082   0.700   5.846  0.4358 -0.6808 -0.4152
  170SAPS  H14R19279   4.100   0.752   5.942  1.6107 -1.1009 -0.3920
  170SAPS  C21519280   4.148   0.723   5.727  0.1497  0.2579  0.0124
  170SAPS  H15R19281   4.235   0.790   5.723  1.2609 -1.1664 -0.6106
  170SAPS  C21619282   4.110   0.674   5.591 -0.0397 -0.1294  0.5196
  170SAPS  H16R19283   4.071   0.570   5.599  1.3060 -0.8420 -1.3953
  170SAPS  H16S19284   4.206   0.656   5.537  0.4233 -0.1759  1.3422
  170SAPS  C21719285   4.019   0.769   5.512  0.6145  0.5914 -0.3004
  170SAPS  H17R19286   4.075   0.860   5.483  0.9818  0.9389  1.3546
  170SAPS  H17S19287   3.940   0.821   5.571  1.2263  1.3151 -0.1071
  170SAPS  C21819288   3.963   0.695   5.388 -0.1905 -0.6469  0.0448
  170SAPS  H18R19289   3.893   0.767   5.341 -0.8635 -0.2144  1.6258
  170SAPS  H18S19290   3.901   0.607   5.417  0.3782 -1.5531 -1.3515
  170SAPS  C21919291   4.075   0.666   5.283  0.4198 -0.2510  0.0567
  170SAPS  H19R19292   4.150   0.598   5.329  1.2002  1.3942  1.3434
  170SAPS  H19S19293   4.126   0.764   5.265  0.1870 -0.2732 -0.7734
  170SAPS  C22019294   4.026   0.601   5.153  0.4183 -0.4128 -0.2164
  170SAPS  H20R19295   4.013   0.492   5.173  1.8645 -0.8337 -1.3633
  170SAPS  H20S19296   4.107   0.609   5.077 -0.0995 -0.0670 -0.7340
  170SAPS  H20T19297   3.934   0.647   5.113 -0.2001 -0.1075  1.4478
  170SAPS   C3319298   3.326   0.586   6.435  0.7087  0.5623  0.5324
  170SAPS   H3X19299   3.349   0.478   6.445  0.7364  0.4518 -0.6460
  170SAPS   H3Y19300   3.404   0.645   6.383 -0.0533  1.7806  0.7076
  170SAPS   C3419301   3.209   0.597   6.342 -1.0734 -0.5078  0.3989
  170SAPS   H4X19302   3.212   0.696   6.290 -0.2952 -1.0269 -0.5776
  170SAPS   H4Y19303   3.109   0.592   6.392 -0.9588  1.5181  0.9318
  170SAPS   C3519304   3.206   0.482   6.237 -0.8075 -0.4130  0.5810
  170SAPS   H5X19305   3.209   0.389   6.298  1.4048 -0.0940  1.0177
  170SAPS   H5Y19306   3.298   0.496   6.176  0.2145 -0.9909  1.9297
  170SAPS   C3619307   3.085   0.481   6.134  0.1745 -0.6991 -0.2679
  170SAPS   H6X19308   3.065   0.575   6.079  1.3132 -0.6879 -0.6800
  170SAPS   H6Y19309   3.003   0.472   6.208 -0.7021  2.1334 -0.7739
  170SAPS   C3719310   3.068   0.355   6.044  0.2242  0.0611  0.1027
  170SAPS   H7X19311   2.974   0.382   5.990 -1.8475 -0.9154  2.9577
  170SAPS   H7Y19312   3.042   0.272   6.112  1.6414  0.1080  0.7352
  170SAPS   C3819313   3.181   0.336   5.952 -0.2795 -0.0542 -0.3420
  170SAPS   H8X19314   3.164   0.255   5.877  1.9022  0.8013 -1.8760
  170SAPS   H8Y19315   3.275   0.318   6.009 -1.0783  1.3514  1.4988
  170SAPS   C3919316   3.217   0.460   5.861 -0.3016 -0.4859 -0.0273
  170SAPS   H9X19317   3.226   0.558   5.911  1.1546  0.3241 -1.7796
  170SAPS   H9Y19318   3.135   0.466   5.787  0.0966 -0.4297 -0.4747
  170SAPS  C31019319   3.346   0.435   5.783  0.3846  0.1892 -0.5954
  170SAPS  H10X19320   3.389   0.333   5.776  4.1252  1.3945  1.7846
  170SAPS  H10Y19321   3.423   0.477   5.851 -0.1259  0.5156 -0.2048
  170SAPS  C31119322   3.358   0.496   5.643 -0.2371  0.3965  0.0010
  170SAPS  H11X19323   3.301   0.590   5.631  1.1687  1.5749  1.9282
  170SAPS  H11Y19324   3.303   0.428   5.576  0.2940 -1.1254  1.0422
  170SAPS  C31219325   3.500   0.526   5.595 -0.1100  0.0439 -0.7675
  170SAPS  H12X19326   3.558   0.432   5.609 -1.4720 -0.6294  0.7077
  170SAPS  H12Y19327   3.548   0.601   5.661  1.1469 -1.0168 -0.4223
  170SAPS  C31319328   3.528   0.569   5.455  0.2079 -0.1138 -0.4338
  170SAPS  H13X19329   3.637   0.594   5.455 -0.5262  3.7229 -1.1934
  170SAPS  H13Y19330   3.482   0.666   5.426  0.6186  0.2725  0.1880
  170SAPS  C31419331   3.526   0.454   5.348 -0.1020  0.4641 -0.1201
  170SAPS  H14X19332   3.420   0.421   5.347  0.0088  0.1171 -0.9307
  170SAPS  H14Y19333   3.585   0.368   5.385  1.0746  0.1844 -2.4851
  170SAPS  C31519334   3.563   0.498   5.208 -0.2778 -0.6617  0.6551
  170SAPS  H15X19335   3.670   0.523   5.224 -0.7069 -0.6024  4.1786
  170SAPS  H15Y19336   3.511   0.594   5.190  1.7933  0.2718 -0.7820
  170SAPS  C31619337   3.549   0.393   5.099  0.2848 -0.3664 -0.7112
  170SAPS  H16X19338   3.446   0.352   5.104 -0.0902  0.5666 -0.5146
  170SAPS  H16Y19339   3.610   0.304   5.125 -1.0018 -0.3401  2.9870
  170SAPS  C31719340   3.566   0.437   4.955  0.8564  0.2923  0.4149
  170SAPS  H17X19341   3.479   0.503   4.940  0.7269  0.3114  1.2170
  170SAPS  H17Y19342   3.556   0.351   4.885 -0.7648  0.0421  0.9178
  170SAPS  C31819343   3.691   0.527   4.930 -0.3173  0.1375 -0.5327
  170SAPS  H18X19344   3.709   0.541   4.822 -0.6786  1.1313 -0.4740
  170SAPS  H18Y19345   3.784   0.485   4.973 -0.0297  1.1619 -0.1171
  170SAPS  H18Z19346   3.669   0.623   4.982  1.3052  0.0512  0.3839
  171SAPS     N19347   6.562   1.591   7.219 -0.2296 -1.1829 -0.4367
  171SAPS   HN119348   6.651   1.628   7.178 -0.1043  0.8522  1.4845
  171SAPS   HN219349   6.484   1.593   7.151  0.4279 -0.2552 -1.1917
  171SAPS   HN319350   6.535   1.661   7.291  0.2781 -1.7221  0.2812
  171SAPS   C1219351   6.568   1.447   7.281 -0.1134 -0.0849 -0.5468
  171SAPS  H12A19352   6.617   1.375   7.217 -2.1313 -1.0052 -1.1201
  171SAPS   C1319353   6.651   1.436   7.411 -0.0442  0.1980  0.3086
  171SAPS  O13A19354   6.704   1.530   7.469 -0.0525 -0.0964 -0.2617
  171SAPS  O13B19355   6.680   1.320   7.449  0.6264  0.2767 -0.2914
  171SAPS   C1119356   6.420   1.408   7.301  0.6601 -0.0737  0.3863
  171SAPS  H11A19357   6.362   1.483   7.359  1.9399  1.1057  0.1959
  171SAPS  H11B19358   6.409   1.316   7.362  0.4842  0.3526  1.0145
  171SAPS     P19359   6.353   1.241   7.099  0.0858  0.1782  0.2138
  171SAPS   O1319360   6.478   1.219   7.030 -0.7472 -0.0851  0.2134
  171SAPS   O1419361   6.315   1.132   7.197  0.7035  0.1615  0.0853
  171SAPS   O1219362   6.365   1.381   7.170  0.2905 -0.5789 -0.1214
  171SAPS   O1119363   6.235   1.266   6.996  0.0316  0.1297 -0.0350
  171SAPS    C119364   6.228   1.387   6.922  0.6113  0.3096  0.4961
  171SAPS    HA19365   6.133   1.438   6.948  0.3804  0.0549  0.1644
  171SAPS    HB19366   6.309   1.454   6.957  0.9427 -0.3322  0.9703
  171SAPS    C219367   6.229   1.363   6.764 -0.2099 -0.0457  0.1178
  171SAPS    HS19368   6.244   1.464   6.718  1.7211  0.5653  1.9357
  171SAPS   O2119369   6.108   1.306   6.713 -0.0313 -0.2961 -0.5749
  171SAPS   C2119370   6.004   1.395   6.714  0.1364 -1.0768  0.0635
  171SAPS   O2219371   6.017   1.515   6.742 -0.1519  0.1805  0.1201
  171SAPS   C2219372   5.882   1.316   6.669  1.6202  0.0653  0.4891
  171SAPS   H2R19373   5.834   1.264   6.755 -0.7769  0.2190 -0.6950
  171SAPS   H2S19374   5.822   1.395   6.621  3.1183  2.2073  1.9654
  171SAPS    C319375   6.338   1.270   6.720 -0.1403 -0.2070 -0.8639
  171SAPS    HX19376   6.303   1.168   6.748 -0.8063  0.1615 -0.3344
  171SAPS    HY19377   6.431   1.298   6.773 -0.1893  0.8634 -1.3254
  171SAPS   O3119378   6.365   1.275   6.578  0.1719  0.6503  0.3532
  171SAPS   C3119379   6.309   1.188   6.507  0.0315 -0.3386  0.1771
  171SAPS   O3219380   6.229   1.104   6.545 -0.2838  0.3703  0.0328
  171SAPS   C3219381   6.338   1.215   6.359  0.4258  0.2479 -0.6715
  171SAPS   H2X19382   6.444   1.247   6.349  0.5495  0.9149  2.0357
  171SAPS   H2Y19383   6.275   1.298   6.321 -0.4184 -0.7437 -1.5349
  171SAPS   C2319384   5.920   1.209   6.562 -0.3585 -0.0869  0.3779
  171SAPS   H3R19385   5.960   1.118   6.612 -0.4746  1.1307  2.8191
  171SAPS   H3S19386   6.003   1.249   6.500 -2.3895  1.4940 -1.4572
  171SAPS   C2419387   5.800   1.177   6.479 -0.1752 -0.3614  0.1075
  171SAPS   H4R19388   5.775   1.260   6.409  2.7355  0.0343 -0.6060
  171SAPS   H4S19389   5.717   1.143   6.544  2.0329  0.6519  3.6873
  171SAPS   C2519390   5.828   1.060   6.387 -0.0203 -0.7478  0.0652
  171SAPS   H5R19391   5.791   0.966   6.432  0.0932 -0.2669  1.1908
  171SAPS   C2619392   5.886   1.055   6.267 -0.3310  0.1490  0.3255
  171SAPS   H6R19393   5.883   0.955   6.220 -2.8766 -0.3241  1.3073
  171SAPS   C2719394   5.938   1.172   6.183 -0.0185 -0.4178  0.0164
  171SAPS   H7R19395   6.038   1.139   6.147  0.4954  0.2487  0.8050
  171SAPS   H7S19396   5.953   1.261   6.247 -2.0537 -0.7518  1.0581
  171SAPS   C2819397   5.840   1.197   6.077 -0.1861 -0.2998  0.3076
  171SAPS   H8R19398   5.737   1.186   6.114 -0.3621 -0.4488 -0.2274
  171SAPS   C2919399   5.871   1.226   5.953 -0.4879 -0.2319  0.2692
  171SAPS   H9R19400   5.788   1.231   5.881  0.5545  1.8948 -0.8758
  171SAPS  C21019401   6.003   1.221   5.879 -0.5219  0.9061 -0.3720
  171SAPS  H10R19402   6.083   1.203   5.954 -0.9549  1.6535  0.2839
  171SAPS  H10S19403   6.018   1.317   5.825 -1.1924  0.8894 -0.5947
  171SAPS  C21119404   6.000   1.099   5.784  0.5912 -0.0288 -0.0713
  171SAPS  H11R19405   5.987   0.998   5.827 -1.3879 -0.5719 -1.8399
  171SAPS  C21219406   5.991   1.115   5.648  0.4358 -0.0447  0.2102
  171SAPS  H12R19407   5.997   1.027   5.582  0.3516  1.8164 -2.4555
  171SAPS  C21319408   5.985   1.244   5.572 -0.5358 -0.7564  0.5080
  171SAPS  H13R19409   6.028   1.226   5.471  2.5119  0.2075  1.5173
  171SAPS  H13S19410   6.061   1.314   5.613  1.7060 -0.0744 -4.1576
  171SAPS  C21419411   5.855   1.328   5.579 -0.2831 -0.0321 -0.7332
  171SAPS  H14R19412   5.826   1.365   5.679 -1.0141 -0.9499 -0.5871
  171SAPS  C21519413   5.789   1.364   5.467 -0.3162 -0.0487  1.4693
  171SAPS  H15R19414   5.703   1.430   5.488 -0.0530  0.7716  0.1085
  171SAPS  C21619415   5.812   1.316   5.326  0.6927  0.2015  0.3042
  171SAPS  H16R19416   5.919   1.332   5.300  1.1995 -1.0119  1.5587
  171SAPS  H16S19417   5.744   1.376   5.261  0.0885 -0.4836  0.2979
  171SAPS  C21719418   5.772   1.166   5.297 -1.4292 -0.8568  0.4185
  171SAPS  H17R19419   5.663   1.154   5.314 -1.2192 -1.1840  1.5813
  171SAPS  H17S19420   5.830   1.098   5.362  1.0942  1.0845  0.3355
  171SAPS  C21819421   5.795   1.122   5.150  0.0813 -1.0356 -0.1627
  171SAPS  H18R19422   5.906   1.118   5.143  0.0800 -0.4491 -0.6305
  171SAPS  H18S19423   5.751   1.202   5.086  1.8976 -0.0607 -0.2419
  171SAPS  C21919424   5.724   0.986   5.129  0.3283  0.6904 -0.2230
  171SAPS  H19R19425   5.617   0.989   5.161 -0.1929 -1.9890 -1.4530
  171SAPS  H19S19426   5.780   0.908   5.185  0.1815 -0.4289 -1.6004
  171SAPS  C22019427   5.726   0.929   4.982 -0.3773  0.1579  0.0717
  171SAPS  H20R19428   5.662   0.839   4.970 -0.9100  0.3389  1.3485
  171SAPS  H20S19429   5.831   0.897   4.966 -0.7966 -1.3425  0.1259
  171SAPS  H20T19430   5.701   1.014   4.915  2.4523 -0.0064 -1.3248
  171SAPS   C3319431   6.299   1.094   6.269 -0.0457  0.0561 -0.5465
  171SAPS   H3X19432   6.190   1.083   6.287 -0.0827 -0.4525 -1.0529
  171SAPS   H3Y19433   6.358   1.003   6.295 -1.9112 -0.9298  0.4419
  171SAPS   C3419434   6.319   1.126   6.119  0.8446  0.2709 -0.3660
  171SAPS   H4X19435   6.261   1.210   6.077 -0.0847  0.2438  0.8167
  171SAPS   H4Y19436   6.280   1.030   6.078 -4.8517  1.5512  1.1326
  171SAPS   C3519437   6.466   1.138   6.078 -0.1779 -0.4966  0.2917
  171SAPS   H5X19438   6.517   1.044   6.107  0.5035 -0.0926  0.4459
  171SAPS   H5Y19439   6.509   1.218   6.143 -1.1991 -0.1177  0.5168
  171SAPS   C3619440   6.498   1.176   5.932  0.1799  0.3155 -0.3756
  171SAPS   H6X19441   6.463   1.276   5.900  0.1092  1.0936  1.9593
  171SAPS   H6Y19442   6.439   1.107   5.868 -1.7433  0.0240  1.5823
  171SAPS   C3719443   6.639   1.175   5.910  0.0450  0.4115 -0.3343
  171SAPS   H7X19444   6.671   1.072   5.935  0.2040  1.0073  2.1176
  171SAPS   H7Y19445   6.694   1.234   5.986  0.8944 -1.4336  0.5469
  171SAPS   C3819446   6.685   1.195   5.766  0.2720 -0.0159 -0.7138
  171SAPS   H8X19447   6.668   1.301   5.736 -3.6103 -0.6250 -1.2144
  171SAPS   H8Y19448   6.621   1.132   5.700 -0.7983 -0.2160  0.4689
  171SAPS   C3919449   6.833   1.167   5.744  0.2835  0.4769  0.3620
  171SAPS   H9X19450   6.854   1.062   5.775 -2.3608 -0.3817 -0.4509
  171SAPS   H9Y19451   6.895   1.235   5.806  0.7499  1.3560 -1.0234
  171SAPS  C31019452   6.881   1.173   5.600  0.7547  0.0227  0.3629
  171SAPS  H10X19453   6.840   1.081   5.552  0.9165 -0.3213  0.8794
  171SAPS  H10Y19454   6.988   1.144   5.602  0.8300  0.2034 -0.4299
  171SAPS  C31119455   6.861   1.304   5.521 -0.2423  0.7221 -0.5121
  171SAPS  H11X19456   6.953   1.306   5.458  0.7585 -3.2299  0.5828
  171SAPS  H11Y19457   6.867   1.393   5.587  1.2792 -0.1591  0.6072
  171SAPS  C31219458   6.736   1.305   5.434 -1.0239  0.9937  0.5488
  171SAPS  H12X19459   6.644   1.341   5.486 -1.3705  0.5827  0.2341
  171SAPS  H12Y19460   6.717   1.205   5.388 -0.4875  1.1386  0.0052
  171SAPS  C31319461   6.770   1.404   5.314 -0.1965 -0.0386  0.1654
  171SAPS  H13X19462   6.873   1.384   5.279  0.3060  0.4341  1.2997
  171SAPS  H13Y19463   6.778   1.507   5.355 -1.0798  0.8980 -1.8784
  171SAPS  C31419464   6.679   1.399   5.195  0.9868 -0.6934  0.2386
  171SAPS  H14X19465   6.573   1.427   5.209  0.6024 -1.4565 -1.0338
  171SAPS  H14Y19466   6.680   1.293   5.160  0.3705 -1.3016  1.9411
  171SAPS  C31519467   6.726   1.489   5.076  0.1191  0.0326  0.8301
  171SAPS  H15X19468   6.835   1.485   5.053  0.5919  1.5063  2.5588
  171SAPS  H15Y19469   6.692   1.591   5.104 -1.7204  0.2121 -1.7638
  171SAPS  C31619470   6.655   1.442   4.949  0.0247  0.4947  0.1242
  171SAPS  H16X19471   6.544   1.442   4.944  0.0270 -1.3405 -1.1534
  171SAPS  H16Y19472   6.666   1.332   4.939  0.7304  0.4594  1.1373
  171SAPS  C31719473   6.705   1.497   4.813  0.4950 -0.4335 -1.1839
  171SAPS  H17X19474   6.814   1.483   4.795  0.1877 -1.2030 -2.6105
  171SAPS  H17Y19475   6.689   1.606   4.816 -0.3274 -0.5743  0.4840
  171SAPS  C31819476   6.632   1.451   4.682 -0.1999  0.2336  0.2806
  171SAPS  H18X19477   6.524   1.478   4.694 -0.3491 -0.1879 -0.1380
  171SAPS  H18Y19478   6.655   1.344   4.666  0.4464  0.4939 -0.5764
  171SAPS  H18Z19479   6.669   1.508   4.594 -0.1411  0.7525  0.6352
  172SAPS     N19480   7.029   2.793   7.340  0.3190  0.1068  0.2695
  172SAPS   HN119481   6.931   2.824   7.324  0.7157  2.4114  1.7686
  172SAPS   HN219482   7.084   2.881   7.326  0.0700  0.4141  1.1693
  172SAPS   HN319483   7.070   2.718   7.281  3.9516  1.3398  0.9425
  172SAPS   C1219484   7.048   2.743   7.483 -0.0945 -0.6671 -0.6828
  172SAPS  H12A19485   6.970   2.801   7.531  0.2365  1.4563 -2.5065
  172SAPS   C1319486   7.019   2.592   7.497 -0.9532  0.1227 -1.2193
  172SAPS  O13A19487   6.992   2.519   7.404  0.3259 -0.5359  0.1577
  172SAPS  O13B19488   7.017   2.544   7.616  0.4457  0.1265 -0.2382
  172SAPS   C1119489   7.196   2.788   7.530  0.3499 -0.1553  0.4928
  172SAPS  H11A19490   7.215   2.764   7.636  1.3982 -0.4511  0.2519
  172SAPS  H11B19491   7.193   2.899   7.522 -1.1994 -0.1801  0.3904
  172SAPS     P19492   7.439   2.793   7.432 -0.3564  0.5066  0.0282
  172SAPS   O1319493   7.431   2.931   7.473 -0.1297 -0.1935  0.0428
  172SAPS   O1419494   7.533   2.701   7.508  0.2586 -0.7293  0.5214
  172SAPS   O1219495   7.298   2.733   7.450  0.0748 -0.4938  0.1029
  172SAPS   O1119496   7.456   2.788   7.274 -0.5908  0.6602  0.3263
  172SAPS    C119497   7.560   2.856   7.198  0.7894 -0.8139 -1.5866
  172SAPS    HA19498   7.527   2.954   7.157  0.3400 -1.0235 -1.7280
  172SAPS    HB19499   7.655   2.866   7.255  0.4428 -1.4531 -0.8926
  172SAPS    C219500   7.598   2.786   7.072  0.7802  0.5562  0.1141
  172SAPS    HS19501   7.703   2.813   7.049  1.5529 -2.2418 -0.1131
  172SAPS   O2119502   7.508   2.824   6.959 -0.2513 -0.3520 -0.1500
  172SAPS   C2119503   7.559   2.922   6.884  0.4005  0.6847  0.0220
  172SAPS   O2219504   7.658   2.984   6.914 -0.2090  0.0495  0.4996
  172SAPS   C2219505   7.476   2.946   6.764  0.4969 -0.0673 -0.3441
  172SAPS   H2R19506   7.432   2.851   6.728  2.0783 -1.2777  0.7737
  172SAPS   H2S19507   7.386   3.004   6.793  0.5674  0.7378 -1.6735
  172SAPS    C319508   7.601   2.628   7.085 -0.2043  0.7180 -0.3969
  172SAPS    HX19509   7.498   2.586   7.097 -0.3351  0.8891 -0.8869
  172SAPS    HY19510   7.640   2.612   7.187 -1.3679  2.0166  0.2816
  172SAPS   O3119511   7.680   2.563   6.986 -0.4771  0.2986 -0.1857
  172SAPS   C3119512   7.604   2.516   6.887 -0.7072  0.1732 -0.3171
  172SAPS   O3219513   7.483   2.504   6.893 -0.4373  0.7778  0.1580
  172SAPS   C3219514   7.690   2.474   6.761  0.4428  0.0937 -0.3279
  172SAPS   H2X19515   7.610   2.475   6.684 -2.8879  0.4444  2.8337
  172SAPS   H2Y19516   7.729   2.371   6.779 -1.1763 -0.4091  0.5326
  172SAPS   C2319517   7.556   3.028   6.669  0.0009 -0.2634  0.8125
  172SAPS   H3R19518   7.649   2.972   6.643 -0.7544 -0.9037 -0.6063
  172SAPS   H3S19519   7.580   3.132   6.703 -0.5807  0.6805 -1.4776
  172SAPS   C2419520   7.493   3.023   6.526  0.3789  0.3423  0.0752
  172SAPS   H4R19521   7.386   3.052   6.524 -0.8934 -3.6931  0.8312
  172SAPS   H4S19522   7.498   2.914   6.504  0.3678  0.4372 -0.3958
  172SAPS   C2519523   7.551   3.102   6.421 -0.5246 -0.4044  0.0053
  172SAPS   H5R19524   7.548   3.210   6.443  0.1297 -0.5132  0.6528
  172SAPS   C2619525   7.584   3.057   6.294  0.3448 -0.2270 -0.1944
  172SAPS   H6R19526   7.616   3.120   6.210 -1.1912  1.1902  0.2355
  172SAPS   C2719527   7.574   2.914   6.231  0.1186  0.5917 -0.2641
  172SAPS   H7R19528   7.489   2.906   6.161 -0.9875 -1.7623  1.2152
  172SAPS   H7S19529   7.543   2.843   6.311 -4.2953  1.1358 -1.2819
  172SAPS   C2819530   7.708   2.882   6.167 -0.3084  0.7494  0.1175
  172SAPS   H8R19531   7.774   2.819   6.228  0.6947  2.9728  1.4110
  172SAPS   C2919532   7.738   2.905   6.039  0.0134 -0.1279 -0.0784
  172SAPS   H9R19533   7.832   2.862   6.002 -2.0274 -2.4407 -3.0087
  172SAPS  C21019534   7.667   2.986   5.933  0.8516  0.6330 -0.3126
  172SAPS  H10R19535   7.737   3.031   5.859  0.4758  1.6320 -0.0733
  172SAPS  H10S19536   7.617   3.072   5.983 -0.5007 -0.4532  0.2760
  172SAPS  C21119537   7.571   2.880   5.863 -0.0807 -0.4375 -0.4195
  172SAPS  H11R19538   7.506   2.825   5.932  0.7447  0.6829  1.3387
  172SAPS  C21219539   7.555   2.876   5.730 -0.4071  0.2377 -0.0826
  172SAPS  H12R19540   7.477   2.807   5.694 -1.4085  0.9227  0.7069
  172SAPS  C21319541   7.631   2.954   5.619 -0.5396  0.0846  0.0034
  172SAPS  H13R19542   7.641   2.878   5.538 -1.4162  0.0684 -0.0933
  172SAPS  H13S19543   7.737   2.975   5.645 -1.0234  0.6301  1.6092
  172SAPS  C21419544   7.562   3.081   5.571  0.2973  1.1381  0.2450
  172SAPS  H14R19545   7.454   3.080   5.591 -0.4420 -4.7696 -2.0493
  172SAPS  C21519546   7.613   3.172   5.481 -0.1532  0.2657 -0.2079
  172SAPS  H15R19547   7.550   3.260   5.461  0.9640  0.9289 -0.9230
  172SAPS  C21619548   7.762   3.166   5.442 -0.0944 -0.9961  0.2455
  172SAPS  H16R19549   7.801   3.062   5.437  1.5868 -0.3555 -0.4137
  172SAPS  H16S19550   7.818   3.215   5.525  0.1443  0.1973 -0.5971
  172SAPS  C21719551   7.807   3.244   5.314  0.0921  0.2608 -0.0373
  172SAPS  H17R19552   7.803   3.354   5.326 -0.1603  0.5067 -1.9485
  172SAPS  H17S19553   7.745   3.218   5.225 -0.3855  2.1896 -0.3086
  172SAPS  C21819554   7.946   3.212   5.274  0.1669 -1.4056  0.2583
  172SAPS  H18R19555   7.980   3.111   5.307  1.6282 -0.4145  1.9619
  172SAPS  H18S19556   8.007   3.284   5.332  1.4731  0.2999 -2.9703
  172SAPS  C21919557   7.974   3.232   5.120  0.0657  0.1828  0.7993
  172SAPS  H19R19558   7.950   3.333   5.079 -1.4034 -0.9492 -1.2712
  172SAPS  H19S19559   7.908   3.165   5.062  1.5277 -1.1912  0.6768
  172SAPS  C22019560   8.117   3.191   5.088 -0.1720 -0.9138 -0.2831
  172SAPS  H20R19561   8.117   3.081   5.106 -2.1410 -0.3986  4.1212
  172SAPS  H20S19562   8.170   3.238   5.173 -0.1416  0.2851 -0.9446
  172SAPS  H20T19563   8.156   3.225   4.990  1.5906 -3.3617 -0.5217
  172SAPS   C3319564   7.803   2.567   6.717  0.0361  0.3059  0.6305
  172SAPS   H3X19565   7.895   2.531   6.767  0.6295 -0.7602 -1.1809
  172SAPS   H3Y19566   7.778   2.676   6.726 -0.7316  0.3224 -1.3298
  172SAPS   C3419567   7.837   2.531   6.561 -0.3760 -0.5330 -0.3380
  172SAPS   H4X19568   7.873   2.427   6.547  0.5622  0.0261 -2.3591
  172SAPS   H4Y19569   7.924   2.592   6.529  0.8720 -2.5205 -0.9357
  172SAPS   C3519570   7.725   2.562   6.461  0.7076  0.2591 -0.2693
  172SAPS   H5X19571   7.685   2.666   6.459 -0.9881 -0.2563  2.1466
  172SAPS   H5Y19572   7.640   2.497   6.490  2.1875 -1.4886  0.3073
  172SAPS   C3619573   7.756   2.512   6.318  0.0501 -0.3856  0.4779
  172SAPS   H6X19574   7.788   2.406   6.310 -1.3614 -0.7352 -1.2545
  172SAPS   H6Y19575   7.843   2.566   6.277 -0.3185  0.0072  0.2058
  172SAPS   C3719576   7.632   2.527   6.223 -0.1700 -1.0693  0.4047
  172SAPS   H7X19577   7.588   2.626   6.247  2.4235 -0.1407  1.7189
  172SAPS   H7Y19578   7.549   2.461   6.253 -0.8686  0.0124  0.9113
  172SAPS   C3819579   7.669   2.532   6.078 -0.2789  0.0348  0.2007
  172SAPS   H8X19580   7.745   2.612   6.062  2.5497 -2.7167 -1.2063
  172SAPS   H8Y19581   7.587   2.557   6.008 -0.7638 -2.9416 -0.3997
  172SAPS   C3919582   7.720   2.396   6.033  0.2346 -0.2457  0.5830
  172SAPS   H9X19583   7.678   2.315   6.096 -0.9551 -1.8507 -2.0804
  172SAPS   H9Y19584   7.829   2.404   6.053 -0.0138  3.8887  1.1214
  172SAPS  C31019585   7.706   2.364   5.884  0.1374  0.8198 -0.3787
  172SAPS  H10X19586   7.607   2.326   5.851  0.9900 -1.8238 -0.1043
  172SAPS  H10Y19587   7.770   2.275   5.865 -0.8561 -0.0383  0.2064
  172SAPS  C31119588   7.764   2.471   5.797 -0.4077 -0.3657  0.2078
  172SAPS  H11X19589   7.866   2.503   5.830  0.3053 -0.3850 -1.7993
  172SAPS  H11Y19590   7.699   2.562   5.794  0.3977  0.2024 -0.7539
  172SAPS  C31219591   7.771   2.415   5.649  0.6131  0.2643 -0.1922
  172SAPS  H12X19592   7.672   2.370   5.626  0.4999  0.9461 -1.0643
  172SAPS  H12Y19593   7.832   2.323   5.641 -0.3538 -0.5693  1.3892
  172SAPS  C31319594   7.806   2.517   5.541 -0.0308 -0.3617 -0.5178
  172SAPS  H13X19595   7.900   2.566   5.575  0.1372  2.0808 -3.9898
  172SAPS  H13Y19596   7.728   2.595   5.557 -1.3892 -1.7065 -0.3673
  172SAPS  C31419597   7.812   2.470   5.394 -0.2205  0.8625 -0.5205
  172SAPS  H14X19598   7.720   2.419   5.359 -0.2186  2.1382 -2.5655
  172SAPS  H14Y19599   7.890   2.392   5.381 -2.9566 -1.9995 -1.0492
  172SAPS  C31519600   7.848   2.586   5.296  0.4408  0.2102  0.4901
  172SAPS  H15X19601   7.851   2.535   5.197 -1.3291  0.8179  0.0945
  172SAPS  H15Y19602   7.950   2.628   5.314  0.6551  0.4935 -1.2393
  172SAPS  C31619603   7.745   2.699   5.294 -0.4236  0.7362  0.2736
  172SAPS  H16X19604   7.646   2.652   5.275  0.4491 -0.5808 -1.3369
  172SAPS  H16Y19605   7.753   2.760   5.386  1.7350  0.5092  0.2914
  172SAPS  C31719606   7.752   2.796   5.177  0.6563 -0.5319  0.4431
  172SAPS  H17X19607   7.750   2.737   5.083  0.8063  1.9596 -1.2470
  172SAPS  H17Y19608   7.843   2.860   5.181  0.7672 -0.7132  0.9016
  172SAPS  C31819609   7.630   2.886   5.194 -0.3192 -0.5668 -0.1209
  172SAPS  H18X19610   7.645   2.973   5.127 -1.1547 -0.4247 -0.1410
  172SAPS  H18Y19611   7.616   2.925   5.297  0.5542 -1.2682  0.2723
  172SAPS  H18Z19612   7.540   2.827   5.166 -1.1056  0.3468  0.3755
  173SAPS     N19613   6.964   2.890   3.117  0.7286 -0.1330  0.7519
  173SAPS   HN119614   6.940   2.796   3.079  2.5287 -0.7510  1.0576
  173SAPS   HN219615   7.016   2.873   3.206  2.3720 -3.6240 -0.6948
  173SAPS   HN319616   6.871   2.926   3.149  1.5034 -0.0657  3.1307
  173SAPS   C1219617   7.030   2.997   3.033  0.0483 -0.1180 -0.2701
  173SAPS  H12A19618   7.132   2.994   3.069 -0.5817  2.3998  2.0195
  173SAPS   C1319619   7.032   2.957   2.886 -0.0464  0.2260 -0.4890
  173SAPS  O13A19620   7.001   2.844   2.848 -0.3494  0.3192 -0.4801
  173SAPS  O13B19621   7.072   3.046   2.811 -0.7045 -0.2606  0.5687
  173SAPS   C1119622   6.973   3.148   3.051 -0.0735 -0.9749 -0.2341
  173SAPS  H11A19623   6.867   3.148   3.019  0.2012 -1.0370 -1.1566
  173SAPS  H11B19624   7.023   3.221   2.983 -1.8040 -1.3047 -1.9258
  173SAPS     P19625   7.078   3.287   3.236  0.1192 -0.2655 -0.0294
  173SAPS   O1319626   7.206   3.216   3.248 -0.2273  0.4801 -0.0744
  173SAPS   O1419627   7.073   3.414   3.160  0.3189 -0.2122 -0.0982
  173SAPS   O1219628   6.967   3.196   3.183 -0.0677  0.2828 -0.1270
  173SAPS   O1119629   7.011   3.313   3.375 -0.1474  0.0640  0.5556
  173SAPS    C119630   7.019   3.208   3.470  0.6777 -0.0725 -0.3297
  173SAPS    HA19631   7.085   3.120   3.452 -1.1344 -1.9346  1.4491
  173SAPS    HB19632   7.060   3.253   3.563  0.2371 -0.7850  0.2224
  173SAPS    C219633   6.885   3.130   3.494 -0.0970 -0.1094 -0.0303
  173SAPS    HS19634   6.840   3.105   3.395  0.1821 -0.1174 -0.1577
  173SAPS   O2119635   6.785   3.218   3.548  0.5055 -0.0746  0.1142
  173SAPS   C2119636   6.664   3.179   3.550  0.8638  0.4212  0.9453
  173SAPS   O2219637   6.621   3.077   3.489  0.4346 -0.4402 -0.7626
  173SAPS   C2219638   6.594   3.276   3.649 -0.5613  0.2701 -0.7476
  173SAPS   H2R19639   6.667   3.282   3.732  1.2753 -0.9714 -2.1886
  173SAPS   H2S19640   6.587   3.370   3.591  1.1154  0.8553 -0.0584
  173SAPS    C319641   6.907   2.995   3.573 -0.7343  0.1687 -0.5626
  173SAPS    HX19642   6.944   2.914   3.506 -2.1426 -1.1528  0.1988
  173SAPS    HY19643   6.806   2.960   3.603 -1.9707  3.7310 -0.1177
  173SAPS   O3119644   6.989   3.009   3.693  0.0392 -0.2785 -0.4190
  173SAPS   C3119645   7.118   2.980   3.687  1.0817 -0.1643 -0.5821
  173SAPS   O3219646   7.179   2.933   3.595  0.2927 -0.3777  0.4915
  173SAPS   C3219647   7.176   3.001   3.827 -0.0718  0.2496  0.3251
  173SAPS   H2X19648   7.105   2.963   3.904 -1.6529  2.1662 -0.0824
  173SAPS   H2Y19649   7.162   3.111   3.833 -0.7862  0.2311 -0.7117
  173SAPS   C2319650   6.454   3.231   3.697 -0.4815  0.2948  0.1858
  173SAPS   H3R19651   6.391   3.216   3.606 -1.2520 -2.6614  1.0694
  173SAPS   H3S19652   6.413   3.313   3.759 -1.5417 -0.7347  0.9058
  173SAPS   C2419653   6.459   3.097   3.776  0.0673  0.4749  0.4739
  173SAPS   H4R19654   6.537   3.106   3.855  0.9700 -0.2909 -0.3027
  173SAPS   H4S19655   6.485   3.017   3.704  1.2017  1.8435 -0.7262
  173SAPS   C2519656   6.325   3.070   3.822 -0.0335 -0.1974 -0.0100
  173SAPS   H5R19657   6.245   3.078   3.747 -0.0853  0.1524  0.0801
  173SAPS   C2619658   6.295   3.028   3.942 -0.2247  0.5313 -0.2396
  173SAPS   H6R19659   6.192   3.005   3.970  0.7215 -3.2601  0.5910
  173SAPS   C2719660   6.397   2.990   4.049  0.0326 -0.1516 -0.1490
  173SAPS   H7R19661   6.430   3.086   4.092 -0.9307 -0.6442  1.7885
  173SAPS   H7S19662   6.482   2.943   3.994 -0.0959 -2.0026  1.1515
  173SAPS   C2819663   6.342   2.900   4.156 -0.6397  0.3629  0.1731
  173SAPS   H8R19664   6.303   2.804   4.119  1.6602 -0.4835 -0.2125
  173SAPS   C2919665   6.311   2.925   4.283  0.0497 -0.2982 -0.1484
  173SAPS   H9R19666   6.282   2.838   4.344  3.2550 -2.6261 -1.6237
  173SAPS  C21019667   6.323   3.055   4.352  0.1818 -0.3369 -0.0357
  173SAPS  H10R19668   6.388   3.131   4.303 -0.5267  0.3327  0.0367
  173SAPS  H10S19669   6.364   3.034   4.453 -0.5051  0.2347  0.3705
  173SAPS  C21119670   6.184   3.115   4.372  0.0979 -0.0155 -0.1313
  173SAPS  H11R19671   6.108   3.074   4.304 -0.3445 -0.8288  0.8338
  173SAPS  C21219672   6.143   3.221   4.441 -0.7280  0.2408  0.2557
  173SAPS  H12R19673   6.035   3.243   4.446 -1.1765 -1.9938  2.4592
  173SAPS  C21319674   6.222   3.297   4.541 -0.2380  0.0930 -0.5748
  173SAPS  H13R19675   6.254   3.393   4.497 -0.0049 -0.0445 -0.7093
  173SAPS  H13S19676   6.320   3.256   4.573  0.3183  0.1147 -2.1722
  173SAPS  C21419677   6.156   3.313   4.679 -0.1628  0.3703  0.2719
  173SAPS  H14R19678   6.066   3.256   4.708 -1.3045  2.5704  1.2748
  173SAPS  C21519679   6.180   3.424   4.759 -0.0978  0.2249  0.2634
  173SAPS  H15R19680   6.117   3.438   4.848 -0.5684 -3.0972  0.5549
  173SAPS  C21619681   6.274   3.540   4.735  0.4198 -0.1785  0.0601
  173SAPS  H16R19682   6.226   3.640   4.739 -2.1724 -1.3791  1.6116
  173SAPS  H16S19683   6.313   3.544   4.631 -1.6517  2.1283 -0.7270
  173SAPS  C21719684   6.393   3.514   4.825 -0.0601  0.6880 -0.1269
  173SAPS  H17R19685   6.432   3.414   4.794 -0.7117 -0.3314  2.1634
  173SAPS  H17S19686   6.362   3.500   4.930 -0.2975  2.1595  0.0226
  173SAPS  C21819687   6.504   3.621   4.831 -0.2514 -0.1831  0.2860
  173SAPS  H18R19688   6.542   3.636   4.935  3.7259  3.3575 -1.3642
  173SAPS  H18S19689   6.457   3.721   4.819 -0.8889 -0.4555  0.5094
  173SAPS  C21919690   6.617   3.606   4.734  0.3459  0.1741 -0.3068
  173SAPS  H19R19691   6.573   3.578   4.636 -2.1362 -0.5800  0.9367
  173SAPS  H19S19692   6.687   3.525   4.762  0.8307  0.7837  0.2716
  173SAPS  C22019693   6.696   3.735   4.717  0.6191  0.6173 -0.1379
  173SAPS  H20R19694   6.631   3.825   4.714  3.1057  2.6434  1.5194
  173SAPS  H20S19695   6.758   3.722   4.626  0.3155 -1.5341 -0.0964
  173SAPS  H20T19696   6.771   3.750   4.798 -0.7931  0.2054  1.3033
  173SAPS   C3319697   7.325   2.974   3.838 -0.1616 -0.7326 -0.1062
  173SAPS   H3X19698   7.381   2.996   3.745  0.7006 -1.6594  0.1808
  173SAPS   H3Y19699   7.360   2.870   3.858 -0.1671 -0.7006  0.0698
  173SAPS   C3419700   7.398   3.051   3.952  0.2522 -0.4889 -0.0474
  173SAPS   H4X19701   7.388   3.159   3.929  0.1914 -0.5305 -0.2176
  173SAPS   H4Y19702   7.506   3.025   3.952  0.4758  0.4091 -0.2066
  173SAPS   C3519703   7.350   3.036   4.097 -0.6801  0.0810  0.2489
  173SAPS   H5X19704   7.366   2.931   4.131  2.0532 -0.4475 -2.2086
  173SAPS   H5Y19705   7.241   3.057   4.105 -0.4133  0.9377  2.2018
  173SAPS   C3619706   7.431   3.114   4.204 -0.1853  0.6729  0.3217
  173SAPS   H6X19707   7.426   3.221   4.174 -0.4961  0.7791  0.7298
  173SAPS   H6Y19708   7.538   3.085   4.205 -0.8327 -2.0710  1.8708
  173SAPS   C3719709   7.377   3.085   4.342 -0.9541  0.1350 -0.0537
  173SAPS   H7X19710   7.370   2.975   4.355  2.0492 -0.0032  1.1663
  173SAPS   H7Y19711   7.281   3.139   4.356 -1.3070 -0.9713  2.1006
  173SAPS   C3819712   7.469   3.131   4.461 -0.6245 -0.1724  0.5058
  173SAPS   H8X19713   7.480   3.240   4.444 -1.3698 -0.1242  0.2895
  173SAPS   H8Y19714   7.568   3.082   4.448 -0.4601 -0.7563  3.3189
  173SAPS   C3919715   7.409   3.094   4.603  0.0613 -0.5900  0.5538
  173SAPS   H9X19716   7.469   3.156   4.673 -0.7049  3.5564 -2.1195
  173SAPS   H9Y19717   7.417   2.987   4.631 -2.2639 -1.0914 -0.5083
  173SAPS  C31019718   7.263   3.125   4.613 -0.4358  0.1797 -0.3353
  173SAPS  H10X19719   7.214   3.045   4.553  1.8382 -1.6684  0.1142
  173SAPS  H10Y19720   7.237   3.224   4.569 -3.0812 -0.0099  0.5903
  173SAPS  C31119721   7.208   3.141   4.751  0.2044  0.4868 -0.5673
  173SAPS  H11X19722   7.268   3.224   4.794 -1.4004  0.6761  1.4234
  173SAPS  H11Y19723   7.231   3.055   4.817 -0.1584  1.0002  0.2495
  173SAPS  C31219724   7.069   3.174   4.762 -0.3568  0.0747  0.1875
  173SAPS  H12X19725   6.996   3.096   4.731 -1.0710  0.9544 -0.3987
  173SAPS  H12Y19726   7.048   3.259   4.694  0.5521  0.8957  0.9220
  173SAPS  C31319727   7.029   3.216   4.906 -0.3813  0.0869  0.6772
  173SAPS  H13X19728   7.104   3.288   4.945  2.0392  0.4165 -3.9040
  173SAPS  H13Y19729   7.017   3.130   4.975  2.7040 -1.0742 -0.0790
  173SAPS  C31419730   6.893   3.281   4.915  0.1199  0.5347 -0.3890
  173SAPS  H14X19731   6.805   3.217   4.893 -1.0492  2.0705 -0.3106
  173SAPS  H14Y19732   6.887   3.371   4.851 -2.1301  0.2817 -0.6259
  173SAPS  C31519733   6.858   3.308   5.058 -0.0869  0.3118 -0.0225
  173SAPS  H15X19734   6.935   3.364   5.116  1.5737 -0.2319 -1.6317
  173SAPS  H15Y19735   6.848   3.211   5.112 -3.9245  1.5824  1.9782
  173SAPS  C31619736   6.724   3.377   5.074  0.2724 -0.1321  1.0835
  173SAPS  H16X19737   6.642   3.332   5.013 -0.1404 -1.4196  2.5155
  173SAPS  H16Y19738   6.754   3.481   5.050  2.6733 -0.8909  0.5749
  173SAPS  C31719739   6.676   3.374   5.217 -0.9991 -0.0922  0.8981
  173SAPS  H17X19740   6.636   3.272   5.235 -1.9923  0.0850 -0.1428
  173SAPS  H17Y19741   6.589   3.440   5.241  0.6575  2.6179 -0.1359
  173SAPS  C31819742   6.784   3.415   5.319  0.0304  0.7295  0.0671
  173SAPS  H18X19743   6.748   3.399   5.422 -0.5427 -2.5846 -0.5261
  173SAPS  H18Y19744   6.803   3.523   5.304 -0.0398  0.8677  0.9327
  173SAPS  H18Z19745   6.877   3.354   5.323  0.2197  1.0277  0.2473
  174SAPS     N19746   2.468   3.445   2.657  0.1489 -0.2401  0.0165
  174SAPS   HN119747   2.485   3.539   2.698  0.3600  0.1136 -0.8615
  174SAPS   HN219748   2.497   3.460   2.558 -0.4560  1.8360  0.1125
  174SAPS   HN319749   2.365   3.427   2.654  0.0972  0.1413 -1.3854
  174SAPS   C1219750   2.532   3.330   2.728  0.8887 -0.2966 -0.3028
  174SAPS  H12A19751   2.523   3.250   2.655  2.2097 -0.6836 -0.0706
  174SAPS   C1319752   2.685   3.354   2.745 -0.1491 -0.3163  0.5991
  174SAPS  O13A19753   2.736   3.472   2.722  0.4941  0.3238  0.0391
  174SAPS  O13B19754   2.764   3.270   2.799  0.2022 -0.2637  0.0258
  174SAPS   C1119755   2.451   3.289   2.856 -1.5092 -0.4336 -0.1528
  174SAPS  H11A19756   2.454   3.363   2.940  1.2932 -1.4454  0.7757
  174SAPS  H11B19757   2.497   3.198   2.900 -1.9280  0.1132  1.5289
  174SAPS     P19758   2.190   3.321   2.835  0.6113  0.1386 -0.2162
  174SAPS   O1319759   2.206   3.430   2.736 -0.2051  0.0617 -0.7175
  174SAPS   O1419760   2.077   3.231   2.817  0.2442 -0.1826  0.0765
  174SAPS   O1219761   2.321   3.238   2.827 -0.0435  0.1377  0.1617
  174SAPS   O1119762   2.191   3.371   2.986 -0.4513  0.1085 -0.4001
  174SAPS    C119763   2.235   3.284   3.093 -0.2659  0.5632  0.4550
  174SAPS    HA19764   2.227   3.176   3.070 -3.4541  0.8023  0.0422
  174SAPS    HB19765   2.341   3.299   3.121  0.3349 -0.8029 -0.9092
  174SAPS    C219766   2.151   3.290   3.225  0.1261 -0.3921  0.3108
  174SAPS    HS19767   2.058   3.232   3.205  0.0461 -0.3051  0.4324
  174SAPS   O2119768   2.132   3.427   3.253  0.2054  0.0045  0.1533
  174SAPS   C2119769   2.006   3.462   3.293 -0.2197  0.0160 -0.3935
  174SAPS   O2219770   1.914   3.383   3.309 -0.1894 -0.0678 -0.1679
  174SAPS   C2219771   2.000   3.608   3.325 -0.0464  0.7882  0.4486
  174SAPS   H2R19772   2.099   3.653   3.305  0.0735  0.3374 -0.0003
  174SAPS   H2S19773   1.923   3.651   3.258 -0.5844 -1.1828 -0.2917
  174SAPS    C319774   2.220   3.217   3.345 -0.9232 -0.5163 -0.3480
  174SAPS    HX19775   2.321   3.264   3.350 -1.8469  1.4855  1.5326
  174SAPS    HY19776   2.230   3.111   3.315 -0.4250 -0.0834 -1.7773
  174SAPS   O3119777   2.168   3.242   3.479  0.2943 -0.0866  0.2984
  174SAPS   C3119778   2.057   3.171   3.509 -0.0941 -0.3771 -0.8280
  174SAPS   O3219779   2.002   3.088   3.436  0.0828  0.4038 -0.6682
  174SAPS   C3219780   1.995   3.229   3.630 -0.0029 -0.0337  0.0796
  174SAPS   H2X19781   1.884   3.230   3.624 -0.1961 -3.9451  0.1716
  174SAPS   H2Y19782   2.027   3.333   3.651 -2.9669  0.8392  0.7121
  174SAPS   C2319783   1.952   3.623   3.473  0.3817 -0.6424  0.4409
  174SAPS   H3R19784   2.021   3.576   3.546  1.2626  0.5578  0.4168
  174SAPS   H3S19785   1.854   3.572   3.483  1.4108 -3.0479 -1.0632
  174SAPS   C2419786   1.936   3.774   3.499 -0.2400 -0.2091 -0.1716
  174SAPS   H4R19787   1.881   3.794   3.593  0.1202  0.5309 -0.1135
  174SAPS   H4S19788   1.877   3.823   3.418  1.5542  0.2921 -1.2397
  174SAPS   C2519789   2.076   3.831   3.503 -0.6745  0.8973 -0.1543
  174SAPS   H5R19790   2.112   3.868   3.406  0.5601  3.4353  1.1617
  174SAPS   C2619791   2.151   3.849   3.615  0.4360  0.2510 -0.4143
  174SAPS   H6R19792   2.256   3.880   3.604  0.3476  0.0081 -2.2454
  174SAPS   C2719793   2.120   3.808   3.755 -0.5095  0.2394  0.4077
  174SAPS   H7R19794   2.162   3.706   3.766  0.6995  0.4912 -1.4003
  174SAPS   H7S19795   2.010   3.795   3.756 -0.3847 -1.0264 -0.5257
  174SAPS   C2819796   2.168   3.921   3.854  0.5471  0.8230  0.4523
  174SAPS   H8R19797   2.150   4.023   3.815 -0.3491 -0.6737 -3.4684
  174SAPS   C2919798   2.235   3.895   3.969  0.3661  0.4881  0.0860
  174SAPS   H9R19799   2.246   3.979   4.039 -1.9109  3.8690 -3.2463
  174SAPS  C21019800   2.282   3.769   4.023  0.3613 -0.1065 -0.0541
  174SAPS  H10R19801   2.392   3.774   4.036  0.5084 -0.3345 -1.0985
  174SAPS  H10S19802   2.277   3.694   3.940 -2.0329  0.5058 -0.5551
  174SAPS  C21119803   2.204   3.719   4.143 -0.4143  0.3294 -0.8774
  174SAPS  H11R19804   2.120   3.650   4.127  0.2384 -0.6633 -0.1632
  174SAPS  C21219805   2.252   3.728   4.272  0.1378  0.1600 -0.3420
  174SAPS  H12R19806   2.192   3.674   4.347  0.3066  1.1033  0.4826
  174SAPS  C21319807   2.381   3.790   4.314 -0.1272  0.6393  0.5641
  174SAPS  H13R19808   2.361   3.858   4.399 -0.1533  0.4403  0.7184
  174SAPS  H13S19809   2.419   3.859   4.236  0.8925  1.1290  1.4636
  174SAPS  C21419810   2.482   3.689   4.354 -0.1891 -0.0044  0.0497
  174SAPS  H14R19811   2.442   3.588   4.369 -1.7007  0.8613  2.2240
  174SAPS  C21519812   2.613   3.715   4.403  0.6721  0.9675 -0.3174
  174SAPS  H15R19813   2.670   3.627   4.437 -1.5510 -0.1585  0.7228
  174SAPS  C21619814   2.688   3.844   4.412 -0.2583 -0.0423  0.4187
  174SAPS  H16R19815   2.659   3.895   4.506 -1.2347 -0.3147  0.2739
  174SAPS  H16S19816   2.672   3.905   4.321  0.8609 -0.6267 -0.1851
  174SAPS  C21719817   2.842   3.828   4.414 -0.5471 -0.1358 -0.2474
  174SAPS  H17R19818   2.892   3.926   4.393  0.3222 -0.3733  0.6079
  174SAPS  H17S19819   2.864   3.754   4.335  0.3218 -1.1219  0.8755
  174SAPS  C21819820   2.902   3.772   4.544  0.3164 -1.1397  0.4031
  174SAPS  H18R19821   2.870   3.667   4.561 -0.5247 -0.8664  0.5378
  174SAPS  H18S19822   2.868   3.833   4.631  4.3428 -0.0248  1.4019
  174SAPS  C21919823   3.053   3.766   4.543 -0.0080  0.1674  0.0825
  174SAPS  H19R19824   3.095   3.868   4.538 -2.0569  1.0396 -0.1523
  174SAPS  H19S19825   3.092   3.702   4.461  0.9341 -0.9849  1.3746
  174SAPS  C22019826   3.111   3.710   4.674 -0.7234  0.1649 -0.2175
  174SAPS  H20R19827   3.220   3.694   4.685 -1.1944 -2.3930  1.7297
  174SAPS  H20S19828   3.066   3.610   4.694 -0.3372 -0.0574 -0.4365
  174SAPS  H20T19829   3.086   3.776   4.759 -0.2604  0.3680 -0.2350
  174SAPS   C3319830   2.035   3.143   3.750  0.2132 -0.6364  0.2620
  174SAPS   H3X19831   2.144   3.119   3.754  0.4046  0.2532  0.9119
  174SAPS   H3Y19832   1.965   3.058   3.756  0.1571 -0.6490 -0.4043
  174SAPS   C3419833   2.005   3.225   3.877 -0.4059  0.4890  0.5735
  174SAPS   H4X19834   1.900   3.260   3.879 -0.9167 -0.9988  1.2010
  174SAPS   H4Y19835   2.073   3.313   3.868 -0.6365  0.6825  0.7003
  174SAPS   C3519836   2.036   3.155   4.011 -0.5657  0.2917 -0.0665
  174SAPS   H5X19837   2.139   3.116   3.996 -1.0741 -0.6714 -1.2359
  174SAPS   H5Y19838   1.958   3.077   4.025  0.5493 -0.9948 -0.8164
  174SAPS   C3619839   2.017   3.256   4.130 -0.2075  0.3707  0.0135
  174SAPS   H6X19840   1.922   3.310   4.114 -1.9242 -2.5020 -0.1961
  174SAPS   H6Y19841   2.099   3.331   4.122  0.0363  0.2573  1.1874
  174SAPS   C3719842   2.033   3.194   4.269 -0.6840 -0.2916 -0.7427
  174SAPS   H7X19843   2.020   3.282   4.336 -0.6711 -0.2267 -0.8259
  174SAPS   H7Y19844   2.131   3.146   4.291 -0.3362  0.7603  0.1064
  174SAPS   C3819845   1.918   3.103   4.323  0.3641 -0.7534 -0.0439
  174SAPS   H8X19846   1.905   3.015   4.256 -3.9990 -0.8982  0.7545
  174SAPS   H8Y19847   1.820   3.152   4.305  1.8700  1.7785 -2.1161
  174SAPS   C3919848   1.943   3.064   4.475  0.1513 -0.2531  0.3522
  174SAPS   H9X19849   1.949   3.163   4.523 -0.3913 -0.1112  0.1445
  174SAPS   H9Y19850   2.042   3.016   4.486  1.0023  1.1139 -1.0233
  174SAPS  C31019851   1.831   2.975   4.531 -1.0848 -0.3075  0.6737
  174SAPS  H10X19852   1.866   2.932   4.628 -0.5362  1.1737  1.1559
  174SAPS  H10Y19853   1.806   2.892   4.462 -1.4872  0.0605  0.3710
  174SAPS  C31119854   1.690   3.046   4.543 -0.0655 -0.6939 -0.7392
  174SAPS  H11X19855   1.656   3.096   4.449 -1.0298  2.0812  0.9670
  174SAPS  H11Y19856   1.713   3.134   4.608  3.4687 -0.9846 -1.3814
  174SAPS  C31219857   1.573   2.958   4.602 -0.2368  0.4130 -0.4793
  174SAPS  H12X19858   1.578   2.868   4.536  0.8692  0.1248 -0.0209
  174SAPS  H12Y19859   1.472   2.996   4.575 -0.5376 -0.3091 -0.3851
  174SAPS  C31319860   1.596   2.896   4.738 -0.3987  0.8248 -0.1467
  174SAPS  H13X19861   1.610   2.971   4.819 -0.4640  0.9280 -0.2302
  174SAPS  H13Y19862   1.699   2.856   4.745 -1.0547 -0.8071  0.4653
  174SAPS  C31419863   1.492   2.792   4.779  0.0123  0.2111 -0.6084
  174SAPS  H14X19864   1.506   2.698   4.721 -1.4423 -0.3650 -0.0943
  174SAPS  H14Y19865   1.390   2.836   4.767 -1.1693 -2.6121 -2.0362
  174SAPS  C31519866   1.509   2.742   4.925  0.4938  0.4888 -0.8355
  174SAPS  H15X19867   1.442   2.658   4.953  0.5758  1.2618  2.0100
  174SAPS  H15Y19868   1.467   2.825   4.986 -0.3763 -0.6631  0.1849
  174SAPS  C31619869   1.658   2.727   4.969  0.7526  0.3967  0.3678
  174SAPS  H16X19870   1.662   2.684   5.071  1.2157 -0.5775 -0.0445
  174SAPS  H16Y19871   1.707   2.826   4.960  0.8009  0.3344 -0.1300
  174SAPS  C31719872   1.729   2.625   4.887  0.0557  0.0425  0.3594
  174SAPS  H17X19873   1.714   2.646   4.779  0.7684 -0.0332  0.2356
  174SAPS  H17Y19874   1.698   2.521   4.909  0.4802 -0.1486  0.0691
  174SAPS  C31819875   1.880   2.633   4.917 -0.4691  0.1210  0.2410
  174SAPS  H18X19876   1.935   2.596   4.828 -0.9716 -0.8267  0.3030
  174SAPS  H18Y19877   1.913   2.578   5.008 -0.1521  0.5802  0.4055
  174SAPS  H18Z19878   1.930   2.732   4.926 -2.2162  1.0688  0.0407
  175SAPS     N19879   1.512   2.524   2.742  0.2805 -0.1001  0.0121
  175SAPS   HN119880   1.558   2.493   2.829  1.7774 -0.9219 -1.0429
  175SAPS   HN219881   1.522   2.627   2.726 -0.1201 -0.0323  0.1687
  175SAPS   HN319882   1.411   2.508   2.763  0.5595  0.2244  1.7732
  175SAPS   C1219883   1.558   2.439   2.635 -0.7641 -0.8479 -0.5456
  175SAPS  H12A19884   1.493   2.465   2.553 -1.3280 -1.5180 -0.3120
  175SAPS   C1319885   1.701   2.485   2.598  0.7496 -0.1514  0.9305
  175SAPS  O13A19886   1.747   2.599   2.629  0.0822 -0.2340 -0.1247
  175SAPS  O13B19887   1.748   2.423   2.497  0.3606  0.5146  0.2928
  175SAPS   C1119888   1.560   2.296   2.692 -0.1281 -0.7713 -0.0936
  175SAPS  H11A19889   1.627   2.290   2.781  0.8238 -0.4603 -0.7791
  175SAPS  H11B19890   1.601   2.235   2.610  2.6563  2.1624 -1.1016
  175SAPS     P19891   1.377   2.119   2.723 -0.0464  0.2567 -0.3641
  175SAPS   O1319892   1.281   2.099   2.616 -0.0092  0.0306 -0.3678
  175SAPS   O1419893   1.497   2.029   2.727  0.0501  0.0643 -0.4478
  175SAPS   O1219894   1.426   2.264   2.728  0.3379  0.5646  0.0530
  175SAPS   O1119895   1.324   2.102   2.865  0.0499  0.7120 -0.4041
  175SAPS    C119896   1.250   2.205   2.923  0.2771 -0.6167 -0.8805
  175SAPS    HA19897   1.228   2.292   2.857 -0.2234 -1.2006 -1.5075
  175SAPS    HB19898   1.157   2.162   2.967  0.3140 -1.3849 -1.5197
  175SAPS    C219899   1.324   2.270   3.051  0.4244 -0.0296 -0.3830
  175SAPS    HS19900   1.415   2.317   3.008 -0.7228  0.6144 -2.2687
  175SAPS   O2119901   1.358   2.157   3.146  0.4563  0.0249 -0.7570
  175SAPS   C2119902   1.465   2.178   3.216  0.2361  0.9779  0.3358
  175SAPS   O2219903   1.545   2.267   3.206  0.1101  0.0393  0.1689
  175SAPS   C2219904   1.476   2.090   3.338 -0.3457  0.5939  0.3732
  175SAPS   H2R19905   1.385   2.096   3.402 -0.3614  0.2643  0.3852
  175SAPS   H2S19906   1.482   1.982   3.313  0.2882  0.9400 -1.0252
  175SAPS    C319907   1.232   2.380   3.114  0.1138 -0.4405  0.0042
  175SAPS    HX19908   1.126   2.348   3.121  0.1639 -1.2800 -2.1430
  175SAPS    HY19909   1.240   2.467   3.045 -1.1092  0.1191  0.5421
  175SAPS   O3119910   1.271   2.424   3.244  0.0195  0.0575 -0.2273
  175SAPS   C3119911   1.346   2.533   3.263 -0.2086  0.0858  0.0959
  175SAPS   O3219912   1.387   2.610   3.176 -0.4450 -0.1831  0.0141
  175SAPS   C3219913   1.385   2.543   3.410  0.3985 -0.1321 -1.2528
  175SAPS   H2X19914   1.483   2.491   3.414 -0.1523 -1.4471 -3.2429
  175SAPS   H2Y19915   1.316   2.482   3.473 -0.2269 -0.4195 -2.1979
  175SAPS   C2319916   1.591   2.130   3.431 -0.2085 -0.5900  0.8086
  175SAPS   H3R19917   1.692   2.146   3.386 -0.1995 -0.6315  0.8138
  175SAPS   H3S19918   1.607   2.036   3.489 -0.7113 -1.8232 -0.9605
  175SAPS   C2419919   1.556   2.232   3.539  0.2828  0.1400  0.2471
  175SAPS   H4R19920   1.467   2.199   3.597  2.2022  1.0011  4.0732
  175SAPS   H4S19921   1.522   2.324   3.487 -0.7849 -0.2807  0.1694
  175SAPS   C2519922   1.664   2.260   3.643 -0.7709  0.2103  0.3122
  175SAPS   H5R19923   1.765   2.249   3.600 -1.8539  0.0134 -2.3845
  175SAPS   C2619924   1.648   2.299   3.774 -0.1618 -0.0245  0.2073
  175SAPS   H6R19925   1.742   2.329   3.822 -0.1250 -0.2573  0.2795
  175SAPS   C2719926   1.522   2.329   3.844 -0.6710  0.4923 -0.2877
  175SAPS   H7R19927   1.446   2.253   3.815 -2.0549  1.3072  1.0384
  175SAPS   H7S19928   1.469   2.420   3.808 -0.2342  1.1033  0.6016
  175SAPS   C2819929   1.517   2.343   3.995  0.1646  0.2375 -0.1853
  175SAPS   H8R19930   1.568   2.270   4.059 -0.6359 -0.3136 -0.1550
  175SAPS   C2919931   1.468   2.441   4.068  0.0127 -0.6873 -0.2145
  175SAPS   H9R19932   1.443   2.425   4.174 -2.7612 -0.5990 -0.7779
  175SAPS  C21019933   1.399   2.571   4.017 -0.0887 -0.0535 -0.4990
  175SAPS  H10R19934   1.438   2.593   3.916 -0.2278 -0.2241 -0.5916
  175SAPS  H10S19935   1.444   2.650   4.081 -0.2270 -0.3301 -0.0561
  175SAPS  C21119936   1.249   2.567   4.030 -0.2480  0.3229  0.2346
  175SAPS  H11R19937   1.211   2.478   3.979  0.4921 -0.4497  0.9812
  175SAPS  C21219938   1.174   2.655   4.093  0.1029 -0.0019  0.4652
  175SAPS  H12R19939   1.067   2.629   4.092 -0.1149  0.7899 -1.6380
  175SAPS  C21319940   1.213   2.781   4.172 -0.4431  0.0601  0.0760
  175SAPS  H13R19941   1.322   2.794   4.152 -0.1507 -2.0557  0.0440
  175SAPS  H13S19942   1.228   2.753   4.279 -0.8460 -1.2410 -0.1985
  175SAPS  C21419943   1.146   2.916   4.167  0.8351  0.4941 -0.3981
  175SAPS  H14R19944   1.107   2.936   4.066 -1.6093  1.2234  0.6118
  175SAPS  C21519945   1.103   2.997   4.273  0.0085  0.8465  0.6305
  175SAPS  H15R19946   1.037   3.082   4.248 -0.0323  1.8670  3.8273
  175SAPS  C21619947   1.134   2.984   4.418  0.3468 -0.8477 -0.4175
  175SAPS  H16R19948   1.129   3.084   4.466  1.9467 -1.2915  0.7643
  175SAPS  H16S19949   1.243   2.959   4.420  0.7850  0.7322 -1.8932
  175SAPS  C21719950   1.049   2.891   4.505  0.8510  0.3070  0.5021
  175SAPS  H17R19951   1.048   2.792   4.454 -0.4380  0.0316  1.0445
  175SAPS  H17S19952   0.941   2.915   4.512  0.3465 -0.8322 -2.0260
  175SAPS  C21819953   1.102   2.856   4.637 -0.6545  0.3624 -0.0250
  175SAPS  H18R19954   1.113   2.943   4.705 -0.9845  0.2772  0.1373
  175SAPS  H18S19955   1.204   2.816   4.615 -0.0166  1.0556  1.4884
  175SAPS  C21919956   1.031   2.749   4.728  0.7291 -0.3673  0.0620
  175SAPS  H19R19957   1.101   2.703   4.800  0.3298  1.0892  1.4418
  175SAPS  H19S19958   1.001   2.664   4.662  0.9695  1.1653 -2.1273
  175SAPS  C22019959   0.916   2.811   4.811  0.0829 -0.1988  0.5134
  175SAPS  H20R19960   0.952   2.885   4.886 -2.2733 -0.6984  2.2293
  175SAPS  H20S19961   0.866   2.731   4.869 -1.2661  0.3653  0.1635
  175SAPS  H20T19962   0.853   2.868   4.740  0.1809  1.3266  1.6155
  175SAPS   C3319963   1.400   2.685   3.455 -0.0328 -0.6755 -0.1010
  175SAPS   H3X19964   1.309   2.738   3.418 -0.1046 -1.6471 -1.4018
  175SAPS   H3Y19965   1.492   2.726   3.408  3.4905 -1.7596  5.0889
  175SAPS   C3419966   1.413   2.714   3.610 -0.5199  0.3911 -0.1966
  175SAPS   H4X19967   1.507   2.660   3.632 -2.6724 -2.9925  1.5357
  175SAPS   H4Y19968   1.331   2.669   3.669 -0.2275  1.1280  0.8074
  175SAPS   C3519969   1.448   2.857   3.646 -0.5383  0.6636  0.3444
  175SAPS   H5X19970   1.378   2.940   3.622  1.3513  1.1620 -4.8238
  175SAPS   H5Y19971   1.540   2.881   3.588  0.8410 -2.0491  1.2443
  175SAPS   C3619972   1.491   2.864   3.793 -0.2558  0.4237  0.7807
  175SAPS   H6X19973   1.561   2.781   3.818 -0.8335 -0.3479 -0.0925
  175SAPS   H6Y19974   1.407   2.835   3.859 -0.5737  2.0217  1.0966
  175SAPS   C3719975   1.546   3.004   3.838 -0.1300  0.2026 -0.0730
  175SAPS   H7X19976   1.487   3.084   3.789 -0.7553  0.7198  1.4788
  175SAPS   H7Y19977   1.647   3.019   3.795 -0.4723  1.5661 -0.4598
  175SAPS   C3819978   1.537   3.016   3.987 -0.7728  0.4248  0.0833
  175SAPS   H8X19979   1.597   2.935   4.034  0.0807  1.7243  1.2924
  175SAPS   H8Y19980   1.429   3.007   4.014 -0.9206 -1.1102 -0.8833
  175SAPS   C3919981   1.595   3.152   4.039  0.1599 -0.2566  0.8932
  175SAPS   H9X19982   1.552   3.226   3.968  1.8634  0.5920  0.6824
  175SAPS   H9Y19983   1.703   3.169   4.017 -0.4711  2.0138 -0.8533
  175SAPS  C31019984   1.557   3.164   4.181 -0.4526 -0.2302  0.2788
  175SAPS  H10X19985   1.610   3.250   4.227 -0.5523  0.5520 -1.0201
  175SAPS  H10Y19986   1.573   3.073   4.243  0.9324  0.7314  1.3961
  175SAPS  C31119987   1.408   3.210   4.196  0.3246  0.0423 -0.3873
  175SAPS  H11X19988   1.366   3.195   4.298 -1.8465 -1.1819 -1.3807
  175SAPS  H11Y19989   1.348   3.162   4.116 -3.0926 -1.4431  2.7415
  175SAPS  C31219990   1.405   3.365   4.181  0.3815  0.4339 -0.1139
  175SAPS  H12X19991   1.416   3.384   4.072 -2.3545 -1.7418 -0.8712
  175SAPS  H12Y19992   1.493   3.412   4.230  1.9004 -2.4903  0.2325
  175SAPS  C31319993   1.273   3.430   4.233 -0.1907 -0.4252 -0.4779
  175SAPS  H13X19994   1.189   3.397   4.169  0.5618 -0.8651 -1.2620
  175SAPS  H13Y19995   1.291   3.538   4.214 -2.1110 -0.0416 -0.2896
  175SAPS  C31419996   1.241   3.394   4.380 -1.0224  0.1502  0.0003
  175SAPS  H14X19997   1.203   3.290   4.379  1.8428 -1.0257  0.9868
  175SAPS  H14Y19998   1.152   3.453   4.409 -0.7558 -0.2100  1.6162
  175SAPS  C31519999   1.356   3.398   4.482 -0.7124  0.9117 -0.4940
  175SAPS  H15X20000   1.398   3.499   4.460 -0.6581  0.8789 -0.5432
  175SAPS  H15Y20001   1.439   3.330   4.451 -0.3545  1.4272 -0.6871
  175SAPS  C31620002   1.308   3.373   4.614 -0.4488 -0.0927  0.3401
  175SAPS  H16X20003   1.203   3.337   4.610 -0.9358  1.3050  0.0105
  175SAPS  H16Y20004   1.308   3.457   4.687  1.3675  0.9491 -0.7983
  175SAPS  C31720005   1.387   3.248   4.674 -0.0590  0.0744 -0.0558
  175SAPS  H17X20006   1.495   3.271   4.682 -0.2109  0.3306  2.0522
  175SAPS  H17Y20007   1.362   3.155   4.618 -0.7760 -0.1097  0.5332
  175SAPS  C31820008   1.328   3.207   4.817 -0.1582 -0.6900  0.6990
  175SAPS  H18X20009   1.220   3.181   4.817  0.6455 -4.5008  1.2073
  175SAPS  H18Y20010   1.358   3.289   4.886 -0.9561  0.3439 -0.1477
  175SAPS  H18Z20011   1.380   3.116   4.854  2.8046  1.0584  1.2051
  176SAPS     N20012   4.188   1.307   2.612  0.3632 -0.5443  0.3095
  176SAPS   HN120013   4.272   1.366   2.596 -0.7559  1.1461  0.3800
  176SAPS   HN220014   4.114   1.372   2.647 -1.3449 -1.2181 -1.8369
  176SAPS   HN320015   4.212   1.242   2.689  1.6976  0.5204  0.8382
  176SAPS   C1220016   4.130   1.235   2.492 -0.8687 -0.1831  0.4440
  176SAPS  H12A20017   4.070   1.308   2.440 -0.4465  1.0983  1.6835
  176SAPS   C1320018   4.240   1.176   2.400  0.2085  0.3385  0.0676
  176SAPS  O13A20019   4.355   1.158   2.444 -0.6711 -0.3074 -0.5489
  176SAPS  O13B20020   4.216   1.161   2.276 -0.3997  0.1788  0.4492
  176SAPS   C1120021   4.041   1.118   2.540  0.3703 -0.4241 -0.4303
  176SAPS  H11A20022   4.104   1.071   2.619  1.0553  0.6304 -0.3262
  176SAPS  H11B20023   4.027   1.043   2.460 -0.4865 -0.7373 -0.0027
  176SAPS     P20024   3.851   1.083   2.707  0.1521  0.1008  0.1369
  176SAPS   O1320025   3.878   1.147   2.837 -0.2034  0.1655 -0.5839
  176SAPS   O1420026   3.709   1.066   2.665 -0.4370 -0.0706 -0.0782
  176SAPS   O1220027   3.921   1.168   2.600 -0.6421 -0.4760 -0.6755
  176SAPS   O1120028   3.912   0.933   2.711  0.0072 -0.3316 -0.4563
  176SAPS    C120029   3.845   0.828   2.783  0.0355  0.2363 -0.0778
  176SAPS    HA20030   3.751   0.854   2.837  0.8859 -1.6918  2.6083
  176SAPS    HB20031   3.832   0.737   2.721 -0.3125  1.0746 -1.2767
  176SAPS    C220032   3.931   0.775   2.909  0.2955  0.3341  0.4770
  176SAPS    HS20033   3.865   0.704   2.964 -0.5582  1.0760  0.4474
  176SAPS   O2120034   3.969   0.875   2.999 -0.5326 -0.1189  0.1017
  176SAPS   C2120035   3.872   0.932   3.067  0.5247  0.1141  0.6738
  176SAPS   O2220036   3.757   0.893   3.068 -0.1104 -0.1546 -0.0779
  176SAPS   C2220037   3.937   1.046   3.151  0.7104  0.0992 -0.3853
  176SAPS   H2R20038   4.022   1.009   3.212  1.6625 -0.2425 -1.8665
  176SAPS   H2S20039   3.971   1.117   3.073 -3.2807  0.6135 -1.9036
  176SAPS    C320040   4.059   0.707   2.864 -0.1143  0.0968  0.4163
  176SAPS    HX20041   4.103   0.779   2.791 -1.0466  0.3708  0.1115
  176SAPS    HY20042   4.031   0.623   2.797 -1.7879  1.0754 -0.1658
  176SAPS   O3120043   4.147   0.673   2.979  0.3507 -0.0756 -0.2489
  176SAPS   C3120044   4.106   0.568   3.044  0.0933 -0.1245  0.2931
  176SAPS   O3220045   4.020   0.486   3.008 -0.7098  0.5774  0.8685
  176SAPS   C3220046   4.186   0.552   3.173  0.1985 -0.1102  0.2514
  176SAPS   H2X20047   4.275   0.612   3.144  0.6460 -1.6411 -1.7862
  176SAPS   H2Y20048   4.209   0.443   3.183  0.4804 -0.1820 -1.0530
  176SAPS   C2320049   3.834   1.112   3.253 -0.1699 -0.3468 -0.0077
  176SAPS   H3R20050   3.737   1.139   3.206 -0.4853  1.3748  1.5182
  176SAPS   H3S20051   3.873   1.212   3.280 -1.7549  0.2962  0.0017
  176SAPS   C2420052   3.825   1.030   3.386  0.1958 -0.5234  0.7313
  176SAPS   H4R20053   3.887   1.082   3.462  1.6076 -0.7930 -0.2063
  176SAPS   H4S20054   3.874   0.932   3.370  0.1612 -0.6031  1.1036
  176SAPS   C2520055   3.681   1.021   3.425  0.2699 -0.6670 -0.8644
  176SAPS   H5R20056   3.617   0.951   3.369 -2.2388 -0.5784  1.6457
  176SAPS   C2620057   3.629   1.045   3.547 -0.1844  0.1647  0.1189
  176SAPS   H6R20058   3.520   1.040   3.565 -0.1249  2.3462  1.3417
  176SAPS   C2720059   3.696   1.115   3.663 -0.3483 -0.1814 -0.1429
  176SAPS   H7R20060   3.672   1.222   3.681 -1.8215 -0.7369  1.5700
  176SAPS   H7S20061   3.806   1.120   3.649 -0.3940 -1.3348 -1.0118
  176SAPS   C2820062   3.661   1.036   3.790 -0.4135  0.0121 -0.1215
  176SAPS   H8R20063   3.595   0.949   3.775  1.3880 -1.2269 -1.2258
  176SAPS   C2920064   3.685   1.071   3.916  0.3898 -0.5070 -0.3431
  176SAPS   H9R20065   3.641   1.012   3.998  0.0466  1.8191  1.2396
  176SAPS  C21020066   3.758   1.198   3.956  0.2773 -0.1659 -0.8275
  176SAPS  H10R20067   3.789   1.265   3.873  0.0015  2.0534  0.7923
  176SAPS  H10S20068   3.851   1.169   4.009 -0.1190 -1.5401 -0.8326
  176SAPS  C21120069   3.672   1.290   4.041 -0.0916 -0.1310  0.5798
  176SAPS  H11R20070   3.595   1.350   3.989 -0.6084 -0.8836  0.4619
  176SAPS  C21220071   3.680   1.304   4.170  0.3189  0.5238  0.2642
  176SAPS  H12R20072   3.613   1.378   4.217 -2.3008 -2.3767  1.4884
  176SAPS  C21320073   3.755   1.214   4.265 -0.4817  0.6847 -1.0595
  176SAPS  H13R20074   3.804   1.131   4.209 -0.0242  0.3957 -0.2500
  176SAPS  H13S20075   3.672   1.160   4.314  1.5086 -1.1587  0.4983
  176SAPS  C21420076   3.845   1.293   4.361 -0.1911  0.1925  0.2562
  176SAPS  H14R20077   3.949   1.306   4.327 -0.4677  0.2203 -0.5825
  176SAPS  C21520078   3.802   1.357   4.473  0.6681 -0.3619 -0.1133
  176SAPS  H15R20079   3.874   1.418   4.530 -2.6006  2.0754  1.8156
  176SAPS  C21620080   3.664   1.333   4.533 -0.3011  0.1264  0.2175
  176SAPS  H16R20081   3.597   1.265   4.476 -1.0305  1.0840 -0.1087
  176SAPS  H16S20082   3.610   1.430   4.536 -0.9882 -0.2463  0.1573
  176SAPS  C21720083   3.674   1.268   4.676 -0.5460 -1.1041  0.0515
  176SAPS  H17R20084   3.731   1.173   4.673  1.1121 -0.1727  0.4747
  176SAPS  H17S20085   3.566   1.252   4.694 -0.5144 -2.9069 -1.1272
  176SAPS  C21820086   3.718   1.375   4.780  0.1098  0.1550  0.0203
  176SAPS  H18R20087   3.651   1.464   4.780 -1.1194 -0.7080 -1.3555
  176SAPS  H18S20088   3.812   1.416   4.737  1.2129 -0.8220  1.4077
  176SAPS  C21920089   3.735   1.338   4.924  0.1222 -0.1445  0.0304
  176SAPS  H19R20090   3.801   1.248   4.930 -0.3749 -0.5817 -0.9061
  176SAPS  H19S20091   3.639   1.306   4.970 -0.3113 -0.5670 -1.1369
  176SAPS  C22020092   3.788   1.446   5.010 -0.0004 -0.5690  0.1344
  176SAPS  H20R20093   3.712   1.527   5.018  0.1973 -0.3438 -0.2301
  176SAPS  H20S20094   3.886   1.474   4.967  0.2496 -2.0963 -0.3769
  176SAPS  H20T20095   3.821   1.411   5.111  1.1460 -2.9711 -0.9799
  176SAPS   C3320096   4.118   0.619   3.306  0.1625  0.0575  0.4943
  176SAPS   H3X20097   4.093   0.725   3.285 -0.2125 -0.2180 -0.5277
  176SAPS   H3Y20098   4.191   0.619   3.389  1.6609 -2.1951 -0.7180
  176SAPS   C3420099   3.995   0.545   3.361 -0.5636 -0.8700  0.5564
  176SAPS   H4X20100   4.011   0.445   3.408 -2.3377 -0.5078  2.0378
  176SAPS   H4Y20101   3.907   0.548   3.293  0.1155  1.3819 -0.3287
  176SAPS   C3520102   3.944   0.627   3.481 -0.8357 -0.0834  0.1051
  176SAPS   H5X20103   3.924   0.734   3.457 -2.5285 -0.3912  0.0442
  176SAPS   H5Y20104   4.021   0.639   3.560 -0.0996  3.1525 -0.9349
  176SAPS   C3620105   3.820   0.568   3.544 -0.5027 -0.7704 -0.1449
  176SAPS   H6X20106   3.849   0.465   3.576  1.9634  0.3500  1.4598
  176SAPS   H6Y20107   3.734   0.551   3.476  0.1938  0.0445 -1.2556
  176SAPS   C3720108   3.778   0.641   3.673 -0.8220  0.0343 -0.0595
  176SAPS   H7X20109   3.675   0.610   3.698 -0.7426  0.1616  0.4410
  176SAPS   H7Y20110   3.775   0.748   3.644 -1.5537  0.1979  0.5965
  176SAPS   C3820111   3.866   0.632   3.801  0.1439  0.0641  1.3216
  176SAPS   H8X20112   3.965   0.681   3.789  0.9935 -1.9319 -0.3608
  176SAPS   H8Y20113   3.885   0.525   3.824 -0.6648 -0.4062 -0.0834
  176SAPS   C3920114   3.799   0.708   3.918  0.2432  0.9368 -0.1205
  176SAPS   H9X20115   3.691   0.684   3.926 -0.2495  3.0195  0.1614
  176SAPS   H9Y20116   3.800   0.816   3.895 -0.3555  0.4931 -2.4587
  176SAPS  C31020117   3.878   0.671   4.047 -0.1204  0.2693 -0.5081
  176SAPS  H10X20118   3.982   0.703   4.026 -0.4172  0.9517 -0.9690
  176SAPS  H10Y20119   3.880   0.562   4.063 -2.1257  0.4499  1.5271
  176SAPS  C31120120   3.835   0.744   4.173 -0.2784  0.4030 -0.2772
  176SAPS  H11X20121   3.728   0.725   4.198 -0.3238 -0.4079 -1.0673
  176SAPS  H11Y20122   3.858   0.852   4.157  0.9331  0.0658 -0.9333
  176SAPS  C31220123   3.911   0.703   4.301  0.3128  0.3344 -0.2528
  176SAPS  H12X20124   4.018   0.715   4.276  0.3040 -0.9804 -1.0050
  176SAPS  H12Y20125   3.884   0.596   4.320  1.9141  0.0353  0.5378
  176SAPS  C31320126   3.871   0.789   4.421  0.0757 -0.7943 -0.3122
  176SAPS  H13X20127   3.771   0.762   4.460 -0.0519  0.2838  0.1669
  176SAPS  H13Y20128   3.853   0.895   4.392 -1.3794 -1.2802 -1.2910
  176SAPS  C31420129   3.976   0.778   4.544 -0.4978  0.3955  0.7608
  176SAPS  H14X20130   4.079   0.779   4.502 -0.8350  0.1007 -0.1125
  176SAPS  H14Y20131   3.970   0.671   4.573 -1.2626 -0.8773 -3.4174
  176SAPS  C31520132   3.977   0.872   4.660 -0.4343  0.1084 -0.0108
  176SAPS  H15X20133   3.869   0.891   4.677 -1.0932 -1.6550 -1.8832
  176SAPS  H15Y20134   4.030   0.964   4.627 -1.9148  1.0631  0.1896
  176SAPS  C31620135   4.049   0.835   4.794 -0.0070 -0.5508  1.0071
  176SAPS  H16X20136   3.996   0.745   4.832 -1.0651  0.1554  1.2246
  176SAPS  H16Y20137   4.028   0.908   4.875  2.0618  0.2285  0.9174
  176SAPS  C31720138   4.195   0.825   4.777  0.1226  0.4205 -0.5171
  176SAPS  H17X20139   4.232   0.915   4.723 -0.4984  0.1867 -1.3575
  176SAPS  H17Y20140   4.208   0.741   4.705 -1.9030 -1.3205  0.9919
  176SAPS  C31820141   4.272   0.804   4.903  0.1600  0.1952  0.0533
  176SAPS  H18X20142   4.378   0.781   4.879  0.3049 -1.8656  2.2933
  176SAPS  H18Y20143   4.238   0.715   4.960  1.8721  0.9589  2.4293
  176SAPS  H18Z20144   4.275   0.890   4.972 -0.0690  1.1677 -1.1062
  177SAPS     N20145   2.734   3.647   2.933  0.5312 -0.4336 -0.2095
  177SAPS   HN120146   2.811   3.617   2.996  0.9754  1.4037  0.1606
  177SAPS   HN220147   2.725   3.585   2.849  1.7389  0.6907 -1.2046
  177SAPS   HN320148   2.771   3.733   2.890  2.2869 -1.4049 -0.7337
  177SAPS   C1220149   2.599   3.682   2.993 -0.5567 -0.1899 -0.3675
  177SAPS  H12A20150   2.617   3.783   3.027  0.5332  0.2582 -2.1365
  177SAPS   C1320151   2.484   3.702   2.891  0.0030  0.5722  0.1571
  177SAPS  O13A20152   2.511   3.675   2.770  0.4873 -0.2725 -0.1132
  177SAPS  O13B20153   2.372   3.740   2.932 -0.3914  0.5455  0.2518
  177SAPS   C1120154   2.557   3.598   3.119 -0.0359  0.2588  0.1211
  177SAPS  H11A20155   2.545   3.492   3.087  1.3020 -0.6206  2.3444
  177SAPS  H11B20156   2.459   3.628   3.161 -1.3728 -1.5858 -1.4783
  177SAPS     P20157   2.704   3.515   3.314  0.4481  0.6854 -0.6463
  177SAPS   O1320158   2.770   3.401   3.254  0.9262  0.0937 -0.0732
  177SAPS   O1420159   2.778   3.583   3.426  0.0110  0.5692  0.3317
  177SAPS   O1220160   2.658   3.623   3.211 -0.3009  0.0300 -0.2905
  177SAPS   O1120161   2.572   3.464   3.388  0.1121  0.3948 -0.2689
  177SAPS    C120162   2.469   3.562   3.425  0.5615 -0.2352 -0.7648
  177SAPS    HA20163   2.473   3.661   3.375 -1.5071 -1.3328 -3.4150
  177SAPS    HB20164   2.377   3.526   3.374  0.3900  0.2465 -0.8044
  177SAPS    C220165   2.445   3.572   3.572 -0.1211 -0.4809 -0.6933
  177SAPS    HS20166   2.355   3.632   3.597  0.9780  1.6377 -1.5596
  177SAPS   O2120167   2.553   3.638   3.639 -0.2549 -0.4303  0.1531
  177SAPS   C2120168   2.574   3.760   3.614  0.1389 -0.7053  0.1355
  177SAPS   O2220169   2.490   3.833   3.557 -0.4911  0.2391  0.1935
  177SAPS   C2220170   2.702   3.827   3.670  0.1433 -0.2116 -0.4731
  177SAPS   H2R20171   2.759   3.749   3.724  0.7053  1.3347  1.2551
  177SAPS   H2S20172   2.760   3.863   3.581 -0.5108  0.9034 -0.4670
  177SAPS    C320173   2.432   3.428   3.631 -0.0244 -0.1291  0.2275
  177SAPS    HX20174   2.526   3.374   3.610 -0.1786 -0.0375 -0.7668
  177SAPS    HY20175   2.354   3.378   3.569 -1.4367  0.7917  1.1808
  177SAPS   O3120176   2.379   3.429   3.771 -0.7655  0.7702  0.2742
  177SAPS   C3120177   2.465   3.417   3.873  0.0529 -0.1108  0.0670
  177SAPS   O3220178   2.582   3.436   3.866 -0.4636 -0.2500  0.2196
  177SAPS   C3220179   2.379   3.390   4.001 -0.3693 -0.5564 -0.2165
  177SAPS   H2X20180   2.316   3.306   3.965  0.5253 -1.1977 -0.3120
  177SAPS   H2Y20181   2.306   3.473   4.011  0.1147 -0.1268 -0.2234
  177SAPS   C2320182   2.667   3.934   3.777 -0.2367 -0.1101  0.0308
  177SAPS   H3R20183   2.558   3.950   3.788 -0.3329 -0.1775 -0.7528
  177SAPS   H3S20184   2.728   4.021   3.745 -2.0721  0.6782 -1.5394
  177SAPS   C2420185   2.726   3.901   3.923  0.3929  0.2050  0.2326
  177SAPS   H4R20186   2.830   3.866   3.903 -0.3613 -1.8311 -0.4201
  177SAPS   H4S20187   2.665   3.809   3.940 -1.9550  1.5238 -0.6177
  177SAPS   C2520188   2.703   4.005   4.026  0.4952  0.1925 -0.2232
  177SAPS   H5R20189   2.599   4.017   4.057  0.4520  0.6174 -0.5259
  177SAPS   C2620190   2.788   4.054   4.111 -0.2049 -0.2551  0.1308
  177SAPS   H6R20191   2.761   4.126   4.189 -0.9472 -0.2613 -0.1106
  177SAPS   C2720192   2.940   4.021   4.097  0.2634 -0.4886 -0.0467
  177SAPS   H7R20193   2.974   4.045   3.994  0.7277  0.9427  0.4048
  177SAPS   H7S20194   2.946   3.911   4.110 -3.1370 -0.6783  0.8285
  177SAPS   C2820195   3.043   4.095   4.191  0.5355 -0.0914 -0.0237
  177SAPS   H8R20196   3.000   4.187   4.235 -1.3170 -1.3437  0.9219
  177SAPS   C2920197   3.172   4.073   4.211 -0.1479  0.5737  0.4064
  177SAPS   H9R20198   3.219   4.135   4.289 -0.0695  0.6434  0.3042
  177SAPS  C21020199   3.243   3.958   4.159 -0.0222 -0.3722 -0.3420
  177SAPS  H10R20200   3.240   3.955   4.048  2.1854  1.0303 -0.5063
  177SAPS  H10S20201   3.197   3.864   4.196 -1.6926 -0.3456 -2.2345
  177SAPS  C21120202   3.385   3.969   4.190 -1.0052 -0.4886 -0.8649
  177SAPS  H11R20203   3.428   4.070   4.181 -0.7285 -0.5134  0.0826
  177SAPS  C21220204   3.473   3.871   4.229  0.4186  0.8445 -0.0230
  177SAPS  H12R20205   3.577   3.888   4.259  0.5911 -0.9828  0.5279
  177SAPS  C21320206   3.437   3.720   4.243 -0.7123  0.5463  0.1813
  177SAPS  H13R20207   3.521   3.658   4.206 -1.7871 -0.3226 -0.8295
  177SAPS  H13S20208   3.350   3.701   4.178 -0.6495 -1.4173  0.6076
  177SAPS  C21420209   3.390   3.684   4.378 -0.6315  0.0381  0.2583
  177SAPS  H14R20210   3.335   3.758   4.438  0.5099 -0.0716  1.4790
  177SAPS  C21520211   3.402   3.557   4.437 -0.4178 -0.2697  0.0888
  177SAPS  H15R20212   3.347   3.552   4.532 -0.0643  2.5629  0.5449
  177SAPS  C21620213   3.478   3.440   4.389 -0.4182 -0.5912  0.0459
  177SAPS  H16R20214   3.558   3.466   4.317 -0.3129  2.1829  1.0436
  177SAPS  H16S20215   3.407   3.378   4.330  0.1090 -3.0261  1.8154
  177SAPS  C21720216   3.542   3.360   4.500  0.5288 -0.2568  0.2393
  177SAPS  H17R20217   3.471   3.328   4.579 -0.0592 -2.1175 -0.9717
  177SAPS  H17S20218   3.625   3.415   4.548  0.4979 -0.5704  0.6503
  177SAPS  C21820219   3.618   3.239   4.438  0.5267  0.1860 -0.3034
  177SAPS  H18R20220   3.698   3.277   4.370  1.1784  0.1740  0.4384
  177SAPS  H18S20221   3.551   3.175   4.377 -0.4160  0.6006  0.2764
  177SAPS  C21920222   3.681   3.151   4.540  0.1583  0.7948 -0.4616
  177SAPS  H19R20223   3.728   3.059   4.501 -1.4117 -0.5294  0.6246
  177SAPS  H19S20224   3.601   3.125   4.613  0.9277  0.6440  0.3388
  177SAPS  C22020225   3.797   3.222   4.617 -0.3219  0.1098  0.0634
  177SAPS  H20R20226   3.882   3.215   4.545 -0.5218 -2.4223 -0.0340
  177SAPS  H20S20227   3.828   3.170   4.711  2.8268 -1.9953 -1.9096
  177SAPS  H20T20228   3.777   3.328   4.643 -3.4767 -0.1938 -0.8003
  177SAPS   C3320229   2.461   3.355   4.124 -0.4813 -0.1422 -0.2280
  177SAPS   H3X20230   2.513   3.441   4.170 -2.3739 -0.1666  2.1704
  177SAPS   H3Y20231   2.542   3.280   4.111  0.1554 -0.0343  2.5044
  177SAPS   C3420232   2.377   3.299   4.238  0.0104  0.2996  0.3831
  177SAPS   H4X20233   2.305   3.222   4.204 -0.8452  1.4220 -0.3922
  177SAPS   H4Y20234   2.303   3.378   4.263 -0.9909 -0.1129 -1.1966
  177SAPS   C3520235   2.461   3.255   4.359  0.0184 -0.1103 -0.0946
  177SAPS   H5X20236   2.541   3.331   4.371 -1.4520  1.2544  1.6414
  177SAPS   H5Y20237   2.507   3.161   4.323 -0.2079 -0.9338  1.6778
  177SAPS   C3620238   2.383   3.230   4.487 -0.4834 -0.3002  0.3111
  177SAPS   H6X20239   2.439   3.153   4.545 -2.4166 -1.4914  0.6783
  177SAPS   H6Y20240   2.287   3.186   4.451  0.9935 -3.5150 -0.0460
  177SAPS   C3720241   2.355   3.351   4.564 -0.3107 -0.5759 -0.4824
  177SAPS   H7X20242   2.291   3.421   4.507 -1.8879 -0.5672  1.2165
  177SAPS   H7Y20243   2.451   3.403   4.587 -0.4544 -0.6867  0.3855
  177SAPS   C3820244   2.286   3.314   4.697  0.2965 -0.0392 -0.2780
  177SAPS   H8X20245   2.360   3.245   4.742 -0.8381 -0.2771  1.3195
  177SAPS   H8Y20246   2.193   3.257   4.678  1.8420 -3.1930  0.8900
  177SAPS   C3920247   2.278   3.444   4.782 -0.0581  0.8492 -0.1711
  177SAPS   H9X20248   2.208   3.510   4.727 -0.1708  1.2871  0.4839
  177SAPS   H9Y20249   2.374   3.500   4.786  0.8877 -0.7670  1.4684
  177SAPS  C31020250   2.232   3.410   4.925 -0.3046  0.4996 -0.0533
  177SAPS  H10X20251   2.306   3.353   4.985  0.2595  1.4899  0.2175
  177SAPS  H10Y20252   2.136   3.356   4.915 -0.4762  0.9369 -0.9547
  177SAPS  C31120253   2.204   3.542   4.999 -0.4794 -0.5007  0.7523
  177SAPS  H11X20254   2.296   3.600   4.978 -0.0402 -2.1878 -2.7357
  177SAPS  H11Y20255   2.189   3.529   5.108  2.6956  0.3975  1.4092
  177SAPS  C31220256   2.080   3.616   4.950  1.0943 -0.2258 -0.0019
  177SAPS  H12X20257   1.994   3.547   4.933  0.3818  0.3386  1.2255
  177SAPS  H12Y20258   2.095   3.658   4.848 -0.2766 -0.8632 -0.4877
  177SAPS  C31320259   2.037   3.736   5.028  0.2065  0.0613  0.3601
  177SAPS  H13X20260   2.110   3.818   5.015  0.8059 -0.6117 -0.6899
  177SAPS  H13Y20261   2.041   3.704   5.135 -0.2741 -0.3003  0.2746
  177SAPS  C31420262   1.905   3.798   4.982  0.0186 -0.4527 -0.3882
  177SAPS  H14X20263   1.830   3.716   4.987  0.4163 -0.7992 -0.0473
  177SAPS  H14Y20264   1.909   3.829   4.876  1.6783 -2.5120 -0.9907
  177SAPS  C31520265   1.856   3.913   5.069  0.3797 -0.0779  0.0365
  177SAPS  H15X20266   1.922   4.001   5.059  0.6656 -0.1031  1.4727
  177SAPS  H15Y20267   1.866   3.878   5.174 -1.4568  0.0385  0.2758
  177SAPS  C31620268   1.716   3.956   5.021 -0.8928  0.0104  0.9711
  177SAPS  H16X20269   1.675   3.866   4.969  1.8757 -0.4591 -0.6023
  177SAPS  H16Y20270   1.729   4.034   4.943 -3.5835  0.6063  1.0294
  177SAPS  C31720271   1.629   4.003   5.137 -0.4390  0.1839 -0.9595
  177SAPS  H17X20272   1.683   4.086   5.188  0.9561 -1.1761 -0.1250
  177SAPS  H17Y20273   1.617   3.926   5.216 -0.1814  0.9128 -0.2011
  177SAPS  C31820274   1.487   4.039   5.092 -0.0657 -0.4855 -0.1645
  177SAPS  H18X20275   1.424   3.953   5.062  1.4137 -0.9344 -2.1662
  177SAPS  H18Y20276   1.493   4.112   5.009  1.6956  0.9837  1.1690
  177SAPS  H18Z20277   1.439   4.095   5.175 -0.7096  1.5514 -1.8310
  178SAPS     N20278   1.445   5.446   3.132 -0.1178  0.1355  0.3062
  178SAPS   HN120279   1.490   5.539   3.142  1.4549 -0.4174 -1.2260
  178SAPS   HN220280   1.432   5.388   3.217 -1.7073 -1.0056 -0.6404
  178SAPS   HN320281   1.506   5.403   3.060 -0.5140  2.5554 -1.6091
  178SAPS   C1220282   1.311   5.462   3.083 -0.0467 -0.0544 -0.2808
  178SAPS  H12A20283   1.270   5.516   3.166  0.7189  0.6949 -0.3808
  178SAPS   C1320284   1.303   5.551   2.957 -0.1578 -0.3683 -0.9059
  178SAPS  O13A20285   1.407   5.584   2.890  0.3225 -0.1412  0.6917
  178SAPS  O13B20286   1.189   5.570   2.918 -0.3760 -0.9238 -0.0387
  178SAPS   C1120287   1.244   5.323   3.070  0.1901 -0.4114 -0.1699
  178SAPS  H11A20288   1.282   5.267   2.982  0.6548 -0.3992  0.0159
  178SAPS  H11B20289   1.136   5.337   3.049  0.0912 -1.0000 -0.0652
  178SAPS     P20290   1.205   5.112   3.221 -0.1874  0.1690 -0.0848
  178SAPS   O1320291   1.129   5.075   3.104  0.3340  0.8698  0.0236
  178SAPS   O1420292   1.313   5.033   3.278 -0.1120 -0.6126  0.5039
  178SAPS   O1220293   1.263   5.256   3.196 -0.9856 -0.4888 -0.6451
  178SAPS   O1120294   1.099   5.149   3.332 -0.0642  0.4765  0.1525
  178SAPS    C120295   1.144   5.224   3.447  0.0685  0.7442  0.1766
  178SAPS    HA20296   1.161   5.163   3.538 -0.9090  1.0127  0.5584
  178SAPS    HB20297   1.247   5.263   3.435  0.2072  0.3042 -0.0925
  178SAPS    C220298   1.036   5.329   3.486 -0.6416 -0.5353  0.0070
  178SAPS    HS20299   1.072   5.370   3.583 -2.2397 -1.4191  1.0215
  178SAPS   O2120300   0.914   5.265   3.510  0.0246  0.1517 -0.3100
  178SAPS   C2120301   0.912   5.190   3.621 -0.3373 -0.4306  0.1463
  178SAPS   O2220302   0.998   5.179   3.703  0.4573 -0.1367  0.1489
  178SAPS   C2220303   0.782   5.122   3.625  0.4728  0.0367 -0.3380
  178SAPS   H2R20304   0.698   5.192   3.646  0.5886 -0.0167  0.3383
  178SAPS   H2S20305   0.771   5.059   3.534  0.2776 -0.7635  0.2310
  178SAPS    C320306   1.012   5.442   3.381 -0.0261 -0.0277  0.3498
  178SAPS    HX20307   1.001   5.404   3.277  1.6024  0.6642 -0.1039
  178SAPS    HY20308   1.104   5.503   3.370  1.2192 -2.0299 -0.9000
  178SAPS   O3120309   0.891   5.525   3.409 -0.3467 -0.0860 -0.3281
  178SAPS   C3120310   0.885   5.594   3.521  0.3185  0.5740  0.0739
  178SAPS   O3220311   0.982   5.626   3.589  0.2475 -0.4787 -0.1099
  178SAPS   C3220312   0.741   5.621   3.563 -0.0189 -0.2593 -0.0972
  178SAPS   H2X20313   0.685   5.529   3.536 -1.7592 -0.2375  3.0036
  178SAPS   H2Y20314   0.702   5.704   3.499 -0.1447  0.8709  1.3898
  178SAPS   C2320315   0.781   5.018   3.733  0.2367  0.1011 -1.3772
  178SAPS   H3R20316   0.772   5.073   3.829  0.2542 -0.4417 -1.0571
  178SAPS   H3S20317   0.876   4.961   3.734 -1.3798 -2.7653 -0.4261
  178SAPS   C2420318   0.653   4.932   3.733 -0.5145 -1.0067  0.3467
  178SAPS   H4R20319   0.656   4.872   3.639  1.0211  1.8691 -1.6045
  178SAPS   H4S20320   0.564   4.998   3.721 -0.7543 -1.5378 -1.0043
  178SAPS   C2520321   0.638   4.849   3.856  0.3769  0.0851 -0.1991
  178SAPS   H5R20322   0.728   4.786   3.871  1.0250  1.3602  1.6563
  178SAPS   C2620323   0.529   4.848   3.936  0.3722 -0.3933 -0.5268
  178SAPS   H6R20324   0.523   4.776   4.019  0.5564  2.6029  2.2788
  178SAPS   C2720325   0.401   4.937   3.922 -0.5584  0.6165  0.7600
  178SAPS   H7R20326   0.409   5.030   3.862 -1.1090  0.4505  0.4187
  178SAPS   H7S20327   0.373   4.975   4.022  0.5787  1.2054  0.8689
  178SAPS   C2820328   0.281   4.858   3.869 -1.2173  0.9825 -0.8349
  178SAPS   H8R20329   0.302   4.751   3.886  0.6814  1.1051 -2.0812
  178SAPS   C2920330   0.167   4.903   3.818  0.7716  0.6800  0.4426
  178SAPS   H9R20331   0.107   4.831   3.760  0.1427  2.2094 -0.8726
  178SAPS  C21020332   0.139   5.057   3.798  0.5164 -0.3671 -0.1096
  178SAPS  H10R20333   0.153   5.104   3.698 -1.5580  2.2536  0.7007
  178SAPS  H10S20334   0.218   5.098   3.864  1.4087 -1.9831 -0.1420
  178SAPS  C21120335  -0.004   5.089   3.840  0.1401  0.4810  0.3551
  178SAPS  H11R20336  -0.073   5.116   3.758  0.2995  0.0189  0.0626
  178SAPS  C21220337  -0.047   5.117   3.966  0.7720 -0.3632  0.1631
  178SAPS  H12R20338  -0.154   5.139   3.982  0.9582  1.3877 -0.6866
  178SAPS  C21320339   0.042   5.100   4.086 -0.9007  0.3214 -0.4278
  178SAPS  H13R20340   0.054   5.200   4.134  0.8156  0.1939 -0.5251
  178SAPS  H13S20341   0.141   5.058   4.057 -1.3371 -0.2256 -1.1270
  178SAPS  C21420342  -0.022   5.007   4.184  0.4523  0.2859 -0.4566
  178SAPS  H14R20343  -0.047   4.906   4.148 -1.1002 -0.0244  1.3265
  178SAPS  C21520344  -0.034   5.022   4.320  0.6666  0.1657 -0.5689
  178SAPS  H15R20345  -0.085   4.943   4.378 -0.3298  1.0457 -0.2057
  178SAPS  C21620346   0.014   5.139   4.404  0.3337  0.0717 -1.4400
  178SAPS  H16R20347   0.095   5.203   4.362  2.4948 -2.3160 -1.1790
  178SAPS  H16S20348   0.070   5.087   4.485 -3.8692 -2.0196  0.4226
  178SAPS  C21720349  -0.108   5.211   4.465 -0.3083 -0.5541 -0.0071
  178SAPS  H17R20350  -0.159   5.275   4.389 -2.0630  0.7945  2.1556
  178SAPS  H17S20351  -0.075   5.284   4.542 -2.0284 -1.0766  1.2998
  178SAPS  C21820352  -0.211   5.120   4.537  0.2085  0.0965 -0.1855
  178SAPS  H18R20353  -0.151   5.044   4.592  1.2605  2.0325  1.5363
  178SAPS  H18S20354  -0.271   5.078   4.454  1.5614  0.0968 -1.2022
  178SAPS  C21920355  -0.314   5.196   4.629 -0.1989 -0.0729 -0.3791
  178SAPS  H19R20356  -0.262   5.282   4.676  1.3831 -1.1790 -0.0520
  178SAPS  H19S20357  -0.348   5.141   4.719  0.6837 -0.8742 -0.5226
  178SAPS  C22020358  -0.440   5.242   4.555  0.5601 -0.4241 -0.1074
  178SAPS  H20R20359  -0.522   5.177   4.592  1.4119 -1.2789  0.3242
  178SAPS  H20S20360  -0.415   5.230   4.447  0.1457 -0.4181 -0.2051
  178SAPS  H20T20361  -0.456   5.352   4.553 -0.3223 -0.5351 -1.9681
  178SAPS   C3320362   0.712   5.651   3.712 -0.3757 -0.3808 -0.6193
  178SAPS   H3X20363   0.607   5.683   3.726  0.3080  2.0019 -0.4563
  178SAPS   H3Y20364   0.771   5.733   3.758  0.6795 -2.2239  1.5439
  178SAPS   C3420365   0.738   5.530   3.791 -0.3852 -0.1528 -0.3892
  178SAPS   H4X20366   0.833   5.483   3.757  0.0442  0.1182  0.4262
  178SAPS   H4Y20367   0.651   5.463   3.774 -1.7759  1.9103 -1.7938
  178SAPS   C3520368   0.750   5.556   3.938  0.1093 -0.4407 -0.4025
  178SAPS   H5X20369   0.666   5.618   3.977 -0.7331 -0.9914 -1.3044
  178SAPS   H5Y20370   0.838   5.620   3.963 -0.4020 -0.0412  0.4252
  178SAPS   C3620371   0.765   5.426   4.010 -0.1660 -0.4674 -0.0039
  178SAPS   H6X20372   0.791   5.449   4.116  0.2704 -0.4070 -0.1230
  178SAPS   H6Y20373   0.853   5.373   3.967  0.8777  1.7069 -0.7049
  178SAPS   C3720374   0.651   5.323   4.016 -0.0902  0.0487 -0.1643
  178SAPS   H7X20375   0.642   5.282   3.914 -1.7727 -0.3621  0.1182
  178SAPS   H7Y20376   0.558   5.377   4.042  0.3354 -0.1796  2.0593
  178SAPS   C3820377   0.668   5.219   4.126  0.1312 -0.3514  0.2393
  178SAPS   H8X20378   0.734   5.255   4.208  1.1136  0.8023 -1.0276
  178SAPS   H8Y20379   0.724   5.132   4.085  1.2219 -0.4604  1.8702
  178SAPS   C3920380   0.536   5.186   4.198  0.0868 -0.1882  0.2330
  178SAPS   H9X20381   0.454   5.147   4.135 -0.6627 -1.6274  2.0108
  178SAPS   H9Y20382   0.511   5.283   4.246  3.7284  0.5430  0.9809
  178SAPS  C31020383   0.552   5.086   4.315  0.1251 -0.8462  1.0181
  178SAPS  H10X20384   0.638   5.096   4.385  0.7054  1.0970  0.1030
  178SAPS  H10Y20385   0.576   4.992   4.259  1.2666  0.3122 -0.5547
  178SAPS  C31120386   0.422   5.070   4.391 -0.6220  0.3056 -0.0028
  178SAPS  H11X20387   0.419   4.971   4.442 -0.3727 -0.7237 -1.8594
  178SAPS  H11Y20388   0.337   5.078   4.320 -1.9604 -2.2386  1.1701
  178SAPS  C31220389   0.402   5.175   4.501  0.3462  0.4569 -0.7051
  178SAPS  H12X20390   0.296   5.206   4.517  1.0457  2.8403 -0.3007
  178SAPS  H12Y20391   0.452   5.271   4.478 -2.2228  1.3771 -3.1263
  178SAPS  C31320392   0.448   5.126   4.641  0.1723  0.1640  0.0623
  178SAPS  H13X20393   0.541   5.071   4.618  0.1860 -0.4485  1.5225
  178SAPS  H13Y20394   0.373   5.046   4.662 -1.4241  0.4418 -3.7339
  178SAPS  C31420395   0.473   5.235   4.745 -0.4460  0.2519 -0.2007
  178SAPS  H14X20396   0.554   5.305   4.714  1.3278  0.1689  3.6728
  178SAPS  H14Y20397   0.506   5.189   4.841  0.5569 -3.2691 -2.0695
  178SAPS  C31520398   0.344   5.314   4.776  0.0350 -0.3645  0.2399
  178SAPS  H15X20399   0.300   5.359   4.684 -0.0657 -1.6617 -0.3625
  178SAPS  H15Y20400   0.365   5.395   4.849  1.3443  1.2997 -1.8336
  178SAPS  C31620401   0.227   5.225   4.827 -0.2050 -0.3805 -0.1285
  178SAPS  H16X20402   0.261   5.172   4.919 -0.4735 -1.5982 -0.7139
  178SAPS  H16Y20403   0.192   5.161   4.743 -1.8463  0.7503 -0.3412
  178SAPS  C31720404   0.104   5.306   4.861  0.3149 -0.1514  0.3468
  178SAPS  H17X20405   0.062   5.355   4.770  0.0325  0.2344  0.6827
  178SAPS  H17Y20406   0.120   5.390   4.932 -2.8768  1.0655 -0.1910
  178SAPS  C31820407  -0.023   5.237   4.914 -0.1335 -0.3512  0.1831
  178SAPS  H18X20408  -0.090   5.313   4.959 -3.2910 -4.0423  2.3587
  178SAPS  H18Y20409   0.012   5.168   4.994  2.4977 -0.8642 -1.3069
  178SAPS  H18Z20410  -0.083   5.174   4.845 -2.0316 -1.0884  2.3740
  179SAPS     N20411   1.966   1.531   2.622  0.2267 -0.2136 -0.0540
  179SAPS   HN120412   1.867   1.540   2.592  0.4260 -1.2718 -1.1411
  179SAPS   HN220413   1.983   1.525   2.724  0.1530  0.3468 -0.0109
  179SAPS   HN320414   2.015   1.617   2.590  1.2156 -0.5456  0.5145
  179SAPS   C1220415   2.022   1.418   2.540  0.8447 -0.3985  0.0874
  179SAPS  H12A20416   2.001   1.440   2.436  0.6913 -2.6266 -0.4144
  179SAPS   C1320417   2.170   1.394   2.556  0.4118  0.8015  0.1729
  179SAPS  O13A20418   2.240   1.478   2.609 -0.5052 -0.2313  0.1546
  179SAPS  O13B20419   2.216   1.318   2.465  0.2499 -0.3900  0.1103
  179SAPS   C1120420   1.958   1.282   2.581  0.3310  0.0301  0.0709
  179SAPS  H11A20421   1.990   1.262   2.685 -1.4234  0.6269  0.7552
  179SAPS  H11B20422   1.998   1.205   2.511  3.2781  2.9833 -1.8175
  179SAPS     P20423   1.735   1.180   2.659 -0.1155 -0.0380  0.0306
  179SAPS   O1320424   1.592   1.196   2.632 -0.5324 -0.5579  0.2724
  179SAPS   O1420425   1.801   1.044   2.646  0.1426 -0.3116  0.0970
  179SAPS   O1220426   1.816   1.292   2.588  0.3059  0.4361  0.1049
  179SAPS   O1120427   1.766   1.229   2.801  0.1244 -0.1531 -0.2258
  179SAPS    C120428   1.739   1.141   2.913 -0.0780 -0.3424  0.4141
  179SAPS    HA20429   1.716   1.037   2.879 -0.5691  0.2106 -1.0498
  179SAPS    HB20430   1.830   1.141   2.976 -0.6223 -1.6459  1.2494
  179SAPS    C220431   1.622   1.199   3.000  0.0575  0.8565 -0.1753
  179SAPS    HS20432   1.543   1.233   2.930 -2.4990  0.4005  2.3111
  179SAPS   O2120433   1.670   1.312   3.081  0.1558 -0.5676 -0.4108
  179SAPS   C2120434   1.575   1.387   3.119 -0.1553 -0.2091  0.3239
  179SAPS   O2220435   1.465   1.411   3.070  0.0734  0.2364  0.3949
  179SAPS   C2220436   1.626   1.457   3.246  0.4410  0.5220  0.6551
  179SAPS   H2R20437   1.614   1.386   3.330  2.6638  0.0948  0.6869
  179SAPS   H2S20438   1.736   1.473   3.235  0.0715  1.9568 -1.5440
  179SAPS    C320439   1.562   1.083   3.094  0.6670  0.0776  0.3391
  179SAPS    HX20440   1.520   1.008   3.023  3.4256 -2.5706  1.2612
  179SAPS    HY20441   1.479   1.122   3.156  1.0227  2.3757 -0.5166
  179SAPS   O3120442   1.665   1.014   3.168 -0.1470  0.5247  0.1309
  179SAPS   C3120443   1.686   1.054   3.297  0.1661  0.7090  0.3618
  179SAPS   O3220444   1.627   1.142   3.350 -0.5607  0.3663 -0.0705
  179SAPS   C3220445   1.793   0.969   3.358  0.1937 -0.4888  0.0998
  179SAPS   H2X20446   1.877   1.033   3.390 -0.1427  0.1238 -0.2240
  179SAPS   H2Y20447   1.820   0.894   3.281 -1.9199 -1.1184 -0.1149
  179SAPS   C2320448   1.544   1.592   3.275 -1.1154  0.1879  0.1087
  179SAPS   H3R20449   1.520   1.640   3.178 -1.6214  0.4825  0.3745
  179SAPS   H3S20450   1.623   1.656   3.321 -1.5579 -0.3535  1.6872
  179SAPS   C2420451   1.428   1.571   3.367 -0.5854 -0.1625 -0.4818
  179SAPS   H4R20452   1.474   1.549   3.466  0.7558 -0.2101 -1.0922
  179SAPS   H4S20453   1.364   1.485   3.339 -0.6710 -0.2435 -0.0496
  179SAPS   C2520454   1.354   1.698   3.355 -0.0216  0.0184 -0.7117
  179SAPS   H5R20455   1.294   1.701   3.263 -1.1405  1.8781  0.0200
  179SAPS   C2620456   1.337   1.793   3.453  0.4138  0.6691 -0.4026
  179SAPS   H6R20457   1.261   1.871   3.437  1.9523  2.0569 -1.4020
  179SAPS   C2720458   1.393   1.792   3.596  0.4255 -0.3447  0.3453
  179SAPS   H7R20459   1.406   1.897   3.632  0.7411 -0.6730  1.2053
  179SAPS   H7S20460   1.496   1.751   3.594  0.6322  0.1072  1.1446
  179SAPS   C2820461   1.308   1.709   3.696  0.0546  0.0023 -0.4883
  179SAPS   H8R20462   1.269   1.614   3.656  2.6134 -1.4620  0.2609
  179SAPS   C2920463   1.312   1.727   3.825  0.6372  0.1957  0.1289
  179SAPS   H9R20464   1.244   1.660   3.879  0.9153  0.7848  1.2225
  179SAPS  C21020465   1.383   1.822   3.913  0.4085 -0.2838  0.4266
  179SAPS  H10R20466   1.485   1.835   3.870 -0.6278 -0.8338 -2.4214
  179SAPS  H10S20467   1.403   1.779   4.014  3.3498  1.1472  0.5552
  179SAPS  C21120468   1.301   1.950   3.938 -0.1034  0.2416  0.0191
  179SAPS  H11R20469   1.253   1.996   3.850  0.1651  0.5705  0.0436
  179SAPS  C21220470   1.262   2.012   4.053 -0.5218  0.1633 -0.0795
  179SAPS  H12R20471   1.200   2.102   4.048  2.4285  2.4337  1.3019
  179SAPS  C21320472   1.316   1.987   4.192  0.1068  0.7994 -0.0683
  179SAPS  H13R20473   1.353   2.082   4.234  0.2666  0.6403  0.1510
  179SAPS  H13S20474   1.416   1.938   4.188  0.7806  2.1991 -0.8677
  179SAPS  C21420475   1.224   1.905   4.271 -0.0387 -0.4814 -0.1130
  179SAPS  H14R20476   1.172   1.821   4.223 -0.4010  0.1934 -0.9193
  179SAPS  C21520477   1.202   1.916   4.405  0.4427  0.1637  0.0011
  179SAPS  H15R20478   1.138   1.846   4.460 -1.2285 -0.1819 -2.2562
  179SAPS  C21620479   1.259   2.025   4.496 -0.0815  0.6653  0.0645
  179SAPS  H16R20480   1.186   2.035   4.579  1.4724  1.2608  1.4145
  179SAPS  H16S20481   1.271   2.126   4.451  0.5181  0.2270 -0.7970
  179SAPS  C21720482   1.385   1.973   4.570 -0.2413  1.0262 -0.3534
  179SAPS  H17R20483   1.462   1.913   4.516  2.1310  4.1917 -0.7814
  179SAPS  H17S20484   1.334   1.905   4.641  0.4685  0.1008 -0.6985
  179SAPS  C21820485   1.451   2.076   4.663  1.0454 -0.2962  0.2485
  179SAPS  H18R20486   1.368   2.136   4.704  0.8001 -2.0400  2.4786
  179SAPS  H18S20487   1.522   2.141   4.607  0.2481  0.3211 -0.0573
  179SAPS  C21920488   1.525   2.020   4.789 -0.0670  0.4703  0.2030
  179SAPS  H19R20489   1.579   2.102   4.839  1.8231 -0.4139 -0.2983
  179SAPS  H19S20490   1.601   1.951   4.746 -0.4837 -0.0913  0.3441
  179SAPS  C22020491   1.426   1.956   4.887 -0.1941  0.2373 -0.7628
  179SAPS  H20R20492   1.397   1.854   4.854  0.7500  0.4160 -2.2387
  179SAPS  H20S20493   1.336   2.019   4.905  1.1528  2.1986 -0.5542
  179SAPS  H20T20494   1.491   1.953   4.977 -0.0096  1.5737 -0.8332
  179SAPS   C3320495   1.741   0.887   3.468  0.1166  0.3230 -0.0131
  179SAPS   H3X20496   1.659   0.819   3.435  1.7814 -2.4072  1.0834
  179SAPS   H3Y20497   1.686   0.953   3.539 -2.7439 -1.4008 -0.4633
  179SAPS   C3420498   1.853   0.813   3.540  0.1166 -0.0637  0.2783
  179SAPS   H4X20499   1.917   0.767   3.462 -0.7117  1.5496 -1.4465
  179SAPS   H4Y20500   1.798   0.735   3.598 -1.9254 -0.6543 -2.2353
  179SAPS   C3520501   1.934   0.896   3.635 -0.8642 -0.6693  0.0255
  179SAPS   H5X20502   1.984   0.971   3.570  3.2802 -2.1258  1.2616
  179SAPS   H5Y20503   2.017   0.828   3.664 -0.7825 -1.0862 -1.1385
  179SAPS   C3620504   1.876   0.960   3.757 -0.3758  0.2909  0.2580
  179SAPS   H6X20505   1.831   1.057   3.726 -0.6202  0.1574  0.1924
  179SAPS   H6Y20506   1.959   0.993   3.822  0.7745 -0.8193 -0.5978
  179SAPS   C3720507   1.785   0.869   3.840  0.6308  0.0907  0.4599
  179SAPS   H7X20508   1.823   0.766   3.823 -0.5328 -0.2943  0.0605
  179SAPS   H7Y20509   1.682   0.865   3.798  1.0026 -0.5428 -0.4155
  179SAPS   C3820510   1.779   0.906   3.993 -1.1759  0.3041  0.5980
  179SAPS   H8X20511   1.770   1.017   3.991 -0.2961  0.3764  0.0992
  179SAPS   H8Y20512   1.876   0.883   4.043 -0.9510  2.1734  1.1159
  179SAPS   C3920513   1.664   0.832   4.060 -0.6591 -0.0148 -0.1180
  179SAPS   H9X20514   1.690   0.726   4.078 -2.0772 -0.1420  1.5023
  179SAPS   H9Y20515   1.570   0.840   4.002 -0.6739 -0.0609 -0.1004
  179SAPS  C31020516   1.638   0.900   4.199 -0.3852 -0.2494  0.4149
  179SAPS  H10X20517   1.624   1.007   4.174 -0.7622 -0.3453  0.2045
  179SAPS  H10Y20518   1.718   0.884   4.273  0.4249  2.2345  0.1776
  179SAPS  C31120519   1.510   0.831   4.252  0.3171 -0.1293 -0.3293
  179SAPS  H11X20520   1.533   0.724   4.267  0.8311 -0.1828 -1.4131
  179SAPS  H11Y20521   1.434   0.844   4.171  0.2699 -1.2246 -0.4745
  179SAPS  C31220522   1.464   0.910   4.374  0.2546  0.7755 -0.2408
  179SAPS  H12X20523   1.432   1.016   4.369  3.1145  1.8215  1.1382
  179SAPS  H12Y20524   1.549   0.901   4.445 -1.3818 -1.3431  1.5796
  179SAPS  C31320525   1.353   0.834   4.453 -1.1824  0.0463 -0.0363
  179SAPS  H13X20526   1.373   0.724   4.452  1.2375  0.4385 -1.1122
  179SAPS  H13Y20527   1.257   0.837   4.397  0.6562 -1.3110 -3.6123
  179SAPS  C31420528   1.343   0.890   4.597  0.4825 -0.1875  0.4157
  179SAPS  H14X20529   1.239   0.868   4.629  0.7004 -2.2340 -0.1439
  179SAPS  H14Y20530   1.356   1.001   4.597  0.4173 -0.1772 -0.5102
  179SAPS  C31520531   1.442   0.836   4.710  0.0894  0.1599  0.0921
  179SAPS  H15X20532   1.546   0.851   4.676 -0.4657 -1.4108 -2.6208
  179SAPS  H15Y20533   1.418   0.730   4.731 -1.0425  0.0765 -1.4428
  179SAPS  C31620534   1.412   0.915   4.843 -0.3206 -0.2806 -0.5772
  179SAPS  H16X20535   1.304   0.896   4.864 -0.5264  0.3229 -1.0811
  179SAPS  H16Y20536   1.426   1.024   4.831 -2.1988 -0.1656 -2.2502
  179SAPS  C31720537   1.494   0.856   4.968  0.0167 -0.4784  0.7506
  179SAPS  H17X20538   1.468   0.748   4.969  0.4162 -0.5852  0.2197
  179SAPS  H17Y20539   1.457   0.906   5.060  0.1812  2.6942 -0.7687
  179SAPS  C31820540   1.647   0.864   4.958  0.5438  0.2758 -0.3833
  179SAPS  H18X20541   1.667   0.954   4.895  1.5674  1.2575  1.2808
  179SAPS  H18Y20542   1.694   0.783   4.898  1.2931  0.1114  0.4129
  179SAPS  H18Z20543   1.689   0.872   5.060  1.2512  1.6076 -0.7553
  180SAPS     N20544   2.895   3.297   3.039  0.1702 -0.3860  0.0022
  180SAPS   HN120545   2.856   3.313   2.944 -3.2368 -1.9390  0.9643
  180SAPS   HN220546   2.888   3.195   3.058 -0.5762 -0.6993 -1.7181
  180SAPS   HN320547   2.839   3.348   3.111  1.6471  1.9523 -0.3995
  180SAPS   C1220548   3.036   3.340   3.056  0.6497 -0.0852 -0.1198
  180SAPS  H12A20549   3.099   3.287   2.986 -1.6813 -1.9465 -0.9310
  180SAPS   C1320550   3.058   3.486   3.029 -0.2433 -0.3970 -0.2994
  180SAPS  O13A20551   2.958   3.565   3.029  0.5842  0.7407  0.3333
  180SAPS  O13B20552   3.179   3.524   3.009  0.1587 -0.1105 -0.0525
  180SAPS   C1120553   3.088   3.319   3.193  0.1119 -0.4179 -0.1928
  180SAPS  H11A20554   3.036   3.388   3.264 -0.2264 -1.7977  0.9484
  180SAPS  H11B20555   3.197   3.335   3.187 -0.0698  0.8802 -0.3194
  180SAPS     P20556   3.162   3.067   3.215  0.0817  0.4462  0.2967
  180SAPS   O1320557   3.106   2.953   3.286  0.1985 -0.0989 -0.2850
  180SAPS   O1420558   3.194   3.050   3.069  0.7241  0.1190  0.3976
  180SAPS   O1220559   3.053   3.183   3.227 -0.2303 -0.3605 -0.4319
  180SAPS   O1120560   3.301   3.102   3.282 -0.4531  0.2229 -0.3280
  180SAPS    C120561   3.321   3.122   3.427 -0.6462 -0.0329  0.0588
  180SAPS    HA20562   3.249   3.199   3.462  0.3048  0.9754 -0.1513
  180SAPS    HB20563   3.297   3.029   3.484 -1.0446 -0.3561 -0.6125
  180SAPS    C220564   3.469   3.159   3.460  0.6135 -0.2628  0.0328
  180SAPS    HS20565   3.522   3.177   3.364  1.5066  0.8283  0.7137
  180SAPS   O2120566   3.526   3.058   3.540 -0.8588  0.3269  0.2167
  180SAPS   C2120567   3.650   3.033   3.509 -0.0246  0.1424  0.0254
  180SAPS   O2220568   3.723   3.096   3.439  0.3232 -0.6030  0.6191
  180SAPS   C2220569   3.696   2.914   3.590  0.6541 -0.4564 -0.5686
  180SAPS   H2R20570   3.723   2.963   3.686 -1.0751  1.3758 -0.9639
  180SAPS   H2S20571   3.616   2.839   3.609  1.7377 -1.7928 -1.0960
  180SAPS    C320572   3.472   3.298   3.533  0.0663  0.0196  1.0068
  180SAPS    HX20573   3.426   3.293   3.633  0.1287  0.9870  1.0912
  180SAPS    HY20574   3.403   3.366   3.478 -0.3007 -0.2323  1.1570
  180SAPS   O3120575   3.605   3.357   3.539  0.1666 -0.2554 -0.3012
  180SAPS   C3120576   3.653   3.407   3.425  0.1954 -0.0150  0.4900
  180SAPS   O3220577   3.595   3.405   3.320  0.2529  0.3770 -0.2418
  180SAPS   C3220578   3.791   3.465   3.451 -0.7313 -0.5607 -1.0042
  180SAPS   H2X20579   3.797   3.567   3.409 -0.2880  0.5780  1.5975
  180SAPS   H2Y20580   3.863   3.405   3.391  1.1193  0.5681 -0.0067
  180SAPS   C2320581   3.824   2.841   3.535 -0.1703  0.2153  0.1683
  180SAPS   H3R20582   3.912   2.907   3.553  1.7520 -2.2417  0.1599
  180SAPS   H3S20583   3.813   2.817   3.427  0.9869 -0.5894  0.2163
  180SAPS   C2420584   3.860   2.707   3.608 -0.2274  0.5908 -0.0368
  180SAPS   H4R20585   3.893   2.731   3.711  0.6874  0.9160 -0.3870
  180SAPS   H4S20586   3.949   2.666   3.555 -0.3549  0.1480  0.0915
  180SAPS   C2520587   3.742   2.611   3.593 -0.2785  0.0583  0.9366
  180SAPS   H5R20588   3.716   2.596   3.487 -4.7317  0.9389  1.7238
  180SAPS   C2620589   3.659   2.565   3.690 -0.6210  0.1577 -0.4860
  180SAPS   H6R20590   3.572   2.503   3.662 -0.7439  0.7525 -1.4769
  180SAPS   C2720591   3.693   2.581   3.835 -0.3817  0.0775  0.1379
  180SAPS   H7R20592   3.801   2.568   3.857 -0.4497 -0.1314  0.3563
  180SAPS   H7S20593   3.649   2.492   3.886 -0.6224 -1.0959 -2.0071
  180SAPS   C2820594   3.643   2.707   3.899  0.5406  0.2454 -0.3163
  180SAPS   H8R20595   3.681   2.802   3.859  1.5236  0.5175  1.1913
  180SAPS   C2920596   3.547   2.703   3.995 -0.1631 -0.0461 -0.4609
  180SAPS   H9R20597   3.519   2.806   4.024 -0.6510 -0.2779 -0.0957
  180SAPS  C21020598   3.492   2.592   4.081 -0.1592 -0.2997 -0.4363
  180SAPS  H10R20599   3.575   2.534   4.125  0.0252 -1.1471 -1.8440
  180SAPS  H10S20600   3.433   2.515   4.027  1.7446 -1.4609 -0.9132
  180SAPS  C21120601   3.411   2.649   4.197 -0.3679  0.9154 -0.0711
  180SAPS  H11R20602   3.305   2.648   4.167 -0.1306 -0.5869 -0.9834
  180SAPS  C21220603   3.451   2.665   4.325 -0.5141  0.0832  0.1852
  180SAPS  H12R20604   3.380   2.713   4.395 -0.8167 -0.1435  0.0384
  180SAPS  C21320605   3.579   2.647   4.397 -0.2014 -0.4194  0.0058
  180SAPS  H13R20606   3.613   2.748   4.431  2.3655 -0.2694 -2.5708
  180SAPS  H13S20607   3.658   2.612   4.327 -0.1725  1.6401 -1.0804
  180SAPS  C21420608   3.570   2.548   4.504  0.7684 -0.5066  0.4148
  180SAPS  H14R20609   3.566   2.445   4.466  1.8076 -0.3304 -0.1983
  180SAPS  C21520610   3.584   2.554   4.633  0.8789 -0.0898 -0.2936
  180SAPS  H15R20611   3.581   2.462   4.693  1.2638  0.3911  0.4920
  180SAPS  C21620612   3.592   2.683   4.704  0.5461  0.5577 -0.5554
  180SAPS  H16R20613   3.635   2.767   4.645  0.6246  0.3419 -0.8090
  180SAPS  H16S20614   3.667   2.663   4.783 -1.7766  0.9404  1.8763
  180SAPS  C21720615   3.458   2.735   4.760  0.4165  0.3304  0.4720
  180SAPS  H17R20616   3.414   2.654   4.822  0.6228  0.0484  0.2534
  180SAPS  H17S20617   3.393   2.751   4.671  2.5116  0.8662 -1.0602
  180SAPS  C21820618   3.479   2.859   4.847  0.1943 -0.2628 -0.2518
  180SAPS  H18R20619   3.381   2.910   4.860 -0.1518 -0.7107 -1.0251
  180SAPS  H18S20620   3.538   2.931   4.786 -0.8266  1.2074  0.4370
  180SAPS  C21920621   3.554   2.835   4.986 -0.1263  0.4883  0.2539
  180SAPS  H19R20622   3.535   2.914   5.061  2.3342  1.4591 -0.0577
  180SAPS  H19S20623   3.662   2.824   4.965 -0.2445 -1.6270  0.5316
  180SAPS  C22020624   3.522   2.696   5.066  0.4553 -0.7544 -0.5281
  180SAPS  H20R20625   3.420   2.700   5.109  0.5079  0.7742 -0.4765
  180SAPS  H20S20626   3.527   2.614   4.991  0.6671  0.2398 -1.6297
  180SAPS  H20T20627   3.592   2.684   5.152  0.2667  2.9358  0.3079
  180SAPS   C3320628   3.827   3.453   3.602  0.0482 -0.2910 -0.5488
  180SAPS   H3X20629   3.838   3.349   3.637 -3.3104 -0.5158  0.2063
  180SAPS   H3Y20630   3.748   3.493   3.669  1.5503  0.8514  0.6210
  180SAPS   C3420631   3.944   3.543   3.649  0.0537  0.0770 -0.1301
  180SAPS   H4X20632   3.924   3.647   3.616 -0.3136  0.0515  0.0148
  180SAPS   H4Y20633   4.036   3.511   3.596 -0.4898 -0.3710 -0.8148
  180SAPS   C3520634   3.946   3.539   3.809 -0.1257  0.8328  0.1863
  180SAPS   H5X20635   3.963   3.434   3.842  0.9783  0.7138 -0.7033
  180SAPS   H5Y20636   3.851   3.570   3.857 -1.1376 -0.2837 -1.0561
  180SAPS   C3620637   4.051   3.623   3.881 -0.2646 -0.3254 -0.1258
  180SAPS   H6X20638   4.027   3.731   3.872  2.6308  0.3147 -0.8883
  180SAPS   H6Y20639   4.149   3.616   3.831 -1.2330 -1.0026 -2.0265
  180SAPS   C3720640   4.058   3.593   4.031  0.0471 -1.1437  0.3855
  180SAPS   H7X20641   4.164   3.605   4.059  0.5623 -2.5290 -0.8059
  180SAPS   H7Y20642   4.030   3.487   4.051 -2.1666 -0.6126  0.4280
  180SAPS   C3820643   3.969   3.687   4.113  0.1058  0.0498 -0.8471
  180SAPS   H8X20644   3.860   3.679   4.091 -0.8516 -3.1603  3.6123
  180SAPS   H8Y20645   3.996   3.794   4.107  2.3975 -0.3241  1.1959
  180SAPS   C3920646   3.974   3.657   4.266 -0.2131  0.7153 -0.4549
  180SAPS   H9X20647   4.080   3.678   4.293  0.1112 -1.8845  0.5862
  180SAPS   H9Y20648   3.955   3.547   4.268 -0.8486  0.8263  0.0534
  180SAPS  C31020649   3.879   3.740   4.350  0.6726 -0.3579 -0.1188
  180SAPS  H10X20650   3.779   3.722   4.304  0.9225 -1.1577 -0.3608
  180SAPS  H10Y20651   3.904   3.849   4.351 -1.8134  0.2813 -0.5659
  180SAPS  C31120652   3.868   3.675   4.482  0.3781 -0.3046  0.3291
  180SAPS  H11X20653   3.957   3.635   4.536 -0.7305 -3.1699  0.2466
  180SAPS  H11Y20654   3.813   3.580   4.465 -2.3778  0.9136  1.8368
  180SAPS  C31220655   3.782   3.750   4.590 -0.0486 -0.2382 -0.0718
  180SAPS  H12X20656   3.689   3.798   4.551  0.1358  1.6436  1.6506
  180SAPS  H12Y20657   3.846   3.834   4.622 -0.0729 -0.4624  0.5851
  180SAPS  C31320658   3.739   3.668   4.714 -0.1495  0.5243  0.5370
  180SAPS  H13X20659   3.829   3.632   4.768 -0.3553  0.4210  0.8159
  180SAPS  H13Y20660   3.675   3.584   4.680 -0.7714  0.6258  1.4254
  180SAPS  C31420661   3.658   3.752   4.815  0.1258 -0.6449  0.4271
  180SAPS  H14X20662   3.585   3.804   4.750  0.3074 -1.4339 -0.4243
  180SAPS  H14Y20663   3.726   3.831   4.853 -1.7842  1.2754  0.0939
  180SAPS  C31520664   3.612   3.673   4.933 -0.0561  0.6946 -0.1482
  180SAPS  H15X20665   3.691   3.598   4.954 -0.1708  1.0269  1.5948
  180SAPS  H15Y20666   3.521   3.614   4.909 -0.3264  1.4783 -1.1070
  180SAPS  C31620667   3.578   3.762   5.056 -0.2016  0.4231  0.1410
  180SAPS  H16X20668   3.505   3.717   5.127  1.1500 -1.9106  0.1434
  180SAPS  H16Y20669   3.528   3.854   5.019 -1.8568 -0.0700  1.0203
  180SAPS  C31720670   3.702   3.792   5.147  0.7955 -0.7255  0.8664
  180SAPS  H17X20671   3.782   3.836   5.083 -1.1806  1.2810 -0.3376
  180SAPS  H17Y20672   3.739   3.698   5.194  0.0824 -1.0870  0.7063
  180SAPS  C31820673   3.680   3.895   5.261 -0.3989  0.2249 -0.4386
  180SAPS  H18X20674   3.769   3.899   5.327  0.3466  0.2757 -1.4268
  180SAPS  H18Y20675   3.594   3.862   5.322  0.0897 -0.7169 -0.2385
  180SAPS  H18Z20676   3.651   3.991   5.213  3.0885  1.9915  0.6296
  181POPC     N20677   6.132   2.758   7.270 -0.0055 -0.1849  0.1832
  181POPC   C1220678   6.165   2.786   7.118 -0.0443 -0.2063 -0.2013
  181POPC  H12A20679   6.120   2.703   7.065  0.0596 -0.8857  0.7521
  181POPC  H12B20680   6.272   2.775   7.102 -0.1578 -1.4064 -0.2478
  181POPC   C1320681   6.136   2.614   7.293  0.0392 -0.7569  0.1047
  181POPC  H13A20682   6.063   2.556   7.239 -0.4631 -2.0969  2.0963
  181POPC  H13B20683   6.232   2.575   7.263 -0.1541 -0.0584 -1.5312
  181POPC  H13C20684   6.117   2.588   7.396  1.8240 -0.4525  0.5573
  181POPC   C1420685   6.225   2.834   7.364  0.2158 -0.1310 -0.0315
  181POPC  H14A20686   6.326   2.796   7.359  0.7034  1.1106 -0.1838
  181POPC  H14B20687   6.234   2.939   7.338 -0.4770 -0.1661 -0.4577
  181POPC  H14C20688   6.184   2.831   7.463 -0.5264  4.5644  0.0617
  181POPC   C1520689   5.993   2.806   7.309 -0.4613 -0.4891 -0.0069
  181POPC  H15A20690   5.982   2.910   7.339  0.2916 -0.6370  0.7923
  181POPC  H15B20691   5.965   2.740   7.389  1.2667 -1.8445 -0.4760
  181POPC  H15C20692   5.914   2.786   7.237 -2.2657  1.8189  1.1845
  181POPC   C1120693   6.112   2.916   7.046 -0.0358  0.1729 -0.1732
  181POPC  H11A20694   6.003   2.924   7.029  0.2668  0.3876 -2.2294
  181POPC  H11B20695   6.156   2.898   6.946 -2.2747  0.9683 -1.3617
  181POPC     P20696   6.104   3.154   7.156 -0.0265  0.2711 -0.2946
  181POPC   O1320697   6.198   3.255   7.209 -0.0972  0.2299 -0.3398
  181POPC   O1420698   6.009   3.100   7.251 -0.1934 -0.6728  0.0585
  181POPC   O1220699   6.181   3.029   7.097  0.0517 -0.1529 -0.6085
  181POPC   O1120700   6.030   3.209   7.024 -0.2032 -0.2191  0.2322
  181POPC    C120701   6.108   3.230   6.904 -0.4327  0.1354 -0.6092
  181POPC    HA20702   6.155   3.132   6.879  0.5204  0.3793  0.1531
  181POPC    HB20703   6.187   3.306   6.921  1.4959 -1.8529 -0.1999
  181POPC    C220704   6.030   3.260   6.777 -0.3017  0.4419  0.0226
  181POPC    HS20705   5.993   3.364   6.788 -1.6652  0.1086 -1.1058
  181POPC   O2120706   5.921   3.166   6.765  0.5643 -0.4572 -0.4793
  181POPC   C2120707   5.811   3.218   6.716 -0.0217  0.0315 -0.2356
  181POPC   O2220708   5.789   3.338   6.690  0.3399 -0.1974  0.2662
  181POPC   C2220709   5.710   3.102   6.690 -0.1940 -0.9087 -0.3487
  181POPC   H2R20710   5.635   3.113   6.771  0.5327  0.0642  0.2183
  181POPC   H2S20711   5.765   3.006   6.685  2.2029  0.4063 -0.8241
  181POPC    C320712   6.126   3.254   6.653  0.1029 -0.3113  0.2834
  181POPC    HX20713   6.156   3.147   6.648  1.3969 -0.2291  3.6618
  181POPC    HY20714   6.219   3.307   6.683  0.0788 -1.6369  2.9498
  181POPC   O3120715   6.074   3.307   6.529  0.6668 -0.3117 -0.3799
  181POPC   C3120716   6.017   3.433   6.533 -0.5217 -0.1289 -0.1667
  181POPC   O3220717   6.036   3.514   6.620  0.2569  0.1278  0.5271
  181POPC   C3220718   5.946   3.462   6.398  0.0253 -0.0254  0.1380
  181POPC   H2X20719   5.932   3.572   6.397 -0.2290 -0.0478  0.9563
  181POPC   H2Y20720   5.849   3.409   6.397 -0.2567  0.4829 -0.8591
  181POPC   C2320721   5.655   3.125   6.549 -0.4056  0.2709  0.1524
  181POPC   H3R20722   5.590   3.214   6.532 -2.0399 -0.8569  0.3072
  181POPC   H3S20723   5.583   3.044   6.526  1.8813 -1.1551 -2.5179
  181POPC   C2420724   5.756   3.102   6.432  0.8452 -1.0955  0.1389
  181POPC   H4R20725   5.784   2.995   6.440  0.0848 -1.3530 -0.5747
  181POPC   H4S20726   5.842   3.173   6.435  0.1406 -0.2386  1.5578
  181POPC   C2520727   5.679   3.132   6.298  0.7542 -0.4200 -0.5428
  181POPC   H5R20728   5.642   3.237   6.301 -0.5275 -0.6971 -3.3131
  181POPC   H5S20729   5.592   3.065   6.289  0.3039 -0.3339  2.3163
  181POPC   C2620730   5.762   3.131   6.168 -0.8028 -0.2850 -0.6941
  181POPC   H6R20731   5.841   3.208   6.166 -0.1966 -0.8990 -1.4355
  181POPC   H6S20732   5.684   3.150   6.090 -1.3851 -0.1387 -0.0823
  181POPC   C2720733   5.820   2.990   6.133 -0.4154 -0.3606 -0.4041
  181POPC   H7R20734   5.734   2.922   6.117  0.4250 -2.5886  3.3650
  181POPC   H7S20735   5.885   2.944   6.211  2.3543 -0.8712 -2.8188
  181POPC   C2820736   5.910   2.992   6.001 -0.3534  0.6726  0.3466
  181POPC   H8R20737   5.848   3.056   5.934 -0.3960 -0.0448 -0.3055
  181POPC   H8S20738   5.909   2.885   5.971  0.2294  0.2181  1.8307
  181POPC   C2920739   6.045   3.055   6.022  0.0717  0.0272 -0.2305
  181POPC   H9120740   6.078   3.059   6.126 -1.9072  0.9988  0.4108
  181POPC  C21020741   6.122   3.104   5.920  0.0800  0.0261 -0.0641
  181POPC  H10120742   6.224   3.139   5.943  0.7791 -1.7238 -0.3134
  181POPC  C21120743   6.094   3.098   5.771  0.5868 -0.4413 -0.4365
  181POPC  H11R20744   5.990   3.070   5.747  0.1241 -2.0132  2.8252
  181POPC  H11S20745   6.159   3.019   5.727 -0.5672 -0.6373 -1.8588
  181POPC  C21220746   6.123   3.244   5.718  0.2482  0.1489  0.1963
  181POPC  H12R20747   6.226   3.277   5.743  0.4058 -0.3667  0.2404
  181POPC  H12S20748   6.053   3.319   5.762  0.6615  0.2418  0.7000
  181POPC  C21320749   6.099   3.260   5.560 -0.0680  1.1153  0.2761
  181POPC  H13R20750   6.103   3.368   5.535  0.5596  1.5775  2.1352
  181POPC  H13S20751   6.002   3.232   5.514 -0.1808  0.0694  1.0994
  181POPC  C21420752   6.217   3.202   5.484  0.5165 -0.5046 -0.0561
  181POPC  H14R20753   6.208   3.092   5.471  1.5685 -0.3711 -2.2385
  181POPC  H14S20754   6.310   3.222   5.542 -0.1792 -0.8625  1.2147
  181POPC  C21520755   6.220   3.250   5.336  0.0110  0.1746  0.0807
  181POPC  H15R20756   6.302   3.197   5.284  0.8343 -0.4107  1.9030
  181POPC  H15S20757   6.252   3.357   5.342  0.6005  0.1563 -1.8335
  181POPC  C21620758   6.087   3.245   5.259  0.6232  0.3345  0.1486
  181POPC  H16R20759   6.023   3.327   5.298 -2.2776 -2.2217  1.1572
  181POPC  H16S20760   6.038   3.146   5.269 -3.2288  2.1052  0.5422
  181POPC  C21720761   6.104   3.276   5.104  0.1149  0.1808  0.0459
  181POPC  H17R20762   6.139   3.379   5.084 -0.1647  0.2837  0.0776
  181POPC  H17S20763   6.001   3.279   5.062  1.0594  1.1532 -2.3187
  181POPC  C21820764   6.179   3.179   5.023  0.1122 -0.2663 -1.1931
  181POPC  H18R20765   6.130   3.079   5.021 -2.6814  1.0018 -1.9681
  181POPC  H18S20766   6.285   3.176   5.055  0.1822  0.0186 -1.3901
  181POPC  H18T20767   6.197   3.212   4.919  0.9301 -2.0581 -1.6514
  181POPC   C3320768   6.022   3.405   6.277  0.4226  0.1188 -0.5563
  181POPC   H3X20769   5.949   3.409   6.194  0.5037 -0.8804 -0.6873
  181POPC   H3Y20770   6.046   3.297   6.290 -0.4355  0.0094  0.2143
  181POPC   C3420771   6.148   3.485   6.239  0.0338  0.4413 -0.1696
  181POPC   H4X20772   6.224   3.469   6.318  2.5091  0.5773 -2.3668
  181POPC   H4Y20773   6.115   3.590   6.250  0.0096  0.2649  1.7726
  181POPC   C3520774   6.222   3.471   6.102  0.4138  0.3056 -0.1603
  181POPC   H5X20775   6.158   3.510   6.020  0.3972 -1.5045 -1.0451
  181POPC   H5Y20776   6.247   3.364   6.088 -0.1534  0.1338  0.1161
  181POPC   C3620777   6.351   3.546   6.103 -0.4007 -0.1042 -0.1278
  181POPC   H6X20778   6.422   3.484   6.161 -0.7772  1.8281  2.5715
  181POPC   H6Y20779   6.348   3.646   6.151  5.2621 -1.0002  2.9201
  181POPC   C3720780   6.409   3.565   5.963  0.4832 -0.9874 -0.2483
  181POPC   H7X20781   6.506   3.620   5.964  0.7636 -1.4650  1.0038
  181POPC   H7Y20782   6.334   3.616   5.899 -0.4736 -1.4858  0.4656
  181POPC   C3820783   6.455   3.439   5.884 -0.0339  0.4169  0.3191
  181POPC   H8X20784   6.370   3.369   5.871 -0.1423  0.9215 -2.2204
  181POPC   H8Y20785   6.536   3.399   5.948  0.4092 -1.8799 -1.5364
  181POPC   C3920786   6.517   3.467   5.746 -0.5795 -0.5581  1.2186
  181POPC   H9X20787   6.545   3.369   5.700 -1.3279  1.5746 -4.6486
  181POPC   H9Y20788   6.612   3.524   5.745  1.1237 -3.1343 -1.0943
  181POPC  C31020789   6.410   3.526   5.650 -0.3446  0.2719  0.0912
  181POPC  H10X20790   6.368   3.619   5.694  1.3310  0.7159  0.8272
  181POPC  H10Y20791   6.326   3.455   5.635 -1.4585  1.4655  0.5065
  181POPC  C31120792   6.469   3.553   5.506  0.0798 -0.6362  0.2916
  181POPC  H11X20793   6.505   3.456   5.466  0.4632 -0.3139 -0.1409
  181POPC  H11Y20794   6.555   3.622   5.514 -1.4735  1.3843  0.5353
  181POPC  C31220795   6.351   3.607   5.416  0.2632 -0.4325  1.1000
  181POPC  H12X20796   6.297   3.695   5.458 -1.4720 -1.2680  0.7003
  181POPC  H12Y20797   6.275   3.526   5.416  0.5685 -0.7207  1.0953
  181POPC  C31320798   6.389   3.641   5.267  0.1595 -0.4450 -0.2708
  181POPC  H13X20799   6.297   3.678   5.216  0.8742  1.4480 -0.2600
  181POPC  H13Y20800   6.419   3.551   5.210  0.8860 -0.4957  0.1778
  181POPC  C31420801   6.501   3.751   5.254 -0.8417  0.1170 -0.4233
  181POPC  H14X20802   6.530   3.771   5.149  1.9566  1.6010  0.5463
  181POPC  H14Y20803   6.585   3.705   5.310  0.6831  3.2506  0.0516
  181POPC  C31520804   6.477   3.887   5.321 -0.5264 -0.0637  0.2343
  181POPC  H15X20805   6.564   3.951   5.297  0.3057 -0.9565  0.8254
  181POPC  H15Y20806   6.483   3.867   5.430 -0.1849  3.1110  0.8851
  181POPC  C31620807   6.342   3.968   5.296  0.0033  0.3095 -0.5605
  181POPC  H16X20808   6.261   3.906   5.339  2.4344 -0.8064  2.8604
  181POPC  H16Y20809   6.334   3.974   5.186 -1.3695 -1.5146 -0.5995
  181POPC  H16Z20810   6.351   4.069   5.342 -0.4070  0.0059  0.2137
  182POPC     N20811   2.448   0.784   7.335 -0.0454  0.0765 -0.4114
  182POPC   C1220812   2.363   0.753   7.217  0.0679  0.2590  0.1621
  182POPC  H12A20813   2.296   0.669   7.225 -3.0340  2.4503 -0.7656
  182POPC  H12B20814   2.425   0.724   7.134 -0.1841 -0.7880  0.3299
  182POPC   C1320815   2.500   0.921   7.322  0.3025 -0.3055  0.0441
  182POPC  H13A20816   2.421   0.994   7.312  2.1135  1.8432  0.6047
  182POPC  H13B20817   2.550   0.955   7.411 -1.0456  0.6649  0.4618
  182POPC  H13C20818   2.572   0.926   7.242 -1.6556  1.8034 -1.7302
  182POPC   C1420819   2.367   0.773   7.464 -0.7630  0.1131  0.6446
  182POPC  H14A20820   2.429   0.776   7.552  1.6522  1.3730 -0.9801
  182POPC  H14B20821   2.295   0.853   7.475 -0.5001  0.4708 -0.0992
  182POPC  H14C20822   2.319   0.677   7.463 -1.6484  0.5531  0.2921
  182POPC   C1520823   2.557   0.679   7.334 -0.5887 -0.0880  0.2609
  182POPC  H15A20824   2.617   0.696   7.246 -0.5330 -1.7772 -0.0746
  182POPC  H15B20825   2.523   0.577   7.349 -0.6026  0.0240  1.0189
  182POPC  H15C20826   2.630   0.695   7.412 -2.2241 -0.9870  2.0801
  182POPC   C1120827   2.260   0.855   7.169 -0.3226 -0.0885  0.2355
  182POPC  H11A20828   2.207   0.808   7.084 -0.3386 -1.6872  1.0954
  182POPC  H11B20829   2.312   0.943   7.125 -0.4144 -0.9605 -1.6911
  182POPC     P20830   2.098   1.008   7.301 -0.7087 -0.0811 -0.0986
  182POPC   O1320831   2.210   1.111   7.305  0.9296  0.3597  0.1618
  182POPC   O1420832   2.015   0.991   7.423 -0.6890  0.5091  0.2289
  182POPC   O1220833   2.160   0.870   7.270 -0.3162 -0.5851 -0.1827
  182POPC   O1120834   2.007   1.033   7.176 -0.2921 -0.0955  0.5915
  182POPC    C120835   1.895   0.944   7.155 -0.1339  0.2398  0.3311
  182POPC    HA20836   1.818   0.958   7.234 -0.0660 -0.8018  0.5962
  182POPC    HB20837   1.922   0.836   7.149 -1.5419 -0.1885  1.1533
  182POPC    C220838   1.814   0.974   7.024 -0.3289  0.4337  0.2245
  182POPC    HS20839   1.726   0.908   7.017 -0.3943  0.5469 -0.0604
  182POPC   O2120840   1.903   0.958   6.912  0.4246 -0.5266  0.4643
  182POPC   C2120841   1.946   0.840   6.887  0.2254  0.1605 -0.1598
  182POPC   O2220842   1.912   0.739   6.951  0.1094  0.1029  0.1331
  182POPC   C2220843   2.025   0.846   6.759 -0.6175  0.0860  0.8402
  182POPC   H2R20844   2.108   0.921   6.758 -1.3876  0.9884 -1.1595
  182POPC   H2S20845   1.965   0.872   6.669  0.8398 -2.3957 -0.9838
  182POPC    C320846   1.758   1.119   7.022 -0.6660  0.1168 -0.1973
  182POPC    HX20847   1.848   1.181   7.042  1.0451 -1.4747 -2.4891
  182POPC    HY20848   1.699   1.135   7.115  2.1532  1.2877  1.5244
  182POPC   O3120849   1.699   1.155   6.897 -0.0524  0.2328 -0.1213
  182POPC   C3120850   1.697   1.282   6.869 -0.7310  0.5579 -0.3820
  182POPC   O3220851   1.731   1.375   6.947 -0.6051 -0.7728  0.3526
  182POPC   C3220852   1.633   1.303   6.734 -0.4530 -0.0839  0.4790
  182POPC   H2X20853   1.553   1.380   6.739 -2.6721 -2.2943  1.1396
  182POPC   H2Y20854   1.590   1.207   6.700  2.3854 -1.1628 -0.3527
  182POPC   C2320855   2.073   0.707   6.721 -0.8984  0.0158 -0.1424
  182POPC   H3R20856   1.989   0.638   6.701 -0.6031 -0.0744 -1.1449
  182POPC   H3S20857   2.128   0.672   6.811 -0.5149  2.6173  0.7454
  182POPC   C2420858   2.170   0.710   6.603 -0.4243  0.3105  0.5830
  182POPC   H4R20859   2.247   0.635   6.631  1.3764  1.9210  0.1951
  182POPC   H4S20860   2.226   0.806   6.599  0.2236  0.0002  1.7985
  182POPC   C2520861   2.103   0.671   6.474  0.6046  0.5868 -0.4602
  182POPC   H5R20862   2.056   0.765   6.437 -0.5098  1.0201  1.8688
  182POPC   H5S20863   2.017   0.604   6.494 -0.5234  1.9870 -0.4183
  182POPC   C2620864   2.194   0.616   6.361  0.0266 -0.3881  0.2251
  182POPC   H6R20865   2.245   0.524   6.395  1.1387 -0.1168 -0.6613
  182POPC   H6S20866   2.274   0.691   6.349 -2.0229  1.6712 -1.6328
  182POPC   C2720867   2.122   0.588   6.227 -0.3728  0.4441  0.1983
  182POPC   H7R20868   2.075   0.679   6.184 -0.4993  0.0183 -0.5803
  182POPC   H7S20869   2.050   0.505   6.244 -0.4158  0.6057  0.8473
  182POPC   C2820870   2.221   0.548   6.116 -0.1078  0.9125 -0.2344
  182POPC   H8R20871   2.293   0.471   6.152  1.1686  2.0531 -0.2591
  182POPC   H8S20872   2.294   0.628   6.096 -0.4708  0.5321 -3.5578
  182POPC   C2920873   2.146   0.506   5.994  0.0815 -0.7895  0.4559
  182POPC   H9120874   2.060   0.444   6.025  0.2767 -0.5263  1.5783
  182POPC  C21020875   2.178   0.541   5.865 -0.1756  0.2869 -0.1232
  182POPC  H10120876   2.110   0.510   5.784 -0.9378 -2.3020  1.3879
  182POPC  C21120877   2.286   0.636   5.820  0.2224  0.2634 -0.7855
  182POPC  H11R20878   2.379   0.631   5.880 -0.1752 -0.0480 -0.1877
  182POPC  H11S20879   2.251   0.742   5.825  2.7819  1.1661 -0.7873
  182POPC  C21220880   2.326   0.598   5.674 -0.8542  0.9814  0.3426
  182POPC  H12R20881   2.400   0.671   5.634  2.0144 -1.7598  0.2340
  182POPC  H12S20882   2.235   0.604   5.610 -1.0760 -0.4174  0.4850
  182POPC  C21320883   2.395   0.461   5.655 -0.2839 -0.2914  0.4055
  182POPC  H13R20884   2.343   0.370   5.691  0.2198 -0.3577  0.9775
  182POPC  H13S20885   2.497   0.468   5.699  0.6777 -1.5427 -1.4965
  182POPC  C21420886   2.440   0.442   5.508 -0.0949 -0.4926  0.3966
  182POPC  H14R20887   2.503   0.350   5.505  0.9702  0.2207  0.1017
  182POPC  H14S20888   2.515   0.519   5.480  2.5633 -2.1074  2.5140
  182POPC  C21520889   2.330   0.432   5.404 -0.3358  0.4010  0.1736
  182POPC  H15R20890   2.273   0.525   5.384 -2.8595 -1.2357 -0.7089
  182POPC  H15S20891   2.266   0.356   5.453  1.9679 -0.5062  1.9702
  182POPC  C21620892   2.391   0.367   5.275  0.0779  0.5681  0.5825
  182POPC  H16R20893   2.428   0.266   5.302  0.3681  0.5283  0.0327
  182POPC  H16S20894   2.477   0.427   5.239 -0.4924  0.7442 -0.5297
  182POPC  C21720895   2.295   0.345   5.161 -0.9016 -0.4267  0.0966
  182POPC  H17R20896   2.358   0.282   5.095  1.2612  1.2367  0.4558
  182POPC  H17S20897   2.269   0.440   5.109  0.1565 -0.2596 -0.1422
  182POPC  C21820898   2.175   0.268   5.211  0.0994 -0.0301  0.0588
  182POPC  H18R20899   2.103   0.336   5.261  1.5021  0.9720  0.7963
  182POPC  H18S20900   2.216   0.189   5.278 -0.5976 -2.3228 -2.0538
  182POPC  H18T20901   2.133   0.207   5.128  1.3983 -1.6426  0.5221
  182POPC   C3320902   1.734   1.345   6.619 -0.7668  0.1579  0.0483
  182POPC   H3X20903   1.821   1.277   6.629 -1.1336 -0.3588 -0.2891
  182POPC   H3Y20904   1.786   1.439   6.649  1.9943 -1.3611  0.3914
  182POPC   C3420905   1.681   1.355   6.478 -0.2770  0.4481  0.2386
  182POPC   H4X20906   1.637   1.456   6.471  2.1211  1.7363  2.1219
  182POPC   H4Y20907   1.604   1.278   6.455 -0.1639  0.9631 -2.2074
  182POPC   C3520908   1.788   1.327   6.369 -0.1944  0.1905 -0.2822
  182POPC   H5X20909   1.817   1.220   6.362 -1.0615  0.0093 -1.3585
  182POPC   H5Y20910   1.871   1.390   6.408  0.4497 -0.7340 -0.1068
  182POPC   C3620911   1.746   1.386   6.237  0.1581  0.2776 -0.2248
  182POPC   H6X20912   1.733   1.496   6.243  0.6349  0.2720  1.3403
  182POPC   H6Y20913   1.654   1.333   6.204  0.4232  0.9566 -2.2058
  182POPC   C3720914   1.844   1.369   6.116 -0.6437  0.5354  0.0954
  182POPC   H7X20915   1.836   1.262   6.087 -1.3579 -0.2365  2.8012
  182POPC   H7Y20916   1.948   1.382   6.154 -0.1492  0.5846 -1.2426
  182POPC   C3820917   1.826   1.455   5.997  0.0681 -0.2918 -0.2053
  182POPC   H8X20918   1.916   1.426   5.939  0.2320 -1.3480  0.5307
  182POPC   H8Y20919   1.824   1.561   6.028 -2.4981 -0.8144  1.7570
  182POPC   C3920920   1.698   1.419   5.925 -0.1122 -0.0043 -0.0901
  182POPC   H9X20921   1.617   1.468   5.982  0.3808  0.9490 -0.1983
  182POPC   H9Y20922   1.680   1.309   5.916  1.9644 -0.2574 -2.2847
  182POPC  C31020923   1.695   1.463   5.774 -0.1550  1.0636 -0.4725
  182POPC  H10X20924   1.796   1.459   5.727 -0.1615 -0.3177 -0.3993
  182POPC  H10Y20925   1.662   1.567   5.755  0.9593  1.1107 -2.4270
  182POPC  C31120926   1.615   1.372   5.676  0.1398  0.3237 -0.4226
  182POPC  H11X20927   1.513   1.363   5.717  0.7777 -1.0908  0.9461
  182POPC  H11Y20928   1.650   1.268   5.694 -2.1916  0.0920  4.0153
  182POPC  C31220929   1.610   1.428   5.529 -0.1471 -0.3763 -0.1349
  182POPC  H12X20930   1.713   1.438   5.489  1.3593 -2.0986  2.9207
  182POPC  H12Y20931   1.560   1.525   5.547 -0.8153 -1.0168  1.7004
  182POPC  C31320932   1.517   1.350   5.434 -0.8642  0.5109 -0.0369
  182POPC  H13X20933   1.408   1.371   5.441 -1.3414 -2.1083  1.6695
  182POPC  H13Y20934   1.528   1.251   5.484 -0.9174  0.8338  0.6186
  182POPC  C31420935   1.577   1.334   5.295  0.4897 -0.3726  0.1612
  182POPC  H14X20936   1.684   1.305   5.302  0.6830  0.3478  0.2207
  182POPC  H14Y20937   1.584   1.427   5.235 -1.2896 -1.1437 -1.3257
  182POPC  C31520938   1.512   1.227   5.201  0.0332  0.0913  0.5212
  182POPC  H15X20939   1.401   1.234   5.197 -0.0073  0.2037  1.5868
  182POPC  H15Y20940   1.530   1.126   5.244  1.3913  0.0818 -0.0024
  182POPC  C31620941   1.571   1.244   5.059  0.0368  0.6500  0.6812
  182POPC  H16X20942   1.681   1.248   5.074  0.5603  0.1096 -2.3634
  182POPC  H16Y20943   1.527   1.341   5.029 -0.7346  0.5703  1.4876
  182POPC  H16Z20944   1.548   1.160   4.990 -1.6655  1.7229 -0.1252
  183POPC     N20945   3.027   0.173   7.583  0.1619  0.3732 -0.6823
  183POPC   C1220946   2.954   0.304   7.564 -0.6198 -0.3480 -0.0445
  183POPC  H12A20947   2.990   0.385   7.626 -1.6782  1.2304 -1.3921
  183POPC  H12B20948   2.856   0.297   7.608 -1.2677  1.2032 -1.1550
  183POPC   C1320949   3.146   0.169   7.495 -0.0912 -0.4984  0.1888
  183POPC  H13A20950   3.132   0.163   7.388  4.0925  2.7975 -0.8375
  183POPC  H13B20951   3.208   0.258   7.505 -0.7780 -0.0849  0.8240
  183POPC  H13C20952   3.219   0.096   7.525 -0.1345  0.1092  1.8694
  183POPC   C1420953   3.073   0.157   7.728  0.4573  0.5047 -0.3735
  183POPC  H14A20954   2.986   0.165   7.792  0.1428  2.6335 -0.9785
  183POPC  H14B20955   3.117   0.059   7.740 -1.9603 -0.7100 -0.6065
  183POPC  H14C20956   3.147   0.232   7.748  1.0990  0.6361 -2.8820
  183POPC   C1520957   2.933   0.061   7.559  0.7340 -0.4169  0.1863
  183POPC  H15A20958   2.856   0.060   7.634  0.2815 -0.2577 -0.2733
  183POPC  H15B20959   2.970  -0.039   7.539  0.3392  0.0332 -3.4530
  183POPC  H15C20960   2.885   0.077   7.464  0.7741 -0.6374  0.1281
  183POPC   C1120961   2.956   0.352   7.419  0.4813 -0.9589  0.2572
  183POPC  H11A20962   2.929   0.265   7.356 -0.1179 -2.2911  2.2645
  183POPC  H11B20963   3.062   0.375   7.394  0.6058 -3.2837 -1.7893
  183POPC     P20964   2.905   0.596   7.373  0.1237 -0.1630  0.2982
  183POPC   O1320965   3.052   0.604   7.375 -0.0800  0.2247  0.6919
  183POPC   O1420966   2.828   0.692   7.458 -0.0754 -0.1307  0.0096
  183POPC   O1220967   2.851   0.453   7.412 -0.1717  0.1310  0.0157
  183POPC   O1120968   2.849   0.605   7.229 -0.2529  0.1180 -0.0122
  183POPC    C120969   2.809   0.502   7.139 -0.0553 -0.9633 -0.1367
  183POPC    HA20970   2.705   0.526   7.107  0.4990  4.0758  0.9896
  183POPC    HB20971   2.823   0.403   7.186  2.3992 -0.5338  0.1344
  183POPC    C220972   2.875   0.505   6.998  0.8129  0.1627 -0.0766
  183POPC    HS20973   2.982   0.477   7.009  0.3176 -1.5375  0.7565
  183POPC   O2120974   2.856   0.636   6.941 -0.4098  0.0536 -0.8679
  183POPC   C2120975   2.953   0.670   6.856 -0.6905  0.0479  0.4908
  183POPC   O2220976   3.053   0.604   6.831  0.5799 -0.4883 -0.2896
  183POPC   C2220977   2.900   0.790   6.775  0.0865  0.2005 -0.3873
  183POPC   H2R20978   2.978   0.868   6.761 -0.4943  0.5742 -1.7853
  183POPC   H2S20979   2.814   0.835   6.830  0.1039  0.2014 -0.3612
  183POPC    C320980   2.823   0.394   6.901  0.7693  0.3235 -0.0478
  183POPC    HX20981   2.714   0.404   6.883  0.8855 -1.0083 -1.7892
  183POPC    HY20982   2.826   0.296   6.954  2.1087  1.0210  1.2199
  183POPC   O3120983   2.886   0.393   6.771 -0.2684  0.2680 -0.6488
  183POPC   C3120984   2.992   0.309   6.764  0.5728 -0.2293 -0.3830
  183POPC   O3220985   3.010   0.216   6.839  0.6058 -0.7546 -0.1049
  183POPC   C3220986   3.063   0.341   6.631 -0.0091 -0.3901  0.2767
  183POPC   H2X20987   3.171   0.358   6.654 -0.3177  0.4393  1.1781
  183POPC   H2Y20988   3.015   0.434   6.595  0.6773  0.4538  1.4611
  183POPC   C2320989   2.864   0.751   6.633 -0.2433  0.3434  0.0276
  183POPC   H3R20990   2.957   0.716   6.584 -1.3693 -0.5408 -1.5907
  183POPC   H3S20991   2.830   0.840   6.576  0.4898 -0.7682 -2.2540
  183POPC   C2420992   2.751   0.641   6.621 -0.4817  0.6456  0.4036
  183POPC   H4R20993   2.682   0.648   6.708  0.4813 -1.1430  1.3686
  183POPC   H4S20994   2.792   0.538   6.611 -1.9769  0.1413 -0.8718
  183POPC   C2520995   2.673   0.670   6.493 -0.0766 -0.7672 -0.2884
  183POPC   H5R20996   2.657   0.778   6.473 -0.7224 -0.7246  0.4344
  183POPC   H5S20997   2.575   0.624   6.514 -0.8433  0.8838 -0.0974
  183POPC   C2620998   2.742   0.606   6.371 -0.7442 -0.3339  0.1216
  183POPC   H6R20999   2.739   0.496   6.382  3.2169 -0.5287  0.6274
  183POPC   H6S21000   2.849   0.635   6.364 -0.6235 -0.8113 -0.0391
  183POPC   C2721001   2.680   0.653   6.233  0.2797  0.7573 -0.1058
  183POPC   H7R21002   2.698   0.762   6.218 -0.4202  0.8327 -0.4674
  183POPC   H7S21003   2.569   0.647   6.243  0.2382 -0.0162 -0.9563
  183POPC   C2821004   2.721   0.561   6.111  0.1080  0.0544  0.2411
  183POPC   H8R21005   2.710   0.451   6.123 -0.2621  0.1476  0.7719
  183POPC   H8S21006   2.830   0.570   6.093  0.1472 -0.4985  0.1915
  183POPC   C2921007   2.645   0.611   5.991  0.1421 -0.5462  0.4834
  183POPC   H9121008   2.535   0.604   5.991  0.2090 -2.1531 -0.2506
  183POPC  C21021009   2.710   0.649   5.876  0.6052 -0.4300  0.2889
  183POPC  H10121010   2.652   0.676   5.787 -1.4068 -1.1554  1.3117
  183POPC  C21121011   2.854   0.654   5.843 -0.5525 -0.3963  0.8040
  183POPC  H11R21012   2.888   0.554   5.879 -0.7190 -0.8583 -0.2837
  183POPC  H11S21013   2.918   0.718   5.907 -0.1474 -0.1470  0.1555
  183POPC  C21221014   2.888   0.668   5.696  0.4092 -0.0632  0.4412
  183POPC  H12R21015   2.999   0.665   5.686  0.6117 -0.4142  2.3304
  183POPC  H12S21016   2.848   0.763   5.654  0.4243 -0.6781 -1.0487
  183POPC  C21321017   2.830   0.555   5.603  0.5593 -0.3170 -0.1722
  183POPC  H13R21018   2.722   0.557   5.629  1.0729  0.7879  2.1718
  183POPC  H13S21019   2.880   0.462   5.637  2.7910  1.2168  0.9845
  183POPC  C21421020   2.855   0.578   5.453  0.6149 -0.3997  0.7415
  183POPC  H14R21021   2.817   0.682   5.440  1.0078 -0.2235  0.9755
  183POPC  H14S21022   2.792   0.507   5.397 -2.4836  2.6920 -0.0657
  183POPC  C21521023   2.999   0.582   5.410 -0.2246  0.2084 -1.0052
  183POPC  H15R21024   3.039   0.479   5.416 -3.8042 -1.2196  2.4710
  183POPC  H15S21025   3.067   0.635   5.480  0.2927  0.2642 -1.5439
  183POPC  C21621026   3.028   0.644   5.268  0.2239 -0.0606 -0.2954
  183POPC  H16R21027   3.003   0.750   5.287 -2.8995 -0.4894 -1.4488
  183POPC  H16S21028   2.948   0.619   5.195 -2.2100  0.2974  2.0833
  183POPC  C21721029   3.172   0.623   5.211  0.0586  0.0882 -0.6469
  183POPC  H17R21030   3.190   0.514   5.200 -1.6449 -0.1291 -1.5497
  183POPC  H17S21031   3.253   0.665   5.274 -0.2195  0.1981 -0.3638
  183POPC  C21821032   3.195   0.682   5.070  0.3199  0.3774 -0.2492
  183POPC  H18R21033   3.194   0.793   5.063  3.6972  0.4939 -0.3524
  183POPC  H18S21034   3.118   0.644   4.999 -0.0366 -1.6949  1.1642
  183POPC  H18T21035   3.293   0.647   5.033 -0.3866 -1.2637 -0.6693
  183POPC   C3321036   3.049   0.217   6.539  0.1192  0.2005  0.3494
  183POPC   H3X21037   3.085   0.131   6.599  2.0661  0.7993  0.1034
  183POPC   H3Y21038   3.125   0.226   6.458  0.6853  2.2523  1.0389
  183POPC   C3421039   2.904   0.207   6.494 -0.6848  0.0856  0.2758
  183POPC   H4X21040   2.868   0.307   6.464 -0.9427  0.2510  1.1165
  183POPC   H4Y21041   2.843   0.169   6.579 -2.8857  1.7103 -0.4698
  183POPC   C3521042   2.885   0.121   6.372  0.6247 -0.0229  0.3351
  183POPC   H5X21043   2.918   0.017   6.391  0.5508 -0.1707 -0.3101
  183POPC   H5Y21044   2.959   0.162   6.301 -1.8507  1.6962 -1.4162
  183POPC   C3621045   2.753   0.143   6.294 -0.0278  0.0478 -0.6406
  183POPC   H6X21046   2.749   0.253   6.285  1.3204  0.1056 -0.7713
  183POPC   H6Y21047   2.673   0.103   6.360  1.1197 -1.8051 -0.3037
  183POPC   C3721048   2.739   0.079   6.158  0.2798  0.1053 -0.3299
  183POPC   H7X21049   2.766  -0.028   6.169  1.0935  0.4838  1.6995
  183POPC   H7Y21050   2.809   0.135   6.092  1.4398  1.2195  1.7424
  183POPC   C3821051   2.596   0.087   6.102 -0.5831  0.3698 -0.1292
  183POPC   H8X21052   2.553   0.182   6.142 -1.5789  0.5154 -1.4777
  183POPC   H8Y21053   2.538   0.005   6.151 -0.9618 -0.6979 -2.2508
  183POPC   C3921054   2.594   0.073   5.947  0.2914 -0.1847  0.0546
  183POPC   H9X21055   2.493   0.066   5.900  0.4100  0.8640 -0.3916
  183POPC   H9Y21056   2.661  -0.010   5.915  0.6213  0.9070 -2.3094
  183POPC  C31021057   2.631   0.198   5.866 -0.3396  1.0923  0.5019
  183POPC  H10X21058   2.738   0.220   5.888 -0.1691  0.2931  0.5198
  183POPC  H10Y21059   2.570   0.279   5.911 -0.0012  1.0612  1.0199
  183POPC  C31121060   2.615   0.175   5.712  0.1974  0.4083 -0.0385
  183POPC  H11X21061   2.622   0.265   5.648  0.3707 -0.9171 -1.9700
  183POPC  H11Y21062   2.508   0.147   5.699  0.6262 -1.1166 -0.5356
  183POPC  C31221063   2.700   0.064   5.657 -0.1507 -0.0966  0.2947
  183POPC  H12X21064   2.685  -0.038   5.698  0.2851 -0.4196 -0.3368
  183POPC  H12Y21065   2.806   0.090   5.676 -0.9879  2.4280  2.1018
  183POPC  C31321066   2.673   0.053   5.508  0.3651  0.3392 -0.6865
  183POPC  H13X21067   2.710   0.131   5.438  3.2961  0.2571  0.6279
  183POPC  H13Y21068   2.563   0.064   5.498  0.1007 -0.9790  0.3875
  183POPC  C31421069   2.702  -0.082   5.450 -0.0432  0.1830  0.2503
  183POPC  H14X21070   2.622  -0.153   5.480  1.2593 -1.1050  0.7944
  183POPC  H14Y21071   2.795  -0.125   5.494 -1.1490 -1.5520  1.0231
  183POPC  C31521072   2.725  -0.078   5.299 -0.5411 -0.3522  0.2693
  183POPC  H15X21073   2.824  -0.030   5.284 -0.4024 -0.8576 -0.4933
  183POPC  H15Y21074   2.648  -0.008   5.261 -1.9231 -0.8913  1.9593
  183POPC  C31621075   2.731  -0.213   5.223  0.8621  0.4182  0.9064
  183POPC  H16X21076   2.798  -0.286   5.273  0.6128 -0.9131 -0.6165
  183POPC  H16Y21077   2.765  -0.190   5.119  0.3707 -1.5102  0.2758
  183POPC  H16Z21078   2.628  -0.252   5.212  0.8213  0.7633 -0.0490
  184POPC     N21079   1.486   0.212   7.506 -0.6394 -0.2492  0.2812
  184POPC   C1221080   1.619   0.293   7.517  0.2363 -0.7720  0.2516
  184POPC  H12A21081   1.612   0.359   7.603 -0.1231 -0.3792 -0.0742
  184POPC  H12B21082   1.617   0.374   7.445  1.1000 -1.6126 -0.7391
  184POPC   C1321083   1.491   0.088   7.585 -0.6821  0.0693 -0.0698
  184POPC  H13A21084   1.417   0.012   7.569  3.1897 -4.3434  0.8882
  184POPC  H13B21085   1.588   0.042   7.576  0.1841  1.9380 -0.8930
  184POPC  H13C21086   1.484   0.105   7.692 -1.6313 -1.2700  0.0956
  184POPC   C1421087   1.364   0.287   7.539  0.0350  0.3031  0.3094
  184POPC  H14A21088   1.341   0.367   7.470 -1.0277 -0.5393 -0.3382
  184POPC  H14B21089   1.270   0.235   7.541  0.3674 -0.3090  0.2948
  184POPC  H14C21090   1.370   0.326   7.640  1.9937 -0.3803  0.4952
  184POPC   C1521091   1.471   0.167   7.361 -0.2913  0.0826 -0.3398
  184POPC  H15A21092   1.558   0.109   7.333 -0.1387  0.1220  0.0485
  184POPC  H15B21093   1.471   0.256   7.300 -1.1093  2.4270  2.8311
  184POPC  H15C21094   1.386   0.101   7.348  0.4664 -0.7143 -1.4498
  184POPC   C1121095   1.753   0.222   7.506  0.2436 -0.0879 -0.6897
  184POPC  H11A21096   1.768   0.168   7.602 -1.4524  2.2459  0.9816
  184POPC  H11B21097   1.839   0.292   7.507 -1.2103  1.7725 -0.8612
  184POPC     P21098   1.885   0.051   7.356 -0.1493  0.2612 -0.0573
  184POPC   O1321099   1.952  -0.024   7.467  0.5779  0.2664  0.0834
  184POPC   O1421100   1.969   0.149   7.282 -0.1713 -0.0643  0.6524
  184POPC   O1221101   1.753   0.128   7.399 -0.2795  0.0743 -0.6923
  184POPC   O1121102   1.833  -0.060   7.256 -0.0135  0.6431  0.4319
  184POPC    C121103   1.767  -0.012   7.134 -1.1473 -0.4507  0.5944
  184POPC    HA21104   1.714   0.082   7.158 -2.5273 -0.6360 -1.4369
  184POPC    HB21105   1.702  -0.095   7.099 -0.9263  0.6404 -2.7462
  184POPC    C221106   1.864   0.021   7.013 -0.2973 -0.5597  0.0430
  184POPC    HS21107   1.917   0.110   7.053 -0.0313 -1.1536  1.0660
  184POPC   O2121108   1.780   0.052   6.896  0.1710 -0.2109  0.4794
  184POPC   C2121109   1.829   0.147   6.819  0.1414  0.2627 -0.4287
  184POPC   O2221110   1.932   0.208   6.844  0.4752  0.5668 -0.8081
  184POPC   C2221111   1.739   0.182   6.703  0.1139 -0.1950  0.1448
  184POPC   H2R21112   1.694   0.281   6.722  0.8400  0.2625 -0.4832
  184POPC   H2S21113   1.661   0.108   6.674  1.4333 -0.5879 -2.7587
  184POPC    C321114   1.956  -0.094   6.982  0.7366  0.4220 -0.7045
  184POPC    HX21115   1.882  -0.171   6.952  0.7157  0.1644 -0.0210
  184POPC    HY21116   2.013  -0.124   7.073  1.2036  0.7995 -0.8738
  184POPC   O3121117   2.037  -0.086   6.855 -0.1112 -0.0955 -0.8989
  184POPC   C3121118   2.131   0.007   6.869  0.1628  0.1202  0.0976
  184POPC   O3221119   2.169   0.061   6.975 -0.2244 -0.0941  0.5543
  184POPC   C3221120   2.183   0.042   6.731  0.3308  0.0827  0.0123
  184POPC   H2X21121   2.099   0.030   6.659 -1.1506  0.0068  1.6946
  184POPC   H2Y21122   2.263  -0.029   6.699  0.1861 -0.1548  0.1806
  184POPC   C2321123   1.822   0.206   6.578  0.4499 -0.1256 -0.6641
  184POPC   H3R21124   1.866   0.107   6.553  1.9953  0.0298  1.1387
  184POPC   H3S21125   1.905   0.278   6.595 -1.6033  2.1134  0.5685
  184POPC   C2421126   1.743   0.247   6.453 -0.7925 -0.3876 -0.1892
  184POPC   H4R21127   1.718   0.355   6.459 -0.6754 -0.4466  3.7634
  184POPC   H4S21128   1.648   0.190   6.446 -0.6051 -0.5304 -2.3168
  184POPC   C2521129   1.812   0.222   6.323 -0.2498 -0.5523  0.7311
  184POPC   H5R21130   1.844   0.116   6.327 -0.9628 -0.7652  0.7910
  184POPC   H5S21131   1.897   0.293   6.312 -1.1802  0.6722  1.2179
  184POPC   C2621132   1.717   0.233   6.199 -0.2243 -0.0110  0.2713
  184POPC   H6R21133   1.650   0.322   6.191 -2.0523 -1.4803 -2.1132
  184POPC   H6S21134   1.658   0.139   6.207  0.4603 -0.5755 -0.9645
  184POPC   C2721135   1.780   0.241   6.063  0.2779  0.4474 -0.5697
  184POPC   H7R21136   1.864   0.169   6.060 -0.6861 -0.6559 -1.8567
  184POPC   H7S21137   1.831   0.339   6.047  0.4875  0.5410  0.5353
  184POPC   C2821138   1.677   0.223   5.948  0.2946  0.4472  0.4203
  184POPC   H8R21139   1.629   0.319   5.920 -0.9104 -0.3206 -0.2429
  184POPC   H8S21140   1.593   0.156   5.977  0.3253  0.7761  1.3087
  184POPC   C2921141   1.752   0.177   5.820  0.7143 -0.2299  0.3356
  184POPC   H9121142   1.773   0.069   5.817  1.2703 -0.1564  1.1376
  184POPC  C21021143   1.780   0.257   5.714  0.9152 -0.0764 -0.2574
  184POPC  H10121144   1.842   0.207   5.637  0.0716  0.4179 -1.2821
  184POPC  C21121145   1.792   0.404   5.718 -0.8110  0.1121 -0.7226
  184POPC  H11R21146   1.893   0.428   5.679 -0.7099  0.4399 -0.2651
  184POPC  H11S21147   1.789   0.437   5.824  0.4634 -0.4301 -0.4995
  184POPC  C21221148   1.683   0.480   5.641 -0.5087  0.6889 -0.5536
  184POPC  H12R21149   1.680   0.589   5.658  0.7102  0.1663  4.5887
  184POPC  H12S21150   1.586   0.443   5.679 -0.2769 -1.0252 -1.4960
  184POPC  C21321151   1.672   0.457   5.486  0.1812 -0.0020 -0.4395
  184POPC  H13R21152   1.659   0.349   5.467  0.1606 -0.6230  2.5158
  184POPC  H13S21153   1.772   0.482   5.444 -0.0361  2.1852  0.1903
  184POPC  C21421154   1.569   0.557   5.421 -0.1658 -0.1680  0.4148
  184POPC  H14R21155   1.614   0.657   5.409 -1.4664  0.3415 -0.4937
  184POPC  H14S21156   1.474   0.572   5.478 -1.5611  0.6144 -1.9927
  184POPC  C21521157   1.519   0.504   5.293  0.8055 -0.0004 -1.2895
  184POPC  H15R21158   1.430   0.566   5.265 -0.6730 -1.2738  0.3615
  184POPC  H15S21159   1.471   0.409   5.323 -1.0739  0.7481 -1.7716
  184POPC  C21621160   1.627   0.504   5.180  0.1871  0.9478 -0.3474
  184POPC  H16R21161   1.723   0.459   5.210  0.0344  0.3051 -0.8001
  184POPC  H16S21162   1.654   0.608   5.151 -0.6221  0.7847 -1.8315
  184POPC  C21721163   1.579   0.429   5.054  0.1937  0.7046 -0.6710
  184POPC  H17R21164   1.667   0.426   4.987 -0.0833  3.3707 -1.2697
  184POPC  H17S21165   1.497   0.485   5.006 -1.2952 -1.7466 -1.1516
  184POPC  C21821166   1.511   0.289   5.080 -0.2613 -0.2365  0.3846
  184POPC  H18R21167   1.466   0.260   4.983  1.9221 -0.4390 -0.6473
  184POPC  H18S21168   1.427   0.301   5.152 -0.0695 -1.6908  0.8749
  184POPC  H18T21169   1.580   0.209   5.114  0.9827  1.0397  0.9939
  184POPC   C3321170   2.233   0.189   6.711  0.2858  0.6250  0.5925
  184POPC   H3X21171   2.314   0.213   6.784  0.0930  0.4419  0.8659
  184POPC   H3Y21172   2.154   0.257   6.748 -1.0558  0.0112 -1.0645
  184POPC   C3421173   2.294   0.217   6.572 -0.2312  0.5979  0.3873
  184POPC   H4X21174   2.372   0.141   6.551 -1.4559 -0.7129  0.4562
  184POPC   H4Y21175   2.342   0.317   6.568 -0.6486  0.8137  0.6386
  184POPC   C3521176   2.196   0.193   6.458  0.6635 -0.4095  0.3611
  184POPC   H5X21177   2.139   0.287   6.446  2.1406  0.5577  0.7081
  184POPC   H5Y21178   2.129   0.105   6.472  0.9202 -0.7271 -0.4035
  184POPC   C3621179   2.276   0.181   6.319 -0.2065  0.1446  0.3112
  184POPC   H6X21180   2.346   0.095   6.318  0.5793  0.6798 -2.9133
  184POPC   H6Y21181   2.341   0.270   6.312  1.3614 -1.0272 -0.8861
  184POPC   C3721182   2.167   0.154   6.211 -0.6485 -0.0580 -0.3346
  184POPC   H7X21183   2.109   0.248   6.203 -0.3292  0.2525  0.7915
  184POPC   H7Y21184   2.104   0.073   6.252  0.4459 -1.0111 -0.4651
  184POPC   C3821185   2.235   0.133   6.072 -0.3216 -0.3236  0.1646
  184POPC   H8X21186   2.296   0.040   6.077 -1.5129 -1.0926  1.2548
  184POPC   H8Y21187   2.313   0.210   6.054  2.1404 -2.2465  1.9757
  184POPC   C3921188   2.138   0.133   5.958 -0.3985  0.0847 -0.6381
  184POPC   H9X21189   2.096   0.235   5.949 -0.1536  0.0555 -2.5783
  184POPC   H9Y21190   2.056   0.062   5.979  1.2444 -1.2077  1.9302
  184POPC  C31021191   2.196   0.087   5.829 -0.0748 -0.2450  0.1641
  184POPC  H10X21192   2.222  -0.021   5.834  2.6489  0.2219 -1.7101
  184POPC  H10Y21193   2.292   0.143   5.825 -0.3427  0.1554 -0.8208
  184POPC  C31121194   2.111   0.115   5.706 -0.0955 -0.1756 -0.8377
  184POPC  H11X21195   2.075   0.220   5.702 -1.1911 -0.5272 -0.4824
  184POPC  H11Y21196   2.026   0.043   5.712 -0.7596  0.7325  2.8326
  184POPC  C31221197   2.184   0.101   5.577 -0.6045 -0.1035  0.5749
  184POPC  H12X21198   2.279   0.157   5.566 -0.0685 -1.1582 -0.4959
  184POPC  H12Y21199   2.119   0.143   5.497 -0.5942 -0.0623  0.5887
  184POPC  C31321200   2.226  -0.043   5.533 -0.1290 -0.7786 -0.1099
  184POPC  H13X21201   2.130  -0.097   5.516  0.0040 -0.9338 -0.3805
  184POPC  H13Y21202   2.288  -0.089   5.612  1.3547  2.0783  0.5047
  184POPC  C31421203   2.300  -0.051   5.398  0.0080  0.7114  0.3560
  184POPC  H14X21204   2.399  -0.003   5.412  0.7540 -0.9530  1.0939
  184POPC  H14Y21205   2.246  -0.010   5.310 -0.8231 -2.8521 -0.9765
  184POPC  C31521206   2.321  -0.197   5.350 -0.7124  0.0353  0.2394
  184POPC  H15X21207   2.372  -0.249   5.434 -0.2091 -2.6310 -1.6031
  184POPC  H15Y21208   2.393  -0.207   5.266 -2.3915 -0.9812 -1.1504
  184POPC  C31621209   2.190  -0.259   5.297  0.1928 -0.0417 -0.0468
  184POPC  H16X21210   2.149  -0.201   5.211 -0.1650 -0.0567  0.1134
  184POPC  H16Y21211   2.118  -0.267   5.380  0.8320  2.2950  0.8052
  184POPC  H16Z21212   2.192  -0.366   5.267 -2.1740 -0.6328  1.6038
  185POPC     N21213   0.806   3.663   3.602 -0.1919 -0.5223  0.2456
  185POPC   C1221214   0.889   3.539   3.579  0.2661 -0.2279 -0.0272
  185POPC  H12A21215   0.983   3.541   3.631  0.3802  0.4974 -0.2484
  185POPC  H12B21216   0.914   3.511   3.478  0.8814 -0.8095  0.2841
  185POPC   C1321217   0.795   3.689   3.743 -1.3974 -0.9856 -0.2402
  185POPC  H13A21218   0.721   3.622   3.786  0.8796 -2.4003  1.7003
  185POPC  H13B21219   0.886   3.675   3.798 -1.2478 -0.9543 -0.4793
  185POPC  H13C21220   0.760   3.789   3.765  1.4443  0.1289 -0.3731
  185POPC   C1421221   0.870   3.782   3.541 -0.1453 -0.3541  0.9460
  185POPC  H14A21222   0.815   3.871   3.569  0.7565  1.5382 -2.6675
  185POPC  H14B21223   0.972   3.791   3.575  0.1672  0.0213 -0.0610
  185POPC  H14C21224   0.868   3.783   3.433  0.2445 -1.9796  0.9045
  185POPC   C1521225   0.672   3.674   3.543  0.0012  0.2168  0.3322
  185POPC  H15A21226   0.659   3.689   3.436 -1.0106 -2.6561 -0.0413
  185POPC  H15B21227   0.625   3.755   3.596 -0.0259 -0.0960  0.7848
  185POPC  H15C21228   0.615   3.583   3.559 -0.7596  1.0170  2.4431
  185POPC   C1121229   0.814   3.407   3.623  0.3041  0.2347 -0.2619
  185POPC  H11A21230   0.719   3.396   3.566 -0.2620  1.0987  0.4880
  185POPC  H11B21231   0.768   3.399   3.723 -1.3055 -1.3036 -1.0660
  185POPC     P21232   0.914   3.229   3.469  0.1791  0.4033 -0.2283
  185POPC   O1321233   0.944   3.323   3.357 -0.6211 -0.3361 -0.2675
  185POPC   O1421234   0.795   3.141   3.456  0.4547 -0.1054 -0.1307
  185POPC   O1221235   0.900   3.295   3.606  0.6726 -0.0561  0.1202
  185POPC   O1121236   1.032   3.132   3.480 -0.1883  0.3599 -0.0888
  185POPC    C121237   1.094   3.100   3.604 -0.4370 -0.7147 -0.2387
  185POPC    HA21238   1.139   3.000   3.581 -3.0134 -1.6378 -1.7559
  185POPC    HB21239   1.017   3.078   3.681  0.0980  0.3277  0.6128
  185POPC    C221240   1.199   3.199   3.668 -0.4660  0.7225  0.4065
  185POPC    HS21241   1.146   3.297   3.669 -1.8608 -0.0029  0.9935
  185POPC   O2121242   1.322   3.202   3.602  0.2217  0.1742 -0.1029
  185POPC   C2121243   1.348   3.292   3.514  0.1980  0.0148 -0.2111
  185POPC   O2221244   1.277   3.387   3.485 -0.4938  1.0314 -0.3416
  185POPC   C2221245   1.493   3.283   3.477 -0.2042 -0.5330 -0.4514
  185POPC   H2R21246   1.495   3.255   3.370 -2.1103 -0.4968 -0.5233
  185POPC   H2S21247   1.541   3.194   3.523  1.3390  0.0004 -0.9606
  185POPC    C321248   1.221   3.150   3.816 -0.1946  0.0673 -0.0201
  185POPC    HX21249   1.309   3.205   3.854  0.3685 -1.4674  0.9998
  185POPC    HY21250   1.262   3.047   3.823  0.9106  0.4427 -0.6786
  185POPC   O3121251   1.106   3.157   3.903 -0.1167  0.3416  0.6493
  185POPC   C3121252   1.060   3.284   3.924 -0.0309 -0.1981 -0.4541
  185POPC   O3221253   1.123   3.385   3.897 -0.4187  1.1808  0.5024
  185POPC   C3221254   0.919   3.281   3.989  0.3166 -0.2599 -0.6133
  185POPC   H2X21255   0.919   3.217   4.079  0.8989  0.1298 -0.3278
  185POPC   H2Y21256   0.845   3.225   3.928 -0.2492 -0.4644  0.2453
  185POPC   C2321257   1.572   3.413   3.519  0.2404  0.1861 -0.3181
  185POPC   H3R21258   1.529   3.503   3.469  1.2110 -0.1746 -1.8643
  185POPC   H3S21259   1.676   3.396   3.484 -0.1152 -0.9645 -0.8736
  185POPC   C2421260   1.591   3.427   3.672 -0.4097 -0.2439  0.5766
  185POPC   H4R21261   1.628   3.329   3.710 -0.3091 -0.7602 -0.7956
  185POPC   H4S21262   1.491   3.431   3.721 -0.3916  1.0862  0.5439
  185POPC   C2521263   1.671   3.548   3.724 -0.0751 -0.4429 -0.2967
  185POPC   H5R21264   1.626   3.644   3.692  0.1915 -0.1368  0.2348
  185POPC   H5S21265   1.776   3.530   3.690  0.3171 -0.0286  0.6771
  185POPC   C2621266   1.668   3.548   3.880 -0.3489 -0.1719 -0.2156
  185POPC   H6R21267   1.702   3.452   3.925 -0.7249 -0.2433 -0.0860
  185POPC   H6S21268   1.566   3.572   3.916  0.3746  2.0988  0.4741
  185POPC   C2721269   1.761   3.663   3.927  0.7686  0.5469  0.0280
  185POPC   H7R21270   1.737   3.757   3.873  0.3957  3.2326  4.3874
  185POPC   H7S21271   1.863   3.638   3.892 -0.8343 -1.7503 -3.5617
  185POPC   C2821272   1.754   3.708   4.077  0.4552  0.2578  0.4319
  185POPC   H8R21273   1.742   3.609   4.125  0.3067  0.5532  1.0231
  185POPC   H8S21274   1.657   3.764   4.077 -0.4947 -1.3156 -0.6762
  185POPC   C2921275   1.873   3.780   4.131 -0.0326  0.6944 -0.2128
  185POPC   H9121276   1.958   3.805   4.065 -0.2398  0.5264 -0.5472
  185POPC  C21021277   1.885   3.787   4.267  0.0075 -1.1355 -0.1630
  185POPC  H10121278   1.975   3.840   4.301 -0.2649 -1.0425  0.4247
  185POPC  C21121279   1.798   3.726   4.372 -0.1671 -0.4218  0.7194
  185POPC  H11R21280   1.697   3.697   4.336 -0.4486  2.3205 -1.0892
  185POPC  H11S21281   1.782   3.806   4.448  1.1930  0.6125 -0.0325
  185POPC  C21221282   1.874   3.610   4.437 -0.6457 -0.4616  0.4771
  185POPC  H12R21283   1.979   3.630   4.466 -0.1133 -2.3906  0.0378
  185POPC  H12S21284   1.877   3.530   4.359 -2.3176  0.5306 -0.6775
  185POPC  C21321285   1.802   3.557   4.562  0.0288  0.0525  0.0678
  185POPC  H13R21286   1.695   3.539   4.538 -0.3552 -2.9492  3.1685
  185POPC  H13S21287   1.808   3.636   4.639  1.9198  1.4802 -1.4390
  185POPC  C21421288   1.861   3.430   4.625  1.1455  0.2054 -0.5378
  185POPC  H14R21289   1.971   3.439   4.640  1.1420  0.7759 -0.8102
  185POPC  H14S21290   1.861   3.357   4.541  0.2261  0.1620 -0.5067
  185POPC  C21521291   1.783   3.377   4.744 -0.4843 -0.2966  0.0405
  185POPC  H15R21292   1.677   3.357   4.719 -1.4296  0.9311  2.6764
  185POPC  H15S21293   1.791   3.472   4.801 -0.3130  2.3166 -3.9498
  185POPC  C21621294   1.860   3.264   4.812 -0.6022  0.3975  0.0142
  185POPC  H16R21295   1.964   3.293   4.837 -0.4703  0.2891 -0.3959
  185POPC  H16S21296   1.849   3.180   4.740 -2.5567  1.9154 -1.5864
  185POPC  C21721297   1.792   3.228   4.944  0.0286  0.2266  0.1141
  185POPC  H17R21298   1.689   3.194   4.920 -0.9170  0.8976  2.7955
  185POPC  H17S21299   1.780   3.324   4.999 -1.2567  0.9531 -1.3628
  185POPC  C21821300   1.859   3.118   5.022  0.7998  1.0929 -0.6335
  185POPC  H18R21301   1.867   3.028   4.957 -0.2589 -0.4772  1.3051
  185POPC  H18S21302   1.794   3.097   5.110  0.7575  1.2579 -0.6260
  185POPC  H18T21303   1.954   3.149   5.070  0.3707  0.1718  0.8906
  185POPC   C3321304   0.859   3.413   4.034  0.1254 -0.7592 -0.3396
  185POPC   H3X21305   0.845   3.486   3.952  2.6086 -0.4248 -0.5451
  185POPC   H3Y21306   0.928   3.464   4.104  1.5806 -1.3393 -1.3144
  185POPC   C3421307   0.723   3.400   4.106  0.4038 -0.0402 -0.5855
  185POPC   H4X21308   0.652   3.367   4.027 -0.1786  2.5721 -1.2670
  185POPC   H4Y21309   0.690   3.502   4.136 -0.7997 -0.2010 -1.2778
  185POPC   C3521310   0.712   3.305   4.225  0.3041  0.3451 -0.6327
  185POPC   H5X21311   0.735   3.201   4.193  1.7445  0.7741 -1.0475
  185POPC   H5Y21312   0.603   3.305   4.247  0.5738 -0.5265  0.8199
  185POPC   C3621313   0.793   3.360   4.342 -0.1622  0.7437 -0.8144
  185POPC   H6X21314   0.738   3.449   4.379 -1.1637  1.1318 -3.0867
  185POPC   H6Y21315   0.886   3.405   4.302  0.6624 -0.8251 -0.7634
  185POPC   C3721316   0.794   3.269   4.459  0.9802  0.0722 -0.2691
  185POPC   H7X21317   0.842   3.170   4.445 -2.9978 -2.3522  1.3628
  185POPC   H7Y21318   0.696   3.219   4.478  0.4766  0.6520 -1.2489
  185POPC   C3821319   0.845   3.339   4.583 -0.0707  0.1697 -0.3634
  185POPC   H8X21320   0.773   3.421   4.600  0.2352  0.6559 -1.3287
  185POPC   H8Y21321   0.938   3.392   4.553 -0.2066 -0.5942 -2.2987
  185POPC   C3921322   0.883   3.241   4.691  0.7444  0.2566 -0.2901
  185POPC   H9X21323   0.938   3.291   4.773  1.8603 -0.3814 -0.6303
  185POPC   H9Y21324   0.943   3.160   4.644  0.4488  0.8158 -1.7061
  185POPC  C31021325   0.762   3.163   4.776 -0.6450 -0.5364  0.3072
  185POPC  H10X21326   0.797   3.113   4.868  2.6756  0.6605 -0.1573
  185POPC  H10Y21327   0.709   3.100   4.701 -0.4507 -1.2946  0.7939
  185POPC  C31121328   0.656   3.264   4.830 -0.0462  0.0019  0.4327
  185POPC  H11X21329   0.589   3.307   4.753 -0.2150  1.0669  1.1637
  185POPC  H11Y21330   0.703   3.347   4.887 -0.0603 -1.5135  2.8044
  185POPC  C31221331   0.565   3.201   4.940 -0.4922 -0.7562 -0.1650
  185POPC  H12X21332   0.613   3.154   5.029  0.0796  1.0771  0.5565
  185POPC  H12Y21333   0.515   3.119   4.884 -0.9056  0.1751 -1.1922
  185POPC  C31321334   0.464   3.307   4.999 -0.0013  0.2162  0.0264
  185POPC  H13X21335   0.393   3.346   4.923  0.3147  2.9127  0.9988
  185POPC  H13Y21336   0.529   3.395   5.021  1.9812 -0.9783 -0.7859
  185POPC  C31421337   0.390   3.249   5.119 -0.2226 -0.3122 -0.2196
  185POPC  H14X21338   0.453   3.201   5.197 -2.0578  0.0250  1.5795
  185POPC  H14Y21339   0.328   3.170   5.073  0.4543 -1.1219  0.2244
  185POPC  C31521340   0.290   3.347   5.181  0.0166 -0.0411 -0.4642
  185POPC  H15X21341   0.252   3.414   5.101 -0.6349 -0.2349 -0.3261
  185POPC  H15Y21342   0.348   3.412   5.249  1.8867 -2.8862  0.8695
  185POPC  C31621343   0.171   3.286   5.245 -0.5405 -0.8532  0.8735
  185POPC  H16X21344   0.207   3.204   5.309  2.4068  0.3924  0.9451
  185POPC  H16Y21345   0.093   3.241   5.179 -1.0571 -0.3877  1.1546
  185POPC  H16Z21346   0.124   3.359   5.315 -1.0104 -1.0933  0.8158
  186POPC     N21347   1.817   5.081   2.615  0.6083  0.1611  0.0093
  186POPC   C1221348   1.932   5.135   2.688 -0.2582  0.3806  0.1637
  186POPC  H12A21349   1.956   5.237   2.660  0.0838  0.4631  0.7303
  186POPC  H12B21350   2.019   5.075   2.665 -0.3791  0.0896  0.4503
  186POPC   C1321351   1.699   5.169   2.614 -0.3758  0.3034  0.1027
  186POPC  H13A21352   1.727   5.267   2.578  2.1492 -0.0971  0.7119
  186POPC  H13B21353   1.624   5.137   2.544  1.1240 -1.6433 -0.7420
  186POPC  H13C21354   1.666   5.183   2.716  0.0816  0.0059  0.2967
  186POPC   C1421355   1.856   5.040   2.470 -0.3337  0.0613 -0.4236
  186POPC  H14A21356   1.919   4.953   2.466 -0.7261 -0.2608  0.1529
  186POPC  H14B21357   1.767   5.034   2.408 -0.7709  0.4190  0.1608
  186POPC  H14C21358   1.915   5.116   2.422  0.7339 -0.7576 -0.4389
  186POPC   C1521359   1.766   4.951   2.676  0.4459  0.0156  0.1555
  186POPC  H15A21360   1.694   4.907   2.609  1.4790 -0.7160 -0.4927
  186POPC  H15B21361   1.706   4.972   2.763 -0.5174  2.5049 -1.0173
  186POPC  H15C21362   1.850   4.887   2.697 -0.4036 -0.6707  1.5640
  186POPC   C1121363   1.924   5.140   2.844 -0.1093  0.3822  0.6283
  186POPC  H11A21364   2.023   5.181   2.871  0.8152 -0.4202 -1.3236
  186POPC  H11B21365   1.916   5.035   2.881 -0.0983 -0.8923 -2.6169
  186POPC     P21366   1.724   5.171   3.006 -0.1533  0.8274  0.0357
  186POPC   O1321367   1.662   5.044   2.965  0.5873 -0.2456 -0.2017
  186POPC   O1421368   1.632   5.274   3.040  0.0867 -0.1039  0.2837
  186POPC   O1221369   1.824   5.231   2.896 -0.1454  0.0799 -0.8594
  186POPC   O1121370   1.815   5.138   3.136  0.5263 -0.1154 -0.2368
  186POPC    C121371   1.894   5.241   3.194 -0.3424 -0.1045  0.5521
  186POPC    HA21372   1.880   5.341   3.148  1.1859 -0.5731 -1.0574
  186POPC    HB21373   2.002   5.221   3.176  0.2701  0.6223  3.0198
  186POPC    C221374   1.866   5.262   3.349 -0.5020  0.5570 -0.1596
  186POPC    HS21375   1.964   5.303   3.381  1.5411 -3.1446 -1.1015
  186POPC   O2121376   1.843   5.138   3.420 -0.4560 -0.0526  0.2564
  186POPC   C2121377   1.951   5.068   3.455 -0.3726 -0.3271 -0.1235
  186POPC   O2221378   2.065   5.102   3.432  0.1672  0.3006 -0.0699
  186POPC   C2221379   1.915   4.939   3.530 -0.5444 -0.2438  0.3154
  186POPC   H2R21380   1.930   4.865   3.448  3.8938 -0.2514  0.8859
  186POPC   H2S21381   1.808   4.947   3.555 -0.0506  0.0333  2.5806
  186POPC    C321382   1.741   5.352   3.367  0.3319 -0.2246 -0.4951
  186POPC    HX21383   1.659   5.315   3.302  0.2508 -0.5670 -0.2069
  186POPC    HY21384   1.771   5.452   3.329 -0.7591  1.2933  2.3557
  186POPC   O3121385   1.699   5.374   3.503  0.2713 -0.2370 -0.3865
  186POPC   C3121386   1.571   5.407   3.518 -0.3787 -0.1909  0.6568
  186POPC   O3221387   1.500   5.436   3.426 -0.3978  0.3932 -0.0448
  186POPC   C3221388   1.542   5.431   3.664  0.6266 -0.4661 -0.2467
  186POPC   H2X21389   1.610   5.507   3.708  0.9330 -0.9245  0.0752
  186POPC   H2Y21390   1.558   5.347   3.734 -1.7036 -0.6542  0.1486
  186POPC   C2321391   2.005   4.914   3.652  0.0193  0.0373  0.0699
  186POPC   H3R21392   1.991   4.991   3.730  0.7824 -0.4143  0.6671
  186POPC   H3S21393   2.110   4.919   3.614 -1.0446 -1.8444 -3.6257
  186POPC   C2421394   1.979   4.774   3.710  0.0491  0.0953 -0.0873
  186POPC   H4R21395   2.012   4.690   3.645  0.9450 -0.8007  1.4625
  186POPC   H4S21396   1.872   4.756   3.735 -0.6520  1.2935 -1.9752
  186POPC   C2521397   2.062   4.758   3.839  0.2674  0.1152  0.4033
  186POPC   H5R21398   2.162   4.802   3.818 -0.9883  3.0696  0.1879
  186POPC   H5S21399   2.079   4.649   3.852 -2.0243 -0.2703  0.5398
  186POPC   C2621400   1.997   4.810   3.967  0.4655  0.1536  0.2448
  186POPC   H6R21401   1.958   4.912   3.948  2.6837  1.0805  0.2881
  186POPC   H6S21402   2.078   4.812   4.043  0.1409 -1.7137  0.6839
  186POPC   C2721403   1.877   4.726   4.016 -0.3444 -0.0059  0.1253
  186POPC   H7R21404   1.807   4.718   3.930  0.8581 -0.8695 -0.8240
  186POPC   H7S21405   1.825   4.770   4.103  1.3757 -1.2583  1.8901
  186POPC   C2821406   1.909   4.586   4.070  0.5595 -0.3282 -0.2266
  186POPC   H8R21407   1.949   4.537   3.978 -0.4942  1.3172 -1.6159
  186POPC   H8S21408   1.822   4.530   4.111 -1.5464  2.8189 -0.0799
  186POPC   C2921409   2.019   4.570   4.169  0.5414 -0.2279  0.2877
  186POPC   H9121410   2.116   4.551   4.122  0.9512  0.1987  0.9495
  186POPC  C21021411   2.008   4.566   4.303 -0.5301  0.4081 -0.3169
  186POPC  H10121412   2.098   4.539   4.361 -0.2410  1.8327 -0.0685
  186POPC  C21121413   1.885   4.578   4.383  0.0721 -0.3315  0.1650
  186POPC  H11R21414   1.799   4.593   4.314  1.2813  1.5221 -1.0230
  186POPC  H11S21415   1.898   4.662   4.454  0.9058 -0.9126  0.7288
  186POPC  C21221416   1.835   4.465   4.468 -0.1029  0.0443  0.1442
  186POPC  H12R21417   1.803   4.387   4.396  0.5475 -0.2539  0.1769
  186POPC  H12S21418   1.741   4.500   4.515  0.4464  0.3354  1.0612
  186POPC  C21321419   1.929   4.403   4.574 -0.4547 -0.2469  0.5332
  186POPC  H13R21420   1.968   4.484   4.638  0.0146 -1.5980  2.0203
  186POPC  H13S21421   2.019   4.363   4.521 -0.8484 -0.8914  0.3347
  186POPC  C21421422   1.869   4.286   4.662 -0.2516  0.5093  0.2103
  186POPC  H14R21423   1.776   4.333   4.702  0.2221  1.9832 -0.3492
  186POPC  H14S21424   1.930   4.271   4.754 -0.2306  0.0740  0.1276
  186POPC  C21521425   1.835   4.161   4.578  0.1519 -0.3955 -0.1508
  186POPC  H15R21426   1.777   4.182   4.485 -2.0175 -1.2834  0.9413
  186POPC  H15S21427   1.767   4.101   4.642  0.1663 -2.5201 -1.9806
  186POPC  C21621428   1.960   4.082   4.538 -0.6533  0.4916 -0.6777
  186POPC  H16R21429   2.028   4.158   4.494  0.7087 -0.2141  0.1397
  186POPC  H16S21430   1.930   4.002   4.468  0.6176 -1.0774  0.4990
  186POPC  C21721431   2.027   4.022   4.669  0.0626  0.1478  0.7229
  186POPC  H17R21432   1.938   3.972   4.713 -2.7194  2.7920 -1.5005
  186POPC  H17S21433   2.074   4.099   4.733  2.9003 -0.9963  0.1737
  186POPC  C21821434   2.125   3.910   4.637 -0.1852  0.3020 -0.3352
  186POPC  H18R21435   2.208   3.916   4.710 -0.9466 -1.8413  0.8104
  186POPC  H18S21436   2.077   3.810   4.649 -1.3389  0.8410 -0.3735
  186POPC  H18T21437   2.175   3.917   4.538  0.7405  2.5199  0.2407
  186POPC   C3321438   1.396   5.484   3.663  0.0821 -0.9379 -0.1188
  186POPC   H3X21439   1.329   5.408   3.617 -1.8327  1.4596 -1.5803
  186POPC   H3Y21440   1.382   5.583   3.615 -2.4892 -0.3971  1.5270
  186POPC   C3421441   1.345   5.508   3.814  0.1237 -0.0569 -0.0699
  186POPC   H4X21442   1.256   5.574   3.819  0.4271  0.2498  1.9849
  186POPC   H4Y21443   1.428   5.537   3.881 -0.6220  0.4076  0.6668
  186POPC   C3521444   1.299   5.373   3.860  0.0052  0.0738 -0.2096
  186POPC   H5X21445   1.378   5.295   3.858 -1.7017 -1.7226 -2.3751
  186POPC   H5Y21446   1.222   5.336   3.789  2.1144 -0.4507 -2.3565
  186POPC   C3621447   1.230   5.391   3.989  0.0767  0.0100 -0.4491
  186POPC   H6X21448   1.153   5.471   3.982  0.6317  0.7246  1.1744
  186POPC   H6Y21449   1.304   5.424   4.065  1.1639  0.9053 -1.8493
  186POPC   C3721450   1.157   5.261   4.031  0.0495 -0.5587 -0.4090
  186POPC   H7X21451   1.224   5.176   4.055 -1.7485 -1.6699  0.9471
  186POPC   H7Y21452   1.088   5.222   3.954 -1.0323 -3.5634  1.9005
  186POPC   C3821453   1.068   5.292   4.161 -0.1618 -0.2220 -0.4741
  186POPC   H8X21454   0.975   5.231   4.160  0.1596 -0.7079 -0.7060
  186POPC   H8Y21455   1.055   5.403   4.158  6.0554  0.8705  0.3446
  186POPC   C3921456   1.136   5.260   4.289 -0.5371 -0.8681 -0.2584
  186POPC   H9X21457   1.155   5.150   4.284  0.0623 -0.7448 -0.9452
  186POPC   H9Y21458   1.060   5.261   4.370  0.0497 -1.5996  0.3176
  186POPC  C31021459   1.263   5.341   4.322  0.6351  0.7184  0.3963
  186POPC  H10X21460   1.242   5.447   4.346 -0.9635  0.2028  1.4227
  186POPC  H10Y21461   1.343   5.332   4.245  1.7175  0.0109  1.5654
  186POPC  C31121462   1.324   5.294   4.451 -0.1335  0.5404 -0.6964
  186POPC  H11X21463   1.333   5.183   4.445 -3.9564 -0.0417  1.0990
  186POPC  H11Y21464   1.250   5.303   4.533  0.7642 -3.0088  0.6837
  186POPC  C31221465   1.459   5.361   4.491 -0.2393 -0.9979 -0.3489
  186POPC  H12X21466   1.447   5.472   4.497 -0.7998 -1.0777  0.1977
  186POPC  H12Y21467   1.535   5.350   4.411  0.7819  0.6811  0.3408
  186POPC  C31321468   1.516   5.310   4.631  0.1707 -0.4415  0.2088
  186POPC  H13X21469   1.547   5.205   4.617 -1.9285 -1.7374  3.7798
  186POPC  H13Y21470   1.438   5.312   4.711 -0.7067 -0.0386 -0.6309
  186POPC  C31421471   1.628   5.395   4.693  0.3955  0.2694  0.5511
  186POPC  H14X21472   1.669   5.343   4.783 -0.4664 -1.9926 -0.3047
  186POPC  H14Y21473   1.594   5.491   4.737 -3.6654 -0.9094  0.3797
  186POPC  C31521474   1.754   5.422   4.598  0.8532  0.0086 -0.1203
  186POPC  H15X21475   1.725   5.504   4.529  0.2818 -1.4214 -1.6300
  186POPC  H15Y21476   1.772   5.331   4.537 -0.7756 -0.2828 -0.2049
  186POPC  C31621477   1.879   5.461   4.666 -0.1092 -0.0578 -0.5925
  186POPC  H16X21478   1.912   5.381   4.736  0.1482 -0.8667 -1.6280
  186POPC  H16Y21479   1.861   5.557   4.719 -0.3981 -0.0286 -0.7395
  186POPC  H16Z21480   1.955   5.480   4.587  0.6692  2.1285  0.5885
  187POPC     N21481   6.999   5.060   2.641 -0.0058 -0.2393 -0.3315
  187POPC   C1221482   6.995   5.181   2.726 -0.4544 -0.1047  0.5233
  187POPC  H12A21483   6.891   5.205   2.741 -0.8481 -0.3204 -1.6017
  187POPC  H12B21484   7.049   5.255   2.668 -1.0779 -0.0763 -0.0283
  187POPC   C1321485   6.934   5.086   2.510 -0.0741 -1.1561  0.0296
  187POPC  H13A21486   6.830   5.111   2.521  0.6349  1.3759  2.1149
  187POPC  H13B21487   6.982   5.166   2.455  2.1543 -1.9104  0.7553
  187POPC  H13C21488   6.940   5.001   2.444 -0.0296  0.7075 -2.5112
  187POPC   C1421489   7.133   5.014   2.607  0.0527  0.6414  0.6804
  187POPC  H14A21490   7.187   5.101   2.574  1.5260 -1.0787 -1.7320
  187POPC  H14B21491   7.188   4.984   2.695 -1.3520 -0.0493  1.3614
  187POPC  H14C21492   7.141   4.939   2.530  0.7127  1.1516  0.2497
  187POPC   C1521493   6.917   4.949   2.697  0.2617 -0.4124 -0.5724
  187POPC  H15A21494   6.916   4.865   2.629  0.8505  0.6324 -1.9262
  187POPC  H15B21495   6.813   4.976   2.706 -0.3075 -2.6351  0.2784
  187POPC  H15C21496   6.960   4.924   2.793 -1.1052 -4.2976 -0.7753
  187POPC   C1121497   7.061   5.176   2.865 -0.4485  0.2709 -0.3992
  187POPC  H11A21498   6.995   5.117   2.933  1.4765 -1.6667 -0.0771
  187POPC  H11B21499   7.051   5.274   2.915  0.8716 -0.5241  1.5574
  187POPC     P21500   7.231   5.003   2.978  0.3465  0.2701  0.2504
  187POPC   O1321501   7.377   5.004   3.007  0.7021  0.5398  0.5883
  187POPC   O1421502   7.181   4.868   2.935 -0.4571  0.0033 -0.7036
  187POPC   O1221503   7.192   5.119   2.869  0.1693  0.4480  0.2186
  187POPC   O1121504   7.143   5.052   3.103 -0.3966  0.4114 -0.2561
  187POPC    C121505   7.204   5.039   3.237 -0.6691 -0.5341  1.4663
  187POPC    HA21506   7.133   5.086   3.308  0.5180  0.7174  1.8527
  187POPC    HB21507   7.302   5.088   3.256 -0.5023 -0.7236  1.1007
  187POPC    C221508   7.218   4.893   3.289  0.9936  0.2565 -0.6769
  187POPC    HS21509   7.284   4.836   3.222  2.8408  0.0817  1.1905
  187POPC   O2121510   7.079   4.842   3.293 -0.4571  0.0415 -0.1890
  187POPC   C2121511   7.075   4.714   3.274 -0.0157 -1.3590  0.3682
  187POPC   O2221512   7.170   4.644   3.265  0.4039 -0.1237  0.1761
  187POPC   C2221513   6.933   4.676   3.279  0.1219  0.1194 -0.2166
  187POPC   H2R21514   6.931   4.571   3.242  1.8998  0.1307 -0.4575
  187POPC   H2S21515   6.863   4.733   3.214  0.7298  1.8369  0.5837
  187POPC    C321516   7.272   4.890   3.438 -0.4439 -0.1382 -0.3749
  187POPC    HX21517   7.226   4.973   3.496  1.8164  0.1941  1.0682
  187POPC    HY21518   7.377   4.925   3.432 -0.6235  0.2195 -1.9860
  187POPC   O3121519   7.260   4.769   3.520 -0.2434 -0.2713  0.0771
  187POPC   C3121520   7.359   4.682   3.506  1.0141 -0.1946  0.2343
  187POPC   O3221521   7.460   4.698   3.438 -0.2483 -0.2007 -0.4318
  187POPC   C3221522   7.332   4.576   3.610  0.6790  0.2849 -0.0317
  187POPC   H2X21523   7.258   4.499   3.577  0.6152  0.5336 -0.4626
  187POPC   H2Y21524   7.293   4.619   3.705  1.0907  0.2070  0.1713
  187POPC   C2321525   6.876   4.674   3.425  0.3761 -0.9378 -0.7748
  187POPC   H3R21526   6.774   4.631   3.424 -0.0818 -0.0505 -4.1045
  187POPC   H3S21527   6.870   4.784   3.445  0.8313 -0.8352 -1.1930
  187POPC   C2421528   6.964   4.601   3.526 -0.7828  0.4972 -0.0468
  187POPC   H4R21529   7.068   4.637   3.541  0.0504 -1.9533  0.5276
  187POPC   H4S21530   6.969   4.491   3.507 -1.4243 -0.0979  2.7895
  187POPC   C2521531   6.886   4.610   3.663 -0.1508  0.3141  0.0058
  187POPC   H5R21532   6.792   4.554   3.646  0.1315 -0.1848  0.0704
  187POPC   H5S21533   6.866   4.716   3.690  1.2617  0.4406  0.6293
  187POPC   C2621534   6.966   4.551   3.776 -0.0920 -1.0480 -0.5336
  187POPC   H6R21535   7.065   4.601   3.771 -0.3569 -0.5697 -1.1146
  187POPC   H6S21536   6.986   4.442   3.765  2.9979 -0.5439 -1.0143
  187POPC   C2721537   6.896   4.576   3.908 -0.3519 -0.1960  0.1768
  187POPC   H7R21538   6.830   4.491   3.935 -0.4013  0.0201  0.7745
  187POPC   H7S21539   6.843   4.673   3.895  1.3921  0.7302 -0.3980
  187POPC   C2821540   6.988   4.587   4.032  0.2369  0.6948  0.1936
  187POPC   H8R21541   6.936   4.617   4.126  2.2091 -1.6730  2.1789
  187POPC   H8S21542   7.055   4.671   4.005  0.8232 -0.0555 -0.7343
  187POPC   C2921543   7.059   4.455   4.053 -0.0774  0.2335 -0.3341
  187POPC   H9121544   7.133   4.435   3.975  1.0177  0.9409  0.4987
  187POPC  C21021545   7.028   4.362   4.142  0.7915  0.2228 -0.9914
  187POPC  H10121546   7.093   4.273   4.149 -0.2475 -0.6420 -1.7752
  187POPC  C21121547   6.932   4.380   4.262 -0.5526 -0.3064  0.1078
  187POPC  H11R21548   6.855   4.300   4.254  1.3103 -2.2224  0.2266
  187POPC  H11S21549   6.869   4.471   4.267  0.2086  0.1660  1.9197
  187POPC  C21221550   7.001   4.364   4.403  0.3026  0.2223  0.7392
  187POPC  H12R21551   7.059   4.269   4.414  1.6047  0.7318 -1.2519
  187POPC  H12S21552   6.904   4.359   4.458 -0.4168  0.6195 -0.4521
  187POPC  C21321553   7.081   4.482   4.443 -0.0532 -0.7251 -1.1153
  187POPC  H13R21554   7.023   4.570   4.407 -1.8472 -1.4562 -0.1569
  187POPC  H13S21555   7.176   4.482   4.385 -0.0436 -0.0115 -1.1135
  187POPC  C21421556   7.111   4.501   4.591  0.5932  0.0600 -0.4205
  187POPC  H14R21557   7.180   4.588   4.598  1.5180 -0.7340  0.5556
  187POPC  H14S21558   7.170   4.412   4.621 -0.4912 -1.4777 -2.5668
  187POPC  C21521559   6.988   4.522   4.684 -0.1152  0.3942  0.4473
  187POPC  H15R21560   7.020   4.551   4.787  2.2905 -0.4373  0.0027
  187POPC  H15S21561   6.937   4.423   4.685  0.2466  0.2017  0.1230
  187POPC  C21621562   6.890   4.632   4.636  0.1856  0.5332  0.1420
  187POPC  H16R21563   6.785   4.619   4.672 -0.1625  0.5793 -0.8263
  187POPC  H16S21564   6.874   4.613   4.528  1.8527  1.9069 -0.3875
  187POPC  C21721565   6.937   4.781   4.655  0.5391 -0.4864  0.3464
  187POPC  H17R21566   6.847   4.837   4.623  0.0837 -0.2007  2.0626
  187POPC  H17S21567   7.024   4.804   4.589  0.1879 -0.8347 -0.2430
  187POPC  C21821568   6.965   4.818   4.796 -0.3612 -0.8161  0.1918
  187POPC  H18R21569   6.985   4.926   4.810 -0.2273 -0.9204  0.8917
  187POPC  H18S21570   7.056   4.764   4.832  1.8285  2.0450 -0.7075
  187POPC  H18T21571   6.884   4.785   4.865  0.2048  1.0289  1.8299
  187POPC   C3321572   7.460   4.504   3.654  0.1656  0.2638 -0.7348
  187POPC   H3X21573   7.539   4.576   3.685 -0.1588 -0.0897  1.0009
  187POPC   H3Y21574   7.498   4.446   3.567 -1.1533 -0.9436 -0.5452
  187POPC   C3421575   7.429   4.401   3.770 -0.4045  0.3664  0.0108
  187POPC   H4X21576   7.366   4.319   3.730 -1.3741  1.1356 -0.0847
  187POPC   H4Y21577   7.368   4.459   3.843  1.5044  1.0466  1.1459
  187POPC   C3521578   7.559   4.340   3.830 -0.1963 -1.4892 -0.1918
  187POPC   H5X21579   7.607   4.427   3.881 -0.3186 -1.5150 -0.0310
  187POPC   H5Y21580   7.633   4.309   3.754  0.9180  0.3755  0.0482
  187POPC   C3621581   7.525   4.225   3.912 -0.3654 -0.0196  0.4550
  187POPC   H6X21582   7.621   4.172   3.930  0.3785  1.1597  0.1427
  187POPC   H6Y21583   7.460   4.149   3.863  1.2813 -0.3776 -1.3061
  187POPC   C3721584   7.463   4.259   4.053 -0.3588 -0.1765 -0.7615
  187POPC   H7X21585   7.363   4.305   4.042  0.5442  1.8904 -0.7592
  187POPC   H7Y21586   7.518   4.340   4.104 -0.0236 -1.4001  0.8920
  187POPC   C3821587   7.448   4.139   4.143 -0.5027 -0.0438  0.1613
  187POPC   H8X21588   7.551   4.099   4.151  0.4494  2.3250  0.3180
  187POPC   H8Y21589   7.376   4.070   4.093  1.4071 -1.5025 -0.7033
  187POPC   C3921590   7.408   4.175   4.290 -0.2258  0.4704  0.3851
  187POPC   H9X21591   7.305   4.217   4.294 -1.0252 -1.3745  0.3485
  187POPC   H9Y21592   7.477   4.254   4.327 -0.5817  0.7482  0.4587
  187POPC  C31021593   7.406   4.053   4.385 -0.2430  0.8462  0.2839
  187POPC  H10X21594   7.496   3.992   4.365 -2.1810 -2.1176  0.1179
  187POPC  H10Y21595   7.328   3.983   4.350  0.3497  0.1880  0.2581
  187POPC  C31121596   7.377   4.087   4.533  0.4639  0.5447 -0.1803
  187POPC  H11X21597   7.360   3.994   4.592 -1.2624  0.3946 -0.8636
  187POPC  H11Y21598   7.289   4.155   4.535  0.9663  1.1863  0.7774
  187POPC  C31221599   7.485   4.171   4.605  0.0794  0.4475 -0.3547
  187POPC  H12X21600   7.487   4.273   4.561  2.4729  0.8085  0.4132
  187POPC  H12Y21601   7.586   4.127   4.591 -0.5804 -1.4736  0.6102
  187POPC  C31321602   7.438   4.190   4.756 -0.6894 -0.2640  0.0440
  187POPC  H13X21603   7.405   4.089   4.790  0.1827 -1.3867 -2.2114
  187POPC  H13Y21604   7.344   4.250   4.755 -0.3923  0.2445  1.1748
  187POPC  C31421605   7.530   4.274   4.845 -0.5359  0.4140 -0.1174
  187POPC  H14X21606   7.463   4.298   4.930 -2.6964 -2.1030 -0.9668
  187POPC  H14Y21607   7.563   4.372   4.806 -2.3420  1.6651  1.3024
  187POPC  C31521608   7.649   4.190   4.899  0.0902 -0.4139  0.3211
  187POPC  H15X21609   7.701   4.166   4.804 -0.8366  1.3362 -0.6723
  187POPC  H15Y21610   7.638   4.103   4.967  1.3765 -0.4537  0.5111
  187POPC  C31621611   7.748   4.279   4.980  0.3594  0.3124 -0.2363
  187POPC  H16X21612   7.838   4.219   5.006 -1.9257 -2.2648  2.3214
  187POPC  H16Y21613   7.705   4.315   5.076 -0.8844 -1.4801 -0.0813
  187POPC  H16Z21614   7.782   4.364   4.917 -3.2915  0.6829 -1.9602
  188POPC     N21615   6.362   3.746   2.934  0.4003 -0.1024  0.0749
  188POPC   C1221616   6.415   3.605   2.933 -0.3443 -0.2870 -0.3981
  188POPC  H12A21617   6.484   3.590   2.851 -0.2720  1.1921 -0.6237
  188POPC  H12B21618   6.329   3.541   2.921  0.7249 -1.6828 -0.9011
  188POPC   C1321619   6.262   3.769   3.038  0.5967  0.9400  0.1818
  188POPC  H13A21620   6.226   3.871   3.029 -0.8434  0.3167 -2.2014
  188POPC  H13B21621   6.174   3.707   3.033  0.2042  1.4641  0.4228
  188POPC  H13C21622   6.307   3.756   3.135 -0.2301  1.6688  0.6756
  188POPC   C1421623   6.474   3.839   2.973  0.1280 -0.3542 -0.2108
  188POPC  H14A21624   6.436   3.938   2.949 -0.1815 -0.1527  1.0772
  188POPC  H14B21625   6.493   3.820   3.077  0.5214 -4.2380 -0.8385
  188POPC  H14C21626   6.552   3.833   2.898 -2.3824  0.5915 -3.1534
  188POPC   C1521627   6.298   3.776   2.806 -0.0169 -0.6343 -0.5831
  188POPC  H15A21628   6.230   3.696   2.781 -0.5349  0.6263 -3.6727
  188POPC  H15B21629   6.370   3.785   2.726  0.2225 -1.0109 -0.4104
  188POPC  H15C21630   6.233   3.862   2.806  0.8581  0.0736  1.2295
  188POPC   C1121631   6.495   3.561   3.064  0.5156  0.2769  0.8497
  188POPC  H11A21632   6.577   3.636   3.054  0.0250  0.8081  0.7815
  188POPC  H11B21633   6.542   3.462   3.047  1.7325  0.4929  2.7065
  188POPC     P21634   6.492   3.600   3.318  0.1102  0.2630 -0.2257
  188POPC   O1321635   6.526   3.743   3.315  0.3189  0.7543  0.6273
  188POPC   O1421636   6.609   3.510   3.328 -0.2076 -0.0127 -0.4250
  188POPC   O1221637   6.414   3.560   3.180  0.3734  0.3762  0.0582
  188POPC   O1121638   6.386   3.560   3.429 -0.5193  0.4975  0.0765
  188POPC    C121639   6.251   3.611   3.437  0.7012  0.8326 -0.2643
  188POPC    HA21640   6.194   3.532   3.491  0.9357 -0.1681 -1.4297
  188POPC    HB21641   6.205   3.626   3.337 -1.1770 -1.7612  0.1084
  188POPC    C221642   6.233   3.745   3.511 -0.6398 -0.4429 -0.3131
  188POPC    HS21643   6.300   3.818   3.462 -0.2818  0.1509  1.0153
  188POPC   O2121644   6.273   3.721   3.648  0.0342  0.3282  0.0141
  188POPC   C2121645   6.344   3.819   3.702  0.7428 -0.0463  0.1336
  188POPC   O2221646   6.383   3.917   3.646 -0.6019 -0.8138  0.2966
  188POPC   C2221647   6.340   3.805   3.858 -0.7313  0.3428  0.6206
  188POPC   H2R21648   6.339   3.695   3.878  3.1421 -0.2075 -1.1744
  188POPC   H2S21649   6.246   3.852   3.892  0.5245  1.4227  2.8704
  188POPC    C321650   6.083   3.774   3.517  0.4880 -0.1497 -0.1606
  188POPC    HX21651   6.036   3.678   3.546 -1.3590  0.2142 -1.8092
  188POPC    HY21652   6.051   3.798   3.414 -1.4985  2.0795  0.8841
  188POPC   O3121653   6.042   3.879   3.610 -0.4690  0.3710  0.0140
  188POPC   C3121654   6.060   4.004   3.570 -0.2904 -0.1132  0.4600
  188POPC   O3221655   6.118   4.033   3.467  0.0626  0.1769  0.8022
  188POPC   C3221656   5.990   4.104   3.662  0.4491 -0.5134  0.2626
  188POPC   H2X21657   5.913   4.047   3.718 -1.7805 -0.1814 -2.2997
  188POPC   H2Y21658   5.942   4.180   3.597  0.7388 -1.8439 -1.5865
  188POPC   C2321659   6.468   3.875   3.916 -0.0283  0.0841  0.2308
  188POPC   H3R21660   6.455   3.899   4.024  1.6042  1.6209  0.1313
  188POPC   H3S21661   6.490   3.973   3.869 -0.1260 -0.3284 -0.6943
  188POPC   C2421662   6.592   3.784   3.904 -0.2221  0.3062  0.6595
  188POPC   H4R21663   6.563   3.681   3.933 -0.3051  0.4431  1.0653
  188POPC   H4S21664   6.673   3.825   3.968 -0.0839  0.2269  0.5366
  188POPC   C2521665   6.655   3.753   3.765  0.1114 -0.3592  0.7909
  188POPC   H5R21666   6.662   3.849   3.710  1.2673 -1.5986 -1.3884
  188POPC   H5S21667   6.590   3.678   3.715 -1.6248  1.7664 -0.3333
  188POPC   C2621668   6.800   3.685   3.768 -0.7790  0.7611 -0.2760
  188POPC   H6R21669   6.874   3.764   3.792  0.0191  0.1970 -0.7950
  188POPC   H6S21670   6.828   3.648   3.667  1.3844 -1.0248  0.8902
  188POPC   C2721671   6.813   3.570   3.872 -0.3069  0.3647  0.2136
  188POPC   H7R21672   6.719   3.511   3.870 -1.5174  2.2141 -1.8433
  188POPC   H7S21673   6.828   3.616   3.972 -0.7650 -1.1605  1.0126
  188POPC   C2821674   6.926   3.469   3.836  0.4742  0.1779  0.1814
  188POPC   H8R21675   7.019   3.528   3.854  0.4262 -0.6402  3.8698
  188POPC   H8S21676   6.925   3.440   3.729 -2.3254  0.6095  0.0307
  188POPC   C2921677   6.908   3.340   3.922  0.0879 -0.7108  0.4068
  188POPC   H9121678   6.836   3.268   3.880 -1.1423  1.4153 -1.3137
  188POPC  C21021679   6.995   3.303   4.018 -0.2079 -0.1007 -0.6693
  188POPC  H10121680   6.973   3.214   4.079 -2.7550  2.4689  2.5269
  188POPC  C21121681   7.095   3.392   4.086 -0.1513 -0.1670 -0.6341
  188POPC  H11R21682   7.092   3.499   4.055  0.0834 -0.4449 -1.6637
  188POPC  H11S21683   7.195   3.354   4.054 -1.1942 -2.1061 -1.7521
  188POPC  C21221684   7.094   3.396   4.244  0.0855 -0.1447 -0.2036
  188POPC  H12R21685   7.179   3.460   4.277 -1.7706  1.9595  0.8427
  188POPC  H12S21686   7.104   3.294   4.287 -1.0509 -0.8925 -1.6415
  188POPC  C21321687   6.972   3.459   4.297 -0.3348  0.4102 -0.4776
  188POPC  H13R21688   6.891   3.391   4.264  0.6498  0.6381 -3.7359
  188POPC  H13S21689   6.959   3.559   4.251 -1.1275  1.0389  1.0282
  188POPC  C21421690   6.969   3.477   4.453 -0.2937 -0.2839 -0.3596
  188POPC  H14R21691   6.946   3.373   4.486 -1.7698  0.4018  0.8990
  188POPC  H14S21692   6.880   3.535   4.485  1.0057  0.1487  2.8206
  188POPC  C21521693   7.080   3.561   4.507 -0.6033  0.3643  0.2302
  188POPC  H15R21694   7.068   3.655   4.450  1.1795  0.8116  0.5349
  188POPC  H15S21695   7.181   3.524   4.482 -0.1872  2.6746 -1.8701
  188POPC  C21621696   7.072   3.589   4.658  0.2848  0.4389  0.2012
  188POPC  H16R21697   7.057   3.491   4.709  1.3440  0.6399  0.9390
  188POPC  H16S21698   6.987   3.658   4.676 -0.6292 -0.5783 -0.0990
  188POPC  C21721699   7.203   3.651   4.715  0.1820 -0.4506 -0.8428
  188POPC  H17R21700   7.242   3.725   4.642 -0.3726 -1.1280 -1.8583
  188POPC  H17S21701   7.275   3.568   4.728  0.4135 -0.3265 -1.3376
  188POPC  C21821702   7.191   3.709   4.860  0.2008  0.0294  0.4646
  188POPC  H18R21703   7.105   3.779   4.861  1.2273  1.3557 -0.2620
  188POPC  H18S21704   7.275   3.776   4.889  0.5335  1.0550 -2.5392
  188POPC  H18T21705   7.198   3.631   4.938 -0.0222 -1.6427 -1.1309
  188POPC   C3321706   6.097   4.182   3.748  0.2402 -0.8769 -0.6068
  188POPC   H3X21707   6.165   4.231   3.676 -0.7513 -1.0012 -1.6567
  188POPC   H3Y21708   6.153   4.116   3.818  2.1424  0.8255 -0.4545
  188POPC   C3421709   6.014   4.286   3.831  0.9393  0.3376  0.3826
  188POPC   H4X21710   5.954   4.224   3.902  1.0571  0.4042  0.5410
  188POPC   H4Y21711   5.944   4.354   3.778 -0.4641  1.0913  2.9933
  188POPC   C3521712   6.104   4.384   3.908 -0.8044 -0.4583 -0.7446
  188POPC   H5X21713   6.139   4.471   3.849 -0.0001  0.0936  0.5085
  188POPC   H5Y21714   6.194   4.322   3.930 -0.6564 -0.5471 -1.5965
  188POPC   C3621715   6.047   4.431   4.043 -0.0625 -0.0038  0.4460
  188POPC   H6X21716   5.942   4.469   4.035  0.6892  2.0977 -0.2302
  188POPC   H6Y21717   6.111   4.517   4.073 -0.7715  0.7961 -0.2753
  188POPC   C3721718   6.059   4.330   4.160  0.0156  0.5434 -0.6977
  188POPC   H7X21719   6.163   4.291   4.158 -0.9077 -2.1958  0.2727
  188POPC   H7Y21720   5.993   4.240   4.154  0.3128  0.0332  2.1985
  188POPC   C3821721   6.035   4.390   4.296  0.0421 -0.5496  0.3835
  188POPC   H8X21722   5.937   4.443   4.297 -0.7698 -1.9725 -0.4868
  188POPC   H8Y21723   6.115   4.462   4.324  0.1942 -0.7587  0.4851
  188POPC   C3921724   6.029   4.293   4.412  0.2319  0.6338  0.3565
  188POPC   H9X21725   6.111   4.219   4.422 -0.8154 -0.9044 -1.8022
  188POPC   H9Y21726   5.938   4.231   4.396  1.6507 -0.8773 -2.4679
  188POPC  C31021727   6.017   4.356   4.553 -0.8982  0.0599  0.7567
  188POPC  H10X21728   6.032   4.271   4.624  1.5485 -1.9458 -1.9126
  188POPC  H10Y21729   5.918   4.402   4.571 -1.5343  0.0658 -2.2417
  188POPC  C31121730   6.127   4.463   4.585  0.2926 -0.6343  1.2003
  188POPC  H11X21731   6.118   4.550   4.516 -2.1220  0.0199  2.2534
  188POPC  H11Y21732   6.226   4.420   4.560 -0.3176 -1.9666  0.9851
  188POPC  C31221733   6.143   4.498   4.735  0.4304  0.3908  0.4059
  188POPC  H12X21734   6.201   4.592   4.736 -1.5750  1.8221 -2.4476
  188POPC  H12Y21735   6.196   4.417   4.789 -0.5074  1.0356  2.3798
  188POPC  C31321736   6.008   4.516   4.806 -0.0588  0.2349  0.0839
  188POPC  H13X21737   5.950   4.422   4.809  0.0070  0.1928  0.0358
  188POPC  H13Y21738   5.954   4.592   4.745  0.6953  0.2181 -0.6186
  188POPC  C31421739   6.035   4.578   4.945  0.2554  0.3550 -0.4052
  188POPC  H14X21740   5.942   4.563   5.004  0.5839  0.6789  0.2068
  188POPC  H14Y21741   6.039   4.684   4.912  1.4314  0.0060 -1.4627
  188POPC  C31521742   6.164   4.541   5.013 -0.1254  0.5053  0.0056
  188POPC  H15X21743   6.248   4.571   4.947 -0.8969 -2.7415 -2.7293
  188POPC  H15Y21744   6.183   4.433   5.031 -1.6173 -0.0844 -1.6808
  188POPC  C31621745   6.184   4.608   5.144  0.3174  0.6255 -1.7225
  188POPC  H16X21746   6.109   4.573   5.218  1.3289  0.9650 -0.5147
  188POPC  H16Y21747   6.171   4.718   5.142 -0.5337  0.5357 -1.6306
  188POPC  H16Z21748   6.278   4.586   5.200 -1.1129  1.0531  1.0231
  189SAPI   C1221749   1.009   2.496   7.610 -0.7547  0.0532  0.2679
  189SAPI    H221750   1.067   2.517   7.702 -0.1430 -1.2004  0.1882
  189SAPI    O221751   0.965   2.357   7.617 -0.0128  0.2702  0.3235
  189SAPI   HO221752   1.044   2.303   7.611  0.2032  0.6763 -0.6424
  189SAPI   C1321753   0.900   2.595   7.598 -0.6206  0.8853 -0.2875
  189SAPI    H321754   0.946   2.697   7.601  1.6974 -0.0889 -0.5383
  189SAPI    O321755   0.814   2.594   7.715  0.6832 -0.1543 -0.6573
  189SAPI   HO321756   0.826   2.677   7.762 -0.0071  0.0786 -0.8721
  189SAPI   C1421757   0.820   2.584   7.468  0.1676 -0.5395  0.5342
  189SAPI    H421758   0.742   2.505   7.473 -0.2290 -0.1802  0.1911
  189SAPI    O421759   0.753   2.702   7.441  0.0338  0.1494 -0.9142
  189SAPI   HO421760   0.666   2.704   7.482  0.3310  1.1474 -0.3103
  189SAPI   C1521761   0.900   2.542   7.336  0.8985 -0.9243 -0.2533
  189SAPI    H521762   0.927   2.637   7.285  1.1689 -1.2620 -0.7438
  189SAPI    O521763   0.822   2.469   7.245  0.0784 -0.1185 -0.2999
  189SAPI   HO521764   0.775   2.523   7.182  0.4293 -1.3508 -1.7014
  189SAPI   C1621765   1.042   2.483   7.358 -0.6615  0.2409 -0.2810
  189SAPI    H621766   1.023   2.374   7.352  0.4024  0.1147 -1.9392
  189SAPI    O621767   1.130   2.512   7.248  0.0152 -0.0287 -0.2236
  189SAPI   HO621768   1.222   2.522   7.274  0.1095 -0.6877 -0.2965
  189SAPI   C1121769   1.101   2.519   7.495 -0.1919  0.5902 -0.0635
  189SAPI    H121770   1.127   2.627   7.490 -1.1134  0.8024 -0.5269
  189SAPI     P21771   1.365   2.524   7.503 -0.5635 -0.0872  0.1005
  189SAPI   O1321772   1.479   2.435   7.528 -0.9052  0.0723  0.3582
  189SAPI   O1421773   1.370   2.648   7.577  0.0015  0.0902  0.6793
  189SAPI   O1221774   1.220   2.446   7.529 -0.1150 -0.0609  0.0070
  189SAPI   O1121775   1.360   2.549   7.349  0.5598  0.4539  0.3675
  189SAPI    C121776   1.415   2.666   7.288  0.1267  0.8166  0.4296
  189SAPI    HA21777   1.330   2.717   7.239  0.1937 -0.2789 -0.9008
  189SAPI    HB21778   1.459   2.733   7.365  0.5834 -1.4219  2.2238
  189SAPI    C221779   1.514   2.638   7.173  0.2642  0.4153 -0.2479
  189SAPI    HS21780   1.553   2.741   7.157  0.0878  1.0203  2.6285
  189SAPI   O2121781   1.449   2.570   7.063 -0.7518  0.5761 -0.7873
  189SAPI   C2121782   1.379   2.641   6.976  0.1922 -0.8544 -0.0731
  189SAPI   O2221783   1.360   2.759   6.987 -0.2064 -0.2015 -0.1715
  189SAPI   C2221784   1.331   2.553   6.861 -0.3579  0.7414  0.1050
  189SAPI   H2R21785   1.426   2.513   6.818  0.2915  0.1492  1.9536
  189SAPI   H2S21786   1.274   2.470   6.909  2.5193 -1.3509  0.1758
  189SAPI    C321787   1.628   2.550   7.215  0.5946 -0.0075 -0.1175
  189SAPI    HX21788   1.568   2.459   7.237 -0.4586  0.3479 -1.4479
  189SAPI    HY21789   1.678   2.597   7.303 -0.2340  1.5504 -0.4453
  189SAPI   O3121790   1.726   2.527   7.113  0.5968  0.2517  0.2324
  189SAPI   C3121791   1.716   2.416   7.038  0.5821 -0.4234 -1.1790
  189SAPI   O3221792   1.630   2.331   7.044 -0.2332  0.0282 -0.4526
  189SAPI   C3221793   1.836   2.405   6.948  0.1465 -0.4686  0.0512
  189SAPI   H2X21794   1.797   2.367   6.851 -1.7147  1.6109 -0.0851
  189SAPI   H2Y21795   1.908   2.335   6.995 -0.6240  1.2960  4.3175
  189SAPI   C2321796   1.249   2.623   6.749 -1.4752 -0.0898 -0.2297
  189SAPI   H3R21797   1.305   2.702   6.696 -1.0478 -0.8949 -0.9943
  189SAPI   H3S21798   1.168   2.668   6.810  0.5589 -0.6849  3.2220
  189SAPI   C2421799   1.194   2.536   6.645  0.4702 -0.3962 -0.4919
  189SAPI   H4R21800   1.124   2.594   6.580  2.0841 -1.0313 -2.9217
  189SAPI   H4S21801   1.126   2.456   6.682 -1.2315  0.8674 -0.7441
  189SAPI   C2521802   1.304   2.479   6.562  0.2432 -0.1336  0.2962
  189SAPI   H5R21803   1.353   2.394   6.611 -1.2383 -1.1689  0.0354
  189SAPI   C2621804   1.360   2.508   6.444  0.6580  0.2239  0.4101
  189SAPI   H6R21805   1.445   2.449   6.407  0.4221  0.5687 -0.7360
  189SAPI   C2721806   1.308   2.613   6.350 -0.2653 -0.2906 -0.2577
  189SAPI   H7R21807   1.385   2.693   6.344 -0.1487 -0.4782 -2.1104
  189SAPI   H7S21808   1.222   2.660   6.402  1.0014 -1.4675  3.1456
  189SAPI   C2821809   1.271   2.561   6.211 -0.7983  0.1567  0.8845
  189SAPI   H8R21810   1.332   2.475   6.182 -0.5057  0.2362  1.2498
  189SAPI   C2921811   1.164   2.593   6.136 -0.1284 -0.5660  0.5431
  189SAPI   H9R21812   1.151   2.544   6.038 -0.5004 -1.3064  0.9581
  189SAPI  C21021813   1.063   2.707   6.159  0.7062 -0.1372 -0.8979
  189SAPI  H10R21814   1.045   2.708   6.269 -0.3136 -1.5132 -1.0305
  189SAPI  H10S21815   0.965   2.679   6.115  0.3064 -0.8151  0.3595
  189SAPI  C21121816   1.107   2.837   6.111 -0.4699  0.0284 -0.2537
  189SAPI  H11R21817   1.140   2.911   6.185 -0.6870  0.0481 -0.1761
  189SAPI  C21221818   1.111   2.868   5.983 -0.1040 -0.5405  0.6966
  189SAPI  H12R21819   1.164   2.961   5.956  0.3360 -1.0451 -0.2313
  189SAPI  C21321820   1.078   2.771   5.872 -0.3262  1.1920  0.6884
  189SAPI  H13R21821   1.038   2.676   5.912  1.4328 -0.4489 -1.2394
  189SAPI  H13S21822   1.174   2.745   5.823 -1.3376 -1.5345 -0.0177
  189SAPI  C21421823   0.989   2.825   5.761 -0.1936  0.0730 -0.0371
  189SAPI  H14R21824   0.885   2.788   5.758  0.2861 -1.2767 -2.0379
  189SAPI  C21521825   1.029   2.900   5.658  0.2898 -1.0621  0.5541
  189SAPI  H15R21826   0.958   2.940   5.584 -0.0068  0.8565  1.7927
  189SAPI  C21621827   1.168   2.956   5.637  0.6965 -0.5529 -0.1559
  189SAPI  H16R21828   1.238   2.887   5.688  0.4456 -1.6277 -1.2168
  189SAPI  H16S21829   1.173   3.060   5.677  0.6569 -0.0044 -1.5201
  189SAPI  C21721830   1.215   2.964   5.492 -0.1196 -0.3620 -0.2072
  189SAPI  H17R21831   1.314   3.014   5.491 -1.3205  2.2519  1.5502
  189SAPI  H17S21832   1.149   3.033   5.435  1.3666  1.5098  0.2680
  189SAPI  C21821833   1.228   2.831   5.410 -0.3690 -0.1735  0.2330
  189SAPI  H18R21834   1.203   2.753   5.484 -0.2233 -0.6224 -0.1871
  189SAPI  H18S21835   1.333   2.816   5.377  0.5968 -2.2418  3.7860
  189SAPI  C21921836   1.128   2.825   5.295 -0.6605 -0.8406  0.0479
  189SAPI  H19R21837   1.139   2.923   5.244  0.6916  1.0472  3.6097
  189SAPI  H19S21838   1.027   2.826   5.342 -0.5890 -0.5080  0.2002
  189SAPI  C22021839   1.138   2.705   5.207  0.7969  0.2627 -0.3065
  189SAPI  H20R21840   1.133   2.616   5.273 -2.4968  0.5680  0.0174
  189SAPI  H20S21841   1.232   2.705   5.147  1.9498  1.5222  1.4034
  189SAPI  H20T21842   1.050   2.706   5.139 -0.1101 -1.4637  0.7879
  189SAPI   C3321843   1.904   2.542   6.918 -0.5166  0.6285  0.1282
  189SAPI   H3X21844   1.980   2.520   6.840 -0.1326 -0.8771  0.8749
  189SAPI   H3Y21845   1.964   2.580   7.003 -0.1450 -0.4059  0.3439
  189SAPI   C3421846   1.819   2.656   6.870 -0.3628  0.0243  0.6587
  189SAPI   H4X21847   1.888   2.740   6.848  0.9767 -1.3178 -0.5040
  189SAPI   H4Y21848   1.747   2.703   6.940  2.0431  3.2234  1.2127
  189SAPI   C3521849   1.733   2.610   6.750 -0.0647  0.3762  0.6718
  189SAPI   H5X21850   1.661   2.694   6.734 -1.3036 -0.7028  0.3968
  189SAPI   H5Y21851   1.675   2.520   6.779 -0.5746  0.4653 -0.0408
  189SAPI   C3621852   1.822   2.596   6.621  0.7672 -0.0146 -0.2741
  189SAPI   H6X21853   1.873   2.497   6.623 -0.1460 -0.5343  2.2978
  189SAPI   H6Y21854   1.895   2.679   6.616  1.8642 -0.8515  1.0816
  189SAPI   C3721855   1.733   2.594   6.497  0.1567 -0.1785  0.7054
  189SAPI   H7X21856   1.678   2.690   6.486 -0.7624 -0.7685  0.0174
  189SAPI   H7Y21857   1.650   2.521   6.509  0.1859 -0.0282  1.9358
  189SAPI   C3821858   1.824   2.555   6.370 -0.0960 -0.2725  0.0034
  189SAPI   H8X21859   1.874   2.460   6.401 -2.1658 -0.9359  1.5083
  189SAPI   H8Y21860   1.895   2.639   6.354 -0.4289  0.0316  0.1315
  189SAPI   C3921861   1.744   2.531   6.244  0.1853 -0.7800 -0.4160
  189SAPI   H9X21862   1.662   2.460   6.268  1.1098 -1.5012  0.7238
  189SAPI   H9Y21863   1.801   2.485   6.160  0.9588 -2.6207  1.0496
  189SAPI  C31021864   1.697   2.670   6.189 -0.4838 -0.2044  0.5083
  189SAPI  H10X21865   1.789   2.732   6.179 -1.1514  0.7763  0.2800
  189SAPI  H10Y21866   1.632   2.716   6.266  2.1559 -0.1927  2.8958
  189SAPI  C31121867   1.638   2.656   6.041  0.4039 -0.2656 -0.7439
  189SAPI  H11X21868   1.572   2.567   6.054  2.6574 -2.2770 -2.0995
  189SAPI  H11Y21869   1.714   2.617   5.970 -2.4869 -1.7268 -3.3163
  189SAPI  C31221870   1.556   2.767   5.975  0.2674  0.2807 -0.0346
  189SAPI  H12X21871   1.612   2.862   5.964 -0.9154  0.9870 -0.1568
  189SAPI  H12Y21872   1.471   2.791   6.043  0.3518  1.3674 -0.2835
  189SAPI  C31321873   1.481   2.736   5.844  0.0762  0.8582 -0.1947
  189SAPI  H13X21874   1.435   2.825   5.796  2.1977  1.7602 -0.6506
  189SAPI  H13Y21875   1.396   2.665   5.860  0.3231  0.2488 -1.4573
  189SAPI  C31421876   1.567   2.679   5.725 -0.0664  0.0931 -0.1880
  189SAPI  H14X21877   1.584   2.570   5.740  1.0876  0.3149  0.2043
  189SAPI  H14Y21878   1.667   2.727   5.715  1.0678 -2.5666 -3.3483
  189SAPI  C31521879   1.483   2.691   5.599 -0.0119  0.3511  0.9476
  189SAPI  H15X21880   1.476   2.799   5.575  1.4542 -0.1046 -1.8673
  189SAPI  H15Y21881   1.381   2.649   5.616  0.1425  0.3587  1.9769
  189SAPI  C31621882   1.538   2.632   5.468  0.5412 -0.3566 -0.0063
  189SAPI  H16X21883   1.628   2.692   5.442  0.9898 -0.1949  1.8081
  189SAPI  H16Y21884   1.462   2.639   5.388 -0.3729  0.7642  0.9307
  189SAPI  C31721885   1.581   2.483   5.481 -1.3038 -0.4630  0.4601
  189SAPI  H17X21886   1.489   2.435   5.521 -1.8722 -1.4263 -1.8600
  189SAPI  H17Y21887   1.664   2.473   5.554  0.9433  1.2721 -1.6946
  189SAPI  C31821888   1.619   2.411   5.352  0.2445 -0.0631 -0.1745
  189SAPI  H18X21889   1.711   2.459   5.311  0.8659  0.4531  1.7197
  189SAPI  H18Y21890   1.538   2.403   5.277  0.2483  0.1180 -0.1970
  189SAPI  H18Z21891   1.639   2.305   5.379 -0.7594 -0.2170  0.0131
  190SAPI   C1221892   3.993   3.210   7.660 -0.5160 -0.4084  0.0047
  190SAPI    H221893   3.948   3.298   7.710 -0.0931  0.2912 -0.8029
  190SAPI    O221894   4.129   3.243   7.631  0.0798  0.6976 -0.2478
  190SAPI   HO221895   4.141   3.330   7.594 -0.0230  0.6155 -0.4737
  190SAPI   C1321896   3.972   3.079   7.739 -0.1068  0.1626 -0.7214
  190SAPI    H321897   3.862   3.068   7.748 -0.2391  0.6455 -1.5960
  190SAPI    O321898   4.025   3.086   7.870 -0.4208 -0.3056  0.4562
  190SAPI   HO321899   4.119   3.106   7.875 -0.8948  2.1499  0.6255
  190SAPI   C1421900   4.036   2.964   7.659  0.3937  0.5397  0.0009
  190SAPI    H421901   4.146   2.976   7.674  0.3955 -0.1557  0.6118
  190SAPI    O421902   3.997   2.844   7.724  0.2902 -0.3096 -0.9678
  190SAPI   HO421903   3.901   2.839   7.728  0.2889  0.3956  0.8870
  190SAPI   C1521904   4.021   2.961   7.513  0.0611 -0.5421  0.5406
  190SAPI    H521905   3.939   2.887   7.507 -0.8013  0.5159 -1.6143
  190SAPI    O521906   4.137   2.911   7.445  0.2809 -0.3173 -0.4003
  190SAPI   HO521907   4.097   2.846   7.387 -3.1037  1.3503 -0.2336
  190SAPI   C1621908   3.981   3.092   7.437  0.0269 -0.0750  0.5551
  190SAPI    H621909   4.074   3.138   7.398 -0.3158 -0.4220 -0.7262
  190SAPI    O621910   3.906   3.055   7.323 -0.5999  0.1109 -0.6071
  190SAPI   HO621911   3.883   3.139   7.282 -0.6097  1.4357  1.9244
  190SAPI   C1121912   3.913   3.194   7.526 -0.0377  0.9835  0.0403
  190SAPI    H121913   3.810   3.159   7.546  0.3624 -0.2629  0.0376
  190SAPI     P21914   3.790   3.373   7.378 -0.1891 -0.0535 -0.0307
  190SAPI   O1321915   3.803   3.510   7.337 -0.3627 -0.4321  0.9907
  190SAPI   O1421916   3.664   3.327   7.440 -0.6869 -0.0803  0.3340
  190SAPI   O1221917   3.915   3.327   7.469 -0.3108  0.6567 -0.0120
  190SAPI   O1121918   3.818   3.278   7.259  0.0004 -0.0554 -0.0304
  190SAPI    C121919   3.756   3.315   7.133  0.0716  0.2719  0.8860
  190SAPI    HA21920   3.752   3.424   7.112 -0.4523 -0.4178 -3.7524
  190SAPI    HB21921   3.822   3.275   7.053  1.0966  1.5959  1.0365
  190SAPI    C221922   3.617   3.247   7.100 -0.1707  0.5806 -0.5471
  190SAPI    HS21923   3.549   3.289   7.178  0.3715  1.2918 -0.4403
  190SAPI   O2121924   3.630   3.101   7.103 -0.1601 -0.2075  0.1958
  190SAPI   C2121925   3.517   3.024   7.091  0.3984  0.2052  0.7901
  190SAPI   O2221926   3.403   3.066   7.111 -0.5069  0.4927  0.3987
  190SAPI   C2221927   3.552   2.875   7.049 -0.6655 -0.4158 -0.4311
  190SAPI   H2R21928   3.587   2.885   6.944 -1.2145  0.3651 -0.5415
  190SAPI   H2S21929   3.638   2.834   7.107 -1.3478 -3.9353 -1.6855
  190SAPI    C321930   3.560   3.306   6.971 -0.1962 -0.5251  0.4670
  190SAPI    HX21931   3.536   3.414   6.974  0.6399 -0.2105 -2.1453
  190SAPI    HY21932   3.467   3.247   6.954  1.8231 -3.1426 -2.7238
  190SAPI   O3121933   3.641   3.296   6.848  0.1930 -0.3108  0.1290
  190SAPI   C3121934   3.568   3.328   6.740  0.8585 -0.6875  0.5818
  190SAPI   O3221935   3.450   3.358   6.742 -0.4613  0.3157  0.7910
  190SAPI   C3221936   3.647   3.295   6.617 -0.6761  0.3899 -0.4776
  190SAPI   H2X21937   3.677   3.190   6.635 -2.6900 -0.3468 -1.1573
  190SAPI   H2Y21938   3.740   3.355   6.629 -0.3122 -0.2947  0.2213
  190SAPI   C2321939   3.437   2.769   7.047  1.0170 -0.3611 -0.0851
  190SAPI   H3R21940   3.360   2.812   6.979  1.2389  1.2481  0.6504
  190SAPI   H3S21941   3.400   2.776   7.151  0.4811  0.4250 -0.3198
  190SAPI   C2421942   3.480   2.626   7.006 -0.0702  0.1937 -0.2756
  190SAPI   H4R21943   3.399   2.550   7.004 -0.2906  0.3778 -3.3342
  190SAPI   H4S21944   3.551   2.594   7.085  1.1598 -0.6366 -1.6761
  190SAPI   C2521945   3.539   2.635   6.862 -0.2128  0.7752  0.0266
  190SAPI   H5R21946   3.619   2.709   6.852 -2.1343  3.0384  0.4150
  190SAPI   C2621947   3.499   2.564   6.756  0.7359  0.7622  0.8174
  190SAPI   H6R21948   3.547   2.583   6.659 -0.3793 -1.5825 -0.2571
  190SAPI   C2721949   3.390   2.463   6.754 -0.1207 -0.1114  0.2072
  190SAPI   H7R21950   3.300   2.527   6.736 -0.2744  0.1139  1.6837
  190SAPI   H7S21951   3.357   2.415   6.848 -0.9661 -0.6335 -0.3410
  190SAPI   C2821952   3.420   2.361   6.651 -0.4452  0.0840 -0.4313
  190SAPI   H8R21953   3.482   2.277   6.686  1.7468  0.9035 -2.0654
  190SAPI   C2921954   3.388   2.356   6.522 -0.0729  0.3302  0.3791
  190SAPI   H9R21955   3.429   2.277   6.458  0.7186  1.0546 -0.0226
  190SAPI  C21021956   3.298   2.460   6.450  0.2970 -0.0556  0.7003
  190SAPI  H10R21957   3.265   2.546   6.511 -0.8519 -0.4395  0.6522
  190SAPI  H10S21958   3.201   2.421   6.413 -0.2952  2.6115 -0.8175
  190SAPI  C21121959   3.373   2.511   6.329 -0.3372 -0.8415  0.3401
  190SAPI  H11R21960   3.482   2.517   6.342 -0.2456  0.0223 -0.7212
  190SAPI  C21221961   3.328   2.524   6.203  1.6934 -0.8177  0.0300
  190SAPI  H12R21962   3.399   2.579   6.139  1.0871 -0.5859 -0.4584
  190SAPI  C21321963   3.183   2.497   6.157 -0.3179 -0.1934  0.8599
  190SAPI  H13R21964   3.127   2.498   6.253  2.8694 -0.1545  2.8495
  190SAPI  H13S21965   3.180   2.398   6.108 -0.1041 -0.0464  0.5477
  190SAPI  C21421966   3.131   2.606   6.062 -0.6424  0.1305 -0.2426
  190SAPI  H14R21967   3.065   2.680   6.109 -0.8163  0.5273 -1.0922
  190SAPI  C21521968   3.135   2.607   5.929 -0.0883 -0.1501 -0.2656
  190SAPI  H15R21969   3.083   2.693   5.883 -0.9032  0.3676  1.5329
  190SAPI  C21621970   3.205   2.514   5.840  0.0260  0.0072 -0.0288
  190SAPI  H16R21971   3.131   2.439   5.806  2.1912 -2.0695 -0.4021
  190SAPI  H16S21972   3.284   2.455   5.891  2.6628  3.3354  0.1063
  190SAPI  C21721973   3.283   2.582   5.730 -0.4766 -0.6612  0.4303
  190SAPI  H17R21974   3.372   2.629   5.777  0.8510  0.0063 -2.5085
  190SAPI  H17S21975   3.225   2.665   5.682 -0.8138 -2.0120 -1.6431
  190SAPI  C21821976   3.324   2.486   5.610  0.3623 -0.0033 -0.1257
  190SAPI  H18R21977   3.233   2.442   5.564 -0.3167 -0.6410  1.7221
  190SAPI  H18S21978   3.389   2.409   5.658  1.2563  0.9834  0.2685
  190SAPI  C21921979   3.414   2.558   5.507 -0.7821  0.0879  0.1417
  190SAPI  H19R21980   3.502   2.595   5.564  0.9291 -0.8745 -1.7337
  190SAPI  H19S21981   3.354   2.643   5.468 -1.1634 -0.0536  0.4128
  190SAPI  C22021982   3.468   2.472   5.390  0.3298 -0.4800  0.2851
  190SAPI  H20R21983   3.553   2.511   5.329 -0.0236 -1.7532 -1.0748
  190SAPI  H20S21984   3.390   2.469   5.311  2.7901  1.6955 -2.4620
  190SAPI  H20T21985   3.507   2.371   5.415 -0.7647 -0.6433  1.4496
  190SAPI   C3321986   3.566   3.305   6.486 -0.1182  0.3515  0.4360
  190SAPI   H3X21987   3.534   3.410   6.468 -1.0990 -0.2842 -1.8445
  190SAPI   H3Y21988   3.472   3.246   6.494 -1.0455  1.1466 -3.0525
  190SAPI   C3421989   3.651   3.261   6.362  0.5797 -0.3093 -0.0182
  190SAPI   H4X21990   3.670   3.153   6.381  0.9893 -0.2238  0.0599
  190SAPI   H4Y21991   3.752   3.307   6.360  1.6092 -2.4552 -1.7522
  190SAPI   C3521992   3.569   3.293   6.238 -0.1377 -0.1530  0.1298
  190SAPI   H5X21993   3.557   3.403   6.244  0.2353 -0.1741  1.7939
  190SAPI   H5Y21994   3.465   3.254   6.241 -0.0619 -0.3367  0.5770
  190SAPI   C3621995   3.637   3.261   6.104  0.1705  0.2430  0.4072
  190SAPI   H6X21996   3.655   3.152   6.102 -2.6021 -0.2703  0.3077
  190SAPI   H6Y21997   3.732   3.313   6.080 -0.4287  2.1965  1.9578
  190SAPI   C3721998   3.542   3.283   5.979  0.0263 -0.2087 -0.4528
  190SAPI   H7X21999   3.515   3.391   5.970 -0.5193 -0.1098  1.7176
  190SAPI   H7Y22000   3.453   3.221   6.004 -1.4097  2.2929  1.1284
  190SAPI   C3822001   3.595   3.249   5.850 -0.2057 -0.0079  0.1201
  190SAPI   H8X22002   3.614   3.140   5.855 -0.4912 -0.0172  0.9879
  190SAPI   H8Y22003   3.699   3.287   5.837 -0.8350  1.9178  0.3285
  190SAPI   C3922004   3.515   3.276   5.716 -0.1086  0.8554 -0.7874
  190SAPI   H9X22005   3.480   3.382   5.712 -0.5368  0.8395  1.1921
  190SAPI   H9Y22006   3.427   3.209   5.714  0.6707 -0.3185  0.9673
  190SAPI  C31022007   3.612   3.252   5.604 -0.3439  0.1548  0.5750
  190SAPI  H10X22008   3.654   3.150   5.602  0.4636  0.4827 -0.1515
  190SAPI  H10Y22009   3.696   3.324   5.617 -0.3310 -0.1722  2.6052
  190SAPI  C31122010   3.555   3.289   5.473 -0.3448 -0.7433  0.2298
  190SAPI  H11X22011   3.455   3.243   5.460 -1.6140  1.7248  0.6995
  190SAPI  H11Y22012   3.623   3.254   5.392 -0.0387 -2.7324  1.2804
  190SAPI  C31222013   3.520   3.437   5.466  0.1667  0.2035  0.0515
  190SAPI  H12X22014   3.596   3.508   5.504  1.6677 -1.4684  0.3110
  190SAPI  H12Y22015   3.427   3.459   5.523 -0.3070  1.3785 -1.1216
  190SAPI  C31322016   3.483   3.483   5.320 -0.0668  0.2039  0.1592
  190SAPI  H13X22017   3.572   3.488   5.254 -0.9668 -0.5159 -1.1533
  190SAPI  H13Y22018   3.453   3.590   5.317 -0.7692 -0.0077 -0.8699
  190SAPI  C31422019   3.368   3.400   5.256 -0.3905  0.1470  0.5281
  190SAPI  H14X22020   3.277   3.401   5.319  0.8909  3.4899  2.5604
  190SAPI  H14Y22021   3.403   3.295   5.251  0.7843  0.4464  1.9537
  190SAPI  C31522022   3.337   3.462   5.123 -0.3415  0.7564 -0.1323
  190SAPI  H15X22023   3.433   3.459   5.067 -0.6916 -1.6816 -0.7191
  190SAPI  H15Y22024   3.299   3.565   5.134  0.7867  1.3119 -1.1772
  190SAPI  C31622025   3.252   3.375   5.026  0.2459 -1.0086 -0.5816
  190SAPI  H16X22026   3.148   3.359   5.060 -0.8739 -0.7464 -3.5748
  190SAPI  H16Y22027   3.295   3.273   5.024  1.6872 -0.4887  1.1834
  190SAPI  C31722028   3.245   3.428   4.889  0.0678 -0.0857  0.7284
  190SAPI  H17X22029   3.347   3.456   4.856 -0.0008  1.5629  1.7701
  190SAPI  H17Y22030   3.199   3.529   4.896  1.5376  0.6150  0.6856
  190SAPI  C31822031   3.163   3.337   4.799  0.3937 -0.5441 -0.0817
  190SAPI  H18X22032   3.133   3.388   4.705  0.5885  0.9427  0.6275
  190SAPI  H18Y22033   3.072   3.297   4.849 -0.7398  0.9473 -0.8611
  190SAPI  H18Z22034   3.222   3.245   4.779  0.5503 -0.3258 -0.6574
  191SAPI   C1222035   3.437   5.248   3.270 -0.0153 -0.2021 -0.1785
  191SAPI    H222036   3.415   5.296   3.367  0.7940  1.9278 -0.9966
  191SAPI    O222037   3.500   5.349   3.189  0.4731  0.6310  0.4507
  191SAPI   HO222038   3.464   5.437   3.204  1.1931  0.6250  2.4719
  191SAPI   C1322039   3.533   5.128   3.290 -0.2182  0.3348 -0.2321
  191SAPI    H322040   3.475   5.059   3.356 -1.3084  1.4170 -0.0182
  191SAPI    O322041   3.650   5.169   3.357 -0.9603  0.2621  0.1780
  191SAPI   HO322042   3.683   5.232   3.293 -0.4998  0.1592  0.3128
  191SAPI   C1422043   3.557   5.042   3.165 -0.7345  0.7163 -0.9291
  191SAPI    H422044   3.625   5.110   3.109 -0.4551 -1.1269 -2.9497
  191SAPI    O422045   3.635   4.923   3.196 -0.0206 -0.1329  0.3604
  191SAPI   HO422046   3.724   4.928   3.159  0.7154  0.2350  2.1185
  191SAPI   C1522047   3.435   5.013   3.082  0.0311  0.0571 -0.2467
  191SAPI    H522048   3.396   4.923   3.134 -2.2558  0.2099 -1.5384
  191SAPI    O522049   3.478   4.959   2.954  0.0971 -0.1937 -0.4075
  191SAPI   HO522050   3.534   4.882   2.965 -1.3868 -1.2672 -0.0908
  191SAPI   C1622051   3.326   5.118   3.080 -0.1938 -0.4816  0.2971
  191SAPI    H622052   3.349   5.198   3.006  1.4502 -0.2676  0.9930
  191SAPI    O622053   3.199   5.051   3.059  0.0342 -0.8249  0.7519
  191SAPI   HO622054   3.159   5.023   3.141 -2.3891 -2.4581 -0.8346
  191SAPI   C1122055   3.311   5.201   3.204  0.2761  0.9760 -0.7467
  191SAPI    H122056   3.264   5.132   3.277 -1.3372  1.4353 -1.2919
  191SAPI     P22057   3.071   5.318   3.254 -0.3463  0.4415 -0.0464
  191SAPI   O1322058   3.012   5.183   3.253 -0.4073  0.4976  0.5347
  191SAPI   O1422059   2.989   5.419   3.181 -0.6021  0.4663 -0.5051
  191SAPI   O1222060   3.227   5.315   3.183  0.0602 -0.0054  0.5356
  191SAPI   O1122061   3.098   5.365   3.397 -0.1672  0.1695  0.2092
  191SAPI    C122062   3.161   5.486   3.434 -0.6127 -0.2376 -0.2068
  191SAPI    HA22063   3.270   5.483   3.412 -0.6173  4.0927 -1.8468
  191SAPI    HB22064   3.116   5.563   3.368 -1.6970 -0.7418 -0.0767
  191SAPI    C222065   3.135   5.525   3.582 -0.0922 -0.1248  0.3033
  191SAPI    HS22066   3.190   5.612   3.623 -1.7704  2.2060 -2.0833
  191SAPI   O2122067   3.150   5.408   3.662  0.1648 -0.2805  0.1317
  191SAPI   C2122068   3.274   5.359   3.651  0.1668  0.0162  0.1558
  191SAPI   O2222069   3.372   5.415   3.612 -0.5254 -0.7626  0.7571
  191SAPI   C2222070   3.261   5.205   3.688 -0.4685 -0.4348 -0.6873
  191SAPI   H2R22071   3.243   5.204   3.798  0.1997  0.6128 -0.5536
  191SAPI   H2S22072   3.169   5.166   3.639 -1.1183 -0.5023  0.5450
  191SAPI    C322073   2.990   5.581   3.601 -0.3155  0.0703  0.0565
  191SAPI    HX22074   2.919   5.508   3.557  1.0023 -1.8326  0.9592
  191SAPI    HY22075   2.989   5.672   3.538  1.1773 -0.0870 -0.2179
  191SAPI   O3122076   2.977   5.603   3.739 -0.0570  0.3260 -0.1530
  191SAPI   C3122077   3.026   5.711   3.796  0.0084  0.0046  0.1322
  191SAPI   O3222078   3.092   5.799   3.732  0.0008 -0.7196  0.6685
  191SAPI   C3222079   3.002   5.716   3.953  0.1962 -0.0069  0.5072
  191SAPI   H2X22080   2.892   5.698   3.961 -0.1456  1.4096 -0.4965
  191SAPI   H2Y22081   3.019   5.822   3.981 -1.2849  0.1750  0.8338
  191SAPI   C2322082   3.395   5.127   3.663 -0.5261  1.0559 -0.1886
  191SAPI   H3R22083   3.470   5.167   3.734  0.0960 -2.8513  1.5887
  191SAPI   H3S22084   3.430   5.149   3.560  0.8558 -2.0088 -0.4776
  191SAPI   C2422085   3.382   4.970   3.676  0.3225 -0.4325 -0.4069
  191SAPI   H4R22086   3.358   4.947   3.782 -0.0783 -0.0144 -0.4061
  191SAPI   H4S22087   3.473   4.916   3.640 -0.2778 -0.4058 -2.0362
  191SAPI   C2522088   3.271   4.925   3.586 -0.4078 -0.3038  0.1136
  191SAPI   H5R22089   3.265   4.963   3.483  0.8285 -1.6348 -0.4813
  191SAPI   C2622090   3.167   4.847   3.616 -0.6653  0.4786 -0.1106
  191SAPI   H6R22091   3.095   4.820   3.537  0.3668  0.6024 -1.1122
  191SAPI   C2722092   3.146   4.783   3.750  0.8987 -0.2168 -0.3903
  191SAPI   H7R22093   3.215   4.807   3.834 -1.5936 -0.4971  1.8529
  191SAPI   H7S22094   3.158   4.674   3.735  2.2394 -0.3216  1.1639
  191SAPI   C2822095   3.011   4.815   3.817  0.3890 -0.0951 -0.2325
  191SAPI   H8R22096   2.925   4.758   3.779 -0.7374  0.7571  0.9641
  191SAPI   C2922097   2.985   4.897   3.919  0.0922  0.6736  0.4141
  191SAPI   H9R22098   2.884   4.914   3.958 -0.4763 -1.2518 -0.1283
  191SAPI  C21022099   3.081   4.986   4.000  0.0459  0.1013  0.3479
  191SAPI  H10R22100   3.015   5.066   4.041 -2.5234 -0.7090 -1.9462
  191SAPI  H10S22101   3.159   5.033   3.936  1.9402 -2.7198  0.3875
  191SAPI  C21122102   3.157   4.910   4.102 -0.3370 -1.1828 -0.0551
  191SAPI  H11R22103   3.156   4.800   4.098 -1.4677 -1.1952  0.0999
  191SAPI  C21222104   3.229   4.972   4.194  0.2939  0.5967 -1.0065
  191SAPI  H12R22105   3.267   4.908   4.275 -0.7120  0.2791 -0.7642
  191SAPI  C21322106   3.237   5.119   4.222 -0.2404 -0.7161  0.5799
  191SAPI  H13R22107   3.131   5.149   4.239 -0.1034  0.5522 -0.6171
  191SAPI  H13S22108   3.267   5.175   4.131 -1.0611  0.1042  0.7938
  191SAPI  C21422109   3.327   5.156   4.340  0.8899  0.9397 -0.4198
  191SAPI  H14R22110   3.328   5.079   4.418 -1.5651  1.9726  0.7506
  191SAPI  C21522111   3.389   5.274   4.363  0.5428  0.4110  0.2900
  191SAPI  H15R22112   3.456   5.288   4.449  0.6126  1.2042  0.1220
  191SAPI  C21622113   3.404   5.394   4.274  0.5761 -0.2342 -0.6719
  191SAPI  H16R22114   3.374   5.489   4.323  0.5399 -0.9783  0.7995
  191SAPI  H16S22115   3.328   5.386   4.192 -1.8585  0.6270  1.3834
  191SAPI  C21722116   3.548   5.415   4.228  0.2596  0.7772  0.6258
  191SAPI  H17R22117   3.623   5.406   4.310 -0.6855  0.1005  1.4446
  191SAPI  H17S22118   3.554   5.522   4.200 -3.3587  0.4459 -2.2901
  191SAPI  C21822119   3.588   5.314   4.115  0.0366  0.2450  0.3011
  191SAPI  H18R22120   3.537   5.218   4.141 -1.0333  0.9894  1.0236
  191SAPI  H18S22121   3.697   5.298   4.120  0.0793  0.8313  2.1923
  191SAPI  C21922122   3.552   5.352   3.973  0.0833  0.1518  0.4975
  191SAPI  H19R22123   3.454   5.405   3.968  0.2487  0.4182  0.0517
  191SAPI  H19S22124   3.554   5.252   3.925  0.2489  0.9942 -1.3442
  191SAPI  C22022125   3.663   5.433   3.915  0.2186 -0.0115  0.2170
  191SAPI  H20R22126   3.642   5.443   3.806  0.9146 -0.4552  0.0348
  191SAPI  H20S22127   3.769   5.400   3.923  1.0042  2.4858  1.4398
  191SAPI  H20T22128   3.660   5.538   3.953  0.9792 -0.1127  0.5806
  191SAPI   C3322129   3.093   5.637   4.041  0.0741  0.4710  0.3963
  191SAPI   H3X22130   3.099   5.683   4.142 -0.4322  2.3974 -0.4114
  191SAPI   H3Y22131   3.195   5.642   3.997  0.5464  1.2767  1.5410
  191SAPI   C3422132   3.057   5.492   4.052 -0.1909  0.6413  0.8970
  191SAPI   H4X22133   3.140   5.433   4.098  1.9570  2.4968 -0.3786
  191SAPI   H4Y22134   3.053   5.451   3.949  0.1156  1.8066  0.4010
  191SAPI   C3522135   2.930   5.448   4.127  0.5968  0.6140 -0.4656
  191SAPI   H5X22136   2.937   5.337   4.136  0.6088  0.6968  0.7662
  191SAPI   H5Y22137   2.837   5.474   4.071 -0.4379  1.9318  1.7265
  191SAPI   C3622138   2.931   5.486   4.277 -0.1301 -0.3918  0.9644
  191SAPI   H6X22139   2.826   5.478   4.313  0.1428 -2.3965  1.4077
  191SAPI   H6Y22140   2.969   5.591   4.274 -0.4623 -0.2718  0.8763
  191SAPI   C3722141   3.029   5.410   4.363  0.1138  0.1613  0.0273
  191SAPI   H7X22142   3.128   5.419   4.313  0.3280  2.2402  0.7172
  191SAPI   H7Y22143   2.997   5.304   4.355  1.4435 -0.3973  1.4706
  191SAPI   C3822144   3.029   5.455   4.507  0.0677 -0.1007  0.2501
  191SAPI   H8X22145   3.087   5.388   4.575  0.4944  1.6326  1.6505
  191SAPI   H8Y22146   2.925   5.465   4.543 -0.8271  0.0360 -2.1610
  191SAPI   C3922147   3.092   5.593   4.526 -0.0763  0.2362 -0.2028
  191SAPI   H9X22148   3.020   5.669   4.488 -4.2671 -1.9921  2.4976
  191SAPI   H9Y22149   3.185   5.595   4.466 -0.0590 -2.8784 -0.4288
  191SAPI  C31022150   3.128   5.639   4.666  0.2237 -0.7019  0.5203
  191SAPI  H10X22151   3.188   5.554   4.708 -0.9726 -1.7640  0.1332
  191SAPI  H10Y22152   3.033   5.642   4.724  0.4547 -0.5425  0.8960
  191SAPI  C31122153   3.203   5.776   4.687 -0.3617  0.8268 -0.8468
  191SAPI  H11X22154   3.137   5.853   4.641 -1.9185  0.3666  0.5140
  191SAPI  H11Y22155   3.297   5.775   4.629 -0.1893 -1.2773 -0.6136
  191SAPI  C31222156   3.238   5.801   4.836  0.2755 -0.0178  0.1833
  191SAPI  H12X22157   3.277   5.715   4.894 -0.0231  0.4858  1.1461
  191SAPI  H12Y22158   3.139   5.828   4.878  0.3958 -1.3373  1.3705
  191SAPI  C31322159   3.325   5.930   4.851 -0.7129  0.6005  0.4185
  191SAPI  H13X22160   3.272   6.015   4.804 -2.5370 -1.9799 -2.5618
  191SAPI  H13Y22161   3.416   5.914   4.789  0.2199  2.1835  1.2977
  191SAPI  C31422162   3.397   5.947   4.993  0.5157 -0.2071 -0.0053
  191SAPI  H14X22163   3.474   5.866   5.001  0.8996  0.2824  1.5936
  191SAPI  H14Y22164   3.310   5.949   5.061 -1.2208  0.1541 -2.1346
  191SAPI  C31522165   3.479   6.081   5.019  0.5247  0.3991  0.8317
  191SAPI  H15X22166   3.565   6.080   4.949  0.4055 -1.1459  0.6823
  191SAPI  H15Y22167   3.504   6.089   5.127 -1.7853  0.1125  1.4464
  191SAPI  C31622168   3.392   6.203   4.983 -0.1799 -0.1409 -0.5073
  191SAPI  H16X22169   3.288   6.197   5.022 -0.6278 -0.2162 -1.6636
  191SAPI  H16Y22170   3.377   6.206   4.873  2.2108  0.6929 -0.8723
  191SAPI  C31722171   3.454   6.333   5.036  0.2720 -0.0623  0.4939
  191SAPI  H17X22172   3.483   6.333   5.143  1.8590 -1.3975  0.1089
  191SAPI  H17Y22173   3.368   6.402   5.021  2.6413  3.2251  1.0212
  191SAPI  C31822174   3.570   6.387   4.957 -1.4042 -0.2540 -0.3795
  191SAPI  H18X22175   3.542   6.400   4.850  0.6354  1.7861 -0.7519
  191SAPI  H18Y22176   3.665   6.331   4.969 -1.5711 -1.0695 -2.4797
  191SAPI  H18Z22177   3.600   6.492   4.980  0.2483 -0.6701 -0.5057
  192SAPI   C1222178   5.130   0.899   2.686 -0.4538 -0.5268  0.0055
  192SAPI    H222179   5.095   0.814   2.749 -1.3764  0.1869  0.4814
  192SAPI    O222180   5.037   0.999   2.711 -0.2293 -0.8984  0.6927
  192SAPI   HO222181   4.968   0.968   2.770 -1.7588  0.3308 -0.3756
  192SAPI   C1322182   5.272   0.935   2.736  0.1564  0.4144 -0.7904
  192SAPI    H322183   5.332   0.845   2.714  1.1137  1.4293 -2.5794
  192SAPI    O322184   5.264   0.963   2.881 -0.0824  0.0394  0.3571
  192SAPI   HO322185   5.347   0.948   2.927 -0.7064  0.5337  1.7026
  192SAPI   C1422186   5.334   1.049   2.660  0.7784 -0.5377 -0.1386
  192SAPI    H422187   5.284   1.139   2.702 -1.0798  0.4088 -3.8870
  192SAPI    O422188   5.471   1.067   2.685 -0.4811 -0.0141  0.3260
  192SAPI   HO422189   5.482   1.127   2.759  0.9489  2.0898 -1.4548
  192SAPI   C1522190   5.294   1.058   2.512  0.2381 -0.4928 -0.3707
  192SAPI    H522191   5.376   1.001   2.463  2.5836 -0.1592  2.8182
  192SAPI    O522192   5.311   1.188   2.447 -0.2306  1.0929 -0.0713
  192SAPI   HO522193   5.360   1.186   2.364  0.5377 -0.6380  0.3845
  192SAPI   C1622194   5.171   0.984   2.469  0.3646  0.0267  0.4872
  192SAPI    H622195   5.083   1.052   2.471 -0.6351 -1.2164  0.1187
  192SAPI    O622196   5.176   0.943   2.330 -0.2086 -0.0390 -0.0310
  192SAPI   HO622197   5.108   0.996   2.287 -0.7351 -0.8412 -0.2035
  192SAPI   C1122198   5.132   0.861   2.541 -0.0138  0.4544  0.5197
  192SAPI    H122199   5.216   0.788   2.533 -0.0387  0.2005  2.2214
  192SAPI     P22200   4.996   0.646   2.477 -0.0354 -0.0137 -0.4861
  192SAPI   O1322201   5.122   0.605   2.409 -0.1976  0.0046  0.0276
  192SAPI   O1422202   4.870   0.604   2.416  0.1371 -0.3009 -0.7570
  192SAPI   O1222203   5.005   0.812   2.506  0.4399  0.1178 -0.5108
  192SAPI   O1122204   4.997   0.583   2.624  0.0144 -0.2164  0.0205
  192SAPI    C122205   4.897   0.615   2.717  0.5572  0.2941  0.2911
  192SAPI    HA22206   4.883   0.723   2.737 -0.5921  0.1514  0.3435
  192SAPI    HB22207   4.797   0.590   2.676 -0.3451  0.0033  2.5214
  192SAPI    C222208   4.918   0.539   2.848  0.0003 -0.2831 -0.0096
  192SAPI    HS22209   4.832   0.556   2.916  1.3334  0.2219  1.6204
  192SAPI   O2122210   5.041   0.585   2.908 -0.4222 -0.9723 -0.1349
  192SAPI   C2122211   5.047   0.572   3.045 -0.2594 -1.0092  0.3701
  192SAPI   O2222212   4.973   0.503   3.110 -0.3356 -0.1623 -0.7012
  192SAPI   C2222213   5.156   0.660   3.093 -0.1922  0.1116  0.3934
  192SAPI   H2R22214   5.247   0.604   3.064 -0.8034 -1.8357  1.9738
  192SAPI   H2S22215   5.158   0.756   3.038 -1.6238  0.0802  0.2483
  192SAPI    C322216   4.929   0.381   2.809 -0.0068 -0.6704 -0.3177
  192SAPI    HX22217   5.019   0.373   2.745  1.4719 -0.1776  1.6352
  192SAPI    HY22218   4.844   0.358   2.741 -2.2858  3.3157  0.8640
  192SAPI   O3122219   4.932   0.296   2.919 -0.3141  0.5222  0.2192
  192SAPI   C3122220   4.919   0.166   2.892 -0.7864  0.1724 -0.5925
  192SAPI   O3222221   4.937   0.120   2.788  0.3332  0.0357  0.2945
  192SAPI   C3222222   4.866   0.084   3.027  0.0321  0.4121 -0.1562
  192SAPI   H2X22223   4.759   0.112   3.030  0.0281  0.3125  1.3192
  192SAPI   H2Y22224   4.922   0.141   3.104 -0.7248 -0.6466  1.2234
  192SAPI   C2322225   5.144   0.687   3.245  0.5863 -0.1230 -0.3133
  192SAPI   H3R22226   5.139   0.591   3.300  1.2061  0.2214  0.3529
  192SAPI   H3S22227   5.052   0.738   3.280  1.3641  0.8911  0.3022
  192SAPI   C2422228   5.262   0.772   3.291  0.6744  0.6401 -0.4020
  192SAPI   H4R22229   5.224   0.833   3.375  1.2109  1.2701 -0.6064
  192SAPI   H4S22230   5.286   0.843   3.209 -1.2330  0.7365 -0.9373
  192SAPI   C2522231   5.389   0.689   3.327  0.7221 -0.4289  0.3907
  192SAPI   H5R22232   5.470   0.721   3.261  0.1634  1.4663  0.5615
  192SAPI   C2622233   5.405   0.601   3.429 -0.0806  0.0787 -0.2898
  192SAPI   H6R22234   5.499   0.544   3.434  0.0382  0.3828  2.0013
  192SAPI   C2722235   5.302   0.556   3.534 -0.0790 -0.0724  0.2231
  192SAPI   H7R22236   5.341   0.473   3.598  0.8518  0.0333 -0.2004
  192SAPI   H7S22237   5.209   0.506   3.500 -1.8890  3.7523 -0.9650
  192SAPI   C2822238   5.259   0.671   3.625 -0.2616 -0.3282 -0.2399
  192SAPI   H8R22239   5.236   0.772   3.588 -0.9664  0.0760  1.2083
  192SAPI   C2922240   5.254   0.678   3.756  0.3173  0.2436 -0.6735
  192SAPI   H9R22241   5.242   0.777   3.804  2.3790  0.2239 -0.0640
  192SAPI  C21022242   5.275   0.566   3.860 -0.1366  0.4871  0.7203
  192SAPI  H10R22243   5.218   0.478   3.822 -1.3618  1.9342 -0.9417
  192SAPI  H10S22244   5.220   0.596   3.953  1.2662 -0.2541  1.8304
  192SAPI  C21122245   5.421   0.537   3.878  0.6903 -0.3201  0.0345
  192SAPI  H11R22246   5.482   0.560   3.790 -0.8050 -0.0581 -0.9747
  192SAPI  C21222247   5.477   0.502   3.997  0.1355  0.0921  0.2676
  192SAPI  H12R22248   5.585   0.483   4.002 -0.1227 -2.0719 -0.9042
  192SAPI  C21322249   5.412   0.493   4.131  0.1712  0.6933  0.1659
  192SAPI  H13R22250   5.481   0.432   4.192  1.6462  1.6651 -0.4711
  192SAPI  H13S22251   5.316   0.439   4.115  1.0288 -1.2110  1.0790
  192SAPI  C21422252   5.381   0.626   4.199  0.2292  0.6243 -0.2703
  192SAPI  H14R22253   5.276   0.648   4.173  0.2131  2.1059  0.9541
  192SAPI  C21522254   5.457   0.716   4.265  0.2916 -0.3257 -0.0684
  192SAPI  H15R22255   5.405   0.793   4.323 -1.1802 -1.7572  0.5916
  192SAPI  C21622256   5.608   0.699   4.285  0.4953 -0.1886 -0.7860
  192SAPI  H16R22257   5.671   0.771   4.230  1.5504  0.1201  0.7644
  192SAPI  H16S22258   5.647   0.598   4.258  1.0787  0.0749 -0.9417
  192SAPI  C21722259   5.643   0.723   4.435 -0.3342  0.4240  0.1900
  192SAPI  H17R22260   5.579   0.660   4.500  3.2019  0.2504  3.9182
  192SAPI  H17S22261   5.625   0.827   4.469  0.9169  0.5818  0.4232
  192SAPI  C21822262   5.791   0.686   4.458 -0.4173  0.2375  0.1085
  192SAPI  H18R22263   5.849   0.754   4.392 -1.5778  0.5609 -0.6045
  192SAPI  H18S22264   5.809   0.580   4.428  2.6730  1.0401 -1.2136
  192SAPI  C21922265   5.833   0.700   4.602  0.1134 -0.0700 -0.2724
  192SAPI  H19R22266   5.919   0.631   4.619  0.0996  0.1452  0.7346
  192SAPI  H19S22267   5.753   0.653   4.663  0.4064 -1.3894 -0.8595
  192SAPI  C22022268   5.867   0.839   4.651 -0.9488 -0.5945 -0.0020
  192SAPI  H20R22269   5.799   0.926   4.634 -1.2429 -0.7776  0.2149
  192SAPI  H20S22270   5.955   0.870   4.591 -1.2630  0.2191 -0.0624
  192SAPI  H20T22271   5.896   0.831   4.758 -1.2219 -1.9955 -0.0168
  192SAPI   C3322272   4.883  -0.073   3.032 -0.0231 -0.4556 -0.2636
  192SAPI   H3X22273   4.991  -0.101   3.037  0.5360  1.6686  0.4013
  192SAPI   H3Y22274   4.834  -0.124   2.946  0.5822 -0.2028 -0.7639
  192SAPI   C3422275   4.803  -0.134   3.148 -0.0450  0.0859 -1.0488
  192SAPI   H4X22276   4.838  -0.239   3.145  1.0260  0.4534 -2.1000
  192SAPI   H4Y22277   4.697  -0.143   3.117 -0.6123 -1.2035  1.0578
  192SAPI   C3522278   4.807  -0.064   3.288 -0.1877 -0.0198  0.2273
  192SAPI   H5X22279   4.746   0.028   3.297 -0.6926 -0.2136 -1.0119
  192SAPI   H5Y22280   4.912  -0.040   3.317 -0.5714  0.0871  1.6189
  192SAPI   C3622281   4.747  -0.174   3.386 -0.5375  0.5585  0.0782
  192SAPI   H6X22282   4.820  -0.257   3.373 -0.2432  0.4260  2.2183
  192SAPI   H6Y22283   4.646  -0.212   3.361 -2.1167  2.8771  2.4212
  192SAPI   C3722284   4.727  -0.119   3.527 -0.0754  0.1759  0.2434
  192SAPI   H7X22285   4.652  -0.037   3.532 -2.6692 -2.1077  1.3347
  192SAPI   H7Y22286   4.825  -0.078   3.558  0.2434  0.5720 -1.2223
  192SAPI   C3822287   4.681  -0.229   3.630 -0.0423 -0.4129 -0.0511
  192SAPI   H8X22288   4.760  -0.306   3.617  0.6527  0.5014 -1.4374
  192SAPI   H8Y22289   4.582  -0.270   3.600 -0.1051 -0.8718  0.7610
  192SAPI   C3922290   4.672  -0.190   3.780  0.2565  0.3465 -0.2289
  192SAPI   H9X22291   4.770  -0.141   3.800 -0.6481  1.7201  1.1765
  192SAPI   H9Y22292   4.678  -0.280   3.844 -0.6564 -0.1847 -0.8660
  192SAPI  C31022293   4.552  -0.095   3.810  0.4955 -0.1918  0.6922
  192SAPI  H10X22294   4.459  -0.151   3.787 -0.0525  1.5693 -1.8208
  192SAPI  H10Y22295   4.562  -0.017   3.731  2.3687 -2.4418 -1.4862
  192SAPI  C31122296   4.552  -0.039   3.952 -0.3142 -0.6046 -0.2815
  192SAPI  H11X22297   4.479   0.044   3.969 -0.1958  0.1530 -2.9948
  192SAPI  H11Y22298   4.651   0.005   3.977 -1.8037  1.8906  1.7044
  192SAPI  C31222299   4.530  -0.140   4.064  0.3845 -0.1613  0.3851
  192SAPI  H12X22300   4.612  -0.216   4.070 -0.3625 -1.0989 -0.7417
  192SAPI  H12Y22301   4.439  -0.200   4.042  1.1526 -1.0084 -0.5834
  192SAPI  C31322302   4.512  -0.075   4.205 -0.2036  0.2093  0.0002
  192SAPI  H13X22303   4.449   0.015   4.190  0.7200  0.5978 -1.9632
  192SAPI  H13Y22304   4.608  -0.050   4.255  0.0837 -0.1115 -0.3800
  192SAPI  C31422305   4.427  -0.155   4.297  0.3239  0.0845 -1.0272
  192SAPI  H14X22306   4.468  -0.252   4.333  3.3191  1.5612 -0.1032
  192SAPI  H14Y22307   4.325  -0.166   4.253 -2.2054 -0.8122  4.2796
  192SAPI  C31522308   4.406  -0.066   4.422  0.2116  0.2428 -0.3101
  192SAPI  H15X22309   4.321   0.001   4.396 -1.6122 -1.9121 -0.2588
  192SAPI  H15Y22310   4.497  -0.005   4.443  1.1430 -1.3169  0.3357
  192SAPI  C31622311   4.372  -0.135   4.549 -0.5599 -0.2221  0.3556
  192SAPI  H16X22312   4.469  -0.170   4.590 -0.1714 -0.8927 -1.0620
  192SAPI  H16Y22313   4.293  -0.213   4.545 -1.2417  0.4214  1.0356
  192SAPI  C31722314   4.350  -0.043   4.675 -0.3683 -0.0648  0.2809
  192SAPI  H17X22315   4.358  -0.118   4.756  2.5645  2.0858  2.1827
  192SAPI  H17Y22316   4.247  -0.002   4.667 -0.7904 -1.2931 -0.9591
  192SAPI  C31822317   4.462   0.063   4.700  0.0545  0.1032 -0.1380
  192SAPI  H18X22318   4.564   0.022   4.684 -0.7251 -2.1598  0.4131
  192SAPI  H18Y22319   4.454   0.099   4.804 -1.3001 -0.5330  0.0063
  192SAPI  H18Z22320   4.446   0.151   4.633  0.8291 -0.1271 -0.6490
  193SOD    SOD22321   2.653   4.433   1.835  0.4209 -0.1561 -0.1968
  194SOD    SOD22322   3.850   0.598   0.573  0.0917  0.2345 -0.5334
  195SOD    SOD22323   6.543   2.091   1.510  0.5978 -0.3446  0.1604
  196SOD    SOD22324   2.504   3.937   7.505 -0.2538 -0.4414 -0.0015
  197SOD    SOD22325   1.529   4.427   7.377 -0.0580  0.0352  0.3600
  198SOD    SOD22326   3.306   1.790   0.406 -0.5021  0.5877  0.2411
  199SOD    SOD22327   2.736   4.572   8.357  0.2095 -0.0866 -0.1986
  200SOD    SOD22328   6.968   3.774   3.378  0.1834  0.5180 -0.4994
  201SOD    SOD22329   4.910   0.401   1.622 -0.2723  0.1106 -0.1815
  202SOD    SOD22330   2.459   6.417   1.032 -0.4804 -0.2597 -0.3636
  203SOD    SOD22331   4.085   0.394   8.065 -0.0794 -0.5096 -0.0206
  204SOD    SOD22332   0.555   4.971   2.927  0.0558  0.5448 -0.0482
  205SOD    SOD22333   2.790   0.575   8.103  0.0407 -0.2693  0.0756
  206SOD    SOD22334   3.629   5.125   2.517  0.1770 -0.0144  0.6466
  207SOD    SOD22335   5.262   6.157   7.679  0.3964 -0.7241  0.5088
  208SOD    SOD22336   5.241   0.731   2.251  0.2775  0.0413  0.1192
  209SOD    SOD22337   4.331   1.419   1.844 -0.1945 -0.6713  0.0188
  210SOD    SOD22338   0.420   6.728   2.700  0.9677 -0.6860 -0.3037
  211SOD    SOD22339   0.054   3.596   1.499  0.0356  0.4858 -0.5451
  212SOD    SOD22340   3.931   6.188   0.063 -0.6595 -0.4412  0.2938
  213SOD    SOD22341   4.760   1.063   2.279  0.2062  0.2512 -0.1082
  214SOD    SOD22342   2.481   2.385   7.649 -0.1962  0.4598 -0.6952
  215SOD    SOD22343   1.511   4.517   0.736 -0.0463 -0.3590  0.1587
  216SOD    SOD22344   3.400   5.628   7.641  0.3867 -0.5064  0.7169
  217SOD    SOD22345   5.673   3.079   1.797  0.4111  0.2927 -0.1632
  218SOD    SOD22346   6.503   5.862   7.498 -0.2573 -0.2446  0.1132
  219SOD    SOD22347   3.789   1.510   7.273 -0.0059  0.0103 -0.1145
  220SOD    SOD22348   1.765   3.277   0.628 -0.2543  0.5768 -0.2547
  221SOD    SOD22349   1.963   2.839   2.934 -0.3160 -0.0000 -0.0961
  222SOD    SOD22350   3.096   2.677   2.576 -0.1974 -0.7578  0.3359
  223SOD    SOD22351   3.930   2.267   3.340 -0.2982 -0.3580 -0.0552
  224SOD    SOD22352   6.820   6.029   8.299  0.1247  0.2951 -0.2152
  225SOD    SOD22353   0.639   1.640   2.521 -0.4819  0.5296 -0.1830
  226SOD    SOD22354   0.018   1.200   6.966 -0.0001 -0.5835 -0.5659
  227SOD    SOD22355   2.016   1.126   8.098 -0.0828  0.2900 -0.1482
  228SOD    SOD22356   5.362   5.230   2.625  0.2560 -0.0581  0.3649
  229SOD    SOD22357   6.747   4.506   8.017  0.0391 -0.9728 -0.0111
  230CLA    CLA22358   2.395   5.976   1.622 -0.6152  0.1882 -0.1349
  231CLA    CLA22359   5.493   0.131   0.592 -0.0674 -0.3956 -0.3310
  232CLA    CLA22360   6.044   6.455   2.177  0.1895 -0.1210  0.1128
  233CLA    CLA22361   1.885   3.426   8.098  0.1976  0.5427  0.3389
  234CLA    CLA22362   1.895   3.920   8.079 -0.0074 -0.1451 -0.3481
  235CLA    CLA22363   6.895   6.773   1.055 -0.2557  0.1395  0.1417
  236CLA    CLA22364   2.201   0.705   8.172 -0.0925  0.3723 -0.0926
  237CLA    CLA22365   0.638   3.966   1.427 -0.0948  0.0140 -0.1782
  238CLA    CLA22366   6.349   5.583   8.222 -0.1117 -0.0116 -0.0569
  239CLA    CLA22367   3.165   0.860   0.641  0.0188 -0.0787 -0.4274
  240CLA    CLA22368   5.306   2.727   1.721  0.1962  0.0142  0.3103
  241CLA    CLA22369   2.048   4.856   1.126  0.1316  0.1718 -0.2646
  242CLA    CLA22370   5.466   1.819   1.513  0.1846  0.1323  0.0957
  243CLA    CLA22371   0.213   2.854   2.027 -0.0287  0.0878  0.0093
  244CLA    CLA22372   0.144   5.753   1.457  0.0361  0.3102  0.2630
  245CLA    CLA22373   6.199   2.647   2.384 -0.2367  0.0686  0.1750
  246CLA    CLA22374   0.495   2.325   1.480  0.3027 -0.2549 -0.3623
  247TIP3   OH222375   5.139   1.852   1.986  0.0215 -0.6109  0.4691
  247TIP3    H122376   5.110   1.943   1.990 -2.3577 -1.2681 -0.3229
  247TIP3    H222377   5.220   1.855   1.937  0.4420  1.1603  1.1826
  248TIP3   OH222378   5.534   3.374   2.108  0.4564  0.0983 -0.4109
  248TIP3    H122379   5.618   3.337   2.136 -0.2190 -1.5658 -0.4440
  248TIP3    H222380   5.489   3.301   2.066 -1.3389  0.7370  0.3025
  249TIP3   OH222381   4.106   3.537   3.207 -0.7523  0.2576  0.1696
  249TIP3    H122382   4.033   3.597   3.197  0.5117  1.4889 -2.9700
  249TIP3    H222383   4.173   3.588   3.253 -0.6364  0.3582 -0.1062
  250TIP3   OH222384   4.142   0.943   8.086  0.1957 -0.2237  0.1588
  250TIP3    H122385   4.047   0.951   8.091  0.3250  0.6929  1.7501
  250TIP3    H222386   4.169   1.015   8.029 -0.1006 -0.9470 -0.9237
  251TIP3   OH222387   6.810   2.164   2.082  0.1588 -0.4331 -0.0185
  251TIP3    H122388   6.814   2.253   2.118  0.6580 -0.3620 -0.2368
  251TIP3    H222389   6.759   2.173   2.001  2.3672  0.1681 -1.4456
  252TIP3   OH222390   5.703   6.828   0.782 -0.5930  0.8906  0.2338
  252TIP3    H122391   5.671   6.804   0.695  0.4586  0.1655  0.0205
  252TIP3    H222392   5.718   6.744   0.826  1.4947  1.1566  0.1194
  253TIP3   OH222393   0.802   1.714   2.366  0.2464  0.1577  0.9162
  253TIP3    H122394   0.836   1.702   2.278  0.9719  0.6313  1.1198
  253TIP3    H222395   0.878   1.742   2.418 -0.3585  0.8488  1.4671
  254TIP3   OH222396   0.947   3.114   8.332  0.1383  0.7314 -0.0841
  254TIP3    H122397   0.998   3.129   8.252 -1.1312 -0.4598 -1.1537
  254TIP3    H222398   1.001   3.152   8.401  1.6984  1.0003 -1.3790
  255TIP3   OH222399   0.396   6.808   1.712 -0.5919  0.0244  0.0893
  255TIP3    H122400   0.472   6.750   1.711 -0.7648 -0.2116  0.4288
  255TIP3    H222401   0.324   6.753   1.742 -0.4785  0.7302  1.8043
  256TIP3   OH222402   1.185   2.583   7.964 -0.6544 -0.2234  1.1104
  256TIP3    H122403   1.109   2.525   7.975  0.2013 -1.5067  0.4491
  256TIP3    H222404   1.228   2.583   8.049  1.0520 -3.1040  0.3896
  257TIP3   OH222405   2.494   5.073   3.240  1.0288  0.0139  0.2321
  257TIP3    H122406   2.518   5.113   3.323  0.8644  1.9831 -0.5955
  257TIP3    H222407   2.572   5.084   3.185  0.1498  1.5141 -0.7798
  258TIP3   OH222408   3.465   2.135   1.388 -0.4731  0.6472 -0.4823
  258TIP3    H122409   3.479   2.100   1.476  0.0495  0.2766 -0.7096
  258TIP3    H222410   3.397   2.079   1.351 -1.4993  1.4906  0.0701
  259TIP3   OH222411   4.415   0.502   0.666 -0.1067 -0.5351  0.0897
  259TIP3    H122412   4.395   0.489   0.759 -0.9057  2.5230  0.4290
  259TIP3    H222413   4.503   0.540   0.666  0.6954 -2.2860 -0.5954
  260TIP3   OH222414   5.523   3.096   2.006 -0.0861 -0.2805 -0.0644
  260TIP3    H122415   5.443   3.058   1.970  0.4829  0.0480 -1.7910
  260TIP3    H222416   5.525   3.068   2.097 -2.8675  0.8072  0.4451
  261TIP3   OH222417   1.164   4.913   2.013  0.5729  0.0384  0.2256
  261TIP3    H122418   1.164   4.819   1.993 -1.7673  0.2883 -1.4097
  261TIP3    H222419   1.093   4.948   1.960  1.7015  2.8481  0.4232
  262TIP3   OH222420   1.983   4.560   1.720  0.0627  0.0101 -0.2713
  262TIP3    H122421   1.976   4.464   1.717  0.3080 -0.0427  0.6382
  262TIP3    H222422   1.930   4.590   1.646  1.7388 -0.9006 -1.9004
  263TIP3   OH222423   6.017   0.372   0.320 -0.6041  0.2281 -0.1635
  263TIP3    H122424   6.031   0.330   0.405 -1.4541  0.5450  0.1468
  263TIP3    H222425   5.960   0.447   0.339  0.0022  0.8839 -0.8665
  264TIP3   OH222426   3.958   5.806   1.984  0.6444  0.4760 -0.0394
  264TIP3    H122427   3.899   5.879   1.963  1.2222  0.7214 -0.9065
  264TIP3    H222428   3.920   5.731   1.938 -0.4692 -0.0174  1.6163
  265TIP3   OH222429   0.054   1.303   1.991 -0.1953  0.2082 -0.3269
  265TIP3    H122430  -0.012   1.369   1.972 -0.4310  0.3817  0.9905
  265TIP3    H222431   0.137   1.351   1.993 -0.2028  0.2346 -0.6220
  266TIP3   OH222432   6.726   0.137   1.465 -1.0116 -0.2088  0.6029
  266TIP3    H122433   6.700   0.171   1.379 -1.9802 -0.0205  0.9601
  266TIP3    H222434   6.691   0.048   1.468  0.1034 -0.6734  0.3204
  267TIP3   OH222435   3.269   1.794   7.447  0.1297  0.0276 -0.1873
  267TIP3    H122436   3.301   1.805   7.357  1.6887  2.1472  0.5796
  267TIP3    H222437   3.199   1.859   7.455 -0.1168 -0.2709  0.1284
  268TIP3   OH222438   6.530   6.100   2.045  0.2091 -0.3066 -0.3832
  268TIP3    H122439   6.574   6.123   2.127  0.6055 -0.0688 -0.6661
  268TIP3    H222440   6.537   6.005   2.041  2.7604 -0.1381 -1.5705
  269TIP3   OH222441   7.009   0.512   0.026 -0.2056 -0.1874 -0.2080
  269TIP3    H122442   6.959   0.478  -0.049 -0.9219  0.6124 -0.0981
  269TIP3    H222443   6.979   0.602   0.036 -0.4105 -0.4072  1.3058
  270TIP3   OH222444   0.979   2.999   2.588 -0.2707 -0.0077  0.1311
  270TIP3    H122445   1.067   2.980   2.622 -0.2853 -1.3756 -0.5272
  270TIP3    H222446   0.979   2.962   2.500 -1.8375 -0.9515  0.4893
  271TIP3   OH222447   0.992   4.906   8.385 -0.2088 -0.6232  0.3208
  271TIP3    H122448   1.034   4.865   8.461 -2.7067 -0.2061  2.0553
  271TIP3    H222449   0.956   4.988   8.420  2.7003  2.1857 -2.5107
  272TIP3   OH222450   2.519   2.751   0.578 -0.8405 -0.3156  0.1726
  272TIP3    H122451   2.614   2.747   0.586 -0.7260  1.7939  0.3911
  272TIP3    H222452   2.497   2.680   0.518  0.7922 -1.2333  0.6038
  273TIP3   OH222453   6.800   4.016   7.964 -0.0629 -0.4328 -0.1517
  273TIP3    H122454   6.716   4.055   7.987  0.4811 -0.1371  1.4774
  273TIP3    H222455   6.792   3.994   7.872 -1.9436 -0.4753 -0.0069
  274TIP3   OH222456   6.976   1.558   2.041  0.1824  0.0352  0.1499
  274TIP3    H122457   6.986   1.618   1.967 -2.2228  0.6877  0.2609
  274TIP3    H222458   6.930   1.610   2.107  1.1079 -0.9431  1.6017
  275TIP3   OH222459   4.971   2.789   7.737  0.2916 -0.1234  0.3091
  275TIP3    H122460   4.974   2.699   7.770  0.0948 -0.3386 -0.2444
  275TIP3    H222461   4.981   2.780   7.642 -1.3412  0.3061  0.0582
  276TIP3   OH222462   5.571   3.312   1.020  0.2928  0.1188 -0.4185
  276TIP3    H122463   5.517   3.237   1.045  0.2912  0.0183 -0.7265
  276TIP3    H222464   5.508   3.382   1.002  0.3137  0.3512  0.3791
  277TIP3   OH222465   0.148   6.126   7.740  0.3076 -0.3550  0.3330
  277TIP3    H122466   0.194   6.170   7.812  1.6635  0.2541 -0.8520
  277TIP3    H222467   0.218   6.092   7.684 -0.6616  0.4945 -1.4723
  278TIP3   OH222468   4.548   0.721   0.997 -0.5079  0.3619 -0.2686
  278TIP3    H122469   4.538   0.644   0.941 -1.0793 -1.1574  1.7630
  278TIP3    H222470   4.634   0.756   0.975  0.4545 -1.7979 -0.2505
  279TIP3   OH222471   5.048   3.712   7.599 -0.0941 -0.3080 -0.3860
  279TIP3    H122472   4.962   3.687   7.564  0.2422 -0.4968 -1.1043
  279TIP3    H222473   5.110   3.681   7.533  0.5637 -0.6460  0.3789
  280TIP3   OH222474   5.942   3.737   8.090  0.0062 -0.1879 -0.1601
  280TIP3    H122475   6.011   3.777   8.036  0.2057 -0.0365  0.1997
  280TIP3    H222476   5.895   3.680   8.030  1.3914 -1.4724 -0.0906
  281TIP3   OH222477   1.356   2.772   2.362 -0.4803 -0.1191 -0.4529
  281TIP3    H122478   1.434   2.730   2.326  0.3092 -0.1860  1.2643
  281TIP3    H222479   1.297   2.779   2.287  1.3313  0.3686 -1.9308
  282TIP3   OH222480   2.195   1.552   8.060 -0.0478 -0.1509  0.0387
  282TIP3    H122481   2.146   1.589   7.986  1.0574  0.5244 -0.3964
  282TIP3    H222482   2.211   1.627   8.117 -0.4197 -0.5692  0.6995
  283TIP3   OH222483   4.714   0.336   1.711  0.6312 -0.5575  0.0707
  283TIP3    H122484   4.694   0.382   1.793  0.7335  1.0418 -0.7652
  283TIP3    H222485   4.643   0.272   1.701 -0.5230  0.6522  0.3710
  284TIP3   OH222486   4.152   4.175   7.358  0.4378 -0.1446  0.6666
  284TIP3    H122487   4.066   4.164   7.317  0.0398  0.9922  1.1487
  284TIP3    H222488   4.203   4.101   7.326 -1.0435 -1.4901  1.2353
  285TIP3   OH222489   6.331   3.793   7.846 -0.2012 -0.7598  0.0445
  285TIP3    H122490   6.401   3.841   7.802 -2.1486  1.3435 -0.9865
  285TIP3    H222491   6.365   3.704   7.855  2.1468 -0.1074 -1.4025
  286TIP3   OH222492   0.258   0.210   0.252  0.2997  0.7775 -0.4384
  286TIP3    H122493   0.171   0.194   0.218  0.1095 -0.6856  0.6200
  286TIP3    H222494   0.293   0.122   0.272  2.0711  1.3072 -0.9764
  287TIP3   OH222495   6.647   3.635   0.001  0.2299  0.9949  0.1768
  287TIP3    H122496   6.556   3.609  -0.013  0.8473  0.0015 -2.6863
  287TIP3    H222497   6.663   3.619   0.094 -1.8523 -1.0757  0.2518
  288TIP3   OH222498   6.169   3.452   1.713 -0.3047  0.5325 -0.0958
  288TIP3    H122499   6.180   3.358   1.727 -0.5562  0.7499  1.7206
  288TIP3    H222500   6.115   3.458   1.634  0.2908 -0.8143 -0.6439
  289TIP3   OH222501   1.312   3.420   2.377  0.4927 -0.0521  0.2527
  289TIP3    H122502   1.236   3.427   2.320  0.6955 -1.2250 -0.2027
  289TIP3    H222503   1.277   3.391   2.461  0.4462 -0.9769 -0.0651
  290TIP3   OH222504   4.340   1.276   1.373  0.7056 -0.3405 -0.2851
  290TIP3    H122505   4.413   1.217   1.356  0.8226 -0.2697 -0.0252
  290TIP3    H222506   4.358   1.313   1.459  0.7678  0.2734 -0.5603
  291TIP3   OH222507   6.848   6.459   2.002 -0.2629 -0.1747  0.2723
  291TIP3    H122508   6.761   6.426   2.024 -0.2562 -0.9994 -0.8250
  291TIP3    H222509   6.832   6.541   1.956 -0.4970 -0.5768 -0.3727
  292TIP3   OH222510   3.498   0.363   7.933 -0.2573 -0.2180  0.6729
  292TIP3    H122511   3.527   0.313   8.009 -2.3150 -0.8450  1.0976
  292TIP3    H222512   3.461   0.444   7.969 -2.9451 -1.3123  0.5937
  293TIP3   OH222513   1.642   4.418   1.315 -0.4418  0.8784  0.0773
  293TIP3    H122514   1.716   4.479   1.313 -1.7605  2.5359 -1.2124
  293TIP3    H222515   1.664   4.352   1.250 -0.9094  2.4731 -1.8063
  294TIP3   OH222516   2.740   4.132   2.811 -0.6453  0.2795  0.5569
  294TIP3    H122517   2.802   4.139   2.738 -1.2085  0.0791  0.0617
  294TIP3    H222518   2.713   4.223   2.828  0.5763  0.5041  1.4770
  295TIP3   OH222519   4.720   4.430   1.866  0.0868  0.1546 -0.7553
  295TIP3    H122520   4.660   4.384   1.806  0.0033 -1.1183  0.2566
  295TIP3    H222521   4.806   4.422   1.824  0.2026 -1.6104 -0.2758
  296TIP3   OH222522   0.190   3.545   8.035  0.3554  1.0870 -0.0830
  296TIP3    H122523   0.244   3.623   8.018  1.8407 -0.1663 -1.4625
  296TIP3    H222524   0.253   3.478   8.061 -0.8796  0.2486  0.8521
  297TIP3   OH222525   2.614   5.264   0.097 -0.1214 -0.3573  0.2403
  297TIP3    H122526   2.607   5.348   0.052 -0.0100 -0.3535  0.2310
  297TIP3    H222527   2.537   5.261   0.154  0.2585  0.0735  0.7862
  298TIP3   OH222528   1.000   0.784   2.238 -0.4134  0.0573  0.5407
  298TIP3    H122529   0.937   0.839   2.192  0.1900  0.2483 -0.0639
  298TIP3    H222530   1.084   0.830   2.228  0.3344 -1.5252 -0.9912
  299TIP3   OH222531   1.132   5.845   7.131  0.2364  0.0182 -0.2493
  299TIP3    H122532   1.193   5.825   7.060 -1.0045 -0.0540 -1.3256
  299TIP3    H222533   1.047   5.848   7.089 -0.5944 -0.5150  1.3277
  300TIP3   OH222534   4.369   3.728   2.071  0.5153 -0.2893  0.2318
  300TIP3    H122535   4.433   3.658   2.080 -0.2553 -0.9264  0.8997
  300TIP3    H222536   4.396   3.775   1.992  1.0610 -1.3223 -0.2135
  301TIP3   OH222537   1.550   6.432   0.416 -0.0967  0.0806  0.0717
  301TIP3    H122538   1.524   6.520   0.441  1.1624  0.5834 -0.3111
  301TIP3    H222539   1.495   6.412   0.340  0.3629  0.9782 -0.5131
  302TIP3   OH222540   6.265   1.915   7.642  0.1694 -0.6369  0.7037
  302TIP3    H122541   6.233   1.946   7.727 -0.4855  0.0344  0.2169
  302TIP3    H222542   6.211   1.839   7.622 -0.7811  0.1648  0.1427
  303TIP3   OH222543   1.963   6.500   8.333  0.3478  0.1755 -0.4061
  303TIP3    H122544   2.010   6.454   8.263 -2.1723 -0.5169 -1.7760
  303TIP3    H222545   1.895   6.549   8.287 -1.4143 -0.2913  1.5503
  304TIP3   OH222546   5.951   5.063   0.392 -0.5412 -0.3517  0.0139
  304TIP3    H122547   6.021   5.020   0.343 -1.7347 -2.8042  0.3160
  304TIP3    H222548   5.974   5.051   0.484 -1.0545 -0.6763  0.1062
  305TIP3   OH222549   1.004   1.297   7.710  0.0861 -0.5498 -0.0140
  305TIP3    H122550   0.967   1.381   7.738  0.5096  0.5803 -2.5460
  305TIP3    H222551   0.928   1.246   7.680  0.0625 -0.0487 -0.8412
  306TIP3   OH222552   4.364   3.803   7.836 -0.3222  0.1010  0.0529
  306TIP3    H122553   4.409   3.860   7.773  0.5533  0.2268  0.7784
  306TIP3    H222554   4.421   3.727   7.843 -0.2517  0.2360  0.9537
  307TIP3   OH222555   0.431   5.816   7.371  0.5231 -0.3320 -0.4774
  307TIP3    H122556   0.364   5.848   7.432  2.6472  2.4816  0.6002
  307TIP3    H222557   0.387   5.811   7.287 -1.5205 -0.5014  0.5505
  308TIP3   OH222558   4.421   6.841   7.716 -0.5529  0.2484  0.1396
  308TIP3    H122559   4.391   6.873   7.631 -0.0869 -0.6960 -0.4001
  308TIP3    H222560   4.430   6.920   7.770 -0.2590  0.9318 -0.8825
  309TIP3   OH222561   0.246   1.309   0.791  0.2025 -0.3997 -0.0933
  309TIP3    H122562   0.159   1.348   0.782  0.0154 -0.9583 -0.8082
  309TIP3    H222563   0.264   1.271   0.705  0.8886 -0.8469  0.2392
  310TIP3   OH222564   5.532   0.092   1.132 -0.3443  0.4622  0.8913
  310TIP3    H122565   5.585   0.171   1.138  1.2726 -0.3723 -1.0481
  310TIP3    H222566   5.559   0.051   1.049 -3.9740 -0.1039 -0.1762
  311TIP3   OH222567   6.079   3.208   8.018 -0.0126 -0.1301 -0.6212
  311TIP3    H122568   6.038   3.233   8.101  0.8683  1.7570 -0.7185
  311TIP3    H222569   6.119   3.123   8.037 -0.8585 -0.3129  0.5107
  312TIP3   OH222570   3.701   4.338   2.317  0.1294 -0.0159  0.4690
  312TIP3    H122571   3.632   4.365   2.378 -0.5383 -1.1187  0.2371
  312TIP3    H222572   3.767   4.297   2.372  0.4486  0.7242  0.6523
  313TIP3   OH222573   3.566   3.862   7.084  0.5510 -0.1537 -0.4498
  313TIP3    H122574   3.654   3.896   7.071  0.9066 -1.7389 -2.9386
  313TIP3    H222575   3.522   3.879   7.001 -0.5290 -1.9787 -0.2982
  314TIP3   OH222576   6.764   3.772   2.236  0.5632  0.2238 -0.0958
  314TIP3    H122577   6.733   3.787   2.326 -0.2274 -0.0253 -0.3204
  314TIP3    H222578   6.762   3.677   2.226 -0.1767  0.2968 -0.6609
  315TIP3   OH222579   3.913   2.330   2.331  0.6550 -0.4713  0.1792
  315TIP3    H122580   3.821   2.303   2.323  0.9306 -1.4022  0.0553
  315TIP3    H222581   3.951   2.268   2.392  2.3508 -3.2301 -3.3523
  316TIP3   OH222582   3.386   2.063   7.249 -0.3803 -0.0184 -0.3111
  316TIP3    H122583   3.403   2.119   7.174 -1.5166  0.5249 -0.1881
  316TIP3    H222584   3.376   1.975   7.212  0.8940 -0.0733 -0.5624
  317TIP3   OH222585   1.654   6.835   0.646  0.0172 -0.0665  0.4236
  317TIP3    H122586   1.618   6.747   0.629  1.5999 -0.9998  1.5986
  317TIP3    H222587   1.610   6.891   0.583  0.6617 -2.1006 -1.9942
  318TIP3   OH222588   0.482   4.568   0.108 -0.1758  0.2388 -0.3293
  318TIP3    H122589   0.550   4.513   0.070 -0.9676 -1.6203  0.8291
  318TIP3    H222590   0.526   4.614   0.180 -0.1677 -1.1371  0.5712
  319TIP3   OH222591   1.811   2.939   3.263  0.1068  0.5835 -0.1192
  319TIP3    H122592   1.875   2.992   3.310  1.7121 -2.1797  1.0421
  319TIP3    H222593   1.856   2.911   3.183  0.1067 -0.6542  0.2809
  320TIP3   OH222594   1.202   5.615   7.985 -0.2865 -0.1707  0.0658
  320TIP3    H122595   1.233   5.605   8.075 -2.2503  3.4812  1.3215
  320TIP3    H222596   1.213   5.708   7.965  0.4864 -0.8744 -3.7296
  321TIP3   OH222597   0.674   5.520   1.904  0.3511 -0.4658 -0.3929
  321TIP3    H122598   0.678   5.549   1.813 -3.5512  0.5795 -0.4237
  321TIP3    H222599   0.707   5.594   1.955  1.6968 -0.7069 -0.8923
  322TIP3   OH222600   6.204   0.403   1.766  0.3196 -0.0691 -0.0870
  322TIP3    H122601   6.182   0.314   1.794  2.0400 -0.8111 -0.8911
  322TIP3    H222602   6.120   0.442   1.740 -0.7858 -0.6480  2.3304
  323TIP3   OH222603   3.137   2.061   0.120 -0.3657  0.8666  0.1968
  323TIP3    H122604   3.123   2.136   0.178 -3.1291 -0.1120  0.9409
  323TIP3    H222605   3.152   1.987   0.179  1.0085  0.5674 -0.4921
  324TIP3   OH222606   1.538   4.807   1.323  0.7289  0.1747 -0.0104
  324TIP3    H122607   1.627   4.834   1.301  1.2429  0.1853  1.8487
  324TIP3    H222608   1.515   4.861   1.399 -0.7546 -0.0378 -0.2775
  325TIP3   OH222609   4.460   5.730   1.055 -0.0883  0.3172 -0.7495
  325TIP3    H122610   4.518   5.755   0.983 -0.7098 -0.0196 -1.3824
  325TIP3    H222611   4.461   5.805   1.115 -0.9785  1.3872 -2.0090
  326TIP3   OH222612   1.091   3.853   1.786  1.0458 -0.0511  0.0537
  326TIP3    H122613   1.095   3.896   1.872 -0.8356  1.9336 -0.7444
  326TIP3    H222614   1.104   3.925   1.724 -4.0045 -0.0457 -1.4221
  327TIP3   OH222615   0.345   4.137   2.765  0.3464 -0.6000 -0.5356
  327TIP3    H122616   0.256   4.146   2.798  0.8845  1.2409  0.5512
  327TIP3    H222617   0.399   4.137   2.844  1.4817  1.0462 -1.2572
  328TIP3   OH222618   1.449   3.672   2.288  0.6237  0.0333  0.7683
  328TIP3    H122619   1.403   3.714   2.360  1.5460  1.6817  0.4628
  328TIP3    H222620   1.441   3.578   2.305 -2.2781  0.2426  1.0326
  329TIP3   OH222621   2.935   6.053   1.192 -0.2431 -0.1539  0.2929
  329TIP3    H122622   2.961   5.966   1.162  2.2276  0.5324  0.1843
  329TIP3    H222623   2.907   6.039   1.283 -1.5270 -1.2856 -0.2552
  330TIP3   OH222624   5.536   6.342   6.827  0.3011 -0.2539  0.4290
  330TIP3    H122625   5.582   6.424   6.846  2.3221 -0.5688 -2.5208
  330TIP3    H222626   5.574   6.278   6.888  1.1326  0.2911  0.4941
  331TIP3   OH222627   3.491   3.798   1.653  0.1662 -0.0795 -0.8486
  331TIP3    H122628   3.534   3.790   1.738 -0.5182  1.8485 -0.2757
  331TIP3    H222629   3.556   3.766   1.590  0.9198 -0.9386  0.3175
  332TIP3   OH222630   3.759   2.358   3.182 -0.4696 -0.1162  0.2436
  332TIP3    H122631   3.734   2.309   3.103 -2.7471 -2.4077  2.2090
  332TIP3    H222632   3.712   2.441   3.174 -1.3948 -0.6860 -0.4191
  333TIP3   OH222633   3.592   0.750   3.225 -0.1133 -0.6024 -0.2506
  333TIP3    H122634   3.517   0.808   3.232  0.4805  0.0248  1.2558
  333TIP3    H222635   3.668   0.809   3.219  0.4979 -1.1906  1.2541
  334TIP3   OH222636   1.573   2.357   0.937  0.0190 -0.4679 -0.4748
  334TIP3    H122637   1.607   2.434   0.892 -0.2169 -0.1339 -0.0832
  334TIP3    H222638   1.630   2.346   1.013 -1.8370  1.2302  1.2661
  335TIP3   OH222639   6.429   6.194   8.091  0.3682 -0.1875  0.1410
  335TIP3    H122640   6.524   6.184   8.096  0.2450 -1.8546 -0.0783
  335TIP3    H222641   6.412   6.211   7.998  0.5819  2.4040  0.5153
  336TIP3   OH222642   4.030   6.423   7.482  0.2770  0.1450 -0.3792
  336TIP3    H122643   3.972   6.499   7.484 -0.3953 -0.3244 -1.4340
  336TIP3    H222644   4.117   6.460   7.466 -0.0250  0.7001 -0.7755
  337TIP3   OH222645   1.805   1.410   7.827  0.2957  0.0840  0.2356
  337TIP3    H122646   1.807   1.420   7.732  1.0230  3.1014  0.4939
  337TIP3    H222647   1.712   1.414   7.849  0.2092  0.7180 -0.2312
  338TIP3   OH222648   3.938   3.903   0.358 -0.1952 -0.2221  0.1002
  338TIP3    H122649   3.953   3.860   0.274  0.5175  0.8308 -0.3301
  338TIP3    H222650   3.889   3.983   0.336  0.5197  0.3664  0.5963
  339TIP3   OH222651   0.461   2.042   8.323 -0.0812 -0.4825 -0.3357
  339TIP3    H122652   0.407   2.056   8.401 -2.0193  0.2967 -1.7167
  339TIP3    H222653   0.517   1.968   8.345 -1.2064 -0.8618  1.4693
  340TIP3   OH222654   5.226   4.286   1.307 -0.1895 -0.5556 -0.4635
  340TIP3    H122655   5.260   4.242   1.229 -0.1386 -1.6361  0.1441
  340TIP3    H222656   5.215   4.215   1.371 -3.2422 -0.2561 -0.5071
  341TIP3   OH222657   3.988   4.497   0.749 -0.2516 -0.5335 -0.1484
  341TIP3    H122658   3.967   4.418   0.699 -1.5668  0.5250 -1.3600
  341TIP3    H222659   3.960   4.477   0.839 -1.0669 -1.2599 -0.5529
  342TIP3   OH222660   0.040   4.300   3.361  0.0000  0.0166 -0.2330
  342TIP3    H122661   0.131   4.323   3.380  0.0283  0.6853 -1.0967
  342TIP3    H222662   0.039   4.286   3.266 -1.0192  1.1196 -0.4054
  343TIP3   OH222663   3.155   5.546   2.554 -0.2958 -0.3499  0.3727
  343TIP3    H122664   3.146   5.456   2.521  2.6034 -0.9367  0.8786
  343TIP3    H222665   3.157   5.537   2.649  3.8428 -0.4102  0.4455
  344TIP3   OH222666   0.816   6.418   2.619 -0.4069 -0.1314  0.3806
  344TIP3    H122667   0.881   6.355   2.651  0.8152  0.3614 -0.9980
  344TIP3    H222668   0.868   6.493   2.591 -1.8052  1.3599  1.6363
  345TIP3   OH222669   5.500   2.512   1.849  0.4863  0.1703 -0.1340
  345TIP3    H122670   5.437   2.558   1.795  0.5009 -0.6348 -0.8467
  345TIP3    H222671   5.506   2.565   1.929  1.5851  2.2068 -1.4817
  346TIP3   OH222672   2.412   0.440   2.002 -0.1386 -0.0013  0.4340
  346TIP3    H122673   2.375   0.408   1.919 -2.2469  1.9581  0.5385
  346TIP3    H222674   2.488   0.383   2.017 -0.6976 -1.5382 -1.9400
  347TIP3   OH222675   5.971   0.380   2.548 -0.1734  0.0256  0.5745
  347TIP3    H122676   6.020   0.298   2.541  0.1643  0.2321  0.5018
  347TIP3    H222677   5.979   0.420   2.461  0.8889  0.8221  1.0145
  348TIP3   OH222678   4.830   2.035   1.891 -0.1036  0.8538  0.3239
  348TIP3    H122679   4.816   2.111   1.948 -2.5012  1.3178 -0.7686
  348TIP3    H222680   4.845   1.962   1.952 -2.5048  1.3373  1.6483
  349TIP3   OH222681   6.949   5.214   6.960 -0.0470  0.1293  0.1821
  349TIP3    H122682   6.891   5.179   7.027  0.5343 -2.7277 -0.7077
  349TIP3    H222683   6.912   5.185   6.877  0.6442  1.4241 -0.6211
  350TIP3   OH222684   3.672   4.364   7.944 -0.3915 -0.1596  0.4219
  350TIP3    H122685   3.656   4.393   8.033  0.8310  0.5559  0.4373
  350TIP3    H222686   3.765   4.381   7.929 -0.6485  0.1325 -1.1171
  351TIP3   OH222687   0.622   2.566   0.930 -0.0021  0.5123 -0.1980
  351TIP3    H122688   0.704   2.517   0.928  0.1388  0.6900  0.7775
  351TIP3    H222689   0.556   2.504   0.899  0.2439 -0.1630  0.6043
  352TIP3   OH222690   2.992   3.814   1.080 -0.6621  0.2545 -0.3996
  352TIP3    H122691   2.969   3.731   1.038 -1.1428  0.1241  0.1107
  352TIP3    H222692   2.912   3.866   1.074 -1.4206 -0.5112  2.1656
  353TIP3   OH222693   0.279   3.045   2.711 -0.2894 -0.6178 -0.3197
  353TIP3    H122694   0.346   3.019   2.775  0.1838 -1.4456 -1.1301
  353TIP3    H222695   0.196   3.028   2.754 -0.0407  1.2961  1.0712
  354TIP3   OH222696   1.736   1.319   7.549  0.3985  0.5883 -0.2799
  354TIP3    H122697   1.715   1.357   7.464 -0.3255  0.6533 -0.0817
  354TIP3    H222698   1.663   1.260   7.567  0.7462  0.2702  0.1209
  355TIP3   OH222699   5.462   3.988   0.390  0.5240  0.5083 -0.0130
  355TIP3    H122700   5.408   3.914   0.418  0.3389 -0.4620 -2.6423
  355TIP3    H222701   5.417   4.065   0.426 -0.4741 -0.5032  1.0025
  356TIP3   OH222702   0.346   6.530   7.831  0.0166  0.3989  0.2633
  356TIP3    H122703   0.393   6.452   7.802 -0.8024 -0.6035  1.5130
  356TIP3    H222704   0.279   6.544   7.764  2.4524  2.3608 -2.0162
  357TIP3   OH222705   0.815   5.132   2.136 -0.0019 -0.2517  0.4702
  357TIP3    H122706   0.722   5.135   2.158 -0.1798 -0.7169 -0.1850
  357TIP3    H222707   0.857   5.095   2.213 -0.2348  0.7799  1.1198
  358TIP3   OH222708   4.519   0.914   0.122 -0.1865 -0.5171  0.0262
  358TIP3    H122709   4.505   0.976   0.050  0.4970 -0.1862  0.1768
  358TIP3    H222710   4.574   0.961   0.185 -0.3923 -0.9683  0.5539
  359TIP3   OH222711   6.852   1.061   1.921  0.0347 -0.5561  0.2847
  359TIP3    H122712   6.886   0.997   1.984 -1.0735 -1.4633 -0.0044
  359TIP3    H222713   6.795   1.010   1.864 -0.8603  0.6969  0.0257
  360TIP3   OH222714   4.367   4.848   7.861 -0.1477  0.4796 -0.6603
  360TIP3    H122715   4.337   4.867   7.950 -0.6371  1.1840 -0.9713
  360TIP3    H222716   4.360   4.932   7.815 -2.0877 -0.3667 -2.0019
  361TIP3   OH222717   6.954   6.929   1.342 -0.5148 -0.3766 -0.2399
  361TIP3    H122718   6.947   6.895   1.252  1.7126 -0.1055 -0.5724
  361TIP3    H222719   6.863   6.940   1.370 -1.2809 -0.1954 -2.5567
  362TIP3   OH222720   3.740   5.444   2.949  0.2440 -0.8003  0.0381
  362TIP3    H122721   3.670   5.394   2.907  0.2440 -0.4402 -0.3895
  362TIP3    H222722   3.794   5.377   2.991  0.4043 -1.1904 -0.7685
  363TIP3   OH222723   2.707   3.359   1.600 -0.2776  0.5588 -0.2532
  363TIP3    H122724   2.686   3.267   1.615  0.7769  0.3980  0.3509
  363TIP3    H222725   2.792   3.371   1.642  0.0901  1.5535 -1.2549
  364TIP3   OH222726   1.136   6.623   8.339 -0.1736  0.3872  0.5459
  364TIP3    H122727   1.216   6.658   8.378 -0.4595  0.0908  1.4355
  364TIP3    H222728   1.071   6.693   8.350 -0.0269  0.6553 -0.2397
  365TIP3   OH222729   2.306   5.411   0.230  0.0060 -0.2089  0.6927
  365TIP3    H122730   2.370   5.365   0.284 -0.2139  1.6233  2.6402
  365TIP3    H222731   2.358   5.458   0.166  0.4876 -0.1729  1.1065
  366TIP3   OH222732   0.467   0.020   1.790 -0.0862  0.4886  0.3839
  366TIP3    H122733   0.514   0.052   1.713  1.5730 -1.8960  0.2836
  366TIP3    H222734   0.428  -0.062   1.762 -3.0041  1.5384  0.9991
  367TIP3   OH222735   6.913   4.401   7.132  0.1995  0.3004  0.5250
  367TIP3    H122736   7.008   4.406   7.124  0.2326 -0.6491  0.2305
  367TIP3    H222737   6.888   4.328   7.075 -0.9005  1.6493 -0.7807
  368TIP3   OH222738   6.421   4.417   0.017  0.1576  0.2601 -0.4338
  368TIP3    H122739   6.376   4.436   0.099 -0.0544  2.3938 -0.9932
  368TIP3    H222740   6.486   4.487   0.008 -0.2751  0.4784 -2.3876
  369TIP3   OH222741   0.403   2.770   2.422 -0.0827 -0.2203  0.0670
  369TIP3    H122742   0.345   2.838   2.456  0.0094  1.1055 -2.2293
  369TIP3    H222743   0.487   2.788   2.463 -0.0597  1.0830 -0.4981
  370TIP3   OH222744   2.886   2.881   0.900  0.6016 -0.0962  0.3049
  370TIP3    H122745   2.860   2.868   0.992  0.6620 -1.7313  0.1270
  370TIP3    H222746   2.981   2.892   0.904  0.6115 -0.2133  0.4437
  371TIP3   OH222747   3.158   3.539   3.437 -0.5845 -0.2332  0.6080
  371TIP3    H122748   3.094   3.593   3.483 -0.1836  0.3840  0.4405
  371TIP3    H222749   3.126   3.449   3.449 -1.7992  0.1020  0.0313
  372TIP3   OH222750   4.254   0.586   7.990  0.3641 -0.3864  0.4789
  372TIP3    H122751   4.320   0.531   8.032  1.3924  0.8461  0.5164
  372TIP3    H222752   4.268   0.673   8.027  0.1107  0.3476 -1.0829
  373TIP3   OH222753   3.948   5.706   2.679 -0.2247 -0.7244  0.6910
  373TIP3    H122754   3.939   5.761   2.602  2.5369  0.2602  0.9606
  373TIP3    H222755   3.995   5.761   2.742 -1.2603 -1.9430  2.6049
  374TIP3   OH222756   4.546   2.402   0.824  0.5508 -0.6685 -0.5955
  374TIP3    H122757   4.477   2.342   0.797 -1.1972  0.8906  0.2047
  374TIP3    H222758   4.625   2.369   0.781 -0.6237 -2.6500 -1.3462
  375TIP3   OH222759   4.532   4.298   0.624 -0.1779  0.2853  0.0040
  375TIP3    H122760   4.505   4.366   0.562  0.1340 -1.3521 -2.0405
  375TIP3    H222761   4.627   4.300   0.622 -0.1637  0.5247  0.8024
  376TIP3   OH222762   2.968   5.426   0.444 -0.6972  0.2245  0.3284
  376TIP3    H122763   3.061   5.430   0.467 -0.4449  2.4821 -0.8567
  376TIP3    H222764   2.967   5.389   0.356 -0.9397  0.1046  0.3798
  377TIP3   OH222765   0.498   4.814   0.817  0.7151 -0.1227  0.4677
  377TIP3    H122766   0.407   4.784   0.825  1.0501 -1.1016  0.8134
  377TIP3    H222767   0.548   4.754   0.873  1.7473 -0.4026 -0.7002
  378TIP3   OH222768   0.585   2.966   3.411 -0.2156  0.0926 -0.5010
  378TIP3    H122769   0.510   3.014   3.447  0.9807  0.6725  1.3316
  378TIP3    H222770   0.656   3.030   3.410  0.0208 -0.0722 -3.4302
  379TIP3   OH222771   4.080   4.511   2.426 -0.0687 -0.3945 -0.4420
  379TIP3    H122772   4.044   4.485   2.341 -2.6607  0.5654  0.2444
  379TIP3    H222773   4.035   4.594   2.447 -0.2481 -1.0654  2.2514
  380TIP3   OH222774   4.233   6.182   1.321  0.7005  0.4098  0.0594
  380TIP3    H122775   4.139   6.173   1.308  0.6646  0.3644  0.3389
  380TIP3    H222776   4.257   6.257   1.267  0.7305 -0.3525 -1.0183
  381TIP3   OH222777   1.735   1.716   1.219 -0.3207 -0.1384 -0.0385
  381TIP3    H122778   1.730   1.780   1.148 -1.0003  1.8097  1.6698
  381TIP3    H222779   1.645   1.685   1.230 -1.0203  2.3614  2.2944
  382TIP3   OH222780   1.570   0.882   7.336  0.2289 -0.0290  0.2701
  382TIP3    H122781   1.552   0.976   7.329  0.2256 -0.0035  0.6183
  382TIP3    H222782   1.517   0.842   7.267  0.4928  0.2569 -0.1045
  383TIP3   OH222783   6.668   3.282   2.928 -0.1863  0.4081 -0.2259
  383TIP3    H122784   6.673   3.312   3.019  1.0355  0.1920 -0.2087
  383TIP3    H222785   6.605   3.340   2.887 -0.6950  0.5658  0.7363
  384TIP3   OH222786   5.156   4.056   2.775  0.0812 -0.1775 -0.1647
  384TIP3    H122787   5.222   4.019   2.833  0.0877 -0.1439 -0.1506
  384TIP3    H222788   5.128   4.137   2.818  0.9061  0.4444 -0.7435
  385TIP3   OH222789   1.575   5.482   2.099  0.1115 -0.5451  0.0537
  385TIP3    H122790   1.489   5.459   2.064 -0.3545  1.7699 -0.4990
  385TIP3    H222791   1.560   5.501   2.191  0.2278 -1.0477  0.1797
  386TIP3   OH222792   5.691   2.749   2.443 -0.0834 -0.4349 -0.1079
  386TIP3    H122793   5.691   2.804   2.522  0.0226 -0.2113 -0.2635
  386TIP3    H222794   5.777   2.765   2.403 -0.4572  0.0889 -0.7152
  387TIP3   OH222795   1.484   6.675   1.420  0.1747  0.0229  0.9426
  387TIP3    H122796   1.474   6.585   1.390  2.7744 -0.5633  1.5377
  387TIP3    H222797   1.518   6.723   1.344  4.1866 -0.8755  1.8989
  388TIP3   OH222798   0.849   2.152   1.181  0.2467  0.0487 -0.0618
  388TIP3    H122799   0.874   2.084   1.243  0.3822 -0.2596 -0.4489
  388TIP3    H222800   0.909   2.225   1.199 -0.1007  0.1864  0.5612
  389TIP3   OH222801   4.526   1.839   0.693 -0.7239 -0.7169  0.2611
  389TIP3    H122802   4.558   1.921   0.731 -0.9681 -1.0866  1.2985
  389TIP3    H222803   4.524   1.856   0.599 -0.2858  0.2957  0.4149
  390TIP3   OH222804   2.452   5.152   2.784  0.1937 -0.0472 -0.1202
  390TIP3    H122805   2.512   5.214   2.826  1.1898 -0.0045 -1.5218
  390TIP3    H222806   2.509   5.098   2.729 -0.8579 -1.1814 -0.1259
  391TIP3   OH222807   5.212   4.882   1.583 -0.7072 -0.7445  0.8416
  391TIP3    H122808   5.139   4.941   1.565 -1.0387 -1.1053  1.0031
  391TIP3    H222809   5.226   4.835   1.501  0.6186  0.6851  0.1807
  392TIP3   OH222810   2.170   5.589   3.496  0.4679 -0.1681  0.1572
  392TIP3    H122811   2.154   5.675   3.457 -0.7267 -0.4574 -0.0308
  392TIP3    H222812   2.261   5.592   3.524  0.3583  1.2847  0.4448
  393TIP3   OH222813   1.004   6.881   7.785 -0.4697  0.1422 -0.5411
  393TIP3    H122814   0.921   6.899   7.828  0.7236  2.8076  0.8852
  393TIP3    H222815   1.067   6.874   7.856  0.8396 -0.0154 -1.6668
  394TIP3   OH222816   2.082   2.109   0.052  0.2806  0.1062 -0.3071
  394TIP3    H122817   2.144   2.088  -0.018  2.7212  1.6467  1.2550
  394TIP3    H222818   2.032   2.183   0.019  0.5532  0.0333 -0.8969
  395TIP3   OH222819   6.712   3.403   1.277  0.3325 -0.1821 -0.3462
  395TIP3    H122820   6.700   3.330   1.217  0.8880 -1.0554  0.5649
  395TIP3    H222821   6.740   3.475   1.221  1.0819 -1.0387 -1.1192
  396TIP3   OH222822   6.352   5.656   0.341 -0.0461  0.5043  0.1416
  396TIP3    H122823   6.419   5.719   0.367 -0.3462  1.6743 -1.7541
  396TIP3    H222824   6.269   5.704   0.345 -0.1157  0.8626 -2.8994
  397TIP3   OH222825   1.995   1.570   0.031  0.1837  0.3346  0.1295
  397TIP3    H122826   2.036   1.647  -0.010  0.4430  1.1206  1.7900
  397TIP3    H222827   2.062   1.502   0.026  0.8772  0.9517  0.8225
  398TIP3   OH222828   3.181   4.791   2.914 -0.2065  0.3093  0.3244
  398TIP3    H122829   3.267   4.786   2.873 -0.3701  1.8908 -0.2946
  398TIP3    H222830   3.175   4.881   2.945 -1.5636  0.1637  0.5335
  399TIP3   OH222831   1.910   2.722   7.748 -0.0057 -0.5944 -0.0072
  399TIP3    H122832   1.835   2.710   7.690  0.6225 -2.5330 -0.5022
  399TIP3    H222833   1.955   2.800   7.713  0.7427 -2.0804 -2.6478
  400TIP3   OH222834   6.675   0.359   7.127  0.2352 -0.3707  0.0153
  400TIP3    H122835   6.671   0.279   7.181  1.6142 -0.6326 -0.2443
  400TIP3    H222836   6.743   0.412   7.168 -1.0167  0.9297  0.4828
  401TIP3   OH222837   5.363   4.205   2.309  0.7344 -0.4024  0.6913
  401TIP3    H122838   5.365   4.118   2.347 -1.5606 -1.1207 -0.5961
  401TIP3    H222839   5.406   4.261   2.373 -0.7443 -1.9271  3.1500
  402TIP3   OH222840   2.850   6.390   3.356  0.6584  0.1381 -0.4231
  402TIP3    H122841   2.873   6.483   3.361  2.3038 -0.2879  1.2066
  402TIP3    H222842   2.771   6.383   3.410  1.2456  0.4149  0.4960
  403TIP3   OH222843   4.573   0.460   2.143 -0.0508 -0.4277 -0.2261
  403TIP3    H122844   4.664   0.487   2.132 -0.8583  1.9238 -2.3003
  403TIP3    H222845   4.543   0.508   2.220  0.4200 -1.1486  0.4166
  404TIP3   OH222846   1.133   4.356   8.185 -0.0533 -0.2249 -0.0521
  404TIP3    H122847   1.176   4.431   8.143  0.0643 -0.1076  0.2716
  404TIP3    H222848   1.182   4.280   8.154 -0.0497 -0.1529 -0.2288
  405TIP3   OH222849   1.806   4.878   1.332 -0.1997  0.3488 -0.3595
  405TIP3    H122850   1.805   4.959   1.383  1.1646 -1.0202  2.0261
  405TIP3    H222851   1.887   4.884   1.280 -0.2266  0.6311 -0.3690
  406TIP3   OH222852   3.168   0.412   1.074 -0.1085  0.2973 -0.6353
  406TIP3    H122853   3.185   0.384   0.985 -0.2756  0.2450 -0.6506
  406TIP3    H222854   3.124   0.338   1.115  0.2838  0.1876 -0.4066
  407TIP3   OH222855   5.555   1.524   3.112 -0.2242 -0.4347  0.3429
  407TIP3    H122856   5.621   1.480   3.059 -0.1272 -0.0099  0.1109
  407TIP3    H222857   5.504   1.576   3.050 -0.7174 -0.6817  0.5344
  408TIP3   OH222858   6.049   6.819   0.864 -0.2847 -0.8292 -0.1537
  408TIP3    H122859   5.981   6.757   0.892  0.7438 -1.4610  1.0444
  408TIP3    H222860   6.079   6.861   0.945  0.4332 -0.2249 -0.7165
  409TIP3   OH222861   0.785   5.974   0.747  0.0701  0.6488 -0.1963
  409TIP3    H122862   0.822   5.910   0.808  1.9135  0.4098 -1.4552
  409TIP3    H222863   0.796   6.058   0.791  2.1593  0.5804 -0.4527
  410TIP3   OH222864   3.665   1.387   2.189  0.1204  0.5382  0.2079
  410TIP3    H122865   3.692   1.338   2.266 -1.4875 -0.4181  0.2169
  410TIP3    H222866   3.586   1.434   2.218  0.0729  0.9654 -0.5867
  411TIP3   OH222867   5.423   6.896   6.898  0.6698 -0.5309  0.6714
  411TIP3    H122868   5.507   6.850   6.901  1.6658  1.2358  1.6364
  411TIP3    H222869   5.374   6.861   6.972  1.2327 -0.3555  1.1290
  412TIP3   OH222870   1.139   4.722   8.195  0.4591  0.6583  0.0142
  412TIP3    H122871   1.096   4.798   8.236  2.3148  1.5750  0.4068
  412TIP3    H222872   1.197   4.761   8.129 -0.7342 -0.6537 -1.8694
  413TIP3   OH222873   1.817   0.527   7.711  0.2039 -0.1527  0.0039
  413TIP3    H122874   1.897   0.484   7.740 -0.5918 -1.2396  0.6242
  413TIP3    H222875   1.833   0.546   7.618  2.3277  2.3526  0.7615
  414TIP3   OH222876   0.706   6.380   1.658  0.1175  0.1852  0.5157
  414TIP3    H122877   0.741   6.425   1.735  1.7108 -1.6761  0.9325
  414TIP3    H222878   0.774   6.389   1.591 -1.5286  2.4105 -1.0586
  415TIP3   OH222879   2.369   3.716   7.495 -0.0959 -0.0078  0.4702
  415TIP3    H122880   2.341   3.657   7.425  0.4365 -1.0656  1.1347
  415TIP3    H222881   2.328   3.682   7.574 -1.1594  1.5193  0.6076
  416TIP3   OH222882   6.590   4.160   2.966  0.2159  0.9953 -0.2355
  416TIP3    H122883   6.505   4.190   2.998 -0.2151  0.0679 -0.4713
  416TIP3    H222884   6.633   4.124   3.043 -0.3126 -0.0836 -0.4130
  417TIP3   OH222885   6.130   5.763   1.524  0.0806  0.1289  0.3882
  417TIP3    H122886   6.039   5.788   1.505  0.1318 -1.3087 -2.2821
  417TIP3    H222887   6.128   5.733   1.615 -2.3621 -0.7678  0.1144
  418TIP3   OH222888   0.468   6.724   2.035 -0.1213 -0.2274 -0.1353
  418TIP3    H122889   0.487   6.705   1.943  1.5407 -1.1557  0.3639
  418TIP3    H222890   0.505   6.650   2.083  0.9702  1.2785  1.4439
  419TIP3   OH222891   6.063   2.160   7.975  0.7372 -0.0541 -0.1927
  419TIP3    H122892   5.971   2.171   8.000  1.3091  1.3589  1.5405
  419TIP3    H222893   6.066   2.073   7.934 -1.4753  0.1567 -0.9637
  420TIP3   OH222894   4.103   3.447   2.027 -0.1199  0.7118 -0.6546
  420TIP3    H122895   4.140   3.535   2.035 -0.2037  0.7093 -0.2091
  420TIP3    H222896   4.180   3.389   2.027 -0.1205  0.6873  0.5564
  421TIP3   OH222897   0.344   5.127   0.656  0.3416  0.1206  0.5017
  421TIP3    H122898   0.265   5.079   0.681  0.2354 -0.1198 -0.2776
  421TIP3    H222899   0.338   5.209   0.705 -0.6291  0.3111  0.0881
  422TIP3   OH222900   3.361   3.573   2.647  0.3025 -0.2553 -0.3258
  422TIP3    H122901   3.362   3.525   2.730 -0.9673  1.5424  0.8118
  422TIP3    H222902   3.327   3.510   2.583 -0.9055 -1.0241  1.0099
  423TIP3   OH222903   1.035   3.429   1.068 -0.2750 -0.0563 -0.0873
  423TIP3    H122904   1.005   3.338   1.057 -2.0364  0.0426  2.8220
  423TIP3    H222905   1.119   3.432   1.022 -0.6414 -2.8715 -1.1414
  424TIP3   OH222906   3.527   5.925   0.258 -0.4673 -0.2524  0.8476
  424TIP3    H122907   3.461   5.990   0.236 -1.3455 -1.7158 -1.1945
  424TIP3    H222908   3.482   5.841   0.250  0.8939 -1.1919  2.3880
  425TIP3   OH222909   1.633   6.068   1.844  0.6904 -0.5757  0.3027
  425TIP3    H122910   1.672   5.980   1.843  0.8502 -0.5310  1.4558
  425TIP3    H222911   1.542   6.053   1.873  0.6805 -0.3801  0.3713
  426TIP3   OH222912   5.999   2.879   0.195  0.0811  0.4092  0.0449
  426TIP3    H122913   5.975   2.878   0.288  1.3447  1.4677  0.4072
  426TIP3    H222914   6.065   2.811   0.186  1.0735  1.3263  0.2592
  427TIP3   OH222915   6.196   2.713   0.129  0.2666 -0.3032 -0.0265
  427TIP3    H122916   6.250   2.641   0.095  0.1782 -0.7930  0.8319
  427TIP3    H222917   6.251   2.756   0.194  0.6831  1.0526 -1.2154
  428TIP3   OH222918   4.292   0.101   0.324 -0.3294 -0.2840 -0.8050
  428TIP3    H122919   4.319   0.165   0.257 -0.4930 -1.0673 -1.6397
  428TIP3    H222920   4.281   0.153   0.403  1.0661  0.4865 -1.0764
  429TIP3   OH222921   3.398   5.676   0.833  0.0096  0.0311 -0.6103
  429TIP3    H122922   3.326   5.640   0.782 -1.3083  1.7577 -0.0719
  429TIP3    H222923   3.464   5.606   0.835 -1.4938 -1.4759 -1.3894
  430TIP3   OH222924   3.446   5.072   2.638  0.3155 -0.1093  0.5000
  430TIP3    H122925   3.367   5.125   2.653  0.7257  0.8183 -0.4931
  430TIP3    H222926   3.425   4.988   2.677 -0.8688  0.3715  0.9694
  431TIP3   OH222927   6.673   2.235   3.013  0.0362  0.7135 -0.7055
  431TIP3    H122928   6.755   2.192   2.988  0.4640  1.3449 -0.4307
  431TIP3    H222929   6.676   2.320   2.969 -1.1583  0.1822 -1.8639
  432TIP3   OH222930   3.291   7.011   0.059  1.1091 -0.3544  0.3088
  432TIP3    H122931   3.351   6.962   0.004 -0.1095 -0.6436 -0.8228
  432TIP3    H222932   3.227   7.048  -0.002  0.1916  0.0132  1.4534
  433TIP3   OH222933   4.136   1.054   7.223 -0.4854  0.2107 -0.4742
  433TIP3    H122934   4.155   1.139   7.183 -2.5245  0.3720 -1.2247
  433TIP3    H222935   4.043   1.057   7.243 -0.4858 -1.6509  0.0211
  434TIP3   OH222936   2.508   3.361   0.428  0.0417  0.1695 -0.0503
  434TIP3    H122937   2.464   3.348   0.344  1.6904  1.2529 -1.1622
  434TIP3    H222938   2.589   3.406   0.405  1.8581 -1.9159  1.8489
  435TIP3   OH222939   6.682   4.248   0.163 -0.3824 -0.3595  0.3837
  435TIP3    H122940   6.712   4.160   0.188 -0.0876 -0.6006 -0.7420
  435TIP3    H222941   6.759   4.289   0.124 -1.2141 -0.6727 -1.7453
  436TIP3   OH222942   2.914   6.299   0.440 -0.1264 -0.3218 -0.1074
  436TIP3    H122943   2.883   6.236   0.505  0.4721 -0.9394 -0.4001
  436TIP3    H222944   2.941   6.245   0.366 -1.0373  0.3868 -0.9735
  437TIP3   OH222945   2.056   4.669   0.474 -0.1745  0.0332  0.0826
  437TIP3    H122946   2.114   4.655   0.400  1.3670  0.9703  1.0616
  437TIP3    H222947   1.968   4.670   0.436  0.5013 -0.5173 -1.5659
  438TIP3   OH222948   3.277   1.532   0.709 -0.3017  0.3105 -0.1805
  438TIP3    H122949   3.294   1.599   0.776 -1.2785 -1.1760  1.6325
  438TIP3    H222950   3.181   1.524   0.707 -0.1742 -1.9006  0.5791
  439TIP3   OH222951   4.317   4.921   7.486  0.9252 -0.7036 -0.2161
  439TIP3    H122952   4.248   4.934   7.551  0.2871  0.7750 -1.1402
  439TIP3    H222953   4.376   4.857   7.526  0.9378  0.6838  2.1025
  440TIP3   OH222954   2.011   4.194   7.977 -0.7455  0.0260  0.2862
  440TIP3    H122955   1.996   4.112   8.025 -1.8184 -0.1131 -0.2655
  440TIP3    H222956   1.927   4.239   7.981  0.1276  1.6420  1.5602
  441TIP3   OH222957   3.529   3.934   0.015 -0.5611  0.3668 -0.7851
  441TIP3    H122958   3.514   4.011  -0.039  1.4955  0.5274 -1.2244
  441TIP3    H222959   3.533   3.862  -0.048 -0.7572  0.1627 -0.5644
  442TIP3   OH222960   7.013   3.389   8.222  0.1778  0.2243 -0.5502
  442TIP3    H122961   7.072   3.390   8.147 -0.6811 -0.2535 -1.2628
  442TIP3    H222962   6.926   3.377   8.183 -0.1773 -1.1404  0.5670
  443TIP3   OH222963   3.119   6.436   0.526 -0.0897  0.3619 -0.5215
  443TIP3    H122964   3.046   6.387   0.488 -0.3234 -0.2215  0.6254
  443TIP3    H222965   3.195   6.410   0.473 -0.0990 -1.7220  0.3826
  444TIP3   OH222966   6.685   2.619   0.757  0.4648 -0.2650  0.4482
  444TIP3    H122967   6.704   2.568   0.678 -2.2641 -0.0091 -0.4725
  444TIP3    H222968   6.734   2.700   0.745 -0.4389  0.0681 -1.3687
  445TIP3   OH222969   3.740   5.972   1.851  0.1178 -0.3630  0.1221
  445TIP3    H122970   3.657   6.020   1.851  0.0093 -0.5271 -0.8520
  445TIP3    H222971   3.805   6.037   1.877 -0.3436 -0.3002  1.1670
  446TIP3   OH222972   4.510   2.008   7.580  0.2089  0.1058  0.2276
  446TIP3    H122973   4.579   2.064   7.616 -0.0050  0.9015 -0.5580
  446TIP3    H222974   4.503   2.034   7.488 -1.7550  0.7170  0.4968
  447TIP3   OH222975   0.308   5.325   7.520  0.1628 -0.3636 -0.0657
  447TIP3    H122976   0.259   5.285   7.448 -2.9833  1.0882  1.0844
  447TIP3    H222977   0.251   5.396   7.551  2.2737  0.3290  2.5961
  448TIP3   OH222978   2.011   2.523   7.910 -0.2488  0.2052  0.4651
  448TIP3    H122979   1.996   2.587   7.841  0.6962 -0.2610 -0.1925
  448TIP3    H222980   2.083   2.469   7.877 -0.9109 -1.0811  1.0776
  449TIP3   OH222981   6.352   5.051   1.104 -0.4329  0.2405  0.1615
  449TIP3    H122982   6.269   5.085   1.137  0.9955  2.6141  1.6240
  449TIP3    H222983   6.413   5.124   1.114  2.3872 -2.0779  1.3181
  450TIP3   OH222984   1.656   2.530   0.241  0.3490  0.3285  0.3339
  450TIP3    H122985   1.615   2.523   0.327 -2.4272 -0.1354 -0.8892
  450TIP3    H222986   1.696   2.445   0.226 -1.4773 -0.5619  0.1746
  451TIP3   OH222987   0.113   0.760   1.491 -0.0079  0.4306 -0.0464
  451TIP3    H122988   0.172   0.747   1.417  1.5411  0.3018  1.1696
  451TIP3    H222989   0.094   0.672   1.522 -2.1844  0.3509 -1.3740
  452TIP3   OH222990   4.967   1.209   1.735  0.2607  0.0125  0.0378
  452TIP3    H122991   5.038   1.273   1.741 -1.0288  1.3947  1.1467
  452TIP3    H222992   4.963   1.186   1.642  1.6389  0.5035 -0.1616
  453TIP3   OH222993   0.956   2.775   0.423 -0.1555  0.1538  0.6489
  453TIP3    H122994   0.884   2.713   0.411  1.2283 -1.5115  0.6996
  453TIP3    H222995   1.011   2.764   0.345  0.5267  0.7661  1.0307
  454TIP3   OH222996   3.971   2.301   8.278  0.5397  0.1020  0.1759
  454TIP3    H122997   4.016   2.377   8.241 -1.3765  0.5836 -1.2949
  454TIP3    H222998   3.879   2.327   8.281 -0.1232 -2.0447 -0.0367
  455TIP3   OH222999   4.127   5.666   8.318  0.1453  0.1383  0.5014
  455TIP3    H123000   4.201   5.705   8.271  0.3657  0.6717  1.2701
  455TIP3    H223001   4.075   5.624   8.250  1.2141 -0.3513 -0.0375
  456TIP3   OH223002   5.503   1.934   7.082 -0.3902 -0.5659  0.1679
  456TIP3    H123003   5.446   1.904   7.011 -1.6176  1.9344 -0.0044
  456TIP3    H223004   5.559   2.000   7.042  1.0626 -1.3096  0.8846
  457TIP3   OH223005   0.263   3.479   2.524  0.4477 -0.4199 -0.2807
  457TIP3    H123006   0.293   3.541   2.458 -0.2615 -1.6539 -1.8273
  457TIP3    H223007   0.188   3.522   2.565 -1.9135 -1.2944 -3.3410
  458TIP3   OH223008   3.197   0.461   3.011  0.4547 -0.6969  0.0197
  458TIP3    H123009   3.128   0.521   2.985 -2.0507 -2.2679  2.5073
  458TIP3    H223010   3.275   0.516   3.019 -1.6641  2.3062  2.2383
  459TIP3   OH223011   3.591   1.789   2.524 -0.9409 -0.2089 -0.0777
  459TIP3    H123012   3.589   1.843   2.445 -1.3718 -0.3772 -0.1844
  459TIP3    H223013   3.536   1.836   2.587 -1.7994 -0.8101 -0.3624
  460TIP3   OH223014   3.290   0.447   8.242 -0.3013 -0.3696  0.2376
  460TIP3    H123015   3.295   0.528   8.292  0.2325 -0.3400  0.1410
  460TIP3    H223016   3.310   0.473   8.152 -1.0444 -0.4574  0.0339
  461TIP3   OH223017   3.946   2.088   0.338  0.1963  0.3708  0.3390
  461TIP3    H123018   3.870   2.030   0.335 -0.8812  1.7464 -0.5926
  461TIP3    H223019   4.021   2.031   0.324 -0.7196 -0.9348  0.5643
  462TIP3   OH223020   4.469   4.170   7.363  0.0286  0.4128 -0.6199
  462TIP3    H123021   4.454   4.188   7.270  1.3392 -1.0635 -1.1639
  462TIP3    H223022   4.411   4.097   7.383 -0.6371  1.0712 -0.1293
  463TIP3   OH223023   1.348   1.055   0.447 -0.1846  0.4213  0.6471
  463TIP3    H123024   1.354   1.024   0.357  0.1837  1.0320  0.4487
  463TIP3    H223025   1.330   1.149   0.438 -0.4418  0.4276  1.2116
  464TIP3   OH223026   6.286   2.740   3.612 -0.7620 -0.5644  0.5902
  464TIP3    H123027   6.371   2.725   3.652  0.0577  1.0381 -0.4515
  464TIP3    H223028   6.237   2.789   3.678  0.7412  2.4770 -0.3682
  465TIP3   OH223029   3.395   5.611   3.256 -0.0039 -0.1044  0.2559
  465TIP3    H123030   3.366   5.690   3.301  0.1816  0.0126  0.1692
  465TIP3    H223031   3.317   5.581   3.209 -0.6120 -1.0120  1.7563
  466TIP3   OH223032   6.023   0.145   2.099 -0.1506 -0.5489  0.7576
  466TIP3    H123033   6.060   0.142   2.011 -0.7588 -0.4940  0.4942
  466TIP3    H223034   6.077   0.208   2.146 -1.2989  1.3313 -0.2951
  467TIP3   OH223035   3.734   3.782   2.170 -0.0108 -0.2368  0.2396
  467TIP3    H123036   3.687   3.865   2.159 -1.7430 -1.1450  0.4039
  467TIP3    H223037   3.817   3.807   2.211 -0.9204  1.3106  1.2710
  468TIP3   OH223038   4.779   1.331   7.732 -0.1983 -0.6059 -0.0019
  468TIP3    H123039   4.741   1.356   7.816 -2.3127 -1.8508 -0.5177
  468TIP3    H223040   4.868   1.364   7.735 -0.5560  0.3085  2.2924
  469TIP3   OH223041   1.037   5.253   1.316 -0.1789  0.6159  0.2670
  469TIP3    H123042   1.109   5.315   1.313  0.2244  0.1158 -0.7713
  469TIP3    H223043   1.002   5.261   1.405  0.0290  2.1211  0.2354
  470TIP3   OH223044   6.396   2.496   7.559 -0.3974  0.3165  0.1896
  470TIP3    H123045   6.422   2.404   7.551 -0.1129  0.4820 -1.0904
  470TIP3    H223046   6.320   2.495   7.616 -0.7194 -0.7842 -0.2321
  471TIP3   OH223047   3.746   5.178   0.779  0.1901 -0.1263  0.0952
  471TIP3    H123048   3.817   5.193   0.717 -0.6525 -0.0437 -0.8698
  471TIP3    H223049   3.764   5.238   0.851 -0.8864  2.6994 -1.8013
  472TIP3   OH223050   0.706   3.570   1.748 -0.0843  0.5167 -0.9438
  472TIP3    H123051   0.739   3.586   1.660 -0.9641  2.1242 -1.0291
  472TIP3    H223052   0.766   3.618   1.806 -0.4298  0.7979 -0.8162
  473TIP3   OH223053   1.760   2.505   1.807  0.9346  0.1008  0.2915
  473TIP3    H123054   1.759   2.553   1.725 -0.4478  0.5133  0.5195
  473TIP3    H223055   1.749   2.413   1.781  1.3911  0.1293 -0.0183
  474TIP3   OH223056   3.500   4.030   1.433 -0.5622  0.1903  0.4009
  474TIP3    H123057   3.452   3.986   1.503 -2.6351  0.1074 -1.0042
  474TIP3    H223058   3.471   4.121   1.436 -2.4852 -0.2686 -1.7293
  475TIP3   OH223059   6.040   6.940   0.610  0.0707  0.9077 -0.3409
  475TIP3    H123060   6.057   6.926   0.703 -0.5716  1.8517 -0.0660
  475TIP3    H223061   6.031   6.852   0.574  4.0332  0.2917 -0.2956
  476TIP3   OH223062   1.534   3.569   1.445  0.2051  0.2708 -0.0706
  476TIP3    H123063   1.558   3.489   1.398  0.0446 -0.1770  0.5977
  476TIP3    H223064   1.616   3.616   1.455 -0.2343  2.4132 -4.3926
  477TIP3   OH223065   6.093   1.185   1.949 -0.3407 -0.5558  0.3876
  477TIP3    H123066   6.041   1.164   2.026  0.9722 -0.4718  1.3446
  477TIP3    H223067   6.133   1.102   1.923  0.1647 -0.3622  0.5363
  478TIP3   OH223068   2.482   1.474   1.444  0.0826 -0.0380 -0.3315
  478TIP3    H123069   2.477   1.387   1.405 -0.9110 -0.3509  0.4647
  478TIP3    H223070   2.498   1.458   1.537  0.8089  0.6598 -0.3234
  479TIP3   OH223071   3.953   4.160   7.981 -0.3746 -0.2896  0.0365
  479TIP3    H123072   3.958   4.085   7.922  0.2127 -0.7644  0.6772
  479TIP3    H223073   4.005   4.228   7.938  0.3149 -0.7369  0.1454
  480TIP3   OH223074   1.272   4.023   2.140 -0.1430  0.1853  0.3947
  480TIP3    H123075   1.364   4.030   2.116  0.3246 -1.7144  1.4513
  480TIP3    H223076   1.271   4.026   2.236 -1.4000  2.0601  0.3807
  481TIP3   OH223077   0.999   2.042   0.689 -0.4369  0.3200 -0.1600
  481TIP3    H123078   1.004   1.947   0.700 -2.1858  0.0642 -1.1919
  481TIP3    H223079   0.969   2.054   0.599 -0.8946  1.8273  0.1658
  482TIP3   OH223080   4.820   0.792   7.796 -0.3991  0.2035  0.1466
  482TIP3    H123081   4.851   0.791   7.705 -1.4552  0.8636 -0.2414
  482TIP3    H223082   4.725   0.803   7.788 -0.3358  1.9300  1.3508
  483TIP3   OH223083   4.950   1.231   0.149 -0.7449  0.0119  0.1374
  483TIP3    H123084   4.950   1.256   0.241 -3.3144  0.5873  0.0540
  483TIP3    H223085   5.015   1.288   0.108 -1.8388  2.0280  1.0700
  484TIP3   OH223086   3.203   3.331   8.018 -0.4767  0.0327  0.3577
  484TIP3    H123087   3.287   3.297   7.989 -1.2716 -1.4245 -0.3527
  484TIP3    H223088   3.185   3.284   8.099 -0.4972  0.5462  0.6582
  485TIP3   OH223089   6.599   6.744   7.394  0.4988 -0.2013  0.4575
  485TIP3    H123090   6.551   6.804   7.337  1.2972  1.3382  1.3313
  485TIP3    H223091   6.690   6.750   7.363  0.6751 -0.5603  0.9003
  486TIP3   OH223092   4.456   6.182   0.366 -0.1523  0.0525 -0.1417
  486TIP3    H123093   4.456   6.277   0.375  0.5897  0.1561 -1.1044
  486TIP3    H223094   4.524   6.152   0.426 -0.9446  0.0460  0.7789
  487TIP3   OH223095   2.443   5.002   8.276  0.1074 -0.1366  0.2011
  487TIP3    H123096   2.423   5.083   8.229 -2.0000 -1.1115 -0.7202
  487TIP3    H223097   2.393   5.008   8.357 -1.1006 -1.0075 -0.4419
  488TIP3   OH223098   3.761   6.263   1.177  0.4398  0.2090  0.0089
  488TIP3    H123099   3.672   6.291   1.197 -0.2660 -0.2431 -2.2932
  488TIP3    H223100   3.750   6.190   1.116  2.3990 -0.0841 -0.0437
  489TIP3   OH223101   1.454   1.612   1.838  0.3662 -0.0374 -0.6467
  489TIP3    H123102   1.425   1.697   1.870 -1.7462 -0.9023 -0.0965
  489TIP3    H223103   1.514   1.632   1.766 -1.8184  1.9753 -2.0677
  490TIP3   OH223104   1.471   4.722   1.069 -0.7344 -0.4062 -0.7855
  490TIP3    H123105   1.470   4.751   1.160 -0.5099  1.9801 -1.4659
  490TIP3    H223106   1.563   4.726   1.043 -0.8974 -0.2307 -1.3595
  491TIP3   OH223107   5.182   1.151   1.359  0.1512  0.2504  0.1758
  491TIP3    H123108   5.241   1.196   1.420  1.0377 -2.1013  1.1523
  491TIP3    H223109   5.190   1.059   1.381 -3.1939 -0.2776 -0.3244
  492TIP3   OH223110   4.659   5.245   0.182  0.8585  0.8765 -0.0859
  492TIP3    H123111   4.626   5.230   0.271  0.8178  1.6200  0.0297
  492TIP3    H223112   4.581   5.260   0.130  0.8328 -0.2560 -0.4000
  493TIP3   OH223113   6.653   0.305   7.652 -0.2071 -0.3169 -0.4286
  493TIP3    H123114   6.692   0.309   7.740 -0.2390  1.1477 -0.4506
  493TIP3    H223115   6.565   0.341   7.664 -0.0440  0.3311 -1.1429
  494TIP3   OH223116   5.605   4.419   2.284 -0.4565 -0.5471 -0.2664
  494TIP3    H123117   5.550   4.413   2.205 -0.4354 -0.0240 -0.3198
  494TIP3    H223118   5.652   4.501   2.275 -0.5663 -0.4109  0.3686
  495TIP3   OH223119   2.818   3.977   8.148  0.0799 -0.0383  0.4551
  495TIP3    H123120   2.894   4.011   8.100 -1.1930 -0.2373 -1.8870
  495TIP3    H223121   2.828   3.882   8.145 -0.4705 -0.0810 -0.2789
  496TIP3   OH223122   3.599   0.610   2.723 -0.1301 -0.4148  0.3504
  496TIP3    H123123   3.662   0.561   2.776 -2.0214 -3.6529 -0.0868
  496TIP3    H223124   3.518   0.559   2.728 -2.1537  2.3679 -0.8291
  497TIP3   OH223125   2.096   4.990   2.275  1.1498 -0.1017 -0.8619
  497TIP3    H123126   2.078   5.044   2.198  0.4264 -0.1505 -0.7299
  497TIP3    H223127   2.082   4.900   2.245 -0.0162 -0.0743 -0.4486
  498TIP3   OH223128   4.064   3.985   7.806  0.0351  0.0906  0.6302
  498TIP3    H123129   4.149   3.942   7.801 -0.0217 -0.2690  2.1425
  498TIP3    H223130   4.072   4.062   7.750  0.9232 -0.6061 -0.2415
  499TIP3   OH223131   0.532   1.015   2.446  0.1272 -0.3075  0.6238
  499TIP3    H123132   0.623   1.030   2.470  0.6529 -0.0053 -1.3522
  499TIP3    H223133   0.485   1.091   2.479  0.7552 -0.0152  0.8586
  500TIP3   OH223134   5.931   2.785   0.510 -0.1514 -0.2031  0.1883
  500TIP3    H123135   6.001   2.722   0.529 -0.7470 -0.5524  1.3129
  500TIP3    H223136   5.851   2.741   0.541 -0.7395  0.5887 -0.1858
  501TIP3   OH223137   4.226   4.432   2.122  0.3442  0.4972 -0.3667
  501TIP3    H123138   4.250   4.517   2.158 -1.0376  0.7006  0.1225
  501TIP3    H223139   4.132   4.437   2.110  0.1379 -1.2137  0.3243
  502TIP3   OH223140   4.463   2.434   8.153  0.3072  0.4153 -0.1442
  502TIP3    H123141   4.503   2.384   8.082 -0.9658  0.8144 -1.1711
  502TIP3    H223142   4.399   2.373   8.192  0.0104  0.6505 -0.2588
  503TIP3   OH223143   6.446   1.693   7.004 -0.1007  0.1285 -0.0576
  503TIP3    H123144   6.491   1.670   6.923 -0.9981  0.4561 -0.6647
  503TIP3    H223145   6.461   1.787   7.015 -1.2989  0.4282 -0.7251
  504TIP3   OH223146   3.095   2.752   2.144  0.2256 -0.4740  0.9437
  504TIP3    H123147   3.003   2.776   2.156  0.0507  0.8210 -1.9033
  504TIP3    H223148   3.092   2.678   2.082  1.0424  0.9718 -0.9318
  505TIP3   OH223149   3.872   0.399   1.151 -0.4040 -0.2116  0.0105
  505TIP3    H123150   3.820   0.425   1.227 -0.3614  0.2883 -0.1275
  505TIP3    H223151   3.808   0.391   1.080 -0.4953 -1.0284  0.1771
  506TIP3   OH223152   6.037   3.259   2.514 -0.2649  0.4409 -0.6156
  506TIP3    H123153   6.048   3.313   2.436  1.6401 -0.2099 -0.8681
  506TIP3    H223154   6.124   3.220   2.527 -1.4556 -2.3258 -0.2984
  507TIP3   OH223155   5.294   5.687   6.947  0.3072  0.8016  0.2323
  507TIP3    H123156   5.287   5.715   6.855  2.3887 -0.0221 -0.2400
  507TIP3    H223157   5.207   5.654   6.969  0.2882 -1.0234 -2.1701
  508TIP3   OH223158   0.404   6.257   1.619 -0.0691  0.3859 -0.2092
  508TIP3    H123159   0.320   6.221   1.645 -0.6519  1.7562 -0.1040
  508TIP3    H223160   0.448   6.277   1.701  0.5712 -0.7470 -0.2562
  509TIP3   OH223161   5.217   1.539   1.034  0.3748  0.1871  0.0809
  509TIP3    H123162   5.254   1.549   0.946  0.7275  2.4084  0.4256
  509TIP3    H223163   5.293   1.536   1.092  0.2356 -2.9340  0.2935
  510TIP3   OH223164   1.310   0.597   2.051 -0.0844 -0.5363  0.3514
  510TIP3    H123165   1.307   0.681   2.097 -0.0227 -0.3420  0.0081
  510TIP3    H223166   1.238   0.546   2.088 -0.8032  0.0621 -0.1975
  511TIP3   OH223167   2.486   2.649   8.081 -0.8041  0.0534  0.1967
  511TIP3    H123168   2.581   2.648   8.069 -0.8841 -0.9744 -0.4696
  511TIP3    H223169   2.469   2.729   8.129  0.2793  0.8680 -0.7224
  512TIP3   OH223170   1.812   6.824   1.738 -0.1806 -0.2841  0.8465
  512TIP3    H123171   1.850   6.898   1.786  0.3275 -0.1527  0.2508
  512TIP3    H223172   1.849   6.747   1.781 -0.6295 -0.1957  1.4019
  513TIP3   OH223173   5.969   4.784   7.831 -0.3788  0.6752 -0.9885
  513TIP3    H123174   6.055   4.822   7.852  0.3537 -1.2445 -0.3270
  513TIP3    H223175   5.982   4.690   7.836 -2.2638  0.3102 -2.0715
  514TIP3   OH223176   2.710   4.382   7.445 -0.2484 -0.3590 -0.3102
  514TIP3    H123177   2.622   4.382   7.481 -0.5659  0.5413 -1.0347
  514TIP3    H223178   2.753   4.457   7.486  0.0644 -0.5733 -0.2394
  515TIP3   OH223179   5.280   2.148   8.212 -0.3093  0.1119 -0.1601
  515TIP3    H123180   5.304   2.179   8.125 -1.4033  2.5519  0.3243
  515TIP3    H223181   5.186   2.129   8.206 -0.3742  0.2168  0.4790
  516TIP3   OH223182   1.236   1.561   2.659 -0.5048  0.0836  0.3526
  516TIP3    H123183   1.289   1.491   2.622 -0.5291  0.4794 -0.4644
  516TIP3    H223184   1.273   1.576   2.746 -0.3401 -0.7611  0.4331
  517TIP3   OH223185   2.866   3.900   0.205  0.0078 -0.4346  0.4467
  517TIP3    H123186   2.856   3.864   0.116 -0.9066  0.2180  0.2678
  517TIP3    H223187   2.900   3.988   0.191 -2.2985  0.5545  0.5621
  518TIP3   OH223188   2.089   2.916   3.120 -0.0185 -0.6582  0.2258
  518TIP3    H123189   2.173   2.941   3.084 -0.3996 -0.2874 -0.4173
  518TIP3    H223190   2.109   2.843   3.180  0.4585 -2.3331 -1.8628
  519TIP3   OH223191   6.592   4.700   1.593 -0.4941 -0.4465 -0.0501
  519TIP3    H123192   6.640   4.625   1.556  0.9914 -1.7639  4.0472
  519TIP3    H223193   6.500   4.674   1.587 -0.4370 -0.3378 -3.0020
  520TIP3   OH223194   0.953   5.698   7.488  0.2798  0.4133 -0.6970
  520TIP3    H123195   0.975   5.647   7.566  0.4333 -0.5824 -1.3714
  520TIP3    H223196   0.857   5.700   7.487  0.2774  0.4468 -0.4755
  521TIP3   OH223197   0.636   6.352   0.623  0.4136 -0.2230 -0.2748
  521TIP3    H123198   0.552   6.327   0.663  0.9801 -0.4081  0.8411
  521TIP3    H223199   0.617   6.358   0.529 -0.8136 -0.3944 -0.0575
  522TIP3   OH223200   5.138   0.889   1.397  0.6392 -0.4563 -0.1654
  522TIP3    H123201   5.190   0.809   1.389  1.8061  0.1110  1.2142
  522TIP3    H223202   5.088   0.894   1.316  1.8239 -1.6979 -1.0074
  523TIP3   OH223203   1.048   1.736   7.954 -0.0261 -0.2606 -0.2214
  523TIP3    H123204   0.969   1.736   8.009  0.1232  2.3221  0.1180
  523TIP3    H223205   1.065   1.828   7.937  3.7918 -0.5910  0.9422
  524TIP3   OH223206   6.547   0.852   8.110 -0.4238 -0.1772 -0.3445
  524TIP3    H123207   6.486   0.797   8.159  0.1024  0.5854  1.2410
  524TIP3    H223208   6.491   0.907   8.056 -1.2054  0.7055  1.2851
  525TIP3   OH223209   1.121   4.769   0.972  0.3947  0.3546  0.4343
  525TIP3    H123210   1.035   4.737   1.000  0.4915  0.0470  0.3908
  525TIP3    H223211   1.182   4.737   1.040  0.7289 -0.9769 -0.4455
  526TIP3   OH223212   1.527   2.462   1.947 -0.0766 -0.2757 -0.4025
  526TIP3    H123213   1.613   2.490   1.914 -0.1012  0.4585  0.1183
  526TIP3    H223214   1.540   2.371   1.973  0.3996 -0.3392 -0.8350
  527TIP3   OH223215   0.407   0.727   1.770  0.0257 -0.2696  0.1412
  527TIP3    H123216   0.378   0.664   1.836  1.8607 -1.3531 -0.0015
  527TIP3    H223217   0.375   0.692   1.687 -1.2308  0.4403  0.3056
  528TIP3   OH223218   3.365   0.129   1.129  0.2951  0.2449 -0.3899
  528TIP3    H123219   3.274   0.100   1.135  0.8062 -1.5151 -0.7424
  528TIP3    H223220   3.389   0.115   1.037  1.5681 -1.4498  0.1426
  529TIP3   OH223221   1.101   5.405   7.240  0.0949  0.0080 -1.0692
  529TIP3    H123222   1.135   5.489   7.270  0.0781  0.9265 -3.4362
  529TIP3    H223223   1.022   5.427   7.191  0.3220 -1.3234 -2.1036
  530TIP3   OH223224   2.206   6.278   2.199  0.2004 -0.1123 -0.0927
  530TIP3    H123225   2.246   6.289   2.285  1.5828  0.3464 -0.7611
  530TIP3    H223226   2.113   6.264   2.217  0.5214 -0.4118  1.4831
  531TIP3   OH223227   6.818   2.743   7.039  0.4371  0.0095  0.0488
  531TIP3    H123228   6.872   2.794   6.978  0.9959  0.4657  0.8947
  531TIP3    H223229   6.757   2.807   7.076  0.0421 -0.2839 -0.0918
  532TIP3   OH223230   2.341   6.960   8.186  0.2217  0.3400  0.2285
  532TIP3    H123231   2.260   7.011   8.187  0.5146  0.8065  0.2851
  532TIP3    H223232   2.314   6.874   8.154 -0.2794  0.5199  0.1495
  533TIP3   OH223233   5.030   5.267   2.063  0.1678  0.3359  0.5485
  533TIP3    H123234   4.980   5.190   2.090 -1.1426  1.1583  0.5537
  533TIP3    H223235   5.030   5.263   1.968 -0.8625  0.9056  0.5150
  534TIP3   OH223236   0.590   1.406   1.321  0.1593 -0.2441  0.8710
  534TIP3    H123237   0.600   1.331   1.380  1.8311 -0.2795  0.5790
  534TIP3    H223238   0.668   1.405   1.266 -0.8462  0.4223 -0.6572
  535TIP3   OH223239   0.778   1.432   1.713  0.0001 -0.3335  0.5712
  535TIP3    H123240   0.787   1.507   1.771 -0.5111  0.3169 -0.1747
  535TIP3    H223241   0.841   1.448   1.643 -0.1323 -0.5863  0.3921
  536TIP3   OH223242   0.270   6.302   7.476  0.4570  0.2810  0.3234
  536TIP3    H123243   0.339   6.242   7.449  0.4940  0.3975  0.1576
  536TIP3    H223244   0.257   6.360   7.401  1.8793  1.8316  1.1966
  537TIP3   OH223245   0.022   4.452   2.033  0.0819 -0.0729  0.0140
  537TIP3    H123246   0.083   4.379   2.025 -0.5081 -0.6718  0.8516
  537TIP3    H223247   0.072   4.528   2.002  1.2410 -0.5458  0.6445
  538TIP3   OH223248   2.120   2.148   1.945  0.5882 -0.2380 -0.0272
  538TIP3    H123249   2.136   2.134   1.852 -1.9282  0.1688 -0.6134
  538TIP3    H223250   2.071   2.071   1.973  0.2753  0.1835  0.6295
  539TIP3   OH223251   5.529   4.095   0.729 -0.4370 -0.0994 -0.4523
  539TIP3    H123252   5.434   4.107   0.737 -0.7928 -2.3919 -0.6445
  539TIP3    H223253   5.561   4.180   0.699 -2.1535  1.3268  1.4019
  540TIP3   OH223254   3.057   4.397   7.006  0.6007  0.5590 -0.3643
  540TIP3    H123255   3.117   4.362   7.072 -0.9105 -0.9042  0.2843
  540TIP3    H223256   3.048   4.490   7.028 -0.0489  0.0532  1.6243
  541TIP3   OH223257   6.226   0.920   1.827  0.3294  1.1039 -0.0073
  541TIP3    H123258   6.234   0.864   1.749 -0.6941  0.3915  0.3768
  541TIP3    H223259   6.306   0.905   1.876 -0.1658 -0.4668  0.3591
  542TIP3   OH223260   6.664   2.519   2.541  0.7793  0.4123  0.1610
  542TIP3    H123261   6.718   2.514   2.620  0.2539  1.4248  0.6065
  542TIP3    H223262   6.588   2.464   2.560  0.3244  1.1799  0.6587
  543TIP3   OH223263   2.699   6.431   1.084  0.1446  0.3958 -1.0768
  543TIP3    H123264   2.707   6.482   1.165 -0.7358 -0.1725 -0.6148
  543TIP3    H223265   2.764   6.469   1.026  0.7368  0.8754 -0.1317
  544TIP3   OH223266   2.485   5.142   1.802  0.0004 -0.9229  0.3994
  544TIP3    H123267   2.435   5.154   1.883 -0.8701  1.6172 -0.4296
  544TIP3    H223268   2.426   5.092   1.746 -2.7824  3.6636 -1.2892
  545TIP3   OH223269   3.968   5.055   1.616 -0.1071  0.2560  0.4752
  545TIP3    H123270   3.937   4.988   1.677  0.7510 -0.4776  0.1347
  545TIP3    H223271   3.913   5.045   1.538 -0.4390  0.4112  0.6916
  546TIP3   OH223272   0.982   4.038   1.545 -0.2147 -0.3051 -0.5460
  546TIP3    H123273   1.043   3.988   1.491 -1.6790 -1.8106 -0.8867
  546TIP3    H223274   0.898   3.994   1.534 -0.9379  0.4174  1.5754
  547TIP3   OH223275   5.084   2.558   2.780  0.4918 -0.1619 -0.1017
  547TIP3    H123276   5.158   2.500   2.801 -0.0822 -0.9611 -0.2325
  547TIP3    H223277   5.007   2.512   2.815  0.0456  0.6493  0.0157
  548TIP3   OH223278   2.099   1.401   1.929 -0.0443  0.0250 -0.1950
  548TIP3    H123279   2.036   1.339   1.965 -2.3015  1.6997 -0.9852
  548TIP3    H223280   2.155   1.426   2.003  0.5985 -2.4847  0.2336
  549TIP3   OH223281   5.583   7.002   7.303 -0.5400  0.1766 -0.4005
  549TIP3    H123282   5.673   6.997   7.272 -0.2112 -0.2037  0.6033
  549TIP3    H223283   5.542   6.922   7.269 -0.5430  0.4168 -0.9733
  550TIP3   OH223284   6.529   6.822   0.053  0.0548  0.0193  0.7751
  550TIP3    H123285   6.474   6.746   0.037  1.0136 -0.3611 -0.9951
  550TIP3    H223286   6.588   6.795   0.123  1.3545 -1.4502 -0.8098
  551TIP3   OH223287   4.347   4.745   0.426  0.1346  0.5801  0.0707
  551TIP3    H123288   4.257   4.759   0.398 -0.1421 -1.3624 -0.0821
  551TIP3    H223289   4.395   4.818   0.386 -0.9066  0.1151 -2.1892
  552TIP3   OH223290   3.076   4.463   2.309 -0.0274  0.2199  0.3810
  552TIP3    H123291   3.063   4.500   2.221 -1.4558  0.1683  0.5480
  552TIP3    H223292   3.058   4.370   2.298  1.3368 -0.0623  0.4245
  553TIP3   OH223293   0.819   0.451   1.301 -0.3498 -0.0941 -0.1691
  553TIP3    H123294   0.820   0.419   1.211 -0.2429 -0.3302 -0.0825
  553TIP3    H223295   0.735   0.497   1.309 -0.2285  0.1794 -0.4770
  554TIP3   OH223296   4.523   1.745   7.614 -0.6523  0.7461 -0.1241
  554TIP3    H123297   4.608   1.736   7.657 -1.8743 -0.3147  2.2354
  554TIP3    H223298   4.507   1.840   7.611 -0.5701  0.8500  1.9156
  555TIP3   OH223299   0.168   5.123   7.055  0.2320  0.3215 -0.0435
  555TIP3    H123300   0.232   5.153   6.991 -1.2175  0.3299 -1.5495
  555TIP3    H223301   0.097   5.187   7.050  0.0476  0.2809  1.5388
  556TIP3   OH223302   3.655   1.238   0.002  0.2101  0.4569 -0.2771
  556TIP3    H123303   3.620   1.150  -0.012 -0.9279  0.4671  1.9562
  556TIP3    H223304   3.749   1.225   0.014  0.0851 -0.4415 -0.1970
  557TIP3   OH223305   1.981   3.116   1.238  0.1802 -0.0172  0.0406
  557TIP3    H123306   1.987   3.088   1.146  1.7652  1.1013 -0.2541
  557TIP3    H223307   2.036   3.054   1.285 -0.6246 -0.5841  0.2463
  558TIP3   OH223308   6.210   0.636   6.860  0.4075  0.5422 -0.1353
  558TIP3    H123309   6.142   0.669   6.919  0.0210 -0.1765 -0.1729
  558TIP3    H223310   6.164   0.612   6.780  0.7167  0.1612 -0.2055
  559TIP3   OH223311   0.164   6.814   7.929  0.0416 -0.4774 -0.6286
  559TIP3    H123312   0.179   6.906   7.955  0.1177 -0.3379 -1.1620
  559TIP3    H223313   0.204   6.763   8.000 -0.1551 -0.0998 -0.2390
  560TIP3   OH223314   1.589   4.773   0.180  0.2725 -0.0424  0.5886
  560TIP3    H123315   1.600   4.688   0.222  2.0124 -0.4064 -0.4907
  560TIP3    H223316   1.610   4.757   0.088 -2.1352  1.0009 -0.2240
  561TIP3   OH223317   0.984   3.413   1.622 -0.1099  0.1233  0.5425
  561TIP3    H123318   0.894   3.393   1.595 -0.1966  1.1528  0.0164
  561TIP3    H223319   0.987   3.387   1.714 -0.8232 -0.3051  0.4573
  562TIP3   OH223320   0.929   1.264   7.235 -0.0688  0.6001  0.2766
  562TIP3    H123321   0.951   1.171   7.239  0.0355  0.5955 -0.3205
  562TIP3    H223322   1.013   1.308   7.231 -0.0957  0.7707  1.3418
  563TIP3   OH223323   5.206   4.333   2.572  0.6245 -0.4320 -0.3269
  563TIP3    H123324   5.296   4.365   2.570  0.9638 -1.3298  0.2632
  563TIP3    H223325   5.188   4.318   2.665 -0.2996  0.1928 -0.3952
  564TIP3   OH223326   4.213   4.531   1.358  0.7406 -0.0799  0.0435
  564TIP3    H123327   4.142   4.469   1.339 -0.0390  0.8472 -0.1420
  564TIP3    H223328   4.178   4.616   1.332  0.9513  0.7784  2.2931
  565TIP3   OH223329   5.766   4.643   2.215 -0.2171  0.5104 -0.5574
  565TIP3    H123330   5.739   4.688   2.134  0.5504 -0.5870 -1.4559
  565TIP3    H223331   5.857   4.620   2.200 -0.8508 -2.3086 -0.6363
  566TIP3   OH223332   1.595   1.677   8.140 -0.2162 -0.1751 -0.5666
  566TIP3    H123333   1.643   1.685   8.223 -0.1334  0.9044 -0.6999
  566TIP3    H223334   1.508   1.645   8.166  0.3636 -1.5654 -0.2645
  567TIP3   OH223335   4.478   5.055   2.558 -0.3580 -0.6044 -0.1926
  567TIP3    H123336   4.488   5.032   2.466 -0.9219  0.5855 -0.5690
  567TIP3    H223337   4.523   5.138   2.567 -1.7586  0.1507  0.1941
  568TIP3   OH223338   1.921   6.951   2.436  0.2854  0.2849 -0.5803
  568TIP3    H123339   1.923   6.988   2.524  1.5157  0.3211 -0.6171
  568TIP3    H223340   1.875   7.016   2.384 -0.0616  0.4626 -0.0655
  569TIP3   OH223341   6.110   0.964   6.743  0.0652  0.1678 -0.1691
  569TIP3    H123342   6.184   0.929   6.792 -0.2461  1.2112  1.1214
  569TIP3    H223343   6.149   1.018   6.675  0.5007 -0.8408 -0.7432
  570TIP3   OH223344   0.084   5.316   0.552  0.1286 -0.1622  1.0382
  570TIP3    H123345   0.111   5.401   0.588 -0.2628  0.0917  0.7409
  570TIP3    H223346   0.075   5.332   0.458  0.7513 -0.7183  0.8742
  571TIP3   OH223347   2.840   4.362   7.779 -0.0555  0.1353 -0.1573
  571TIP3    H123348   2.847   4.423   7.705  1.6446 -0.4625 -0.5113
  571TIP3    H223349   2.841   4.275   7.739 -0.4316 -0.1781  0.4925
  572TIP3   OH223350   3.232   2.268   8.317 -0.2907 -0.5158  0.0139
  572TIP3    H123351   3.298   2.228   8.260 -0.9061 -1.6740  0.1083
  572TIP3    H223352   3.209   2.200   8.379  0.7031  0.8433  1.9998
  573TIP3   OH223353   2.139   1.100   1.581 -0.0127  0.0148 -0.1081
  573TIP3    H123354   2.105   1.119   1.494  1.9812  0.6827 -0.7843
  573TIP3    H223355   2.065   1.060   1.627 -1.6858  1.3945 -1.4708
  574TIP3   OH223356   1.904   6.270   7.677  0.2345 -0.0069 -0.3060
  574TIP3    H123357   1.813   6.242   7.666  0.2378 -0.3768  0.5302
  574TIP3    H223358   1.940   6.270   7.589 -0.7183  0.6580 -0.7161
  575TIP3   OH223359   5.183   2.314   0.662 -0.6510  0.5967 -0.1355
  575TIP3    H123360   5.107   2.311   0.721 -0.4013 -1.7306  0.1634
  575TIP3    H223361   5.230   2.394   0.688 -1.8140  0.8981  1.1912
  576TIP3   OH223362   0.379   2.520   3.020 -0.3352  0.1941 -0.1038
  576TIP3    H123363   0.444   2.469   3.069 -0.0273  0.1284 -0.5749
  576TIP3    H223364   0.323   2.559   3.088  0.6093  0.8127  0.3333
  577TIP3   OH223365   2.269   5.331   2.071  0.6109 -0.1440 -0.0150
  577TIP3    H123366   2.182   5.326   2.112 -0.3633  1.5974 -1.6898
  577TIP3    H223367   2.309   5.246   2.088 -1.1433 -0.7427  1.4021
  578TIP3   OH223368   3.468   4.755   6.836  0.1717  0.2643 -0.0056
  578TIP3    H123369   3.400   4.729   6.774  0.3724 -0.7329  0.1908
  578TIP3    H223370   3.482   4.848   6.817 -0.6775  0.2862 -0.5832
  579TIP3   OH223371   3.257   6.365   0.116 -0.2517 -0.0961 -0.0399
  579TIP3    H123372   3.207   6.301   0.065 -0.1997  0.6413 -1.0345
  579TIP3    H223373   3.197   6.438   0.129 -0.6421 -0.7143  1.9433
  580TIP3   OH223374   4.327   6.557   7.354  0.3343  0.2930 -0.1731
  580TIP3    H123375   4.325   6.652   7.347 -1.4399  0.3938  0.9708
  580TIP3    H223376   4.351   6.541   7.446  2.5678 -0.4404 -0.8256
  581TIP3   OH223377   1.521   3.238   0.636 -0.3077  0.2003  0.0927
  581TIP3    H123378   1.476   3.317   0.605  1.3706  1.0368 -0.2961
  581TIP3    H223379   1.488   3.226   0.725 -2.7497 -0.3655 -0.8086
  582TIP3   OH223380   3.793   6.285   0.213  0.1569 -0.2474  0.2715
  582TIP3    H123381   3.811   6.285   0.307 -0.7786 -1.1436  0.4682
  582TIP3    H223382   3.697   6.283   0.207  0.2157 -1.7697 -0.6797
  583TIP3   OH223383   1.722   0.790   1.185  0.5717  0.3841  0.4762
  583TIP3    H123384   1.713   0.738   1.265 -1.0396 -0.9379 -0.4883
  583TIP3    H223385   1.632   0.812   1.162  1.0420  1.0134 -0.8047
  584TIP3   OH223386   5.582   3.017   0.204  0.1043  0.2976  0.1843
  584TIP3    H123387   5.661   3.007   0.257 -0.1592 -0.9817  0.3763
  584TIP3    H223388   5.521   3.065   0.261  1.2459  2.8003 -0.5576
  585TIP3   OH223389   6.000   2.561   1.131  0.4608 -0.1714 -0.0563
  585TIP3    H123390   6.083   2.609   1.134  0.4425 -0.1614  2.0512
  585TIP3    H223391   6.013   2.486   1.190 -1.5269  0.7523  1.6952
  586TIP3   OH223392   1.141   1.436   7.269  0.6614 -0.0492 -0.2912
  586TIP3    H123393   1.221   1.442   7.218 -0.3289  0.0016 -1.9009
  586TIP3    H223394   1.079   1.493   7.223 -1.3822 -2.7966 -1.2023
  587TIP3   OH223395   6.075   0.480   8.162  0.0537 -0.2923 -0.0180
  587TIP3    H123396   5.996   0.488   8.110  0.5914 -0.3686 -0.8653
  587TIP3    H223397   6.053   0.418   8.231 -1.1150  0.8921  0.7191
  588TIP3   OH223398   0.255   3.441   2.982  0.4927 -0.2947 -0.4334
  588TIP3    H123399   0.287   3.510   3.042  1.3655 -0.7601 -0.3447
  588TIP3    H223400   0.170   3.417   3.017 -0.0306  1.0394 -0.7126
  589TIP3   OH223401   4.542   0.503   7.593 -0.2980  0.2937 -0.1290
  589TIP3    H123402   4.562   0.413   7.566 -1.1320  0.7206 -2.4827
  589TIP3    H223403   4.564   0.556   7.516 -0.5906  2.0199  0.9183
  590TIP3   OH223404   5.885   1.776   1.830 -0.4083 -0.0754  0.3361
  590TIP3    H123405   5.835   1.850   1.864 -1.2466  0.6443 -2.1922
  590TIP3    H223406   5.818   1.710   1.809  0.1219 -0.7053  0.5870
  591TIP3   OH223407   5.548   0.314   7.854 -0.4040 -0.2675 -0.1680
  591TIP3    H123408   5.600   0.250   7.903  0.8329  1.3051  0.6679
  591TIP3    H223409   5.574   0.301   7.763  0.1609 -0.6389  0.0422
  592TIP3   OH223410   1.609   5.517   7.731  0.3041 -0.3140  0.1660
  592TIP3    H123411   1.648   5.593   7.688 -1.8860  0.2322 -1.0108
  592TIP3    H223412   1.595   5.545   7.821 -0.0618  0.5312 -0.1446
  593TIP3   OH223413   5.284   4.925   8.033  0.3727  0.1898  0.6100
  593TIP3    H123414   5.243   4.857   8.086  2.0418 -1.1900  0.2296
  593TIP3    H223415   5.214   4.958   7.977 -1.1880  0.9335  2.8769
  594TIP3   OH223416   1.610   0.528   1.975  0.7080  0.1189 -0.1716
  594TIP3    H123417   1.701   0.557   1.967  0.6535  0.0703 -1.0271
  594TIP3    H223418   1.568   0.599   2.025  1.1491  0.2714 -0.0058
  595TIP3   OH223419   6.475   3.091   2.986  0.4592  0.8196 -0.3628
  595TIP3    H123420   6.551   3.142   2.958  1.8040 -0.8966 -0.0182
  595TIP3    H223421   6.459   3.030   2.913  0.7583 -0.2433  0.4415
  596TIP3   OH223422   1.588   5.046   1.009 -0.0261  0.0068 -0.0275
  596TIP3    H123423   1.623   5.062   0.922  0.6425  1.0665  0.4251
  596TIP3    H223424   1.503   5.090   1.009 -1.3579 -2.3495 -1.0382
  597TIP3   OH223425   5.646   2.898   2.677  0.3671 -0.3338  0.5976
  597TIP3    H123426   5.580   2.854   2.731 -0.0527 -0.2669  0.1512
  597TIP3    H223427   5.675   2.973   2.730 -0.2347 -0.1153  0.6239
  598TIP3   OH223428   4.652   0.154   0.859 -0.4905  0.3750 -0.0678
  598TIP3    H123429   4.604   0.198   0.930  0.0957 -0.5494  0.9283
  598TIP3    H223430   4.646   0.061   0.880 -2.5084 -0.1963 -2.6268
  599TIP3   OH223431   2.739   4.905   0.747  0.0318  0.5326  0.4439
  599TIP3    H123432   2.664   4.862   0.788  0.5650 -1.4254 -0.4850
  599TIP3    H223433   2.785   4.947   0.819 -0.9130  0.1349  1.3112
  600TIP3   OH223434   5.666   0.319   2.145  0.5473 -0.2100 -0.3974
  600TIP3    H123435   5.655   0.357   2.058 -0.9337  0.9382  0.2485
  600TIP3    H223436   5.724   0.379   2.191 -0.0544  0.1228 -0.0613
  601TIP3   OH223437   5.339   3.969   6.950 -0.1372  0.1958 -0.1825
  601TIP3    H123438   5.329   3.940   7.041  0.2373  0.1315 -0.1637
  601TIP3    H223439   5.405   3.911   6.913  0.0260  0.5035 -0.3740
  602TIP3   OH223440   5.902   0.927   2.335 -0.1828  0.2024  0.1487
  602TIP3    H123441   5.975   0.928   2.397  0.7722 -1.7416 -0.8268
  602TIP3    H223442   5.828   0.963   2.384  1.4116  2.3066  1.1490
  603TIP3   OH223443   5.651   0.788   0.561 -0.5426 -0.1468  0.6099
  603TIP3    H123444   5.557   0.785   0.579 -0.7036 -0.5006 -0.2186
  603TIP3    H223445   5.664   0.871   0.514 -0.8753 -1.1544 -1.3930
  604TIP3   OH223446   5.345   3.650   2.575 -0.3923  0.3161 -0.6685
  604TIP3    H123447   5.254   3.633   2.552  0.0888 -2.3108 -1.0053
  604TIP3    H223448   5.394   3.629   2.495  0.6083  0.1841 -0.0333
  605TIP3   OH223449   0.455   0.906   1.977 -0.3343  0.3882 -0.4273
  605TIP3    H123450   0.538   0.861   1.962 -1.0129 -1.2271  0.3927
  605TIP3    H223451   0.399   0.879   1.904 -0.5520  0.3963 -0.2667
  606TIP3   OH223452   5.405   1.883   8.197 -0.0125  0.3562  0.5487
  606TIP3    H123453   5.401   1.976   8.177  2.5068  0.9557  2.3299
  606TIP3    H223454   5.379   1.840   8.115  0.8995  2.6017 -1.0216
  607TIP3   OH223455   3.641   6.946   2.110 -0.6412 -0.2349 -0.4187
  607TIP3    H123456   3.644   6.992   2.026 -2.2618 -0.3088 -0.5589
  607TIP3    H223457   3.576   6.876   2.096 -2.0041  0.6105  1.2741
  608TIP3   OH223458   3.476   1.014   2.295  0.3232  0.4862 -0.1100
  608TIP3    H123459   3.489   1.048   2.206  0.8771  0.5157 -0.0234
  608TIP3    H223460   3.564   1.015   2.333  0.1522  0.0650  0.2915
  609TIP3   OH223461   4.451   5.423   0.807 -0.0057 -0.2325 -0.4116
  609TIP3    H123462   4.386   5.355   0.824  0.3791 -0.1892  1.4933
  609TIP3    H223463   4.533   5.386   0.839  1.2014 -0.7011 -3.7134
  610TIP3   OH223464   6.225   4.302   7.688  0.5304  0.0832 -0.1451
  610TIP3    H123465   6.138   4.333   7.712  0.8999  1.8049 -0.8718
  610TIP3    H223466   6.210   4.215   7.650 -0.7551  0.0033  0.4895
  611TIP3   OH223467   3.752   5.130   8.165  0.2363  0.6864 -0.5114
  611TIP3    H123468   3.680   5.068   8.151  0.0797  0.4130  1.3346
  611TIP3    H223469   3.768   5.168   8.078 -1.3481 -0.0992 -1.1819
  612TIP3   OH223470   2.971   3.059   1.509  1.0181  0.3800  0.0625
  612TIP3    H123471   3.025   2.980   1.506  0.4446 -0.0316 -3.1854
  612TIP3    H223472   3.028   3.128   1.476  0.5987  0.6540 -0.0982
  613TIP3   OH223473   1.112   0.878   0.009  0.0165  0.0555 -0.2300
  613TIP3    H123474   1.027   0.844   0.038 -0.1740  1.8796  1.5876
  613TIP3    H223475   1.091   0.962  -0.031  0.8422 -0.1205 -1.0504
  614TIP3   OH223476   3.927   5.691   0.344  0.2776 -0.3578  0.1626
  614TIP3    H123477   3.855   5.638   0.377  0.0978 -0.0840  0.2192
  614TIP3    H223478   3.885   5.766   0.302  0.5133 -0.5326 -0.3969
  615TIP3   OH223479   5.113   0.893   6.809 -0.4827 -0.0974  0.0552
  615TIP3    H123480   5.195   0.867   6.769  0.5975  0.6788  1.6619
  615TIP3    H223481   5.068   0.945   6.742 -0.3084 -1.6131 -1.2991
  616TIP3   OH223482   6.894   1.302   0.491 -0.1095 -0.0419  0.2832
  616TIP3    H123483   6.811   1.295   0.444  0.1533 -1.2227 -0.0447
  616TIP3    H223484   6.891   1.231   0.556  0.7836 -0.3310  0.0240
  617TIP3   OH223485   0.837   4.456   8.142  0.0711  0.2658  0.3692
  617TIP3    H123486   0.886   4.510   8.204 -0.1116 -0.7138  1.3768
  617TIP3    H223487   0.900   4.438   8.072 -0.0902  2.4332 -0.4291
  618TIP3   OH223488   5.667   5.773   8.012 -0.0207 -0.0858 -0.4282
  618TIP3    H123489   5.655   5.679   7.996  1.5740 -0.4030  0.0669
  618TIP3    H223490   5.649   5.784   8.105  0.9896 -0.1500 -0.2071
  619TIP3   OH223491   2.456   4.844   2.232 -0.0505  0.3586  0.0426
  619TIP3    H123492   2.429   4.754   2.252 -0.3899  0.1444 -1.3003
  619TIP3    H223493   2.551   4.840   2.230 -0.0395  0.1863  0.6662
  620TIP3   OH223494   1.085   4.147   2.888 -0.0789 -0.1289 -0.1574
  620TIP3    H123495   1.142   4.223   2.880 -1.5960  1.0262 -0.2283
  620TIP3    H223496   1.144   4.072   2.876  1.4081  1.0187 -0.2533
  621TIP3   OH223497   1.925   3.269   7.278 -0.1439 -0.2171 -0.3705
  621TIP3    H123498   1.927   3.176   7.298  1.2913  0.1015  1.2781
  621TIP3    H223499   1.890   3.275   7.189  0.8030 -2.3930 -0.9347
  622TIP3   OH223500   2.270   5.068   0.372  0.6870  0.3973 -0.4377
  622TIP3    H123501   2.193   5.111   0.407 -0.9052 -1.0036 -2.0072
  622TIP3    H223502   2.320   5.041   0.449 -1.5405 -0.6303  0.7508
  623TIP3   OH223503   2.177   5.746   1.658  0.5001  0.0027 -0.4935
  623TIP3    H123504   2.150   5.694   1.581  0.5984 -0.0785 -0.4725
  623TIP3    H223505   2.247   5.803   1.625  0.0592  0.4722 -0.6365
  624TIP3   OH223506   0.659   4.944   8.069 -0.4558 -0.1667  0.3956
  624TIP3    H123507   0.674   4.990   7.986  0.9662 -0.9340  0.1892
  624TIP3    H223508   0.713   4.992   8.132 -0.5132 -0.3734  0.6006
  625TIP3   OH223509   0.636   6.132   7.832 -0.3306 -0.6579  0.0473
  625TIP3    H123510   0.566   6.071   7.809 -0.6147 -0.4255  0.2826
  625TIP3    H223511   0.714   6.099   7.786 -0.8691 -0.2078 -1.2539
  626TIP3   OH223512   4.374   0.787   8.159  0.0747 -0.5582  0.3348
  626TIP3    H123513   4.301   0.827   8.112  0.8994  0.2112 -0.3049
  626TIP3    H223514   4.390   0.846   8.233  1.6533  0.6556 -0.9185
  627TIP3   OH223515   6.754   2.015   1.622 -0.1171 -0.3804  0.2346
  627TIP3    H123516   6.747   1.924   1.651 -2.3644 -0.0402  0.9389
  627TIP3    H223517   6.813   2.011   1.546  0.7830 -2.2206  0.9441
  628TIP3   OH223518   3.296   5.827   7.661  0.3107  0.0180 -0.8063
  628TIP3    H123519   3.268   5.899   7.605 -0.3212 -0.4589 -1.1173
  628TIP3    H223520   3.214   5.789   7.693  0.6566  0.0279  0.1130
  629TIP3   OH223521   3.134   1.828   7.017  0.1339  0.4252  0.7664
  629TIP3    H123522   3.137   1.782   6.933  3.0087  0.7939  0.5803
  629TIP3    H223523   3.130   1.921   6.994 -0.0791  0.4983  1.0854
  630TIP3   OH223524   6.468   5.677   7.248  0.1274  0.1942 -0.6134
  630TIP3    H123525   6.486   5.742   7.180 -1.8546  0.3498 -1.0485
  630TIP3    H223526   6.376   5.691   7.271 -0.4756 -2.6638 -0.9331
  631TIP3   OH223527   1.100   2.955   7.626 -0.5762 -0.0683  0.2216
  631TIP3    H123528   1.146   3.037   7.608  0.2808 -0.4707  0.5445
  631TIP3    H223529   1.169   2.891   7.642 -1.2438 -0.7495  0.4627
  632TIP3   OH223530   5.621   2.928   3.295 -0.3200  0.3473  0.1939
  632TIP3    H123531   5.580   2.898   3.214  0.2157  0.8766 -0.2843
  632TIP3    H223532   5.552   2.977   3.340 -0.1246  1.5678 -0.7907
  633TIP3   OH223533   1.213   3.883   0.941 -0.1427 -0.3395 -0.1340
  633TIP3    H123534   1.151   3.939   0.895 -0.7355 -0.7965  0.0971
  633TIP3    H223535   1.158   3.821   0.990  0.5004 -1.2563 -0.5514
  634TIP3   OH223536   2.121   0.079   0.333 -0.1635  0.1712  0.4040
  634TIP3    H123537   2.145  -0.012   0.346  0.2551  0.4139  1.5178
  634TIP3    H223538   2.195   0.118   0.286 -0.1954  0.0120  0.2234
  635TIP3   OH223539   4.364   5.102   7.750  0.3868  0.2871  0.1044
  635TIP3    H123540   4.378   5.149   7.668 -0.2913  0.2017 -0.0620
  635TIP3    H223541   4.274   5.120   7.774 -0.2094 -1.6512 -0.4506
  636TIP3   OH223542   1.731   5.054   0.382 -0.1875 -0.0650  0.6985
  636TIP3    H123543   1.758   5.092   0.298 -0.3703  0.8452  1.0507
  636TIP3    H223544   1.649   5.009   0.362 -0.1055 -0.0633  0.3414
  637TIP3   OH223545   5.681   2.129   6.974  0.3638  0.1282 -0.2017
  637TIP3    H123546   5.651   2.210   7.015  0.9138 -0.7299  2.0883
  637TIP3    H223547   5.776   2.141   6.963  0.5277 -0.3190  0.5722
  638TIP3   OH223548   0.494   6.887   6.995  0.2696 -0.5024  0.2455
  638TIP3    H123549   0.450   6.833   7.060  2.2057 -0.8041  1.3802
  638TIP3    H223550   0.533   6.824   6.934 -1.8409 -0.2266 -1.5510
  639TIP3   OH223551   4.650   2.573   8.317  0.0176 -0.5164 -0.9856
  639TIP3    H123552   4.617   2.643   8.373  0.1489 -1.1095 -0.1470
  639TIP3    H223553   4.577   2.552   8.258 -0.6024 -0.8131 -0.1281
  640TIP3   OH223554   6.004   5.330   2.390 -0.3688 -0.1681 -0.5129
  640TIP3    H123555   5.954   5.281   2.325 -0.3845  1.1520 -1.5328
  640TIP3    H223556   6.081   5.276   2.407 -2.7808 -3.1546  2.4053
  641TIP3   OH223557   0.965   5.936   8.087  0.1344 -0.0335  0.1526
  641TIP3    H123558   1.052   5.967   8.061 -0.1277 -0.3472 -1.1951
  641TIP3    H223559   0.936   5.999   8.153 -0.1734  2.4217 -2.1234
  642TIP3   OH223560   0.214   2.327   7.927  0.2890  0.2210  0.3069
  642TIP3    H123561   0.175   2.291   8.007 -1.0003 -0.3061 -0.5181
  642TIP3    H223562   0.254   2.251   7.884  2.2639  0.7481  1.1142
  643TIP3   OH223563   5.477   2.829   0.818  0.2233  0.2955  0.3620
  643TIP3    H123564   5.560   2.872   0.798  0.7645 -0.3867  1.0710
  643TIP3    H223565   5.502   2.747   0.860 -0.8091  0.8084  2.0749
  644TIP3   OH223566   0.469   1.940   2.437 -0.3422  0.3595  0.5900
  644TIP3    H123567   0.445   1.851   2.411  0.9980 -0.0265  0.5902
  644TIP3    H223568   0.529   1.928   2.510  0.2054  1.2454  0.3042
  645TIP3   OH223569   0.499   3.351   2.857  0.1388  0.5260 -0.3721
  645TIP3    H123570   0.547   3.395   2.928  0.6753  2.1219 -1.6707
  645TIP3    H223571   0.407   3.375   2.872 -0.0193 -0.6897  0.8204
  646TIP3   OH223572   5.405   0.581   7.780 -0.5017 -0.3253  0.1257
  646TIP3    H123573   5.406   0.543   7.867 -1.2040 -1.1582 -0.2066
  646TIP3    H223574   5.489   0.556   7.742 -0.8633 -1.4066 -0.0090
  647TIP3   OH223575   0.810   3.412   7.711  0.5626 -0.3965 -0.2118
  647TIP3    H123576   0.844   3.322   7.712 -1.7928 -1.3534  0.5501
  647TIP3    H223577   0.840   3.449   7.794  1.5790 -0.4242 -0.5446
  648TIP3   OH223578   3.221   4.513   0.399  0.2698  0.4843  0.4032
  648TIP3    H123579   3.181   4.430   0.375  2.1497 -0.4492  0.2695
  648TIP3    H223580   3.213   4.518   0.494 -0.7837  0.6806  0.3113
  649TIP3   OH223581   2.306   2.281   0.819  0.7902 -0.2349  0.2010
  649TIP3    H123582   2.260   2.204   0.787  0.1647 -0.6909  2.0725
  649TIP3    H223583   2.343   2.321   0.741 -0.5337 -1.3430 -1.0466
  650TIP3   OH223584   4.859   5.593   7.893  0.3929  0.6441  0.3725
  650TIP3    H123585   4.940   5.570   7.938  0.1168 -0.3521  0.3893
  650TIP3    H223586   4.810   5.644   7.957  0.8157  0.8781  0.5162
  651TIP3   OH223587   3.340   1.408   1.031  0.0393  0.3290  0.4870
  651TIP3    H123588   3.343   1.316   1.056 -0.3606  0.4663  1.0640
  651TIP3    H223589   3.398   1.414   0.955 -1.9062 -0.9071 -1.2155
  652TIP3   OH223590   2.151   0.403   3.101  0.1402  0.1347  0.1121
  652TIP3    H123591   2.226   0.351   3.071 -0.6117 -2.0261  1.7251
  652TIP3    H223592   2.186   0.492   3.111  2.0340 -0.4622 -0.7880
  653TIP3   OH223593   6.761   0.726   8.002 -0.6886 -0.5218  0.8510
  653TIP3    H123594   6.709   0.651   8.031 -0.0742 -0.4856  2.1097
  653TIP3    H223595   6.726   0.800   8.050 -0.8010 -0.1252  0.1740
  654TIP3   OH223596   1.740   6.256   2.038 -0.1103  0.5602 -0.1135
  654TIP3    H123597   1.658   6.302   2.054  0.6014  1.5914  0.6698
  654TIP3    H223598   1.724   6.207   1.957 -1.8780 -0.2190  0.6443
  655TIP3   OH223599   3.953   6.248   1.367 -0.2895  0.0850  0.1153
  655TIP3    H123600   3.963   6.342   1.385  0.8774 -0.4743  2.9263
  655TIP3    H223601   3.878   6.243   1.308 -0.5959  2.7690  0.1523
  656TIP3   OH223602   1.096   3.307   2.995 -0.2401 -0.1013 -0.4344
  656TIP3    H123603   1.132   3.219   3.006  1.1528  0.5089  0.0966
  656TIP3    H223604   1.094   3.320   2.900  2.2733  0.3292 -0.4871
  657TIP3   OH223605   2.152   2.876   8.212  0.8954  0.2597 -0.4488
  657TIP3    H123606   2.183   2.966   8.197 -0.2742  1.0542  1.4277
  657TIP3    H223607   2.230   2.827   8.234  1.4886  0.9482 -0.9537
  658TIP3   OH223608   5.401   3.501   2.303  0.2852  0.8605 -0.1871
  658TIP3    H123609   5.449   3.459   2.231  0.9358  2.8739 -1.0045
  658TIP3    H223610   5.309   3.491   2.280  0.3948 -0.4725 -0.1202
  659TIP3   OH223611   0.043   4.765   2.015  1.1407  0.0306  0.5250
  659TIP3    H123612  -0.032   4.784   2.071  0.3598  0.4138 -0.6041
  659TIP3    H223613   0.094   4.846   2.015  0.9275  0.1684  0.3818
  660TIP3   OH223614   0.111   0.710   7.499 -0.6795 -0.2335 -0.1261
  660TIP3    H123615   0.157   0.627   7.506 -3.0279 -1.7163 -0.8344
  660TIP3    H223616   0.136   0.744   7.413 -0.4034 -0.6707 -0.2212
  661TIP3   OH223617   1.297   2.003   1.622 -0.1070 -0.0307 -0.2136
  661TIP3    H123618   1.257   2.090   1.621  0.8864  0.4671  0.9154
  661TIP3    H223619   1.239   1.951   1.677  0.0714  0.3281  0.3238
  662TIP3   OH223620   1.660   3.471   0.508  0.3465  0.0086 -0.1482
  662TIP3    H123621   1.709   3.547   0.537 -0.3490 -0.8018  3.6486
  662TIP3    H223622   1.569   3.492   0.529  0.2812 -2.2785  2.3291
  663TIP3   OH223623   6.083   3.044   3.488 -0.1303 -0.1589  0.0343
  663TIP3    H123624   6.024   3.001   3.426 -0.0494 -1.0761  0.5746
  663TIP3    H223625   6.090   3.134   3.456 -0.4398 -0.4979 -1.0277
  664TIP3   OH223626   3.134   4.664   0.158  0.2947 -0.6472 -0.2359
  664TIP3    H123627   3.196   4.705   0.218  0.8478 -0.6988 -0.7681
  664TIP3    H223628   3.163   4.574   0.151 -1.6578 -1.5475  1.9314
  665TIP3   OH223629   6.088   0.237   7.309  0.2893 -0.2134  0.1935
  665TIP3    H123630   6.177   0.208   7.290 -0.0594  0.1614 -2.3879
  665TIP3    H223631   6.087   0.330   7.284 -0.7445 -0.1363  0.4766
  666TIP3   OH223632   6.548   3.942   7.760 -0.5292 -0.0079  0.1802
  666TIP3    H123633   6.589   4.009   7.705  2.4034 -1.7225  0.0809
  666TIP3    H223634   6.548   3.979   7.848  1.9329 -0.1351  0.2976
  667TIP3   OH223635   0.677   1.464   0.887  0.1590  0.4656  0.5192
  667TIP3    H123636   0.605   1.491   0.944  0.2104  0.8351  0.4151
  667TIP3    H223637   0.659   1.372   0.867 -0.6094  0.7189  0.0071
  668TIP3   OH223638   6.743   0.858   1.790  0.1925  0.2681 -0.1548
  668TIP3    H123639   6.810   0.790   1.791 -1.0446 -0.9900 -0.7248
  668TIP3    H223640   6.688   0.838   1.714 -0.6570  1.4447  0.1188
  669TIP3   OH223641   3.320   2.537   8.252  0.7006  0.5335  0.1727
  669TIP3    H123642   3.397   2.486   8.228 -1.3806 -1.8463 -1.9254
  669TIP3    H223643   3.256   2.473   8.282 -0.6765  2.3855  1.4757
  670TIP3   OH223644   6.714   5.926   0.092 -0.3187  0.3596  0.0402
  670TIP3    H123645   6.702   5.840   0.052 -1.2931  0.7528 -0.5278
  670TIP3    H223646   6.631   5.945   0.135  0.7423 -0.1094  2.4257
  671TIP3   OH223647   1.471   4.574   2.094 -0.0733 -0.0431 -0.4947
  671TIP3    H123648   1.523   4.520   2.154 -1.7351 -1.8143 -0.5516
  671TIP3    H223649   1.421   4.633   2.151  0.4968  0.2946 -0.3348
  672TIP3   OH223650   1.586   4.668   7.311  0.0271  0.1214  0.1864
  672TIP3    H123651   1.551   4.758   7.312  0.7278  0.3951  0.6931
  672TIP3    H223652   1.666   4.674   7.259  0.5761 -0.0189  1.0129
  673TIP3   OH223653   5.274   2.732   2.580 -0.0909  0.1369 -0.1526
  673TIP3    H123654   5.221   2.777   2.647  0.4606 -0.1855  0.5057
  673TIP3    H223655   5.286   2.798   2.512  0.7883  1.0517  0.8434
  674TIP3   OH223656   2.091   6.999   7.929  0.0061 -0.0526 -0.2016
  674TIP3    H123657   2.079   6.904   7.935 -1.1431  0.0701 -0.4503
  674TIP3    H223658   2.102   7.027   8.019  1.1988 -0.5048 -0.1748
  675TIP3   OH223659   5.341   3.136   0.275 -0.0209  0.1680  0.1944
  675TIP3    H123660   5.322   3.065   0.213 -0.6188 -0.4202  1.0382
  675TIP3    H223661   5.263   3.142   0.329 -0.1834  1.8384 -0.1825
  676TIP3   OH223662   0.768   1.366   7.429  0.3330 -0.5208 -0.4767
  676TIP3    H123663   0.813   1.320   7.358 -0.2833 -1.1777 -0.4490
  676TIP3    H223664   0.801   1.456   7.423  2.2684 -1.1363  0.0631
  677TIP3   OH223665   2.545   2.430   1.187  0.5324  0.4258 -0.0817
  677TIP3    H123666   2.473   2.493   1.180 -0.5190 -0.2577  2.9436
  677TIP3    H223667   2.516   2.354   1.137  0.3015  1.0728 -0.9538
  678TIP3   OH223668   0.960   4.834   7.317 -0.2693 -0.2929 -0.0868
  678TIP3    H123669   0.882   4.780   7.309  0.0645 -1.1064  1.7025
  678TIP3    H223670   1.024   4.793   7.260 -0.9429  0.0446 -1.1152
  679TIP3   OH223671   6.032   0.520   2.323 -0.4977 -0.4652 -0.0462
  679TIP3    H123672   6.124   0.501   2.337 -0.4580  0.8196  1.7812
  679TIP3    H223673   6.030   0.577   2.246  0.3733  0.5072  0.6346
  680TIP3   OH223674   0.339   5.363   0.823 -0.1395  0.4271 -0.2214
  680TIP3    H123675   0.367   5.455   0.824 -1.6677  0.9181  0.6676
  680TIP3    H223676   0.245   5.367   0.809  0.0478 -1.1382 -2.4181
  681TIP3   OH223677   0.118   4.645   8.009 -0.0196 -0.2490  0.5506
  681TIP3    H123678   0.191   4.673   8.063 -0.0919 -0.9794  1.0402
  681TIP3    H223679   0.077   4.727   7.980 -0.2586  0.1561  1.9763
  682TIP3   OH223680   3.904   6.801   2.309 -0.3965  0.0524 -0.0156
  682TIP3    H123681   3.884   6.737   2.240  0.3510  0.5088 -0.6782
  682TIP3    H223682   3.952   6.750   2.375  0.1048 -0.1074 -0.4895
  683TIP3   OH223683   0.848   4.919   0.883 -0.4166 -0.6431 -0.2836
  683TIP3    H123684   0.859   5.004   0.841  1.6936 -0.6803  0.0885
  683TIP3    H223685   0.777   4.933   0.946  1.7843  1.7495  1.9007
  684TIP3   OH223686   2.141   2.953   2.808  0.8976  1.1672  0.3989
  684TIP3    H123687   2.125   3.047   2.807  2.6812  1.7368  4.5600
  684TIP3    H223688   2.232   2.944   2.780  0.8322  0.6962  0.3234
  685TIP3   OH223689   0.191   6.148   1.285 -0.5206 -0.0508 -0.0235
  685TIP3    H123690   0.266   6.195   1.323  0.8031 -1.9489 -0.1578
  685TIP3    H223691   0.184   6.182   1.196 -0.2267  0.5919  0.1906
  686TIP3   OH223692   2.602   0.975   6.934 -0.1294  0.8168  0.4016
  686TIP3    H123693   2.589   1.067   6.958  2.4673  1.5764 -0.7421
  686TIP3    H223694   2.649   0.937   7.009  1.6500  1.3289 -0.3971
  687TIP3   OH223695   2.969   1.053   3.048 -0.3145 -0.0065  0.3415
  687TIP3    H123696   3.041   1.116   3.040 -0.4701  0.2213  0.6988
  687TIP3    H223697   2.997   0.978   2.995  0.1214  0.1369  0.3595
  688TIP3   OH223698   0.050   3.615   8.373 -0.1858 -0.1806 -0.1011
  688TIP3    H123699   0.014   3.529   8.352 -0.6889  0.2704 -1.2197
  688TIP3    H223700   0.002   3.675   8.315  1.0427  0.6899 -0.2494
  689TIP3   OH223701   4.438   3.903   1.844  0.1478 -0.1738 -0.8019
  689TIP3    H123702   4.384   3.977   1.817 -0.1367 -0.2047 -0.3354
  689TIP3    H223703   4.505   3.895   1.775 -1.6924 -1.4856 -2.5509
  690TIP3   OH223704   6.779   5.083   7.631  0.0758 -0.1667 -0.0967
  690TIP3    H123705   6.749   5.173   7.641 -1.6065 -0.6437 -0.5236
  690TIP3    H223706   6.871   5.091   7.606  0.3695  1.3763  1.2652
  691TIP3   OH223707   2.473   5.252   0.386 -0.5180 -0.2564  0.6731
  691TIP3    H123708   2.421   5.239   0.466  1.6700 -2.4847  1.8693
  691TIP3    H223709   2.563   5.262   0.417  0.3646 -0.8551 -1.4993
  692TIP3   OH223710   1.321   0.663   1.776  0.2503  0.2016  0.5182
  692TIP3    H123711   1.412   0.631   1.771  0.4337  0.6590  0.8788
  692TIP3    H223712   1.302   0.667   1.869  0.2368  1.1512  0.4877
  693TIP3   OH223713   0.399   2.954   7.862  0.0842  0.0329 -0.4346
  693TIP3    H123714   0.453   2.952   7.941 -1.1076  0.8687  0.4207
  693TIP3    H223715   0.374   2.862   7.848 -0.2989 -0.0294  0.5871
  694TIP3   OH223716   2.314   1.591   2.367  0.7601  0.0379  0.4393
  694TIP3    H123717   2.342   1.642   2.443  0.2076 -0.6637  1.1319
  694TIP3    H223718   2.292   1.505   2.403  0.2678 -0.2346 -0.4867
  695TIP3   OH223719   5.511   1.329   8.055 -0.0174  0.5083 -0.4782
  695TIP3    H123720   5.547   1.299   7.971  0.1064 -0.6270 -0.0255
  695TIP3    H223721   5.422   1.296   8.056  0.2226 -0.1389  0.1654
  696TIP3   OH223722   1.007   4.006   2.058  0.5333 -0.6958  0.4690
  696TIP3    H123723   1.099   3.992   2.080  0.6115  0.0776  0.6862
  696TIP3    H223724   0.958   3.970   2.132  0.6858 -0.6527  0.5906
  697TIP3   OH223725   3.357   1.570   0.461 -0.0438  0.2831  0.9940
  697TIP3    H123726   3.323   1.539   0.545 -0.9891 -0.9598  0.1930
  697TIP3    H223727   3.416   1.501   0.432  0.4598  0.8140  0.7202
  698TIP3   OH223728   2.321   0.500   7.615  0.9666 -0.4133  0.0970
  698TIP3    H123729   2.311   0.568   7.681 -0.8737  0.3031 -0.8579
  698TIP3    H223730   2.256   0.433   7.638 -0.4354  0.3150 -1.4799
  699TIP3   OH223731   6.983   4.012   1.063 -0.0602 -0.1344 -0.1148
  699TIP3    H123732   7.031   4.058   0.993 -3.4148  1.2716 -1.7204
  699TIP3    H223733   6.976   3.922   1.032  0.4905 -0.0694 -0.4449
  700TIP3   OH223734   6.079   3.416   7.573 -0.3721 -0.3385 -0.4016
  700TIP3    H123735   6.032   3.432   7.654  2.6661 -2.1796  1.9441
  700TIP3    H223736   6.075   3.321   7.561 -0.6749 -0.1121 -2.4008
  701TIP3   OH223737   4.247   3.452   2.981 -0.1853  0.3592 -1.0583
  701TIP3    H123738   4.338   3.432   3.002 -0.3268 -0.6703 -1.3777
  701TIP3    H223739   4.206   3.468   3.066 -0.1976 -1.3708 -0.7042
  702TIP3   OH223740   3.617   6.925   0.607  0.6722  0.6026  0.1956
  702TIP3    H123741   3.683   6.885   0.662 -0.4298 -2.0034 -0.2286
  702TIP3    H223742   3.665   6.958   0.531  1.5671 -0.6725  0.1867
  703TIP3   OH223743   1.473   3.848   0.410 -0.1445 -0.5687  0.5956
  703TIP3    H123744   1.551   3.807   0.446  0.6746  1.3081  1.0847
  703TIP3    H223745   1.496   3.867   0.319 -0.8212 -1.8740  0.1275
  704TIP3   OH223746   2.247   0.948   7.730 -0.6333  0.1512 -0.2609
  704TIP3    H123747   2.249   1.015   7.662 -0.4361 -1.3761 -1.8466
  704TIP3    H223748   2.173   0.892   7.706  1.3325 -2.2590 -1.1565
  705TIP3   OH223749   6.187   2.928   8.051  0.3136 -0.8200 -0.6863
  705TIP3    H123750   6.176   2.874   8.129  1.6298  0.9371  0.7966
  705TIP3    H223751   6.102   2.926   8.008 -1.0599 -0.2864  1.8313
  706TIP3   OH223752   5.737   6.430   1.325 -0.2003 -0.8017 -0.0546
  706TIP3    H123753   5.711   6.351   1.278 -0.1436  0.0234 -1.5201
  706TIP3    H223754   5.817   6.459   1.281  0.5434 -0.6511  1.3294
  707TIP3   OH223755   1.525   1.964   1.321 -0.1659  0.3395  0.5450
  707TIP3    H123756   1.572   1.906   1.380  0.7865 -0.6703 -1.1520
  707TIP3    H223757   1.440   1.922   1.308  0.2732 -0.3470 -0.1560
  708TIP3   OH223758   1.114   6.702   0.914  0.3172  0.5019 -0.2430
  708TIP3    H123759   1.204   6.693   0.947 -0.2373 -1.0782  0.9061
  708TIP3    H223760   1.068   6.750   0.982 -0.2374 -0.6496  0.2136
  709TIP3   OH223761   4.885   4.313   7.452  0.7201  0.8831  0.2008
  709TIP3    H123762   4.943   4.382   7.421  1.4778  0.1216 -0.1254
  709TIP3    H223763   4.854   4.270   7.372  0.9681  0.2889  0.4138
  710TIP3   OH223764   3.519   6.235   0.129 -0.3651 -0.0844  0.1051
  710TIP3    H123765   3.434   6.276   0.116 -0.4616 -0.1888  0.4021
  710TIP3    H223766   3.550   6.215   0.041 -0.8551 -0.4741  0.0172
  711TIP3   OH223767   5.259   4.858   0.026  0.5478  0.3141  0.6796
  711TIP3    H123768   5.185   4.863  -0.033  1.5080 -0.5527 -0.6476
  711TIP3    H223769   5.278   4.949   0.049  0.0865  0.6516 -0.2475
  712TIP3   OH223770   5.208   4.423   0.892 -0.1422  0.2098  0.1508
  712TIP3    H123771   5.257   4.353   0.935 -1.2169  0.3601  1.7210
  712TIP3    H223772   5.118   4.410   0.921 -0.7995  0.7809 -1.5230
  713TIP3   OH223773   4.944   0.087   1.945  0.4192 -1.2469  0.5287
  713TIP3    H123774   4.959   0.136   1.863  2.5274  1.5840  2.4087
  713TIP3    H223775   5.017   0.025   1.949 -0.4099 -2.3049 -0.2972
  714TIP3   OH223776   4.868   1.816   2.496  0.4838 -0.2227 -0.3471
  714TIP3    H123777   4.784   1.822   2.450  0.0775 -2.1299  0.0767
  714TIP3    H223778   4.849   1.848   2.584  1.1036  2.7638 -1.1596
  715TIP3   OH223779   1.047   1.415   2.203  0.3373  0.2748 -0.1232
  715TIP3    H123780   1.005   1.342   2.248 -0.6794  0.7685 -0.2407
  715TIP3    H223781   1.085   1.377   2.124 -1.5819  0.1379 -1.0079
  716TIP3   OH223782   6.664   2.474   1.568  0.0314  0.1403 -0.5404
  716TIP3    H123783   6.656   2.403   1.503 -0.7830  1.8893 -2.4702
  716TIP3    H223784   6.706   2.545   1.520  2.0580  0.5856  1.7116
  717TIP3   OH223785   0.992   5.344   8.150 -0.4820  0.2683 -0.1435
  717TIP3    H123786   0.963   5.376   8.235 -1.3538  0.6121 -0.5572
  717TIP3    H223787   0.943   5.397   8.086  1.0833  0.9094 -0.8784
  718TIP3   OH223788   1.002   1.733   1.174  0.0393  0.6081 -0.4222
  718TIP3    H123789   1.082   1.711   1.127  0.7921 -0.5686  1.3191
  718TIP3    H223790   0.936   1.673   1.139  0.3701  0.3507 -0.6040
  719TIP3   OH223791   5.019   0.846   0.706 -0.4047  0.0284 -0.1555
  719TIP3    H123792   4.944   0.902   0.689 -1.1272 -0.5423  1.0359
  719TIP3    H223793   5.020   0.784   0.632 -0.7719  0.3808 -0.4563
  720TIP3   OH223794   2.782   1.399   1.816  1.1528 -0.1557 -0.3905
  720TIP3    H123795   2.720   1.374   1.748  0.2190 -1.0779  0.7412
  720TIP3    H223796   2.800   1.492   1.801  0.7600 -0.2808 -1.7062
  721TIP3   OH223797   1.285   4.533   0.337  0.1919  0.1020  0.0982
  721TIP3    H123798   1.284   4.581   0.420 -3.6909  1.2556 -0.4140
  721TIP3    H223799   1.358   4.571   0.288  1.9241  0.1086  2.5070
  722TIP3   OH223800   6.089   3.865   0.677 -0.4874 -0.6765 -0.3160
  722TIP3    H123801   6.144   3.816   0.739 -1.9645 -0.1263  1.5130
  722TIP3    H223802   6.034   3.798   0.636 -1.1813 -0.8221  0.7898
  723TIP3   OH223803   4.396   0.894   2.807 -0.0875  0.1733 -0.3368
  723TIP3    H123804   4.458   0.965   2.793 -1.6706  1.8226  0.5565
  723TIP3    H223805   4.450   0.820   2.835  1.4577  1.6364  0.7337
  724TIP3   OH223806   3.404   4.692   2.770 -0.8875 -0.1850 -0.1737
  724TIP3    H123807   3.484   4.700   2.822 -1.2356 -0.0046  0.3413
  724TIP3    H223808   3.422   4.621   2.708 -0.5431 -0.5333  0.3240
  725TIP3   OH223809   5.343   5.929   0.674 -0.7665 -0.1017  0.2504
  725TIP3    H123810   5.349   5.950   0.767 -0.2844 -0.7757  0.3716
  725TIP3    H223811   5.387   5.845   0.664  1.9206  1.3434 -1.0873
  726TIP3   OH223812   5.406   4.053   1.250  0.5633 -0.0657  0.4313
  726TIP3    H123813   5.409   4.066   1.344 -2.0803 -1.7840  0.8612
  726TIP3    H223814   5.426   3.961   1.237 -0.5699 -0.2113 -0.4946
  727TIP3   OH223815   2.897   6.981   7.274 -0.1205  0.2453 -0.4233
  727TIP3    H123816   2.897   6.923   7.351 -0.5274 -0.6131 -1.0542
  727TIP3    H223817   2.989   6.992   7.252 -0.0899 -1.2695 -1.1074
  728TIP3   OH223818   4.604   3.517   0.000  0.4286 -1.2614  0.0900
  728TIP3    H123819   4.606   3.587   0.066  2.3729 -0.9413 -0.2553
  728TIP3    H223820   4.572   3.560  -0.079  1.1196 -0.8704  0.0157
  729TIP3   OH223821   2.092   0.411   7.739 -0.0440 -0.3281  0.2119
  729TIP3    H123822   2.080   0.343   7.806 -0.7941  0.6725  1.1244
  729TIP3    H223823   2.061   0.491   7.781  1.1288  0.6426 -0.7393
  730TIP3   OH223824   2.165   0.709   0.403 -0.2304  0.2126 -0.2841
  730TIP3    H123825   2.077   0.699   0.368 -0.8679 -1.0823  1.5180
  730TIP3    H223826   2.194   0.795   0.372 -2.4067  0.9855 -0.3393
  731TIP3   OH223827   6.327   2.532   7.037 -0.3891 -0.1321  0.1281
  731TIP3    H123828   6.372   2.564   6.959 -0.4491  0.1099  0.1902
  731TIP3    H223829   6.391   2.477   7.082  0.0330  0.6334  0.4932
  732TIP3   OH223830   2.942   2.179   8.322  0.2404  0.3448  0.3495
  732TIP3    H123831   2.978   2.101   8.280  0.1843  1.2595 -1.4873
  732TIP3    H223832   2.859   2.150   8.360  0.4664 -0.6049  0.1551
  733TIP3   OH223833   6.112   5.639   8.033  0.0344  0.3906  0.2783
  733TIP3    H123834   6.182   5.618   8.095  0.0400 -0.9560 -0.1473
  733TIP3    H223835   6.076   5.722   8.065  1.9203  1.2163  0.3861
  734TIP3   OH223836   2.377   3.232   1.450  0.8637  0.1707  0.4201
  734TIP3    H123837   2.386   3.137   1.445 -3.8962 -0.4787 -2.4147
  734TIP3    H223838   2.409   3.264   1.365 -0.5468  0.5985  0.0211
  735TIP3   OH223839   0.854   1.083   0.935  0.3245 -0.8377 -0.3445
  735TIP3    H123840   0.934   1.131   0.957 -0.9338  0.5944  1.4708
  735TIP3    H223841   0.808   1.140   0.874  0.2936 -1.2604 -0.7180
  736TIP3   OH223842   4.008   1.730   1.752 -0.3394 -0.7025  0.2943
  736TIP3    H123843   3.981   1.724   1.844  0.9446 -3.1189  0.5805
  736TIP3    H223844   3.927   1.719   1.703 -0.6355 -2.8165  1.1582
  737TIP3   OH223845   0.239   3.669   0.862  0.3919  0.2075 -0.6468
  737TIP3    H123846   0.308   3.603   0.860  0.0096 -0.3038  1.3586
  737TIP3    H223847   0.282   3.747   0.897  0.0155 -0.0798  0.4981
  738TIP3   OH223848   0.381   0.501   7.172 -0.0574  0.0114  0.2269
  738TIP3    H123849   0.420   0.588   7.164  2.6732 -1.1975 -0.5337
  738TIP3    H223850   0.286   0.518   7.171  0.3492  2.8593 -1.0769
  739TIP3   OH223851   1.212   0.224   0.905 -0.4876  0.2437 -0.0473
  739TIP3    H123852   1.228   0.134   0.879  1.1211  0.2357  0.8292
  739TIP3    H223853   1.294   0.252   0.946 -1.8838  1.1394  2.3525
  740TIP3   OH223854   3.826   4.694   0.637 -0.3365  0.1969  0.0057
  740TIP3    H123855   3.888   4.641   0.688  0.0212 -0.4555 -1.0694
  740TIP3    H223856   3.748   4.639   0.631 -0.4030  0.3038 -0.0962
  741TIP3   OH223857   0.658   1.056   8.357 -0.2949  0.2519  0.7718
  741TIP3    H123858   0.669   1.150   8.340 -0.6865 -0.0174 -1.2062
  741TIP3    H223859   0.707   1.041   8.438  1.0259  1.8835  0.3463
  742TIP3   OH223860   5.663   0.568   7.673 -0.5921  0.2178 -0.1045
  742TIP3    H123861   5.722   0.511   7.625 -0.8720  0.0068 -0.2053
  742TIP3    H223862   5.696   0.567   7.763 -1.1917 -0.9363  0.1222
  743TIP3   OH223863   6.162   0.907   2.461  0.1062 -0.5454 -0.4474
  743TIP3    H123864   6.168   1.002   2.451 -2.0577 -0.5029 -1.8600
  743TIP3    H223865   6.253   0.877   2.454  0.9274  1.4471  0.8712
  744TIP3   OH223866   1.819   4.725   7.501 -0.3100 -0.6896  0.0115
  744TIP3    H123867   1.857   4.686   7.422 -1.7179  0.3492 -1.2242
  744TIP3    H223868   1.743   4.775   7.470  1.8409  3.9243  1.2818
  745TIP3   OH223869   3.218   3.582   7.116  0.4795  0.0573 -0.0697
  745TIP3    H123870   3.133   3.541   7.136 -0.2129  0.2500 -2.3490
  745TIP3    H223871   3.282   3.513   7.130  0.5279  0.7499  5.0041
  746TIP3   OH223872   2.665   1.988   0.808  0.7142 -0.1055  0.1284
  746TIP3    H123873   2.666   2.073   0.850 -1.9684 -0.1455  0.4622
  746TIP3    H223874   2.654   1.925   0.879 -0.7574 -0.4208 -0.3434
  747TIP3   OH223875   2.461   1.027   3.099 -0.2546  0.6918 -0.0496
  747TIP3    H123876   2.493   0.965   3.164 -0.9466  0.2889 -0.0784
  747TIP3    H223877   2.397   0.977   3.048  0.0056  1.1087 -0.8030
  748TIP3   OH223878   3.873   4.677   1.623 -0.4294 -0.8255  0.1260
  748TIP3    H123879   3.964   4.648   1.611  0.4166  1.7215 -0.1836
  748TIP3    H223880   3.829   4.601   1.661  2.2888 -1.5529  2.1624
  749TIP3   OH223881   0.387   3.140   7.317  0.0498 -0.0197  0.4109
  749TIP3    H123882   0.380   3.056   7.362  0.5262  0.6749  1.8457
  749TIP3    H223883   0.297   3.173   7.314 -0.4046 -1.2942 -1.6708
  750TIP3   OH223884   4.763   6.136   1.187 -0.0547 -0.3855 -0.5495
  750TIP3    H123885   4.842   6.122   1.135  0.0422  0.7181 -0.7342
  750TIP3    H223886   4.760   6.063   1.248  2.7406  1.0029  1.4686
  751TIP3   OH223887   2.344   5.068   2.392 -0.4493 -0.4419 -0.0477
  751TIP3    H123888   2.267   5.045   2.342 -1.2575 -0.0646  0.9822
  751TIP3    H223889   2.397   4.989   2.393 -0.5386 -0.5257 -1.2536
  752TIP3   OH223890   6.958   2.994   2.563  0.7051  0.3064 -0.1316
  752TIP3    H123891   6.870   3.032   2.567 -0.3899 -2.1429  1.6095
  752TIP3    H223892   6.988   2.994   2.654  1.8130 -0.3924 -0.4748
  753TIP3   OH223893   1.693   3.725   0.553 -0.5233 -0.2099  0.3710
  753TIP3    H123894   1.782   3.753   0.536  0.5700 -3.1603  0.5836
  753TIP3    H223895   1.664   3.779   0.626  1.0855  0.7853  0.3225
  754TIP3   OH223896   6.271   6.871   8.246 -0.0310  0.3201 -0.1657
  754TIP3    H123897   6.345   6.929   8.265  0.3627 -0.0507 -0.5481
  754TIP3    H223898   6.263   6.816   8.324 -0.5375  1.0109  0.2882
  755TIP3   OH223899   4.297   5.377   1.678  0.0190 -0.1668  0.0198
  755TIP3    H123900   4.388   5.357   1.702 -0.1849 -0.8096  0.2862
  755TIP3    H223901   4.249   5.297   1.699 -0.9341  0.7739  1.6527
  756TIP3   OH223902   0.229   1.111   6.949  0.3002 -0.1302  0.2717
  756TIP3    H123903   0.252   1.149   6.864 -1.0065  0.6073  0.2226
  756TIP3    H223904   0.313   1.093   6.991  0.9610  0.5684 -0.7096
  757TIP3   OH223905   1.601   3.817   1.660 -0.0007 -0.0729  0.2728
  757TIP3    H123906   1.618   3.764   1.738 -0.3880 -0.1161  0.3296
  757TIP3    H223907   1.687   3.827   1.619 -0.0174 -1.2778 -0.0894
  758TIP3   OH223908   1.244   4.615   1.924  0.1686 -0.0878 -0.0186
  758TIP3    H123909   1.183   4.551   1.960 -0.7580  0.8967  0.2222
  758TIP3    H223910   1.322   4.608   1.980  0.0105 -0.8606  0.1156
  759TIP3   OH223911   5.850   2.083   2.656 -0.3927  0.2913  0.6176
  759TIP3    H123912   5.898   2.009   2.695 -0.1993  0.0991  0.0177
  759TIP3    H223913   5.887   2.160   2.700 -0.2523  0.0708  0.8952
  760TIP3   OH223914   1.175   3.336   0.428  0.2222 -0.1278  0.1857
  760TIP3    H123915   1.112   3.378   0.369  0.0081  2.1600  1.8848
  760TIP3    H223916   1.122   3.310   0.504  0.7822 -1.3855  0.1648
  761TIP3   OH223917   2.528   7.007   0.841  0.5521 -0.2210  0.7141
  761TIP3    H123918   2.503   7.006   0.933  2.6767  1.9449  1.4122
  761TIP3    H223919   2.509   7.096   0.812  0.0170 -0.8379 -0.9476
  762TIP3   OH223920   3.467   6.813   7.477  0.3302  0.2457  0.3697
  762TIP3    H123921   3.550   6.782   7.515  0.3364 -3.0508 -1.9218
  762TIP3    H223922   3.419   6.733   7.456 -2.5877  2.0263 -0.2765
  763TIP3   OH223923   1.337   2.693   0.988 -0.4963 -0.4905  0.1991
  763TIP3    H123924   1.379   2.674   1.072  0.4001  0.4407 -0.0161
  763TIP3    H223925   1.244   2.694   1.008 -0.2814  0.1617  1.2894
  764TIP3   OH223926   3.088   2.180   7.618 -0.1105 -0.0776  0.3476
  764TIP3    H123927   3.010   2.134   7.650 -0.1932 -1.5650 -1.7557
  764TIP3    H223928   3.053   2.244   7.555  0.3348 -0.4054 -0.2328
  765TIP3   OH223929   6.934   2.606   3.086 -0.0544 -0.6087  0.0487
  765TIP3    H123930   6.842   2.603   3.110 -0.7685 -0.6480 -2.4471
  765TIP3    H223931   6.948   2.528   3.032  0.8775  0.4983 -1.3711
  766TIP3   OH223932   4.120   3.107   0.516 -0.3238  0.0634 -0.4959
  766TIP3    H123933   4.140   3.091   0.424  3.2097 -2.2223  0.4737
  766TIP3    H223934   4.138   3.200   0.528  0.3528  0.1374 -1.8640
  767TIP3   OH223935   1.056   1.406   0.514  0.3930  0.2120  0.3422
  767TIP3    H123936   1.019   1.385   0.428 -1.1556 -2.6907  1.5838
  767TIP3    H223937   0.981   1.436   0.565  0.8483 -0.2124  1.2830
  768TIP3   OH223938   0.886   6.564   7.699  0.2907 -0.5871  0.1688
  768TIP3    H123939   0.907   6.657   7.693  0.3268 -0.5017  1.3222
  768TIP3    H223940   0.914   6.539   7.787  1.4295 -1.9802 -0.5418
  769TIP3   OH223941   0.849   3.648   2.056  0.0012  0.7282  0.0398
  769TIP3    H123942   0.911   3.656   2.129  0.2302  4.8476 -0.3871
  769TIP3    H223943   0.767   3.619   2.096  0.5992  1.1644  1.6377
  770TIP3   OH223944   1.682   5.829   7.840  0.2127  0.1995  0.7039
  770TIP3    H123945   1.767   5.816   7.800  0.6534  1.1993  1.2820
  770TIP3    H223946   1.679   5.766   7.912  0.1293 -0.3839  0.1970
  771TIP3   OH223947   0.553   4.643   0.613 -0.0727 -0.4579 -0.0985
  771TIP3    H123948   0.513   4.698   0.681  0.4844 -0.7895  0.5166
  771TIP3    H223949   0.640   4.621   0.648  0.8004  0.5154 -1.5412
  772TIP3   OH223950   5.168   1.384   0.636  0.0861 -0.1983 -0.5115
  772TIP3    H123951   5.226   1.347   0.703 -0.6582  0.4209  0.5126
  772TIP3    H223952   5.141   1.468   0.672  0.1993  0.4723 -1.9219
  773TIP3   OH223953   3.973   2.787   8.188 -0.2132 -0.3944 -0.0476
  773TIP3    H123954   4.030   2.857   8.157  1.1214 -1.7610 -0.8057
  773TIP3    H223955   3.986   2.784   8.283 -0.0232  0.1487 -0.0585
  774TIP3   OH223956   2.701   1.728   1.632  0.6030 -0.1263  0.3332
  774TIP3    H123957   2.683   1.640   1.597 -0.5323  0.2400 -0.0637
  774TIP3    H223958   2.632   1.783   1.594  1.7412  1.0984 -0.0198
  775TIP3   OH223959   6.722   4.043   1.373 -0.5784  0.3164 -0.1344
  775TIP3    H123960   6.815   4.046   1.352 -0.7108  1.5371 -0.5862
  775TIP3    H223961   6.716   3.977   1.443  0.8284  1.2694  0.9520
  776TIP3   OH223962   5.583   5.771   1.754  0.1115 -0.2703  0.1013
  776TIP3    H123963   5.489   5.754   1.754  0.5939 -3.6450 -1.6712
  776TIP3    H223964   5.592   5.853   1.705 -1.9590  1.3992  2.3013
  777TIP3   OH223965   1.502   4.125   2.012 -0.1407  0.1055  0.0634
  777TIP3    H123966   1.417   4.166   1.993  0.2210  1.0239  0.3948
  777TIP3    H223967   1.550   4.131   1.930  0.2063  1.0884  0.3282
  778TIP3   OH223968   6.371   5.290   8.116 -0.4260 -0.4935  0.0735
  778TIP3    H123969   6.360   5.368   8.170 -1.1963 -0.7048  0.2372
  778TIP3    H223970   6.292   5.288   8.062 -0.1251 -0.8300 -0.3544
  779TIP3   OH223971   0.173   1.939   1.516 -0.1953 -0.1018  0.1514
  779TIP3    H123972   0.208   1.977   1.596  0.9996  0.8142 -0.7664
  779TIP3    H223973   0.208   1.995   1.446 -0.4288 -1.4328 -1.0676
  780TIP3   OH223974   0.113   3.991   2.257 -0.2168 -1.2976 -0.0892
  780TIP3    H123975   0.208   3.983   2.251 -0.1853 -0.0077 -2.4427
  780TIP3    H223976   0.079   3.944   2.180 -1.3731 -0.3752 -0.1762
  781TIP3   OH223977   4.180   4.986   8.045  0.1912 -0.6431  0.3340
  781TIP3    H123978   4.183   5.078   8.073 -0.2343  0.2460 -2.2836
  781TIP3    H223979   4.088   4.962   8.049 -0.6528  0.9292 -4.0979
  782TIP3   OH223980   4.049   0.563   0.438  0.1808 -0.6531 -0.1043
  782TIP3    H123981   4.101   0.484   0.423  0.8876  0.1331 -2.1996
  782TIP3    H223982   4.109   0.623   0.484 -0.6242 -1.5498  2.2808
  783TIP3   OH223983   5.773   1.035   1.363  0.0871  0.2293  0.0998
  783TIP3    H123984   5.742   0.944   1.363  1.9692 -0.4510 -0.9415
  783TIP3    H223985   5.866   1.029   1.344 -0.3395  2.5609 -3.6432
  784TIP3   OH223986   6.631   3.325   8.273 -0.6900  0.5366  0.0146
  784TIP3    H123987   6.612   3.383   8.199  0.9500 -0.4542 -1.2437
  784TIP3    H223988   6.679   3.252   8.234  0.4779  0.1275  2.1118
  785TIP3   OH223989   5.969   4.393   2.980  1.3293 -0.0711 -0.3560
  785TIP3    H123990   5.999   4.476   2.943  2.1253  0.6763  1.8158
  785TIP3    H223991   5.886   4.413   3.021  0.5350 -0.8556 -1.4995
  786TIP3   OH223992   2.764   4.667   1.022 -0.3518  0.4386 -0.1606
  786TIP3    H123993   2.710   4.591   1.046  0.4707 -0.1334 -0.0780
  786TIP3    H223994   2.739   4.734   1.085 -0.1469 -0.1957  0.6220
  787TIP3   OH223995   4.868   5.451   1.561 -0.4532 -0.3286  0.1924
  787TIP3    H123996   4.916   5.486   1.636  1.1057 -1.6527 -0.1320
  787TIP3    H223997   4.798   5.398   1.600 -0.3737 -0.0809  0.6851
  788TIP3   OH223998   5.625   5.331   6.885 -0.7634 -0.2770  0.1029
  788TIP3    H123999   5.558   5.388   6.922  0.7919  0.8193  1.3775
  788TIP3    H224000   5.663   5.381   6.814 -0.8479 -0.6267 -0.1913
  789TIP3   OH224001   4.089   6.649   2.480 -0.0914 -0.1300  0.1109
  789TIP3    H124002   4.063   6.671   2.570  1.9055  0.1542  0.6527
  789TIP3    H224003   4.154   6.580   2.490  0.3245  0.0711 -1.1015
  790TIP3   OH224004   2.704   6.750   1.641 -0.1184  0.0353 -0.0652
  790TIP3    H124005   2.688   6.673   1.585 -2.7440 -0.5438  1.3358
  790TIP3    H224006   2.649   6.819   1.603  0.2185  0.4604  0.2148
  791TIP3   OH224007   1.594   6.406   2.858 -0.3693 -0.3317 -0.2254
  791TIP3    H124008   1.611   6.312   2.865 -2.1090 -0.8968 -2.2062
  791TIP3    H224009   1.670   6.441   2.812 -0.1421 -0.9584 -0.3397
  792TIP3   OH224010   0.896   4.597   0.025  0.0175 -0.2781  0.6077
  792TIP3    H124011   0.918   4.569   0.114 -0.6934  1.2348  1.2999
  792TIP3    H224012   0.942   4.680   0.014 -1.8141  0.7948  0.5171
  793TIP3   OH224013   6.538   0.833   7.085  0.1431 -0.9325 -0.5551
  793TIP3    H124014   6.522   0.744   7.056 -1.3665 -0.9294  0.1472
  793TIP3    H224015   6.476   0.846   7.157 -0.5669  1.0892 -1.4666
  794TIP3   OH224016   4.221   3.808   3.038  0.6283  0.2244 -0.3042
  794TIP3    H124017   4.168   3.888   3.042  0.2473  0.0119 -0.9117
  794TIP3    H224018   4.268   3.805   3.121 -0.6982  0.1629  0.4600
  795TIP3   OH224019   0.544   0.375   7.575 -0.2996  0.2737  0.2844
  795TIP3    H124020   0.498   0.292   7.580 -0.6344  0.3294 -1.4558
  795TIP3    H224021   0.577   0.379   7.485  1.4563  1.1108  0.9184
  796TIP3   OH224022   2.941   6.528   7.617 -0.5640 -0.2822  0.2261
  796TIP3    H124023   2.848   6.544   7.599 -0.9802 -1.2252  1.4403
  796TIP3    H224024   2.953   6.553   7.709  0.4015 -0.1537  0.0809
  797TIP3   OH224025   6.204   0.736   1.609  0.2691 -0.2402  0.1778
  797TIP3    H124026   6.131   0.679   1.632 -0.3272  0.3268 -0.3049
  797TIP3    H224027   6.280   0.678   1.608 -0.1932 -0.8605  0.5343
  798TIP3   OH224028   3.332   0.398   1.456  0.2599  0.4928  0.0184
  798TIP3    H124029   3.391   0.459   1.499  2.7455 -1.3732 -0.4819
  798TIP3    H224030   3.363   0.396   1.365  1.2585 -2.4702  0.3163
  799TIP3   OH224031   0.846   5.909   7.679 -0.1951  0.8122 -0.0249
  799TIP3    H124032   0.907   5.981   7.660 -0.4529  0.4618 -2.5219
  799TIP3    H224033   0.790   5.904   7.602 -0.7335 -1.5331  0.4476
  800TIP3   OH224034   1.885   0.201   0.405 -0.3771 -0.0867 -0.6466
  800TIP3    H124035   1.914   0.264   0.471 -1.0718 -1.0937  0.6530
  800TIP3    H224036   1.965   0.158   0.377 -0.1012  0.1814 -0.2859
  801TIP3   OH224037   1.876   0.043   1.393  0.2906 -0.5811  0.3843
  801TIP3    H124038   1.910   0.115   1.446  0.6351  0.4868 -1.2198
  801TIP3    H224039   1.861  -0.027   1.456 -0.8798  1.1379  2.1817
  802TIP3   OH224040   6.657   1.270   0.945 -0.4130  0.0657  0.3706
  802TIP3    H124041   6.711   1.349   0.943 -2.3280  1.4675  0.5550
  802TIP3    H224042   6.670   1.233   1.032  0.5564  0.1142  0.2569
  803TIP3   OH224043   6.601   3.012   1.187 -0.7478 -0.3552 -0.3108
  803TIP3    H124044   6.647   3.075   1.131 -2.0017  0.8326 -0.0824
  803TIP3    H224045   6.667   2.981   1.248  0.4220 -0.9383 -1.8100
  804TIP3   OH224046   0.184   3.858   8.349  0.5382  0.3242  0.7743
  804TIP3    H124047   0.174   3.881   8.257  2.5386  0.1569  0.4679
  804TIP3    H224048   0.143   3.772   8.357 -3.3916  1.9983  1.0444
  805TIP3   OH224049   6.685   2.085   7.564 -0.2163  0.2921 -0.1837
  805TIP3    H124050   6.773   2.054   7.540 -0.3631  0.0009 -0.3554
  805TIP3    H224051   6.633   2.005   7.570 -0.4201  0.4459  0.1290
  806TIP3   OH224052   1.423   5.208   1.930 -0.3528 -0.1780 -0.2903
  806TIP3    H124053   1.388   5.296   1.943 -0.4446 -0.3381  0.5888
  806TIP3    H224054   1.364   5.151   1.980 -0.8679 -0.8625 -1.6283
  807TIP3   OH224055   5.381   1.581   7.214  0.2024  0.0928 -0.2158
  807TIP3    H124056   5.331   1.501   7.199  0.5535 -0.1688  0.0051
  807TIP3    H224057   5.456   1.553   7.266 -1.4435  1.0508  2.9674
  808TIP3   OH224058   3.549   4.257   2.513 -0.2783  0.0103  0.0760
  808TIP3    H124059   3.477   4.225   2.568 -0.9292 -2.9831 -2.2391
  808TIP3    H224060   3.626   4.249   2.569 -1.2363 -0.1558  1.4566
  809TIP3   OH224061   2.388   2.202   1.068  0.2658 -0.2467 -0.1667
  809TIP3    H124062   2.431   2.118   1.052  0.7738  0.1722 -1.0492
  809TIP3    H224063   2.366   2.235   0.981 -1.0979 -0.0571  0.2352
  810TIP3   OH224064   6.096   0.652   1.028  0.0821  0.1991 -0.2953
  810TIP3    H124065   6.089   0.585   0.961  0.8251  0.3565 -0.5370
  810TIP3    H224066   6.190   0.665   1.040 -0.0457  1.3925 -0.4505
  811TIP3   OH224067   0.481   4.437   1.353  0.4085 -0.0577  0.1993
  811TIP3    H124068   0.440   4.521   1.332  0.5455 -0.0819 -0.1790
  811TIP3    H224069   0.417   4.371   1.325  0.6151 -0.0911 -0.2013
  812TIP3   OH224070   5.057   1.731   1.160 -0.5461 -0.3845 -0.6099
  812TIP3    H124071   5.093   1.752   1.247 -1.2865 -1.2564 -0.0685
  812TIP3    H224072   5.115   1.663   1.126 -0.2058  0.0187 -0.8357
  813TIP3   OH224073   2.757   6.792   7.748 -0.5791 -0.2116 -0.0950
  813TIP3    H124074   2.713   6.770   7.830  1.0630 -0.8822  0.6601
  813TIP3    H224075   2.749   6.713   7.694 -0.6316 -0.1924 -0.1159
  814TIP3   OH224076   3.276   0.898   2.856  0.6468  0.1744 -0.4062
  814TIP3    H124077   3.274   0.809   2.820  2.6083 -0.6139  1.2785
  814TIP3    H224078   3.191   0.907   2.901 -0.3183 -0.1278 -2.0727
  815TIP3   OH224079   0.742   1.669   8.057 -0.7769  0.0295  0.1908
  815TIP3    H124080   0.655   1.643   8.030 -0.8920 -2.0288  2.1985
  815TIP3    H224081   0.729   1.714   8.141  0.1219 -1.1656  1.0028
  816TIP3   OH224082   2.501   1.618   8.079 -0.1202  0.0766  0.1462
  816TIP3    H124083   2.480   1.531   8.045  1.7220 -0.1352 -0.5655
  816TIP3    H224084   2.439   1.677   8.036 -2.3153 -0.9948  1.6727
  817TIP3   OH224085   6.245   5.844   2.729 -0.1976 -0.3710 -0.5141
  817TIP3    H124086   6.304   5.911   2.764  0.8209 -1.6267  0.2622
  817TIP3    H224087   6.300   5.766   2.721 -1.3285 -1.0965 -1.5040
  818TIP3   OH224088   2.521   4.831   1.920 -0.1054  0.5731 -0.3128
  818TIP3    H124089   2.456   4.782   1.970  1.3577 -1.1106  0.0184
  818TIP3    H224090   2.582   4.765   1.887  1.3849  2.0708 -0.7178
  819TIP3   OH224091   6.208   6.745   0.403 -0.1204  0.0277 -0.0245
  819TIP3    H124092   6.159   6.703   0.474 -0.4436  1.1617  0.4514
  819TIP3    H224093   6.298   6.749   0.435  0.0371 -0.8456 -0.3351
  820TIP3   OH224094   6.667   5.102   2.175  0.2129 -0.2359  0.6446
  820TIP3    H124095   6.709   5.021   2.147  0.4020 -0.5159  1.7022
  820TIP3    H224096   6.574   5.086   2.163  0.3471  0.3069 -1.4990
  821TIP3   OH224097   2.855   2.037   1.085  0.0613  0.3402 -0.2326
  821TIP3    H124098   2.790   2.020   1.153 -0.8140  0.3023 -1.0522
  821TIP3    H224099   2.891   1.951   1.064  3.2561  0.6665  2.8820
  822TIP3   OH224100   1.876   2.230   2.065 -0.3557  0.3303 -0.7408
  822TIP3    H124101   1.841   2.315   2.092 -2.3258 -0.6181 -0.1243
  822TIP3    H224102   1.950   2.252   2.008 -0.5964  2.4428 -0.3407
  823TIP3   OH224103   5.013   1.059   7.684 -0.1412  0.0912 -0.6183
  823TIP3    H124104   5.044   0.973   7.714  0.4866  0.8946  1.2023
  823TIP3    H224105   5.062   1.076   7.604  1.4776 -0.2539  0.2607
  824TIP3   OH224106   3.516   4.666   3.050  0.2011 -0.4152 -0.1469
  824TIP3    H124107   3.551   4.668   3.139 -1.2126  0.6886  0.4247
  824TIP3    H224108   3.422   4.651   3.061 -0.2549  1.2499 -1.3503
  825TIP3   OH224109   6.949   6.234   0.973  0.2714 -0.0661  0.0229
  825TIP3    H124110   6.867   6.277   0.951  0.1811 -0.2643 -0.0304
  825TIP3    H224111   6.937   6.202   1.063 -0.6329 -2.2480 -0.8111
  826TIP3   OH224112   0.779   2.087   0.876 -0.0578  0.2943  0.2333
  826TIP3    H124113   0.869   2.059   0.860 -0.6546 -1.9718  0.4567
  826TIP3    H224114   0.786   2.148   0.949  1.2810 -0.1771  0.5411
  827TIP3   OH224115   4.735   0.504   8.272 -0.0307 -0.3763 -0.3387
  827TIP3    H124116   4.646   0.513   8.237 -0.0383 -2.7571 -1.1021
  827TIP3    H224117   4.758   0.592   8.301 -1.4000  1.0172 -3.0894
  828TIP3   OH224118   4.282   0.899   2.528  0.0871  0.3603  0.2218
  828TIP3    H124119   4.318   0.894   2.616  2.0653 -0.4933 -0.5877
  828TIP3    H224120   4.336   0.964   2.484  1.1585 -1.4053 -1.2097
  829TIP3   OH224121   3.929   6.825   1.508  0.2000  0.2055  0.0695
  829TIP3    H124122   4.022   6.846   1.502  0.4198 -0.1834  1.7217
  829TIP3    H224123   3.889   6.902   1.551 -0.3101  0.5157 -0.9300
  830TIP3   OH224124   3.369   5.659   0.482  0.0693  0.0992 -0.2836
  830TIP3    H124125   3.361   5.661   0.387 -1.2092  0.2519 -0.1931
  830TIP3    H224126   3.399   5.747   0.506  1.5361 -0.2789 -0.6033
  831TIP3   OH224127   5.659   0.273   2.470  0.0816 -0.3216  0.4100
  831TIP3    H124128   5.669   0.346   2.530 -0.1765  0.6069 -0.6421
  831TIP3    H224129   5.619   0.204   2.523 -0.9922  0.7747  1.0890
  832TIP3   OH224130   0.793   0.896   2.491 -0.2223  0.0437 -0.0859
  832TIP3    H124131   0.855   0.888   2.563 -1.3312  2.4949  1.2572
  832TIP3    H224132   0.836   0.852   2.417  2.0013 -0.4444  1.3981
  833TIP3   OH224133   3.042   5.526   0.881  0.3358 -0.0221  0.5122
  833TIP3    H124134   2.963   5.498   0.836 -0.9943 -0.0165  2.6848
  833TIP3    H224135   3.083   5.589   0.822 -0.6802 -0.8394 -1.1319
  834TIP3   OH224136   3.148   6.771   7.318  0.0041 -0.9290 -0.1670
  834TIP3    H124137   3.242   6.760   7.307  0.2137 -0.4363  0.9255
  834TIP3    H224138   3.110   6.687   7.291  0.7656 -1.1702 -0.5061
  835TIP3   OH224139   3.344   4.493   2.298  0.5241 -0.3831 -0.0310
  835TIP3    H124140   3.250   4.500   2.316  0.4727 -1.9124  0.4225
  835TIP3    H224141   3.365   4.571   2.246 -0.3894  1.5665  2.3353
  836TIP3   OH224142   4.019   5.642   1.639 -0.5875 -0.2257 -0.1731
  836TIP3    H124143   3.958   5.701   1.684 -0.9994  1.7261 -3.0342
  836TIP3    H224144   3.962   5.582   1.591 -0.2137 -0.6938 -0.0314
  837TIP3   OH224145   3.356   0.903   3.275 -0.2710  0.3180  0.6844
  837TIP3    H124146   3.291   0.832   3.282  0.2281 -0.2445 -0.1302
  837TIP3    H224147   3.309   0.981   3.303 -0.3894 -0.5578  3.1546
  838TIP3   OH224148   4.488   3.549   7.812 -0.2830  0.5796 -0.3108
  838TIP3    H124149   4.475   3.530   7.720  1.9380  1.4722 -0.8757
  838TIP3    H224150   4.583   3.548   7.824 -0.4530  1.7191  1.6879
  839TIP3   OH224151   2.379   6.770   2.013 -0.3641  0.0775 -0.0095
  839TIP3    H124152   2.426   6.824   2.078 -0.2364 -0.7504  0.6062
  839TIP3    H224153   2.315   6.721   2.065 -0.3541 -0.4941 -0.5243
  840TIP3   OH224154   5.964   6.040   7.448  0.0160  0.0347  0.2055
  840TIP3    H124155   5.908   6.116   7.434 -0.6017 -0.1039  1.7303
  840TIP3    H224156   5.974   6.001   7.361 -2.1082  0.1680 -0.1609
  841TIP3   OH224157   3.884   2.834   2.111 -0.0503  0.2686 -0.6863
  841TIP3    H124158   3.942   2.904   2.143 -0.0740  0.0189 -0.1032
  841TIP3    H224159   3.929   2.753   2.133 -0.6885  0.0658 -0.0962
  842TIP3   OH224160   3.212   3.105   0.413  0.6540  0.4346  0.4165
  842TIP3    H124161   3.161   3.062   0.481  1.6322 -0.1836  0.7710
  842TIP3    H224162   3.285   3.146   0.460  1.8047 -0.6981 -0.3144
  843TIP3   OH224163   0.588   0.071   6.898 -0.0246  0.5293  0.2992
  843TIP3    H124164   0.530   0.112   6.834  1.0420 -1.0079 -1.7831
  843TIP3    H224165   0.545  -0.012   6.919  0.0389  0.6632  0.9796
  844TIP3   OH224166   6.728   5.355   0.941 -0.4707 -0.4422  0.4241
  844TIP3    H124167   6.749   5.431   0.996 -0.5085  0.9476 -1.3838
  844TIP3    H224168   6.811   5.307   0.934 -0.4567 -0.6249  1.6208
  845TIP3   OH224169   5.072   6.800   0.051 -0.3570 -0.1615  0.1328
  845TIP3    H124170   5.164   6.781   0.069 -0.6319 -1.6753  0.0694
  845TIP3    H224171   5.041   6.845   0.130  0.7853  1.7135 -0.4511
  846TIP3   OH224172   1.473   5.004   0.029  0.2240 -0.1571  0.4154
  846TIP3    H124173   1.544   4.971   0.084  0.9356 -1.9404 -1.4411
  846TIP3    H224174   1.515   5.070  -0.026 -0.6295  2.1147  2.3369
  847TIP3   OH224175   6.422   1.277   0.651  0.6076 -0.1707 -0.3197
  847TIP3    H124176   6.363   1.220   0.603 -1.5405  0.9204  0.8771
  847TIP3    H224177   6.408   1.255   0.743 -0.4023  2.2481  0.2010
  848TIP3   OH224178   4.624   4.855   1.786 -0.2327 -0.1936  0.0533
  848TIP3    H124179   4.550   4.800   1.811 -0.6045  1.0582  1.8825
  848TIP3    H224180   4.584   4.938   1.758  0.3785 -0.3694 -1.4491
  849TIP3   OH224181   3.320   0.552   7.405  0.0022 -0.5231  0.6377
  849TIP3    H124182   3.320   0.490   7.331  2.0262  0.3820 -0.2042
  849TIP3    H224183   3.232   0.589   7.405  0.0239 -0.3405 -1.5465
  850TIP3   OH224184   1.147   1.665   0.083 -0.1660  0.1310 -0.1571
  850TIP3    H124185   1.154   1.663   0.179  0.2603 -0.0046 -0.1873
  850TIP3    H224186   1.125   1.575   0.059 -0.3672  0.1862 -0.1808
  851TIP3   OH224187   3.320   0.339   7.203  0.2174 -0.6026  0.4372
  851TIP3    H124188   3.318   0.245   7.216  1.9788 -1.3710 -3.4068
  851TIP3    H224189   3.413   0.361   7.203 -0.0297  0.6225 -1.2464
  852TIP3   OH224190   6.285   3.964   2.072 -0.3352 -0.5641 -0.2829
  852TIP3    H124191   6.313   4.046   2.030 -2.5544  1.1523  1.3542
  852TIP3    H224192   6.312   3.896   2.011  1.6039  1.3550 -1.7395
  853TIP3   OH224193   2.680   3.971   0.413  0.0283  0.6406 -0.6482
  853TIP3    H124194   2.592   3.954   0.380 -0.4837  2.5950 -0.4305
  853TIP3    H224195   2.738   3.934   0.347 -0.9170 -1.5247 -0.3309
  854TIP3   OH224196   0.065   6.150   1.980  0.1588 -0.1191  0.5147
  854TIP3    H124197   0.129   6.086   2.012 -1.5494 -2.2333 -0.0889
  854TIP3    H224198  -0.006   6.148   2.044 -1.2416 -1.0637 -0.9848
  855TIP3   OH224199   5.001   0.747   2.135 -0.2174 -0.0621 -0.2318
  855TIP3    H124200   4.949   0.726   2.057 -0.7392 -1.0475  0.3664
  855TIP3    H224201   4.935   0.766   2.203  0.2280  0.5696  0.0313
  856TIP3   OH224202   5.612   1.981   1.879 -0.2867  0.5521  0.0209
  856TIP3    H124203   5.668   1.948   1.950  1.6962  0.3092 -1.5674
  856TIP3    H224204   5.603   2.074   1.897 -0.0994  0.4283  0.7852
  857TIP3   OH224205   4.178   2.230   3.367  0.3942 -0.3098 -0.3026
  857TIP3    H124206   4.198   2.322   3.387  1.2412 -0.0869 -2.0388
  857TIP3    H224207   4.246   2.203   3.306 -1.0549 -1.4567 -1.4698
  858TIP3   OH224208   2.467   5.516   1.629 -0.5189  0.0860 -0.1574
  858TIP3    H124209   2.396   5.510   1.693 -0.5164  1.6638  0.0329
  858TIP3    H224210   2.538   5.465   1.668 -1.3056 -0.9631 -0.0466
  859TIP3   OH224211   0.194   4.247   2.109 -0.0638 -0.2352  0.1212
  859TIP3    H124212   0.280   4.233   2.069 -0.3492  0.3496 -0.6979
  859TIP3    H224213   0.146   4.166   2.090 -0.4132  0.2894 -1.2784
  860TIP3   OH224214   5.473   0.717   0.063 -0.5254  0.6700  0.5312
  860TIP3    H124215   5.551   0.752   0.105  0.3989  0.0336 -0.6043
  860TIP3    H224216   5.450   0.782  -0.003 -1.8344  1.5528  1.7965
  861TIP3   OH224217   1.875   2.095   1.517 -0.2457  0.2255  0.7208
  861TIP3    H124218   1.966   2.116   1.537 -0.3341  0.0859  1.3012
  861TIP3    H224219   1.869   2.102   1.422  0.3656  0.2559  0.6786
  862TIP3   OH224220   1.468   6.865   1.910 -0.1860  0.1564  0.6708
  862TIP3    H124221   1.516   6.849   1.829 -1.2009 -1.2903  0.3301
  862TIP3    H224222   1.450   6.959   1.908  1.9982  0.6302  0.4992
  863TIP3   OH224223   3.630   5.831   3.203  0.0626  0.1057 -0.0068
  863TIP3    H124224   3.667   5.749   3.234 -0.0886 -0.3506 -0.9841
  863TIP3    H224225   3.577   5.863   3.276  1.0385 -0.0730  0.8022
  864TIP3   OH224226   2.863   3.460   7.053 -0.6201  0.1460 -0.3171
  864TIP3    H124227   2.889   3.372   7.025 -1.1308 -0.6400  1.5016
  864TIP3    H224228   2.926   3.519   7.011 -0.6412 -1.0217 -2.0620
  865TIP3   OH224229   1.778   2.255   7.888 -0.5837  0.5254 -0.4755
  865TIP3    H124230   1.711   2.190   7.911 -0.0025 -1.2152 -3.1636
  865TIP3    H224231   1.729   2.327   7.849 -1.0398  0.1029 -0.7052
  866TIP3   OH224232   3.325   3.978   2.129  0.3454  0.5019  0.1409
  866TIP3    H124233   3.343   4.071   2.139 -2.2936  0.9505  1.5529
  866TIP3    H224234   3.380   3.936   2.195  1.2700  1.0732 -0.2459
  867TIP3   OH224235   2.979   6.647   3.426  0.0025 -0.1104  0.6953
  867TIP3    H124236   3.062   6.619   3.389  1.3316  1.2683  2.4460
  867TIP3    H224237   2.954   6.724   3.375 -0.4707 -0.7656 -0.1018
  868TIP3   OH224238   1.640   2.115   0.822  0.5270  0.4204 -0.2491
  868TIP3    H124239   1.590   2.093   0.744 -0.1663  1.4303 -0.1097
  868TIP3    H224240   1.592   2.188   0.862  1.5650  0.7623  0.4232
  869TIP3   OH224241   5.281   3.944   2.418 -0.3684  0.2564  0.2698
  869TIP3    H124242   5.195   3.951   2.459 -1.4138  0.4607 -1.8211
  869TIP3    H224243   5.341   3.980   2.483 -2.1845  2.7436  0.7164
  870TIP3   OH224244   3.741   3.741   1.798  0.1030 -0.0937 -0.0483
  870TIP3    H124245   3.829   3.739   1.760  0.5169 -0.3630  0.8951
  870TIP3    H224246   3.731   3.654   1.838 -0.1114  0.3562  0.8922
  871TIP3   OH224247   6.941   4.768   2.962 -0.3880  0.6895 -0.0900
  871TIP3    H124248   7.028   4.804   2.945 -0.3483  0.4240 -0.4675
  871TIP3    H224249   6.939   4.686   2.912 -0.9465  0.8241 -0.2921
  872TIP3   OH224250   6.910   5.430   2.161  0.2829  0.5628 -0.0434
  872TIP3    H124251   6.979   5.449   2.097 -0.4943  1.8853 -0.5364
  872TIP3    H224252   6.934   5.482   2.238 -0.3073  1.2753 -0.3296
  873TIP3   OH224253   3.493   3.657   0.659 -0.9218  0.0300 -0.1742
  873TIP3    H124254   3.544   3.700   0.591 -0.4449  0.0048  0.1643
  873TIP3    H224255   3.520   3.565   0.654 -0.3217  0.1611  0.5484
  874TIP3   OH224256   0.480   3.221   1.529  0.9297  0.3041 -0.3178
  874TIP3    H124257   0.536   3.179   1.463  1.5983  0.4035  0.1776
  874TIP3    H224258   0.411   3.157   1.545  0.1825  0.6857 -1.8423
  875TIP3   OH224259   6.740   5.354   2.378  0.0099 -0.1942  0.4188
  875TIP3    H124260   6.802   5.328   2.310  0.1562 -0.9370  0.8304
  875TIP3    H224261   6.781   5.429   2.422 -0.2554  0.5416 -0.5467
  876TIP3   OH224262   1.910   5.983   2.340  0.4297  0.4936  0.4004
  876TIP3    H124263   1.969   5.972   2.265 -0.3963  2.2896 -0.5882
  876TIP3    H224264   1.908   6.078   2.355 -1.0242  0.3389  1.3694
  877TIP3   OH224265   4.561   5.483   7.213 -0.2339  0.1498  0.0613
  877TIP3    H124266   4.477   5.490   7.168  0.3619  0.2285 -1.0830
  877TIP3    H224267   4.626   5.502   7.145  0.8034 -1.8333  0.4233
  878TIP3   OH224268   6.080   5.457   8.281 -0.1163 -0.0117 -0.3615
  878TIP3    H124269   6.094   5.385   8.221  1.3246 -0.1818  0.1303
  878TIP3    H224270   6.168   5.491   8.299 -0.6925  1.3586  0.0273
  879TIP3   OH224271   4.612   4.763   0.735  0.7026 -0.5929 -0.0016
  879TIP3    H124272   4.532   4.816   0.722  1.0558 -0.3483 -1.3707
  879TIP3    H224273   4.585   4.692   0.793 -0.6235 -0.7183 -0.7281
  880TIP3   OH224274   4.249   1.160   2.827 -0.2526 -0.5689  0.6822
  880TIP3    H124275   4.223   1.126   2.913  0.5602  1.5931  1.8906
  880TIP3    H224276   4.326   1.108   2.803 -0.2259 -0.9162  1.4853
  881TIP3   OH224277   5.732   6.840   2.191 -0.3697  0.0979  0.1733
  881TIP3    H124278   5.682   6.907   2.237  0.9598  0.5173  1.0455
  881TIP3    H224279   5.780   6.888   2.123 -0.3671 -0.1527 -0.0042
  882TIP3   OH224280   2.808   2.803   0.625 -0.3649  0.3341  0.3730
  882TIP3    H124281   2.751   2.872   0.591 -2.3256 -1.4693 -0.1609
  882TIP3    H224282   2.810   2.819   0.720 -0.3544  1.4001  0.2093
  883TIP3   OH224283   6.606   5.002   2.646  0.0942 -0.4028  0.1707
  883TIP3    H124284   6.559   5.045   2.575  1.8528  1.7943  0.2277
  883TIP3    H224285   6.646   5.073   2.695  0.5700 -1.9737  2.2127
  884TIP3   OH224286   6.632   4.798   2.396  0.3230  0.5622  0.9424
  884TIP3    H124287   6.583   4.822   2.475  1.0472 -0.1132  1.6083
  884TIP3    H224288   6.600   4.859   2.329 -2.2384 -0.5169  1.0531
  885TIP3   OH224289   0.912   1.346   2.881 -0.4029  0.0826 -0.0707
  885TIP3    H124290   0.903   1.394   2.963  1.6408  0.0276  0.2451
  885TIP3    H224291   0.939   1.412   2.817 -0.3839 -0.1489 -0.3036
  886TIP3   OH224292   6.377   0.164   1.254 -0.3774  0.3661 -0.4426
  886TIP3    H124293   6.357   0.072   1.272  0.4008  0.2993  0.1396
  886TIP3    H224294   6.341   0.212   1.328  1.9741  0.1892  0.9001
  887TIP3   OH224295   5.410   2.988   1.346 -0.8042 -0.6358 -0.4670
  887TIP3    H124296   5.324   3.016   1.376 -1.5713 -1.0442 -2.1499
  887TIP3    H224297   5.392   2.922   1.279  0.7236  0.6565 -2.2735
  888TIP3   OH224298   3.723   4.103   1.668  0.0335 -0.4219  0.2588
  888TIP3    H124299   3.782   4.178   1.678  2.0572 -1.9852  0.8083
  888TIP3    H224300   3.635   4.141   1.665  1.0855  2.0958 -1.5814
  889TIP3   OH224301   2.216   5.186   2.641  0.3719  0.0983  0.5134
  889TIP3    H124302   2.227   5.117   2.575 -0.3945  1.3885 -1.0379
  889TIP3    H224303   2.295   5.181   2.695  1.1269 -0.8712 -0.6366
  890TIP3   OH224304   4.507   2.416   1.706 -0.7786  0.6957  0.3185
  890TIP3    H124305   4.579   2.461   1.662  0.4472  0.0299  1.5460
  890TIP3    H224306   4.501   2.459   1.792 -0.1755 -0.8353  1.1680
  891TIP3   OH224307   6.536   4.481   7.132 -0.3890  0.2288 -0.0283
  891TIP3    H124308   6.563   4.427   7.058  1.4902  0.7811  0.1963
  891TIP3    H224309   6.596   4.556   7.130 -0.7177  0.5741  1.6549
  892TIP3   OH224310   6.777   0.486   0.371 -0.0226  0.3143 -0.5430
  892TIP3    H124311   6.707   0.477   0.436 -0.8590  0.0520 -1.4631
  892TIP3    H224312   6.837   0.550   0.410 -0.8890  0.7297  0.1629
  893TIP3   OH224313   4.768   4.160   0.305  0.8613 -0.1184 -0.3922
  893TIP3    H124314   4.840   4.210   0.345  0.0883  1.8398 -1.3066
  893TIP3    H224315   4.699   4.225   0.289 -1.8446 -2.1750  1.9263
  894TIP3   OH224316   4.944   4.266   8.387  0.1521 -0.2053 -0.1331
  894TIP3    H124317   4.907   4.342   8.432 -2.0939 -1.2643 -0.0324
  894TIP3    H224318   4.974   4.300   8.303 -0.5796  0.8389  0.0135
  895TIP3   OH224319   3.760   3.433   0.913 -0.3783 -0.0490 -0.1107
  895TIP3    H124320   3.768   3.526   0.933 -0.5004 -0.1141  0.2508
  895TIP3    H224321   3.721   3.395   0.992  1.3587 -0.6940  0.4777
  896TIP3   OH224322   3.653   5.565   0.120  0.2652  0.6053  0.1700
  896TIP3    H124323   3.675   5.488   0.173 -0.7373  1.5321  2.0343
  896TIP3    H224324   3.737   5.600   0.092  0.7503 -0.8859 -0.3281
  897TIP3   OH224325   1.238   6.868   7.945  0.3636  0.3398 -0.4842
  897TIP3    H124326   1.233   6.883   8.039 -0.6151  0.3749 -0.5328
  897TIP3    H224327   1.296   6.937   7.913  0.9848  0.1140  0.1352
  898TIP3   OH224328   6.821   0.393   1.595 -0.3184 -0.3750 -0.7565
  898TIP3    H124329   6.770   0.425   1.670  0.0900  1.7319 -1.3249
  898TIP3    H224330   6.803   0.299   1.593 -1.9362 -0.1546  0.7577
  899TIP3   OH224331   0.538   1.883   7.792 -0.4148  0.1194  0.0191
  899TIP3    H124332   0.508   1.911   7.878 -1.4338  0.2838 -0.3756
  899TIP3    H224333   0.514   1.954   7.733  0.8389  0.2939 -0.3211
  900TIP3   OH224334   2.798   4.648   7.182  0.1347  0.0987  0.0637
  900TIP3    H124335   2.803   4.736   7.217  1.4598  0.2132 -0.3795
  900TIP3    H224336   2.873   4.602   7.221 -0.6061 -0.8722  0.3886
  901TIP3   OH224337   2.664   6.014   1.113  0.1972  0.2872  0.1191
  901TIP3    H124338   2.733   6.079   1.126  0.1480  0.4529 -0.4117
  901TIP3    H224339   2.619   6.010   1.198 -1.3751  2.7831 -0.4780
  902TIP3   OH224340   0.307   4.987   0.133  0.3606  0.4146  0.3967
  902TIP3    H124341   0.298   5.017   0.043  1.9781  0.7442  0.3179
  902TIP3    H224342   0.386   4.933   0.132 -0.3097 -0.6265  1.3633
  903TIP3   OH224343   5.454   2.551   1.487 -0.8704  0.3440 -0.0999
  903TIP3    H124344   5.402   2.533   1.565 -3.0664  1.5069 -1.2023
  903TIP3    H224345   5.491   2.638   1.502  0.3782 -0.2603  0.4539
  904TIP3   OH224346   4.347   2.905   0.507  0.0478 -0.3824  0.3950
  904TIP3    H124347   4.370   2.945   0.591  0.8207  1.4680 -0.6245
  904TIP3    H224348   4.314   2.818   0.530  0.2226  0.0649  2.5961
  905TIP3   OH224349   3.514   3.786   0.911 -0.0877 -0.2038 -0.0381
  905TIP3    H124350   3.534   3.720   0.845  0.5998  1.0113 -1.0911
  905TIP3    H224351   3.447   3.745   0.967 -0.7476 -1.2401 -1.5198
  906TIP3   OH224352   5.287   1.550   2.135 -0.0892 -0.3211 -0.0471
  906TIP3    H124353   5.359   1.521   2.191  0.0662 -1.2528 -0.6922
  906TIP3    H224354   5.241   1.616   2.186  1.3453  0.4587  0.3103
  907TIP3   OH224355   3.610   0.016   1.183  0.0882  0.2793  0.2728
  907TIP3    H124356   3.528   0.058   1.158 -1.0728  0.5898  3.9586
  907TIP3    H224357   3.660   0.085   1.227  1.9154 -0.1728 -0.9938
  908TIP3   OH224358   2.511   1.134   2.469 -0.3976 -0.2722  0.1990
  908TIP3    H124359   2.507   1.151   2.375  1.3678 -0.2260  0.0979
  908TIP3    H224360   2.538   1.042   2.476 -2.6751 -0.9681  0.7113
  909TIP3   OH224361   2.478   6.975   0.472  0.0283 -0.9518 -0.1500
  909TIP3    H124362   2.482   6.984   0.377 -1.0162  0.6171 -0.0887
  909TIP3    H224363   2.426   7.051   0.501 -0.4561 -1.8924  1.5830
  910TIP3   OH224364   6.844   4.970   3.171 -0.2144  0.3715  0.2589
  910TIP3    H124365   6.853   4.899   3.107 -0.0962  0.3213  0.3317
  910TIP3    H224366   6.933   4.985   3.202 -0.1673  0.8517 -0.0839
  911TIP3   OH224367   2.509   3.214   1.855  0.1345  0.5585 -0.3019
  911TIP3    H124368   2.562   3.187   1.780 -0.6922 -0.3171 -0.5950
  911TIP3    H224369   2.504   3.136   1.910  0.0295  0.9480  0.2524
  912TIP3   OH224370   5.308   3.584   7.676  0.2984  0.0830 -0.0240
  912TIP3    H124371   5.400   3.609   7.663  0.3709 -0.4164 -0.5288
  912TIP3    H224372   5.264   3.613   7.596  0.4919 -1.8312 -0.8827
  913TIP3   OH224373   5.518   1.449   7.426  0.2023 -0.0698  0.1330
  913TIP3    H124374   5.562   1.389   7.366 -0.2753 -0.0230 -0.2679
  913TIP3    H224375   5.445   1.399   7.462  0.6493 -0.1865  0.8931
  914TIP3   OH224376   2.445   4.089   0.775  0.4023  0.0830  0.3504
  914TIP3    H124377   2.523   4.110   0.724 -0.8126 -0.8732 -2.0763
  914TIP3    H224378   2.449   4.148   0.850  1.9917  2.0756 -1.1726
  915TIP3   OH224379   5.890   6.128   8.055  0.1516  0.4218 -0.4405
  915TIP3    H124380   5.919   6.111   8.144 -1.8470  0.1929  0.2032
  915TIP3    H224381   5.914   6.048   8.007  0.7267  0.3152  0.0092
  916TIP3   OH224382   0.859   5.060   3.277 -0.5226  0.1217  0.2954
  916TIP3    H124383   0.941   5.096   3.310 -0.2149  0.8718 -1.1673
  916TIP3    H224384   0.855   4.971   3.313  1.5253 -0.3631 -0.4987
  917TIP3   OH224385   4.453   2.841   1.890  0.2755  0.2620 -0.7358
  917TIP3    H124386   4.414   2.862   1.974  0.2254 -0.4758 -0.5673
  917TIP3    H224387   4.505   2.918   1.867 -0.6453  0.9378 -0.5956
  918TIP3   OH224388   0.526   6.919   3.079 -0.1931  0.1317  1.1104
  918TIP3    H124389   0.467   6.852   3.044  1.3541  0.5060 -2.6494
  918TIP3    H224390   0.577   6.874   3.147 -1.7838 -1.3571  1.3787
  919TIP3   OH224391   3.227   4.530   7.914 -0.5142  0.0822 -0.2495
  919TIP3    H124392   3.152   4.535   7.854  0.2523  0.7503 -1.1766
  919TIP3    H224393   3.298   4.496   7.861 -0.1415 -0.5478  0.6292
  920TIP3   OH224394   0.009   4.262   2.352  0.6714  0.1300 -0.0669
  920TIP3    H124395   0.019   4.286   2.260  4.2614 -1.2822 -0.2145
  920TIP3    H224396   0.045   4.173   2.358 -0.4797 -0.2621  2.5185
  921TIP3   OH224397   5.340   4.993   2.630  0.3845  0.1093 -0.4020
  921TIP3    H124398   5.401   4.938   2.581 -1.3787 -0.6890 -1.8236
  921TIP3    H224399   5.266   4.936   2.650 -0.0650  1.1161  0.9921
  922TIP3   OH224400   0.494   0.512   7.806  0.4377 -0.1194  0.0458
  922TIP3    H124401   0.439   0.443   7.843 -0.9534  0.4587 -0.8756
  922TIP3    H224402   0.478   0.509   7.712 -0.1639  1.8524  0.0376
  923TIP3   OH224403   6.703   3.222   1.056 -0.5357 -0.1209  0.0495
  923TIP3    H124404   6.660   3.303   1.031  1.5203  1.7641  2.1214
  923TIP3    H224405   6.795   3.246   1.070 -0.4720 -1.8722  4.2112
  924TIP3   OH224406   3.849   5.115   7.097 -0.2199  1.0311 -0.0412
  924TIP3    H124407   3.915   5.139   7.162 -0.0117  1.4606 -0.4094
  924TIP3    H224408   3.885   5.146   7.014  0.5658 -1.4219 -0.7203
  925TIP3   OH224409   6.591   4.723   7.274 -0.5743 -0.1307  0.1383
  925TIP3    H124410   6.523   4.744   7.338  1.5329  0.8141  2.2337
  925TIP3    H224411   6.626   4.639   7.304  1.0043  0.7239  0.8691
  926TIP3   OH224412   4.040   0.105   7.725  0.0124  0.3540 -0.0223
  926TIP3    H124413   4.052   0.200   7.734  1.1891  0.1032  1.4804
  926TIP3    H224414   4.124   0.073   7.694  0.3474 -0.4317  1.6274
  927TIP3   OH224415   1.044   2.388   7.021 -0.2198 -0.3324 -0.1326
  927TIP3    H124416   1.074   2.433   7.099  0.5357  0.7902 -1.0362
  927TIP3    H224417   0.950   2.380   7.032 -0.3328  1.2521  0.1697
  928TIP3   OH224418   6.294   1.307   8.114 -0.2452  0.1390 -0.1612
  928TIP3    H124419   6.205   1.327   8.143 -0.6789  1.0136 -1.9714
  928TIP3    H224420   6.350   1.347   8.180 -1.1753 -0.3022  0.9319
  929TIP3   OH224421   3.821   6.993   7.628 -0.0050  0.0486 -0.4197
  929TIP3    H124422   3.870   6.920   7.667 -0.3143  1.2289  2.4688
  929TIP3    H224423   3.868   7.071   7.658 -1.7691  1.1140 -0.3257
  930TIP3   OH224424   1.135   5.050   8.183  0.2974 -0.2793 -0.0853
  930TIP3    H124425   1.071   4.981   8.196  0.0245  0.1998  1.2544
  930TIP3    H224426   1.207   5.007   8.136 -1.2962 -0.6331 -2.3809
  931TIP3   OH224427   5.921   4.386   0.703 -0.0067  0.1289  0.7234
  931TIP3    H124428   5.995   4.445   0.688 -0.5151  0.0424 -3.1809
  931TIP3    H224429   5.952   4.325   0.769  3.0276  0.7370  0.0044
  932TIP3   OH224430   0.578   6.898   2.692 -0.3806  0.1184 -0.2538
  932TIP3    H124431   0.573   6.968   2.757 -1.0436  0.7730 -0.9917
  932TIP3    H224432   0.659   6.916   2.644 -0.6327  0.4849 -0.5494
  933TIP3   OH224433   1.374   0.197   0.550 -0.2108 -0.4738 -0.0381
  933TIP3    H124434   1.373   0.229   0.460  0.8504 -1.8084 -0.5610
  933TIP3    H224435   1.324   0.115   0.546  0.9838 -1.2428  0.2709
  934TIP3   OH224436   2.353   5.218   8.144  0.3462  0.4551 -1.0199
  934TIP3    H124437   2.415   5.268   8.091  2.2952  1.8345  2.2814
  934TIP3    H224438   2.305   5.285   8.194  0.6370 -0.7959  1.0512
  935TIP3   OH224439   6.318   5.243   0.623 -0.3211 -0.0875  0.1280
  935TIP3    H124440   6.272   5.319   0.657 -2.7752 -0.0725 -2.8164
  935TIP3    H224441   6.369   5.276   0.548  0.1020 -1.0418 -0.0275
  936TIP3   OH224442   6.266   1.383   2.016 -0.6628 -0.3128  0.3818
  936TIP3    H124443   6.194   1.440   1.989 -0.7337  0.4348  1.9989
  936TIP3    H224444   6.227   1.295   2.017 -1.4927  0.0353  0.8948
  937TIP3   OH224445   6.508   2.341   0.297  0.8161  0.1904 -0.9984
  937TIP3    H124446   6.502   2.246   0.298  0.9152  0.1848 -0.3611
  937TIP3    H224447   6.491   2.366   0.206 -0.4533 -0.3487 -0.9213
  938TIP3   OH224448   2.053   2.905   7.609  0.2004  0.5128 -0.1306
  938TIP3    H124449   2.036   2.994   7.639 -0.8182 -0.3949  2.2214
  938TIP3    H224450   2.149   2.901   7.601  0.3895  1.4300  1.2053
  939TIP3   OH224451   1.301   1.871   1.952 -0.3567 -0.0022 -0.6011
  939TIP3    H124452   1.296   1.909   2.040  1.5584 -0.3480 -0.2981
  939TIP3    H224453   1.230   1.807   1.949 -0.1133 -0.3740  0.9023
  940TIP3   OH224454   0.019   0.981   8.283  0.1010 -0.1257  0.8444
  940TIP3    H124455  -0.023   0.928   8.351 -0.8837  1.3966  1.4940
  940TIP3    H224456  -0.028   0.959   8.203 -1.8061  1.2789  1.4933
  941TIP3   OH224457   0.867   6.771   1.132 -0.1427 -0.2798  0.0828
  941TIP3    H124458   0.873   6.687   1.176 -0.6204  0.2572  1.2082
  941TIP3    H224459   0.920   6.830   1.187 -0.4633  0.3248 -0.2527
  942TIP3   OH224460   1.009   3.391   1.886 -0.3787 -0.2598 -0.4122
  942TIP3    H124461   0.928   3.370   1.932 -0.6623 -0.4694 -0.9871
  942TIP3    H224462   1.040   3.471   1.928 -0.8874 -0.1749 -0.1829
  943TIP3   OH224463   1.294   4.353   3.003 -0.0894 -0.2771  0.4434
  943TIP3    H124464   1.220   4.403   3.038  0.6023  0.3670  1.0225
  943TIP3    H224465   1.357   4.420   2.976  0.2275 -0.8147 -0.1763
  944TIP3   OH224466   6.669   3.591   1.672  0.4113  0.2449  0.0137
  944TIP3    H124467   6.661   3.637   1.756 -0.4197 -0.8899  0.5833
  944TIP3    H224468   6.578   3.575   1.645  0.6795  0.1268 -0.8365
  945TIP3   OH224469   4.705   7.021   8.382 -0.3350  0.0122 -0.6430
  945TIP3    H124470   4.660   6.958   8.324  0.0783  0.0510 -1.0100
  945TIP3    H224471   4.710   7.101   8.330  1.0235 -0.2737 -0.9879
  946TIP3   OH224472   5.125   5.134   8.320 -0.0851  0.1052 -0.5078
  946TIP3    H124473   5.084   5.072   8.260  0.0471 -0.3513 -0.1283
  946TIP3    H224474   5.161   5.202   8.263  0.9555 -0.8587 -1.0419
  947TIP3   OH224475   2.729   6.762   1.925  0.3936  0.2843  0.3977
  947TIP3    H124476   2.708   6.785   1.834 -1.4789  0.2030  0.7761
  947TIP3    H224477   2.667   6.694   1.948  0.5550  0.6070  1.8919
  948TIP3   OH224478   4.811   0.852   0.932  0.0676  0.0960 -0.2039
  948TIP3    H124479   4.860   0.933   0.946 -1.4024  0.5894  2.9636
  948TIP3    H224480   4.874   0.792   0.891  2.4105  1.6282  0.9387
  949TIP3   OH224481   6.247   0.611   7.687  0.0948  0.0378  0.4488
  949TIP3    H124482   6.182   0.621   7.617  2.4914 -1.2515 -2.1856
  949TIP3    H224483   6.272   0.700   7.710  0.9066  0.5498 -2.1233
  950TIP3   OH224484   0.046   3.848   1.538  1.1509  0.3601  0.2135
  950TIP3    H124485   0.035   3.885   1.450  1.2288 -1.9557 -0.8332
  950TIP3    H224486   0.131   3.882   1.567  0.8952  1.5639 -0.3605
  951TIP3   OH224487   0.891   1.552   7.782 -0.0961 -0.7130  0.5247
  951TIP3    H124488   0.972   1.597   7.806 -0.7211 -0.4640  2.2755
  951TIP3    H224489   0.838   1.552   7.862 -0.8198 -3.0615  0.1386
  952TIP3   OH224490   3.609   6.059   7.307  0.5551  0.1392 -0.0739
  952TIP3    H124491   3.539   6.064   7.242  0.4811 -0.1984 -0.0218
  952TIP3    H224492   3.656   6.142   7.298 -0.5937  0.9118  0.7284
  953TIP3   OH224493   5.867   2.407   7.866  0.2179 -0.0119 -0.1128
  953TIP3    H124494   5.832   2.488   7.830  0.8285 -0.1000 -0.9490
  953TIP3    H224495   5.846   2.410   7.959 -0.9202  0.4897 -0.3734
  954TIP3   OH224496   1.307   1.890   3.022  0.3929 -0.0515 -0.0339
  954TIP3    H124497   1.399   1.904   3.044  1.2284  0.6876 -3.3231
  954TIP3    H224498   1.279   1.975   2.986 -2.1574  0.2606  2.3556
  955TIP3   OH224499   5.167   1.210   6.688 -0.5239  0.0998 -0.4043
  955TIP3    H124500   5.117   1.151   6.631 -1.1921 -0.4729  0.7382
  955TIP3    H224501   5.258   1.182   6.677 -0.7340 -0.5276 -0.5828
  956TIP3   OH224502   0.499   5.144   2.749 -0.5989 -0.3584 -0.5105
  956TIP3    H124503   0.476   5.097   2.669  0.7807 -0.9197 -0.6039
  956TIP3    H224504   0.438   5.217   2.752 -1.1939 -0.7802 -1.6486
  957TIP3   OH224505   2.672   6.045   0.316  0.3597  0.3867  0.1897
  957TIP3    H124506   2.659   5.953   0.339  3.0600 -0.2065 -0.2866
  957TIP3    H224507   2.633   6.094   0.388  2.2606 -1.2449  2.4729
  958TIP3   OH224508   2.492   1.933   0.570  0.3692  0.5998 -0.4571
  958TIP3    H124509   2.549   1.889   0.506  1.1066 -0.6170  0.9820
  958TIP3    H224510   2.551   1.957   0.641 -0.9329 -1.2238  1.3483
  959TIP3   OH224511   0.150   0.356   7.631 -0.1136  0.3811  0.0844
  959TIP3    H124512   0.187   0.268   7.627  0.2361  0.5675 -2.0229
  959TIP3    H224513   0.066   0.348   7.586  0.8371  1.4622 -2.0781
  960TIP3   OH224514   2.174   0.726   1.411  0.4322 -0.0922  0.1467
  960TIP3    H124515   2.102   0.693   1.465  0.8191 -0.7791  0.2597
  960TIP3    H224516   2.140   0.727   1.322  0.8155 -2.1345 -0.0799
  961TIP3   OH224517   0.671   5.649   1.308  0.0049 -0.4151  0.3517
  961TIP3    H124518   0.711   5.566   1.335 -1.7154 -1.3241  0.2971
  961TIP3    H224519   0.578   5.639   1.331 -0.1041  1.8680  1.1613
  962TIP3   OH224520   1.961   2.970   2.178 -0.0298  0.3897  0.4818
  962TIP3    H124521   1.962   3.049   2.233  1.2812 -0.0749  1.1599
  962TIP3    H224522   2.004   2.998   2.097 -1.9398  1.0672 -0.3768
  963TIP3   OH224523   6.220   6.898   7.654  0.0028 -0.1322  0.8420
  963TIP3    H124524   6.167   6.891   7.575 -3.6167 -2.2256  3.1887
  963TIP3    H224525   6.270   6.817   7.657  1.9401  0.9399 -0.3105
  964TIP3   OH224526   2.944   6.911   1.992 -0.0136 -0.0369  0.1326
  964TIP3    H124527   2.995   6.865   2.058  0.2552 -0.1955 -0.1800
  964TIP3    H224528   2.892   6.842   1.950  2.6124 -0.6642 -2.4249
  965TIP3   OH224529   2.602   0.444   0.209  0.0791 -0.2040 -0.4584
  965TIP3    H124530   2.539   0.431   0.138 -0.9016  0.8961  0.1816
  965TIP3    H224531   2.614   0.539   0.213  0.0309 -0.2409  0.9241
  966TIP3   OH224532   5.065   6.901   6.879 -0.5301 -0.1499  0.6349
  966TIP3    H124533   5.098   6.941   6.799  1.4469 -1.2697  0.8315
  966TIP3    H224534   5.046   6.810   6.856 -0.0117 -0.4655  1.3829
  967TIP3   OH224535   4.307   1.673   1.754  0.0378  0.4789  0.3522
  967TIP3    H124536   4.283   1.735   1.685 -0.7219 -0.3271 -0.1346
  967TIP3    H224537   4.246   1.691   1.825 -0.3780  0.1127  0.0967
  968TIP3   OH224538   2.282   3.917   2.507  0.5517 -0.0931  0.3556
  968TIP3    H124539   2.192   3.900   2.480  0.4950  0.0694  0.4448
  968TIP3    H224540   2.299   3.852   2.574  0.3647  0.1402  0.6307
  969TIP3   OH224541   3.802   3.960   2.568  0.3952  0.5216 -0.2762
  969TIP3    H124542   3.825   4.021   2.638 -0.6085  0.5733  0.0222
  969TIP3    H224543   3.806   3.874   2.609 -0.5952  0.5827 -0.0353
  970TIP3   OH224544   6.884   5.241   1.591  0.5145 -0.0393 -0.6687
  970TIP3    H124545   6.930   5.158   1.607  0.7485  0.2777  0.3784
  970TIP3    H224546   6.876   5.245   1.495  2.3853 -0.2617 -0.8823
  971TIP3   OH224547   3.232   2.424   7.255  0.3767 -0.5729  0.7316
  971TIP3    H124548   3.210   2.332   7.240  2.5407 -0.7469 -2.3037
  971TIP3    H224549   3.154   2.472   7.228  0.1787 -1.4492 -0.3414
  972TIP3   OH224550   1.359   4.616   7.833  0.6119 -0.1209 -0.2566
  972TIP3    H124551   1.351   4.669   7.753 -0.1037 -0.3476 -0.3488
  972TIP3    H224552   1.294   4.546   7.821  0.2301  0.0644  0.6961
  973TIP3   OH224553   6.687   4.698   1.887  0.1613  0.7606 -0.5772
  973TIP3    H124554   6.612   4.653   1.925 -0.3010  1.0877 -1.0824
  973TIP3    H224555   6.681   4.680   1.793  1.6326 -0.5396 -0.4635
  974TIP3   OH224556   6.818   6.612   0.089 -0.0377 -0.0518  0.5162
  974TIP3    H124557   6.891   6.595   0.148  0.2697 -0.5228  0.0134
  974TIP3    H224558   6.754   6.543   0.108  0.7878 -1.2497 -0.8460
  975TIP3   OH224559   1.331   0.941   1.731  0.1161 -0.4094  0.0563
  975TIP3    H124560   1.311   0.850   1.754  1.7071 -0.6403  0.5920
  975TIP3    H224561   1.376   0.976   1.807  0.4242  0.5302 -0.5444
  976TIP3   OH224562   6.145   5.196   6.693 -0.0642 -0.1644 -0.2518
  976TIP3    H124563   6.211   5.264   6.680 -1.5201  1.2853 -0.2533
  976TIP3    H224564   6.167   5.157   6.778  0.3702  0.7736  0.0709
  977TIP3   OH224565   5.367   3.787   2.191 -0.4368  0.1628  0.5178
  977TIP3    H124566   5.430   3.717   2.207 -1.0357 -0.1285  1.6731
  977TIP3    H224567   5.356   3.829   2.276  1.2453  2.8237 -0.4402
  978TIP3   OH224568   2.324   6.313   2.463 -0.1815  0.3947 -0.0377
  978TIP3    H124569   2.346   6.391   2.513 -0.5959 -0.2553  1.1859
  978TIP3    H224570   2.405   6.262   2.461 -0.0710  0.5773 -0.3396
  979TIP3   OH224571   3.568   5.659   2.117  0.0395  0.6183  0.1676
  979TIP3    H124572   3.607   5.684   2.034 -0.2605 -0.3230 -0.2690
  979TIP3    H224573   3.483   5.621   2.094  0.2856 -0.3668  0.8295
  980TIP3   OH224574   2.768   4.885   2.431 -0.2788 -0.3131 -0.0504
  980TIP3    H124575   2.724   4.877   2.346 -2.5501 -0.5278  1.0727
  980TIP3    H224576   2.835   4.817   2.429  0.2899  0.2281 -1.9676
  981TIP3   OH224577   4.526   2.556   1.951  0.7038 -0.0626  0.2387
  981TIP3    H124578   4.503   2.649   1.941  0.4218 -0.0687  0.7801
  981TIP3    H224579   4.555   2.548   2.042 -1.3224 -0.9123  0.8751
  982TIP3   OH224580   4.965   6.372   2.443 -0.1936  0.3789  0.1408
  982TIP3    H124581   4.889   6.337   2.488 -0.9038  1.6166 -0.0364
  982TIP3    H224582   5.012   6.295   2.411 -0.1668 -0.5065  2.1329
  983TIP3   OH224583   6.096   3.455   0.387  0.2331  1.0478  0.2445
  983TIP3    H124584   6.030   3.479   0.322  0.8433 -1.1746 -1.3211
  983TIP3    H224585   6.179   3.484   0.349  0.8007 -1.8762 -0.9455
  984TIP3   OH224586   6.710   6.888   1.480 -0.0944 -0.2294  0.0776
  984TIP3    H124587   6.719   6.906   1.573 -0.7659  0.0334  0.1033
  984TIP3    H224588   6.720   6.793   1.472  1.9300 -0.0521  0.1480
  985TIP3   OH224589   0.028   3.895   2.992  0.3802  0.3408 -0.3461
  985TIP3    H124590   0.118   3.864   3.002  0.2276 -1.3432 -2.9869
  985TIP3    H224591  -0.025   3.830   3.038  0.4176 -0.0802 -0.8773
  986TIP3   OH224592   4.565   6.132   2.679  0.2057 -0.1882  0.3075
  986TIP3    H124593   4.513   6.164   2.753 -2.2686  1.0141 -1.8085
  986TIP3    H224594   4.573   6.038   2.695  1.0415  0.2201  2.7939
  987TIP3   OH224595   0.742   6.273   2.994 -0.0456  0.3804 -0.0984
  987TIP3    H124596   0.674   6.229   2.944 -1.9548 -1.7014  3.8782
  987TIP3    H224597   0.823   6.227   2.971 -1.0301 -1.2377 -0.4711
  988TIP3   OH224598   1.693   5.097   1.767 -0.2787 -0.1822  0.1627
  988TIP3    H124599   1.619   5.041   1.743  0.7947 -0.8637 -1.7960
  988TIP3    H224600   1.693   5.166   1.700 -0.0213  0.6705  1.0261
  989TIP3   OH224601   2.045   6.606   1.088 -0.2052 -0.1665  0.6301
  989TIP3    H124602   2.092   6.667   1.031  0.2831 -2.0633 -1.0795
  989TIP3    H224603   2.056   6.643   1.176  0.8142  1.7127 -0.2240
  990TIP3   OH224604   5.270   5.915   2.936 -0.0289 -0.0822 -0.3474
  990TIP3    H124605   5.346   5.951   2.891  0.6070 -0.7255  0.2040
  990TIP3    H224606   5.236   5.848   2.876  0.9593 -1.1069  0.2151
  991TIP3   OH224607   2.263   3.759   0.154 -0.1508 -0.3927  0.1726
  991TIP3    H124608   2.250   3.725   0.242 -1.0748  0.3561  0.3413
  991TIP3    H224609   2.175   3.784   0.125  0.4716  1.8092  0.0575
  992TIP3   OH224610   1.383   6.597   0.811  0.5721  0.2729  0.4264
  992TIP3    H124611   1.456   6.577   0.753  0.0714 -0.7119  0.0917
  992TIP3    H224612   1.390   6.532   0.881  0.0270  0.1675  0.3887
  993TIP3   OH224613   3.104   4.932   3.293 -0.1634  0.2169 -0.8107
  993TIP3    H124614   3.027   4.886   3.326  0.7563  1.0537  3.0541
  993TIP3    H224615   3.079   5.025   3.295  0.7813  0.4807  0.2990
  994TIP3   OH224616   1.560   3.359   2.899 -0.1626  0.2405 -0.0447
  994TIP3    H124617   1.623   3.348   2.970  0.7716  2.9520 -0.3537
  994TIP3    H224618   1.596   3.306   2.827  1.5516  1.3512 -0.0553
  995TIP3   OH224619   3.251   2.766   2.369  0.7010  0.0290 -0.1160
  995TIP3    H124620   3.207   2.753   2.284  0.5832 -1.6759  0.1709
  995TIP3    H224621   3.344   2.763   2.348  0.6788  0.4634 -0.2929
  996TIP3   OH224622   5.891   6.349   1.849  0.1770 -0.1753 -0.1658
  996TIP3    H124623   5.889   6.425   1.792  0.6115 -0.2904 -0.3440
  996TIP3    H224624   5.849   6.377   1.930 -0.9596 -0.1772 -0.7352
  997TIP3   OH224625   1.741   2.277   0.186  0.2383  0.4194  0.6398
  997TIP3    H124626   1.823   2.249   0.146  0.1124 -0.3820  0.9115
  997TIP3    H224627   1.759   2.278   0.280 -0.9540 -3.1278  1.0465
  998TIP3   OH224628   2.590   5.679   7.964 -0.1208  0.1908 -0.6914
  998TIP3    H124629   2.531   5.705   7.894 -1.7042  0.6233  0.7352
  998TIP3    H224630   2.564   5.589   7.985  0.3869  0.0415 -0.6926
  999TIP3   OH224631   2.985   0.989   7.988 -0.3192 -0.6009  0.2550
  999TIP3    H124632   2.896   1.024   7.996 -0.9581 -2.1543  0.1906
  999TIP3    H224633   3.040   1.067   7.977 -1.4010  0.5485  2.3441
 1000TIP3   OH224634   5.643   2.782   0.550  0.4741  0.1508  0.2168
 1000TIP3    H124635   5.611   2.868   0.578 -0.7753 -0.4662  0.7849
 1000TIP3    H224636   5.597   2.765   0.467  2.5715  1.0570 -1.2052
 1001TIP3   OH224637   6.317   6.594   0.738 -0.1673 -0.4808 -0.4061
 1001TIP3    H124638   6.324   6.560   0.827 -3.3477 -0.4646 -0.0282
 1001TIP3    H224639   6.390   6.656   0.730 -0.1083 -0.0568  2.3666
 1002TIP3   OH224640   4.928   4.526   8.025  0.6637 -0.3943 -0.2916
 1002TIP3    H124641   5.024   4.530   8.017  0.5525 -1.1163 -2.4159
 1002TIP3    H224642   4.897   4.607   7.986  0.3478 -1.2066 -1.8062
 1003TIP3   OH224643   4.832   2.828   7.319 -0.1193 -0.5869 -0.3939
 1003TIP3    H124644   4.832   2.920   7.344  1.3790 -0.6759  0.0507
 1003TIP3    H224645   4.904   2.790   7.369  0.2919 -1.6581 -1.7310
 1004TIP3   OH224646   1.125   4.353   3.719 -0.2850 -0.1113 -0.2368
 1004TIP3    H124647   1.069   4.399   3.782 -1.5591 -0.6695 -0.9091
 1004TIP3    H224648   1.064   4.298   3.670  0.8473 -0.5730 -1.1585
 1005TIP3   OH224649   5.882   5.332   0.442 -0.1717 -0.1307  0.0674
 1005TIP3    H124650   5.809   5.339   0.504  0.7355  0.5874  1.1051
 1005TIP3    H224651   5.883   5.240   0.416 -0.0043 -0.7002  1.9148
 1006TIP3   OH224652   3.554   6.377   7.680 -0.4426 -0.3291  0.2072
 1006TIP3    H124653   3.605   6.305   7.643  0.5263 -0.3516  1.5120
 1006TIP3    H224654   3.585   6.454   7.634  0.9702 -0.3130  1.1467
 1007TIP3   OH224655   1.436   0.736   0.966 -0.3061  0.2978 -0.4127
 1007TIP3    H124656   1.476   0.737   0.879  0.6782 -0.3553  0.0049
 1007TIP3    H224657   1.344   0.716   0.950  0.3378 -2.5494 -1.1920
 1008TIP3   OH224658   0.828   1.398   7.997  0.2398 -0.1806  0.5268
 1008TIP3    H124659   0.804   1.481   8.038  2.2899  0.8933 -0.3108
 1008TIP3    H224660   0.920   1.385   8.022 -0.4136 -3.0151  1.8965
 1009TIP3   OH224661   2.220   0.413   0.434 -0.6409 -0.4339 -0.0801
 1009TIP3    H124662   2.255   0.473   0.368  1.3145 -0.9371  0.4460
 1009TIP3    H224663   2.129   0.440   0.444  0.2055  2.6323  0.3340
 1010TIP3   OH224664   0.301   4.627   2.036 -0.0006  0.2622 -0.3863
 1010TIP3    H124665   0.294   4.573   1.958  0.4892  0.5169 -0.6114
 1010TIP3    H224666   0.242   4.700   2.019 -0.1263  0.1601 -0.3877
 1011TIP3   OH224667   3.956   1.557   1.166  0.4858  0.1168  0.4332
 1011TIP3    H124668   3.908   1.476   1.180  0.2259  0.0052 -0.9331
 1011TIP3    H224669   4.042   1.541   1.205  0.7743 -1.2052 -0.6294
 1012TIP3   OH224670   6.067   2.803   8.258  0.0010  0.2908  0.2258
 1012TIP3    H124671   5.986   2.841   8.292 -0.7463 -2.0451  1.2973
 1012TIP3    H224672   6.109   2.763   8.335  0.4448 -1.4194 -0.8454
 1013TIP3   OH224673   6.790   6.890   0.789 -0.5279 -0.7506 -0.3662
 1013TIP3    H124674   6.849   6.955   0.751  0.7280 -1.3694  0.4640
 1013TIP3    H224675   6.836   6.858   0.866 -2.2911 -0.7422  0.7313
 1014TIP3   OH224676   6.372   0.917   2.207 -0.1021  0.1447 -0.5259
 1014TIP3    H124677   6.414   0.951   2.129  0.4838 -0.9358 -0.7031
 1014TIP3    H224678   6.318   0.844   2.175 -1.1054  0.6851 -0.1258
 1015TIP3   OH224679   3.673   6.617   8.142  0.4233  0.4887  0.1826
 1015TIP3    H124680   3.756   6.591   8.183  0.5038  1.9626  0.9996
 1015TIP3    H224681   3.607   6.566   8.189  0.4413  2.5858  2.7327
 1016TIP3   OH224682   5.890   1.643   2.974 -0.0936  0.1920  0.5511
 1016TIP3    H124683   5.815   1.588   2.996 -0.5564  0.3986 -0.4430
 1016TIP3    H224684   5.909   1.691   3.054  0.9760 -2.1039  1.7822
 1017TIP3   OH224685   5.918   6.190   0.661 -0.2037 -0.2473 -0.7813
 1017TIP3    H124686   5.854   6.153   0.722 -0.0998  0.2048 -0.3954
 1017TIP3    H224687   5.926   6.282   0.687  0.0353 -0.1129 -1.3127
 1018TIP3   OH224688   0.927   0.518   8.177  0.5403  0.9427 -0.4763
 1018TIP3    H124689   0.905   0.609   8.159 -1.9527  0.3644 -0.7070
 1018TIP3    H224690   0.960   0.484   8.094 -1.7707  0.8039 -1.4115
 1019TIP3   OH224691   1.157   1.469   3.068 -0.1592  0.3978  0.0058
 1019TIP3    H124692   1.127   1.553   3.104 -0.7808 -0.2581  1.0741
 1019TIP3    H224693   1.252   1.474   3.070 -0.1913  1.0782  0.0593
 1020TIP3   OH224694   5.631   4.105   7.652  0.9651  0.2481 -0.4853
 1020TIP3    H124695   5.681   4.120   7.572 -0.1095  1.3333 -0.9800
 1020TIP3    H224696   5.543   4.135   7.631  0.4915 -0.1167  0.8889
 1021TIP3   OH224697   6.954   6.622   7.290  0.2295 -0.0360 -0.4881
 1021TIP3    H124698   7.015   6.681   7.246 -1.0217  0.6393 -1.4010
 1021TIP3    H224699   6.928   6.559   7.222  0.5550 -0.8455  0.1216
 1022TIP3   OH224700   0.348   4.377   8.084  0.0756 -0.8929  0.0551
 1022TIP3    H124701   0.374   4.303   8.140 -0.4020 -0.7187  0.5170
 1022TIP3    H224702   0.303   4.437   8.144 -0.0475 -0.4946 -0.4330
 1023TIP3   OH224703   4.386   3.474   1.725 -0.0430  0.7590 -0.2802
 1023TIP3    H124704   4.309   3.431   1.687  0.1859  0.7233 -0.7084
 1023TIP3    H224705   4.451   3.473   1.655  1.1119 -1.1558  0.7428
 1024TIP3   OH224706   1.259   0.184   1.365  0.0275  0.1925  0.9301
 1024TIP3    H124707   1.218   0.260   1.325  0.3343  0.1434  0.5152
 1024TIP3    H224708   1.188   0.138   1.409 -0.7729 -1.0184 -1.4846
 1025TIP3   OH224709   5.036   2.727   0.518  0.0279 -0.0428 -0.6049
 1025TIP3    H124710   5.104   2.766   0.573 -0.9743 -0.3610  0.9222
 1025TIP3    H224711   5.082   2.662   0.465  1.5020  2.1658 -2.2286
 1026TIP3   OH224712   5.226   6.750   0.584  0.8743 -0.8550 -0.1558
 1026TIP3    H124713   5.225   6.789   0.496  2.4689 -1.3838 -0.4466
 1026TIP3    H224714   5.288   6.805   0.633 -0.0335 -0.5391  0.6775
 1027TIP3   OH224715   0.103   6.329   6.476 -0.1142 -0.5256  0.0496
 1027TIP3    H124716   0.007   6.332   6.476 -0.1093  0.0589 -0.8207
 1027TIP3    H224717   0.124   6.250   6.427 -0.1710  0.6554 -1.9983
 1028TIP3   OH224718   3.586   0.282   1.639 -0.2773  1.4393  0.2424
 1028TIP3    H124719   3.582   0.325   1.725 -0.9161  0.2398  0.8365
 1028TIP3    H224720   3.513   0.221   1.639  1.6304 -1.0011  0.1811
 1029TIP3   OH224721   3.009   5.441   1.141 -0.4471 -0.6824  0.1016
 1029TIP3    H124722   3.010   5.456   1.047 -1.9313  2.2208  0.4521
 1029TIP3    H224723   3.055   5.517   1.178  1.5488 -2.5410  1.7310
 1030TIP3   OH224724   1.181   1.791   0.371  0.3609  0.4671 -0.3621
 1030TIP3    H124725   1.227   1.841   0.438  1.3941  2.7377 -2.5917
 1030TIP3    H224726   1.118   1.852   0.334 -0.3629 -0.7810 -1.2747
 1031TIP3   OH224727   1.047   0.509   2.509  0.3838  0.8274 -0.1310
 1031TIP3    H124728   0.971   0.463   2.471 -0.9878  1.8950  1.2185
 1031TIP3    H224729   1.082   0.560   2.436  0.4256 -0.4168 -1.0235
 1032TIP3   OH224730   3.707   3.712   0.507 -1.0109 -0.1618 -0.3695
 1032TIP3    H124731   3.800   3.735   0.510 -0.8471 -0.8743  1.8599
 1032TIP3    H224732   3.680   3.734   0.418  1.3588 -0.2542 -1.1868
 1033TIP3   OH224733   3.197   3.863   7.732  0.0702 -0.4038 -0.2267
 1033TIP3    H124734   3.160   3.775   7.735 -0.0708 -0.5481 -3.2617
 1033TIP3    H224735   3.280   3.854   7.685 -0.1815  1.1136 -1.0477
 1034TIP3   OH224736   2.853   4.955   1.554 -0.0993 -0.5568  0.4504
 1034TIP3    H124737   2.766   4.923   1.532 -0.2581 -0.5733  1.0811
 1034TIP3    H224738   2.857   5.042   1.515 -0.0755 -0.8950 -0.3145
 1035TIP3   OH224739   3.625   4.770   0.089 -0.1309 -0.2345 -0.2182
 1035TIP3    H124740   3.669   4.847   0.053 -1.3777  0.5045 -0.2149
 1035TIP3    H224741   3.586   4.801   0.171  0.8128 -1.3370  0.6901
 1036TIP3   OH224742   6.343   4.602   1.050 -0.9378  0.8287  0.4606
 1036TIP3    H124743   6.429   4.590   1.090 -1.2439 -1.9111  0.5087
 1036TIP3    H224744   6.355   4.672   0.986  1.5258  0.0137 -0.0576
 1037TIP3   OH224745   1.122   2.235   2.141 -0.5124  0.0882  0.0731
 1037TIP3    H124746   1.145   2.324   2.166 -0.8019  0.3573 -0.5974
 1037TIP3    H224747   1.168   2.180   2.204 -0.6181  0.7189  0.7155
 1038TIP3   OH224748   3.143   4.183   8.238 -0.4729 -0.3288 -0.2359
 1038TIP3    H124749   3.103   4.144   8.316  0.5337  0.1156  0.5218
 1038TIP3    H224750   3.236   4.186   8.257 -0.4983  2.6189 -0.1595
 1039TIP3   OH224751   3.025   1.859   7.750  0.0901  0.0587  0.0643
 1039TIP3    H124752   3.050   1.871   7.658 -1.9452  2.5433 -0.3091
 1039TIP3    H224753   3.099   1.894   7.800 -0.2084  2.1363 -0.8158
 1040TIP3   OH224754   4.629   4.944   0.181  0.3161 -0.3316 -0.5225
 1040TIP3    H124755   4.600   4.853   0.175  0.4108 -0.3973  0.0059
 1040TIP3    H224756   4.561   4.989   0.231  0.9287 -0.4086  0.4039
 1041TIP3   OH224757   1.122   2.659   0.015 -0.4794 -0.8836  0.0648
 1041TIP3    H124758   1.057   2.652  -0.056 -0.0258  0.9883 -0.5997
 1041TIP3    H224759   1.103   2.744   0.056  2.5365  0.5578 -1.2240
 1042TIP3   OH224760   2.685   2.024   1.758  0.2970 -0.4553 -0.4597
 1042TIP3    H124761   2.740   1.989   1.829 -0.4572 -0.6345  0.0459
 1042TIP3    H224762   2.602   2.045   1.800  0.1840  0.4099 -1.0965
 1043TIP3   OH224763   0.847   4.691   6.955  0.1237 -0.0616 -0.2243
 1043TIP3    H124764   0.934   4.717   6.986  0.3304 -0.0656 -0.7889
 1043TIP3    H224765   0.825   4.614   7.008 -0.7673  1.5756  1.9259
 1044TIP3   OH224766   0.393   0.157   7.623  0.2483 -0.3344 -0.2706
 1044TIP3    H124767   0.384   0.079   7.568  1.1780 -0.8729  0.3239
 1044TIP3    H224768   0.427   0.125   7.706 -1.9730  0.3566  0.9774
 1045TIP3   OH224769   0.324   0.538   7.540  0.2895 -0.1935  0.1652
 1045TIP3    H124770   0.409   0.514   7.506  0.6206  1.2836 -0.1244
 1045TIP3    H224771   0.280   0.455   7.557  1.9656 -0.9883  0.8051
 1046TIP3   OH224772   1.993   6.175   0.579 -0.0027  0.1294 -0.4006
 1046TIP3    H124773   1.942   6.169   0.660  1.8920  0.8676  0.9451
 1046TIP3    H224774   2.022   6.267   0.576  0.3300  0.0021 -1.6862
 1047TIP3   OH224775   1.568   5.752   2.277 -0.1350 -0.2313  0.1444
 1047TIP3    H124776   1.625   5.710   2.342 -2.4030  0.5168  2.8525
 1047TIP3    H224777   1.485   5.705   2.285 -1.5508  2.1643  0.4394
 1048TIP3   OH224778   6.087   4.308   1.475  0.3394 -0.0009  0.3018
 1048TIP3    H124779   6.003   4.279   1.438  1.0473 -0.7536 -0.7470
 1048TIP3    H224780   6.097   4.398   1.446 -0.7661  0.5897  1.6290
 1049TIP3   OH224781   4.231   0.880   0.132 -0.3211 -0.4705 -0.4245
 1049TIP3    H124782   4.231   0.922   0.218 -1.1952  0.0617 -0.6767
 1049TIP3    H224783   4.319   0.897   0.098 -0.8005  1.7347 -0.7613
 1050TIP3   OH224784   3.275   6.569   2.315  0.5955  0.4452  0.5855
 1050TIP3    H124785   3.361   6.579   2.274  0.9878  1.5804  1.5899
 1050TIP3    H224786   3.293   6.576   2.409 -0.3323 -1.4976  0.9593
 1051TIP3   OH224787   3.931   3.354   3.086  0.0135 -0.1756 -0.3146
 1051TIP3    H124788   3.948   3.379   2.996 -0.8286  1.6495 -0.0041
 1051TIP3    H224789   3.995   3.403   3.138  1.1887 -2.0000  0.0501
 1052TIP3   OH224790   3.943   5.872   8.098  0.0150  0.5481  0.8620
 1052TIP3    H124791   3.913   5.854   8.009 -0.6837 -4.4835  1.8218
 1052TIP3    H224792   3.863   5.891   8.147  0.4785  4.2890  0.4775
 1053TIP3   OH224793   4.603   0.857   7.152  0.3904 -0.4368  0.3576
 1053TIP3    H124794   4.552   0.915   7.208 -0.7166 -0.5126 -0.5395
 1053TIP3    H224795   4.645   0.916   7.089  2.3100 -0.2614  1.7118
 1054TIP3   OH224796   5.687   2.101   1.596 -0.2227 -0.5037  0.1123
 1054TIP3    H124797   5.670   2.030   1.534 -0.9533 -0.6508  0.4674
 1054TIP3    H224798   5.645   2.072   1.677 -1.1642  0.6441  0.0646
 1055TIP3   OH224799   4.790   1.714   7.717  0.2590 -0.1346 -0.6650
 1055TIP3    H124800   4.839   1.637   7.688  0.0301 -1.2139  1.5512
 1055TIP3    H224801   4.797   1.712   7.812 -1.4588  1.4594 -0.4466
 1056TIP3   OH224802   3.834   0.368   0.231 -0.0395 -0.1804 -0.1144
 1056TIP3    H124803   3.928   0.365   0.212  0.0340 -2.5499  0.3146
 1056TIP3    H224804   3.826   0.335   0.320 -1.3789 -1.3515 -0.6326
 1057TIP3   OH224805   5.330   4.745   2.194  0.0244  0.0776  0.5976
 1057TIP3    H124806   5.398   4.791   2.146 -1.8326 -0.3950 -2.8204
 1057TIP3    H224807   5.294   4.810   2.253  0.9176  1.4477 -0.3150
 1058TIP3   OH224808   2.557   0.680   0.549  0.0529  0.4937  0.1316
 1058TIP3    H124809   2.481   0.628   0.575  1.0387  0.0829  2.4142
 1058TIP3    H224810   2.632   0.627   0.574  1.1938  0.4835 -2.8988
 1059TIP3   OH224811   3.241   5.225   2.738 -0.2735 -0.0968 -0.0366
 1059TIP3    H124812   3.284   5.305   2.769 -0.2590 -0.5900  1.2507
 1059TIP3    H224813   3.165   5.215   2.795  0.1391 -1.4091  0.3077
 1060TIP3   OH224814   3.865   4.668   1.983  0.4945 -0.7341  0.3925
 1060TIP3    H124815   3.771   4.656   1.994  0.4320  0.1270  0.9268
 1060TIP3    H224816   3.876   4.694   1.892 -0.3025  3.2805  1.2449
 1061TIP3   OH224817   5.356   0.806   1.681  0.1118 -0.2965  0.0437
 1061TIP3    H124818   5.316   0.743   1.742  0.0890  0.2967  0.6558
 1061TIP3    H224819   5.434   0.762   1.649 -0.2237 -0.8723  0.0050
 1062TIP3   OH224820   6.809   4.745   8.019  0.5478 -0.0874  0.2813
 1062TIP3    H124821   6.726   4.791   8.026  0.4059  0.0473 -1.6835
 1062TIP3    H224822   6.867   4.805   7.972  1.1931 -0.8574  0.0549
 1063TIP3   OH224823   3.271   4.735   2.163 -0.5554 -0.6934  0.1134
 1063TIP3    H124824   3.182   4.761   2.139 -0.7670 -0.9322  0.6051
 1063TIP3    H224825   3.319   4.817   2.171 -0.3838 -0.6238 -1.4385
 1064TIP3   OH224826   3.582   6.678   7.801  0.2995  0.1709 -0.1257
 1064TIP3    H124827   3.613   6.650   7.715 -0.5889  0.4929 -0.5642
 1064TIP3    H224828   3.605   6.771   7.805 -0.3949  0.3608 -0.3695
 1065TIP3   OH224829   2.065   1.335   0.608  0.7625 -0.6625 -0.2409
 1065TIP3    H124830   2.158   1.321   0.623  0.7476  0.2402  0.8753
 1065TIP3    H224831   2.054   1.430   0.617 -0.2253 -0.7378 -0.5755
 1066TIP3   OH224832   4.814   2.088   0.277 -0.4374 -0.7355  0.2080
 1066TIP3    H124833   4.898   2.056   0.244 -0.6709 -0.6692 -0.4811
 1066TIP3    H224834   4.830   2.107   0.369  0.5292  0.0200 -0.0944
 1067TIP3   OH224835   6.628   0.130   0.827 -0.4116 -0.7847 -0.1347
 1067TIP3    H124836   6.689   0.112   0.755  0.0471 -1.9444  0.5238
 1067TIP3    H224837   6.684   0.152   0.901 -0.8560 -0.2976  0.0619
 1068TIP3   OH224838   1.419   6.168   7.955  0.5054 -0.0500 -0.0604
 1068TIP3    H124839   1.389   6.173   8.045  1.1563  2.0838  0.1042
 1068TIP3    H224840   1.492   6.105   7.957  0.0887 -0.5171  0.7500
 1069TIP3   OH224841   3.556   2.811   7.902  0.4366 -0.1882 -0.0189
 1069TIP3    H124842   3.468   2.794   7.936  0.5903 -0.8057  0.0865
 1069TIP3    H224843   3.614   2.771   7.966  0.9274  2.2260  1.1796
 1070TIP3   OH224844   5.131   2.120   1.236 -0.1934 -0.8224 -0.4842
 1070TIP3    H124845   5.214   2.146   1.277 -1.8325  0.8208  2.0747
 1070TIP3    H224846   5.104   2.043   1.285 -0.4345 -1.0628 -0.9886
 1071TIP3   OH224847   6.859   2.573   0.328 -0.2734 -0.1675  0.1511
 1071TIP3    H124848   6.842   2.660   0.291 -0.2513  0.2500  1.0865
 1071TIP3    H224849   6.920   2.590   0.400 -0.9135 -0.8531  0.8729
 1072TIP3   OH224850   2.816   6.207   1.873  0.2903  0.2121  0.4475
 1072TIP3    H124851   2.722   6.191   1.865  0.6185 -0.9183 -2.1644
 1072TIP3    H224852   2.826   6.300   1.850 -0.0760  0.0143 -0.5389
 1073TIP3   OH224853   6.527   5.154   2.435 -0.1958  0.5119 -0.2168
 1073TIP3    H124854   6.529   5.090   2.364 -0.3875  1.0830 -0.7467
 1073TIP3    H224855   6.586   5.224   2.406 -0.9339  1.1539 -0.2197
 1074TIP3   OH224856   2.252   4.273   2.824 -0.3682  0.3042  0.1911
 1074TIP3    H124857   2.237   4.201   2.887 -1.1034  0.5533  0.3116
 1074TIP3    H224858   2.199   4.250   2.748  0.2189  0.1998 -0.1958
 1075TIP3   OH224859   1.693   4.139   7.124 -0.5820 -0.1150 -0.5376
 1075TIP3    H124860   1.614   4.102   7.084 -0.9785  0.1444 -0.0018
 1075TIP3    H224861   1.714   4.078   7.195  0.2286 -0.6759 -1.2422
 1076TIP3   OH224862   0.630   0.513   2.214  0.4127  0.8634  0.4310
 1076TIP3    H124863   0.642   0.605   2.192 -0.7605  0.5996 -1.5117
 1076TIP3    H224864   0.553   0.512   2.272  0.7396  1.1373  0.8741
 1077TIP3   OH224865   3.481   4.541   1.543  0.0658 -0.0210  0.4483
 1077TIP3    H124866   3.565   4.558   1.499  0.5844  0.1026  1.4460
 1077TIP3    H224867   3.415   4.555   1.476  0.9197 -1.6993 -0.8132
 1078TIP3   OH224868   2.753   5.720   2.036  0.0292  0.2520  0.1351
 1078TIP3    H124869   2.658   5.707   2.032 -0.1285  0.9640  1.0765
 1078TIP3    H224870   2.790   5.644   1.992 -1.0139  0.8189 -1.8650
 1079TIP3   OH224871   2.232   6.055   1.008 -0.2634 -0.0912  0.0432
 1079TIP3    H124872   2.141   6.028   1.012  0.2709 -2.2615 -1.1345
 1079TIP3    H224873   2.280   5.987   1.055  1.1062 -1.2065 -2.7634
 1080TIP3   OH224874   2.823   1.107   2.764 -0.1639  0.3517 -0.1193
 1080TIP3    H124875   2.880   1.147   2.829 -0.7519 -1.3560  1.5261
 1080TIP3    H224876   2.854   1.017   2.756 -2.3070 -0.4966  0.5049
 1081TIP3   OH224877   4.134   6.115   7.562 -0.0403  0.1379  0.0954
 1081TIP3    H124878   4.228   6.135   7.561  1.0889 -4.1986  1.1105
 1081TIP3    H224879   4.106   6.124   7.471  1.5684  0.6032 -0.3833
 1082TIP3   OH224880   2.992   1.430   0.151 -0.0319  0.2264  0.1360
 1082TIP3    H124881   2.929   1.444   0.080 -0.4929  1.1443  0.7168
 1082TIP3    H224882   2.939   1.432   0.231  0.8837  2.7227  0.7814
 1083TIP3   OH224883   3.212   4.023   1.785 -0.1912  0.0231  0.2660
 1083TIP3    H124884   3.250   3.938   1.810 -1.2698 -0.7440 -0.6183
 1083TIP3    H224885   3.133   4.030   1.838  1.1855  1.7088  2.2485
 1084TIP3   OH224886   4.684   6.314   7.272  0.7428 -0.4759  0.1865
 1084TIP3    H124887   4.759   6.259   7.249  0.5716 -0.9282  0.6702
 1084TIP3    H224888   4.715   6.367   7.346  1.2037  0.7695 -0.8539
 1085TIP3   OH224889   1.476   0.615   7.460  0.4280  0.3578 -0.3339
 1085TIP3    H124890   1.461   0.699   7.418 -0.3723  0.4292  0.0717
 1085TIP3    H224891   1.491   0.554   7.387  1.9922  1.0146 -0.5944
 1086TIP3   OH224892   6.838   4.542   2.217 -0.3244 -0.0156  0.1215
 1086TIP3    H124893   6.898   4.495   2.159 -0.0120  0.4311  0.0854
 1086TIP3    H224894   6.752   4.502   2.199 -0.4551  0.9328 -1.5428
 1087TIP3   OH224895   3.624   6.785   6.833 -0.0407 -0.5979  0.5983
 1087TIP3    H124896   3.680   6.857   6.863  0.9109 -1.4350  0.8487
 1087TIP3    H224897   3.546   6.829   6.799 -0.4598  0.4900  2.7767
 1088TIP3   OH224898   0.263   6.534   2.728 -0.2851  0.0151  0.0828
 1088TIP3    H124899   0.215   6.484   2.662 -0.3685  0.9938 -0.6293
 1088TIP3    H224900   0.252   6.485   2.809 -1.1319 -0.6181 -0.4048
 1089TIP3   OH224901   5.659   5.595   7.287  0.0879 -0.1946 -0.1052
 1089TIP3    H124902   5.725   5.533   7.257 -0.7858 -0.9249 -0.5882
 1089TIP3    H224903   5.578   5.544   7.289 -0.9213  1.2564 -1.8322
 1090TIP3   OH224904   1.608   2.926   0.283  0.0743 -0.3340 -0.0223
 1090TIP3    H124905   1.605   3.022   0.285 -0.7411 -0.3089 -1.2537
 1090TIP3    H224906   1.701   2.904   0.287  0.2816  0.5133 -0.0294
 1091TIP3   OH224907   5.602   6.933   7.909 -0.4871 -0.3054 -0.0843
 1091TIP3    H124908   5.549   6.863   7.948 -0.9057  0.2315  0.3202
 1091TIP3    H224909   5.545   6.973   7.844 -1.3911  1.6154  1.7514
 1092TIP3   OH224910   4.936   4.680   1.551 -0.3381  1.0906  0.2591
 1092TIP3    H124911   4.909   4.755   1.498 -0.6512  1.0648  0.3806
 1092TIP3    H224912   4.996   4.631   1.495 -0.3707  1.2685  0.0688
 1093TIP3   OH224913   3.081   3.634   8.318  0.4725  0.4587  0.3261
 1093TIP3    H124914   3.159   3.618   8.371  0.7481 -2.8396 -0.8828
 1093TIP3    H224915   3.115   3.664   8.233  0.3942 -0.2864  0.0283
 1094TIP3   OH224916   1.760   3.997   2.927 -0.2407 -0.2828 -0.3083
 1094TIP3    H124917   1.699   3.942   2.976  0.8079 -1.7754 -0.5915
 1094TIP3    H224918   1.840   3.944   2.921  2.4396  2.9106  3.1631
 1095TIP3   OH224919   1.647   1.248   0.455  0.1738 -0.2519 -0.3893
 1095TIP3    H124920   1.742   1.236   0.464  0.2449  0.5900  0.1231
 1095TIP3    H224921   1.624   1.200   0.375  0.1835 -4.9462  2.0216
 1096TIP3   OH224922   3.750   0.548   1.875  0.5393 -0.2387  0.0304
 1096TIP3    H124923   3.771   0.485   1.806  4.2301  2.2812 -1.4748
 1096TIP3    H224924   3.810   0.526   1.946 -0.5598 -0.4516  0.9165
 1097TIP3   OH224925   0.520   6.496   1.495  0.2163 -0.2088 -0.3198
 1097TIP3    H124926   0.582   6.460   1.558 -0.9404 -1.2247  0.2657
 1097TIP3    H224927   0.438   6.449   1.511  0.1802 -1.4632 -3.4095
 1098TIP3   OH224928   0.793   0.911   2.050  0.2830 -0.0624  0.1763
 1098TIP3    H124929   0.820   0.993   2.009 -1.8077  0.2823 -0.5905
 1098TIP3    H224930   0.830   0.842   1.994  1.4784  0.3213  0.4545
 1099TIP3   OH224931   1.397   6.032   1.697 -0.5027 -0.7132 -0.7702
 1099TIP3    H124932   1.462   6.081   1.648  0.7674 -3.0035 -1.5343
 1099TIP3    H224933   1.341   5.992   1.630 -2.1643  0.4584 -0.1468
 1100TIP3   OH224934   3.605   5.900   2.267  0.0479 -0.8464 -0.1689
 1100TIP3    H124935   3.699   5.886   2.259 -0.1164 -1.3608 -1.4390
 1100TIP3    H224936   3.566   5.823   2.227 -0.9348 -1.0912  1.1859
 1101TIP3   OH224937   5.195   5.145   0.648  0.6736 -0.0666  0.1411
 1101TIP3    H124938   5.155   5.081   0.590  0.5203  0.5516 -0.4538
 1101TIP3    H224939   5.121   5.194   0.684  0.8510  1.1540 -1.0482
 1102TIP3   OH224940   3.766   2.623   2.399 -0.2789 -0.3205 -0.4583
 1102TIP3    H124941   3.725   2.700   2.439 -1.3060 -1.3784  0.6010
 1102TIP3    H224942   3.746   2.630   2.306 -6.3816 -2.5883  0.2270
 1103TIP3   OH224943   5.821   2.270   7.289 -0.4847  0.0940  0.2107
 1103TIP3    H124944   5.805   2.208   7.360 -0.9955  0.1352  0.1354
 1103TIP3    H224945   5.739   2.273   7.241  0.3631 -1.2782 -1.4478
 1104TIP3   OH224946   1.390   1.591   1.508 -0.5158 -0.2806 -0.1207
 1104TIP3    H124947   1.445   1.513   1.519  1.3828  0.8209 -1.2992
 1104TIP3    H224948   1.431   1.656   1.565 -0.9602  0.3885 -0.5590
 1105TIP3   OH224949   0.918   4.722   7.600 -0.3074 -0.5161 -0.6358
 1105TIP3    H124950   0.966   4.782   7.658 -2.0648  0.6113 -0.2869
 1105TIP3    H224951   0.922   4.763   7.514  0.1180 -0.9056 -0.8109
 1106TIP3   OH224952   1.513   0.532   2.679  0.0885  0.0009 -0.1064
 1106TIP3    H124953   1.537   0.621   2.705 -1.8251  0.8420 -1.0362
 1106TIP3    H224954   1.487   0.490   2.761 -0.6401  0.8762  0.1397
 1107TIP3   OH224955   2.511   2.085   8.124  0.5266 -0.0941  0.6453
 1107TIP3    H124956   2.541   2.176   8.130  0.6567 -0.0328 -0.8004
 1107TIP3    H224957   2.417   2.089   8.143  0.4600  0.3843  0.2163
 1108TIP3   OH224958   5.829   3.742   3.244  0.5844  0.5852 -0.2019
 1108TIP3    H124959   5.763   3.714   3.308 -0.4529 -1.0156 -1.8187
 1108TIP3    H224960   5.902   3.682   3.257  0.8295  0.9733  0.2029
 1109TIP3   OH224961   2.803   5.198   2.686 -0.3890 -0.2012 -0.4286
 1109TIP3    H124962   2.874   5.161   2.739 -1.8036 -1.1724  0.8925
 1109TIP3    H224963   2.738   5.227   2.750 -1.6296 -0.2686 -1.5982
 1110TIP3   OH224964   6.761   1.120   2.673 -0.2871 -0.3871  0.0019
 1110TIP3    H124965   6.687   1.128   2.614  0.3887 -1.9806 -1.1133
 1110TIP3    H224966   6.832   1.085   2.619  1.1282  0.5217  1.1715
 1111TIP3   OH224967   6.713   1.692   2.099 -1.0832  0.1303 -0.5459
 1111TIP3    H124968   6.694   1.777   2.139 -1.6558 -0.1966 -0.0975
 1111TIP3    H224969   6.657   1.630   2.147  2.2932 -1.2133  2.0374
 1112TIP3   OH224970   5.041   6.372   0.789  0.4385  0.2324  0.0666
 1112TIP3    H124971   5.007   6.430   0.720 -0.4842 -0.5377 -0.1421
 1112TIP3    H224972   4.964   6.325   0.821  1.1195 -0.6279  0.4787
 1113TIP3   OH224973   6.307   5.041   1.607  0.0981  0.2274 -0.3916
 1113TIP3    H124974   6.291   5.135   1.614 -1.8363  0.0575 -1.6719
 1113TIP3    H224975   6.390   5.034   1.560 -0.6384  1.3394 -1.9534
 1114TIP3   OH224976   3.629   4.487   2.747 -0.3838 -0.0884 -0.4285
 1114TIP3    H124977   3.693   4.416   2.735 -1.3266 -1.1168  0.4060
 1114TIP3    H224978   3.682   4.565   2.762  0.6773 -0.7468 -0.6188
 1115TIP3   OH224979   6.072   4.303   2.002  0.2316 -0.2255 -0.3002
 1115TIP3    H124980   6.043   4.299   2.094  1.9195 -0.8575  0.2483
 1115TIP3    H224981   6.054   4.216   1.967  1.6161 -0.6914  0.1095
 1116TIP3   OH224982   2.637   4.519   0.184 -0.1877 -0.1774 -0.4675
 1116TIP3    H124983   2.591   4.585   0.236  0.9902  0.5652 -0.3343
 1116TIP3    H224984   2.567   4.471   0.139 -1.0643  1.2983 -0.7460
 1117TIP3   OH224985   1.537   5.952   8.388 -0.7523  0.6200 -0.3485
 1117TIP3    H124986   1.579   5.972   8.471 -0.0394 -4.8493  1.0453
 1117TIP3    H224987   1.611   5.939   8.327 -1.0952  1.3005 -0.9270
 1118TIP3   OH224988   2.202   6.469   7.347  0.4546  0.0150 -0.7950
 1118TIP3    H124989   2.268   6.463   7.416 -0.8535 -0.7680  0.4465
 1118TIP3    H224990   2.119   6.481   7.394 -0.5612 -1.1840 -2.1838
 1119TIP3   OH224991   1.918   1.937   7.146  0.1214 -0.0392 -0.0857
 1119TIP3    H124992   1.824   1.949   7.137 -0.2085 -1.0944  1.5828
 1119TIP3    H224993   1.943   1.996   7.217  0.3313 -1.2577  0.8848
 1120TIP3   OH224994   5.471   6.374   6.564 -0.0152 -0.5303  0.0404
 1120TIP3    H124995   5.466   6.363   6.659  0.3305 -0.8413  0.0234
 1120TIP3    H224996   5.491   6.287   6.531  1.1513 -0.1789 -0.2130
 1121TIP3   OH224997   1.563   6.656   7.389 -0.1814  0.5936  0.0800
 1121TIP3    H124998   1.620   6.649   7.313  1.0583  1.0807  0.9364
 1121TIP3    H224999   1.478   6.682   7.353  0.4189  0.9516 -1.1230
 1122TIP3   OH225000   6.050   5.425   0.261 -0.0504 -0.3349  0.5638
 1122TIP3    H125001   6.127   5.466   0.300  0.2808  0.1709 -0.5622
 1122TIP3    H225002   5.988   5.416   0.333  0.6282  0.3355  1.2514
 1123TIP3   OH225003   2.758   3.752   1.330 -0.3977  0.3597 -0.2880
 1123TIP3    H125004   2.850   3.744   1.304 -0.9778  0.4614 -2.6377
 1123TIP3    H225005   2.725   3.662   1.326 -0.2275  0.1831  1.4806
 1124TIP3   OH225006   5.454   3.510   7.405  0.6156 -0.2768 -0.2752
 1124TIP3    H125007   5.382   3.572   7.401  1.1371  0.2893 -2.2097
 1124TIP3    H225008   5.420   3.430   7.365 -0.2722 -1.5792  2.8270
 1125TIP3   OH225009   1.103   0.101   1.777 -0.2610  0.0227 -0.2398
 1125TIP3    H125010   1.024   0.108   1.830 -0.4543 -1.4486 -0.3004
 1125TIP3    H225011   1.174   0.090   1.840 -0.0448  1.6128 -0.1736
 1126TIP3   OH225012   6.430   3.768   1.912  0.1021  0.7937  0.1157
 1126TIP3    H125013   6.501   3.822   1.944 -0.1889  0.3256  1.6595
 1126TIP3    H225014   6.389   3.819   1.842  0.5715  2.0280  0.7249
 1127TIP3   OH225015   5.396   3.192   8.035  0.3151  0.2294 -0.1314
 1127TIP3    H125016   5.320   3.235   8.075  0.3587  0.0665  0.1271
 1127TIP3    H225017   5.419   3.248   7.961  0.3576  0.6452  0.1912
 1128TIP3   OH225018   2.288   3.906   2.235 -0.5341  0.6523 -0.5197
 1128TIP3    H125019   2.202   3.894   2.274 -0.2349  0.6481  0.1525
 1128TIP3    H225020   2.349   3.895   2.308  0.0859 -0.3341 -1.1735
 1129TIP3   OH225021   3.939   6.120   2.010 -0.3190 -0.3420 -0.2675
 1129TIP3    H125022   3.894   6.182   2.069  1.5931  0.5178  0.3572
 1129TIP3    H225023   3.972   6.175   1.939 -0.3137 -0.9810 -0.7659
 1130TIP3   OH225024   4.894   5.524   0.581  0.7286 -0.0736 -0.2649
 1130TIP3    H125025   4.904   5.573   0.663  0.3733  1.1146 -0.9070
 1130TIP3    H225026   4.821   5.465   0.598  1.3850 -0.6556  0.6415
 1131TIP3   OH225027   3.143   4.350   0.867  0.2821  0.3902  0.2076
 1131TIP3    H125028   3.065   4.366   0.813  0.7806  1.3583 -0.2538
 1131TIP3    H225029   3.161   4.257   0.855  0.3214  0.5486 -1.2402
 1132TIP3   OH225030   4.622   2.304   2.831  0.1906  0.4013 -0.4060
 1132TIP3    H125031   4.570   2.241   2.881 -0.2933  0.8230 -0.3603
 1132TIP3    H225032   4.561   2.337   2.765 -0.1815  2.2443  0.7875
 1133TIP3   OH225033   1.894   4.082   3.206 -0.0214 -0.7718 -0.5552
 1133TIP3    H125034   1.811   4.128   3.216 -0.0965 -1.4458  2.9969
 1133TIP3    H225035   1.869   3.997   3.167 -0.9942 -0.9051  0.3225
 1134TIP3   OH225036   0.725   4.714   7.306 -0.0273 -0.6071  0.2152
 1134TIP3    H125037   0.634   4.721   7.332 -0.5341  2.4328 -1.9024
 1134TIP3    H225038   0.723   4.654   7.231 -0.6990  1.0811 -1.1760
 1135TIP3   OH225039   6.301   4.077   3.285 -0.1200  0.4633 -0.1115
 1135TIP3    H125040   6.220   4.062   3.333  0.9428 -0.9437  1.3337
 1135TIP3    H225041   6.370   4.074   3.351  1.2297  0.3312 -1.4560
 1136TIP3   OH225042   0.294   6.560   0.915  0.3687 -0.1342  0.3837
 1136TIP3    H125043   0.258   6.622   0.851 -0.0061 -1.2247 -0.5170
 1136TIP3    H225044   0.217   6.516   0.951  0.6352 -0.2466  0.8180
 1137TIP3   OH225045   4.360   4.140   2.538 -0.7298  0.4191  0.4165
 1137TIP3    H125046   4.370   4.133   2.633 -0.3841  0.0131  0.3534
 1137TIP3    H225047   4.320   4.226   2.525  1.7976  1.7418  0.7589
 1138TIP3   OH225048   4.194   0.218   6.300  0.1750  0.2457  0.2015
 1138TIP3    H125049   4.271   0.224   6.357 -0.5726  1.1776  1.1442
 1138TIP3    H225050   4.224   0.254   6.216  0.7833  0.5459  0.5373
 1139TIP3   OH225051   3.483   0.614   1.764 -0.3502 -0.5391 -0.3180
 1139TIP3    H125052   3.525   0.589   1.846  1.1344  0.2279 -0.8064
 1139TIP3    H225053   3.453   0.703   1.778 -1.5002 -0.9368 -0.1169
 1140TIP3   OH225054   3.841   2.550   2.786  0.2514 -0.1944 -0.1603
 1140TIP3    H125055   3.763   2.592   2.822  1.0261 -0.0206  1.4213
 1140TIP3    H225056   3.866   2.485   2.852  1.4906 -0.1754 -0.5858
 1141TIP3   OH225057   0.148   6.636   0.008  0.4880  0.3055  0.4789
 1141TIP3    H125058   0.110   6.704   0.064  3.0393  1.6452  0.7459
 1141TIP3    H225059   0.237   6.624   0.042  0.7159 -1.9226 -0.7077
 1142TIP3   OH225060   6.691   2.335   1.050  0.0324  0.2586  0.3921
 1142TIP3    H125061   6.739   2.320   1.132  0.5121 -1.8795 -0.2137
 1142TIP3    H225062   6.727   2.271   0.990 -2.0884  0.0752 -0.7609
 1143TIP3   OH225063   2.653   1.807   1.987 -0.3209  0.1686 -0.1988
 1143TIP3    H125064   2.705   1.846   2.058  1.2564 -0.6536 -0.8489
 1143TIP3    H225065   2.578   1.866   1.977 -0.6067  0.2913  2.1605
 1144TIP3   OH225066   0.356   6.749   2.926  0.0165  0.3928 -0.4170
 1144TIP3    H125067   0.274   6.796   2.941 -0.3318  0.5609 -2.5253
 1144TIP3    H225068   0.334   6.657   2.939 -0.3087  0.5065 -0.1731
 1145TIP3   OH225069   4.710   4.840   1.015  0.0541 -0.1223 -0.4815
 1145TIP3    H125070   4.727   4.899   0.941 -0.4766 -1.2265 -1.5136
 1145TIP3    H225071   4.699   4.754   0.975  0.4286 -0.8743  0.9635
 1146TIP3   OH225072   1.420   3.534   7.887 -0.0634  0.4783 -0.0880
 1146TIP3    H125073   1.466   3.562   7.966  1.1283  1.5625 -1.1354
 1146TIP3    H225074   1.334   3.505   7.919  0.8215 -0.3071  1.7432
 1147TIP3   OH225075   1.651   4.195   2.256  0.1351 -0.9129  0.4559
 1147TIP3    H125076   1.603   4.136   2.314 -0.6763 -0.2317  0.4993
 1147TIP3    H225077   1.605   4.190   2.172  0.6235 -1.0361  0.1865
 1148TIP3   OH225078   2.790   6.499   2.404  0.2182  0.3173  0.2208
 1148TIP3    H125079   2.876   6.467   2.375 -0.7893 -0.9434 -1.6597
 1148TIP3    H225080   2.805   6.588   2.434  2.9460 -1.2337  4.2628
 1149TIP3   OH225081   0.903   2.628   1.672 -0.2276 -0.6021  0.1117
 1149TIP3    H125082   0.893   2.723   1.669  0.7147 -0.4900  0.1056
 1149TIP3    H225083   0.840   2.595   1.608  0.4316  0.1169 -0.9561
 1150TIP3   OH225084   3.496   1.558   7.502 -0.2807 -0.0810  0.0968
 1150TIP3    H125085   3.533   1.566   7.414  1.3716 -0.5986  0.7110
 1150TIP3    H225086   3.565   1.590   7.560 -0.4990 -1.7142  1.3377
 1151TIP3   OH225087   1.668   6.391   3.465  0.1083  0.5734 -0.0075
 1151TIP3    H125088   1.612   6.349   3.530  1.6105 -0.9697  0.3740
 1151TIP3    H225089   1.756   6.360   3.486  0.9932  2.1906 -1.1329
 1152TIP3   OH225090   1.385   5.390   7.112 -0.2387 -0.6723  0.2916
 1152TIP3    H125091   1.381   5.318   7.049  0.1100 -0.2925 -0.1783
 1152TIP3    H225092   1.372   5.469   7.059 -1.5167 -0.4381  0.9365
 1153TIP3   OH225093   1.484   5.860   7.154 -0.1760 -0.5093 -0.3118
 1153TIP3    H125094   1.559   5.816   7.114  0.9902  0.0641  1.1613
 1153TIP3    H225095   1.418   5.861   7.085  1.3760 -0.4986 -1.8722
 1154TIP3   OH225096   3.230   1.484   7.415  0.7699 -0.2133  0.1333
 1154TIP3    H125097   3.290   1.537   7.468 -0.8896  2.4625 -0.4591
 1154TIP3    H225098   3.166   1.450   7.478  0.0859  1.1018  0.1802
 1155TIP3   OH225099   3.053   1.617   1.481  0.3453  0.5410  0.1284
 1155TIP3    H125100   3.045   1.700   1.529  0.5905  0.8124 -0.3031
 1155TIP3    H225101   3.146   1.597   1.482  0.2957  0.3039  0.1657
 1156TIP3   OH225102   0.420   4.240   0.339  0.2118 -0.2981 -0.8717
 1156TIP3    H125103   0.415   4.275   0.427  1.2868  0.4321 -1.0834
 1156TIP3    H225104   0.375   4.305   0.284  0.8930  0.0301 -1.0576
 1157TIP3   OH225105   2.327   4.380   0.822  0.3772 -0.1430  0.6702
 1157TIP3    H125106   2.299   4.326   0.748  1.2448 -0.6229  0.6707
 1157TIP3    H225107   2.291   4.466   0.804  1.0654 -0.0945 -0.6386
 1158TIP3   OH225108   4.222   5.099   7.094  0.2310 -0.3017 -0.1379
 1158TIP3    H125109   4.272   5.018   7.084 -1.7995 -1.8641  1.5194
 1158TIP3    H225110   4.249   5.153   7.019  0.7550 -2.9835 -2.0053
 1159TIP3   OH225111   2.926   6.795   7.480  0.1319  0.2883  0.1390
 1159TIP3    H125112   2.920   6.733   7.552  0.7391  1.0092  0.8357
 1159TIP3    H225113   3.011   6.777   7.440  0.8816  1.4218  1.1085
 1160TIP3   OH225114   1.319   1.317   0.445 -0.4048  0.2652 -0.0641
 1160TIP3    H125115   1.387   1.381   0.466  1.4261 -1.6114  0.0921
 1160TIP3    H225116   1.242   1.347   0.492  1.0627  1.0704  1.9341
 1161TIP3   OH225117   1.872   6.596   1.504  0.4430 -0.6054 -0.1355
 1161TIP3    H125118   1.796   6.646   1.473 -0.0854 -1.1869  0.1921
 1161TIP3    H225119   1.866   6.603   1.600  0.2794 -1.4048 -0.0798
 1162TIP3   OH225120   4.292   4.545   8.169 -0.6197  0.0310  0.3692
 1162TIP3    H125121   4.281   4.634   8.203 -0.1813 -0.3886  1.6668
 1162TIP3    H225122   4.383   4.542   8.140  0.1819 -0.7648  2.7934
 1163TIP3   OH225123   2.450   0.714   1.950  0.0254 -0.6095  0.2937
 1163TIP3    H125124   2.542   0.697   1.928 -0.0835 -1.1106  0.2061
 1163TIP3    H225125   2.409   0.628   1.947 -0.8272 -0.1654 -1.3787
 1164TIP3   OH225126   3.270   3.164   7.568  0.8545  0.0258 -0.1398
 1164TIP3    H125127   3.297   3.135   7.655 -0.7607  1.1895  0.8044
 1164TIP3    H225128   3.346   3.147   7.512  2.8252  1.4158  1.9562
 1165TIP3   OH225129   0.474   4.796   8.240 -0.1127  0.2512 -0.2975
 1165TIP3    H125130   0.541   4.840   8.188 -0.9664  2.7280  0.5862
 1165TIP3    H225131   0.504   4.806   8.330 -0.7765 -0.2175 -0.0200
 1166TIP3   OH225132   5.257   7.007   6.681 -0.0521  0.2376  0.6970
 1166TIP3    H125133   5.291   6.961   6.605 -0.7737 -1.4878  1.3732
 1166TIP3    H225134   5.325   6.997   6.748 -0.0611  0.4674  0.7432
 1167TIP3   OH225135   1.101   3.477   2.215 -0.4740 -0.3415 -0.7618
 1167TIP3    H125136   1.075   3.558   2.259 -0.6117 -0.4179 -0.7012
 1167TIP3    H225137   1.021   3.424   2.213 -0.0306 -1.1167  0.5836
 1168TIP3   OH225138   0.318   2.436   0.504 -0.2005  0.0753  0.0590
 1168TIP3    H125139   0.372   2.432   0.425 -0.0170  1.1742  0.1212
 1168TIP3    H225140   0.347   2.361   0.556 -0.8422 -1.1082 -1.2224
 1169TIP3   OH225141   5.453   2.996   8.357  0.3149  0.3895 -0.2482
 1169TIP3    H125142   5.503   2.990   8.439 -0.8422  1.3201  0.5650
 1169TIP3    H225143   5.507   3.052   8.300  0.1587  1.5002  0.6607
 1170TIP3   OH225144   3.994   1.605   0.571  0.1515  0.8436 -0.2162
 1170TIP3    H125145   3.906   1.628   0.603  0.2283 -0.4272  1.0065
 1170TIP3    H225146   3.995   1.510   0.571  2.0040  0.8133  1.1875
 1171TIP3   OH225147   2.039   1.409   1.460  0.6077 -0.5703  1.3518
 1171TIP3    H125148   2.058   1.490   1.506 -0.2903  0.3354  0.1871
 1171TIP3    H225149   1.945   1.396   1.471  0.2033  0.1288 -0.8816
 1172TIP3   OH225150   6.331   6.734   1.341  0.0158  0.0517  0.0221
 1172TIP3    H125151   6.338   6.824   1.374 -1.7213  0.2041  0.0921
 1172TIP3    H225152   6.420   6.699   1.347  0.7931  1.8553 -0.2991
 1173TIP3   OH225153   2.730   3.897   2.095  0.2931  0.2338 -0.5860
 1173TIP3    H125154   2.658   3.892   2.157  0.6715 -1.1640 -0.2414
 1173TIP3    H225155   2.702   3.842   2.022  0.5633  0.5501 -0.9327
 1174TIP3   OH225156   3.432   4.725   7.949  0.4385  0.3965 -1.3046
 1174TIP3    H125157   3.473   4.642   7.925 -1.3471 -0.2947 -2.1822
 1174TIP3    H225158   3.343   4.701   7.976 -0.2799  2.0423 -2.0641
 1175TIP3   OH225159   5.148   1.308   7.812 -0.1829  0.2348 -0.0697
 1175TIP3    H125160   5.121   1.217   7.828 -1.4780  0.7747  1.0323
 1175TIP3    H225161   5.161   1.344   7.900 -0.6385  1.3778 -0.4636
 1176TIP3   OH225162   0.557   3.765   0.542 -0.2078  0.3536  0.0483
 1176TIP3    H125163   0.498   3.822   0.492  0.1124  1.3111  0.7286
 1176TIP3    H225164   0.644   3.803   0.529  0.0112  0.0252  0.5145
 1177TIP3   OH225165   1.335   2.350   7.903  0.4114  0.0639 -0.0770
 1177TIP3    H125166   1.316   2.317   7.991 -0.1877 -1.7530 -0.8428
 1177TIP3    H225167   1.271   2.419   7.889  1.6346  1.6432  1.5351
 1178TIP3   OH225168   0.101   0.875   0.642  0.5002 -0.3165 -0.3678
 1178TIP3    H125169   0.056   0.831   0.715  1.3241  0.0151  0.3586
 1178TIP3    H225170   0.184   0.827   0.633  2.2614  2.0962  1.6452
 1179TIP3   OH225171   7.009   5.166   7.466 -0.3164  0.0357  0.0806
 1179TIP3    H125172   7.047   5.163   7.378 -0.9455 -1.3695 -0.1651
 1179TIP3    H225173   6.992   5.259   7.481  0.6546  0.4015 -0.8974
 1180TIP3   OH225174   1.247   2.551   2.797 -0.1089 -0.0804  0.4432
 1180TIP3    H125175   1.161   2.541   2.839 -1.1777  2.4684 -0.9302
 1180TIP3    H225176   1.250   2.642   2.769  2.3310 -0.5517 -1.1741
 1181TIP3   OH225177   2.887   3.672   8.051  0.1883  0.0549 -0.3075
 1181TIP3    H125178   2.887   3.581   8.023 -0.9853 -0.1334  0.2341
 1181TIP3    H225179   2.975   3.704   8.030  0.3859 -0.9870 -1.1571
 1182TIP3   OH225180   6.301   6.140   2.402  0.5054  0.2898  0.1646
 1182TIP3    H125181   6.385   6.094   2.394  0.2808 -0.1503  0.3063
 1182TIP3    H225182   6.239   6.072   2.427  0.2009  0.7007  0.5421
 1183TIP3   OH225183   0.044   4.948   0.469 -0.2622  0.1583  0.0602
 1183TIP3    H125184   0.072   5.040   0.463 -0.2533  0.1238 -0.5841
 1183TIP3    H225185   0.008   4.929   0.382 -1.5291 -0.0523  0.6162
 1184TIP3   OH225186   3.904   5.636   1.152  0.2661 -0.4101  0.2991
 1184TIP3    H125187   3.866   5.658   1.067  0.9413 -0.5549 -0.0522
 1184TIP3    H225188   3.870   5.702   1.212 -1.4584 -1.1950  0.2613
 1185TIP3   OH225189   6.426   1.170   0.909  0.6429 -0.3728  0.3608
 1185TIP3    H125190   6.512   1.207   0.925 -0.5538  1.9606  1.7854
 1185TIP3    H225191   6.404   1.122   0.989  0.5645 -0.8838  0.0407
 1186TIP3   OH225192   1.274   3.693   0.719 -0.0683  0.1526  0.6174
 1186TIP3    H125193   1.236   3.737   0.643 -0.5693  0.3457  0.9706
 1186TIP3    H225194   1.273   3.760   0.788 -1.9696 -0.7259  1.5138
 1187TIP3   OH225195   2.414   4.568   2.290 -0.1368 -0.0508  0.1203
 1187TIP3    H125196   2.472   4.518   2.348 -0.7923 -1.4388 -0.3775
 1187TIP3    H225197   2.367   4.501   2.241  0.0291  1.0793 -1.6517
 1188TIP3   OH225198   7.033   3.002   7.829 -0.3591  0.3488  0.0340
 1188TIP3    H125199   6.978   3.063   7.779  0.0948  0.5674 -0.2089
 1188TIP3    H225200   7.018   2.917   7.787  1.7761  0.8826 -2.0630
 1189TIP3   OH225201   1.863   0.215   7.842 -0.0744  0.3548  0.2523
 1189TIP3    H125202   1.945   0.230   7.889  0.3839  2.4233 -1.0844
 1189TIP3    H225203   1.878   0.134   7.794  1.0035  0.4276  0.4300
 1190TIP3   OH225204   1.222   5.022   0.856  0.3057 -0.3717  0.1709
 1190TIP3    H125205   1.187   5.090   0.913 -0.7603 -0.6273 -0.1549
 1190TIP3    H225206   1.155   4.953   0.856 -0.8048  0.5171 -3.0684
 1191TIP3   OH225207   3.447   0.388   1.204 -0.4694  0.2369  0.4089
 1191TIP3    H125208   3.398   0.432   1.135 -0.0485 -1.0157 -0.7419
 1191TIP3    H225209   3.420   0.297   1.198  0.8072 -0.1868  0.7974
 1192TIP3   OH225210   5.446   0.132   2.211  0.1476  0.6393  0.2655
 1192TIP3    H125211   5.528   0.182   2.206  0.3986  0.1142 -1.6158
 1192TIP3    H225212   5.382   0.185   2.163  0.1646 -0.3465 -0.8785
 1193TIP3   OH225213   0.631   2.845   1.508 -0.1584 -0.3288 -0.3053
 1193TIP3    H125214   0.620   2.773   1.445  1.3846 -1.2245  0.3945
 1193TIP3    H225215   0.563   2.829   1.573 -2.2577  1.0185 -2.0177
 1194TIP3   OH225216   6.482   6.990   0.564 -0.0796 -0.3708  0.2160
 1194TIP3    H125217   6.400   6.976   0.612 -0.1494 -1.5795 -0.2252
 1194TIP3    H225218   6.549   6.947   0.617 -0.1054 -1.4206 -0.5536
 1195TIP3   OH225219   3.017   6.266   2.622  0.3695  0.2980 -0.5149
 1195TIP3    H125220   3.042   6.267   2.530 -1.1810 -0.4441 -0.9692
 1195TIP3    H225221   3.022   6.358   2.649 -2.8795  1.1970 -2.4368
 1196TIP3   OH225222   2.870   4.144   2.219  0.4123 -0.2942 -0.0365
 1196TIP3    H125223   2.925   4.159   2.143 -0.0565 -2.1762 -0.7968
 1196TIP3    H225224   2.845   4.052   2.214 -1.2114  0.0008  1.3432
 1197TIP3   OH225225   3.822   5.123   1.392  0.9976  0.0582 -0.2059
 1197TIP3    H125226   3.772   5.204   1.407  0.7021  0.0231 -0.9715
 1197TIP3    H225227   3.811   5.105   1.299 -1.8543 -2.7469  0.4914
 1198TIP3   OH225228   2.857   0.003   0.043  0.5311  0.3510 -0.2345
 1198TIP3    H125229   2.827   0.081   0.090  0.7745  0.8842 -0.9459
 1198TIP3    H225230   2.777  -0.035   0.006  0.6040  1.4153 -1.5904
 1199TIP3   OH225231   6.344   3.070   8.368  0.1717 -0.5206 -0.4076
 1199TIP3    H125232   6.289   3.003   8.326  0.8372 -1.0361 -0.4747
 1199TIP3    H225233   6.402   3.101   8.299  0.8380 -0.9104 -0.0328
 1200TIP3   OH225234   2.012   0.921   2.497 -0.5703 -0.2593 -0.1124
 1200TIP3    H125235   1.957   0.909   2.574  1.6239 -0.4607  1.5411
 1200TIP3    H225236   2.092   0.963   2.531  0.5645 -0.5415 -2.2346
 1201TIP3   OH225237   5.499   4.242   8.255  0.5507 -0.7215 -0.8935
 1201TIP3    H125238   5.509   4.147   8.255  1.1566 -0.7197  1.5259
 1201TIP3    H225239   5.580   4.274   8.216  1.7982 -1.1938  1.1451
 1202TIP3   OH225240   3.157   0.042   7.194  0.1546 -0.1791 -0.0184
 1202TIP3    H125241   3.200  -0.028   7.146 -0.5724 -0.2962 -0.5079
 1202TIP3    H225242   3.145   0.112   7.129 -0.6879 -0.2764  0.0267
 1203TIP3   OH225243   0.903   3.286   2.269  0.3371  0.1965 -0.3474
 1203TIP3    H125244   0.888   3.195   2.295 -0.4312 -0.0946 -1.6977
 1203TIP3    H225245   0.900   3.336   2.351  0.2201 -0.9195  0.3458
 1204TIP3   OH225246   3.775   0.986   6.853  0.3080 -0.1389  0.0238
 1204TIP3    H125247   3.827   1.027   6.922  0.6500  0.1978 -0.4223
 1204TIP3    H225248   3.833   0.919   6.816  0.8819  0.9993 -1.2317
 1205TIP3   OH225249   1.393   0.576   1.495 -0.5494  0.1499  0.2892
 1205TIP3    H125250   1.313   0.620   1.524  0.0439 -0.1820  2.6163
 1205TIP3    H225251   1.416   0.518   1.568  0.8128 -1.1480 -1.1038
 1206TIP3   OH225252   5.073   4.096   2.533  0.6186 -0.3755 -0.2268
 1206TIP3    H125253   5.122   4.172   2.501  0.5602  0.3996  1.4198
 1206TIP3    H225254   5.108   4.079   2.620  0.1728 -1.8495 -0.3118
 1207TIP3   OH225255   5.091   4.366   2.139  0.0660 -0.0559 -0.1212
 1207TIP3    H125256   5.107   4.419   2.217 -0.9501  0.0943  0.0027
 1207TIP3    H225257   5.172   4.373   2.088  0.3439  0.7168  0.4094
 1208TIP3   OH225258   6.341   5.092   8.317  0.1412  0.1853  0.5253
 1208TIP3    H125259   6.344   5.148   8.239 -0.8439 -0.6548 -0.1481
 1208TIP3    H225260   6.303   5.148   8.385 -1.2205  0.2481 -0.2460
 1209TIP3   OH225261   2.134   3.607   8.156 -0.4238 -1.1323 -0.2836
 1209TIP3    H125262   2.048   3.565   8.155 -1.8662  1.4795  1.5615
 1209TIP3    H225263   2.115   3.701   8.161  2.4366 -0.5096  2.5046
 1210TIP3   OH225264   0.217   3.753   2.052 -0.3564  0.3103 -0.2174
 1210TIP3    H125265   0.144   3.699   2.024 -0.3841 -1.3653  2.7287
 1210TIP3    H225266   0.288   3.730   1.992 -0.6152 -2.4440  0.4133
 1211TIP3   OH225267   5.249   2.628   3.338 -0.0658 -0.0732  0.0196
 1211TIP3    H125268   5.329   2.680   3.349  0.9125 -1.2488 -1.3042
 1211TIP3    H225269   5.280   2.538   3.332 -1.2663 -0.3732 -2.7477
 1212TIP3   OH225270   5.054   0.809   1.699 -0.2525 -0.0730  0.2347
 1212TIP3    H125271   5.146   0.833   1.687 -0.2659  1.1581  2.1054
 1212TIP3    H225272   5.031   0.761   1.620  1.1125  2.3069 -1.7649
 1213TIP3   OH225273   3.266   0.215   0.461 -0.1493 -0.4515  0.0457
 1213TIP3    H125274   3.233   0.227   0.371 -0.3209 -1.1650  0.0104
 1213TIP3    H225275   3.352   0.256   0.460 -1.2660  2.0929  0.3256
 1214TIP3   OH225276   4.245   4.575   7.829 -0.4280  0.1198 -0.2032
 1214TIP3    H125277   4.273   4.666   7.819 -1.5946  0.7421  1.6547
 1214TIP3    H225278   4.327   4.525   7.825  0.5332  1.4833  1.0523
 1215TIP3   OH225279   0.493   2.425   7.829  0.0167 -0.7335 -0.4119
 1215TIP3    H125280   0.494   2.515   7.795  0.2668 -0.5896 -0.0332
 1215TIP3    H225281   0.573   2.386   7.796 -0.5624 -1.1303 -1.3831
 1216TIP3   OH225282   2.234   4.946   8.069 -0.5939 -0.7557  0.1080
 1216TIP3    H125283   2.159   4.953   8.011 -0.1332 -0.4290 -0.4596
 1216TIP3    H225284   2.245   5.033   8.106 -0.2789 -0.7160 -0.0805
 1217TIP3   OH225285   1.952   3.593   1.011  0.6617  0.1368 -0.0224
 1217TIP3    H125286   2.035   3.597   0.965  2.1686  3.1248  2.5687
 1217TIP3    H225287   1.974   3.564   1.099 -1.2758 -0.3061  0.3804
 1218TIP3   OH225288   1.639   1.672   2.892  0.4546  0.2112  0.3985
 1218TIP3    H125289   1.675   1.686   2.804  2.2678 -0.4242  1.0010
 1218TIP3    H225290   1.694   1.603   2.930 -0.0372  0.7565  2.1904
 1219TIP3   OH225291   0.806   6.844   2.210  0.5254  0.3891 -0.2201
 1219TIP3    H125292   0.857   6.919   2.240 -0.8838  1.9285 -1.4684
 1219TIP3    H225293   0.743   6.881   2.149 -0.9436 -1.6780 -0.0605
 1220TIP3   OH225294   6.266   1.644   8.335  0.5811 -0.2655  0.4350
 1220TIP3    H125295   6.351   1.644   8.293  0.6806 -1.4844  0.6058
 1220TIP3    H225296   6.245   1.737   8.349  2.1401  0.0311  0.9278
 1221TIP3   OH225297   5.504   0.509   7.261  0.9919  0.1272 -0.0519
 1221TIP3    H125298   5.510   0.416   7.281 -1.2574 -0.4948 -1.8830
 1221TIP3    H225299   5.574   0.525   7.197  0.3715 -0.7005 -0.9560
 1222TIP3   OH225300   0.394   4.703   1.419  0.3135  0.7532  0.0268
 1222TIP3    H125301   0.351   4.721   1.336  0.2151 -0.6727 -0.2546
 1222TIP3    H225302   0.351   4.761   1.482 -0.1520  1.2790 -0.7602
 1223TIP3   OH225303   5.806   0.664   8.339  0.7874  0.2886 -0.2604
 1223TIP3    H125304   5.774   0.581   8.304 -2.2047  1.3320 -0.3130
 1223TIP3    H225305   5.807   0.723   8.263 -0.3348  1.1134  0.3385
 1224TIP3   OH225306   2.821   5.817   0.694  0.4862  0.0305  0.6122
 1224TIP3    H125307   2.790   5.735   0.655  2.4831 -1.0681  1.2244
 1224TIP3    H225308   2.763   5.831   0.769  0.3360 -0.9952  0.7008
 1225TIP3   OH225309   0.978   5.986   2.574  0.1621  0.3349  0.0343
 1225TIP3    H125310   1.066   6.023   2.579 -0.2166  1.1386  1.0194
 1225TIP3    H225311   0.962   5.948   2.661 -0.1945 -0.4349 -0.3582
 1226TIP3   OH225312   4.797   4.858   7.168 -0.7712  0.5106  0.3481
 1226TIP3    H125313   4.708   4.830   7.191 -0.5544 -1.2210 -0.7452
 1226TIP3    H225314   4.849   4.840   7.246 -1.5853  2.9146  1.5430
 1227TIP3   OH225315   6.163   3.495   8.382  0.4155  0.4345  0.0086
 1227TIP3    H125316   6.183   3.414   8.428 -0.0874 -0.0279 -0.5689
 1227TIP3    H225317   6.242   3.514   8.331  0.0462 -0.4439 -0.9206
 1228TIP3   OH225318   5.677   5.665   7.555  0.3828  0.0556  0.1700
 1228TIP3    H125319   5.699   5.662   7.461  0.1154  0.7587  0.0783
 1228TIP3    H225320   5.753   5.706   7.596  0.5259 -0.3095  0.2701
 1229TIP3   OH225321   4.181   4.072   0.075  0.3508  0.4651  0.1121
 1229TIP3    H125322   4.109   4.052   0.015 -0.2959  0.5342  0.8452
 1229TIP3    H225323   4.249   4.110   0.019 -0.5096  1.1796 -0.4827
 1230TIP3   OH225324   0.018   3.102   8.389 -0.0140  0.2602 -0.2385
 1230TIP3    H125325   0.036   3.067   8.301  2.1284  0.1315  0.1895
 1230TIP3    H225326   0.009   3.196   8.376  0.0110  0.2132 -0.6261
 1231TIP3   OH225327   1.749   3.350   2.135 -0.2434  0.2752 -0.4696
 1231TIP3    H125328   1.731   3.262   2.101 -0.9746  0.1373  0.2644
 1231TIP3    H225329   1.688   3.407   2.088  0.9779  0.5810 -1.7614
 1232TIP3   OH225330   3.799   1.139   0.977 -0.0453  0.0120 -0.6416
 1232TIP3    H125331   3.868   1.165   0.915  1.4128 -0.7672  0.5793
 1232TIP3    H225332   3.834   1.061   1.019 -0.7888  0.7473  1.4413
 1233TIP3   OH225333   6.038   1.895   8.154 -0.7779 -0.1373 -0.4484
 1233TIP3    H125334   5.951   1.861   8.134 -0.2337 -1.9475  0.1074
 1233TIP3    H225335   6.088   1.883   8.073 -0.6015 -0.6526 -0.2692
 1234TIP3   OH225336   1.600   3.143   0.074  0.6441  0.0128 -0.6547
 1234TIP3    H125337   1.534   3.212   0.069  0.7920  0.1378 -0.8928
 1234TIP3    H225338   1.565   3.072   0.021  1.8499  1.0368 -3.0094
 1235TIP3   OH225339   4.092   5.227   2.241  0.1654 -0.1718  0.3367
 1235TIP3    H125340   4.172   5.271   2.211  0.4569  0.3603  1.7954
 1235TIP3    H225341   4.030   5.239   2.170  0.5232  1.8417  0.3052
 1236TIP3   OH225342   0.298   3.848   7.460 -0.4750  0.0300 -0.2156
 1236TIP3    H125343   0.359   3.879   7.393 -1.0248 -0.2250 -0.8412
 1236TIP3    H225344   0.235   3.794   7.412  0.1030 -1.5731  0.7707
 1237TIP3   OH225345   5.620   6.921   8.248  0.1977 -0.2078 -0.1029
 1237TIP3    H125346   5.581   6.995   8.294  2.5779 -0.0175  1.8073
 1237TIP3    H225347   5.683   6.884   8.310  2.5156 -0.8944 -2.6468
 1238TIP3   OH225348   7.031   0.424   0.744  0.1583 -0.3548 -0.2054
 1238TIP3    H125349   7.093   0.351   0.744  0.4532 -0.1027 -0.1447
 1238TIP3    H225350   7.007   0.434   0.651 -0.0026 -0.6256 -0.1967
 1239TIP3   OH225351   5.395   3.833   1.668  0.1683  0.0553  0.0347
 1239TIP3    H125352   5.371   3.742   1.651  0.1909 -0.0759  0.7125
 1239TIP3    H225353   5.317   3.871   1.709  0.7322 -0.1021  1.2999
 1240TIP3   OH225354   5.637   2.073   0.789 -0.1016  0.3168  0.1547
 1240TIP3    H125355   5.661   2.160   0.758 -0.0369  0.2326 -0.0357
 1240TIP3    H225356   5.607   2.027   0.711  0.2761  0.0281  0.1747
 1241TIP3   OH225357   2.752   1.513   7.905 -0.5024 -0.2482  0.4598
 1241TIP3    H125358   2.836   1.518   7.859  1.1502  1.5904  3.3607
 1241TIP3    H225359   2.697   1.578   7.860  0.6968  0.7274  0.3356
 1242TIP3   OH225360   4.773   1.610   1.882 -0.1268 -0.4218  0.7006
 1242TIP3    H125361   4.799   1.699   1.908 -0.6950  0.3778 -1.3213
 1242TIP3    H225362   4.847   1.555   1.908  0.6851  0.7950  1.0455
 1243TIP3   OH225363   1.784   5.480   6.687 -0.0384 -0.1285 -0.6763
 1243TIP3    H125364   1.804   5.569   6.657 -2.5153  1.1006  1.0246
 1243TIP3    H225365   1.701   5.458   6.646 -0.1719 -1.0852  0.0508
 1244TIP3   OH225366   5.757   2.938   1.642  0.7090  0.3150 -0.2476
 1244TIP3    H125367   5.819   2.957   1.572 -0.2643  0.7506 -1.0173
 1244TIP3    H225368   5.687   2.889   1.599 -0.6198  1.8393  0.0730
 1245TIP3   OH225369   3.201   1.106   1.987  0.5075 -0.2953 -0.0460
 1245TIP3    H125370   3.210   1.100   2.082 -0.5461 -2.4474  0.0000
 1245TIP3    H225371   3.114   1.144   1.974  0.5668 -0.1936 -0.1484
 1246TIP3   OH225372   2.062   0.667   7.866  0.7856 -0.1955  0.5109
 1246TIP3    H125373   2.044   0.718   7.787  0.4104 -0.9361  0.1054
 1246TIP3    H225374   2.147   0.698   7.897  1.1115 -0.1678 -0.3997
 1247TIP3   OH225375   3.269   6.222   1.400 -0.5130  0.2564  0.3912
 1247TIP3    H125376   3.285   6.296   1.458  0.5584  1.5642 -1.4797
 1247TIP3    H225377   3.195   6.250   1.346  0.0340  0.0571 -0.4680
 1248TIP3   OH225378   0.861   2.850   8.329 -0.0339  0.9731 -0.4490
 1248TIP3    H125379   0.862   2.831   8.235  4.3141 -1.7338 -0.1544
 1248TIP3    H225380   0.875   2.944   8.335 -1.5370  1.3784 -2.4346
 1249TIP3   OH225381   2.685   4.322   8.278 -0.0410 -0.1143  0.3754
 1249TIP3    H125382   2.592   4.327   8.255 -0.3482 -0.4629  1.4882
 1249TIP3    H225383   2.726   4.280   8.202 -0.6459  0.7848 -0.4746
 1250TIP3   OH225384   6.935   3.203   1.754 -0.0639  0.7987 -0.0363
 1250TIP3    H125385   6.916   3.125   1.806 -0.7234  0.7161 -0.3977
 1250TIP3    H225386   6.956   3.170   1.667 -1.1139  1.0555 -0.4026
 1251TIP3   OH225387   2.805   3.650   7.279 -0.2677 -0.0591  0.0013
 1251TIP3    H125388   2.761   3.593   7.342  0.2547  0.1217  0.5535
 1251TIP3    H225389   2.807   3.600   7.198 -2.0019  0.1655 -0.2098
 1252TIP3   OH225390   3.286   6.585   2.575  0.2691  0.2351 -0.2279
 1252TIP3    H125391   3.206   6.536   2.592  0.3469 -0.4214 -1.5819
 1252TIP3    H225392   3.348   6.554   2.642 -0.4630  0.4287  0.5525
 1253TIP3   OH225393   4.795   6.281   0.803 -0.1083 -0.0206  0.0763
 1253TIP3    H125394   4.748   6.318   0.728 -0.4388 -0.7898 -0.0993
 1253TIP3    H225395   4.769   6.189   0.806  1.1161 -0.3902  0.1868
 1254TIP3   OH225396   1.706   4.939   2.168  0.5795 -0.0239 -0.2163
 1254TIP3    H125397   1.742   4.854   2.194  0.3353 -1.1113 -3.0482
 1254TIP3    H225398   1.615   4.921   2.146 -0.1221  1.4987  1.2420
 1255TIP3   OH225399   5.107   2.341   2.477  0.2221  0.2666  0.6881
 1255TIP3    H125400   5.059   2.313   2.555  0.2411 -0.4893  0.4299
 1255TIP3    H225401   5.188   2.379   2.511 -0.3040  1.0488  1.0977
 1256TIP3   OH225402   2.141   6.704   1.733 -0.5231 -0.2217 -0.3451
 1256TIP3    H125403   2.234   6.680   1.734 -0.5287 -0.2378  0.2157
 1256TIP3    H225404   2.095   6.621   1.740 -0.5820 -0.2074 -0.5449
 1257TIP3   OH225405   5.737   0.747   2.227  0.2174 -0.3390 -0.1771
 1257TIP3    H125406   5.797   0.813   2.263 -0.5511  1.2019 -1.6136
 1257TIP3    H225407   5.752   0.669   2.281  1.6578  0.7873  1.1281
 1258TIP3   OH225408   5.536   5.010   2.383  0.5418  0.3024 -0.1429
 1258TIP3    H125409   5.552   5.103   2.402 -0.6834  0.1006  2.1785
 1258TIP3    H225410   5.545   5.004   2.288  1.6507  2.5798 -0.2646
 1259TIP3   OH225411   0.971   4.163   2.580  0.6455 -0.2905 -0.0079
 1259TIP3    H125412   0.955   4.256   2.570 -1.1960 -0.5426  0.2570
 1259TIP3    H225413   0.959   4.146   2.673  0.5548 -0.8496 -0.1165
 1260TIP3   OH225414   6.729   5.343   6.533  0.2184  0.2804 -0.6107
 1260TIP3    H125415   6.641   5.376   6.549  1.1203  1.2713  3.2761
 1260TIP3    H225416   6.780   5.420   6.510  0.5221  0.0755 -0.6318
 1261TIP3   OH225417   4.273   5.492   6.821 -0.2261  0.7252 -0.2403
 1261TIP3    H125418   4.268   5.549   6.744 -0.2072  2.1262  0.7537
 1261TIP3    H225419   4.356   5.515   6.862  0.4677 -1.0503 -0.5403
 1262TIP3   OH225420   6.103   3.972   0.191 -0.5171  0.1509 -0.3221
 1262TIP3    H125421   6.025   3.946   0.240 -0.2613 -1.1581 -0.5646
 1262TIP3    H225422   6.137   3.889   0.155  2.3001  0.3156  1.6913
 1263TIP3   OH225423   5.307   6.942   0.887 -0.1228 -0.2530  0.2866
 1263TIP3    H125424   5.317   6.852   0.916  0.5017 -0.3234 -0.1319
 1263TIP3    H225425   5.396   6.974   0.874 -0.2720  0.8911  1.7858
 1264TIP3   OH225426   5.619   4.319   3.081 -0.0274  0.8020 -0.3393
 1264TIP3    H125427   5.645   4.231   3.108 -1.4344 -0.0211 -1.5688
 1264TIP3    H225428   5.648   4.375   3.153 -2.4786 -1.1091  2.3571
 1265TIP3   OH225429   4.670   2.882   1.528 -0.0464 -0.0367 -0.1732
 1265TIP3    H125430   4.607   2.950   1.551  0.9004  0.3626  1.3369
 1265TIP3    H225431   4.706   2.853   1.611  1.8602 -0.1768 -0.9995
 1266TIP3   OH225432   5.088   3.890   8.336 -0.4961  0.4984  0.1303
 1266TIP3    H125433   5.059   3.927   8.419 -0.5877  0.5211  0.0877
 1266TIP3    H225434   5.183   3.880   8.346 -0.5721  0.0111  0.4319
 1267TIP3   OH225435   1.763   4.726   2.957 -0.4605 -0.1044  0.3945
 1267TIP3    H125436   1.782   4.755   3.047 -0.2242 -0.5700  0.4973
 1267TIP3    H225437   1.849   4.717   2.916 -0.2875 -3.2218  1.1702
 1268TIP3   OH225438   2.081   5.569   1.477 -0.0659 -0.1554 -1.0467
 1268TIP3    H125439   2.111   5.481   1.454  1.8810  1.1321 -4.0296
 1268TIP3    H225440   2.048   5.606   1.395 -0.6645  1.9903  0.0805
 1269TIP3   OH225441   5.124   1.678   0.720  0.4359 -0.6137  0.2130
 1269TIP3    H125442   5.193   1.682   0.787  0.8729  2.0981 -0.2630
 1269TIP3    H225443   5.142   1.754   0.664 -0.9779 -1.7866 -1.9267
 1270TIP3   OH225444   1.636   3.369   7.287  0.1752 -0.3946 -0.3860
 1270TIP3    H125445   1.696   3.370   7.213 -2.1544 -0.2899 -2.3614
 1270TIP3    H225446   1.598   3.281   7.287 -0.8106  0.0133 -0.1452
 1271TIP3   OH225447   5.054   0.058   6.530 -0.5421 -0.2244 -0.2619
 1271TIP3    H125448   5.095   0.051   6.443  0.0184 -2.3229  0.1221
 1271TIP3    H225449   5.121   0.026   6.590 -0.4747  2.3301  1.1485
 1272TIP3   OH225450   3.450   5.405   0.570 -0.1020  0.3713  0.5601
 1272TIP3    H125451   3.424   5.494   0.548  0.3317  0.4767  0.4610
 1272TIP3    H225452   3.541   5.413   0.599 -0.0603 -0.0354  0.5499
 1273TIP3   OH225453   3.280   1.504   1.798 -0.0295 -0.2024  0.0224
 1273TIP3    H125454   3.242   1.498   1.711 -2.3581 -2.3769  1.0799
 1273TIP3    H225455   3.321   1.419   1.813  0.1349  0.0512  1.1330
 1274TIP3   OH225456   4.407   0.314   0.206 -0.1442 -0.2006  0.0377
 1274TIP3    H125457   4.387   0.406   0.186 -0.7079 -0.5544 -1.0892
 1274TIP3    H225458   4.502   0.311   0.214 -0.1411  0.5358  0.3621
 1275TIP3   OH225459   6.433   0.756   0.604 -0.2666  0.6562 -0.4027
 1275TIP3    H125460   6.470   0.803   0.679  0.3622  0.4520 -0.5773
 1275TIP3    H225461   6.501   0.694   0.579 -1.4166 -0.9881  0.3810
 1276TIP3   OH225462   2.902   1.993   1.932 -0.1133  0.3478  0.3907
 1276TIP3    H125463   2.959   2.069   1.926 -0.3017  0.3996 -1.1973
 1276TIP3    H225464   2.854   2.004   2.014 -0.9958  2.5661 -0.3565
 1277TIP3   OH225465   0.156   5.602   1.135  0.0835 -0.1162 -0.1082
 1277TIP3    H125466   0.149   5.697   1.148 -0.9142  0.1320 -2.1076
 1277TIP3    H225467   0.179   5.592   1.043 -1.2702 -1.8502 -0.3022
 1278TIP3   OH225468   0.296   4.746   1.123 -0.3791  0.4456  0.1983
 1278TIP3    H125469   0.214   4.714   1.084 -0.1706  0.8776 -0.6212
 1278TIP3    H225470   0.364   4.690   1.084 -0.2928 -0.0228  1.0035
 1279TIP3   OH225471   3.783   5.564   7.904 -0.2805  0.1309  0.1475
 1279TIP3    H125472   3.810   5.647   7.865 -0.7910 -0.6040 -1.9287
 1279TIP3    H225473   3.752   5.587   7.992 -0.2609  2.1068 -0.3209
 1280TIP3   OH225474   3.192   5.271   1.535 -0.0329 -0.1155  0.2553
 1280TIP3    H125475   3.286   5.270   1.550 -0.0989  0.3149  0.7028
 1280TIP3    H225476   3.180   5.218   1.456  0.4917 -0.9337  0.7124
 1281TIP3   OH225477   0.153   1.619   8.181 -0.1014  0.4852  0.9245
 1281TIP3    H125478   0.092   1.552   8.148 -0.3585  1.7448 -1.4050
 1281TIP3    H225479   0.115   1.702   8.153  1.6265  1.4370  1.2408
 1282TIP3   OH225480   5.879   5.547   2.886  0.0671  0.0470 -0.4904
 1282TIP3    H125481   5.807   5.589   2.932 -0.1720  0.3437 -1.1348
 1282TIP3    H225482   5.940   5.618   2.866 -0.2232  0.0620 -1.3618
 1283TIP3   OH225483   4.730   3.612   7.152  0.3526  0.0330  0.2807
 1283TIP3    H125484   4.657   3.558   7.181 -0.1222  1.0240  0.9833
 1283TIP3    H225485   4.722   3.616   7.057  0.1611 -0.7880  0.2598
 1284TIP3   OH225486   5.669   1.481   0.265  0.5838 -0.2687  0.2090
 1284TIP3    H125487   5.718   1.425   0.205  1.5671  0.5646  0.2218
 1284TIP3    H225488   5.711   1.566   0.259 -0.8091  0.4653  0.2890
 1285TIP3   OH225489   5.327   0.532   6.753  0.1382  0.0321  0.6638
 1285TIP3    H125490   5.385   0.458   6.733 -0.5055 -0.9712  2.3165
 1285TIP3    H225491   5.249   0.516   6.700 -0.6188 -1.3564  2.1057
 1286TIP3   OH225492   4.574   1.644   2.159 -0.4184 -0.3559 -0.6127
 1286TIP3    H125493   4.664   1.614   2.175 -0.2780  0.6545  0.7429
 1286TIP3    H225494   4.530   1.633   2.244 -0.7056  1.9538 -0.3966
 1287TIP3   OH225495   2.299   0.163   0.551  0.5836  0.1666  0.2933
 1287TIP3    H125496   2.234   0.229   0.530 -0.0970  0.0045  1.7797
 1287TIP3    H225497   2.252   0.099   0.605  1.4314 -1.0990 -0.4132
 1288TIP3   OH225498   5.306   6.398   1.291  0.0767  0.5721 -0.2818
 1288TIP3    H125499   5.230   6.347   1.317  0.9519 -1.1327 -0.9429
 1288TIP3    H225500   5.369   6.386   1.362  0.2294  0.9035 -0.3556
 1289TIP3   OH225501   4.168   6.412   0.468 -0.2315  0.3433  0.1207
 1289TIP3    H125502   4.099   6.462   0.425  0.3244  1.9565  1.0242
 1289TIP3    H225503   4.127   6.378   0.548  0.0180  1.3894  0.7104
 1290TIP3   OH225504   1.527   3.796   2.917  0.0394 -0.1142  0.0379
 1290TIP3    H125505   1.608   3.790   2.866  1.6219 -1.0310  2.4546
 1290TIP3    H225506   1.485   3.711   2.906  0.9978 -0.7665  1.1018
 1291TIP3   OH225507   4.920   0.590   0.226 -0.0626  0.2974  0.0260
 1291TIP3    H125508   4.912   0.685   0.215  1.0778  0.5635  1.2391
 1291TIP3    H225509   5.004   0.569   0.185 -1.3010 -0.5957 -2.2631
 1292TIP3   OH225510   3.525   6.293   1.323  0.8619 -0.6187 -0.1176
 1292TIP3    H125511   3.476   6.374   1.315  2.6757  0.7623  1.5501
 1292TIP3    H225512   3.463   6.230   1.360 -1.0707 -0.5993 -3.0638
 1293TIP3   OH225513   3.645   6.046   0.598 -0.3211 -0.0754 -0.4333
 1293TIP3    H125514   3.634   6.134   0.560 -0.5426  0.3299  0.5285
 1293TIP3    H225515   3.603   6.052   0.683  0.6540 -0.7940  0.1150
 1294TIP3   OH225516   6.960   1.056   6.826  0.2958  0.2599  0.5290
 1294TIP3    H125517   6.885   1.005   6.858  1.3064 -1.4303  0.3516
 1294TIP3    H225518   6.933   1.087   6.740  0.3690 -1.8377 -0.3254
 1295TIP3   OH225519   1.690   7.001   1.091  0.5877  0.0548  0.3453
 1295TIP3    H125520   1.631   7.013   1.017 -0.8973  0.2391  1.5124
 1295TIP3    H225521   1.738   7.084   1.097  0.2762  0.2681 -0.0329
 1296TIP3   OH225522   2.464   0.297   8.385  0.5058 -0.0165 -0.5508
 1296TIP3    H125523   2.468   0.243   8.306 -1.4675 -0.6665 -0.2381
 1296TIP3    H225524   2.462   0.387   8.352  2.5487 -0.1082 -1.1030
 1297TIP3   OH225525   5.425   4.860   0.345  0.3869 -0.3810 -0.4963
 1297TIP3    H125526   5.374   4.919   0.288 -1.6007  0.9787  2.4278
 1297TIP3    H225527   5.508   4.905   0.358  0.5405 -0.3110 -1.6310
 1298TIP3   OH225528   4.874   4.870   0.751  0.6374  0.0624  0.3194
 1298TIP3    H125529   4.904   4.844   0.664  0.4780  0.1497  0.2378
 1298TIP3    H225530   4.781   4.849   0.751  0.4912  0.7046  0.2276
 1299TIP3   OH225531   6.879   1.936   7.420  0.3229  0.7313 -0.4305
 1299TIP3    H125532   6.953   1.996   7.416  0.0896  1.0722  0.2274
 1299TIP3    H225533   6.832   1.950   7.338  0.8894  0.6341 -0.7746
 1300TIP3   OH225534   3.793   6.860   0.815  0.0496  0.0968 -0.5240
 1300TIP3    H125535   3.785   6.814   0.898  1.0459 -1.8755 -1.4554
 1300TIP3    H225536   3.885   6.885   0.810  0.0308  0.0600 -1.1123
 1301TIP3   OH225537   6.506   5.280   1.165 -0.8239 -0.3571  0.1309
 1301TIP3    H125538   6.543   5.272   1.077 -0.4221 -0.1135  0.2762
 1301TIP3    H225539   6.567   5.337   1.212 -2.5587  2.0856 -0.3255
 1302TIP3   OH225540   3.858   3.473   2.784 -0.3311  0.4468  0.0014
 1302TIP3    H125541   3.927   3.523   2.826 -0.2329  0.9368 -0.7324
 1302TIP3    H225542   3.897   3.387   2.766 -0.0968  0.5339  0.1016
 1303TIP3   OH225543   2.746   2.870   0.017  0.1901 -0.1126 -0.0267
 1303TIP3    H125544   2.703   2.794  -0.022 -0.7737 -0.1874  1.1456
 1303TIP3    H225545   2.724   2.866   0.110  0.9101  1.0861  0.2204
 1304TIP3   OH225546   6.053   4.422   1.059 -0.2232  0.3570 -0.5692
 1304TIP3    H125547   6.129   4.454   1.011 -0.2042  1.8898  0.4099
 1304TIP3    H225548   5.978   4.454   1.010 -0.2838 -1.0923 -1.4935
 1305TIP3   OH225549   6.246   6.383   0.483  0.3160 -0.3207  0.6102
 1305TIP3    H125550   6.341   6.389   0.491  0.2061  0.3742  1.6208
 1305TIP3    H225551   6.220   6.319   0.551 -0.1237  1.2647  2.0079
 1306TIP3   OH225552   0.070   6.579   1.729  0.2004 -0.1865 -0.0126
 1306TIP3    H125553   0.088   6.628   1.649  1.7434  0.6357  0.7978
 1306TIP3    H225554   0.156   6.553   1.761 -0.3199  0.1054  1.7451
 1307TIP3   OH225555   3.123   4.293   0.529  0.4188  0.0726  0.0470
 1307TIP3    H125556   3.069   4.337   0.595  1.3088  1.7147 -0.2548
 1307TIP3    H225557   3.065   4.288   0.452 -0.1272 -0.4907  0.4858
 1308TIP3   OH225558   0.679   1.423   0.184 -0.4620 -0.4000  0.4893
 1308TIP3    H125559   0.615   1.494   0.175  0.0961 -0.0764 -1.2828
 1308TIP3    H225560   0.737   1.452   0.254 -1.1776  0.1353  0.8795
 1309TIP3   OH225561   6.879   0.299   1.096  0.3774 -0.5306 -0.8787
 1309TIP3    H125562   6.865   0.368   1.032 -1.3687  0.4037  0.4431
 1309TIP3    H225563   6.796   0.252   1.100  0.3480 -0.3897  0.8633
 1310TIP3   OH225564   5.461   2.210   1.867 -0.4208 -0.3297 -0.4662
 1310TIP3    H125565   5.375   2.198   1.909  1.1751  0.2481  3.4363
 1310TIP3    H225566   5.471   2.305   1.863  0.5540 -0.3727  0.4755
 1311TIP3   OH225567   1.100   2.078   8.371 -0.2751  0.3236 -0.0819
 1311TIP3    H125568   1.043   2.155   8.379 -0.5339  0.0399  1.0669
 1311TIP3    H225569   1.189   2.115   8.365 -0.4334  0.7225 -0.0415
 1312TIP3   OH225570   3.175   4.278   7.622 -0.3786 -0.0498 -0.1180
 1312TIP3    H125571   3.104   4.318   7.572 -0.8535 -1.2405 -0.4301
 1312TIP3    H225572   3.254   4.295   7.570 -0.8750 -1.3609 -1.3897
 1313TIP3   OH225573   1.264   0.238   8.216 -0.6895  0.3453 -0.1397
 1313TIP3    H125574   1.249   0.219   8.123  0.5199 -2.6084  0.1800
 1313TIP3    H225575   1.336   0.301   8.216  1.4610 -1.9238 -1.2640
 1314TIP3   OH225576   4.576   2.092   7.332 -0.2983 -0.8378 -0.5206
 1314TIP3    H125577   4.597   2.160   7.269 -0.3490  0.5449  0.8863
 1314TIP3    H225578   4.493   2.056   7.302 -0.1755 -0.4177 -1.3922
 1315TIP3   OH225579   2.382   2.687   0.139 -0.2526  0.0102  0.5613
 1315TIP3    H125580   2.427   2.751   0.084 -1.0301  0.8394  0.8583
 1315TIP3    H225581   2.361   2.615   0.081 -0.9746  0.8281 -0.2165
 1316TIP3   OH225582   1.872   4.424   3.484 -0.2017 -0.4016  0.2425
 1316TIP3    H125583   1.897   4.332   3.485  0.7238 -0.1873  2.2632
 1316TIP3    H225584   1.914   4.462   3.561  0.3513  1.9785 -1.1059
 1317TIP3   OH225585   4.914   3.706   1.005  0.8331 -0.1082  0.4146
 1317TIP3    H125586   4.992   3.752   0.972  0.0353  0.7261 -0.3696
 1317TIP3    H225587   4.868   3.678   0.926 -0.0155  0.0105  0.8607
 1318TIP3   OH225588   5.845   4.052   2.229  0.6280 -0.4697  0.3786
 1318TIP3    H125589   5.756   4.042   2.195  0.7555 -0.3163  0.0062
 1318TIP3    H225590   5.902   4.025   2.157  0.9444  1.2240 -0.0478
 1319TIP3   OH225591   4.488   0.791   1.955 -0.1968 -0.1107 -0.8060
 1319TIP3    H125592   4.463   0.876   1.919  0.1808  0.8709  1.0947
 1319TIP3    H225593   4.424   0.775   2.024  0.8272 -0.4483  0.0997
 1320TIP3   OH225594   5.854   5.564   2.601 -0.1501  0.1853 -0.4465
 1320TIP3    H125595   5.838   5.515   2.681  0.0894 -1.3567 -1.3093
 1320TIP3    H225596   5.929   5.620   2.621  0.2973 -0.6334  0.2135
 1321TIP3   OH225597   3.321   5.526   2.030 -0.2686 -0.5518  0.3987
 1321TIP3    H125598   3.236   5.512   1.987 -0.7102 -0.1708  1.1210
 1321TIP3    H225599   3.298   5.562   2.116  0.4659 -3.2385  1.8399
 1322TIP3   OH225600   6.758   6.001   1.638 -0.2629  0.0837 -0.6261
 1322TIP3    H125601   6.665   5.986   1.656 -0.7236  1.2759 -1.8505
 1322TIP3    H225602   6.797   6.011   1.725 -1.4151  0.3111 -0.1068
 1323TIP3   OH225603   1.365   4.804   6.809  0.5857  0.0148  0.0338
 1323TIP3    H125604   1.339   4.840   6.894 -1.0061  0.6769 -0.6921
 1323TIP3    H225605   1.347   4.875   6.747 -1.3827 -1.5144 -1.2613
 1324TIP3   OH225606   2.698   6.305   8.009  0.3185 -0.1829  0.9553
 1324TIP3    H125607   2.744   6.235   7.961 -1.1301 -0.4192 -0.1593
 1324TIP3    H225608   2.752   6.383   7.993 -1.0056  0.1870 -2.7590
 1325TIP3   OH225609   1.047   5.303   1.594 -0.2964 -0.6296 -0.4228
 1325TIP3    H125610   1.001   5.387   1.595  0.6542 -0.0709 -1.5021
 1325TIP3    H225611   1.133   5.322   1.631  0.1286 -0.9975 -1.1958
 1326TIP3   OH225612   5.248   2.279   3.279 -0.0027 -0.5858 -0.3524
 1326TIP3    H125613   5.203   2.209   3.327  0.1015 -1.9514 -2.1232
 1326TIP3    H225614   5.196   2.291   3.200  1.8874 -1.2316 -1.7872
 1327TIP3   OH225615   4.697   6.931   0.932 -0.3309  0.0409 -0.3184
 1327TIP3    H125616   4.784   6.956   0.963 -0.1067 -1.5271  0.4167
 1327TIP3    H225617   4.713   6.864   0.867 -0.9887 -0.2441 -0.1943
 1328TIP3   OH225618   1.089   4.455   2.068 -0.3101 -0.3554 -0.4510
 1328TIP3    H125619   1.099   4.445   2.163  0.8842  0.2865 -0.4905
 1328TIP3    H225620   1.082   4.366   2.035 -2.2317 -0.5406  0.3692
 1329TIP3   OH225621   6.351   4.668   2.396  0.4520  0.2845 -0.1948
 1329TIP3    H125622   6.435   4.634   2.366  1.5199 -0.4573  3.1226
 1329TIP3    H225623   6.287   4.604   2.367  1.2806 -0.0976 -1.2394
 1330TIP3   OH225624   0.600   1.271   7.941  0.4501  0.8229  0.0334
 1330TIP3    H125625   0.682   1.298   7.981  1.1705 -1.0051 -0.0975
 1330TIP3    H225626   0.600   1.313   7.855  2.0996 -0.4522 -0.6431
 1331TIP3   OH225627   0.446   6.303   7.752 -0.3786  0.5877  0.1587
 1331TIP3    H125628   0.496   6.225   7.775 -0.4475  0.9290  1.5265
 1331TIP3    H225629   0.403   6.281   7.669 -0.7950 -1.0102  0.7707
 1332TIP3   OH225630   2.028   6.101   8.342  0.4518  0.3729  0.0466
 1332TIP3    H125631   2.091   6.172   8.357 -1.3732  1.9477  0.5879
 1332TIP3    H225632   2.024   6.056   8.427  1.0432  0.0880 -0.0711
 1333TIP3   OH225633   2.720   6.226   8.300 -0.6679  0.9239  0.0032
 1333TIP3    H125634   2.740   6.136   8.326 -3.1698  0.5301  0.8682
 1333TIP3    H225635   2.705   6.220   8.206  0.6261  0.7617 -0.2111
 1334TIP3   OH225636   5.334   1.951   0.299  0.0133 -0.7302 -0.3236
 1334TIP3    H125637   5.385   1.934   0.220  0.0508  0.2517 -0.5232
 1334TIP3    H225638   5.282   1.871   0.312  1.1098 -1.4877 -0.4809
 1335TIP3   OH225639   6.383   6.239   0.894  0.1803  0.2231 -0.0429
 1335TIP3    H125640   6.392   6.196   0.979 -2.7859 -1.6612 -0.5327
 1335TIP3    H225641   6.394   6.332   0.913  0.3685 -0.2152  2.2766
 1336TIP3   OH225642   1.921   0.720   2.740 -0.1857 -0.0914 -0.8855
 1336TIP3    H125643   1.852   0.721   2.806  0.3683 -3.1272 -0.1386
 1336TIP3    H225644   1.976   0.795   2.763 -0.9472 -0.0657  1.0766
 1337TIP3   OH225645   1.344   6.898   1.046 -0.1666  0.6165  0.6693
 1337TIP3    H125646   1.390   6.815   1.034  2.1054  2.0991 -2.2396
 1337TIP3    H225647   1.397   6.946   1.110  0.6930  1.1743 -0.4280
 1338TIP3   OH225648   0.991   6.357   2.341 -0.4953 -0.0880 -0.3311
 1338TIP3    H125649   0.913   6.309   2.370  0.2825 -0.6431  0.9185
 1338TIP3    H225650   1.003   6.426   2.406  0.2176 -0.1912 -0.3443
 1339TIP3   OH225651   5.448   3.403   0.246  0.2262 -0.6386 -0.8896
 1339TIP3    H125652   5.526   3.386   0.299 -2.8657  0.5481  4.9372
 1339TIP3    H225653   5.403   3.319   0.242 -0.4372 -0.3516  0.1905
 1340TIP3   OH225654   2.280   6.726   0.075 -0.3053  0.0045 -0.7669
 1340TIP3    H125655   2.330   6.691   0.001  0.1729  0.6886 -0.7752
 1340TIP3    H225656   2.339   6.716   0.150 -0.8246 -0.7768 -0.4514
 1341TIP3   OH225657   5.988   4.771   2.764  0.0371  0.2387  0.5339
 1341TIP3    H125658   5.993   4.727   2.679  2.0890 -0.0615  0.7754
 1341TIP3    H225659   5.973   4.699   2.827 -0.8931  0.3984  0.5126
 1342TIP3   OH225660   1.743   1.470   2.141 -0.5843  0.4324  0.3018
 1342TIP3    H125661   1.792   1.388   2.148  0.7691  0.8562 -2.4377
 1342TIP3    H225662   1.667   1.448   2.088 -0.0917  0.9399 -0.6480
 1343TIP3   OH225663   4.185   1.509   1.320 -0.0583 -0.4426 -0.2964
 1343TIP3    H125664   4.242   1.583   1.339 -0.5151 -0.0826 -0.2959
 1343TIP3    H225665   4.240   1.432   1.332  0.6329 -0.0785 -1.0411
 1344TIP3   OH225666   4.529   6.769   0.758 -0.5702  0.2800 -0.0490
 1344TIP3    H125667   4.570   6.685   0.735  1.1267  0.6868  1.2879
 1344TIP3    H225668   4.517   6.814   0.675 -0.6747 -0.9139 -0.6987
 1345TIP3   OH225669   3.319   6.702   7.883 -0.0697 -0.0349  0.5954
 1345TIP3    H125670   3.412   6.690   7.861  0.3004 -2.2329  2.8979
 1345TIP3    H225671   3.272   6.674   7.805  1.2022 -1.0211  0.1497
 1346TIP3   OH225672   6.936   2.228   0.409 -0.0330  0.0611 -0.1783
 1346TIP3    H125673   6.842   2.244   0.414  0.0972  0.6197  0.9524
 1346TIP3    H225674   6.952   2.199   0.319 -0.9252  2.2965 -1.1188
 1347TIP3   OH225675   2.594   3.511   7.456  0.7848 -0.0215 -0.3191
 1347TIP3    H125676   2.551   3.425   7.455  0.9031 -0.1115  0.7208
 1347TIP3    H225677   2.527   3.570   7.491  1.4791 -0.1750  1.3759
 1348TIP3   OH225678   3.067   5.189   8.100  0.0094 -0.2512 -0.2200
 1348TIP3    H125679   3.065   5.196   8.196  0.0589 -0.8387 -0.1741
 1348TIP3    H225680   3.098   5.275   8.071 -0.2706  0.0249  0.2765
 1349TIP3   OH225681   6.129   3.909   7.976  0.4711 -0.1273 -0.4158
 1349TIP3    H125682   6.178   3.904   7.894  0.2605  2.3213 -0.7741
 1349TIP3    H225683   6.130   4.003   7.998  0.3045 -0.6870  2.2455
 1350TIP3   OH225684   3.695   1.967   1.108 -0.0504  0.8053 -0.1204
 1350TIP3    H125685   3.723   2.036   1.168 -0.3089 -0.6825  1.8470
 1350TIP3    H225686   3.772   1.911   1.097 -0.7901 -0.6185  1.3979
 1351TIP3   OH225687   3.732   5.444   7.441 -0.5716  0.1667  0.4797
 1351TIP3    H125688   3.767   5.440   7.530 -2.2687  0.5448  1.2150
 1351TIP3    H225689   3.656   5.385   7.443  0.2370 -1.0009 -1.1690
 1352TIP3   OH225690   1.094   0.437   1.375 -0.1334  0.0082 -0.7447
 1352TIP3    H125691   1.005   0.417   1.347 -0.2331  0.2690 -0.6167
 1352TIP3    H225692   1.099   0.402   1.464 -0.5083  1.0817 -0.2816
 1353TIP3   OH225693   5.313   3.278   7.367  0.2551 -0.7499  0.2168
 1353TIP3    H125694   5.260   3.278   7.287 -0.4504 -0.7874  0.6726
 1353TIP3    H225695   5.253   3.246   7.435  0.3593  0.7796  1.0703
 1354TIP3   OH225696   1.787   3.987   1.105 -0.1991  0.4020 -0.2408
 1354TIP3    H125697   1.722   4.043   1.062 -0.9825  0.3344  0.8159
 1354TIP3    H225698   1.760   3.898   1.083 -1.0888  0.3356  1.0170
 1355TIP3   OH225699   0.926   0.803   8.181 -1.1345 -0.3352  0.0351
 1355TIP3    H125700   0.836   0.819   8.211 -0.7470  1.9441  0.1428
 1355TIP3    H225701   0.930   0.844   8.095  0.1124  0.6417  0.5311
 1356TIP3   OH225702   0.596   2.040   2.995 -0.2117 -0.3000 -0.0323
 1356TIP3    H125703   0.663   2.069   2.932 -1.7202  0.0526 -1.5567
 1356TIP3    H225704   0.566   2.120   3.037 -0.9035 -0.2206 -0.6531
 1357TIP3   OH225705   4.288   6.367   7.807  0.1062  0.0424  0.1062
 1357TIP3    H125706   4.218   6.356   7.872  0.3975 -0.2351  0.3748
 1357TIP3    H225707   4.253   6.327   7.728 -0.0906  0.0189  0.2044
 1358TIP3   OH225708   6.001   2.042   7.231  0.5302  0.0323 -0.3672
 1358TIP3    H125709   6.036   2.130   7.243 -0.6148  0.3333  1.2428
 1358TIP3    H225710   5.928   2.037   7.294  1.0876 -2.3439  0.2002
 1359TIP3   OH225711   2.469   5.495   2.327  0.3492 -0.4009  0.1268
 1359TIP3    H125712   2.504   5.417   2.370  0.1858 -1.9746 -2.3857
 1359TIP3    H225713   2.374   5.480   2.325  0.3520 -0.3273 -0.6916
 1360TIP3   OH225714   5.227   3.878   7.211  0.1107 -0.1704  0.5389
 1360TIP3    H125715   5.206   3.953   7.267  0.2067  0.9157 -0.8479
 1360TIP3    H225716   5.142   3.849   7.176  0.2156  0.1170  0.0449
 1361TIP3   OH225717   5.915   2.960   7.873  0.0124  0.2253 -0.7054
 1361TIP3    H125718   5.867   2.953   7.955  0.2501  2.1798 -0.3687
 1361TIP3    H225719   5.853   2.930   7.806 -0.4515 -0.6024  0.0759
 1362TIP3   OH225720   6.198   6.181   0.654  0.2611  0.1609 -0.6188
 1362TIP3    H125721   6.109   6.154   0.677  0.6607  0.4381  1.4555
 1362TIP3    H225722   6.243   6.189   0.738  1.9474  1.1060 -1.5577
 1363TIP3   OH225723   5.327   5.431   2.524  0.0693 -0.1566  0.0108
 1363TIP3    H125724   5.247   5.482   2.534 -0.5560 -1.0680 -0.2097
 1363TIP3    H225725   5.364   5.461   2.441  0.1540  0.5137  0.2809
 1364TIP3   OH225726   4.070   1.599   8.236 -0.5245  0.6509 -1.0646
 1364TIP3    H125727   4.160   1.616   8.209 -0.3005  0.1898 -0.6319
 1364TIP3    H225728   4.062   1.504   8.233 -0.4225  0.5609  0.6599
 1365TIP3   OH225729   5.657   0.526   2.362 -0.2281 -0.2870  0.2032
 1365TIP3    H125730   5.665   0.431   2.364  0.6762 -0.2171  0.5486
 1365TIP3    H225731   5.636   0.550   2.453 -3.5132 -0.3605 -0.4283
 1366TIP3   OH225732   0.450   2.505   2.574  0.2028  0.5423 -0.2634
 1366TIP3    H125733   0.465   2.578   2.514  1.2881  0.1748 -0.4702
 1366TIP3    H225734   0.455   2.544   2.661 -1.1166  1.0336 -0.3864
 1367TIP3   OH225735   4.677   0.143   1.227 -0.0208  0.3785 -0.2484
 1367TIP3    H125736   4.711   0.114   1.311  1.1953  1.8391 -0.2027
 1367TIP3    H225737   4.741   0.110   1.163 -0.9395 -0.7310 -0.6375
 1368TIP3   OH225738   5.686   1.525   0.554  0.5766 -0.0463  0.1027
 1368TIP3    H125739   5.684   1.435   0.584  2.1304 -0.2495 -0.3023
 1368TIP3    H225740   5.709   1.519   0.461 -3.2602  0.5999 -1.0466
 1369TIP3   OH225741   2.673   0.052   6.853  0.1501 -0.2025 -0.6319
 1369TIP3    H125742   2.766   0.063   6.876  0.3848 -0.9706 -1.1779
 1369TIP3    H225743   2.643  -0.020   6.908 -0.4364  0.7728  0.3608
 1370TIP3   OH225744   0.561   3.142   2.668  0.7984  0.8583 -0.4529
 1370TIP3    H125745   0.550   3.228   2.709 -0.5058  1.7838 -2.5082
 1370TIP3    H225746   0.532   3.080   2.734 -0.2533  2.1834  0.4052
 1371TIP3   OH225747   6.453   4.688   0.334 -0.1367 -0.2906  0.1496
 1371TIP3    H125748   6.394   4.628   0.288  0.4418 -0.1050 -0.8648
 1371TIP3    H225749   6.519   4.631   0.373 -0.2285 -0.4006  0.1437
 1372TIP3   OH225750   1.048   4.223   1.748  0.0002 -0.2963 -0.6551
 1372TIP3    H125751   0.975   4.229   1.810 -0.5073  0.0184 -1.2703
 1372TIP3    H225752   1.011   4.178   1.672  0.8935 -1.6065 -0.3415
 1373TIP3   OH225753   3.645   6.936   7.831 -0.1181 -0.4653 -0.0779
 1373TIP3    H125754   3.738   6.952   7.848 -0.3900 -0.1490  1.2870
 1373TIP3    H225755   3.604   6.944   7.917 -1.4022 -0.6801 -0.6496
 1374TIP3   OH225756   2.997   3.325   3.498  0.3348 -0.0909  0.0591
 1374TIP3    H125757   2.936   3.344   3.570  1.9915  1.6850  1.1097
 1374TIP3    H225758   2.943   3.325   3.419 -1.2952 -0.5252  1.1248
 1375TIP3   OH225759   3.988   3.599   7.793 -0.3070 -0.1961  0.3842
 1375TIP3    H125760   4.068   3.574   7.840  0.0752  2.2201  1.1560
 1375TIP3    H225761   3.956   3.676   7.839 -1.6454  0.4604 -1.5048
 1376TIP3   OH225762   2.271   0.467   1.371 -0.2777 -0.4391  0.1310
 1376TIP3    H125763   2.261   0.461   1.275  0.6559 -0.0471  0.0069
 1376TIP3    H225764   2.277   0.560   1.389 -2.3020 -0.3879  0.7858
 1377TIP3   OH225765   1.799   6.378   7.976  0.0898  0.3002  1.1936
 1377TIP3    H125766   1.728   6.430   8.013  0.3830  1.7577 -0.1982
 1377TIP3    H225767   1.761   6.338   7.898  0.5813  0.4928  0.8512
 1378TIP3   OH225768   4.960   0.515   7.427  0.1195  0.2868 -0.1354
 1378TIP3    H125769   4.930   0.509   7.337  0.6843 -0.6968 -0.2788
 1378TIP3    H225770   4.900   0.459   7.476  1.1351 -1.0199 -0.2936
 1379TIP3   OH225771   4.333   1.725   0.812 -0.4516  0.4308 -0.3300
 1379TIP3    H125772   4.401   1.768   0.760  1.3592 -0.5946  1.0560
 1379TIP3    H225773   4.367   1.637   0.828 -0.4785  0.8968  3.1774
 1380TIP3   OH225774   4.643   6.334   1.351  0.7011  0.2006  0.3116
 1380TIP3    H125775   4.700   6.273   1.305 -0.1418  0.7449 -1.5530
 1380TIP3    H225776   4.570   6.280   1.382  0.6216  0.0387 -0.1534
 1381TIP3   OH225777   6.811   4.740   0.604  0.0413  0.3954 -0.8602
 1381TIP3    H125778   6.775   4.702   0.524 -0.6958 -0.4667 -0.1486
 1381TIP3    H225779   6.764   4.823   0.615  0.2182  0.5622 -1.3709
 1382TIP3   OH225780   1.234   1.143   7.791 -0.7246  0.0811 -0.1918
 1382TIP3    H125781   1.153   1.151   7.740 -0.7521  0.1292 -0.1414
 1382TIP3    H225782   1.290   1.213   7.757 -0.3983 -0.4610 -0.7811
 1383TIP3   OH225783   3.178   5.853   0.916  0.4067 -0.2517 -0.1860
 1383TIP3    H125784   3.227   5.891   0.989 -1.9916  1.6107  0.5635
 1383TIP3    H225785   3.230   5.777   0.890  2.9487  0.8006  1.4033
 1384TIP3   OH225786   1.999   3.589   2.575 -0.5092 -0.1004  0.2957
 1384TIP3    H125787   1.945   3.664   2.599 -3.7875 -1.8194 -1.0193
 1384TIP3    H225788   2.082   3.627   2.547 -1.4295  2.8634  1.1973
 1385TIP3   OH225789   4.420   3.595   3.285 -0.1365  0.1564  0.0594
 1385TIP3    H125790   4.464   3.679   3.287  0.7817 -0.3174  0.9544
 1385TIP3    H225791   4.455   3.551   3.207 -0.1777  0.3794 -0.0841
 1386TIP3   OH225792   0.588   4.191   1.645 -0.1665 -0.0768  0.4550
 1386TIP3    H125793   0.596   4.130   1.572 -0.4680 -1.8781  1.8718
 1386TIP3    H225794   0.519   4.154   1.700  1.3647  0.1670  2.6355
 1387TIP3   OH225795   2.103   0.562   2.633 -0.7143 -0.2594  0.5252
 1387TIP3    H125796   2.137   0.496   2.693  0.4319 -0.3313 -0.1734
 1387TIP3    H225797   2.042   0.613   2.685  0.6683  0.0357  1.9406
 1388TIP3   OH225798   6.280   0.971   7.544  0.4246  0.1899 -0.5882
 1388TIP3    H125799   6.323   0.915   7.609 -0.7663  0.6037  0.6222
 1388TIP3    H225800   6.311   1.059   7.565  2.0206  0.0724 -2.2597
 1389TIP3   OH225801   1.287   1.021   1.131  0.3933  0.2467  0.5318
 1389TIP3    H125802   1.315   1.007   1.040 -0.7063  0.0214  0.2139
 1389TIP3    H225803   1.352   0.975   1.183  0.7347 -0.0873 -0.1680
 1390TIP3   OH225804   6.365   5.030   0.447  0.5565  0.8096 -0.1429
 1390TIP3    H125805   6.332   5.069   0.528  1.1806  0.6980  0.1685
 1390TIP3    H225806   6.418   5.099   0.407  2.0072  0.1735  0.6159
 1391TIP3   OH225807   3.212   2.461   2.929  0.2545 -0.4807 -0.1530
 1391TIP3    H125808   3.257   2.403   2.990 -1.2075  0.8154  2.3640
 1391TIP3    H225809   3.128   2.417   2.912 -0.3623  0.2736  0.8142
 1392TIP3   OH225810   2.954   3.494   1.399 -0.1739 -0.1328 -0.4622
 1392TIP3    H125811   2.966   3.459   1.487  0.2764  1.2873  0.0806
 1392TIP3    H225812   2.859   3.496   1.387 -0.4538  2.3229  1.2075
 1393TIP3   OH225813   2.266   2.722   2.184  0.3901 -0.0756  0.5079
 1393TIP3    H125814   2.288   2.756   2.098  0.6729 -1.7616 -0.1394
 1393TIP3    H225815   2.343   2.740   2.238  0.6015  0.1381  0.1343
 1394TIP3   OH225816   4.134   6.205   0.174 -0.0642 -0.5546  0.3954
 1394TIP3    H125817   4.157   6.149   0.248 -1.6578 -2.3380 -0.3643
 1394TIP3    H225818   4.157   6.294   0.203  1.3704 -1.4276  2.1462
 1395TIP3   OH225819   4.219   1.784   7.589  0.1532  0.1302 -0.2632
 1395TIP3    H125820   4.179   1.700   7.567 -2.3526  1.5993 -1.9295
 1395TIP3    H225821   4.313   1.770   7.579 -0.1253 -2.6323  0.2981
 1396TIP3   OH225822   2.521   0.278   0.513  0.1832  0.4829 -0.0682
 1396TIP3    H125823   2.436   0.237   0.529 -0.3296  1.4813 -0.2035
 1396TIP3    H225824   2.505   0.341   0.443  0.5773  2.0887  1.2263
 1397TIP3   OH225825   2.392   3.902   3.146 -0.3849 -0.6690 -0.6120
 1397TIP3    H125826   2.360   3.855   3.069  1.6314 -0.9630 -1.3365
 1397TIP3    H225827   2.478   3.936   3.119  0.5520 -1.0897  1.6219
 1398TIP3   OH225828   2.506   4.660   0.378  0.1505 -0.1578  0.0174
 1398TIP3    H125829   2.495   4.749   0.345  2.1680  0.6267  1.1906
 1398TIP3    H225830   2.471   4.663   0.467 -1.0706 -0.9601 -0.4182
 1399TIP3   OH225831   3.786   4.122   1.289 -0.1158  0.0007 -0.5064
 1399TIP3    H125832   3.700   4.165   1.288 -0.2472 -0.0863  1.6797
 1399TIP3    H225833   3.845   4.186   1.328 -0.0363 -1.2221  1.5490
 1400TIP3   OH225834   6.406   3.938   0.838 -0.0220 -0.0137  0.0198
 1400TIP3    H125835   6.387   3.844   0.841  0.0109 -0.0242 -0.0979
 1400TIP3    H225836   6.352   3.976   0.908 -1.4573  0.1435 -1.1303
 1401TIP3   OH225837   2.347   6.463   7.619 -0.1870 -1.3293  0.3915
 1401TIP3    H125838   2.388   6.550   7.625 -0.9494 -1.0150  1.4887
 1401TIP3    H225839   2.408   6.405   7.665 -0.4230 -1.0633  1.0629
 1402TIP3   OH225840   1.696   0.754   8.244  0.3639  0.3823  0.0807
 1402TIP3    H125841   1.701   0.849   8.236 -1.1673  0.4489 -0.6294
 1402TIP3    H225842   1.717   0.722   8.156  0.3363  0.0998  0.1763
 1403TIP3   OH225843   0.749   1.159   7.615  0.3480 -0.0232  0.4082
 1403TIP3    H125844   0.656   1.161   7.639  0.1830  0.2446 -0.2257
 1403TIP3    H225845   0.759   1.232   7.553  0.6155 -1.0589 -0.8041
 1404TIP3   OH225846   4.280   0.576   0.196 -0.0169 -0.2669 -0.5242
 1404TIP3    H125847   4.290   0.667   0.168  0.0377  0.6178  2.1100
 1404TIP3    H225848   4.200   0.575   0.248  1.0920 -1.1719  1.3154
 1405TIP3   OH225849   3.365   6.923   7.102 -0.5623 -0.3787  0.0590
 1405TIP3    H125850   3.383   6.898   7.011 -1.0164  1.8664 -0.7208
 1405TIP3    H225851   3.427   6.995   7.119 -0.9256 -0.3469  1.3112
 1406TIP3   OH225852   1.193   1.546   1.292  0.3047 -0.2524 -0.1122
 1406TIP3    H125853   1.222   1.632   1.324  2.0598 -1.0006  0.4113
 1406TIP3    H225854   1.208   1.551   1.197  1.1339 -0.2380  0.0134
 1407TIP3   OH225855   1.523   6.048   0.643 -0.1750 -0.0874  0.2124
 1407TIP3    H125856   1.539   5.960   0.678 -0.4485 -0.3846 -0.4061
 1407TIP3    H225857   1.428   6.053   0.633 -0.1239  0.1096 -0.1869
 1408TIP3   OH225858   0.140   5.133   0.288  0.1862  0.1308  0.1925
 1408TIP3    H125859   0.226   5.098   0.264  0.3159 -0.1487  1.0338
 1408TIP3    H225860   0.082   5.106   0.217  0.9706  1.1312 -0.8598
 1409TIP3   OH225861   2.116   4.245   0.190 -0.5942 -0.4599 -0.8894
 1409TIP3    H125862   2.021   4.252   0.199 -0.5000  0.2267 -0.3134
 1409TIP3    H225863   2.137   4.302   0.116 -0.6114 -0.4620 -0.8958
 1410TIP3   OH225864   0.230   1.514   1.791  0.3617 -0.2309 -0.3253
 1410TIP3    H125865   0.199   1.445   1.732  2.2844 -2.0219  0.5871
 1410TIP3    H225866   0.189   1.594   1.759 -0.4127 -1.4697 -2.7008
 1411TIP3   OH225867   0.761   2.074   0.155  0.8635  0.0538 -0.0019
 1411TIP3    H125868   0.676   2.058   0.195  0.9636  1.5683  0.9287
 1411TIP3    H225869   0.740   2.108   0.068  0.4855  0.5707  0.2801
 1412TIP3   OH225870   3.440   1.208   2.506 -0.4794  0.4444  0.6840
 1412TIP3    H125871   3.460   1.138   2.443  0.2853  0.0599  1.3393
 1412TIP3    H225872   3.437   1.288   2.453  0.0074  0.1046  0.1349
 1413TIP3   OH225873   5.242   4.170   1.685  0.4916 -0.6834  0.0899
 1413TIP3    H125874   5.336   4.177   1.699  0.4009  0.4974  0.2436
 1413TIP3    H225875   5.212   4.261   1.679 -0.8652 -0.9787  1.6157
 1414TIP3   OH225876   3.428   5.308   2.175  0.1671 -0.3152 -0.0235
 1414TIP3    H125877   3.409   5.380   2.115  1.1044 -0.4624 -0.5232
 1414TIP3    H225878   3.415   5.345   2.262 -0.4683  0.1187 -0.2932
 1415TIP3   OH225879   6.845   1.357   7.114 -0.2208 -0.5199 -0.3694
 1415TIP3    H125880   6.887   1.441   7.101 -0.6194 -0.2425  0.0833
 1415TIP3    H225881   6.796   1.341   7.032  1.6449 -1.3996 -1.3770
 1416TIP3   OH225882   3.377   2.176   7.547  0.0444 -0.4128  0.1203
 1416TIP3    H125883   3.283   2.192   7.550 -0.3512 -1.9973 -1.7353
 1416TIP3    H225884   3.410   2.208   7.631 -2.4162 -1.4693  1.6002
 1417TIP3   OH225885   6.003   1.476   7.711 -0.0014  0.0426  0.0607
 1417TIP3    H125886   6.082   1.487   7.765  0.1609 -0.6584 -0.0176
 1417TIP3    H225887   6.036   1.439   7.629 -0.2425  1.1137 -0.5421
 1418TIP3   OH225888   4.345   5.203   6.855  0.8138 -0.2458  0.3056
 1418TIP3    H125889   4.329   5.297   6.848 -0.5087 -0.4774 -0.0688
 1418TIP3    H225890   4.438   5.193   6.834  1.2677  1.0861  1.5169
 1419TIP3   OH225891   1.744   3.205   0.398 -0.5131 -1.1438 -0.1126
 1419TIP3    H125892   1.767   3.278   0.340 -1.2603  1.1123  2.2354
 1419TIP3    H225893   1.792   3.131   0.362  2.1508  0.9766 -1.3635
 1420TIP3   OH225894   6.173   5.139   0.834  0.4410 -0.2126 -0.2258
 1420TIP3    H125895   6.190   5.167   0.744 -0.8690  0.8183 -0.1820
 1420TIP3    H225896   6.252   5.163   0.882  1.4276 -1.3646 -1.1868
 1421TIP3   OH225897   7.008   4.926   7.926  0.1704 -0.0544  0.0260
 1421TIP3    H125898   7.091   4.956   7.887 -0.5276  0.2554 -1.2605
 1421TIP3    H225899   6.966   5.006   7.956 -0.0710 -0.1235 -0.1318
 1422TIP3   OH225900   1.181   3.516   7.718  0.5669 -0.0278 -0.0932
 1422TIP3    H125901   1.156   3.586   7.657 -0.6513 -0.6572 -0.3458
 1422TIP3    H225902   1.244   3.463   7.669  0.1369 -0.1231 -0.5527
 1423TIP3   OH225903   5.929   2.741   1.852  0.0329  0.3517  0.1131
 1423TIP3    H125904   5.883   2.669   1.896  0.4852 -0.0288 -0.0372
 1423TIP3    H225905   5.871   2.765   1.779 -1.3541  1.8410  1.6288
 1424TIP3   OH225906   2.657   1.607   0.224  0.0547 -0.1169 -0.8223
 1424TIP3    H125907   2.678   1.516   0.243 -1.0456 -0.2260 -0.0066
 1424TIP3    H225908   2.561   1.612   0.232  0.0968  1.1123 -0.8242
 1425TIP3   OH225909   1.954   4.953   0.119  0.4150  0.2907  0.0684
 1425TIP3    H125910   1.974   5.021   0.055  1.7625 -1.7547 -1.8005
 1425TIP3    H225911   2.036   4.938   0.166  0.0978  0.0460  0.5545
 1426TIP3   OH225912   2.279   1.241   7.781  0.2870 -0.4745 -0.2920
 1426TIP3    H125913   2.219   1.172   7.808 -0.9026  0.2198 -1.0492
 1426TIP3    H225914   2.321   1.207   7.701  1.9332 -1.4946  0.9451
 1427TIP3   OH225915   6.786   3.556   1.062 -0.3341 -0.2340  0.4213
 1427TIP3    H125916   6.733   3.575   0.985  2.5962  2.1457 -1.2451
 1427TIP3    H225917   6.870   3.527   1.027  1.3739  1.6716  2.5952
 1428TIP3   OH225918   0.709   2.678   0.092  0.2370 -0.4758 -0.2103
 1428TIP3    H125919   0.781   2.675   0.029  0.4054 -1.0702  0.0076
 1428TIP3    H225920   0.633   2.706   0.040  0.9275  1.7510 -0.1407
 1429TIP3   OH225921   1.551   5.576   1.117 -0.1795 -0.3838 -0.3239
 1429TIP3    H125922   1.597   5.580   1.033 -0.6618 -0.6822 -0.6049
 1429TIP3    H225923   1.512   5.489   1.119 -1.1707  0.0507 -0.3326
 1430TIP3   OH225924   1.147   3.240   0.741 -0.2210 -0.3551  0.0714
 1430TIP3    H125925   1.071   3.286   0.705 -0.5665 -0.4737  0.6439
 1430TIP3    H225926   1.109   3.168   0.791  0.2553 -0.0589  0.8621
 1431TIP3   OH225927   6.623   0.182   1.162  0.1140  0.0854 -0.3509
 1431TIP3    H125928   6.547   0.207   1.214  1.3459  1.7336  0.7773
 1431TIP3    H225929   6.639   0.090   1.185  0.5489  0.7371  2.1470
 1432TIP3   OH225930   4.066   4.000   1.812 -0.4371  0.1352  0.5274
 1432TIP3    H125931   4.152   4.041   1.799  0.5266 -1.8368  0.3768
 1432TIP3    H225932   4.012   4.070   1.848  0.7046  1.9417 -1.0682
 1433TIP3   OH225933   1.400   2.551   0.734  0.3784 -0.1289 -0.8722
 1433TIP3    H125934   1.381   2.555   0.828  1.3397  0.7591 -0.6911
 1433TIP3    H225935   1.461   2.624   0.719  0.7638 -0.6697 -2.0564
 1434TIP3   OH225936   4.286   1.260   8.180  0.0824  0.0622  0.7245
 1434TIP3    H125937   4.199   1.295   8.200  0.3252  1.2525 -0.1921
 1434TIP3    H225938   4.278   1.166   8.196 -1.4010  0.1345  0.5536
 1435TIP3   OH225939   5.927   6.339   7.509 -0.0030  0.0220  0.3652
 1435TIP3    H125940   5.947   6.415   7.455  0.9713 -0.0778  0.5597
 1435TIP3    H225941   5.832   6.338   7.515 -0.0698  0.7036 -0.3796
 1436TIP3   OH225942   2.029   6.868   0.054 -0.0833 -0.2563  0.1372
 1436TIP3    H125943   1.967   6.899   0.120 -0.6169  0.1064 -0.5196
 1436TIP3    H225944   2.092   6.816   0.103  0.6969  1.6315  1.2379
 1437TIP3   OH225945   5.970   4.300   2.277 -0.4242  0.3819  0.0374
 1437TIP3    H125946   5.926   4.220   2.249  1.6170 -1.1339  0.8791
 1437TIP3    H225947   5.942   4.312   2.368 -0.6259  0.5623 -0.0473
 1438TIP3   OH225948   0.432   3.852   8.160 -0.4615 -0.0290 -0.3692
 1438TIP3    H125949   0.460   3.761   8.154  0.5242  0.3126 -1.3350
 1438TIP3    H225950   0.367   3.861   8.090 -2.6287 -0.6502  1.4464
 1439TIP3   OH225951   5.643   3.421   8.082  0.2533 -0.3613 -0.4259
 1439TIP3    H125952   5.553   3.425   8.051  0.0701  1.8318  0.2204
 1439TIP3    H225953   5.696   3.444   8.006  0.1961 -0.4941 -0.5066
 1440TIP3   OH225954   5.514   0.918   7.952  0.1205 -0.1261  0.2323
 1440TIP3    H125955   5.554   1.005   7.949  0.5482 -0.2995  0.6930
 1440TIP3    H225956   5.439   0.923   7.893  1.5471 -0.1507 -1.6815
 1441TIP3   OH225957   1.439   2.133   7.761  0.0658  0.1689  0.1582
 1441TIP3    H125958   1.393   2.201   7.811 -2.2147  0.2364 -1.8257
 1441TIP3    H225959   1.459   2.065   7.826 -1.0058  1.0973  1.5285
 1442TIP3   OH225960   6.069   4.612   0.043 -0.6240 -0.4847  0.3990
 1442TIP3    H125961   6.115   4.649  -0.033 -3.4511  1.4140 -0.5719
 1442TIP3    H225962   6.137   4.598   0.108  1.7041 -0.6912 -1.9153
 1443TIP3   OH225963   4.436   6.637   0.108 -0.0091  0.4843  0.5074
 1443TIP3    H125964   4.507   6.651   0.170  0.3568 -0.2470  0.2671
 1443TIP3    H225965   4.401   6.724   0.090 -0.1103  0.7038  1.7239
 1444TIP3   OH225966   4.636   2.687   7.215  0.0144 -0.0698 -0.5308
 1444TIP3    H125967   4.678   2.765   7.251 -2.1306  0.5237  0.8590
 1444TIP3    H225968   4.704   2.620   7.217  0.9532  0.8459  1.5790
 1445TIP3   OH225969   0.765   0.295   8.234  0.3611 -0.2917  0.0298
 1445TIP3    H125970   0.751   0.346   8.314 -1.5498 -1.5721  0.5830
 1445TIP3    H225971   0.830   0.345   8.185  2.4291  0.0325  2.8299
 1446TIP3   OH225972   0.167   6.046   0.778 -0.1412  0.4573 -0.4058
 1446TIP3    H125973   0.116   6.018   0.854 -1.0673  1.3016 -0.6871
 1446TIP3    H225974   0.255   6.012   0.793 -0.4732  0.0711  0.7248
 1447TIP3   OH225975   6.850   5.882   0.341  0.7413 -0.5696  0.2847
 1447TIP3    H125976   6.824   5.947   0.406  0.0776 -0.1510 -0.3883
 1447TIP3    H225977   6.819   5.917   0.258  0.1867 -1.8381 -0.0656
 1448TIP3   OH225978   3.675   5.875   2.740 -0.1438 -0.2478 -0.1210
 1448TIP3    H125979   3.718   5.923   2.669  2.6877 -0.1515  1.5141
 1448TIP3    H225980   3.600   5.929   2.765  0.1683  0.8492 -1.4821
 1449TIP3   OH225981   6.805   3.235   8.079 -0.0776 -0.3311 -0.0203
 1449TIP3    H125982   6.772   3.148   8.056 -0.4404 -0.2647  0.2287
 1449TIP3    H225983   6.829   3.275   7.996 -2.3884  0.3176 -0.4493
 1450TIP3   OH225984   3.184   4.873   1.883 -0.0178 -0.5762  0.8383
 1450TIP3    H125985   3.251   4.816   1.845 -0.9232 -2.3050  1.6735
 1450TIP3    H225986   3.233   4.944   1.924  1.0903 -0.0013 -1.3359
 1451TIP3   OH225987   6.969   6.087   8.122  0.4241 -0.1250 -0.2054
 1451TIP3    H125988   7.028   6.131   8.061 -0.1365  0.0038 -0.6628
 1451TIP3    H225989   7.018   6.010   8.151  1.4415  0.8058  0.6489
 1452TIP3   OH225990   6.761   3.488   7.791 -0.0844  0.2342 -0.3083
 1452TIP3    H125991   6.849   3.491   7.828 -0.8095  1.1323  1.4611
 1452TIP3    H225992   6.753   3.569   7.741 -0.3558  0.8175  0.6634
 1453TIP3   OH225993   6.818   4.358   6.837 -0.0470  0.7699  0.1219
 1453TIP3    H125994   6.727   4.344   6.864  0.2443 -3.4190 -0.4971
 1453TIP3    H225995   6.819   4.337   6.743  1.5597  0.7904  0.1071
 1454TIP3   OH225996   0.940   6.021   2.152 -0.0561  0.0230 -0.0597
 1454TIP3    H125997   0.951   5.950   2.089  0.0475 -0.5980  0.6362
 1454TIP3    H225998   0.911   5.977   2.232  1.2841  0.6211  0.7759
 1455TIP3   OH225999   4.502   4.035   2.076 -0.2608  0.2056 -0.1257
 1455TIP3    H126000   4.488   3.985   1.996 -0.6813  0.4561 -0.2161
 1455TIP3    H226001   4.421   4.085   2.087 -0.8994 -1.0738  1.3672
 1456TIP3   OH226002   3.021   6.733   2.197 -0.1215 -0.1989 -0.3047
 1456TIP3    H126003   3.112   6.763   2.206  0.0972 -1.1694  1.1403
 1456TIP3    H226004   2.986   6.736   2.287 -1.1561 -0.9169 -0.6635
 1457TIP3   OH226005   6.899   4.710   2.493  0.8165  0.0761  0.2935
 1457TIP3    H126006   6.807   4.712   2.468  0.7964  1.1960  0.3865
 1457TIP3    H226007   6.946   4.699   2.411  0.6160  0.1346  0.1689
 1458TIP3   OH226008   4.845   6.547   0.954 -0.0272 -0.0419 -0.2109
 1458TIP3    H126009   4.915   6.521   1.013  0.2853 -1.0747 -1.0063
 1458TIP3    H226010   4.775   6.483   0.970 -0.2491  0.1506 -0.3975
 1459TIP3   OH226011   2.813   2.716   3.426  0.7637 -0.2160 -0.0489
 1459TIP3    H126012   2.852   2.801   3.451  1.8974 -0.6479 -0.2881
 1459TIP3    H226013   2.724   2.720   3.462  0.8515  1.0015  0.1085
 1460TIP3   OH226014   3.570   6.158   2.840 -0.1681  0.9759  0.0790
 1460TIP3    H126015   3.576   6.188   2.931  0.2783  0.0898  0.3552
 1460TIP3    H226016   3.483   6.118   2.834  0.1973  0.1056  0.4217
 1461TIP3   OH226017   3.702   3.637   1.160 -0.3151  0.4589  0.2419
 1461TIP3    H126018   3.656   3.644   1.244 -0.5058  1.9803  0.0379
 1461TIP3    H226019   3.763   3.710   1.160  2.8857 -1.9952  0.8980
 1462TIP3   OH226020   5.246   5.646   1.279 -0.2217 -0.4547  0.4988
 1462TIP3    H126021   5.286   5.672   1.362 -0.7794  0.3689  0.5219
 1462TIP3    H226022   5.316   5.600   1.232  0.7924  1.0252  0.4968
 1463TIP3   OH226023   6.354   4.252   0.741  0.0088 -0.1080  0.0737
 1463TIP3    H126024   6.407   4.173   0.756 -0.4103 -0.6709 -1.2588
 1463TIP3    H226025   6.416   4.324   0.748  0.7226 -0.6747 -0.3235
 1464TIP3   OH226026   3.406   4.849   2.373  0.5547  0.1346 -0.3771
 1464TIP3    H126027   3.341   4.909   2.409 -1.6465 -2.5559  0.5126
 1464TIP3    H226028   3.365   4.763   2.378  3.7860 -1.6178 -0.8876
 1465TIP3   OH226029   2.241   1.640   2.852 -0.6933  0.0098  0.1501
 1465TIP3    H126030   2.297   1.631   2.929  1.6158 -0.0622 -1.4304
 1465TIP3    H226031   2.209   1.551   2.835  0.9314 -0.5072 -0.4334
 1466TIP3   OH226032   3.431   3.642   3.359 -0.0214 -0.6072  0.7809
 1466TIP3    H126033   3.435   3.560   3.310 -0.4603  0.6312 -1.4174
 1466TIP3    H226034   3.350   3.636   3.409 -1.9882 -0.1211 -2.1075
 1467TIP3   OH226035   0.569   4.469   3.300  0.5068 -0.0112  0.2920
 1467TIP3    H126036   0.587   4.530   3.371  0.4460 -1.5171  1.6446
 1467TIP3    H226037   0.475   4.453   3.305  0.6726 -0.9310  0.5458
 1468TIP3   OH226038   0.328   6.789   2.262 -0.9049 -0.4101  0.2229
 1468TIP3    H126039   0.377   6.757   2.338  1.1910  1.7343 -0.1153
 1468TIP3    H226040   0.376   6.755   2.187 -1.4137 -0.3226 -0.1437
 1469TIP3   OH226041   5.943   1.581   0.375 -0.2345  0.6585  0.1451
 1469TIP3    H126042   5.970   1.505   0.325  0.3803 -0.8642  2.6285
 1469TIP3    H226043   5.899   1.638   0.312 -1.9308 -2.3423 -1.5647
 1470TIP3   OH226044   2.676   5.815   0.923  0.3954 -0.0491 -0.3731
 1470TIP3    H126045   2.645   5.732   0.958  0.1095  0.2144  0.0027
 1470TIP3    H226046   2.659   5.879   0.992 -2.3568  0.9335 -1.8119
 1471TIP3   OH226047   1.875   5.192   8.069  0.8066  0.2644 -0.1935
 1471TIP3    H126048   1.871   5.200   8.164 -3.3366 -1.5112 -0.0104
 1471TIP3    H226049   1.904   5.102   8.053  0.0627  0.0718 -0.5214
 1472TIP3   OH226050   2.781   3.252   2.451 -0.4683  0.3034 -0.0932
 1472TIP3    H126051   2.874   3.237   2.437 -0.1801  0.4562  1.3957
 1472TIP3    H226052   2.758   3.196   2.525 -1.2428  1.2068  0.3874
 1473TIP3   OH226053   3.933   4.094   0.734 -0.5459 -0.1063  0.5341
 1473TIP3    H126054   3.927   3.999   0.735 -0.7426 -0.1166  2.2738
 1473TIP3    H226055   4.022   4.114   0.761 -1.1227  0.1660  2.4209
 1474TIP3   OH226056   3.484   3.839   3.025 -1.1508 -0.1295 -0.6107
 1474TIP3    H126057   3.469   3.822   2.932 -1.9444 -1.0356 -0.3317
 1474TIP3    H226058   3.507   3.753   3.061  1.6151  0.6019 -0.3898
 1475TIP3   OH226059   1.909   2.698   7.242 -0.7253 -0.3634  0.0715
 1475TIP3    H126060   1.850   2.649   7.184 -0.1286 -1.6572  0.5244
 1475TIP3    H226061   1.961   2.752   7.183  0.6000 -2.4283 -0.7528
 1476TIP3   OH226062   4.581   5.220   6.755 -0.1739 -0.9588  0.3754
 1476TIP3    H126063   4.651   5.266   6.710 -0.5532  0.1366  0.8684
 1476TIP3    H226064   4.622   5.140   6.787  0.4762 -1.0268 -0.5841
 1477TIP3   OH226065   6.478   5.740   6.976 -0.2818 -0.0290 -0.1355
 1477TIP3    H126066   6.458   5.790   6.897 -1.8999  1.0380  0.8940
 1477TIP3    H226067   6.421   5.663   6.971 -0.7165  0.2672  0.1949
 1478TIP3   OH226068   0.326   2.535   8.097  0.2859  0.1353  0.7728
 1478TIP3    H126069   0.347   2.459   8.042 -0.4268 -0.7943  1.7290
 1478TIP3    H226070   0.280   2.594   8.039 -2.8176 -1.9565  0.8435
 1479TIP3   OH226071   0.088   3.349   1.442 -0.4357  0.2401  0.2577
 1479TIP3    H126072   0.086   3.266   1.489 -0.5756 -1.2775 -2.2981
 1479TIP3    H226073  -0.002   3.364   1.416 -0.5878  1.7411  1.4880
 1480TIP3   OH226074   2.391   2.863   7.788  0.2049  0.9089 -0.0033
 1480TIP3    H126075   2.356   2.948   7.815  0.6643  0.8234  0.9099
 1480TIP3    H226076   2.373   2.858   7.695 -0.6415  1.6185  0.1117
 1481TIP3   OH226077   4.898   3.377   0.762 -0.4976 -0.6571  0.1605
 1481TIP3    H126078   4.805   3.369   0.743 -0.8292 -0.5081  1.6074
 1481TIP3    H226079   4.940   3.307   0.711 -1.2850 -0.2170 -1.1362
 1482TIP3   OH226080   0.464   6.659   2.467 -0.0883 -0.0394  0.5082
 1482TIP3    H126081   0.448   6.565   2.472  0.4643 -0.1083  1.2293
 1482TIP3    H226082   0.558   6.666   2.448 -0.1949  0.3627  0.1230
 1483TIP3   OH226083   6.989   6.511   6.804  0.5799 -0.8143  0.0579
 1483TIP3    H126084   6.959   6.498   6.894 -0.4567 -1.6718 -0.3908
 1483TIP3    H226085   7.042   6.591   6.808 -1.2473  0.4261  1.0329
 1484TIP3   OH226086   2.229   6.110   7.652 -0.0707  0.0805  0.0824
 1484TIP3    H126087   2.321   6.131   7.635  0.0810 -0.3544  0.3584
 1484TIP3    H226088   2.180   6.161   7.587  0.3853  0.0556 -0.2825
 1485TIP3   OH226089   1.972   6.915   0.917  0.1332  1.2558  0.3825
 1485TIP3    H126090   1.979   6.923   1.012 -0.0093  1.8895  0.3434
 1485TIP3    H226091   1.937   6.999   0.888 -1.4346  0.4930 -0.0742
 1486TIP3   OH226092   4.207   2.727   1.393  0.1611 -0.0051  0.2577
 1486TIP3    H126093   4.201   2.712   1.299 -0.7146  0.4042  0.2335
 1486TIP3    H226094   4.293   2.692   1.418  0.9421  0.9908 -0.9033
 1487TIP3   OH226095   6.048   6.603   0.590 -0.0109  0.0978 -0.2869
 1487TIP3    H126096   5.992   6.568   0.659  0.8822 -0.4411  0.1895
 1487TIP3    H226097   6.135   6.568   0.610  0.6287  1.4119 -0.6348
 1488TIP3   OH226098   4.730   3.137   0.274 -0.2909 -0.6903 -0.2943
 1488TIP3    H126099   4.781   3.148   0.194  1.1887 -0.4970  0.6280
 1488TIP3    H226100   4.708   3.044   0.277 -0.6534 -0.6334 -1.0875
 1489TIP3   OH226101   3.537   1.034   1.668  0.4106 -0.4429  0.3219
 1489TIP3    H126102   3.491   0.957   1.702  0.1947 -0.7896 -0.7214
 1489TIP3    H226103   3.490   1.057   1.589  2.2726 -1.0923 -1.0564
 1490TIP3   OH226104   2.994   6.960   0.727  0.1322  0.0166  0.3956
 1490TIP3    H126105   2.899   6.965   0.718  0.1916 -1.6824 -4.2719
 1490TIP3    H226106   3.026   7.032   0.671  1.6039  0.1760  1.4016
 1491TIP3   OH226107   0.736   2.391   1.675  0.4127 -0.3826 -1.1553
 1491TIP3    H126108   0.661   2.358   1.625  1.2610 -0.6692 -2.2877
 1491TIP3    H226109   0.747   2.329   1.747  0.6981 -1.4053 -2.0627
 1492TIP3   OH226110   1.882   5.087   1.997 -0.2833  0.2645  0.8615
 1492TIP3    H126111   1.822   5.026   2.040  0.1953 -0.8337 -0.0053
 1492TIP3    H226112   1.841   5.107   1.913 -0.4165  1.1225  1.1184
 1493TIP3   OH226113   5.853   0.006   1.795 -0.2534  0.0539 -0.5244
 1493TIP3    H126114   5.809  -0.042   1.865 -1.3498  1.2630 -0.3430
 1493TIP3    H226115   5.801  -0.012   1.717 -1.0714  1.4038 -0.3317
 1494TIP3   OH226116   3.492   3.995   0.742 -0.0887  0.1069  0.3101
 1494TIP3    H126117   3.453   3.921   0.788 -0.8816  0.4838  0.2699
 1494TIP3    H226118   3.545   4.040   0.808 -1.3756  0.7625  0.9284
 1495TIP3   OH226119   4.496   5.249   1.874  0.1050  0.1017  0.2718
 1495TIP3    H126120   4.427   5.184   1.888 -0.3425  0.4944 -0.0787
 1495TIP3    H226121   4.498   5.299   1.956 -0.9206  0.9139 -0.1745
 1496TIP3   OH226122   0.646   5.076   7.828 -0.2730  0.2747 -0.4045
 1496TIP3    H126123   0.666   5.007   7.766 -1.5761  0.4289 -1.0291
 1496TIP3    H226124   0.568   5.119   7.793  1.4867  3.2668 -1.0446
 1497TIP3   OH226125   3.673   3.765   1.421  0.3968  0.2729 -0.1966
 1497TIP3    H126126   3.607   3.834   1.428  0.9433  0.6403  2.1845
 1497TIP3    H226127   3.757   3.812   1.429  0.8255 -0.5179  0.0900
 1498TIP3   OH226128   7.028   0.516   1.148 -0.7116  0.4449  0.1134
 1498TIP3    H126129   7.058   0.508   1.238  0.0906  1.1360 -0.0855
 1498TIP3    H226130   6.966   0.444   1.137 -0.8240  0.3628  1.2139
 1499TIP3   OH226131   0.286   2.050   0.132  0.2959 -0.1921  0.1514
 1499TIP3    H126132   0.332   2.052   0.216  0.0995  0.8698  0.2479
 1499TIP3    H226133   0.229   1.974   0.137 -0.4032  0.3910  1.3707
 1500TIP3   OH226134   3.224   5.547   0.688  0.6844  0.8124 -0.2709
 1500TIP3    H126135   3.249   5.587   0.605  0.6249 -0.3743 -0.8793
 1500TIP3    H226136   3.226   5.453   0.671  0.1167  0.5688  0.9120
 1501TIP3   OH226137   2.708   3.045   2.671 -0.2231 -0.1980 -0.2946
 1501TIP3    H126138   2.728   3.124   2.721  1.7807  0.2622 -1.6859
 1501TIP3    H226139   2.725   2.973   2.731  2.2937  0.3333 -0.2707
 1502TIP3   OH226140   2.828   6.083   2.476 -0.6581 -0.1982 -0.3724
 1502TIP3    H126141   2.900   6.142   2.452  0.5879 -0.1961  2.9188
 1502TIP3    H226142   2.751   6.140   2.475 -0.1199  0.5631 -0.8834
 1503TIP3   OH226143   2.348   2.970   3.054  0.1237 -0.6428  0.2689
 1503TIP3    H126144   2.360   2.989   2.961 -0.3327  0.5093  0.4200
 1503TIP3    H226145   2.436   2.971   3.090  0.1495  1.5075  0.2764
 1504TIP3   OH226146   5.647   3.777   8.143 -0.3564 -0.1336  0.6283
 1504TIP3    H126147   5.656   3.721   8.066 -1.0646 -0.2268  0.6054
 1504TIP3    H226148   5.662   3.718   8.217 -2.2909 -0.6635  0.6547
 1505TIP3   OH226149   6.213   1.250   0.435 -0.3471  0.1964 -0.2132
 1505TIP3    H126150   6.125   1.257   0.473 -0.9234  0.4483 -1.5355
 1505TIP3    H226151   6.240   1.160   0.455 -2.0822 -0.8497 -2.1326
 1506TIP3   OH226152   4.095   2.926   3.314  0.6206  0.0401 -0.3461
 1506TIP3    H126153   4.184   2.953   3.292  1.0169 -0.8375  0.1347
 1506TIP3    H226154   4.043   3.005   3.303  1.9407  1.4030  2.1971
 1507TIP3   OH226155   5.996   5.569   0.909 -0.1433  0.5172 -0.4481
 1507TIP3    H126156   6.059   5.556   0.979  0.1761  2.2761 -0.3904
 1507TIP3    H226157   6.041   5.622   0.844 -0.9288  0.1545 -1.3268
 1508TIP3   OH226158   5.564   4.742   1.325  0.3903  0.8531 -0.3919
 1508TIP3    H126159   5.611   4.717   1.405 -1.8640  0.0487  0.7669
 1508TIP3    H226160   5.544   4.658   1.283 -0.7012  1.1226 -0.4235
 1509TIP3   OH226161   1.960   2.100   7.373  0.3882  0.5223 -0.2329
 1509TIP3    H126162   1.932   2.041   7.443  1.6071  0.4455  0.2056
 1509TIP3    H226163   1.892   2.167   7.370 -1.4376 -1.2739 -1.2462
 1510TIP3   OH226164   2.737   0.010   1.377  0.4003  0.5904 -0.1812
 1510TIP3    H126165   2.750  -0.046   1.300  0.9605  0.1979  0.1847
 1510TIP3    H226166   2.724   0.098   1.341 -1.8206  0.0534 -0.8252
 1511TIP3   OH226167   2.079   6.712   1.357 -0.3767  0.0016  0.1521
 1511TIP3    H126168   2.022   6.690   1.431  0.0593 -2.9744 -0.2907
 1511TIP3    H226169   2.167   6.692   1.389 -0.0877 -0.3350 -0.8445
 1512TIP3   OH226170   1.692   2.877   2.217 -0.0723 -0.8356 -0.4575
 1512TIP3    H126171   1.780   2.913   2.202 -0.3232 -0.1698 -0.3613
 1512TIP3    H226172   1.705   2.812   2.287 -0.1838  1.8206  2.2628
 1513TIP3   OH226173   5.281   4.622   0.409 -0.2528 -0.8420 -0.1280
 1513TIP3    H126174   5.344   4.692   0.391  1.5411 -2.0657  1.1596
 1513TIP3    H226175   5.259   4.588   0.322  2.0711 -1.3866 -0.5711
 1514TIP3   OH226176   3.895   3.143   2.686 -0.6749  0.0266 -0.4639
 1514TIP3    H126177   3.847   3.201   2.628  1.2691 -0.2078 -2.4256
 1514TIP3    H226178   3.948   3.202   2.740 -1.5815  0.1917  0.2727
 1515TIP3   OH226179   4.573   2.043   2.155 -0.3990  0.1625  0.0375
 1515TIP3    H126180   4.600   1.969   2.101  1.8100 -0.2052  1.4809
 1515TIP3    H226181   4.480   2.029   2.172 -0.5274 -1.0611 -1.5256
 1516TIP3   OH226182   0.469   0.106   2.172  0.0652  0.2493 -0.0245
 1516TIP3    H126183   0.487   0.052   2.249  0.9181 -1.6058 -1.4471
 1516TIP3    H226184   0.547   0.161   2.163 -0.3393  0.9689  0.8217
 1517TIP3   OH226185   2.045   2.329   1.047  0.3379  0.3050 -0.0510
 1517TIP3    H126186   2.134   2.341   1.080 -0.7819  1.9774  2.6067
 1517TIP3    H226187   2.058   2.293   0.959  3.6243  0.9769  0.0170
 1518TIP3   OH226188   6.024   6.240   0.302  0.5006  0.0924  0.2004
 1518TIP3    H126189   6.074   6.244   0.221  0.9182  2.2884  0.5173
 1518TIP3    H226190   6.007   6.331   0.325 -5.0448 -0.3740 -0.6388
 1519TIP3   OH226191   1.690   4.246   2.782  0.6807  1.0479 -0.0727
 1519TIP3    H126192   1.756   4.315   2.792  1.4769  0.4833 -1.2398
 1519TIP3    H226193   1.716   4.178   2.844  1.4020  0.6870 -0.7547
 1520TIP3   OH226194   0.543   1.578   2.098 -0.1552  0.1427 -0.3283
 1520TIP3    H126195   0.549   1.661   2.051  0.5230 -0.2629 -0.9764
 1520TIP3    H226196   0.627   1.535   2.081 -0.6953 -0.8963 -0.4136
 1521TIP3   OH226197   4.241   5.214   0.777  0.3494 -0.4751  0.0110
 1521TIP3    H126198   4.193   5.142   0.818  1.2760 -0.9022  0.3751
 1521TIP3    H226199   4.194   5.293   0.804  0.4547 -0.8070  1.2397
 1522TIP3   OH226200   6.258   2.659   1.080  0.0971  0.3598  0.0578
 1522TIP3    H126201   6.352   2.666   1.094  0.3085 -1.1674 -0.4155
 1522TIP3    H226202   6.250   2.610   0.998 -1.1052  0.1311  0.2988
 1523TIP3   OH226203   5.510   0.657   1.536  0.5896  0.9289  0.4646
 1523TIP3    H126204   5.587   0.691   1.490  0.5932  0.8915  0.4427
 1523TIP3    H226205   5.540   0.574   1.573 -0.0277 -0.1524 -1.3170
 1524TIP3   OH226206   1.726   6.114   7.848  0.4892 -0.5440 -0.3691
 1524TIP3    H126207   1.733   6.122   7.943 -0.6952  2.4698 -0.4166
 1524TIP3    H226208   1.681   6.031   7.833  1.6186 -1.5741  1.5976
 1525TIP3   OH226209   5.001   5.043   2.772  0.2655  0.6118 -0.3143
 1525TIP3    H126210   5.008   4.983   2.846 -1.5364  0.2384 -0.3972
 1525TIP3    H226211   5.004   4.985   2.695 -0.3074  0.7482 -0.4385
 1526TIP3   OH226212   4.869   2.010   0.803  0.1431 -0.3472 -0.4379
 1526TIP3    H126213   4.901   1.978   0.719  2.8876  0.5492  0.1753
 1526TIP3    H226214   4.948   2.023   0.855 -1.3837  0.5399  1.7770
 1527TIP3   OH226215   3.516   0.615   2.298  0.0761 -0.9645 -0.0551
 1527TIP3    H126216   3.452   0.678   2.331  2.0122  1.4555 -0.6343
 1527TIP3    H226217   3.601   0.651   2.322  1.3370 -2.6901 -1.5843
 1528TIP3   OH226218   1.284   1.591   7.959  0.0577  0.0484 -0.0817
 1528TIP3    H126219   1.305   1.625   8.046  0.7592 -1.4370  0.3527
 1528TIP3    H226220   1.210   1.645   7.930  0.0586  0.8226  1.2698
 1529TIP3   OH226221   4.000   3.081   1.087 -0.5032  0.2752  0.2638
 1529TIP3    H126222   3.965   3.111   1.171 -2.1293 -0.8582  0.0423
 1529TIP3    H226223   4.059   3.009   1.110 -0.0710  0.6891  0.4840
 1530TIP3   OH226224   1.076   1.627   2.457  0.2736 -0.0943  0.4231
 1530TIP3    H126225   1.141   1.690   2.428  1.3164 -2.0891 -2.0251
 1530TIP3    H226226   1.116   1.582   2.531  0.4923  0.5558  0.6973
 1531TIP3   OH226227   6.984   0.301   2.182  1.1247  0.4664 -0.3893
 1531TIP3    H126228   7.060   0.358   2.184  0.0907  1.8769 -0.2677
 1531TIP3    H226229   6.933   0.325   2.259 -1.2133  2.0901 -2.3150
 1532TIP3   OH226230   1.518   4.899   3.168 -0.2653 -0.3265 -0.1656
 1532TIP3    H126231   1.445   4.943   3.213  2.2766  1.6139  2.4383
 1532TIP3    H226232   1.553   4.966   3.109 -0.1110 -1.0136 -0.8682
 1533TIP3   OH226233   4.891   1.689   1.446 -0.1137 -0.5440 -0.1709
 1533TIP3    H126234   4.919   1.777   1.473  2.1048 -1.1750 -0.1772
 1533TIP3    H226235   4.916   1.684   1.354  2.2098 -1.9911  0.4493
 1534TIP3   OH226236   5.107   2.324   7.939  0.5014  0.0397  0.6171
 1534TIP3    H126237   5.054   2.365   8.008 -0.9942 -1.4651  0.4387
 1534TIP3    H226238   5.069   2.355   7.857  0.6920 -0.0938  0.4760
 1535TIP3   OH226239   6.830   1.729   1.364  0.0381  0.5456  0.3990
 1535TIP3    H126240   6.779   1.693   1.292 -0.9358  2.2098  0.2027
 1535TIP3    H226241   6.900   1.665   1.378  0.6513  0.4312 -2.4416
 1536TIP3   OH226242   0.457   0.592   2.434  0.0355 -0.7791  0.3506
 1536TIP3    H126243   0.541   0.566   2.472  0.8373  0.3850 -0.5436
 1536TIP3    H226244   0.429   0.668   2.486  1.2763  1.0008 -1.4363
 1537TIP3   OH226245   0.841   1.263   8.269  0.1733 -0.3381 -0.4152
 1537TIP3    H126246   0.805   1.193   8.214 -0.0544  2.2360 -3.8784
 1537TIP3    H226247   0.767   1.322   8.284  1.2693  1.3849 -1.4813
 1538TIP3   OH226248   5.066   0.663   0.466 -0.3749 -0.3706  0.4481
 1538TIP3    H126249   5.160   0.655   0.451 -0.6630 -0.4160 -1.6433
 1538TIP3    H226250   5.028   0.592   0.416 -1.6229  0.6360 -0.0832
 1539TIP3   OH226251   4.287   0.616   1.372  0.8554  0.1096 -0.1129
 1539TIP3    H126252   4.231   0.542   1.351 -0.1833  0.3056  1.7520
 1539TIP3    H226253   4.353   0.617   1.303  0.7232 -2.3566 -0.3415
 1540TIP3   OH226254   0.244   2.079   0.989 -0.1440 -0.1723 -0.6739
 1540TIP3    H126255   0.225   2.157   1.042  1.7318 -0.4535  0.5139
 1540TIP3    H226256   0.209   2.007   1.041 -1.5013 -0.1910 -1.5741
 1541TIP3   OH226257   1.487   0.471   7.234  0.8831 -0.1858  0.2017
 1541TIP3    H126258   1.409   0.417   7.223 -0.4792  1.5147  0.9927
 1541TIP3    H226259   1.479   0.538   7.166  0.8462  0.8796  1.2267
 1542TIP3   OH226260   4.557   4.667   1.567  0.1229 -0.0783  0.1077
 1542TIP3    H126261   4.627   4.622   1.519 -2.3560 -1.6895 -2.2791
 1542TIP3    H226262   4.548   4.617   1.648  0.5923 -0.9140 -0.3433
 1543TIP3   OH226263   3.992   3.755   1.658 -0.5737  0.0104  0.0951
 1543TIP3    H126264   4.043   3.820   1.707  0.0526  0.3190 -0.9458
 1543TIP3    H226265   3.963   3.801   1.579  0.0394 -1.0265 -0.7495
 1544TIP3   OH226266   0.797   2.241   7.380 -0.0584 -0.3835  0.6826
 1544TIP3    H126267   0.821   2.315   7.324  0.9377 -0.1719  1.3726
 1544TIP3    H226268   0.722   2.201   7.336  0.2305  0.2372 -0.4015
 1545TIP3   OH226269   1.897   0.275   0.139  0.0731 -0.0700  0.6955
 1545TIP3    H126270   1.915   0.247   0.229  1.2057 -0.4055  0.3784
 1545TIP3    H226271   1.839   0.350   0.149 -0.5647 -0.6677  1.6705
 1546TIP3   OH226272   1.555   2.575   2.285  0.0625 -0.0348  0.6055
 1546TIP3    H126273   1.575   2.556   2.193 -0.8305  0.1063  0.3662
 1546TIP3    H226274   1.615   2.519   2.335 -0.3533 -1.1320 -0.0807
 1547TIP3   OH226275   4.503   2.926   0.783 -0.0608  0.0028  0.4518
 1547TIP3    H126276   4.550   2.847   0.755  1.2791  1.1313 -0.6621
 1547TIP3    H226277   4.480   2.909   0.874  2.6342 -0.6373  1.1181
 1548TIP3   OH226278   5.079   1.780   7.397  0.0911 -0.1776 -0.2005
 1548TIP3    H126279   5.114   1.836   7.328 -0.8282  1.2571  0.4473
 1548TIP3    H226280   5.092   1.830   7.478 -2.3009 -0.0887  0.2080
 1549TIP3   OH226281   6.545   1.523   7.699 -0.0441  0.0478  0.1342
 1549TIP3    H126282   6.591   1.535   7.616  0.1349 -0.0007  0.2261
 1549TIP3    H226283   6.615   1.519   7.765 -0.2743  3.4481  0.7444
 1550TIP3   OH226284   0.682   3.910   2.722  0.0389 -0.3259 -0.1935
 1550TIP3    H126285   0.646   3.824   2.743  1.5690 -1.1583 -0.7825
 1550TIP3    H226286   0.724   3.938   2.803 -1.0807  0.2271  0.2178
 1551TIP3   OH226287   4.411   5.047   2.283  0.1974  0.2058 -0.0254
 1551TIP3    H126288   4.490   5.015   2.239 -0.1420  0.3632 -0.7563
 1551TIP3    H226289   4.438   5.131   2.321  1.0698 -0.8500  1.8356
 1552TIP3   OH226290   4.273   0.622   1.660  0.9581 -0.4878 -0.3661
 1552TIP3    H126291   4.303   0.604   1.570  1.2688 -1.8052 -0.0251
 1552TIP3    H226292   4.178   0.628   1.653  1.0418  0.3367 -0.9237
 1553TIP3   OH226293   0.135   3.049   2.233 -0.6871  0.0956 -0.1394
 1553TIP3    H126294   0.170   2.985   2.171 -1.3036 -0.7049  0.3164
 1553TIP3    H226295   0.150   3.009   2.319 -0.6296  0.7913  0.1738
 1554TIP3   OH226296   6.992   3.901   0.688 -0.4763  0.0706 -0.1484
 1554TIP3    H126297   7.027   3.955   0.759 -0.2164  0.9078 -0.8984
 1554TIP3    H226298   7.068   3.870   0.640 -0.6824  0.3070 -0.6364
 1555TIP3   OH226299   1.304   5.459   1.993  0.0569  0.3358  0.6607
 1555TIP3    H126300   1.263   5.488   1.911  0.5326  2.7918  1.1984
 1555TIP3    H226301   1.236   5.472   2.059  0.5559  1.0831  1.0408
 1556TIP3   OH226302   3.803   4.685   2.602 -0.4294 -0.1410 -0.0691
 1556TIP3    H126303   3.890   4.686   2.562 -0.6700 -1.1628 -0.6504
 1556TIP3    H226304   3.816   4.725   2.688  0.6666 -0.4722 -0.0617
 1557TIP3   OH226305   0.770   3.831   8.115  0.6641  0.0130 -0.1512
 1557TIP3    H126306   0.774   3.911   8.168  1.4639  0.0947 -0.3219
 1557TIP3    H226307   0.689   3.789   8.142 -1.1651  2.1453 -1.8866
 1558TIP3   OH226308   3.120   2.256   2.225 -0.0158  0.3076 -0.4361
 1558TIP3    H126309   3.043   2.254   2.282  0.7589  0.1820  0.6580
 1558TIP3    H226310   3.105   2.188   2.161 -0.5890 -0.0759  0.0966
 1559TIP3   OH226311   5.174   2.964   0.026  1.0004 -0.2813  0.1487
 1559TIP3    H126312   5.150   2.892   0.084  0.4349 -0.9878 -0.9372
 1559TIP3    H226313   5.269   2.958   0.018  1.2778  0.7417  2.1594
 1560TIP3   OH226314   4.364   5.937   1.277 -0.1298 -0.1751  0.6121
 1560TIP3    H126315   4.347   5.854   1.321  0.4309  0.0597  1.2843
 1560TIP3    H226316   4.328   6.003   1.335 -0.9810  0.0356 -0.1362
 1561TIP3   OH226317   1.033   2.364   1.138 -0.1216  0.3745 -0.7434
 1561TIP3    H126318   1.059   2.401   1.222  0.3588 -0.2944 -0.5860
 1561TIP3    H226319   1.109   2.375   1.082  0.4286 -1.2667 -0.3875
 1562TIP3   OH226320   5.863   5.436   2.163  0.3070 -0.4039 -0.8605
 1562TIP3    H126321   5.858   5.530   2.183 -0.4571 -0.8107  1.1119
 1562TIP3    H226322   5.822   5.428   2.077 -1.2831  0.8962 -0.2854
 1563TIP3   OH226323   3.723   0.870   2.437 -0.1348  0.3516  0.2443
 1563TIP3    H126324   3.756   0.783   2.456  1.8034  0.8258 -0.6872
 1563TIP3    H226325   3.666   0.891   2.511 -1.5568 -2.0919 -0.0469
 1564TIP3   OH226326   6.172   0.142   0.771  0.4208  0.3706  0.0487
 1564TIP3    H126327   6.248   0.184   0.812 -0.1236  0.3309  1.1248
 1564TIP3    H226328   6.195   0.049   0.770  1.5907  0.6031 -2.2601
 1565TIP3   OH226329   4.899   3.550   1.307 -0.4050 -0.0268 -0.7194
 1565TIP3    H126330   4.955   3.475   1.286  0.8353 -0.0210  2.2149
 1565TIP3    H226331   4.929   3.619   1.248 -0.0861 -1.1642 -1.9542
 1566TIP3   OH226332   4.624   1.809   2.385 -0.2307  0.1704  0.3937
 1566TIP3    H126333   4.541   1.853   2.366 -0.2467  0.9516  2.0972
 1566TIP3    H226334   4.602   1.743   2.450  0.4073  0.0796  0.5200
 1567TIP3   OH226335   3.688   4.901   1.596  0.0364 -0.1959 -0.1626
 1567TIP3    H126336   3.641   4.877   1.516 -1.7303 -3.6771  1.6965
 1567TIP3    H226337   3.758   4.836   1.604  1.2973  1.1556  0.3211
 1568TIP3   OH226338   3.814   3.214   2.199 -0.0112  0.8249 -0.1888
 1568TIP3    H126339   3.800   3.169   2.116 -1.1189  1.4294 -0.3436
 1568TIP3    H226340   3.834   3.144   2.261  1.1287  0.3898 -1.0009
 1569TIP3   OH226341   6.177   1.151   0.776 -0.0858  0.0730  0.3031
 1569TIP3    H126342   6.166   1.117   0.865 -0.7901 -0.9313 -0.1452
 1569TIP3    H226343   6.180   1.072   0.721  0.9287  0.6567 -0.5103
 1570TIP3   OH226344   6.557   0.889   0.835 -0.2347 -0.3503 -0.3796
 1570TIP3    H126345   6.520   0.831   0.901 -1.3139 -0.3773 -0.9717
 1570TIP3    H226346   6.556   0.976   0.876  0.0347 -0.5235 -0.0086
 1571TIP3   OH226347   4.907   5.144   2.521  0.2138  0.3366  0.0036
 1571TIP3    H126348   4.819   5.171   2.544  0.6898  0.8990  1.2517
 1571TIP3    H226349   4.900   5.050   2.503 -0.6288  0.3809  0.0851
 1572TIP3   OH226350   2.283   3.513   0.525 -0.1638 -0.1641  0.2217
 1572TIP3    H126351   2.357   3.463   0.490  0.9395  1.6018 -0.1317
 1572TIP3    H226352   2.324   3.581   0.578 -1.5457  0.7574  0.1577
 1573TIP3   OH226353   0.138   1.974   8.209 -0.5183  0.1211 -0.4491
 1573TIP3    H126354   0.221   2.013   8.236 -0.6082 -0.0498  0.0850
 1573TIP3    H226355   0.085   2.048   8.181 -0.5589  0.3447  0.2091
 1574TIP3   OH226356   2.430   6.720   0.318  0.3520  0.9895  0.2927
 1574TIP3    H126357   2.439   6.644   0.376 -1.1735 -0.1132 -0.8250
 1574TIP3    H226358   2.364   6.775   0.360  0.2157  0.8428  0.2728
 1575TIP3   OH226359   2.564   6.368   7.756  1.0599  0.1214  0.5138
 1575TIP3    H126360   2.598   6.279   7.747 -0.6406 -0.5857  0.6214
 1575TIP3    H226361   2.548   6.377   7.850 -0.3788 -0.1371  0.3235
 1576TIP3   OH226362   3.708   4.472   1.727  0.1596  0.1661  0.0339
 1576TIP3    H126363   3.690   4.489   1.819 -1.8061 -0.6238 -0.1560
 1576TIP3    H226364   3.622   4.471   1.685  1.0180  0.6815 -1.8520
 1577TIP3   OH226365   1.768   0.604   7.156  0.0430  0.4318  0.0433
 1577TIP3    H126366   1.819   0.538   7.203  0.6607  1.2195  0.4950
 1577TIP3    H226367   1.833   0.654   7.107 -0.4958  0.2474 -0.8835
 1578TIP3   OH226368   0.316   4.290   6.975 -0.7684 -0.0707 -0.7738
 1578TIP3    H126369   0.232   4.245   6.965 -1.7721  1.3237  0.7818
 1578TIP3    H226370   0.306   4.371   6.925 -0.5223  0.3010 -0.2281
 1579TIP3   OH226371   1.332   5.634   3.353 -0.2715 -0.1214  0.4728
 1579TIP3    H126372   1.411   5.680   3.324  0.1156 -0.6281  0.7185
 1579TIP3    H226373   1.364   5.557   3.398 -0.8952  0.0549  1.2419
 1580TIP3   OH226374   5.215   4.439   1.672  0.3948  0.2147 -0.5615
 1580TIP3    H126375   5.294   4.475   1.632  1.2963 -0.2860  0.6931
 1580TIP3    H226376   5.204   4.488   1.754  0.4063 -0.8682  0.1144
 1581TIP3   OH226377   3.581   5.862   0.905 -0.6966 -0.6101 -0.0922
 1581TIP3    H126378   3.576   5.954   0.878  0.5892 -1.0148 -1.8553
 1581TIP3    H226379   3.508   5.821   0.860 -0.5336 -0.6883 -0.2817
 1582TIP3   OH226380   6.155   6.400   1.903 -0.0992 -0.3359  0.2721
 1582TIP3    H126381   6.143   6.401   1.998  0.2563  3.0394  0.3840
 1582TIP3    H226382   6.066   6.407   1.868 -0.1524 -0.4605  0.3801
 1583TIP3   OH226383   1.846   1.968   0.167  0.5228  0.0813 -0.1800
 1583TIP3    H126384   1.879   1.882   0.194  0.9936  0.3991  0.2673
 1583TIP3    H226385   1.909   2.000   0.103 -0.2626 -0.3957 -1.2259
 1584TIP3   OH226386   2.167   4.436   8.049  0.1106  0.1903 -0.2157
 1584TIP3    H126387   2.107   4.500   8.010 -1.8517 -0.5521  1.3755
 1584TIP3    H226388   2.120   4.353   8.040  0.7090 -0.3495  1.4534
 1585TIP3   OH226389   6.984   1.786   8.077  0.4589 -0.0442  0.3923
 1585TIP3    H126390   6.993   1.809   7.985  1.4384 -1.6675  0.0667
 1585TIP3    H226391   7.041   1.848   8.123  2.2149 -1.0283 -0.3771
 1586TIP3   OH226392   6.390   5.936   7.282  0.5240 -0.1380  0.2532
 1586TIP3    H126393   6.378   6.028   7.259  0.3072 -0.3817 -0.6426
 1586TIP3    H226394   6.302   5.903   7.299  0.4518 -0.5283 -0.8271
 1587TIP3   OH226395   6.046   4.531   1.321 -0.0202 -0.9626 -0.0040
 1587TIP3    H126396   6.121   4.588   1.302 -0.6814 -0.3951 -1.0022
 1587TIP3    H226397   6.025   4.490   1.238  0.6288 -2.9595  0.7571
 1588TIP3   OH226398   0.778   1.123   0.566  0.2440 -0.6300  0.2870
 1588TIP3    H126399   0.873   1.117   0.552  0.4999  0.9316  1.1450
 1588TIP3    H226400   0.740   1.112   0.479  1.2906  0.0779 -0.2873
 1589TIP3   OH226401   6.096   0.899   2.743  0.0173  0.2391 -0.1169
 1589TIP3    H126402   6.167   0.843   2.709 -0.7063 -0.3932 -0.6192
 1589TIP3    H226403   6.108   0.982   2.698 -0.8747 -0.5544 -1.9491
 1590TIP3   OH226404   3.460   6.017   7.087  0.0393 -0.1131  0.0466
 1590TIP3    H126405   3.502   5.946   7.040 -0.0170 -0.1951  0.1190
 1590TIP3    H226406   3.417   6.069   7.019 -0.1226 -0.2861  0.0162
 1591TIP3   OH226407   4.783   2.155   1.302  0.7989  0.3521  0.0246
 1591TIP3    H126408   4.832   2.221   1.352 -0.2383  1.3218 -0.2207
 1591TIP3    H226409   4.786   2.186   1.212  1.1664 -0.4867 -0.2673
 1592TIP3   OH226410   0.475   4.479   1.670 -0.1156 -0.3346 -0.1269
 1592TIP3    H126411   0.517   4.396   1.650  2.9661  0.8605  0.8278
 1592TIP3    H226412   0.513   4.541   1.608 -2.1966  0.4417 -0.6894
 1593TIP3   OH226413   5.905   3.668   1.199  0.4754 -0.3628  0.2775
 1593TIP3    H126414   5.884   3.727   1.126  1.3520  0.0447  0.3447
 1593TIP3    H226415   5.885   3.719   1.277  0.4664 -0.4475  0.3301
 1594TIP3   OH226416   1.686   6.494   7.087 -0.2455  0.2350 -0.4413
 1594TIP3    H126417   1.754   6.452   7.034  0.9042  0.2381  0.9461
 1594TIP3    H226418   1.727   6.574   7.119 -0.3566 -0.4239  1.5241
 1595TIP3   OH226419   0.922   1.841   0.222  0.4587  0.7001  0.2175
 1595TIP3    H126420   0.889   1.920   0.179  1.8184  1.8295  1.1101
 1595TIP3    H226421   0.971   1.795   0.154 -0.4331  0.5425 -0.3396
 1596TIP3   OH226422   3.411   2.182   7.909  0.1153 -0.1400  0.2763
 1596TIP3    H126423   3.329   2.231   7.903 -0.0557 -0.4453  0.1322
 1596TIP3    H226424   3.479   2.250   7.910 -0.1961  0.1828  1.9550
 1597TIP3   OH226425   5.310   4.534   2.002  0.2984  0.4167 -0.6585
 1597TIP3    H126426   5.231   4.568   1.960 -1.6776 -1.2702  1.4057
 1597TIP3    H226427   5.317   4.584   2.083  0.6784 -0.2139 -0.3003
 1598TIP3   OH226428   0.764   6.255   0.857 -0.1866 -0.2461  0.2882
 1598TIP3    H126429   0.711   6.265   0.936  0.2223 -0.1396  0.5531
 1598TIP3    H226430   0.717   6.305   0.790  0.1021  0.6975  0.7685
 1599TIP3   OH226431   1.038   3.168   0.203 -0.4302 -0.3755  0.1620
 1599TIP3    H126432   1.010   3.259   0.194  2.7710  0.7661  0.2936
 1599TIP3    H226433   0.996   3.138   0.284 -1.7374  0.8934 -0.0116
 1600TIP3   OH226434   3.055   5.196   8.387 -0.0130  0.2906  0.8827
 1600TIP3    H126435   3.116   5.264   8.418 -1.2197  1.5815  0.5634
 1600TIP3    H226436   3.093   5.114   8.418  1.4454  1.1125  1.4020
 1601TIP3   OH226437   5.825   0.318   1.709 -0.1268 -0.4790 -0.5153
 1601TIP3    H126438   5.817   0.384   1.779 -0.0695  0.7309 -1.6086
 1601TIP3    H226439   5.815   0.234   1.754 -0.3816  0.2764  0.9019
 1602TIP3   OH226440   2.493   2.504   7.176  0.0531 -0.2242  0.0051
 1602TIP3    H126441   2.519   2.570   7.112 -1.1040 -0.5123 -0.7979
 1602TIP3    H226442   2.400   2.490   7.160 -0.1331 -0.7501  1.3640
 1603TIP3   OH226443   1.598   5.199   1.328 -0.2222 -0.3389 -0.3233
 1603TIP3    H126444   1.630   5.236   1.411 -1.4251 -0.7987  0.3580
 1603TIP3    H226445   1.666   5.223   1.264  2.1248 -2.3166  1.2675
 1604TIP3   OH226446   1.321   2.878   1.798  0.2166  0.1432  0.3027
 1604TIP3    H126447   1.237   2.917   1.776 -0.1839 -0.2586  1.0907
 1604TIP3    H226448   1.384   2.923   1.740 -0.5545  0.2859 -0.4485
 1605TIP3   OH226449   6.245   2.481   0.826 -0.0606 -0.8767 -0.2869
 1605TIP3    H126450   6.165   2.434   0.803 -0.1274 -0.8073 -0.1936
 1605TIP3    H226451   6.309   2.411   0.845  0.4916 -0.9911 -2.3063
 1606TIP3   OH226452   3.772   3.344   1.318 -0.1364  0.3181  0.1386
 1606TIP3    H126453   3.764   3.393   1.400 -1.5306 -0.9715  0.8184
 1606TIP3    H226454   3.702   3.378   1.263  0.2794  0.6096 -0.2119
 1607TIP3   OH226455   6.637   6.618   0.995  0.1156 -0.3014  0.3372
 1607TIP3    H126456   6.725   6.630   1.030 -0.5981  0.1494  2.1177
 1607TIP3    H226457   6.602   6.707   0.987  0.1949 -0.4077 -1.4458
 1608TIP3   OH226458   4.685   4.248   1.216  0.2892  0.3469 -0.8367
 1608TIP3    H126459   4.725   4.202   1.143 -1.1698 -1.2807 -0.6728
 1608TIP3    H226460   4.721   4.205   1.294  0.2521  0.6812 -0.6328
 1609TIP3   OH226461   1.252   1.880   1.228 -0.0865  0.2367  0.0725
 1609TIP3    H126462   1.178   1.894   1.286  1.1256  0.7183  1.5821
 1609TIP3    H226463   1.223   1.911   1.142 -1.5050  0.6773  0.6934
 1610TIP3   OH226464   4.817   5.173   7.104 -0.7608  0.0206  0.0255
 1610TIP3    H126465   4.824   5.090   7.058 -1.1361  0.6256 -1.1638
 1610TIP3    H226466   4.869   5.235   7.052  1.4039  0.0866  2.1055
 1611TIP3   OH226467   6.429   0.520   7.883 -0.0235 -0.4250 -0.1494
 1611TIP3    H126468   6.365   0.508   7.954 -0.2915 -0.1890 -0.3478
 1611TIP3    H226469   6.375   0.535   7.805  0.2824  1.1694 -0.0700
 1612TIP3   OH226470   5.235   5.684   0.503  1.2683  0.1000 -0.4023
 1612TIP3    H126471   5.194   5.610   0.457 -1.3432 -0.8673  3.0113
 1612TIP3    H226472   5.295   5.643   0.566  0.1957  0.8217  1.1582
 1613TIP3   OH226473   3.994   1.395   7.921  0.2502  0.0319  0.4209
 1613TIP3    H126474   3.901   1.385   7.942 -0.1734  0.6718 -1.0165
 1613TIP3    H226475   4.036   1.320   7.964 -0.7649  0.2833  1.9418
 1614TIP3   OH226476   5.294   0.552   0.603 -0.0603  0.2459  0.1779
 1614TIP3    H126477   5.363   0.601   0.648 -0.7277  0.9743  0.4296
 1614TIP3    H226478   5.262   0.490   0.669  0.3677 -0.1118  0.0522
 1615TIP3   OH226479   6.941   0.203   2.673 -0.1081  0.0949  0.8746
 1615TIP3    H126480   6.941   0.270   2.742  0.5061 -0.5314  1.4967
 1615TIP3    H226481   7.014   0.145   2.695  0.4929  0.2213 -0.6592
 1616TIP3   OH226482   2.205   7.020   7.651  0.5288 -0.6051 -0.0493
 1616TIP3    H126483   2.162   7.002   7.735 -0.0886  0.9279 -0.0187
 1616TIP3    H226484   2.134   7.030   7.589  0.7515  1.9634  0.0022
 1617TIP3   OH226485   5.001   3.797   6.970  0.2354  0.0345 -0.5491
 1617TIP3    H126486   4.919   3.756   6.941  0.1612  2.1477 -3.8833
 1617TIP3    H226487   5.069   3.735   6.943 -0.1461 -1.3854  1.5634
 1618TIP3   OH226488   4.682   5.675   2.351 -0.1353  0.4828  0.9176
 1618TIP3    H126489   4.708   5.720   2.270  1.8957  0.2069  1.3663
 1618TIP3    H226490   4.733   5.594   2.350  0.1896  0.6473  2.6417
 1619TIP3   OH226491   0.097   0.201   1.157 -0.2106  0.5320 -0.6233
 1619TIP3    H126492   0.112   0.176   1.249  1.6361 -1.1626 -1.3340
 1619TIP3    H226493   0.001   0.204   1.150 -0.4827 -1.7225  0.7867
 1620TIP3   OH226494   4.705   5.968   1.397  0.0861 -0.7118  0.3514
 1620TIP3    H126495   4.648   6.029   1.443  0.3968  0.2674 -0.5161
 1620TIP3    H226496   4.665   5.882   1.411 -0.7858 -0.2198  0.9551
 1621TIP3   OH226497   4.044   6.937   0.867 -0.3701  0.7016 -0.3526
 1621TIP3    H126498   4.022   6.957   0.957 -0.5182  0.6927 -0.3872
 1621TIP3    H226499   4.135   6.908   0.870 -0.4104  0.5956 -0.1916
 1622TIP3   OH226500   1.433   4.934   2.142 -0.2238  0.1608 -0.0721
 1622TIP3    H126501   1.391   4.871   2.201 -0.9015 -0.5785 -1.3176
 1622TIP3    H226502   1.363   4.961   2.082  0.8613 -0.4331 -1.6409
 1623TIP3   OH226503   6.962   5.323   0.229  0.2226  0.0517 -0.0135
 1623TIP3    H126504   7.048   5.355   0.256  0.4257 -1.4769  1.3183
 1623TIP3    H226505   6.980   5.265   0.154  0.1264  1.0971 -0.8659
 1624TIP3   OH226506   1.813   6.927   8.031 -0.5700 -0.4237  0.1656
 1624TIP3    H126507   1.758   6.892   7.961 -0.1093 -0.1855 -0.3303
 1624TIP3    H226508   1.884   6.972   7.985 -0.5308  0.1709  0.7903
 1625TIP3   OH226509   5.869   1.454   7.385 -0.0264 -0.3888  0.2080
 1625TIP3    H126510   5.812   1.515   7.338  1.8400  1.2857  0.0254
 1625TIP3    H226511   5.955   1.465   7.345  1.3888  0.2352  3.1979
 1626TIP3   OH226512   0.161   5.949   8.229  0.7700 -0.3832  0.2614
 1626TIP3    H126513   0.164   6.030   8.280 -1.2641  0.6621 -1.1132
 1626TIP3    H226514   0.132   5.882   8.290 -3.3594  1.1706  0.3418
 1627TIP3   OH226515   4.060   1.835   0.362  0.4058  0.9454 -0.3166
 1627TIP3    H126516   4.068   1.774   0.289  0.6724  0.6237 -0.0235
 1627TIP3    H226517   4.085   1.784   0.439 -1.3123  0.8522  0.2227
 1628TIP3   OH226518   4.731   5.839   1.066 -0.1201  0.1370 -0.1791
 1628TIP3    H126519   4.658   5.900   1.068 -0.9361 -0.7534 -1.2663
 1628TIP3    H226520   4.809   5.893   1.076 -0.6995  1.5792 -2.7377
 1629TIP3   OH226521   0.984   1.119   2.011  0.7551  0.3208  0.4445
 1629TIP3    H126522   0.950   1.136   1.923 -0.9658  0.3280  1.0651
 1629TIP3    H226523   1.067   1.166   2.014  0.5099  0.8958 -0.9510
 1630TIP3   OH226524   1.959   3.104   1.541  0.2614 -0.1478  0.0280
 1630TIP3    H126525   1.997   3.028   1.585 -0.4368 -0.4874  0.0743
 1630TIP3    H226526   1.964   3.083   1.447 -1.4724 -1.0471  0.0968
 1631TIP3   OH226527   2.875   3.419   8.278  0.3860  0.5055  0.3844
 1631TIP3    H126528   2.938   3.491   8.279  0.4493  0.4416  1.2627
 1631TIP3    H226529   2.906   3.358   8.345 -0.0291 -0.0321  0.1026
 1632TIP3   OH226530   4.516   1.824   0.055 -0.0666  0.0429  1.0157
 1632TIP3    H126531   4.472   1.909   0.057 -0.8572 -0.3666  2.0792
 1632TIP3    H226532   4.564   1.820   0.138  0.3125 -0.3767  0.7821
 1633TIP3   OH226533   2.069   6.668   0.736  0.2982  0.1113  0.5854
 1633TIP3    H126534   2.028   6.696   0.654  0.3837 -0.3043  0.3945
 1633TIP3    H226535   2.054   6.740   0.797 -0.2078  0.2089  0.3477
 1634TIP3   OH226536   0.642   5.874   8.000 -0.0535  0.6623 -0.0442
 1634TIP3    H126537   0.607   5.859   7.912  0.1090 -1.9783  0.2831
 1634TIP3    H226538   0.736   5.883   7.987  0.2764 -2.0778  0.0259
 1635TIP3   OH226539   0.386   0.805   7.612 -0.2804  0.0165 -0.1625
 1635TIP3    H126540   0.335   0.875   7.569 -2.2882 -1.1532  0.1615
 1635TIP3    H226541   0.341   0.724   7.586  1.0679 -1.0434  0.7023
 1636TIP3   OH226542   1.233   3.208   7.886 -0.5242 -0.2227 -0.1849
 1636TIP3    H126543   1.221   3.171   7.799 -0.4083 -0.3995 -0.1259
 1636TIP3    H226544   1.250   3.301   7.870 -2.3853  0.1412 -0.2558
 1637TIP3   OH226545   1.367   0.037   2.658 -0.2937 -0.0974 -0.4463
 1637TIP3    H126546   1.333   0.059   2.744 -1.4448  0.9206 -1.1418
 1637TIP3    H226547   1.432   0.105   2.639 -0.5552  0.0824 -0.6891
 1638TIP3   OH226548   2.543   2.606   0.338 -0.3911  0.1120  0.7038
 1638TIP3    H126549   2.471   2.626   0.277 -1.1932  1.9174  2.1446
 1638TIP3    H226550   2.573   2.519   0.311 -3.1944 -0.7958  0.0965
 1639TIP3   OH226551   5.694   4.009   7.055  0.1293  0.5271 -0.2849
 1639TIP3    H126552   5.778   3.964   7.067  0.4177  1.2849  0.7662
 1639TIP3    H226553   5.659   3.975   6.973  0.8258 -0.8142 -0.0469
 1640TIP3   OH226554   0.464   3.118   0.199  0.1410  0.9412  0.2996
 1640TIP3    H126555   0.544   3.078   0.232 -0.5567 -1.6652 -0.9468
 1640TIP3    H226556   0.393   3.066   0.237 -0.8104  0.6068 -1.7732
 1641TIP3   OH226557   6.709   2.811   0.300 -0.4854  0.0853 -0.1720
 1641TIP3    H126558   6.776   2.791   0.365 -0.8773 -2.2654 -0.3944
 1641TIP3    H226559   6.737   2.894   0.261  0.5926  0.7364  1.8691
 1642TIP3   OH226560   6.800   4.910   6.875  0.5002 -0.2704 -0.0589
 1642TIP3    H126561   6.761   4.942   6.956  2.2016 -0.0306  0.7134
 1642TIP3    H226562   6.794   4.984   6.814  2.0670  0.6870  0.8926
 1643TIP3   OH226563   4.714   0.252   0.025  0.3105  0.0225  0.1773
 1643TIP3    H126564   4.740   0.250   0.117  0.0315  1.3173  0.3022
 1643TIP3    H226565   4.670   0.337   0.014 -2.3734 -1.3479 -0.4425
 1644TIP3   OH226566   1.833   3.764   1.821 -0.0476 -0.4070  0.1033
 1644TIP3    H126567   1.917   3.770   1.774 -0.7826  0.3133 -1.1789
 1644TIP3    H226568   1.824   3.849   1.863 -1.0912  0.3398 -1.5202
 1645TIP3   OH226569   4.558   0.531   1.875  0.0432 -0.5564 -0.3268
 1645TIP3    H126570   4.554   0.498   1.965 -0.7996 -1.3382 -0.6383
 1645TIP3    H226571   4.500   0.607   1.874  0.6104 -0.1022 -0.0524
 1646TIP3   OH226572   1.920   6.805   2.952 -0.2331 -0.5142  0.1246
 1646TIP3    H126573   1.848   6.747   2.977  0.7193 -2.0143 -0.5178
 1646TIP3    H226574   1.997   6.748   2.949  0.7209  0.7758 -0.5970
 1647TIP3   OH226575   1.621   4.183   3.221  0.2356 -0.2603  0.3986
 1647TIP3    H126576   1.650   4.265   3.181 -0.5929  0.4014  1.1045
 1647TIP3    H226577   1.571   4.138   3.153  1.3208 -0.5390 -0.2278
 1648TIP3   OH226578   0.931   0.317   1.628 -0.1450  0.7590  0.0208
 1648TIP3    H126579   0.966   0.229   1.638 -1.6531  0.3536  2.9103
 1648TIP3    H226580   1.000   0.375   1.660  1.0805  0.7816 -2.4318
 1649TIP3   OH226581   2.059   1.627   6.970 -0.0598 -0.2915 -0.5331
 1649TIP3    H126582   2.019   1.577   7.041 -0.0291  2.6414  1.7349
 1649TIP3    H226583   2.149   1.642   7.000 -0.3073  1.7464 -0.6955
 1650TIP3   OH226584   6.091   5.232   8.102  0.1987 -0.9008  0.0781
 1650TIP3    H126585   6.025   5.231   8.033 -0.4505  0.7727  0.6366
 1650TIP3    H226586   6.075   5.153   8.152  0.3883 -1.9157 -1.3822
 1651TIP3   OH226587   4.956   0.856   0.212 -0.3897 -0.0723 -0.1769
 1651TIP3    H126588   4.962   0.925   0.278  0.3921 -0.4930  0.2004
 1651TIP3    H226589   4.984   0.897   0.131  0.2752  0.0005  0.0886
 1652TIP3   OH226590   6.676   6.335   1.246 -0.6271 -0.0858 -0.5262
 1652TIP3    H126591   6.607   6.382   1.292 -1.6387 -4.3045  2.9224
 1652TIP3    H226592   6.754   6.349   1.299 -0.1926  0.1030 -1.2001
 1653TIP3   OH226593   1.943   5.453   2.825 -0.2928 -0.1770  0.7724
 1653TIP3    H126594   1.908   5.369   2.854  0.7903 -0.4126  1.4366
 1653TIP3    H226595   1.969   5.497   2.906  0.5606  0.1592  0.3232
 1654TIP3   OH226596   0.020   5.558   1.633  0.3140  0.3294  0.3562
 1654TIP3    H126597   0.071   5.631   1.597 -0.2203  0.3639 -0.3503
 1654TIP3    H226598   0.074   5.524   1.704  1.1303  0.6329 -0.1018
 1655TIP3   OH226599   6.907   4.519   7.669  0.9370  0.0272 -0.0957
 1655TIP3    H126600   7.001   4.520   7.650  1.3379  0.8351  1.7106
 1655TIP3    H226601   6.882   4.611   7.668  0.6415 -0.0067  1.4380
 1656TIP3   OH226602   6.067   0.702   7.092 -0.3400  0.3388  0.2590
 1656TIP3    H126603   5.975   0.719   7.113 -0.0316 -1.3333  3.5995
 1656TIP3    H226604   6.116   0.764   7.146  0.5830  1.3691 -1.6523
 1657TIP3   OH226605   2.996   4.414   0.015 -0.4082 -0.3628  0.2157
 1657TIP3    H126606   3.045   4.495   0.001 -0.8059 -0.2263 -0.4333
 1657TIP3    H226607   2.969   4.387  -0.073 -0.9142 -0.7998  0.4996
 1658TIP3   OH226608   2.366   0.816   2.587  0.2447 -0.7351  0.5941
 1658TIP3    H126609   2.330   0.901   2.610  1.1320 -0.4195  0.8552
 1658TIP3    H226610   2.305   0.781   2.522  0.6165  0.7126 -0.5982
 1659TIP3   OH226611   3.819   0.624   2.432  0.1738 -0.1732  0.3404
 1659TIP3    H126612   3.816   0.531   2.454  1.9159 -0.7036 -1.3272
 1659TIP3    H226613   3.905   0.653   2.465 -0.0483  0.6571  0.2060
 1660TIP3   OH226614   6.341   3.820   8.152  0.3837  0.1047 -0.6080
 1660TIP3    H126615   6.363   3.913   8.155  0.9958 -0.0038 -1.4662
 1660TIP3    H226616   6.276   3.813   8.082 -0.1158 -0.0332 -0.1406
 1661TIP3   OH226617   5.781   2.939   7.637  0.2757 -0.3769 -0.1011
 1661TIP3    H126618   5.763   2.872   7.571  0.5798 -0.2318 -0.3340
 1661TIP3    H226619   5.767   3.022   7.591  1.2429 -0.2635 -0.2053
 1662TIP3   OH226620   3.468   4.285   0.884  0.1867  0.0246  0.5006
 1662TIP3    H126621   3.419   4.226   0.942  0.7600 -0.5825  0.3827
 1662TIP3    H226622   3.550   4.238   0.866  0.4534  0.6585  0.0257
 1663TIP3   OH226623   5.500   5.566   0.290  0.3144 -0.6971 -1.3094
 1663TIP3    H126624   5.446   5.492   0.263 -1.6314 -0.1272  0.7232
 1663TIP3    H226625   5.467   5.640   0.239 -0.6587 -0.4267 -0.3361
 1664TIP3   OH226626   5.820   6.440   0.727  0.2201  0.1435  0.3134
 1664TIP3    H126627   5.802   6.434   0.821  1.5020  2.5362  0.7832
 1664TIP3    H226628   5.736   6.422   0.685 -0.3010 -1.3030  1.8626
 1665TIP3   OH226629   1.129   6.286   0.693  0.0738 -0.1015 -0.6313
 1665TIP3    H126630   1.182   6.295   0.773 -0.2227 -0.2937 -0.4117
 1665TIP3    H226631   1.039   6.296   0.723 -0.0338 -0.0808 -0.9610
 1666TIP3   OH226632   0.771   0.117   1.346  0.3154  0.1136  0.7822
 1666TIP3    H126633   0.830   0.043   1.362 -1.0826 -1.2956 -0.2506
 1666TIP3    H226634   0.829   0.192   1.331  1.8106 -1.0428  0.5951
 1667TIP3   OH226635   6.511   1.711   1.719 -0.1253  0.4400 -0.1891
 1667TIP3    H126636   6.479   1.658   1.792  0.4393  1.4034  0.7914
 1667TIP3    H226637   6.529   1.649   1.649 -0.5072 -0.5237  0.5554
 1668TIP3   OH226638   4.050   0.754   2.543  0.3642  0.1028 -0.3453
 1668TIP3    H126639   3.990   0.821   2.575 -0.7472 -0.4108 -1.2751
 1668TIP3    H226640   4.133   0.799   2.532  0.1675  0.8272  0.9867
 1669TIP3   OH226641   2.423   6.731   7.792  0.0355  0.2269 -0.0528
 1669TIP3    H126642   2.337   6.773   7.798  0.3456  0.9891 -0.6657
 1669TIP3    H226643   2.458   6.761   7.708  1.0989  0.3022  0.3996
 1670TIP3   OH226644   5.672   2.738   7.427  0.2939  0.5549  0.1226
 1670TIP3    H126645   5.706   2.778   7.346  0.3598  0.5931  0.1691
 1670TIP3    H226646   5.703   2.648   7.423  0.3911  0.5867  0.1592
 1671TIP3   OH226647   6.535   4.534   1.228  0.3595  0.0754 -0.3041
 1671TIP3    H126648   6.583   4.455   1.205  0.8857  0.6246 -1.1687
 1671TIP3    H226649   6.448   4.503   1.254  0.6957 -0.8138 -0.2177
 1672TIP3   OH226650   4.480   0.534   8.174  0.8914  0.9813 -0.3176
 1672TIP3    H126651   4.500   0.528   8.080 -1.1775  2.9233 -0.9793
 1672TIP3    H226652   4.439   0.620   8.184 -1.1222 -0.1229  1.9404
 1673TIP3   OH226653   3.249   1.897   7.903  0.5341  0.1014 -0.0425
 1673TIP3    H126654   3.320   1.960   7.915  1.7110 -1.3196  0.7177
 1673TIP3    H226655   3.262   1.863   7.814 -0.3933  1.2193 -0.6420
 1674TIP3   OH226656   0.233   4.730   0.815 -0.4474 -0.4471  0.2209
 1674TIP3    H126657   0.179   4.745   0.892  2.4686  2.5130  1.9977
 1674TIP3    H226658   0.172   4.701   0.748 -4.1641  2.1388  2.1155
 1675TIP3   OH226659   5.792   1.610   8.281 -0.0638 -0.1413 -0.2754
 1675TIP3    H126660   5.795   1.694   8.234 -1.2886  0.7641  1.1937
 1675TIP3    H226661   5.699   1.589   8.289  0.1205 -0.5318  1.2361
 1676TIP3   OH226662   2.868   5.107   0.857 -0.1314  0.1917 -0.0569
 1676TIP3    H126663   2.828   5.181   0.812  1.0065  0.9878  0.1950
 1676TIP3    H226664   2.834   5.111   0.947 -1.1357 -0.4373 -0.3827
 1677TIP3   OH226665   0.330   0.698   1.326  0.2176  0.1024  0.6230
 1677TIP3    H126666   0.297   0.738   1.245 -2.8882  0.9010  2.1484
 1677TIP3    H226667   0.318   0.604   1.314  0.6664  0.1351 -0.1588
 1678TIP3   OH226668   5.492   0.407   1.673  0.2071 -0.3221  0.6602
 1678TIP3    H126669   5.500   0.362   1.589 -2.7715 -0.1454  0.1583
 1678TIP3    H226670   5.411   0.372   1.711 -0.7543  2.5270  1.5128
 1679TIP3   OH226671   1.355   6.073   8.203 -0.7912  0.2874  0.1057
 1679TIP3    H126672   1.307   6.106   8.279 -1.2389  1.5301 -0.6826
 1679TIP3    H226673   1.428   6.023   8.241 -1.8073 -0.3408  1.3308
 1680TIP3   OH226674   4.370   0.036   7.833  0.2073 -0.5076  0.1636
 1680TIP3    H126675   4.462   0.061   7.844 -0.3433  1.2018  1.3606
 1680TIP3    H226676   4.331   0.108   7.783 -0.3718 -1.4841 -0.8156
 1681TIP3   OH226677   1.277   4.732   0.519  0.4348 -0.2086 -0.1326
 1681TIP3    H126678   1.230   4.703   0.597  2.3298  1.5183  1.7871
 1681TIP3    H226679   1.302   4.822   0.539  0.0136  0.7166 -3.2648
 1682TIP3   OH226680   0.964   0.437   1.952 -0.1002 -0.0234 -0.3726
 1682TIP3    H126681   0.931   0.525   1.938  0.6051  0.3983  0.4568
 1682TIP3    H226682   1.011   0.415   1.871 -0.8487  0.0757 -0.8443
 1683TIP3   OH226683   2.841   2.126   7.051  0.5826 -0.7953  0.0433
 1683TIP3    H126684   2.829   2.219   7.066 -1.6461 -0.7250 -1.5908
 1683TIP3    H226685   2.926   2.119   7.008  0.3640  0.6305 -0.6875
 1684TIP3   OH226686   0.252   5.173   7.298 -0.2920 -0.1180  0.0403
 1684TIP3    H126687   0.261   5.081   7.323  0.4290  0.1660  0.9096
 1684TIP3    H226688   0.235   5.172   7.204 -1.9045 -1.1973  0.3129
 1685TIP3   OH226689   5.685   4.254   7.413 -0.1792 -0.5182  0.0595
 1685TIP3    H126690   5.598   4.236   7.376  0.9478 -2.1827 -1.9967
 1685TIP3    H226691   5.705   4.343   7.384 -0.5348 -0.7229 -0.8559
 1686TIP3   OH226692   1.728   5.983   2.115 -0.0665 -0.0702 -0.4533
 1686TIP3    H126693   1.771   6.009   2.196  2.2025  1.9090 -2.1335
 1686TIP3    H226694   1.641   6.020   2.120 -0.2886 -0.7175  1.3739
 1687TIP3   OH226695   3.799   2.853   0.488 -0.1821  0.4556  0.6808
 1687TIP3    H126696   3.785   2.794   0.414 -1.5568 -0.0641  1.3340
 1687TIP3    H226697   3.851   2.801   0.550  0.2445  0.6037  0.4547
 1688TIP3   OH226698   4.739   2.264   1.601 -0.1261  0.0486  0.2825
 1688TIP3    H126699   4.771   2.352   1.582 -1.5371  0.6240  0.4524
 1688TIP3    H226700   4.818   2.212   1.614  0.7257  1.3708  0.5563
 1689TIP3   OH226701   5.132   5.553   7.729 -0.1683  0.2123  0.1968
 1689TIP3    H126702   5.186   5.629   7.705  0.2065 -0.2557 -0.4745
 1689TIP3    H226703   5.108   5.569   7.820  1.5361  0.2040  0.6804
 1690TIP3   OH226704   5.451   1.190   6.686 -0.1689  0.2627 -0.6148
 1690TIP3    H126705   5.469   1.201   6.780 -0.6329 -1.9909 -0.2001
 1690TIP3    H226706   5.535   1.205   6.644  0.0515  1.2941  0.1452
 1691TIP3   OH226707   1.465   0.112   2.294 -0.5551 -0.0993  0.2703
 1691TIP3    H126708   1.410   0.167   2.238  0.0363  0.4826  0.2451
 1691TIP3    H226709   1.467   0.158   2.378  0.3504  0.1957  0.1028
 1692TIP3   OH226710   4.835   6.588   2.269  0.3435 -0.4387  0.5200
 1692TIP3    H126711   4.776   6.525   2.227  0.0321  0.9642 -1.2728
 1692TIP3    H226712   4.855   6.548   2.354 -1.9089 -1.7149  0.5509
 1693TIP3   OH226713   3.600   2.402   7.864 -0.0247 -0.4551  0.1443
 1693TIP3    H126714   3.642   2.476   7.908 -2.5550  0.5750  1.0323
 1693TIP3    H226715   3.615   2.417   7.771  0.6322  0.4379  0.3819
 1694TIP3   OH226716   2.268   1.751   0.560  0.0291  0.4747  0.4627
 1694TIP3    H126717   2.265   1.729   0.653  0.5628  0.8241  0.5705
 1694TIP3    H226718   2.330   1.825   0.555 -0.8498  1.2009 -0.0251
 1695TIP3   OH226719   1.266   1.724   7.604  0.3534 -0.9030  0.2042
 1695TIP3    H126720   1.196   1.787   7.620  0.3388 -1.0436  0.7110
 1695TIP3    H226721   1.225   1.638   7.618 -0.0930 -1.1424 -2.1654
 1696TIP3   OH226722   4.499   1.055   1.348 -0.4913  0.0577 -0.3845
 1696TIP3    H126723   4.524   0.972   1.387 -4.1614 -2.3153 -2.4597
 1696TIP3    H226724   4.550   1.060   1.267 -0.9082 -0.6680 -0.7001
 1697TIP3   OH226725   0.731   2.790   0.727 -0.3009 -0.2823  0.4616
 1697TIP3    H126726   0.654   2.745   0.762 -1.3775  1.5486  0.5736
 1697TIP3    H226727   0.771   2.726   0.668 -1.5247 -1.5224  0.9167
 1698TIP3   OH226728   4.037   6.317   0.704  0.2436 -0.0535  0.1451
 1698TIP3    H126729   4.029   6.221   0.710  0.4400 -0.1721 -1.2532
 1698TIP3    H226730   4.030   6.347   0.795  0.0342 -1.3822  0.5910
 1699TIP3   OH226731   6.296   4.331   1.676 -0.5972  0.1569  0.0974
 1699TIP3    H126732   6.322   4.353   1.586 -0.6902 -0.1362 -0.0003
 1699TIP3    H226733   6.233   4.260   1.667  1.7662 -2.1294  0.5362
 1700TIP3   OH226734   6.202   0.134   0.071 -0.0354  0.2304  0.4071
 1700TIP3    H126735   6.297   0.130   0.067 -0.1050 -0.6732 -1.6922
 1700TIP3    H226736   6.176   0.052   0.115  0.1364  0.1748  0.4048
 1701TIP3   OH226737   2.529   0.664   1.245  0.1835 -0.3015 -0.7722
 1701TIP3    H126738   2.557   0.748   1.280 -3.4720  1.1178 -0.7631
 1701TIP3    H226739   2.546   0.601   1.315 -1.6137  1.4251  1.3749
 1702TIP3   OH226740   3.699   1.964   2.342  0.1962 -0.3044  0.4922
 1702TIP3    H126741   3.702   2.042   2.286 -0.2715 -1.5627 -1.4020
 1702TIP3    H226742   3.751   1.987   2.419 -1.6135  2.5892  1.0117
 1703TIP3   OH226743   4.149   4.959   2.298  0.3571  0.4927  0.0345
 1703TIP3    H126744   4.088   5.032   2.287  0.4735  0.5841 -0.0103
 1703TIP3    H226745   4.236   5.000   2.299  0.4343  0.3369 -0.1914
 1704TIP3   OH226746   1.200   3.255   8.290  0.2162 -0.4217  0.1114
 1704TIP3    H126747   1.136   3.239   8.221  0.0124 -0.2193  0.2497
 1704TIP3    H226748   1.166   3.332   8.336  0.7932 -0.0325 -0.1010
 1705TIP3   OH226749   3.072   1.270   0.437 -0.5992 -0.2100  0.2777
 1705TIP3    H126750   2.977   1.264   0.444 -0.7267 -1.1966 -1.6960
 1705TIP3    H226751   3.090   1.364   0.435 -1.6873 -0.0073 -0.8788
 1706TIP3   OH226752   1.638   2.213   1.188  0.4578  0.6578  0.5469
 1706TIP3    H126753   1.696   2.289   1.182  0.7799  0.3671 -0.2651
 1706TIP3    H226754   1.615   2.207   1.280  0.5187  1.6717  0.6399
 1707TIP3   OH226755   3.322   0.800   2.412  0.3490 -0.6578  0.2484
 1707TIP3    H126756   3.229   0.802   2.389  0.1061 -1.5849  1.0523
 1707TIP3    H226757   3.357   0.882   2.379 -0.7701 -0.2773 -0.0319
 1708TIP3   OH226758   4.129   4.035   1.217 -0.7577  0.1202  0.2527
 1708TIP3    H126759   4.220   4.042   1.189  0.0818 -0.0118  2.6993
 1708TIP3    H226760   4.132   3.977   1.294 -3.1195 -1.0389 -0.4230
 1709TIP3   OH226761   4.660   7.026   7.098 -0.7345  0.0548  0.2510
 1709TIP3    H126762   4.596   6.970   7.054  0.4711  1.3450 -3.5460
 1709TIP3    H226763   4.740   6.973   7.100 -0.2364  0.6967 -1.1566
 1710TIP3   OH226764   3.375   2.234   2.194 -0.3705 -0.2152  0.5076
 1710TIP3    H126765   3.282   2.235   2.214 -0.2686  0.2776  1.0018
 1710TIP3    H226766   3.390   2.316   2.145 -0.1194 -0.0634  0.8320
 1711TIP3   OH226767   2.845   3.234   0.241 -0.1707 -0.0974  0.3032
 1711TIP3    H126768   2.891   3.217   0.159  0.4955  1.5630  0.2763
 1711TIP3    H226769   2.895   3.186   0.307  2.0146  2.0151  0.3439
 1712TIP3   OH226770   5.912   5.876   7.900 -0.3005  0.9821 -0.3017
 1712TIP3    H126771   5.914   5.862   7.805  1.8579 -0.2193 -0.1228
 1712TIP3    H226772   5.857   5.806   7.934  4.0192 -2.7441 -0.1793
 1713TIP3   OH226773   4.689   3.692   0.835  0.2695 -0.4754  0.2629
 1713TIP3    H126774   4.754   3.733   0.778  0.6807 -1.1430  0.2310
 1713TIP3    H226775   4.626   3.653   0.774  2.0338 -3.3956  0.0603
 1714TIP3   OH226776   3.856   5.437   7.027  0.5675 -0.0192  0.2627
 1714TIP3    H126777   3.918   5.395   6.967  0.4303 -1.6443  1.1852
 1714TIP3    H226778   3.889   5.415   7.114 -1.5665 -1.4686  0.8016
 1715TIP3   OH226779   6.259   5.215   2.407 -0.4566  0.2067 -0.4652
 1715TIP3    H126780   6.264   5.176   2.320 -0.6445 -1.6999  0.3129
 1715TIP3    H226781   6.346   5.203   2.444 -0.4335  0.8266 -0.3079
 1716TIP3   OH226782   6.215   0.658   8.027  0.1564 -0.5876 -0.0835
 1716TIP3    H126783   6.275   0.670   8.100  0.2316  0.1398 -0.2620
 1716TIP3    H226784   6.141   0.610   8.064 -0.7464  1.5167  0.9682
 1717TIP3   OH226785   0.072   6.332   0.659 -0.4390  0.0739  0.4547
 1717TIP3    H126786   0.069   6.340   0.754  1.3758 -1.0901  0.6585
 1717TIP3    H226787   0.047   6.242   0.642  0.2854 -0.0370 -0.0673
 1718TIP3   OH226788   1.103   1.509   7.578 -0.1544  0.0859 -0.2534
 1718TIP3    H126789   1.141   1.512   7.490  0.9403 -2.6592  0.0437
 1718TIP3    H226790   1.046   1.432   7.577 -1.1978  0.7965  1.0793
 1719TIP3   OH226791   6.016   5.054   1.511  0.1031  0.7679  0.6035
 1719TIP3    H126792   6.109   5.047   1.534  0.1300  1.6537  0.7916
 1719TIP3    H226793   5.971   5.061   1.595 -0.0679  1.0257  0.4915
 1720TIP3   OH226794   1.524   3.501   0.236  0.2487  0.3927  0.2936
 1720TIP3    H126795   1.479   3.437   0.180  0.6785 -0.2275  0.6360
 1720TIP3    H226796   1.595   3.450   0.277  0.9818  1.2359  0.0995
 1721TIP3   OH226797   6.510   1.154   1.712 -0.2323 -0.3556 -0.0277
 1721TIP3    H126798   6.479   1.073   1.754 -0.6362 -0.0758  0.2299
 1721TIP3    H226799   6.430   1.202   1.692  0.0261  0.7093  1.2960
 1722TIP3   OH226800   4.122   0.103   2.096 -0.6448 -0.1475 -0.3964
 1722TIP3    H126801   4.202   0.151   2.115 -0.8223  0.9132 -2.1259
 1722TIP3    H226802   4.080   0.090   2.181  0.7134  0.4289  0.3796
 1723TIP3   OH226803   1.739   3.259   7.532  0.8154  0.5308  0.4962
 1723TIP3    H126804   1.727   3.286   7.440  2.9012 -2.5798 -0.8355
 1723TIP3    H226805   1.670   3.194   7.547  1.7240 -0.4528  0.4468
 1724TIP3   OH226806   1.539   0.642   7.010  0.4361 -0.0848 -0.1843
 1724TIP3    H126807   1.615   0.619   7.063  0.6214 -0.4930 -0.6222
 1724TIP3    H226808   1.558   0.607   6.924 -0.2116 -0.1117 -0.3233
 1725TIP3   OH226809   0.965   3.545   1.347  0.1937 -0.6241  0.4059
 1725TIP3    H126810   1.060   3.532   1.348  0.1147 -1.3604  2.4181
 1725TIP3    H226811   0.930   3.463   1.313  0.2641  0.0562 -1.4578
 1726TIP3   OH226812   4.705   4.362   8.024  0.3192 -0.3900  0.0681
 1726TIP3    H126813   4.738   4.324   7.942 -2.9083  1.7968 -2.5500
 1726TIP3    H226814   4.768   4.432   8.045 -0.2044  0.9222 -2.3334
 1727TIP3   OH226815   3.296   0.771   0.091  0.2346  0.5404  0.4399
 1727TIP3    H126816   3.383   0.807   0.109  0.5227 -0.2048  0.5647
 1727TIP3    H226817   3.264   0.741   0.176 -1.1953  2.9842  0.8887
 1728TIP3   OH226818   1.809   5.751   1.139  0.4636 -0.0355  0.3341
 1728TIP3    H126819   1.882   5.775   1.197 -0.7010 -0.6098  2.1301
 1728TIP3    H226820   1.817   5.656   1.129  0.6369  0.0548 -0.4726
 1729TIP3   OH226821   3.661   2.229   2.243 -0.3010  0.4713  0.3369
 1729TIP3    H126822   3.657   2.266   2.154 -1.8372  1.8246  0.9237
 1729TIP3    H226823   3.570   2.215   2.268  0.1416 -0.7475  1.3828
 1730TIP3   OH226824   3.720   2.647   8.277  0.0807 -0.3622  0.0201
 1730TIP3    H126825   3.633   2.680   8.303 -0.0106 -0.7736  0.2426
 1730TIP3    H226826   3.774   2.726   8.270 -0.1492 -0.1581  0.4983
 1731TIP3   OH226827   6.678   3.770   8.134  0.3234 -0.4423  1.3546
 1731TIP3    H126828   6.649   3.725   8.213 -0.9688 -0.5079  0.8666
 1731TIP3    H226829   6.695   3.860   8.162  0.3361 -0.5834  1.8004
 1732TIP3   OH226830   3.629   1.622   1.963  0.0371  0.2623 -0.3158
 1732TIP3    H126831   3.553   1.579   2.001 -0.6267  1.6892  0.0473
 1732TIP3    H226832   3.696   1.618   2.032 -0.7608  1.7615  0.5859
 1733TIP3   OH226833   3.470   0.676   0.641  0.2596 -0.1285  0.2595
 1733TIP3    H126834   3.507   0.758   0.608  0.6736  0.7440  2.7220
 1733TIP3    H226835   3.376   0.692   0.644  0.3938  0.5225  1.3448
 1734TIP3   OH226836   6.144   1.255   1.044 -0.3469  0.1027  0.4598
 1734TIP3    H126837   6.058   1.252   1.001 -1.1655  2.1730  1.8140
 1734TIP3    H226838   6.198   1.308   0.985 -1.3144  2.4865  1.6024
 1735TIP3   OH226839   4.492   6.467   8.292  0.1785 -0.0083 -0.1735
 1735TIP3    H126840   4.426   6.398   8.283 -0.5653  0.6521  0.1354
 1735TIP3    H226841   4.461   6.521   8.364  1.3379  0.0125  0.3334
 1736TIP3   OH226842   3.355   1.497   1.519 -0.2724 -0.2416 -0.1963
 1736TIP3    H126843   3.386   1.413   1.485 -0.5339 -0.2104 -0.5099
 1736TIP3    H226844   3.415   1.517   1.592  0.9919  0.2245 -1.3157
 1737TIP3   OH226845   3.148   4.305   2.855  0.1090  0.3877 -0.5829
 1737TIP3    H126846   3.077   4.288   2.917  1.7535 -1.5789  0.8627
 1737TIP3    H226847   3.193   4.382   2.891  0.0051  0.3224 -0.3116
 1738TIP3   OH226848   6.434   6.633   8.130  0.1806  0.5249  0.4850
 1738TIP3    H126849   6.468   6.603   8.046 -0.9753  0.6773 -0.0571
 1738TIP3    H226850   6.364   6.694   8.107 -0.0673  0.6678  1.5648
 1739TIP3   OH226851   1.830   0.891   0.769 -0.6793  0.5770 -0.1549
 1739TIP3    H126852   1.743   0.877   0.731 -0.4908 -0.5778 -0.1996
 1739TIP3    H226853   1.844   0.986   0.762 -1.4071  0.6248 -1.2910
 1740TIP3   OH226854   3.817   0.342   0.507  0.4976 -0.3381  0.4215
 1740TIP3    H126855   3.783   0.258   0.476  0.1307  0.2552 -0.8231
 1740TIP3    H226856   3.899   0.320   0.551  1.9350 -1.0598 -2.4198
 1741TIP3   OH226857   1.632   5.943   1.166 -0.3220 -0.0101 -0.3595
 1741TIP3    H126858   1.693   5.873   1.142  0.3498  0.4411 -0.0179
 1741TIP3    H226859   1.633   5.942   1.262  0.1726  0.8646 -0.3479
 1742TIP3   OH226860   5.483   5.524   1.228 -0.1055 -0.3852 -0.1990
 1742TIP3    H126861   5.489   5.430   1.212 -0.7608 -0.7025  1.2186
 1742TIP3    H226862   5.555   5.544   1.288 -0.5437 -0.1785  0.2698
 1743TIP3   OH226863   3.025   2.862   1.224 -0.4401 -0.9941  0.2768
 1743TIP3    H126864   3.019   2.788   1.284  1.3476 -0.7330  0.8291
 1743TIP3    H226865   3.113   2.897   1.237 -0.6714  0.2376 -1.1493
 1744TIP3   OH226866   6.304   0.890   7.269 -0.3656  0.5512  0.3335
 1744TIP3    H126867   6.286   0.905   7.362  1.0152  2.1482  0.3840
 1744TIP3    H226868   6.322   0.977   7.233  1.4214 -0.2698 -0.9068
 1745TIP3   OH226869   5.958   0.837   0.879 -0.2882  0.3234 -0.6230
 1745TIP3    H126870   5.895   0.776   0.840 -1.1855  0.2567  0.8498
 1745TIP3    H226871   6.012   0.782   0.936 -1.5253  0.9439  1.2235
 1746TIP3   OH226872   5.149   4.133   6.836 -0.0299 -0.3764 -0.5347
 1746TIP3    H126873   5.202   4.063   6.873 -2.1146 -1.0647  1.3761
 1746TIP3    H226874   5.209   4.208   6.832  1.5616 -1.5676 -0.2318
 1747TIP3   OH226875   0.255   5.768   7.094  0.7680 -0.5383  0.4651
 1747TIP3    H126876   0.173   5.808   7.064 -0.7382 -3.5910  0.1357
 1747TIP3    H226877   0.320   5.793   7.028  0.1006  1.7202  0.5866
 1748TIP3   OH226878   1.944   4.702   7.241  0.2142  0.1970  0.4084
 1748TIP3    H126879   1.977   4.620   7.279  3.6252  1.5712  0.7788
 1748TIP3    H226880   1.938   4.685   7.147  0.0111 -0.7036  0.5743
 1749TIP3   OH226881   1.810   3.665   0.244  0.2986  0.4306  0.2562
 1749TIP3    H126882   1.724   3.667   0.202  0.3015 -0.2236  0.2090
 1749TIP3    H226883   1.819   3.575   0.276  0.3976  0.8537  1.4570
 1750TIP3   OH226884   0.776   1.697   1.520  0.0819 -0.2303 -0.1802
 1750TIP3    H126885   0.685   1.676   1.498 -0.2247  0.4784  0.3306
 1750TIP3    H226886   0.820   1.613   1.524 -0.3126 -0.5187 -1.4374
 1751TIP3   OH226887   1.337   2.217   0.033 -0.1133 -0.5205  0.3601
 1751TIP3    H126888   1.402   2.275  -0.009 -0.2036 -0.2794  0.5503
 1751TIP3    H226889   1.339   2.242   0.125 -0.5998 -0.3942  0.3397
 1752TIP3   OH226890   3.146   0.125   2.012 -0.5266  0.0257 -0.1378
 1752TIP3    H126891   3.119   0.055   1.953 -0.6746  1.3361 -1.7020
 1752TIP3    H226892   3.228   0.094   2.051 -1.2431 -1.5255  0.1963
 1753TIP3   OH226893   2.387   2.440   8.366 -0.0271  0.6250  0.1361
 1753TIP3    H126894   2.447   2.442   8.292  0.7284  1.7839  0.7408
 1753TIP3    H226895   2.336   2.359   8.354  1.7781 -0.5118 -0.3009
 1754TIP3   OH226896   4.115   5.046   1.295  0.0911 -0.5247  0.3840
 1754TIP3    H126897   4.141   5.080   1.380  3.3861 -1.4336 -0.1300
 1754TIP3    H226898   4.123   5.121   1.236 -1.4971 -0.0801  0.6647
 1755TIP3   OH226899   0.631   4.044   3.579  0.2788 -0.1278  0.3605
 1755TIP3    H126900   0.613   4.128   3.537 -2.0048 -0.9776 -0.5694
 1755TIP3    H226901   0.610   3.979   3.511 -0.5061 -1.4801  1.8355
 1756TIP3   OH226902   4.007   6.644   8.368  0.0113 -0.7411  0.4757
 1756TIP3    H126903   3.974   6.661   8.457  0.5732  0.6771  0.4277
 1756TIP3    H226904   4.076   6.708   8.355 -0.8523 -0.1220 -1.4437
 1757TIP3   OH226905   2.152   6.457   7.824  0.3210 -0.2473 -0.1739
 1757TIP3    H126906   2.152   6.382   7.764  0.7775 -0.2418 -0.1852
 1757TIP3    H226907   2.193   6.528   7.774 -2.0267  0.6781 -0.9622
 1758TIP3   OH226908   6.278   0.255   0.349  0.5959  0.7409  0.5715
 1758TIP3    H126909   6.288   0.178   0.293  0.1528  0.2823  1.1156
 1758TIP3    H226910   6.207   0.306   0.308 -0.3232 -0.0193  1.1640
 1759TIP3   OH226911   2.990   0.243   0.810  0.0263  0.3435 -0.1232
 1759TIP3    H126912   2.932   0.269   0.882 -0.8790 -0.2523 -0.6240
 1759TIP3    H226913   2.931   0.208   0.743  0.7880  1.4630 -1.4206
 1760TIP3   OH226914   2.717   0.899   7.882  0.1503  0.1216 -0.1099
 1760TIP3    H126915   2.682   0.979   7.844  0.2844  0.8631  1.2699
 1760TIP3    H226916   2.716   0.835   7.810  0.8861  1.5868 -1.4824
 1761TIP3   OH226917   0.563   3.495   2.431 -0.3137  0.6201  0.3519
 1761TIP3    H126918   0.506   3.418   2.427 -0.6243  0.8872 -1.4701
 1761TIP3    H226919   0.630   3.472   2.495  0.6585 -1.9688 -1.4196
 1762TIP3   OH226920   4.894   3.152   0.551  0.0816 -0.5638 -0.4030
 1762TIP3    H126921   4.868   3.060   0.544 -1.1732 -0.5117  2.3296
 1762TIP3    H226922   4.826   3.199   0.503 -0.4590 -0.9494 -0.0279
 1763TIP3   OH226923   1.312   6.891   0.371  0.1726  0.1474  0.4616
 1763TIP3    H126924   1.240   6.914   0.430 -0.0879 -1.8222  1.0096
 1763TIP3    H226925   1.269   6.860   0.292  0.4693  0.8335  0.0325
 1764TIP3   OH226926   4.530   0.151   0.612  0.7519 -0.6354  0.3550
 1764TIP3    H126927   4.590   0.158   0.687 -0.1632  1.6701  0.9592
 1764TIP3    H226928   4.443   0.165   0.650  0.3044  1.1031 -1.1839
 1765TIP3   OH226929   6.792   1.170   0.725  0.0536  0.4929 -0.0159
 1765TIP3    H126930   6.711   1.140   0.685 -0.0490 -0.3851  0.8152
 1765TIP3    H226931   6.765   1.214   0.805  0.4498 -1.4121  1.2312
 1766TIP3   OH226932   1.711   6.671   3.045 -0.2097  1.0687 -0.3105
 1766TIP3    H126933   1.739   6.631   3.127 -1.7103  1.1525  0.2737
 1766TIP3    H226934   1.621   6.639   3.033  0.2288  0.4382 -2.3247
 1767TIP3   OH226935   2.381   6.955   2.745 -0.0774 -0.0138 -0.2938
 1767TIP3    H126936   2.299   6.962   2.794  0.0132  1.4128 -0.2938
 1767TIP3    H226937   2.398   7.044   2.713  1.8242 -0.1073  0.3045
 1768TIP3   OH226938   1.889   5.707   7.719  0.0856 -0.4312 -0.1484
 1768TIP3    H126939   1.857   5.665   7.640  1.0155  0.5997 -1.1053
 1768TIP3    H226940   1.976   5.740   7.695  1.0041 -1.3361  1.7236
 1769TIP3   OH226941   5.940   2.888   2.941 -0.1528 -0.1668  0.3381
 1769TIP3    H126942   5.947   2.809   2.887  0.0702 -0.0039  0.1259
 1769TIP3    H226943   5.985   2.865   3.022  0.9861  0.1434 -0.1888
 1770TIP3   OH226944   3.355   4.136   0.168 -0.2572 -0.1207  0.1702
 1770TIP3    H126945   3.392   4.065   0.116 -0.3263 -0.5086  0.6381
 1770TIP3    H226946   3.430   4.177   0.210 -0.2066  0.1574 -0.1847
 1771TIP3   OH226947   3.512   3.101   7.424  0.1008  0.2910 -0.6690
 1771TIP3    H126948   3.571   3.030   7.399 -0.3670 -0.0793 -0.7447
 1771TIP3    H226949   3.567   3.180   7.424  0.7516 -0.1464 -0.0673
 1772TIP3   OH226950   3.652   1.634   7.700 -0.0845  0.1181  0.9404
 1772TIP3    H126951   3.636   1.577   7.775  0.5246  0.6805  1.5202
 1772TIP3    H226952   3.740   1.610   7.670  0.2897  0.8944  1.3543
 1773TIP3   OH226953   1.746   2.012   8.148  0.1200 -0.3739  0.1981
 1773TIP3    H126954   1.819   1.960   8.182 -0.3799 -1.4443 -0.3280
 1773TIP3    H226955   1.668   1.972   8.187 -0.1606  1.3419  1.5201
 1774TIP3   OH226956   5.595   4.937   2.117  0.0639  0.4845 -0.1153
 1774TIP3    H126957   5.615   4.902   2.030 -0.6078 -0.1930 -0.0060
 1774TIP3    H226958   5.663   5.004   2.132 -0.1543  1.0304 -1.3970
 1775TIP3   OH226959   0.998   4.117   3.952 -0.2098 -0.1218 -0.0612
 1775TIP3    H126960   1.084   4.157   3.967 -0.8146  0.6294  1.6974
 1775TIP3    H226961   1.016   4.024   3.945  0.9902  0.1934 -2.0719
 1776TIP3   OH226962   3.386   0.661   3.070 -0.5000  0.0856  0.0697
 1776TIP3    H126963   3.463   0.712   3.094 -0.7040  0.4203  0.0187
 1776TIP3    H226964   3.312   0.713   3.101 -0.6990 -0.3432  0.3232
 1777TIP3   OH226965   3.239   5.577   7.487  0.0057  0.2950 -0.0517
 1777TIP3    H126966   3.153   5.563   7.527  0.0686 -1.7172 -0.5145
 1777TIP3    H226967   3.248   5.505   7.424  1.6544  0.9958 -0.6759
 1778TIP3   OH226968   1.480   6.241   3.147  0.7245  0.0440  0.2997
 1778TIP3    H126969   1.405   6.270   3.095  1.2554 -0.2685 -0.6710
 1778TIP3    H226970   1.493   6.311   3.211  0.8686  1.0910 -0.8407
 1779TIP3   OH226971   6.316   5.749   1.199  0.2117 -0.4074 -0.1620
 1779TIP3    H126972   6.263   5.673   1.224  1.1372  0.2087  4.5312
 1779TIP3    H226973   6.254   5.821   1.193 -0.1686 -0.7596 -0.4755
 1780TIP3   OH226974   5.874   1.856   3.185 -0.5780  0.2840  0.6331
 1780TIP3    H126975   5.894   1.928   3.126  1.6817  0.6339  1.7070
 1780TIP3    H226976   5.779   1.846   3.181 -0.8561  2.7456 -0.1859
 1781TIP3   OH226977   6.960   6.088   0.679  0.2125  0.2995  0.0233
 1781TIP3    H126978   7.042   6.069   0.723 -1.4322  0.7908  3.6539
 1781TIP3    H226979   6.893   6.053   0.737 -2.2316 -0.8863 -3.1776
 1782TIP3   OH226980   2.862   4.721   0.099  0.4961 -0.2795 -0.2243
 1782TIP3    H126981   2.957   4.715   0.112  0.1022 -2.2280  2.8857
 1782TIP3    H226982   2.840   4.808   0.132  1.0462 -0.4418  0.6124
 1783TIP3   OH226983   2.771   3.977   1.036  0.7289  0.7572 -0.3390
 1783TIP3    H126984   2.719   3.964   0.957 -1.4905 -0.6826  1.2233
 1783TIP3    H226985   2.709   4.010   1.101  2.1760  0.6998  1.1665
 1784TIP3   OH226986   0.083   5.824   0.359  0.3576 -0.2377 -0.4595
 1784TIP3    H126987   0.130   5.884   0.417  1.0632  0.8870 -2.1164
 1784TIP3    H226988   0.003   5.871   0.336 -0.2018 -0.9269  0.0690
 1785TIP3   OH226989   6.915   6.864   8.387 -0.7651  0.0638 -0.8017
 1785TIP3    H126990   6.863   6.784   8.402  0.6908 -0.4738  2.0975
 1785TIP3    H226991   6.850   6.931   8.367 -2.2749 -1.2907 -0.6643
 1786TIP3   OH226992   0.567   4.996   0.610  0.7064 -0.9976 -0.2996
 1786TIP3    H126993   0.578   4.940   0.687  0.1800 -1.8884 -0.8632
 1786TIP3    H226994   0.488   5.047   0.628  0.8287 -0.8894 -0.0640
 1787TIP3   OH226995   5.281   6.489   1.826 -0.1521 -0.3658 -0.4499
 1787TIP3    H126996   5.269   6.584   1.817 -1.3966 -0.4670  0.0180
 1787TIP3    H226997   5.376   6.478   1.836  0.0575  0.7775 -1.0654
 1788TIP3   OH226998   5.728   4.052   2.924  0.3522  0.4804 -0.3851
 1788TIP3    H126999   5.779   4.038   3.004  1.4721 -1.4682 -1.3860
 1788TIP3    H227000   5.656   3.989   2.931 -0.6398  1.6047 -0.0832
 1789TIP3   OH227001   2.573   2.660   2.084 -0.1237  0.2131 -0.0982
 1789TIP3    H127002   2.577   2.589   2.148 -0.4080  1.1460  0.9970
 1789TIP3    H227003   2.635   2.725   2.116 -0.6193  0.9046 -0.5025
 1790TIP3   OH227004   5.054   3.941   3.038 -0.3405  0.0311 -1.0995
 1790TIP3    H127005   5.021   3.853   3.016 -0.6171 -0.3531  0.7210
 1790TIP3    H227006   5.147   3.938   3.017 -0.0311 -1.2073  0.2839
 1791TIP3   OH227007   0.206   4.913   1.531 -0.1527 -0.8545  0.2132
 1791TIP3    H127008   0.135   4.944   1.589  0.2109  1.0379 -0.2687
 1791TIP3    H227009   0.164   4.901   1.446  0.0010 -0.0256  0.0027
 1792TIP3   OH227010   1.994   2.996   7.314  0.4940  0.9822 -0.2061
 1792TIP3    H127011   1.985   2.972   7.406  1.3094 -1.4065 -0.6904
 1792TIP3    H227012   2.088   2.996   7.298  0.3526  1.0801 -1.1198
 1793TIP3   OH227013   1.372   3.063   2.477 -0.7493 -0.3299 -0.4652
 1793TIP3    H127014   1.342   2.994   2.418 -1.2616  0.3280 -1.0016
 1793TIP3    H227015   1.434   3.114   2.425 -0.6180 -0.1998 -0.1820
 1794TIP3   OH227016   4.654   6.581   1.245  0.2189 -0.5464  0.3031
 1794TIP3    H127017   4.675   6.489   1.262 -0.3502 -0.3793  2.1056
 1794TIP3    H227018   4.739   6.624   1.239  0.5100 -0.7386  2.3333
 1795TIP3   OH227019   3.337   3.191   1.724 -0.4475 -0.0210 -0.3661
 1795TIP3    H127020   3.337   3.216   1.632  2.3731  0.9648 -0.1879
 1795TIP3    H227021   3.377   3.104   1.725 -4.0695 -1.9227 -0.3092
 1796TIP3   OH227022   4.333   5.805   8.234 -0.4713  0.5864 -0.1496
 1796TIP3    H127023   4.326   5.881   8.292  2.2867  0.1111  0.9372
 1796TIP3    H227024   4.425   5.802   8.210 -0.6663 -1.9909 -0.7916
 1797TIP3   OH227025   2.141   5.373   2.424  0.5069 -0.0865 -0.1693
 1797TIP3    H127026   2.178   5.307   2.482 -0.2256 -0.8598 -0.5497
 1797TIP3    H227027   2.093   5.323   2.357 -2.3100  0.8025  1.0048
 1798TIP3   OH227028   1.659   4.436   3.078  0.5662 -0.1428 -0.3327
 1798TIP3    H127029   1.595   4.491   3.032 -1.0819 -1.2901  0.4648
 1798TIP3    H227030   1.676   4.482   3.160  1.7699  0.7753 -1.0551
 1799TIP3   OH227031   4.122   2.071   1.175  0.4124 -0.8546 -0.4108
 1799TIP3    H127032   4.086   1.984   1.195  2.6366 -1.8796 -0.5982
 1799TIP3    H227033   4.089   2.091   1.088 -2.3266 -0.2135  0.6482
 1800TIP3   OH227034   6.472   5.141   7.820  0.1417 -0.1240  0.2964
 1800TIP3    H127035   6.492   5.050   7.839  1.3972 -0.1043 -0.7735
 1800TIP3    H227036   6.538   5.191   7.870  0.3791  0.1207 -0.2531
 1801TIP3   OH227037   6.470   4.458   7.579 -0.0667 -0.2202  0.0661
 1801TIP3    H127038   6.506   4.403   7.510 -1.9870 -0.7138 -0.5810
 1801TIP3    H227039   6.412   4.401   7.629 -1.6402  1.0295 -0.2521
 1802TIP3   OH227040   2.331   4.845   3.293 -0.1796 -0.3343  0.7886
 1802TIP3    H127041   2.329   4.863   3.387  0.1609 -1.6320  1.0693
 1802TIP3    H227042   2.379   4.919   3.255  0.9486 -0.5056  1.8248
 1803TIP3   OH227043   3.521   2.655   2.239  0.2123  0.2946 -0.4404
 1803TIP3    H127044   3.602   2.620   2.200 -0.6684 -1.7591 -0.5544
 1803TIP3    H227045   3.540   2.748   2.254  1.9433  0.2905 -2.1504
 1804TIP3   OH227046   3.163   2.351   8.010  0.0259  0.3897 -0.4091
 1804TIP3    H127047   3.175   2.334   8.103  1.4996 -1.7970 -0.9467
 1804TIP3    H227048   3.085   2.301   7.986 -0.8141  1.5707 -0.2361
 1805TIP3   OH227049   3.129   5.311   2.346 -0.4375  0.1138  0.0818
 1805TIP3    H127050   3.141   5.243   2.280 -1.6962  0.7529 -0.8680
 1805TIP3    H227051   3.127   5.393   2.296 -0.1304  0.7416  1.0680
 1806TIP3   OH227052   2.745   4.410   0.536 -0.5256 -0.0425 -0.5413
 1806TIP3    H127053   2.671   4.384   0.481 -1.2711  1.0048 -0.0656
 1806TIP3    H227054   2.784   4.484   0.490  0.0439 -0.3887 -0.6260
 1807TIP3   OH227055   2.076   3.118   0.921  0.0978  0.4692 -0.6086
 1807TIP3    H127056   2.118   3.109   0.836  1.2867 -2.0937  0.1596
 1807TIP3    H227057   2.107   3.202   0.955  3.6595 -0.6442 -0.6762
 1808TIP3   OH227058   2.111   0.956   0.775  0.1380  0.1188  0.1516
 1808TIP3    H127059   2.047   0.885   0.767  0.1326  0.1301  0.0911
 1808TIP3    H227060   2.063   1.035   0.751  0.0026  0.2166  0.7436
 1809TIP3   OH227061   6.290   6.387   1.597 -0.1108 -0.5253 -0.2978
 1809TIP3    H127062   6.333   6.330   1.533  0.8858  0.9316 -1.0078
 1809TIP3    H227063   6.328   6.362   1.681  0.6994 -0.5959 -0.6670
 1810TIP3   OH227064   0.710   1.659   7.588 -0.0069 -0.3639  0.5374
 1810TIP3    H127065   0.772   1.608   7.640  1.4886  0.4050 -0.4180
 1810TIP3    H227066   0.757   1.678   7.506 -0.3262  2.7808  0.9568
 1811TIP3   OH227067   1.591   2.433   7.782  0.3275  0.0411 -0.2575
 1811TIP3    H127068   1.505   2.413   7.820  0.5612  2.2279  1.6751
 1811TIP3    H227069   1.571   2.469   7.695 -0.7084  0.2118  0.0340
 1812TIP3   OH227070   0.097   0.599   2.554  0.4666  0.2458  0.2250
 1812TIP3    H127071   0.080   0.573   2.644 -0.6987  1.1848  0.3001
 1812TIP3    H227072   0.116   0.693   2.558  0.1435  0.3551 -0.5233
 1813TIP3   OH227073   6.895   3.955   7.707  0.3374  0.5161 -0.2556
 1813TIP3    H127074   6.927   4.043   7.686  1.2281  0.0342 -1.0151
 1813TIP3    H227075   6.906   3.906   7.625 -0.6931 -0.1531 -0.0089
 1814TIP3   OH227076   5.625   2.373   7.670  0.0591  0.6047  0.0242
 1814TIP3    H127077   5.658   2.457   7.703  0.4061  1.1089 -1.5265
 1814TIP3    H227078   5.704   2.328   7.639 -0.2493  0.1016 -0.0333
 1815TIP3   OH227079   0.840   3.221   2.550  0.5072  0.2341  0.5094
 1815TIP3    H127080   0.753   3.185   2.566 -0.1376  0.5464 -1.8533
 1815TIP3    H227081   0.897   3.144   2.551 -0.0091 -0.1509  0.8416
 1816TIP3   OH227082   6.753   2.426   7.669 -0.0201 -0.1884  0.4021
 1816TIP3    H127083   6.829   2.484   7.669 -1.3558  1.6639  0.0703
 1816TIP3    H227084   6.759   2.378   7.586  0.1036  0.9253 -0.2529
 1817TIP3   OH227085   6.069   3.700   2.603 -0.1334 -0.1932 -0.3551
 1817TIP3    H127086   6.061   3.774   2.662 -1.4324 -0.8824  0.3765
 1817TIP3    H227087   5.984   3.656   2.607  1.1543 -2.8546  0.7758
 1818TIP3   OH227088   1.783   2.475   7.585  0.0852  0.4984 -0.6562
 1818TIP3    H127089   1.839   2.552   7.570 -1.3467  1.7481  0.0496
 1818TIP3    H227090   1.721   2.504   7.653 -1.2991 -0.8584 -1.2727
 1819TIP3   OH227091   4.828   4.604   1.188  0.3429  0.7282  0.4203
 1819TIP3    H127092   4.898   4.662   1.219  0.4215 -0.3248  2.3413
 1819TIP3    H227093   4.776   4.659   1.129  1.5589  2.1392  0.6021
 1820TIP3   OH227094   2.497   0.586   3.241 -0.4054 -0.0815  0.3024
 1820TIP3    H127095   2.553   0.516   3.274 -0.5017  0.0417  0.7361
 1820TIP3    H227096   2.552   0.664   3.244  0.3932 -0.4800 -2.1428
 1821TIP3   OH227097   5.202   5.734   0.844  0.2011 -0.2937 -1.0227
 1821TIP3    H127098   5.202   5.790   0.766  1.0796 -0.4873 -1.1732
 1821TIP3    H227099   5.269   5.772   0.901 -0.5812 -0.0217 -0.2520
 1822TIP3   OH227100   6.185   4.618   8.166  0.5576  0.0218 -0.3216
 1822TIP3    H127101   6.129   4.610   8.089 -0.8051  1.5173  0.4601
 1822TIP3    H227102   6.235   4.698   8.152 -1.6643  1.8860  1.4373
 1823TIP3   OH227103   2.350   2.261   7.512 -0.0161  0.1170 -0.0575
 1823TIP3    H127104   2.384   2.186   7.463 -0.8362 -0.1351 -0.2642
 1823TIP3    H227105   2.257   2.265   7.488 -0.5309 -0.1871  1.6699
 1824TIP3   OH227106   5.877   3.439   1.544 -0.4019  0.0736 -0.3416
 1824TIP3    H127107   5.917   3.352   1.546 -0.9634 -0.1756  0.4790
 1824TIP3    H227108   5.845   3.449   1.454  0.5257 -0.1605 -0.7066
 1825TIP3   OH227109   3.319   0.577   7.028 -0.6838  0.2567  1.1731
 1825TIP3    H127110   3.296   0.563   6.936  2.6725  0.6434  0.1572
 1825TIP3    H227111   3.306   0.491   7.069  0.6775 -0.7746 -0.4236
 1826TIP3   OH227112   5.039   2.832   1.884 -0.1384 -0.3198 -0.2552
 1826TIP3    H127113   5.087   2.908   1.918  0.8087 -0.9485 -0.1483
 1826TIP3    H227114   5.100   2.791   1.821 -0.6231 -0.9977 -0.2946
 1827TIP3   OH227115   2.575   1.219   7.457 -0.2462 -0.0156 -0.4976
 1827TIP3    H127116   2.571   1.264   7.372  1.2054 -0.3795 -0.7834
 1827TIP3    H227117   2.665   1.231   7.486 -0.2684 -1.3726  0.1796
 1828TIP3   OH227118   4.183   1.879   1.608 -0.0933  0.1727  0.4632
 1828TIP3    H127119   4.166   1.973   1.601 -0.8826 -0.0673 -1.5676
 1828TIP3    H227120   4.115   1.846   1.667 -1.8510  0.4423 -1.3270
 1829TIP3   OH227121   3.808   5.939   0.174 -0.2509  0.0461  0.1933
 1829TIP3    H127122   3.713   5.952   0.177 -0.3935 -0.8781  2.7041
 1829TIP3    H227123   3.841   5.989   0.248  1.0976 -0.4733 -0.0279
 1830TIP3   OH227124   3.478   0.502   2.046  0.2484 -0.0064  0.4524
 1830TIP3    H127125   3.553   0.443   2.040  1.7620  1.9991 -2.1316
 1830TIP3    H227126   3.483   0.538   2.135  1.1116 -1.3982  0.9965
 1831TIP3   OH227127   1.085   2.046   8.005  0.9870  0.1930 -0.3202
 1831TIP3    H127128   1.014   2.079   7.949  0.5593 -1.6659 -0.9870
 1831TIP3    H227129   1.161   2.099   7.982 -0.0499  1.9052  0.0420
 1832TIP3   OH227130   1.674   3.137   1.998 -0.6814 -0.1066 -0.1680
 1832TIP3    H127131   1.673   3.170   1.909 -1.5093 -1.4692 -0.6834
 1832TIP3    H227132   1.660   3.043   1.990  0.1634 -0.4080  1.3445
 1833TIP3   OH227133   4.915   5.028   2.086 -0.3707 -0.0712  0.5026
 1833TIP3    H127134   4.823   5.015   2.109 -0.2855 -1.9058 -0.0836
 1833TIP3    H227135   4.933   4.962   2.019  1.6388 -0.3648  1.2808
 1834TIP3   OH227136   3.482   0.019   1.899 -0.1192  0.3669 -0.3107
 1834TIP3    H127137   3.450  -0.043   1.833 -0.3539  0.2078 -0.0513
 1834TIP3    H227138   3.434   0.100   1.881  0.2848  0.5174 -0.7332
 1835TIP3   OH227139   5.246   3.930   7.557  0.2310  0.1652  0.3795
 1835TIP3    H127140   5.160   3.902   7.589 -0.3292  1.0797 -0.3049
 1835TIP3    H227141   5.262   4.014   7.600 -0.3272  1.1898 -1.3245
 1836TIP3   OH227142   2.953   4.702   2.478  0.5454  0.8507 -0.1585
 1836TIP3    H127143   2.976   4.635   2.414 -0.5700  0.4730 -0.1717
 1836TIP3    H227144   3.036   4.746   2.497  1.2510 -0.3534 -0.3534
 1837TIP3   OH227145   5.199   3.739   0.958  0.1289  0.1640  0.7166
 1837TIP3    H127146   5.284   3.781   0.955 -0.7087  1.9294 -0.3631
 1837TIP3    H227147   5.190   3.697   0.872  1.2764 -3.1293  2.0238
 1838TIP3   OH227148   1.143   6.849   1.847  0.5424  0.7692 -0.0770
 1838TIP3    H127149   1.049   6.838   1.858  0.6901 -2.2487 -0.9572
 1838TIP3    H227150   1.152   6.903   1.769 -0.4965 -0.3479 -1.0029
 1839TIP3   OH227151   4.085   6.569   7.212 -0.1138  0.2578  0.3788
 1839TIP3    H127152   4.150   6.632   7.182 -1.3704  1.3287 -0.2056
 1839TIP3    H227153   4.115   6.485   7.177  1.5273  0.5218  1.0639
 1840TIP3   OH227154   1.419   3.323   1.539 -0.1647  0.3597  0.4898
 1840TIP3    H127155   1.408   3.416   1.518  0.0832  1.0387  3.0534
 1840TIP3    H227156   1.429   3.321   1.634  0.5439 -2.2510  0.4265
 1841TIP3   OH227157   0.832   5.537   3.025  0.0525  0.3569 -0.4849
 1841TIP3    H127158   0.813   5.471   3.092 -0.0372 -0.1862 -1.0294
 1841TIP3    H227159   0.748   5.551   2.981 -0.1407  1.5509  0.2431
 1842TIP3   OH227160   2.044   4.563   7.005  0.8642 -0.2803  0.2156
 1842TIP3    H127161   2.081   4.557   6.917  0.2075 -0.0752 -0.0825
 1842TIP3    H227162   2.072   4.482   7.048 -0.5443 -1.3923 -0.8645
 1843TIP3   OH227163   1.734   1.704   7.894  0.1321  0.4703 -0.7664
 1843TIP3    H127164   1.685   1.687   7.974  0.4456  0.4595 -0.5758
 1843TIP3    H227165   1.673   1.681   7.823 -0.0184  0.1424 -0.5307
 1844TIP3   OH227166   6.069   6.078   1.372  0.2110 -0.2784  0.2378
 1844TIP3    H127167   6.132   6.015   1.408 -1.1708 -2.1900 -0.5174
 1844TIP3    H227168   6.065   6.148   1.437  1.8902 -0.9100  1.0702
 1845TIP3   OH227169   2.240   2.713   2.594  0.2998 -0.3911 -0.0801
 1845TIP3    H127170   2.256   2.710   2.688  0.1436 -0.0577 -0.0423
 1845TIP3    H227171   2.167   2.653   2.579  1.2878 -1.6101 -0.1961
 1846TIP3   OH227172   6.622   6.505   8.297 -0.7470  0.1999 -0.2902
 1846TIP3    H127173   6.623   6.557   8.377  0.6620 -0.7153  0.3272
 1846TIP3    H227174   6.546   6.536   8.249 -2.4027 -0.1223  1.9769
 1847TIP3   OH227175   6.289   4.333   6.857  0.4919 -0.2422 -0.0277
 1847TIP3    H127176   6.210   4.373   6.820  0.4422 -0.7597 -0.4893
 1847TIP3    H227177   6.256   4.277   6.927  0.5318  0.2574  0.3919
 1848TIP3   OH227178   1.378   1.190   1.649  0.2611 -0.1140  0.4404
 1848TIP3    H127179   1.333   1.215   1.568  1.2420 -0.9962 -0.4031
 1848TIP3    H227180   1.351   1.100   1.665  0.5386 -0.1427  0.7638
 1849TIP3   OH227181   4.142   1.788   7.876 -0.0474  0.4637  0.6113
 1849TIP3    H127182   4.213   1.735   7.841 -0.3563  0.1979  0.3824
 1849TIP3    H227183   4.123   1.851   7.807  1.5119  2.0636  1.5476
 1850TIP3   OH227184   5.326   6.670   0.975  0.0740  0.1301 -0.5536
 1850TIP3    H127185   5.409   6.634   0.943  0.4439  0.2334  0.2671
 1850TIP3    H227186   5.271   6.594   0.992  0.7808 -0.0552  0.9811
 1851TIP3   OH227187   2.494   6.240   3.399 -0.6518 -0.0750  0.0895
 1851TIP3    H127188   2.507   6.332   3.422 -0.1733 -0.6252  2.2181
 1851TIP3    H227189   2.425   6.210   3.458 -1.6015 -0.8239 -1.3537
 1852TIP3   OH227190   4.118   4.332   7.874 -0.0021 -0.4521  0.2165
 1852TIP3    H127191   4.197   4.283   7.897 -1.1283 -1.7094  1.6247
 1852TIP3    H227192   4.146   4.423   7.868  1.9276 -1.0905 -1.3060
 1853TIP3   OH227193   1.369   6.392   1.585  0.5663 -0.0732  0.5872
 1853TIP3    H127194   1.337   6.400   1.495 -0.2069 -0.0643  0.8572
 1853TIP3    H227195   1.323   6.460   1.634 -0.5247 -1.3288  1.3856
 1854TIP3   OH227196   4.234   2.398   0.620  0.2397  0.2021 -0.1121
 1854TIP3    H127197   4.182   2.327   0.582  0.0161  0.7782 -0.9339
 1854TIP3    H227198   4.290   2.356   0.685 -0.6294 -0.5663  0.1646
 1855TIP3   OH227199   2.951   3.444   1.708 -0.6998  0.4157 -0.2620
 1855TIP3    H127200   2.974   3.528   1.749 -0.0266 -0.8994  2.2356
 1855TIP3    H227201   3.019   3.384   1.737 -1.2073 -1.0615 -1.9571
 1856TIP3   OH227202   6.626   2.262   1.382  0.1999  0.1292  0.0489
 1856TIP3    H127203   6.580   2.319   1.320 -0.5499 -0.1615  0.3306
 1856TIP3    H227204   6.706   2.237   1.336 -0.4384 -0.2422 -0.8863
 1857TIP3   OH227205   6.353   0.883   6.859 -0.4685  0.3142 -0.2945
 1857TIP3    H127206   6.403   0.884   6.941 -1.0684  0.0976  0.0851
 1857TIP3    H227207   6.338   0.790   6.842 -0.0857  0.3474 -0.8161
 1858TIP3   OH227208   5.849   1.847   7.093 -0.2573 -0.0802  0.4335
 1858TIP3    H127209   5.819   1.932   7.125 -0.2236  0.1317 -0.0818
 1858TIP3    H227210   5.944   1.858   7.083 -0.2981 -0.0733  0.0528
 1859TIP3   OH227211   3.136   4.510   2.634  0.2631 -0.6806 -0.1566
 1859TIP3    H127212   3.117   4.452   2.560 -0.0121  0.6647 -1.1835
 1859TIP3    H227213   3.231   4.522   2.631  0.4244 -1.6471  0.5280
 1860TIP3   OH227214   1.105   1.365   7.988  0.3605  0.6025 -0.1514
 1860TIP3    H127215   1.184   1.419   7.979  1.2703 -0.4777  1.0153
 1860TIP3    H227216   1.099   1.317   7.905  1.2227  0.3389 -0.0726
 1861TIP3   OH227217   6.291   2.390   0.442  0.2536  0.1732  0.0185
 1861TIP3    H127218   6.302   2.328   0.515  1.0789  1.4643  1.0424
 1861TIP3    H227219   6.370   2.379   0.389 -0.5734 -1.1222 -1.0136
 1862TIP3   OH227220   5.016   0.138   7.809 -0.4578  0.0178 -0.0982
 1862TIP3    H127221   4.960   0.127   7.886 -1.4001  1.7719 -0.4711
 1862TIP3    H227222   5.096   0.179   7.844  0.6742 -2.4262  0.4228
 1863TIP3   OH227223   3.487   1.768   8.294 -0.2290 -0.6746  0.0252
 1863TIP3    H127224   3.491   1.673   8.293  1.1688 -0.6312  0.1964
 1863TIP3    H227225   3.572   1.796   8.328 -1.2394  0.6064  1.6389
 1864TIP3   OH227226   2.771   6.202   2.148 -0.1565 -0.5598  0.1110
 1864TIP3    H127227   2.751   6.110   2.166 -2.8331 -0.2885 -0.9680
 1864TIP3    H227228   2.796   6.203   2.055 -0.2431 -0.2162  0.0897
 1865TIP3   OH227229   5.218   6.800   7.091  0.1031 -0.2242 -0.4892
 1865TIP3    H127230   5.220   6.706   7.073 -0.2350 -0.3344  0.0473
 1865TIP3    H227231   5.144   6.832   7.040 -0.0521 -0.3198 -0.3227
 1866TIP3   OH227232   4.135   3.639   2.422  0.1562  0.8098  0.0554
 1866TIP3    H127233   4.068   3.646   2.354  1.3144 -0.6814 -1.3325
 1866TIP3    H227234   4.155   3.730   2.446 -1.3511  1.3107 -0.5036
 1867TIP3   OH227235   5.769   6.439   8.330  0.4757 -0.1202  0.2881
 1867TIP3    H127236   5.841   6.488   8.368  0.7142  0.3948 -0.7720
 1867TIP3    H227237   5.797   6.421   8.240 -1.3924  1.6497 -0.7438
 1868TIP3   OH227238   1.019   5.901   1.293 -0.1536  0.1473 -0.1320
 1868TIP3    H127239   0.991   5.978   1.243  1.1393  0.1966 -0.8335
 1868TIP3    H227240   1.008   5.828   1.232  1.0827  0.1550 -0.3869
 1869TIP3   OH227241   0.185   4.996   1.195 -0.2937  0.0076 -0.9705
 1869TIP3    H127242   0.102   4.955   1.219  0.6158 -0.0683  2.5489
 1869TIP3    H227243   0.236   4.925   1.157 -1.9567  0.2211 -3.9350
 1870TIP3   OH227244   2.908   6.547   2.016  0.8124  0.1586  0.0518
 1870TIP3    H127245   2.928   6.623   2.072  0.1585 -1.5197  2.7812
 1870TIP3    H227246   2.857   6.584   1.944 -1.4908  2.1679  2.4515
 1871TIP3   OH227247   4.204   6.766   2.241  0.2971  0.1546  0.2840
 1871TIP3    H127248   4.234   6.850   2.276 -0.8539  0.7581 -0.1314
 1871TIP3    H227249   4.120   6.751   2.284 -0.8994  0.6411 -1.7352
 1872TIP3   OH227250   4.730   5.944   8.237  0.1001  0.3424  0.0865
 1872TIP3    H127251   4.675   5.876   8.200 -0.4184  0.6794  0.2317
 1872TIP3    H227252   4.818   5.905   8.240 -0.2167 -0.3641  0.3011
 1873TIP3   OH227253   0.306   3.793   3.038  0.2254  0.0666 -0.1945
 1873TIP3    H127254   0.351   3.729   3.094  0.6222  2.4323  2.4186
 1873TIP3    H227255   0.366   3.867   3.033 -1.2000  1.2149 -1.0760
 1874TIP3   OH227256   5.820   4.692   0.378  0.0963  0.4190 -0.3048
 1874TIP3    H127257   5.836   4.688   0.284 -0.8277  0.4645 -0.4689
 1874TIP3    H227258   5.768   4.614   0.398  1.0829 -0.0997  0.3432
 1875TIP3   OH227259   6.364   2.192   7.796 -0.4134  0.3408 -0.5112
 1875TIP3    H127260   6.320   2.254   7.854  1.0701 -0.7254  1.8823
 1875TIP3    H227261   6.364   2.110   7.844 -0.3739 -1.0047 -2.6710
 1876TIP3   OH227262   3.400   6.793   0.755 -0.2557  0.2078 -0.1036
 1876TIP3    H127263   3.359   6.745   0.683  0.3659 -0.6783  0.1144
 1876TIP3    H227264   3.466   6.848   0.714  0.2582 -0.4680 -0.2143
 1877TIP3   OH227265   2.730   7.007   3.045 -0.4723  0.0742  0.3764
 1877TIP3    H127266   2.699   6.951   2.974  0.2960  2.6594 -2.2008
 1877TIP3    H227267   2.785   6.950   3.098  0.9277 -1.4850 -2.5209
 1878TIP3   OH227268   2.680   2.270   2.364 -0.0143  0.0686  0.0970
 1878TIP3    H127269   2.647   2.184   2.391  0.0491 -0.1047 -0.3809
 1878TIP3    H227270   2.642   2.330   2.428  1.0958 -0.4778  1.3459
 1879TIP3   OH227271   5.423   0.924   8.261 -0.1195  0.0767 -0.0760
 1879TIP3    H127272   5.368   0.995   8.293 -1.4207  0.4059 -2.7511
 1879TIP3    H227273   5.507   0.966   8.243 -0.7829  0.9351 -1.3350
 1880TIP3   OH227274   4.158   5.467   3.288  0.3364  0.3250  0.3522
 1880TIP3    H127275   4.114   5.516   3.358  3.2050  0.7516  2.0167
 1880TIP3    H227276   4.151   5.375   3.315 -1.8830  0.0596 -0.8928
 1881TIP3   OH227277   3.936   4.527   7.844  0.0181  0.2958 -0.6905
 1881TIP3    H127278   3.945   4.519   7.939 -0.4568  0.2440 -0.6470
 1881TIP3    H227279   4.013   4.575   7.816  0.3903 -0.0880 -0.3319
 1882TIP3   OH227280   3.492   6.422   2.765 -0.4262  0.2930 -0.2271
 1882TIP3    H127281   3.428   6.397   2.832 -0.3022  0.7814  0.0776
 1882TIP3    H227282   3.529   6.338   2.735  0.1000  0.1007  0.8942
 1883TIP3   OH227283   4.266   5.569   0.586  0.5729  0.0773  0.0546
 1883TIP3    H127284   4.327   5.506   0.548 -1.0415 -1.4864 -0.0904
 1883TIP3    H227285   4.247   5.535   0.673 -0.7705  0.0105 -0.2406
 1884TIP3   OH227286   5.725   1.639   7.231  0.2316  0.0487  0.0762
 1884TIP3    H127287   5.683   1.574   7.175  0.3596 -0.3953  0.4867
 1884TIP3    H227288   5.769   1.698   7.170  0.5421 -0.5434 -0.2887
 1885TIP3   OH227289   2.673   0.752   1.634  0.6416 -0.0458 -0.2012
 1885TIP3    H127290   2.698   0.661   1.650 -1.3695 -0.5937  0.1309
 1885TIP3    H227291   2.593   0.764   1.685 -0.2301  1.3162 -1.7951
 1886TIP3   OH227292   1.239   3.899   2.877  0.4330  0.2109  0.3635
 1886TIP3    H127293   1.334   3.899   2.864  0.7231 -0.3796  2.2708
 1886TIP3    H227294   1.227   3.889   2.971 -1.5437 -0.8725  0.0492
 1887TIP3   OH227295   3.253   0.182   0.752  0.4438 -0.3151  0.0885
 1887TIP3    H127296   3.225   0.191   0.661 -0.9827  2.3288  0.7071
 1887TIP3    H227297   3.173   0.195   0.803  1.5163 -0.0161  1.7608
 1888TIP3   OH227298   2.683   2.414   0.195  0.1828  0.4677  0.3232
 1888TIP3    H127299   2.702   2.429   0.102 -0.2190  0.0388  0.1659
 1888TIP3    H227300   2.752   2.354   0.224  2.3003  3.1435  1.1702
 1889TIP3   OH227301   5.168   3.282   2.263  0.0378  0.0021 -0.0380
 1889TIP3    H127302   5.168   3.338   2.186 -1.3801 -0.1821 -0.2067
 1889TIP3    H227303   5.082   3.297   2.303  0.4291 -0.5276  1.0504
 1890TIP3   OH227304   6.624   2.902   8.159  0.5055  0.0074 -0.6752
 1890TIP3    H127305   6.626   2.969   8.228 -0.1348 -0.8221  0.1677
 1890TIP3    H227306   6.713   2.904   8.122  0.6200  1.0203 -0.3914
 1891TIP3   OH227307   5.787   3.586   7.897 -0.2421 -0.3599  0.3580
 1891TIP3    H127308   5.863   3.552   7.850 -0.0865  0.8043 -0.2500
 1891TIP3    H227309   5.735   3.631   7.831 -0.8771 -0.1406  0.9864
 1892TIP3   OH227310   2.751   4.671   1.801  0.1859  0.0811 -0.4610
 1892TIP3    H127311   2.745   4.729   1.725  0.3849  0.6074 -0.0834
 1892TIP3    H227312   2.809   4.718   1.862  0.3289 -0.5042 -0.1390
 1893TIP3   OH227313   4.027   6.241   1.005 -0.0624  0.2092 -0.3139
 1893TIP3    H127314   4.108   6.192   1.021 -0.0349  0.5364  0.6067
 1893TIP3    H227315   3.957   6.179   1.024 -0.0510 -0.3692 -2.0336
 1894TIP3   OH227316   4.864   6.843   7.109 -0.0624 -0.1375 -0.5379
 1894TIP3    H127317   4.921   6.840   7.032 -0.1139  0.8254 -0.6347
 1894TIP3    H227318   4.825   6.756   7.114 -0.9114  0.1166 -2.2528
 1895TIP3   OH227319   1.478   4.923   1.725 -0.3880 -0.1173  0.2666
 1895TIP3    H127320   1.411   4.855   1.731  0.3507 -0.8163  0.8448
 1895TIP3    H227321   1.451   4.977   1.651 -0.2815 -1.8521 -1.1169
 1896TIP3   OH227322   6.871   3.222   7.763  0.6479 -0.7734 -0.8414
 1896TIP3    H127323   6.849   3.314   7.746  0.9313 -0.5312  0.0775
 1896TIP3    H227324   6.890   3.186   7.676 -0.9284 -0.3578 -1.3977
 1897TIP3   OH227325   1.191   6.301   7.609 -0.5091 -0.0175 -0.1807
 1897TIP3    H127326   1.265   6.361   7.605 -0.7934  0.4651  1.1320
 1897TIP3    H227327   1.147   6.311   7.525 -1.1820  2.4689  0.3894
 1898TIP3   OH227328   4.189   0.241   7.366 -0.6482  0.5831  0.4446
 1898TIP3    H127329   4.233   0.156   7.363 -0.8703  0.3580  2.2876
 1898TIP3    H227330   4.162   0.257   7.276  3.0919  0.6952 -0.8267
 1899TIP3   OH227331   5.057   6.211   1.311  0.2674  0.6496  1.1497
 1899TIP3    H127332   5.017   6.151   1.374 -0.2717 -0.0718  0.1540
 1899TIP3    H227333   4.991   6.277   1.295 -0.9491 -0.9668 -1.0833
 1900TIP3   OH227334   4.432   5.038   0.376 -0.1762 -0.3735 -0.0982
 1900TIP3    H127335   4.429   5.052   0.471 -0.7083 -1.3416  0.0471
 1900TIP3    H227336   4.343   5.057   0.346  0.2611  0.9830 -0.5803
 1901TIP3   OH227337   5.835   3.028   1.127  0.1533  0.2546  0.3298
 1901TIP3    H127338   5.914   3.034   1.073 -0.0693 -0.2702 -0.0633
 1901TIP3    H227339   5.766   3.005   1.065  0.1632 -1.9625  1.0654
 1902TIP3   OH227340   0.231   5.854   7.550  0.0259  0.1102  0.0420
 1902TIP3    H127341   0.149   5.818   7.517 -0.3019  1.9722 -1.3680
 1902TIP3    H227342   0.234   5.828   7.642 -2.2046  0.1006  0.1512
 1903TIP3   OH227343   0.525   2.934   8.110 -0.1343  0.4945  0.1893
 1903TIP3    H127344   0.502   2.995   8.180  1.1363  0.4084  0.7072
 1903TIP3    H227345   0.512   2.847   8.148  0.0214  0.4498  0.1447
 1904TIP3   OH227346   3.596   6.450   1.553  0.8041 -0.8146  0.6555
 1904TIP3    H127347   3.618   6.525   1.497 -1.1563  0.5313  1.5566
 1904TIP3    H227348   3.614   6.373   1.499 -1.0611  0.4178 -1.9233
 1905TIP3   OH227349   2.918   2.703   2.427 -0.0296  0.3657  0.5862
 1905TIP3    H127350   2.865   2.644   2.374 -0.1551  1.7290 -0.8566
 1905TIP3    H227351   2.854   2.761   2.469  0.2265  1.1683 -0.1168
 1906TIP3   OH227352   0.955   2.994   2.307  0.1136  0.2844  0.5681
 1906TIP3    H127353   0.870   2.976   2.267  0.0941  1.1945  0.1474
 1906TIP3    H227354   1.018   2.951   2.249  0.0705  1.4454 -0.3973
 1907TIP3   OH227355   1.042   1.695   2.789 -0.5313 -0.0825  0.4137
 1907TIP3    H127356   1.064   1.710   2.881  0.5716  0.3768  0.0904
 1907TIP3    H227357   1.109   1.633   2.759 -1.9058 -1.6141  0.3482
 1908TIP3   OH227358   3.854   3.322   8.353  0.1880  0.4314  0.3439
 1908TIP3    H127359   3.900   3.402   8.380 -1.7820  1.3352  1.1889
 1908TIP3    H227360   3.830   3.279   8.435  0.7009 -0.7414 -0.1030
 1909TIP3   OH227361   2.822   4.343   1.726  0.1577  0.1802  0.3037
 1909TIP3    H127362   2.795   4.285   1.655  1.5506 -2.3333  1.6790
 1909TIP3    H227363   2.876   4.410   1.684 -0.6329 -0.1071 -1.2311
 1910TIP3   OH227364   2.148   4.757   1.641 -0.0617 -0.3745 -0.1258
 1910TIP3    H127365   2.088   4.832   1.639 -1.5048 -1.4386  0.8407
 1910TIP3    H227366   2.099   4.688   1.686  2.8683 -0.5219  3.2600
 1911TIP3   OH227367   3.952   2.063   1.477  0.1013 -0.0870 -0.0173
 1911TIP3    H127368   3.919   1.997   1.416 -0.8139  0.4930 -0.1639
 1911TIP3    H227369   4.016   2.112   1.425 -0.3813  0.1491 -0.3949
 1912TIP3   OH227370   6.912   0.629   2.328 -0.6651  0.0013  0.5302
 1912TIP3    H127371   6.906   0.538   2.355  0.6237 -1.6516 -3.8217
 1912TIP3    H227372   7.000   0.656   2.353 -1.0234  0.0546  1.7651
 1913TIP3   OH227373   0.588   3.995   1.893  0.4749 -0.1913 -0.6269
 1913TIP3    H127374   0.649   3.933   1.853 -0.1600  0.0364 -1.9963
 1913TIP3    H227375   0.631   4.080   1.886  0.2513 -0.1130 -1.0832
 1914TIP3   OH227376   6.235   5.437   2.130  0.0566 -0.2986  0.1937
 1914TIP3    H127377   6.310   5.473   2.176  0.3834 -1.4519  0.6002
 1914TIP3    H227378   6.160   5.488   2.161  0.2173 -1.2498  2.2615
 1915TIP3   OH227379   2.859   0.138   1.891 -0.0640 -0.2677  0.7334
 1915TIP3    H127380   2.859   0.180   1.977  2.2176  0.6997  0.3159
 1915TIP3    H227381   2.900   0.053   1.906 -0.4768 -0.4663  0.7487
 1916TIP3   OH227382   4.895   0.344   1.408  0.0065  0.4926  0.0280
 1916TIP3    H127383   4.886   0.409   1.339 -0.6102 -1.2804 -1.6542
 1916TIP3    H227384   4.959   0.281   1.374 -0.8354 -0.8102  0.7486
 1917TIP3   OH227385   5.234   0.844   7.894  0.1375 -0.6723 -0.0069
 1917TIP3    H127386   5.203   0.809   7.810 -1.1894 -1.7733  0.9111
 1917TIP3    H227387   5.181   0.800   7.960 -0.5699  1.9632  1.3287
 1918TIP3   OH227388   1.590   2.768   7.965  0.1373  0.1718 -0.3355
 1918TIP3    H127389   1.658   2.766   8.032 -0.7059 -2.5796  0.5694
 1918TIP3    H227390   1.627   2.721   7.891 -0.2201  0.0187 -0.4203
 1919TIP3   OH227391   0.421   0.267   1.975 -0.5960  0.8717 -0.1722
 1919TIP3    H127392   0.438   0.210   1.901  2.7528 -0.2297  1.2818
 1919TIP3    H227393   0.413   0.209   2.050 -0.8324  2.0986  0.7971
 1920TIP3   OH227394   3.344   1.731   0.872  0.0309 -0.7550 -0.4543
 1920TIP3    H127395   3.417   1.683   0.913  0.4334 -0.3672 -0.7119
 1920TIP3    H227396   3.332   1.808   0.927  2.7753  1.5684 -2.7906
 1921TIP3   OH227397   1.568   2.729   0.090  0.0974  0.3644 -0.1043
 1921TIP3    H127398   1.594   2.653   0.142 -1.2929  0.9171  1.4802
 1921TIP3    H227399   1.577   2.803   0.150  0.5384  1.3525 -1.3387
 1922TIP3   OH227400   5.418   5.537   7.498  0.0413  0.5373  0.4548
 1922TIP3    H127401   5.505   5.574   7.514  0.4728  0.2585 -1.0531
 1922TIP3    H227402   5.358   5.610   7.508  0.7657  1.4420 -1.3058
 1923TIP3   OH227403   1.483   0.170   1.574  0.0255  0.7283  0.3374
 1923TIP3    H127404   1.554   0.167   1.509 -1.4315 -3.5846 -1.4538
 1923TIP3    H227405   1.403   0.179   1.521 -1.1652 -2.2876  1.4046
 1924TIP3   OH227406   5.025   6.977   0.843 -0.1165 -0.4999  0.1104
 1924TIP3    H127407   5.118   6.957   0.854 -0.2173 -1.5373 -0.7497
 1924TIP3    H227408   4.987   6.897   0.807 -1.3817 -0.1410  0.5681
 1925TIP3   OH227409   6.448   0.041   0.210 -0.0305  0.0028  0.0831
 1925TIP3    H127410   6.517   0.014   0.271 -0.1098  0.2349  0.2799
 1925TIP3    H227411   6.418  -0.040   0.170  0.5681 -0.0674 -0.2321
 1926TIP3   OH227412   4.229   0.351   0.495 -0.5250  0.0603 -0.2778
 1926TIP3    H127413   4.226   0.283   0.561 -1.9338  1.9919  1.7955
 1926TIP3    H227414   4.313   0.394   0.509 -1.6937  1.8459  1.8839
 1927TIP3   OH227415   0.659   4.442   7.506  0.1231 -0.2441 -0.2192
 1927TIP3    H127416   0.725   4.474   7.444 -0.2930 -0.5023 -0.8069
 1927TIP3    H227417   0.680   4.350   7.518 -1.8033 -1.1573 -2.7140
 1928TIP3   OH227418   6.154   0.266   8.020 -0.3075  0.3570 -0.7653
 1928TIP3    H127419   6.114   0.188   8.060  1.2962  0.8303  2.0872
 1928TIP3    H227420   6.097   0.338   8.047  1.5118  0.8609  2.1697
 1929TIP3   OH227421   1.767   4.773   0.407  0.1266 -0.8154 -0.4415
 1929TIP3    H127422   1.740   4.745   0.320  1.2161 -0.4867 -0.9008
 1929TIP3    H227423   1.778   4.868   0.400 -1.7652 -0.4710  0.6122
 1930TIP3   OH227424   3.296   2.911   1.230  0.6258 -0.5894  0.3624
 1930TIP3    H127425   3.335   2.924   1.316  0.5115 -1.4927  0.5638
 1930TIP3    H227426   3.342   2.835   1.194  0.6608 -0.2340 -0.3727
 1931TIP3   OH227427   1.377   0.964   0.194  0.5350  0.2509  0.5234
 1931TIP3    H127428   1.413   0.887   0.150 -0.4511  0.4031 -0.5946
 1931TIP3    H227429   1.332   1.012   0.125 -1.1843  0.4338  1.7193
 1932TIP3   OH227430   6.471   0.260   6.909  0.2161 -0.0251 -0.5104
 1932TIP3    H127431   6.502   0.312   6.983 -0.9290 -1.9802  1.4738
 1932TIP3    H227432   6.510   0.173   6.923 -1.6179 -0.9832 -1.0548
 1933TIP3   OH227433   4.947   2.420   1.332  0.3750 -0.6565 -0.5865
 1933TIP3    H127434   5.005   2.384   1.399 -2.3740 -2.3471  1.0563
 1933TIP3    H227435   4.930   2.510   1.361  1.5589 -0.3793 -0.7033
 1934TIP3   OH227436   5.694   2.004   7.708 -0.7352 -0.4669 -0.2989
 1934TIP3    H127437   5.629   1.934   7.697  0.2163 -1.8250  1.8568
 1934TIP3    H227438   5.765   1.962   7.757 -0.6756  2.3190  2.2682
 1935TIP3   OH227439   6.330   2.590   1.570 -0.7265 -0.0305  0.2766
 1935TIP3    H127440   6.262   2.526   1.590 -1.3007  0.0633 -1.2355
 1935TIP3    H227441   6.369   2.612   1.655 -2.6850  0.0230  1.1982
 1936TIP3   OH227442   2.331   2.581   7.533  0.3168 -0.3484  0.0983
 1936TIP3    H127443   2.335   2.676   7.526 -0.6025 -0.2462  0.7700
 1936TIP3    H227444   2.238   2.560   7.522  0.6456 -1.2694 -1.1330
 1937TIP3   OH227445   0.396   5.187   1.929 -0.3373 -0.3549  0.2048
 1937TIP3    H127446   0.383   5.149   1.842 -1.6597 -1.2028  0.7475
 1937TIP3    H227447   0.483   5.226   1.925 -0.6166  0.1439 -1.6802
 1938TIP3   OH227448   2.284   0.444   1.085  0.2013 -0.4009  0.3120
 1938TIP3    H127449   2.225   0.518   1.102 -0.0001 -0.7058  0.9889
 1938TIP3    H227450   2.292   0.441   0.990 -1.6652 -0.9546  0.1262
 1939TIP3   OH227451   4.156   6.354   2.210  0.2087 -0.3480 -0.1426
 1939TIP3    H127452   4.208   6.434   2.211 -0.0116 -0.1995  1.2404
 1939TIP3    H227453   4.076   6.376   2.258  0.7367 -1.7508  1.4983
 1940TIP3   OH227454   0.853   6.433   0.234  0.0811  0.2494  0.4856
 1940TIP3    H127455   0.862   6.458   0.326 -1.2635  0.9243  0.4722
 1940TIP3    H227456   0.759   6.442   0.216  0.2781 -0.1275 -0.8827
 1941TIP3   OH227457   1.143   5.218   0.026  0.6704 -0.3116  0.2237
 1941TIP3    H127458   1.207   5.166   0.074  0.8993  0.0486  0.3142
 1941TIP3    H227459   1.133   5.173  -0.058  0.3737 -0.8636  0.5510
 1942TIP3   OH227460   6.331   2.173   8.127 -0.7065 -0.4561 -0.3116
 1942TIP3    H127461   6.323   2.268   8.138 -1.3152 -0.5423  0.0164
 1942TIP3    H227462   6.255   2.148   8.076 -1.4361 -0.9838  0.9895
 1943TIP3   OH227463   5.417   1.985   0.599  0.3858  0.1811  0.7345
 1943TIP3    H127464   5.478   2.046   0.558  0.0703 -0.0441 -0.0950
 1943TIP3    H227465   5.449   1.898   0.574  0.6055  0.0108  1.5755
 1944TIP3   OH227466   3.919   2.450   7.819  0.2370  0.1791  0.0527
 1944TIP3    H127467   3.918   2.479   7.727 -1.6893 -2.2882 -0.8266
 1944TIP3    H227468   3.957   2.362   7.816  1.1514  0.4754  1.8086
 1945TIP3   OH227469   5.189   3.328   8.148 -0.1146 -0.3575 -0.5411
 1945TIP3    H127470   5.125   3.400   8.146 -2.1743 -2.0581 -0.3996
 1945TIP3    H227471   5.246   3.348   8.222 -1.1100  0.7430 -0.0369
 1946TIP3   OH227472   1.740   4.117   8.263  0.0212 -0.3030  0.5122
 1946TIP3    H127473   1.795   4.054   8.216 -1.2005 -0.4441 -0.7830
 1946TIP3    H227474   1.784   4.201   8.249  0.4943 -0.5600  0.4156
 1947TIP3   OH227475   0.643   5.376   7.716 -0.0511 -0.3405 -0.0786
 1947TIP3    H127476   0.590   5.423   7.652  0.5459  1.4693  0.6908
 1947TIP3    H227477   0.581   5.321   7.764 -1.6201  2.7910  1.7836
 1948TIP3   OH227478   0.067   2.491   0.173 -0.7088  0.6444 -0.3652
 1948TIP3    H127479   0.010   2.510   0.247 -0.7053 -0.1733 -0.1377
 1948TIP3    H227480   0.069   2.395   0.169 -0.3365  0.6777 -1.1341
 1949TIP3   OH227481   5.953   2.999   2.233 -0.0194 -0.2630  0.2512
 1949TIP3    H127482   5.900   3.053   2.291  3.3258  0.4698  2.9362
 1949TIP3    H227483   6.032   3.050   2.217  1.6525 -2.7812 -0.2323
 1950TIP3   OH227484   2.065   1.130   1.295 -0.1066  0.6379  0.2611
 1950TIP3    H127485   2.072   1.217   1.255 -2.2130  1.2394  1.1106
 1950TIP3    H227486   2.024   1.076   1.228 -1.0766  0.9435  0.5968
 1951TIP3   OH227487   6.673   1.463   2.559 -0.1403  0.2780 -0.2008
 1951TIP3    H127488   6.610   1.522   2.600 -1.1301 -0.9354  0.0839
 1951TIP3    H227489   6.757   1.488   2.596 -0.8692 -0.0859  1.8321
 1952TIP3   OH227490   3.286   6.384   7.580 -0.0853 -0.1084  0.1715
 1952TIP3    H127491   3.379   6.384   7.603 -0.5956 -2.0281  2.7044
 1952TIP3    H227492   3.241   6.402   7.663 -1.9926 -1.7487 -0.4181
 1953TIP3   OH227493   4.341   6.496   0.823 -0.3871 -0.1043  0.2271
 1953TIP3    H127494   4.377   6.408   0.820  0.8490  0.4121 -1.7161
 1953TIP3    H227495   4.408   6.548   0.868 -0.1703  0.2218 -0.4561
 1954TIP3   OH227496   6.191   1.257   7.591  0.0889 -0.1983  0.0861
 1954TIP3    H127497   6.112   1.249   7.644 -0.3352 -0.9552 -0.6277
 1954TIP3    H227498   6.164   1.230   7.503  1.5056 -2.0888  0.1639
 1955TIP3   OH227499   5.811   5.886   0.214 -0.3513  0.4117 -0.6696
 1955TIP3    H127500   5.887   5.837   0.182 -0.3888  2.0913 -3.7129
 1955TIP3    H227501   5.838   5.978   0.208 -2.4424  1.0310 -1.3760
 1956TIP3   OH227502   6.180   4.029   1.498  0.4291  0.6274 -0.9022
 1956TIP3    H127503   6.160   4.122   1.492 -0.3899  0.5790  0.4490
 1956TIP3    H227504   6.149   3.992   1.415  0.0584  1.4452 -1.1389
 1957TIP3   OH227505   0.997   1.762   0.653  0.1011 -0.2793  0.3220
 1957TIP3    H127506   0.976   1.753   0.560 -1.9040 -0.3008  0.7361
 1957TIP3    H227507   0.965   1.681   0.692  1.3043 -0.4483  0.9971
 1958TIP3   OH227508   6.628   4.166   0.823 -0.4970  0.0804 -0.6961
 1958TIP3    H127509   6.587   4.102   0.881  0.1426 -1.2115 -1.6028
 1958TIP3    H227510   6.675   4.225   0.882  0.3131 -1.3125  0.1305
 1959TIP3   OH227511   3.281   5.930   0.509  0.0422  0.0076  0.2828
 1959TIP3    H127512   3.286   6.004   0.569 -0.2349 -0.3083  0.6996
 1959TIP3    H227513   3.270   5.970   0.423 -0.5429  0.4453  0.5561
 1960TIP3   OH227514   3.310   0.408   7.662  0.0273 -0.5218  0.6017
 1960TIP3    H127515   3.336   0.429   7.573 -1.2758  1.3648  0.6127
 1960TIP3    H227516   3.393   0.391   7.708  0.7290 -1.1876 -0.8551
 1961TIP3   OH227517   3.645   0.530   7.709  0.0828  0.6940  0.1134
 1961TIP3    H127518   3.606   0.480   7.637  1.3522 -1.4460  0.8205
 1961TIP3    H227519   3.640   0.471   7.784  1.5600  1.6926  1.0448
 1962TIP3   OH227520   5.944   0.871   1.882 -0.0910 -0.1634 -0.7773
 1962TIP3    H127521   5.889   0.875   1.804  0.5716  1.1177 -1.1989
 1962TIP3    H227522   6.031   0.898   1.852  0.2526  0.0153  0.3318
 1963TIP3   OH227523   2.137   0.941   0.248  0.5052  0.1368 -0.5226
 1963TIP3    H127524   2.116   0.864   0.195  0.6421  0.3635 -0.9109
 1963TIP3    H227525   2.067   1.004   0.227 -0.6598 -0.5066  1.1481
 1964TIP3   OH227526   3.289   5.033   8.214 -0.6271  0.1614 -0.2576
 1964TIP3    H127527   3.255   5.030   8.303 -0.7819  1.6671 -0.2285
 1964TIP3    H227528   3.227   5.088   8.166  0.0568  0.3067 -1.0095
 1965TIP3   OH227529   5.037   6.692   7.785 -0.2320  0.0186 -0.2020
 1965TIP3    H127530   5.075   6.743   7.856 -0.9729 -1.4874  1.3214
 1965TIP3    H227531   5.112   6.673   7.727 -0.0005  3.1829 -1.1616
 1966TIP3   OH227532   5.397   5.689   8.123  0.6707  0.2105 -0.4949
 1966TIP3    H127533   5.404   5.673   8.029 -0.0408  0.4483 -0.5980
 1966TIP3    H227534   5.443   5.615   8.163  0.7475 -0.0364 -1.0280
 1967TIP3   OH227535   4.110   2.638   1.132 -0.1458 -0.0837  0.4356
 1967TIP3    H127536   4.163   2.563   1.105 -0.7160 -0.2854 -0.1530
 1967TIP3    H227537   4.024   2.601   1.150 -0.4767  0.4468 -0.0076
 1968TIP3   OH227538   0.065   2.818   3.347 -0.1930 -0.0577 -0.2509
 1968TIP3    H127539   0.012   2.743   3.375 -0.7308 -0.4471 -2.1256
 1968TIP3    H227540   0.099   2.855   3.428 -1.6724 -1.0395  0.8851
 1969TIP3   OH227541   4.790   2.826   1.776  0.3839  0.5708 -0.2750
 1969TIP3    H127542   4.882   2.831   1.801  0.9923  3.4343 -2.5218
 1969TIP3    H227543   4.742   2.856   1.853  1.1641 -1.6624  1.1830
 1970TIP3   OH227544   4.410   6.459   0.360 -0.5576  0.4006  0.0764
 1970TIP3    H127545   4.326   6.455   0.405  0.0177  0.5256  1.2030
 1970TIP3    H227546   4.393   6.510   0.281 -1.9446 -1.1676 -0.6833
 1971TIP3   OH227547   6.036   0.368   0.866  0.3831  0.0251  0.0203
 1971TIP3    H127548   6.085   0.343   0.788  2.5559 -0.0304  1.3214
 1971TIP3    H227549   5.949   0.392   0.834  1.6477  1.4450 -2.5957
 1972TIP3   OH227550   3.975   4.299   1.657 -0.1116  0.4747 -0.1298
 1972TIP3    H127551   4.009   4.382   1.688 -1.9525  1.0343  0.5437
 1972TIP3    H227552   3.973   4.243   1.734  0.8402 -0.1217 -0.5182
 1973TIP3   OH227553   0.820   0.132   7.513 -0.0277 -0.1781 -0.0837
 1973TIP3    H127554   0.840   0.044   7.546 -0.6295 -0.1623  0.3453
 1973TIP3    H227555   0.741   0.119   7.459 -0.6776  0.2441  0.7444
 1974TIP3   OH227556   1.785   2.709   3.008  0.0708 -0.1037  0.0567
 1974TIP3    H127557   1.797   2.614   3.018  1.1879  0.1394  1.2297
 1974TIP3    H227558   1.700   2.717   2.965  0.2414 -1.6524 -0.6436
 1975TIP3   OH227559   3.603   1.707   2.844  0.7896 -0.3893  0.4428
 1975TIP3    H127560   3.638   1.782   2.892  1.9853  0.3553 -1.4623
 1975TIP3    H227561   3.522   1.684   2.889  0.4106  2.0419  1.0917
 1976TIP3   OH227562   6.274   1.896   1.031  0.3602  0.4989  0.3552
 1976TIP3    H127563   6.208   1.935   0.973  0.7505  1.6040  0.6348
 1976TIP3    H227564   6.239   1.809   1.051 -1.4623  1.3623  1.1809
 1977TIP3   OH227565   3.940   4.236   1.927  0.7064  0.3889 -0.0531
 1977TIP3    H127566   3.860   4.288   1.928  1.0555  0.9550  1.4817
 1977TIP3    H227567   3.959   4.220   2.019  1.6025 -0.9412 -0.4381
 1978TIP3   OH227568   3.926   6.688   7.404 -0.3608  0.2022 -0.1898
 1978TIP3    H127569   3.999   6.745   7.426 -0.7133  0.4558  0.3580
 1978TIP3    H227570   3.958   6.633   7.332  0.2201  0.5950 -0.2336
 1979TIP3   OH227571   3.925   1.813   1.040  0.4816 -0.0278 -0.3131
 1979TIP3    H127572   3.959   1.825   0.951 -0.4443  0.3315 -0.6291
 1979TIP3    H227573   3.975   1.738   1.074  1.2494  0.1869 -0.9223
 1980TIP3   OH227574   4.066   5.416   2.916  0.0260 -0.1623 -0.3081
 1980TIP3    H127575   4.118   5.459   2.984 -2.0182  1.4134  0.3754
 1980TIP3    H227576   4.022   5.344   2.961 -0.8021  0.4629 -0.0975
 1981TIP3   OH227577   5.134   1.525   7.432 -0.0742  0.4005  0.1529
 1981TIP3    H127578   5.112   1.618   7.431  1.6975  0.8720  1.5167
 1981TIP3    H227579   5.225   1.521   7.402 -0.8964 -1.2095 -2.4967
 1982TIP3   OH227580   0.189   1.277   7.491  0.6932 -0.0882 -0.1666
 1982TIP3    H127581   0.111   1.323   7.458  1.3911  1.2932  0.0048
 1982TIP3    H227582   0.231   1.341   7.549  0.4017 -1.8390  2.1244
 1983TIP3   OH227583   4.847   4.121   2.996  0.7973  0.0819  0.1697
 1983TIP3    H127584   4.907   4.060   3.039  1.5536  0.2940 -0.5701
 1983TIP3    H227585   4.889   4.206   3.005 -0.1114  0.4648  0.9401
 1984TIP3   OH227586   2.684   4.421   1.194 -0.4279  0.0123 -0.2183
 1984TIP3    H127587   2.627   4.374   1.133  0.4700  0.4168 -1.4125
 1984TIP3    H227588   2.624   4.471   1.250 -1.3378 -1.5392  0.2491
 1985TIP3   OH227589   2.568   0.960   2.813  0.0851  0.4734 -0.0582
 1985TIP3    H127590   2.651   0.930   2.776  0.2282  0.3716  0.3417
 1985TIP3    H227591   2.593   1.021   2.882 -0.0681 -1.2983  1.6664
 1986TIP3   OH227592   4.611   0.635   2.359 -0.4923  0.2718 -0.6492
 1986TIP3    H127593   4.563   0.579   2.420  0.4833 -0.1952 -0.2920
 1986TIP3    H227594   4.702   0.608   2.368 -0.0156  1.7917 -0.6098
 1987TIP3   OH227595   1.344   4.382   1.227  0.1068  0.1662  0.2397
 1987TIP3    H127596   1.428   4.402   1.270  0.6278  0.2837 -0.8001
 1987TIP3    H227597   1.338   4.287   1.228  0.6104  0.1274 -0.3455
 1988TIP3   OH227598   4.633   5.242   7.689 -0.6319 -0.1052 -0.0967
 1988TIP3    H127599   4.582   5.271   7.613  0.6187  0.6183 -0.6905
 1988TIP3    H227600   4.573   5.186   7.738 -1.7043  0.0077 -1.2280
 1989TIP3   OH227601   6.416   1.941   7.948 -0.0221 -0.3090  0.3551
 1989TIP3    H127602   6.406   1.954   8.043 -2.2832 -2.1879  0.4620
 1989TIP3    H227603   6.478   1.869   7.941 -0.4740 -0.7154  0.4626
 1990TIP3   OH227604   2.528   1.185   1.935 -0.4528  0.4455 -0.2761
 1990TIP3    H127605   2.466   1.152   1.870  1.8775 -1.1986 -1.7912
 1990TIP3    H227606   2.582   1.247   1.887 -1.0373  2.1236  1.1091
 1991TIP3   OH227607   2.945   3.979   1.920 -0.4932  0.2527  0.1085
 1991TIP3    H127608   2.897   3.943   1.995  1.0109  1.8422  1.9675
 1991TIP3    H227609   2.956   4.072   1.942  1.5780  0.3728 -1.2282
 1992TIP3   OH227610   0.899   6.270   2.067  0.5346 -1.0289  0.2582
 1992TIP3    H127611   0.917   6.311   2.151 -1.2214  0.6529 -0.1097
 1992TIP3    H227612   0.868   6.182   2.088  0.8821 -0.9035  1.3165
 1993TIP3   OH227613   5.163   4.698   8.184 -0.2580 -0.2304 -0.6364
 1993TIP3    H127614   5.175   4.631   8.117 -0.1385  0.4153 -1.2759
 1993TIP3    H227615   5.154   4.649   8.266  1.1257 -0.9957 -0.8979
 1994TIP3   OH227616   4.537   4.855   7.263 -0.1971 -0.0903 -0.0141
 1994TIP3    H127617   4.497   4.880   7.346  0.9788  0.7510  0.3218
 1994TIP3    H227618   4.505   4.766   7.246 -1.0914  0.0433  0.9203
 1995TIP3   OH227619   5.823   2.976   1.977 -0.0320  0.7074  0.0802
 1995TIP3    H127620   5.851   2.970   2.068  0.8243 -0.4733 -0.2463
 1995TIP3    H227621   5.876   2.911   1.931 -0.5217  1.2212 -1.2465
 1996TIP3   OH227622   3.501   3.211   1.959  0.0641 -0.2704  0.2250
 1996TIP3    H127623   3.538   3.124   1.970  0.7602 -0.1882 -1.3093
 1996TIP3    H227624   3.448   3.205   1.880 -0.1286  0.6214  0.2782
 1997TIP3   OH227625   4.327   6.729   7.959 -0.3542  0.4088  0.8582
 1997TIP3    H127626   4.415   6.707   7.988  0.3105  0.6784 -0.8635
 1997TIP3    H227627   4.338   6.762   7.870 -2.2932 -0.3830  0.2763
 1998TIP3   OH227628   1.412   6.734   0.044 -0.0025 -0.1737  0.3577
 1998TIP3    H127629   1.385   6.660   0.099 -0.1004 -0.1861  0.2926
 1998TIP3    H227630   1.508   6.728   0.042 -0.0583 -1.0564 -0.6988
 1999TIP3   OH227631   4.111   6.249   7.985  0.2735  0.5291 -0.2134
 1999TIP3    H127632   4.100   6.158   7.961  0.6051 -0.3641  2.6014
 1999TIP3    H227633   4.034   6.270   8.037 -0.2233  2.1622 -1.5213
 2000TIP3   OH227634   4.896   0.227   6.694 -0.1321 -0.0553  0.0893
 2000TIP3    H127635   4.929   0.166   6.627 -0.4459 -0.7895  0.5895
 2000TIP3    H227636   4.839   0.173   6.749  2.0159 -0.1010  2.4656
 2001TIP3   OH227637   6.656   1.266   0.377  0.7348 -0.0733 -0.0081
 2001TIP3    H127638   6.625   1.347   0.418  0.9091 -0.1454  0.2717
 2001TIP3    H227639   6.653   1.284   0.283  0.4145  0.1245  0.0390
 2002TIP3   OH227640   0.680   5.914   7.127 -0.0906  0.5627 -0.0850
 2002TIP3    H127641   0.716   5.835   7.166  1.1947  0.6349 -1.0577
 2002TIP3    H227642   0.744   5.940   7.061 -0.1697  2.7547  0.6139
 2003TIP3   OH227643   2.082   6.017   3.470  0.1582 -0.7401  0.3025
 2003TIP3    H127644   2.110   5.942   3.417 -0.2192 -1.4550  1.0826
 2003TIP3    H227645   1.991   5.998   3.493 -0.8326  1.2581 -1.6660
 2004TIP3   OH227646   1.230   6.538   7.230  0.6131  0.5730  0.3046
 2004TIP3    H127647   1.294   6.544   7.159  0.3735  0.2377  0.0626
 2004TIP3    H227648   1.249   6.615   7.285  2.8027 -0.7249  1.5701
 2005TIP3   OH227649   5.870   5.482   0.039  0.2545 -0.1680 -0.1484
 2005TIP3    H127650   5.948   5.470  -0.014  1.1115  1.8366  0.5936
 2005TIP3    H227651   5.898   5.464   0.128 -0.1338  0.5022  0.1192
 2006TIP3   OH227652   3.433   3.309   1.489 -0.1261 -0.0031  0.3389
 2006TIP3    H127653   3.511   3.336   1.537  0.3560  0.8145 -0.8502
 2006TIP3    H227654   3.383   3.390   1.477 -1.2572 -0.5386  1.2229
 2007TIP3   OH227655   6.070   2.303   0.312 -0.2671  0.2659  0.0208
 2007TIP3    H127656   6.122   2.296   0.232 -0.4360 -1.9058  0.0275
 2007TIP3    H227657   6.133   2.332   0.379  0.5456 -0.6328 -0.3302
 2008TIP3   OH227658   0.841   4.427   2.556 -0.2657 -0.1538  0.1215
 2008TIP3    H127659   0.779   4.402   2.488 -1.1659 -0.3265  0.9746
 2008TIP3    H227660   0.791   4.420   2.637  0.0183  2.4587  0.6120
 2009TIP3   OH227661   3.368   5.476   1.423  0.4195  0.3406  0.5069
 2009TIP3    H127662   3.367   5.419   1.346  1.2185  0.5901  0.2989
 2009TIP3    H227663   3.460   5.502   1.432  0.6511 -0.8977  2.4248
 2010TIP3   OH227664   6.838   4.024   8.237  0.6490 -0.3258 -0.5352
 2010TIP3    H127665   6.840   4.119   8.244  3.4673 -0.3812  1.2487
 2010TIP3    H227666   6.847   4.006   8.144 -0.6995  1.1007 -0.9787
 2011TIP3   OH227667   6.117   0.574   0.040  0.3071  0.3502 -0.0908
 2011TIP3    H127668   6.062   0.506   0.077  0.6391  0.5825  0.8565
 2011TIP3    H227669   6.109   0.563  -0.055 -3.6827  2.1666 -0.1624
 2012TIP3   OH227670   2.252   0.125   1.517 -0.1412  0.2156  0.5940
 2012TIP3    H127671   2.243   0.085   1.603 -1.3716 -1.4585 -0.2632
 2012TIP3    H227672   2.166   0.161   1.497  0.4880  1.8043  0.6004
 2013TIP3   OH227673   0.750   4.916   2.795 -0.0036 -0.0996 -0.2692
 2013TIP3    H127674   0.822   4.939   2.854  0.9317  2.8402 -2.3189
 2013TIP3    H227675   0.793   4.889   2.714 -1.1225  1.5479 -1.4807
 2014TIP3   OH227676   1.084   1.090   6.940  0.2335 -0.5285  0.3511
 2014TIP3    H127677   1.077   1.185   6.933  1.5969 -0.3508  1.0165
 2014TIP3    H227678   1.038   1.069   7.021  0.1326 -0.3960  0.3275
 2015TIP3   OH227679   2.190   0.704   0.699 -0.0859 -1.0997 -0.1275
 2015TIP3    H127680   2.242   0.782   0.680 -0.4729 -0.5620  0.9456
 2015TIP3    H227681   2.154   0.678   0.614  1.7809 -1.4030 -0.8812
 2016TIP3   OH227682   2.493   2.601   7.789  0.4954  0.2630  0.2345
 2016TIP3    H127683   2.522   2.604   7.880 -0.2493  0.1218  0.4842
 2016TIP3    H227684   2.454   2.687   7.773 -1.3832 -0.4372  0.7534
 2017TIP3   OH227685   5.080   1.176   3.007  0.2281  0.0344  0.8280
 2017TIP3    H127686   5.103   1.096   2.961  0.0988  0.4767 -0.0266
 2017TIP3    H227687   5.153   1.236   2.989  0.5108 -0.0067  1.7738
 2018TIP3   OH227688   1.173   2.523   1.602 -0.0845  0.3608  0.4101
 2018TIP3    H127689   1.223   2.553   1.679 -0.7379 -0.5889  1.2231
 2018TIP3    H227690   1.088   2.568   1.611  0.8754  2.8050 -1.5255
 2019TIP3   OH227691   0.141   5.192   1.394  0.7866  0.3432  0.2036
 2019TIP3    H127692   0.050   5.217   1.410  0.2145 -2.2086  1.5745
 2019TIP3    H227693   0.135   5.119   1.332  2.1645  2.0085 -1.9913
 2020TIP3   OH227694   2.862   5.943   8.371 -0.0187 -0.1715 -0.3267
 2020TIP3    H127695   2.917   5.942   8.293 -0.0391 -1.5428 -0.3465
 2020TIP3    H227696   2.802   5.870   8.358 -1.5552  1.0039 -0.0902
 2021TIP3   OH227697   4.322   1.617   0.296 -0.3907  0.5037  0.8155
 2021TIP3    H127698   4.348   1.563   0.222 -1.4921  1.0825 -0.0193
 2021TIP3    H227699   4.320   1.557   0.371  0.9905 -0.0278  0.4505
 2022TIP3   OH227700   1.210   0.730   0.370 -0.0059  0.1116 -0.4153
 2022TIP3    H127701   1.121   0.711   0.400  0.5579  1.7535  2.7345
 2022TIP3    H227702   1.210   0.825   0.354  1.3085  0.2618  0.3232
 2023TIP3   OH227703   6.454   2.228   7.549  0.2468  0.2843 -0.1362
 2023TIP3    H127704   6.530   2.169   7.540  0.0707  0.1458 -0.7412
 2023TIP3    H227705   6.420   2.209   7.637  0.9788  0.4300  0.1874
 2024TIP3   OH227706   6.955   0.095   1.979 -0.3665 -0.1126 -0.5396
 2024TIP3    H127707   7.018   0.106   1.907 -0.6702  0.7041 -0.6973
 2024TIP3    H227708   6.983   0.158   2.045 -0.1832 -0.7523  0.0021
 2025TIP3   OH227709   4.890   2.360   2.310 -0.2317 -0.4977  0.0611
 2025TIP3    H127710   4.830   2.408   2.368  1.1784 -0.6257  1.7047
 2025TIP3    H227711   4.970   2.349   2.362  0.5443 -2.0143 -1.3593
 2026TIP3   OH227712   5.649   2.239   0.143 -0.3841 -0.3517 -0.0871
 2026TIP3    H127713   5.642   2.257   0.237  0.2410  0.2317 -0.1501
 2026TIP3    H227714   5.664   2.144   0.138  1.7887 -0.0879  0.5259
 2027TIP3   OH227715   0.123   4.470   7.263 -0.3128  0.0396  0.2152
 2027TIP3    H127716   0.149   4.557   7.232  0.3407 -0.7200 -1.4310
 2027TIP3    H227717   0.204   4.420   7.266 -0.7142 -0.5937  0.9669
 2028TIP3   OH227718   4.682   3.041   8.261  0.2932  0.5563  0.0494
 2028TIP3    H127719   4.761   3.028   8.314  1.1172  1.3571 -0.9278
 2028TIP3    H227720   4.654   3.130   8.280 -1.9096 -0.5059  2.2950
 2029TIP3   OH227721   3.867   3.880   1.158 -0.1617  0.4260 -0.0233
 2029TIP3    H127722   3.935   3.910   1.098 -0.3845  3.0630  0.8871
 2029TIP3    H227723   3.825   3.961   1.188 -3.5768 -1.0521 -0.3793
 2030TIP3   OH227724   2.783   0.257   7.859  0.4505  0.2811  0.0873
 2030TIP3    H127725   2.697   0.298   7.864 -0.1569 -0.9397  0.0553
 2030TIP3    H227726   2.765   0.163   7.858  1.8167 -0.0225  0.8112
 2031TIP3   OH227727   5.550   1.180   7.834  0.2837 -0.1388  0.5883
 2031TIP3    H127728   5.628   1.179   7.779 -0.1139 -0.9539  0.0176
 2031TIP3    H227729   5.478   1.159   7.774 -0.5107  1.4503  0.9203
 2032TIP3   OH227730   1.554   0.003   0.817 -0.4871  0.1325 -0.3157
 2032TIP3    H127731   1.464   0.018   0.787 -1.0041 -3.5071 -1.0619
 2032TIP3    H227732   1.590  -0.060   0.755  1.3308 -1.2480  1.9643
 2033TIP3   OH227733   3.253   4.806   0.401 -0.8847  0.1451  0.3457
 2033TIP3    H127734   3.281   4.850   0.482 -0.6355 -0.6267  0.6902
 2033TIP3    H227735   3.191   4.740   0.431 -0.6458 -0.2705 -0.0801
 2034TIP3   OH227736   2.932   0.907   8.327  0.3047 -0.0368 -0.3751
 2034TIP3    H127737   2.890   0.986   8.293 -0.6608  0.0443  0.9125
 2034TIP3    H227738   2.948   0.853   8.250 -1.2616  0.3818 -1.0317
 2035TIP3   OH227739   3.673   0.311   2.093 -0.1261  0.7732  0.2909
 2035TIP3    H127740   3.669   0.296   2.188 -0.9124 -0.0911  0.1436
 2035TIP3    H227741   3.766   0.318   2.074  0.1635 -0.8421  0.8937
 2036TIP3   OH227742   4.545   0.984   2.326  0.0506 -0.1883  0.0234
 2036TIP3    H127743   4.483   1.041   2.372 -1.5838 -2.5853  0.9873
 2036TIP3    H227744   4.490   0.927   2.273  1.7317  0.0968 -2.1551
 2037TIP3   OH227745   5.369   2.152   2.593  0.6180 -0.0547  0.2229
 2037TIP3    H127746   5.410   2.222   2.542 -0.5935  1.1622  0.8586
 2037TIP3    H227747   5.297   2.122   2.537 -1.0500  1.6443  1.3225
 2038TIP3   OH227748   4.725   1.234   1.368  0.2575 -0.2894 -0.0073
 2038TIP3    H127749   4.803   1.193   1.406 -0.0927 -0.0629  1.0078
 2038TIP3    H227750   4.656   1.216   1.432  0.1273  2.0408  0.6084
 2039TIP3   OH227751   4.732   3.177   1.381  0.0720  0.0781  0.5584
 2039TIP3    H127752   4.651   3.144   1.342 -0.0922  0.3220  0.6995
 2039TIP3    H227753   4.795   3.105   1.367  0.0100  0.1437 -0.1337
 2040TIP3   OH227754   6.719   5.331   7.718 -0.2892  0.1128  0.1680
 2040TIP3    H127755   6.753   5.411   7.679 -1.6236  0.1080 -1.0706
 2040TIP3    H227756   6.695   5.356   7.807  3.2724 -0.0017  1.3105
 2041TIP3   OH227757   3.382   1.778   7.694 -0.0173  0.1541  0.4372
 2041TIP3    H127758   3.454   1.716   7.705  0.7022  0.5430 -1.6290
 2041TIP3    H227759   3.354   1.766   7.603 -2.2940  0.3236  1.0572
 2042TIP3   OH227760   0.680   2.655   7.967 -0.4144  0.1810  0.5407
 2042TIP3    H127761   0.637   2.579   7.926  1.2788  0.8597 -2.8469
 2042TIP3    H227762   0.767   2.622   7.990 -0.8727  0.2110  2.4286
 2043TIP3   OH227763   6.561   6.518   7.927  0.2323 -0.1631  0.6731
 2043TIP3    H127764   6.524   6.443   7.880 -1.1914  1.2534 -0.6273
 2043TIP3    H227765   6.650   6.527   7.893  0.3070 -1.0435  0.6123
 2044TIP3   OH227766   3.591   6.557   0.340 -0.0788 -0.2330  0.2057
 2044TIP3    H127767   3.559   6.467   0.348  1.3210 -0.6405  1.8782
 2044TIP3    H227768   3.635   6.574   0.423 -1.0482  2.3310  0.3057
 2045TIP3   OH227769   1.779   0.901   7.526 -0.1336 -0.5156  0.2510
 2045TIP3    H127770   1.705   0.906   7.466  0.7672 -1.6079 -1.0085
 2045TIP3    H227771   1.850   0.946   7.480  0.9361 -2.5024 -0.1512
 2046TIP3   OH227772   0.088   6.294   1.572 -0.2964  0.4217 -0.0315
 2046TIP3    H127773   0.032   6.334   1.639  1.0260  1.7524  0.3410
 2046TIP3    H227774   0.139   6.229   1.619 -0.0568  0.6785  0.0685
 2047TIP3   OH227775   1.796   0.016   8.254 -0.1724  0.1797  0.2617
 2047TIP3    H127776   1.793  -0.044   8.180  0.8290 -1.4641  1.5007
 2047TIP3    H227777   1.831   0.097   8.217 -0.5016 -0.3125 -1.2126
 2048TIP3   OH227778   5.781   4.901   2.456  0.4018 -0.4279  0.4241
 2048TIP3    H127779   5.704   4.920   2.403  0.7591  1.0982  0.4262
 2048TIP3    H227780   5.752   4.912   2.546  0.3990 -0.7459  0.4645
 2049TIP3   OH227781   6.738   1.083   7.918 -0.0239  0.1174  0.4391
 2049TIP3    H127782   6.646   1.060   7.931 -0.1772  0.2945 -0.2740
 2049TIP3    H227783   6.739   1.132   7.836  0.3741  2.1518  1.5992
 2050TIP3   OH227784   2.872   1.323   8.093  0.1338 -0.0486  0.3782
 2050TIP3    H127785   2.841   1.346   8.005 -0.4863 -1.5397  0.1718
 2050TIP3    H227786   2.963   1.296   8.080  1.0080  2.5417  0.6897
 2051TIP3   OH227787   0.174   2.939   2.473  0.9865  0.5659 -0.2430
 2051TIP3    H127788   0.232   2.996   2.524  0.7129 -0.0227  0.7528
 2051TIP3    H227789   0.089   2.946   2.515  1.1346 -1.2123  0.4410
 2052TIP3   OH227790   0.201   2.709   0.115  0.0017 -0.7022  0.2661
 2052TIP3    H127791   0.160   2.643   0.172  0.5179 -0.4523  0.9424
 2052TIP3    H227792   0.172   2.685   0.027 -1.8430 -0.3486  0.7332
 2053TIP3   OH227793   4.529   6.935   8.193 -0.8108 -0.3689  0.0394
 2053TIP3    H127794   4.486   6.851   8.177 -1.1148  0.1698 -2.2195
 2053TIP3    H227795   4.465   7.001   8.166  0.4958  0.5065 -1.0439
 2054TIP3   OH227796   4.494   3.236   0.746 -0.8857  0.1463 -0.0880
 2054TIP3    H127797   4.524   3.157   0.699 -0.1667  0.9866 -1.0879
 2054TIP3    H227798   4.495   3.305   0.680  0.4437  1.4489  1.1978
 2055TIP3   OH227799   2.885   5.414   1.671  0.0623  0.0451  0.0894
 2055TIP3    H127800   2.806   5.369   1.701  0.4749 -0.9047 -0.2070
 2055TIP3    H227801   2.912   5.469   1.744  0.3166 -1.2315  0.9745
 2056TIP3   OH227802   3.291   0.716   0.988  0.1362 -0.5469 -0.2914
 2056TIP3    H127803   3.213   0.709   0.933  0.9102 -0.4270 -1.4232
 2056TIP3    H227804   3.336   0.632   0.977 -0.0968 -0.8238  0.7824
 2057TIP3   OH227805   2.581   4.193   2.306 -0.6208 -0.3845  0.1606
 2057TIP3    H127806   2.665   4.218   2.269 -1.6242 -0.8330 -2.7087
 2057TIP3    H227807   2.544   4.275   2.339  0.2386  0.0947 -0.0368
 2058TIP3   OH227808   6.760   4.711   1.061 -0.2009  0.1555  0.0920
 2058TIP3    H127809   6.724   4.800   1.065  2.2637  1.2201  0.1469
 2058TIP3    H227810   6.696   4.658   1.109 -2.2042  1.6889 -0.7180
 2059TIP3   OH227811   6.636   2.589   1.018  0.2753 -0.0592 -0.2966
 2059TIP3    H127812   6.638   2.497   1.045 -0.0217 -0.1818 -0.6931
 2059TIP3    H227813   6.685   2.591   0.936 -0.2396  0.0308 -0.6032
 2060TIP3   OH227814   3.705   1.811   0.052 -0.1503  0.0075 -0.7683
 2060TIP3    H127815   3.780   1.870   0.043  0.2288 -0.1664  0.8700
 2060TIP3    H227816   3.743   1.729   0.082 -0.9364 -0.2909 -0.5629
 2061TIP3   OH227817   3.460   3.333   0.371 -0.6863  0.1760 -0.3795
 2061TIP3    H127818   3.553   3.339   0.394 -0.0900 -1.8514 -1.9048
 2061TIP3    H227819   3.434   3.422   0.350  1.1635  0.6578 -0.7870
 2062TIP3   OH227820   0.895   6.134   8.266 -0.2960  0.4449  0.0093
 2062TIP3    H127821   0.959   6.169   8.328 -1.8211  0.5609  1.6257
 2062TIP3    H227822   0.821   6.194   8.272 -1.0428 -0.3633 -0.8403
 2063TIP3   OH227823   2.610   3.975   1.333 -0.4376  0.2454 -0.2576
 2063TIP3    H127824   2.549   4.004   1.266 -1.2463  1.7431  1.0448
 2063TIP3    H227825   2.622   3.881   1.316 -1.1458  0.4421 -2.0415
 2064TIP3   OH227826   0.215   2.979   0.158 -0.1252 -0.3555 -0.2385
 2064TIP3    H127827   0.232   2.894   0.120 -1.0038  0.0364 -1.5637
 2064TIP3    H227828   0.135   3.009   0.116  1.4423  2.1922 -1.6790
 2065TIP3   OH227829   3.266   1.961   1.042 -0.0076  0.0065 -0.1212
 2065TIP3    H127830   3.332   2.029   1.031 -0.0457  0.3281  1.4275
 2065TIP3    H227831   3.251   1.956   1.137 -1.5074 -0.7130 -0.3528
 2066TIP3   OH227832   5.835   3.870   1.778  0.1883 -0.3150  0.1557
 2066TIP3    H127833   5.828   3.925   1.701  0.1685 -0.7491 -0.1557
 2066TIP3    H227834   5.805   3.925   1.850 -0.3730 -0.1077 -0.2317
 2067TIP3   OH227835   4.255   6.105   1.628  0.3495  0.0595 -0.3167
 2067TIP3    H127836   4.224   6.074   1.713  0.1195 -0.7398 -0.6841
 2067TIP3    H227837   4.239   6.199   1.630  0.1734  0.0250  0.4507
 2068TIP3   OH227838   2.916   3.103   2.107  0.4065  0.3453 -0.3818
 2068TIP3    H127839   2.930   3.198   2.113 -2.2593  0.8234 -0.4385
 2068TIP3    H227840   2.925   3.071   2.196 -0.2734  0.9337 -0.0956
 2069TIP3   OH227841   1.415   2.913   8.358 -0.3435 -0.8282  0.4075
 2069TIP3    H127842   1.451   2.826   8.376 -0.6005 -1.0298 -0.0127
 2069TIP3    H227843   1.356   2.930   8.431 -1.2260 -1.5474 -0.1122
 2070TIP3   OH227844   5.920   0.855   1.617  0.3746  0.2300  0.4854
 2070TIP3    H127845   5.838   0.841   1.568  0.3513 -1.0399  0.8569
 2070TIP3    H227846   5.972   0.911   1.559 -1.6763  3.2225  1.2832
 2071TIP3   OH227847   5.049   3.801   2.105  0.4324 -0.1027 -0.1568
 2071TIP3    H127848   5.138   3.784   2.135 -0.6881 -2.5937  2.1050
 2071TIP3    H227849   4.997   3.807   2.185 -1.6553 -0.0484 -1.4493
 2072TIP3   OH227850   1.938   2.121   1.237 -0.0864  0.3160 -0.6359
 2072TIP3    H127851   1.987   2.203   1.239 -0.5243  0.5652  0.0736
 2072TIP3    H227852   1.914   2.110   1.144  1.6368 -0.0290 -1.0770
 2073TIP3   OH227853   2.454   1.501   0.440 -0.0455 -0.1230  0.6941
 2073TIP3    H127854   2.501   1.446   0.377 -1.5826 -1.9972  1.1220
 2073TIP3    H227855   2.412   1.568   0.386  0.3280 -0.4697 -0.0484
 2074TIP3   OH227856   5.498   6.377   1.000  0.2145 -0.2398 -0.0259
 2074TIP3    H127857   5.472   6.387   1.092 -0.7519 -0.2517 -0.2943
 2074TIP3    H227858   5.594   6.378   1.003  0.2342  2.3208  0.6961
 2075TIP3   OH227859   4.376   2.723   8.148 -0.6836 -0.3062 -0.0336
 2075TIP3    H127860   4.337   2.741   8.062 -1.1680 -2.2558 -0.2665
 2075TIP3    H227861   4.356   2.630   8.164 -0.6425  0.0346  2.2152
 2076TIP3   OH227862   4.856   6.358   0.123  0.2053 -0.2759  1.0210
 2076TIP3    H127863   4.806   6.279   0.103  0.7121 -0.4485  0.3746
 2076TIP3    H227864   4.876   6.395   0.037  0.8206  0.0097  1.2840
 2077TIP3   OH227865   4.675   1.792   0.279 -0.2589  0.7997  0.4273
 2077TIP3    H127866   4.726   1.873   0.270 -0.4386  0.9456  0.7037
 2077TIP3    H227867   4.619   1.807   0.356 -1.0495  0.8181 -0.1437
 2078TIP3   OH227868   5.027   3.459   1.652  0.7502  0.1623  0.5634
 2078TIP3    H127869   5.104   3.485   1.602  0.5535  1.0286  0.6944
 2078TIP3    H227870   4.974   3.538   1.657 -1.2553 -0.9518 -1.4862
 2079TIP3   OH227871   5.764   1.983   2.132 -0.7386 -0.1682 -0.0721
 2079TIP3    H127872   5.755   2.078   2.127 -0.6888 -0.1595  0.0227
 2079TIP3    H227873   5.780   1.964   2.224  1.0153 -0.1221 -0.3421
 2080TIP3   OH227874   2.044   5.341   0.159  0.0237  0.0932 -0.1714
 2080TIP3    H127875   2.013   5.426   0.129  0.4968  0.0153 -0.9252
 2080TIP3    H227876   2.140   5.347   0.154  0.0587 -0.5209 -0.3728
 2081TIP3   OH227877   3.088   4.605   7.265  0.4725 -0.6671 -0.3893
 2081TIP3    H127878   3.143   4.529   7.242  2.7606 -0.3261  3.1007
 2081TIP3    H227879   3.129   4.678   7.219  0.2400 -1.0700 -1.2483
 2082TIP3   OH227880   6.907   5.631   0.513 -0.9827 -0.2046 -0.0704
 2082TIP3    H127881   6.832   5.592   0.467 -0.6492 -0.4124 -0.4458
 2082TIP3    H227882   6.925   5.712   0.465 -1.5385  0.3082  0.5775
 2083TIP3   OH227883   3.203   1.130   2.246  0.3040 -0.2101 -0.0279
 2083TIP3    H127884   3.246   1.046   2.257 -1.5621 -1.2361 -0.1069
 2083TIP3    H227885   3.130   1.128   2.308  0.0314  1.2246 -0.2588
 2084TIP3   OH227886   4.706   3.756   1.946  0.0532 -0.1736  1.1719
 2084TIP3    H127887   4.629   3.759   1.889 -0.1280 -2.2909  1.2401
 2084TIP3    H227888   4.754   3.837   1.925 -0.8648 -0.0659 -0.7558
 2085TIP3   OH227889   0.228   1.777   2.237  0.2913 -0.1056  0.4510
 2085TIP3    H127890   0.136   1.767   2.260  0.5246  1.0451  2.0310
 2085TIP3    H227891   0.226   1.825   2.154 -0.5186 -1.1729 -0.1790
 2086TIP3   OH227892   6.687   2.646   7.854  0.7520  0.0562  0.1236
 2086TIP3    H127893   6.694   2.560   7.813  0.0335  0.2746 -0.4785
 2086TIP3    H227894   6.639   2.699   7.791 -1.4148  0.1012  1.7090
 2087TIP3   OH227895   4.940   0.854   7.015 -0.8030 -0.2161  0.0077
 2087TIP3    H127896   4.910   0.765   6.995 -0.5134 -0.4587  0.6249
 2087TIP3    H227897   4.993   0.879   6.939  0.0092 -0.9947  0.3066
 2088TIP3   OH227898   1.297   4.423   7.382  0.6516 -0.3190  0.2577
 2088TIP3    H127899   1.268   4.335   7.408 -2.6168  0.4232 -0.3814
 2088TIP3    H227900   1.229   4.481   7.415 -0.0638  1.4083 -3.6861
 2089TIP3   OH227901   1.167   5.750   2.476 -0.4799  0.1092 -0.5359
 2089TIP3    H127902   1.197   5.838   2.453 -0.4693  0.4078  0.5785
 2089TIP3    H227903   1.166   5.748   2.571 -1.2661 -0.8373 -0.5373
 2090TIP3   OH227904   0.033   4.406   1.150  0.3412  0.0254 -0.2885
 2090TIP3    H127905   0.043   4.360   1.233 -0.7604 -0.6443 -0.4965
 2090TIP3    H227906   0.117   4.396   1.106  0.2709 -1.4417 -0.1416
 2091TIP3   OH227907   2.444   2.919   2.766 -0.1896 -0.1556 -0.5625
 2091TIP3    H127908   2.463   2.948   2.676  0.2456  0.8922 -0.1507
 2091TIP3    H227909   2.529   2.920   2.810 -0.7536  2.2536  0.6558
 2092TIP3   OH227910   4.254   5.313   0.321  0.1297  0.0554  0.1262
 2092TIP3    H127911   4.242   5.399   0.282 -0.0476 -0.8009 -1.8064
 2092TIP3    H227912   4.334   5.321   0.374 -0.2920  1.5753  0.5758
 2093TIP3   OH227913   0.635   6.927   1.989  0.3754 -0.2811  0.2728
 2093TIP3    H127914   0.570   6.866   2.023 -0.7627  1.4024  1.2866
 2093TIP3    H227915   0.586   6.983   1.929  0.7339  1.3008  1.3939
 2094TIP3   OH227916   0.292   4.436   3.251  0.2931  0.3870  0.0063
 2094TIP3    H127917   0.257   4.385   3.177 -0.3651 -2.7481  2.2643
 2094TIP3    H227918   0.233   4.511   3.259 -0.0349  0.4317 -2.1482
 2095TIP3   OH227919   2.758   1.212   1.488 -0.1587  0.0169 -0.2222
 2095TIP3    H127920   2.738   1.165   1.569 -2.0264 -0.7189 -1.0470
 2095TIP3    H227921   2.819   1.154   1.442  1.8159  0.9635  1.1020
 2096TIP3   OH227922   3.039   4.891   2.709 -0.3665  0.2951  0.7137
 2096TIP3    H127923   3.072   4.839   2.782 -1.2165 -0.3907  0.6145
 2096TIP3    H227924   2.944   4.892   2.721 -0.7775 -1.8685 -1.7008
 2097TIP3   OH227925   2.273   5.747   0.251  0.4343 -0.0335  0.3474
 2097TIP3    H127926   2.270   5.773   0.343 -0.3941  2.2933 -0.2739
 2097TIP3    H227927   2.358   5.778   0.221 -0.3438  1.6459 -0.2644
 2098TIP3   OH227928   0.223   3.319   2.161 -0.1047  0.1042  0.4219
 2098TIP3    H127929   0.227   3.326   2.066  0.0327  2.1150  0.5140
 2098TIP3    H227930   0.188   3.232   2.178  1.7742 -1.1007 -1.4084
 2099TIP3   OH227931   6.192   4.412   0.572 -0.1419  0.0747  0.4426
 2099TIP3    H127932   6.176   4.345   0.505 -0.3449  0.0500  0.5134
 2099TIP3    H227933   6.254   4.371   0.632  0.8767  0.4880 -0.3047
 2100TIP3   OH227934   3.657   5.587   2.681  0.5443  0.2324  0.1156
 2100TIP3    H127935   3.747   5.595   2.652  0.8022 -0.7479  0.5750
 2100TIP3    H227936   3.629   5.676   2.701  1.6111  0.4833  0.5450
 2101TIP3   OH227937   1.755   5.717   2.048  0.3601  0.2046  0.0861
 2101TIP3    H127938   1.749   5.804   2.086  1.2490  0.9898 -1.4829
 2101TIP3    H227939   1.698   5.663   2.104 -1.1017  1.9851  0.4375
 2102TIP3   OH227940   3.257   3.509   7.825  0.4606 -0.1340  0.5294
 2102TIP3    H127941   3.179   3.508   7.770  1.3341 -0.6255 -0.7372
 2102TIP3    H227942   3.231   3.459   7.903 -1.1276  1.4663  1.1107
 2103TIP3   OH227943   6.536   5.857   1.829  0.2335 -0.0204 -0.1443
 2103TIP3    H127944   6.447   5.882   1.855  0.0627 -0.6141 -0.1486
 2103TIP3    H227945   6.552   5.775   1.875  0.6783 -0.0554 -0.3608
 2104TIP3   OH227946   7.019   1.422   0.292  0.0907 -0.5812 -0.4239
 2104TIP3    H127947   6.969   1.480   0.235  0.3810  0.5241  0.4003
 2104TIP3    H227948   6.956   1.397   0.361  0.3572 -0.0625  0.0165
 2105TIP3   OH227949   3.942   4.701   8.353  0.4069 -0.4021 -0.3852
 2105TIP3    H127950   3.864   4.666   8.396  0.1802  2.2177  1.5989
 2105TIP3    H227951   3.965   4.779   8.405  1.1907  2.0373 -4.0137
 2106TIP3   OH227952   2.222   4.847   2.603  0.4766 -0.0406  0.3454
 2106TIP3    H127953   2.222   4.753   2.622  0.0272 -0.0065  0.5333
 2106TIP3    H227954   2.144   4.860   2.548  1.4346 -0.0472 -1.0690
 2107TIP3   OH227955   1.439   6.161   1.207 -0.2816 -0.1849 -0.8178
 2107TIP3    H127956   1.511   6.105   1.176 -1.8396 -0.9797 -3.3222
 2107TIP3    H227957   1.384   6.103   1.259  0.1305  0.0728 -0.0760
 2108TIP3   OH227958   7.022   3.485   0.905  0.7792  0.4570  0.3248
 2108TIP3    H127959   7.109   3.447   0.915  0.8036  0.7827  1.4790
 2108TIP3    H227960   7.000   3.471   0.812  1.6545 -0.4663  0.2418
 2109TIP3   OH227961   1.421   2.273   1.577 -0.2565  0.4175 -0.2620
 2109TIP3    H127962   1.355   2.303   1.639  0.3869  1.8431 -0.2252
 2109TIP3    H227963   1.478   2.215   1.628 -0.3144  0.7869  0.2315
 2110TIP3   OH227964   0.215   2.382   2.176 -0.1536 -1.1855  0.4702
 2110TIP3    H127965   0.247   2.472   2.183 -0.3808 -0.9340 -1.2896
 2110TIP3    H227966   0.271   2.332   2.235  1.1644 -0.1770  0.1321
 2111TIP3   OH227967   1.245   5.983   3.002 -0.1012 -0.6717 -0.1588
 2111TIP3    H127968   1.247   6.076   2.979  0.8946 -0.7322 -0.3832
 2111TIP3    H227969   1.179   5.976   3.070 -0.4115  0.1496 -0.3649
 2112TIP3   OH227970   0.418   1.987   2.780 -0.4170 -0.1848 -0.0959
 2112TIP3    H127971   0.448   2.050   2.714 -0.4084  0.0421  0.1222
 2112TIP3    H227972   0.476   2.001   2.855 -1.4463  0.7007  0.5702
 2113TIP3   OH227973   6.435   2.503   1.339  0.3432 -0.0928 -1.2207
 2113TIP3    H127974   6.418   2.551   1.420 -0.7433 -0.4863 -1.2024
 2113TIP3    H227975   6.494   2.560   1.290 -1.3775  1.5901 -1.4631
 2114TIP3   OH227976   2.215   0.203   2.352  0.1931  0.0269 -0.1960
 2114TIP3    H127977   2.188   0.292   2.328  1.3467  0.7076  0.9082
 2114TIP3    H227978   2.153   0.177   2.420 -0.2806 -0.1018 -0.6752
 2115TIP3   OH227979   0.472   6.144   1.348 -0.0835  0.8890 -0.0168
 2115TIP3    H127980   0.463   6.050   1.365 -0.7221  1.1058  0.9067
 2115TIP3    H227981   0.437   6.186   1.426 -1.2727  1.9257 -1.0530
 2116TIP3   OH227982   3.673   4.434   8.207 -0.1434  0.1389  0.6760
 2116TIP3    H127983   3.745   4.426   8.270 -0.0332 -1.2254  0.4049
 2116TIP3    H227984   3.615   4.500   8.245  1.0589  1.0039  1.0779
 2117TIP3   OH227985   2.982   4.465   0.705  0.0943  0.1839  0.3436
 2117TIP3    H127986   3.008   4.548   0.746 -0.5440  0.7773 -0.4064
 2117TIP3    H227987   2.886   4.468   0.705  0.0147 -1.2564  1.6663
 2118TIP3   OH227988   6.378   2.903   2.376 -0.3059  0.1575 -0.6939
 2118TIP3    H127989   6.330   2.941   2.449  1.1914  0.3860  0.2255
 2118TIP3    H227990   6.343   2.814   2.367 -0.0638 -0.1146  0.7731
 2119TIP3   OH227991   0.613   0.459   1.633  0.1595  0.4588 -0.3700
 2119TIP3    H127992   0.627   0.437   1.725 -1.1496 -0.2259 -0.3046
 2119TIP3    H227993   0.689   0.423   1.587  0.4075  0.0540  0.3436
 2120TIP3   OH227994   1.988   6.719   2.065 -0.3629 -1.0238  0.3017
 2120TIP3    H127995   1.931   6.715   2.142  0.3853 -1.3893  0.8506
 2120TIP3    H227996   1.960   6.798   2.019 -1.6981 -1.5015  0.2379
 2121TIP3   OH227997   5.449   3.100   1.666 -0.3429 -0.7488 -0.0449
 2121TIP3    H127998   5.424   3.187   1.633 -0.6678  0.0960  2.2902
 2121TIP3    H227999   5.379   3.043   1.634  0.6510 -0.5258 -2.9075
 2122TIP3   OH228000   3.932   4.483   2.191  0.0510 -0.1506  0.2340
 2122TIP3    H128001   3.906   4.531   2.112  2.0922 -0.6623 -0.8088
 2122TIP3    H228002   3.850   4.447   2.225 -1.2803  2.4015 -0.0279
 2123TIP3   OH228003   1.451   0.327   0.967  0.2236  0.3307 -0.5538
 2123TIP3    H128004   1.446   0.395   1.034  0.3718 -0.6383  0.4706
 2123TIP3    H228005   1.538   0.339   0.928  0.3688  0.5532 -0.1708
 2124TIP3   OH228006   6.787   1.737   8.268  0.2506  0.3827 -0.6828
 2124TIP3    H128007   6.842   1.763   8.342 -1.4204  1.1816  0.3550
 2124TIP3    H228008   6.845   1.740   8.193  2.1812 -1.0715  0.6393
 2125TIP3   OH228009   5.167   1.304   2.135 -0.6642 -0.1683  0.0791
 2125TIP3    H128010   5.248   1.255   2.142 -0.2109  0.4941 -0.3254
 2125TIP3    H228011   5.194   1.392   2.107 -1.3265  0.6824  1.9222
 2126TIP3   OH228012   3.226   0.645   1.659  0.2798 -0.1682 -0.0733
 2126TIP3    H128013   3.208   0.587   1.732 -1.2000  0.1555 -0.1493
 2126TIP3    H228014   3.318   0.631   1.639  0.7468 -0.1690  1.9229
 2127TIP3   OH228015   2.680   4.253   0.767  0.4637 -0.3291 -0.3587
 2127TIP3    H128016   2.696   4.170   0.723 -1.0865 -0.6849 -0.3021
 2127TIP3    H228017   2.686   4.319   0.698  1.9772 -0.4236 -0.3536
 2128TIP3   OH228018   2.501   3.123   7.894  0.2682  0.6253 -0.2439
 2128TIP3    H128019   2.441   3.171   7.837  0.7168 -0.5737 -1.7839
 2128TIP3    H228020   2.514   3.181   7.969 -1.6987  1.5127 -0.5209
 2129TIP3   OH228021   0.711   6.266   7.456  0.2705 -0.1045 -0.2476
 2129TIP3    H128022   0.776   6.264   7.526 -0.5701  2.1935  0.7072
 2129TIP3    H228023   0.757   6.304   7.381  0.6016 -0.5484 -0.2703
 2130TIP3   OH228024   5.922   4.663   0.937 -0.5762 -0.8821  0.3731
 2130TIP3    H128025   5.997   4.718   0.914 -0.0637 -1.9737 -0.6744
 2130TIP3    H228026   5.859   4.724   0.976 -0.0122  0.4398 -0.6836
 2131TIP3   OH228027   3.673   2.119   7.699  0.1206  0.6927  0.3890
 2131TIP3    H128028   3.650   2.048   7.759  0.2548 -1.0754 -1.5084
 2131TIP3    H228029   3.725   2.179   7.751 -1.7362  0.4921  2.6129
 2132TIP3   OH228030   5.008   1.499   7.661  0.2229  0.1112  0.5863
 2132TIP3    H128031   5.039   1.519   7.573 -2.1635  0.1925 -0.2955
 2132TIP3    H228032   5.050   1.416   7.683  0.5307 -0.1252 -0.8131
 2133TIP3   OH228033   0.098   0.147   0.896 -0.3673  0.1799 -0.3058
 2133TIP3    H128034   0.192   0.152   0.878 -0.3502 -1.5326 -0.9064
 2133TIP3    H228035   0.089   0.172   0.988  0.9535 -1.6073  0.3644
 2134TIP3   OH228036   1.023   5.941   0.495 -0.2388  0.5052  0.2348
 2134TIP3    H128037   0.962   5.885   0.447  0.4542  0.5164 -0.6998
 2134TIP3    H228038   0.994   6.030   0.478  1.3950  0.6690 -2.2811
 2135TIP3   OH228039   6.119   1.666   7.522 -0.3952  0.0472 -0.2930
 2135TIP3    H128040   6.174   1.651   7.599 -0.9835  0.7390  0.2742
 2135TIP3    H228041   6.161   1.614   7.453  0.5465 -0.0212  0.3038
 2136TIP3   OH228042   1.691   0.420   2.273 -1.1579 -0.1160 -0.8587
 2136TIP3    H128043   1.690   0.503   2.225  1.4520 -0.2603 -1.3339
 2136TIP3    H228044   1.701   0.445   2.365 -0.3757  0.1371 -1.0004
 2137TIP3   OH228045   1.306   6.875   7.643  0.2297 -0.1708  0.4710
 2137TIP3    H128046   1.254   6.877   7.723  1.2309 -2.5198  1.2612
 2137TIP3    H228047   1.250   6.917   7.577 -1.5564 -0.2392  1.8633
 2138TIP3   OH228048   5.036   6.027   2.003 -0.3273 -0.1061 -0.7613
 2138TIP3    H128049   4.991   6.098   2.049 -0.7858 -0.3929 -0.7670
 2138TIP3    H228050   5.126   6.058   1.996  0.3558 -1.0264  2.3958
 2139TIP3   OH228051   1.588   6.569   8.059 -0.0080 -0.3324  0.1351
 2139TIP3    H128052   1.521   6.553   8.125  1.1504 -0.3789  1.3307
 2139TIP3    H228053   1.539   6.574   7.976 -1.3541 -1.5018  0.8124
 2140TIP3   OH228054   5.858   1.753   7.455 -0.4724 -0.3827  0.7776
 2140TIP3    H128055   5.812   1.730   7.374 -0.1499  1.8012 -0.0994
 2140TIP3    H228056   5.941   1.706   7.449  0.5384  1.4612 -1.3706
 2141TIP3   OH228057   0.706   4.568   1.493 -0.3731  0.4503 -0.3634
 2141TIP3    H128058   0.661   4.585   1.410 -1.1836 -0.3331 -0.0975
 2141TIP3    H228059   0.780   4.513   1.470  0.8616  2.2242 -0.8908
 2142TIP3   OH228060   1.645   2.200   2.355 -0.0684 -0.2758  0.8282
 2142TIP3    H128061   1.670   2.280   2.401 -1.3664 -0.5478  2.1197
 2142TIP3    H228062   1.653   2.221   2.262 -3.8265  2.7085  0.8986
 2143TIP3   OH228063   3.331   0.851   1.202 -0.3347 -0.0401 -0.3982
 2143TIP3    H128064   3.327   0.808   1.117  2.4348  1.9095 -1.6559
 2143TIP3    H228065   3.278   0.930   1.192 -0.3914 -0.0466 -0.1551
 2144TIP3   OH228066   4.490   3.592   1.024 -0.1464 -0.5454 -0.0046
 2144TIP3    H128067   4.546   3.529   1.069 -0.3934  1.2245  3.0662
 2144TIP3    H228068   4.550   3.651   0.979  0.3611 -0.2289  1.0616
 2145TIP3   OH228069   2.672   1.853   0.374 -0.5907  0.1441  0.4133
 2145TIP3    H128070   2.648   1.791   0.305 -0.6466  0.7038 -0.0810
 2145TIP3    H228071   2.746   1.811   0.419 -1.5338 -0.9174  1.0026
 2146TIP3   OH228072   1.908   3.283   2.591  0.1146  0.2234 -0.2833
 2146TIP3    H128073   1.913   3.379   2.592  2.3286  0.1514 -1.0723
 2146TIP3    H228074   1.992   3.254   2.626  0.5617 -1.4242 -2.5209
 2147TIP3   OH228075   3.299   5.982   1.145  0.7663 -0.5505  0.3733
 2147TIP3    H128076   3.253   6.018   1.221  0.9648 -0.9267  0.6757
 2147TIP3    H228077   3.381   5.947   1.181  0.6230 -1.2088  0.0752
 2148TIP3   OH228078   4.258   0.343   8.219  1.2490 -0.5974  0.7241
 2148TIP3    H128079   4.205   0.381   8.289 -0.8899 -0.0955 -1.0658
 2148TIP3    H228080   4.344   0.384   8.230 -0.2234  3.0053  0.4441
 2149TIP3   OH228081   2.457   2.696   2.388 -0.5210 -0.6569  0.0329
 2149TIP3    H128082   2.404   2.721   2.464 -1.9990 -2.1092 -0.4732
 2149TIP3    H228083   2.507   2.620   2.418  2.6299  1.5935  1.0137
 2150TIP3   OH228084   2.382   1.380   6.956 -0.1977  0.0583 -0.3149
 2150TIP3    H128085   2.360   1.465   6.994 -1.2291 -0.1317 -0.4676
 2150TIP3    H228086   2.317   1.319   6.990 -1.3652 -0.0637 -2.5327
 2151TIP3   OH228087   6.655   4.976   0.597  0.0338 -1.1678  0.6797
 2151TIP3    H128088   6.571   4.931   0.605 -1.5608  1.2409 -1.1647
 2151TIP3    H228089   6.651   5.045   0.663  0.1420 -0.4740 -0.0272
 2152TIP3   OH228090   2.837   1.351   7.510 -0.2536  0.3710  0.6678
 2152TIP3    H128091   2.890   1.297   7.452  0.0981 -0.4119  1.6770
 2152TIP3    H228092   2.873   1.439   7.502 -0.7378  0.4592 -0.8875
 2153TIP3   OH228093   1.784   2.424   1.096  0.0078 -0.0493  0.0016
 2153TIP3    H128094   1.876   2.404   1.082  0.0428 -0.8690  1.2316
 2153TIP3    H228095   1.771   2.509   1.053  0.4073 -1.5665 -3.4913
 2154TIP3   OH228096   0.531   3.846   2.129  0.1846 -0.1780 -0.2267
 2154TIP3    H128097   0.540   3.759   2.091  2.7913  0.9166 -2.4614
 2154TIP3    H228098   0.523   3.905   2.053 -0.8819  1.6000  1.1840
 2155TIP3   OH228099   1.548   2.803   2.617 -0.5589 -0.1552  0.1517
 2155TIP3    H128100   1.511   2.863   2.553 -0.4459 -1.1918 -0.9066
 2155TIP3    H228101   1.633   2.778   2.581 -0.3769 -0.5549  0.8328
 2156TIP3   OH228102   2.711   2.329   0.531  0.3550 -0.2113  0.4277
 2156TIP3    H128103   2.801   2.362   0.535 -0.2390  2.4370 -2.9748
 2156TIP3    H228104   2.712   2.263   0.461 -0.5103  0.9843 -0.7860
 2157TIP3   OH228105   4.792   4.911   1.529  0.3096 -0.6163  0.3452
 2157TIP3    H128106   4.723   4.939   1.468  0.6165 -0.8838 -0.1394
 2157TIP3    H228107   4.746   4.886   1.608 -0.1264 -0.5216  0.1242
 2158TIP3   OH228108   0.588   6.525   1.221 -0.4719  0.0876  0.1393
 2158TIP3    H128109   0.684   6.528   1.220 -0.5132  2.1751 -0.7871
 2158TIP3    H228110   0.565   6.537   1.313  0.1430  1.3757  0.1391
 2159TIP3   OH228111   1.311   1.616   2.115 -0.0367 -0.2021 -0.2788
 2159TIP3    H128112   1.397   1.657   2.116 -0.5420  0.8940 -0.1028
 2159TIP3    H228113   1.302   1.581   2.027  0.4714 -0.0751 -0.3843
 2160TIP3   OH228114   1.894   5.114   0.589 -0.3734 -0.9226 -0.0987
 2160TIP3    H128115   1.835   5.103   0.515 -0.6817  1.6820 -0.3554
 2160TIP3    H228116   1.959   5.177   0.557 -0.5945  0.3723  1.8519
 2161TIP3   OH228117   6.283   1.964   7.357  0.0975 -0.4078  0.1882
 2161TIP3    H128118   6.195   1.986   7.327  0.5208  0.9113 -0.1263
 2161TIP3    H228119   6.284   1.986   7.450  1.1822  3.2950 -0.5485
 2162TIP3   OH228120   0.504   3.976   3.018  0.2555 -0.2958 -0.2248
 2162TIP3    H128121   0.546   4.062   3.022  0.0447 -0.2354  0.8731
 2162TIP3    H228122   0.577   3.914   3.014  0.4203 -0.0359 -2.7204
 2163TIP3   OH228123   5.571   5.320   8.383 -0.4983 -0.2948  0.3559
 2163TIP3    H128124   5.571   5.292   8.475  0.8650 -1.5027  0.0244
 2163TIP3    H228125   5.569   5.416   8.387  1.2532 -0.2577  1.7206
 2164TIP3   OH228126   4.487   4.759   7.625 -0.5196 -0.4941  0.2236
 2164TIP3    H128127   4.543   4.684   7.641  0.0755 -0.0539  0.2389
 2164TIP3    H228128   4.455   4.784   7.711 -0.9095 -0.8677  0.1920
 2165TIP3   OH228129   3.688   1.313   8.057 -1.1400  0.3470  0.2222
 2165TIP3    H128130   3.699   1.243   8.121 -1.9106  1.5507  1.7330
 2165TIP3    H228131   3.653   1.269   7.979  0.7141 -1.2856  0.2471
 2166TIP3   OH228132   4.255   1.596   2.382 -0.1577  0.0814 -0.3530
 2166TIP3    H128133   4.291   1.574   2.468  1.0003  0.3727 -0.7419
 2166TIP3    H228134   4.188   1.663   2.401 -0.1628 -0.1066  0.3434
 2167TIP3   OH228135   5.989   6.706   1.976  0.6402  0.4311  0.3462
 2167TIP3    H128136   6.004   6.628   2.030 -3.9988 -0.0716  1.4070
 2167TIP3    H228137   5.952   6.671   1.895 -0.2933  1.4311  0.3251
 2168TIP3   OH228138   1.973   5.813   2.873  0.1634 -0.5810  0.0256
 2168TIP3    H128139   2.059   5.851   2.893 -0.4176  0.6995  0.1958
 2168TIP3    H228140   1.922   5.828   2.953 -0.7156  0.1814 -0.6668
 2169TIP3   OH228141   2.959   2.574   1.042  0.5523  0.1181 -0.1180
 2169TIP3    H128142   2.930   2.498   1.092  0.0289  0.3602 -0.0339
 2169TIP3    H228143   2.919   2.648   1.088  0.2946  0.3668 -0.7365
 2170TIP3   OH228144   5.464   5.652   0.679  0.2390 -0.7117 -0.4565
 2170TIP3    H128145   5.441   5.605   0.759  1.4896 -1.0943 -0.2902
 2170TIP3    H228146   5.548   5.693   0.698 -0.6531  1.3662 -0.7196
 2171TIP3   OH228147   4.217   0.773   7.002 -0.5101 -0.2815  0.1283
 2171TIP3    H128148   4.145   0.737   7.054 -0.4941  0.5816  0.7771
 2171TIP3    H228149   4.215   0.867   7.021  1.2195 -0.3271  0.7040
 2172TIP3   OH228150   0.966   5.222   0.484 -0.1225  0.0926 -0.3822
 2172TIP3    H128151   0.904   5.210   0.556  1.1984 -0.4616  0.7033
 2172TIP3    H228152   1.052   5.207   0.523  0.5930 -0.9351 -2.2218
 2173TIP3   OH228153   6.864   3.522   1.488  0.0531 -0.2727 -0.7082
 2173TIP3    H128154   6.797   3.565   1.540  0.0529 -1.2768  0.1415
 2173TIP3    H228155   6.815   3.480   1.417  0.0658  1.1830 -1.6299
 2174TIP3   OH228156   4.725   0.757   0.008  0.5353  0.1247  0.0192
 2174TIP3    H128157   4.657   0.804   0.056 -0.1943 -1.3227  0.4614
 2174TIP3    H228158   4.807   0.795   0.039 -0.0031  3.7259 -2.3894
 2175TIP3   OH228159   2.562   0.898   2.344 -0.1744  0.0624  0.8008
 2175TIP3    H128160   2.582   0.885   2.251 -0.5721  3.1740  0.1488
 2175TIP3    H228161   2.614   0.832   2.390 -1.5581 -2.9880 -1.6574
 2176TIP3   OH228162   3.487   1.324   0.789  0.4940 -0.2821  0.6897
 2176TIP3    H128163   3.418   1.362   0.735 -0.4336  1.9083  3.1609
 2176TIP3    H228164   3.528   1.257   0.734  0.5311  2.5622 -3.1491
 2177TIP3   OH228165   5.843   2.344   6.590 -0.8826  0.3011 -0.6309
 2177TIP3    H128166   5.936   2.320   6.590 -0.8013  0.5790 -1.4921
 2177TIP3    H228167   5.798   2.267   6.625 -0.4309 -0.2925 -1.3339
 2178TIP3   OH228168   1.057   2.291   0.276  0.0954 -0.0635  0.7732
 2178TIP3    H128169   1.084   2.383   0.277 -0.8755  0.2306  1.4292
 2178TIP3    H228170   1.139   2.242   0.267  0.8216  0.8090  2.2403
 2179TIP3   OH228171   4.548   4.180   8.171  0.1059 -0.3915 -0.5552
 2179TIP3    H128172   4.620   4.123   8.199 -1.0394 -1.2446  0.7570
 2179TIP3    H228173   4.592   4.256   8.133  1.7122 -0.8659  0.2551
 2180TIP3   OH228174   3.670   6.120   2.596  0.0467 -0.4161  0.1791
 2180TIP3    H128175   3.606   6.121   2.668  0.2612 -0.5490  0.3757
 2180TIP3    H228176   3.706   6.209   2.595 -1.2818  0.1361 -0.9803
 2181TIP3   OH228177   4.475   0.428   7.871  0.1161 -0.1380 -0.0311
 2181TIP3    H128178   4.499   0.476   7.791 -0.3485  1.3283  0.6671
 2181TIP3    H228179   4.558   0.393   7.903  0.6116  0.8534 -0.1815
 2182TIP3   OH228180   2.112   0.147   2.602  0.0012  0.1747  0.2294
 2182TIP3    H128181   2.022   0.118   2.622 -0.6111  1.8070 -0.0244
 2182TIP3    H228182   2.162   0.126   2.681 -0.5832 -0.7763  0.3659
 2183TIP3   OH228183   6.569   1.007   0.316 -0.2502 -0.3508  0.8030
 2183TIP3    H128184   6.654   0.980   0.282 -1.2024 -0.3132 -1.8488
 2183TIP3    H228185   6.577   1.101   0.331  0.0300 -0.2421  0.0068
 2184TIP3   OH228186   5.347   0.678   0.293  0.1381  0.6284 -0.1395
 2184TIP3    H128187   5.359   0.702   0.201 -0.7565 -0.6282 -0.6064
 2184TIP3    H228188   5.430   0.638   0.318  0.9408  2.3298  0.0837
 2185TIP3   OH228189   1.104   3.929   0.080  0.8226 -0.3363  0.2388
 2185TIP3    H128190   1.071   3.845   0.113 -1.3665  0.2663 -0.2412
 2185TIP3    H228191   1.056   3.944  -0.001  0.2320  1.9266  0.9262
 2186TIP3   OH228192   6.443   6.142   1.163 -0.5874  0.3664  0.1277
 2186TIP3    H128193   6.457   6.048   1.170 -1.2595  0.1790 -0.8317
 2186TIP3    H228194   6.509   6.181   1.221  0.7018 -0.6257 -0.6167
 2187TIP3   OH228195   2.198   2.869   1.013 -0.2752  0.1973 -0.2682
 2187TIP3    H128196   2.166   2.953   0.978 -0.2190 -0.4893 -2.0443
 2187TIP3    H228197   2.235   2.824   0.938  2.5964 -0.1528  1.2411
 2188TIP3   OH228198   2.617   6.476   2.624  0.0769  0.3336 -0.0491
 2188TIP3    H128199   2.666   6.475   2.542  1.4275  3.5800  0.5860
 2188TIP3    H228200   2.590   6.567   2.635 -3.5702 -0.7272  1.1958
 2189TIP3   OH228201   7.017   2.079   7.085 -0.3780 -0.6810  1.1087
 2189TIP3    H128202   7.043   1.989   7.065  2.2526  0.3567 -0.7746
 2189TIP3    H228203   6.942   2.095   7.028  0.5009 -1.0507 -0.2019
 2190TIP3   OH228204   4.117   6.864   7.341  0.0311 -0.0661  0.1222
 2190TIP3    H128205   4.202   6.879   7.300  0.2584 -1.7521 -0.0723
 2190TIP3    H228206   4.054   6.866   7.269 -0.2139  1.7051  0.3251
 2191TIP3   OH228207   2.144   3.975   8.315  0.2723  0.2916  0.2171
 2191TIP3    H128208   2.127   3.885   8.344  2.8694 -0.2275  0.3531
 2191TIP3    H228209   2.079   3.991   8.246 -1.3142 -1.0540  1.3046
 2192TIP3   OH228210   1.821   1.466   2.950  0.4503  0.3634  0.1061
 2192TIP3    H128211   1.791   1.384   2.989  0.5294  1.1195  1.8652
 2192TIP3    H228212   1.907   1.444   2.913  0.3057 -0.4288  0.2187
 2193TIP3   OH228213   0.239   7.019   1.980 -0.0195 -0.4514 -0.0727
 2193TIP3    H128214   0.314   6.979   2.025  1.3611 -0.1796 -2.0042
 2193TIP3    H228215   0.274   7.045   1.895 -3.0718 -3.4569 -2.5367
 2194TIP3   OH228216   1.591   6.779   1.217  0.0795  0.3135 -0.5333
 2194TIP3    H128217   1.664   6.790   1.156  0.6628  1.7435  0.3710
 2194TIP3    H228218   1.539   6.859   1.208 -1.4377 -0.6792 -1.1719
 2195TIP3   OH228219   0.352   6.059   2.922  0.0011 -0.3081 -0.2189
 2195TIP3    H128220   0.416   6.018   2.863 -0.7182 -3.2536  0.8803
 2195TIP3    H228221   0.317   5.987   2.973 -0.3211  1.9244  3.0152
 2196TIP3   OH228222   0.059   6.768   6.833  0.1389  0.0139 -0.4819
 2196TIP3    H128223   0.135   6.779   6.777  1.2622  2.3113  1.2964
 2196TIP3    H228224  -0.004   6.833   6.801  0.9112  1.5726  0.9446
 2197TIP3   OH228225   1.936   4.404   1.020  0.7386  0.4629 -0.0850
 2197TIP3    H128226   2.022   4.364   1.008  1.2631  0.4694  2.9183
 2197TIP3    H228227   1.935   4.477   0.958  2.8135  0.3346 -0.3473
 2198TIP3   OH228228   2.512   4.248   1.886  0.5549 -0.3173 -0.1243
 2198TIP3    H128229   2.443   4.249   1.953  0.3443 -2.0288 -0.2464
 2198TIP3    H228230   2.482   4.182   1.823  2.6856 -1.7634  0.2565
 2199TIP3   OH228231   6.491   5.509   0.132 -0.2226  0.3664  0.4683
 2199TIP3    H128232   6.471   5.576   0.197  3.0076  3.3658 -1.2646
 2199TIP3    H228233   6.454   5.542   0.050  0.4810 -0.5208 -0.2314
 2200TIP3   OH228234   5.875   2.356   1.367  0.0356 -0.3186  0.4631
 2200TIP3    H128235   5.965   2.378   1.343 -0.8243  2.2819 -0.7597
 2200TIP3    H228236   5.861   2.269   1.329  0.5073  1.2611 -3.9636
 2201TIP3   OH228237   0.574   4.776   2.076 -0.0221  0.4195 -0.3269
 2201TIP3    H128238   0.484   4.745   2.082  0.6345 -1.5853  0.1633
 2201TIP3    H228239   0.622   4.702   2.037  1.5851  1.0362  0.3674
 2202TIP3   OH228240   5.690   1.992   8.171 -0.2030 -0.1247  0.5805
 2202TIP3    H128241   5.732   2.035   8.096  0.6970  1.1031  1.7366
 2202TIP3    H228242   5.628   1.931   8.132  0.0782  0.6410 -1.1573
 2203TIP3   OH228243   2.203   4.606   1.907 -0.6885 -0.4311  0.5167
 2203TIP3    H128244   2.129   4.601   1.845 -0.4918 -1.2567  0.3472
 2203TIP3    H228245   2.223   4.515   1.928  1.3744 -0.3234 -0.7369
 2204TIP3   OH228246   4.356   4.659   2.273 -0.5815 -0.8350 -0.3849
 2204TIP3    H128247   4.288   4.726   2.260 -1.1708 -1.4887 -0.7462
 2204TIP3    H228248   4.374   4.661   2.367  0.6781  1.0394 -0.6211
 2205TIP3   OH228249   3.544   5.726   7.497  0.6245  0.7966  0.2733
 2205TIP3    H128250   3.632   5.696   7.477  0.3548 -0.3107  0.6915
 2205TIP3    H228251   3.523   5.788   7.427  1.8593  1.3579  0.3697
 2206TIP3   OH228252   5.460   3.029   2.271 -0.2909 -0.6192  0.3757
 2206TIP3    H128253   5.448   3.114   2.311  1.5253 -1.0117  1.8821
 2206TIP3    H228254   5.383   2.978   2.296 -1.0731  0.3542 -0.0116
 2207TIP3   OH228255   6.599   5.036   3.057  0.6147  0.8638  0.2120
 2207TIP3    H128256   6.683   5.017   3.100  0.2165 -0.3226  0.5254
 2207TIP3    H228257   6.536   5.039   3.129 -0.3589 -2.8787 -0.2781
 2208TIP3   OH228258   6.339   2.866   7.782  0.2062 -0.0913  0.0227
 2208TIP3    H128259   6.247   2.882   7.760  0.3756  0.9082 -0.0083
 2208TIP3    H228260   6.348   2.896   7.872  0.2576 -1.2270  0.4123
 2209TIP3   OH228261   1.580   4.185   7.827  0.2170  0.1648 -0.4226
 2209TIP3    H128262   1.558   4.175   7.919 -0.0054  2.9066 -0.0949
 2209TIP3    H228263   1.522   4.124   7.782 -0.4468 -0.4316  1.1871
 2210TIP3   OH228264   2.611   0.609   0.954 -0.3170  0.7099 -0.4774
 2210TIP3    H128265   2.666   0.607   1.032  0.6255 -1.0895 -1.1253
 2210TIP3    H228266   2.550   0.681   0.968  0.0351  0.6174  1.7673
 2211TIP3   OH228267   5.467   3.998   8.180  0.1552  0.5586 -0.3307
 2211TIP3    H128268   5.419   4.038   8.107 -0.9190 -0.3580 -0.1602
 2211TIP3    H228269   5.514   3.925   8.141 -0.8231 -0.2423 -0.0380
 2212TIP3   OH228270   0.849   5.387   7.526  0.4295  0.0825 -0.3731
 2212TIP3    H128271   0.784   5.364   7.593  0.2557 -0.4661 -0.7240
 2212TIP3    H228272   0.798   5.398   7.446  0.9140 -1.7716 -0.9763
 2213TIP3   OH228273   5.288   1.293   7.216 -0.4430  0.1429  0.0247
 2213TIP3    H128274   5.372   1.247   7.212  0.1046  1.1309  0.0410
 2213TIP3    H228275   5.248   1.278   7.130 -0.3376 -0.4787  0.0796
 2214TIP3   OH228276   5.171   3.566   6.966  0.1760  0.8423  0.5814
 2214TIP3    H128277   5.126   3.522   7.038 -0.8517  1.0647  0.0948
 2214TIP3    H228278   5.261   3.534   6.971 -0.4852 -1.1456  0.3846
 2215TIP3   OH228279   1.251   4.180   3.953  0.7210  0.7506  0.4401
 2215TIP3    H128280   1.311   4.254   3.954  0.0618  1.3958 -1.9379
 2215TIP3    H228281   1.290   4.119   3.890  0.1111  0.0769  0.7033
 2216TIP3   OH228282   4.347   1.978   7.262  0.0322 -0.6870  0.2580
 2216TIP3    H128283   4.353   2.017   7.175  0.0912 -0.3566  0.4062
 2216TIP3    H228284   4.258   1.942   7.267  0.3211 -1.4848 -0.2565
 2217TIP3   OH228285   2.407   4.197   7.748 -0.0387  0.1967  1.1298
 2217TIP3    H128286   2.441   4.278   7.709 -0.4401 -0.1601  0.0097
 2217TIP3    H228287   2.400   4.217   7.841  0.5317  1.2193  0.9695
 2218TIP3   OH228288   0.292   5.858   1.708  0.0913  0.4562  0.2217
 2218TIP3    H128289   0.325   5.774   1.740 -0.1693  0.3745  0.2780
 2218TIP3    H228290   0.217   5.835   1.654  0.8481  0.5502 -0.9032
 2219TIP3   OH228291   2.009   0.993   2.800  0.5976  0.2212 -0.4578
 2219TIP3    H128292   1.933   1.029   2.755 -0.5247  0.6753  1.7069
 2219TIP3    H228293   2.062   1.069   2.824  0.8248  0.0402 -0.3756
 2220TIP3   OH228294   5.452   4.389   7.865  0.3392 -0.0906 -0.0227
 2220TIP3    H128295   5.545   4.374   7.848  0.5551  2.1928 -1.2955
 2220TIP3    H228296   5.408   4.311   7.829  1.7127 -1.0384  0.2985
 2221TIP3   OH228297   5.105   6.052   0.841 -0.2475 -0.0309 -0.1865
 2221TIP3    H128298   5.181   6.109   0.830 -1.2680  1.3915 -0.0693
 2221TIP3    H228299   5.085   6.022   0.753  0.8582 -1.0091 -0.1354
 2222TIP3   OH228300   1.561   0.544   7.996 -0.1198 -0.1805 -0.1128
 2222TIP3    H128301   1.507   0.486   8.051  0.3256 -1.2201 -0.7295
 2222TIP3    H228302   1.542   0.516   7.906 -0.7146  1.3875 -0.5037
 2223TIP3   OH228303   6.041   3.946   2.744  0.1353  0.0050  0.5021
 2223TIP3    H128304   6.043   3.998   2.825 -1.6330 -2.1545  2.0671
 2223TIP3    H228305   5.956   3.965   2.705  0.6167  0.3615 -0.3874
 2224TIP3   OH228306   4.575   5.088   1.635  0.5849 -0.9443  0.6082
 2224TIP3    H128307   4.604   5.142   1.561 -1.7535  0.9235  0.9426
 2224TIP3    H228308   4.611   5.131   1.712 -0.9547 -0.0219  0.8484
 2225TIP3   OH228309   6.603   6.729   0.657 -0.2184 -0.3093  0.2073
 2225TIP3    H128310   6.609   6.637   0.685 -0.5321 -0.8754 -1.4482
 2225TIP3    H228311   6.663   6.776   0.715  2.1324 -2.0164 -0.7076
 2226TIP3   OH228312   6.309   3.306   3.378 -0.3590 -0.1701  0.1359
 2226TIP3    H128313   6.215   3.306   3.363 -0.1575 -0.4371 -1.3123
 2226TIP3    H228314   6.331   3.399   3.389 -0.6878 -0.0355 -0.3116
 2227TIP3   OH228315   3.037   5.625   8.203  0.1099  0.6298  0.2700
 2227TIP3    H128316   3.068   5.580   8.125 -0.6272  0.1977  0.2113
 2227TIP3    H228317   2.973   5.564   8.242  0.6660  0.7089  1.3595
 2228TIP3   OH228318   5.273   2.618   8.354  0.3396  0.6066  0.6457
 2228TIP3    H128319   5.299   2.632   8.446 -2.3589 -1.2959  1.8251
 2228TIP3    H228320   5.263   2.524   8.346  2.0229  0.5799 -2.1537
 2229TIP3   OH228321   1.959   5.156   7.765  0.1929  0.8687 -0.5380
 2229TIP3    H128322   1.946   5.193   7.853 -0.7528 -0.2837 -0.1616
 2229TIP3    H228323   1.925   5.066   7.772  3.4707 -0.5439 -1.0789
 2230TIP3   OH228324   1.876   4.602   1.462  0.4329 -0.5564  0.8472
 2230TIP3    H128325   1.837   4.682   1.428  2.0605  1.0494  2.5297
 2230TIP3    H228326   1.952   4.587   1.405 -1.8438 -3.1328 -1.8170
 2231TIP3   OH228327   4.753   5.559   1.062  0.3227  0.3124 -0.5279
 2231TIP3    H128328   4.747   5.497   1.134  1.9757  0.4943 -0.1827
 2231TIP3    H228329   4.752   5.645   1.105 -0.3748  0.4824 -0.8730
 2232TIP3   OH228330   2.867   3.056   8.261  0.0937 -0.2957 -0.4474
 2232TIP3    H128331   2.952   3.045   8.303 -0.4976 -2.2463  0.3539
 2232TIP3    H228332   2.817   2.979   8.289 -2.6387  1.7800  0.7668
 2233TIP3   OH228333   2.407   4.408   0.440  0.4328 -0.1764 -0.1186
 2233TIP3    H128334   2.467   4.343   0.403 -0.5153  0.0080 -2.0788
 2233TIP3    H228335   2.450   4.492   0.424 -0.1521 -0.0705 -1.1719
 2234TIP3   OH228336   3.032   6.222   0.025 -0.0852  0.0055  0.1337
 2234TIP3    H128337   3.015   6.152  -0.037  3.2296 -0.8978  0.0562
 2234TIP3    H228338   3.029   6.179   0.111  1.0003 -0.0566  0.1533
 2235TIP3   OH228339   2.305   6.139   0.287 -0.4767  0.2813 -0.0016
 2235TIP3    H128340   2.269   6.060   0.246 -1.6725  1.0137 -0.4108
 2235TIP3    H228341   2.376   6.166   0.229  1.3044 -1.5900  1.1907
 2236TIP3   OH228342   0.654   0.801   2.710  0.2559 -0.1740  0.2029
 2236TIP3    H128343   0.677   0.848   2.630 -0.0146 -1.2782 -0.5385
 2236TIP3    H228344   0.559   0.799   2.710  0.2393  0.2807  0.8366
 2237TIP3   OH228345   3.463   5.686   1.850  0.4165 -0.0386 -0.2180
 2237TIP3    H128346   3.398   5.639   1.903  1.3623 -0.3431  0.7182
 2237TIP3    H228347   3.414   5.719   1.775 -0.9794  0.4181  0.8582
 2238TIP3   OH228348   3.549   6.282   2.374 -0.3403 -0.3747 -0.4117
 2238TIP3    H128349   3.570   6.375   2.377 -1.1481 -0.2013  0.1313
 2238TIP3    H228350   3.562   6.258   2.282  2.3610 -0.3580 -0.1112
 2239TIP3   OH228351   4.240   1.142   7.604 -0.1221 -0.0180  0.3724
 2239TIP3    H128352   4.326   1.101   7.611  0.3523  0.4663 -1.9506
 2239TIP3    H228353   4.256   1.224   7.558 -1.8800 -0.1716 -0.5983
 2240TIP3   OH228354   2.378   2.108   3.061  0.5445  0.6352 -0.7711
 2240TIP3    H128355   2.433   2.032   3.076 -1.1894 -0.2549  1.5108
 2240TIP3    H228356   2.294   2.072   3.032 -0.5479  1.5591  1.0729
 2241TIP3   OH228357   3.852   5.330   3.256 -0.0377 -0.0073 -0.3878
 2241TIP3    H128358   3.930   5.320   3.311 -0.1878 -1.9278 -0.4486
 2241TIP3    H228359   3.880   5.303   3.169 -0.6873 -0.4202 -0.4768
 2242TIP3   OH228360   4.833   3.943   7.542  0.3786  0.1826 -0.3881
 2242TIP3    H128361   4.837   4.028   7.497  0.3574 -0.2943 -1.2940
 2242TIP3    H228362   4.747   3.908   7.519 -0.0145  0.3342  0.7784
 2243TIP3   OH228363   3.288   3.176   2.834 -0.6780 -0.2333  0.2171
 2243TIP3    H128364   3.296   3.117   2.760 -2.0917 -0.7668  0.4532
 2243TIP3    H228365   3.271   3.118   2.909  2.4444  0.1168  1.3705
 2244TIP3   OH228366   4.968   3.301   1.069  0.0843 -0.2226 -0.2772
 2244TIP3    H128367   4.924   3.217   1.084 -0.5523  0.3818  1.5082
 2244TIP3    H228368   4.904   3.353   1.020 -1.1709  0.5195  1.9798
 2245TIP3   OH228369   0.097   4.763   8.346  0.2660 -0.0237 -0.2876
 2245TIP3    H128370   0.175   4.707   8.345  0.5724  0.2995 -3.3213
 2245TIP3    H228371   0.128   4.847   8.313 -0.6821  1.3064  1.9952
 2246TIP3   OH228372   2.757   0.563   0.685 -0.0953  0.4076  0.0031
 2246TIP3    H128373   2.771   0.656   0.703  1.4076  0.3961 -0.9650
 2246TIP3    H228374   2.739   0.525   0.771  0.0957  1.4548  0.5273
 2247TIP3   OH228375   1.989   4.519   2.306 -0.3345 -0.5193  0.4360
 2247TIP3    H128376   1.954   4.463   2.237  0.3214  0.9725 -1.1687
 2247TIP3    H228377   2.022   4.457   2.372 -0.4844 -2.0068 -0.8213
 2248TIP3   OH228378   4.505   3.896   7.580  0.0136  0.3753  0.1329
 2248TIP3    H128379   4.555   3.815   7.568  1.7258  1.5374 -1.1551
 2248TIP3    H228380   4.434   3.890   7.516 -0.4124 -0.4753  0.6626
 2249TIP3   OH228381   1.381   3.369   1.795  0.5081  0.3143 -0.2751
 2249TIP3    H128382   1.330   3.299   1.835  0.9596  0.2939  0.2751
 2249TIP3    H228383   1.336   3.450   1.822 -0.4952  0.2285 -1.5837
 2250TIP3   OH228384   3.189   6.094   0.296 -0.2886  1.2043  0.0023
 2250TIP3    H128385   3.098   6.067   0.301  0.2698 -0.6923  0.8042
 2250TIP3    H228386   3.217   6.068   0.208  0.2244 -0.9931  0.7411
 2251TIP3   OH228387   2.585   3.486   7.887  0.5486  0.3516 -0.5220
 2251TIP3    H128388   2.578   3.492   7.982  0.6946 -0.8796 -0.4191
 2251TIP3    H228389   2.498   3.460   7.858  0.7571 -0.2683 -0.6172
 2252TIP3   OH228390   4.941   5.552   1.832 -0.2401 -0.4813  0.9017
 2252TIP3    H128391   5.033   5.575   1.843 -0.5996  1.0729  0.8316
 2252TIP3    H228392   4.893   5.634   1.847 -1.4790 -0.7433 -1.1917
 2253TIP3   OH228393   2.178   4.438   8.344 -0.0661  0.5294  0.1237
 2253TIP3    H128394   2.178   4.415   8.251  1.8397 -0.4783  0.3216
 2253TIP3    H228395   2.198   4.532   8.346  0.7393  0.3706 -0.4497
 2254TIP3   OH228396   4.938   0.827   7.285 -0.1509  0.3916 -0.2354
 2254TIP3    H128397   4.920   0.885   7.211 -0.6594  1.5888  0.7730
 2254TIP3    H228398   4.915   0.740   7.254 -0.4496  0.8779 -1.4455
 2255TIP3   OH228399   1.176   5.582   7.714 -0.3155  0.0190  0.2437
 2255TIP3    H128400   1.174   5.595   7.808 -0.2009  1.0716  0.1169
 2255TIP3    H228401   1.134   5.498   7.700  0.6920 -0.6849  1.3154
 2256TIP3   OH228402   6.319   0.159   7.817  0.3158 -0.4276  0.1289
 2256TIP3    H128403   6.261   0.217   7.867  0.2861  0.4778 -0.8969
 2256TIP3    H228404   6.354   0.098   7.881  2.2353  2.1993  1.7847
 2257TIP3   OH228405   6.883   4.441   3.025  0.1988 -0.2633 -0.2025
 2257TIP3    H128406   6.863   4.442   2.931 -0.5975  3.5207 -0.1807
 2257TIP3    H228407   6.801   4.420   3.068  0.4966 -1.7089 -0.2888
 2258TIP3   OH228408   3.989   6.792   3.015 -0.6244 -0.5167 -0.1870
 2258TIP3    H128409   3.958   6.749   3.095  1.4821  0.4119  1.2070
 2258TIP3    H228410   3.911   6.836   2.981 -1.3307  0.1204  2.0665
 2259TIP3   OH228411   3.440   1.841   0.191  1.0266  0.4927 -0.3689
 2259TIP3    H128412   3.484   1.799   0.117  3.4044  1.1695  0.5623
 2259TIP3    H228413   3.424   1.931   0.162  1.3270  0.5656 -0.3112
 2260TIP3   OH228414   5.695   0.927   2.534  0.4764 -0.0780  0.3705
 2260TIP3    H128415   5.603   0.934   2.557  0.2137  0.0259 -0.6636
 2260TIP3    H228416   5.729   0.858   2.591 -1.1707 -3.0094 -1.8727
 2261TIP3   OH228417   4.756   3.426   1.889 -0.2426 -0.4365 -0.1271
 2261TIP3    H128418   4.809   3.371   1.946 -0.4766 -0.3220  0.2048
 2261TIP3    H228419   4.792   3.413   1.802  1.1730  0.6233  0.2703
 2262TIP3   OH228420   6.846   4.059   6.994 -0.1614 -0.0753 -0.6706
 2262TIP3    H128421   6.930   4.102   6.977 -0.0584 -0.4562 -1.1776
 2262TIP3    H228422   6.859   3.969   6.963 -1.1583  0.1914 -1.9844
 2263TIP3   OH228423   5.222   2.774   0.257  0.1847  0.0315 -0.6877
 2263TIP3    H128424   5.235   2.808   0.345 -1.1452  0.6263 -0.6951
 2263TIP3    H228425   5.288   2.705   0.248  1.7807  1.3976 -0.0367
 2264TIP3   OH228426   2.744   1.148   0.066 -0.2625 -0.6536  0.3426
 2264TIP3    H128427   2.794   1.211   0.013 -0.9978  0.4795  0.9505
 2264TIP3    H228428   2.691   1.100   0.003  0.5966 -0.9596 -0.1716
 2265TIP3   OH228429   4.839   3.138   2.315  0.2670  0.0249  0.0403
 2265TIP3    H128430   4.761   3.086   2.296  0.3153  0.0758 -0.3027
 2265TIP3    H228431   4.899   3.077   2.356  0.2907 -0.1737 -0.2816
 2266TIP3   OH228432   5.661   5.116   7.718  0.1261  0.1376  0.3663
 2266TIP3    H128433   5.716   5.038   7.721  1.4146  1.0024  0.4952
 2266TIP3    H228434   5.713   5.183   7.764 -0.3757  1.3940 -0.8162
 2267TIP3   OH228435   3.503   2.250   7.086 -0.5421 -0.5962 -0.2119
 2267TIP3    H128436   3.530   2.316   7.021 -0.0809 -0.2099  0.3593
 2267TIP3    H228437   3.585   2.226   7.130 -0.8385 -0.9233  0.1639
 2268TIP3   OH228438   2.340   6.286   0.696 -0.2532  0.5959  0.0785
 2268TIP3    H128439   2.378   6.277   0.783  1.2818  0.1537 -0.6184
 2268TIP3    H228440   2.289   6.367   0.701 -2.3705 -0.7401  2.1408
 2269TIP3   OH228441   0.627   2.004   0.668 -0.5443 -0.4417 -0.0310
 2269TIP3    H128442   0.687   1.968   0.734 -0.5850 -0.9573 -0.2735
 2269TIP3    H228443   0.662   2.092   0.651 -0.1675 -0.5372  0.2210
 2270TIP3   OH228444   1.946   0.408   7.237 -0.1149  0.2176 -0.0783
 2270TIP3    H128445   2.001   0.406   7.159 -1.1121  0.1234 -0.8104
 2270TIP3    H228446   1.937   0.316   7.263 -0.4386  0.1687 -0.3483
 2271TIP3   OH228447   5.701   0.014   0.392 -0.1520 -0.2722 -0.4787
 2271TIP3    H128448   5.755   0.092   0.401 -0.4092  0.0374 -1.4390
 2271TIP3    H228449   5.622   0.033   0.443 -0.0157 -0.0871 -0.3384
 2272TIP3   OH228450   6.295   1.320   1.709  0.1681 -0.3464  0.0459
 2272TIP3    H128451   6.210   1.277   1.697 -0.0993 -0.5579  2.1828
 2272TIP3    H228452   6.272   1.408   1.739  0.7199  0.1669 -1.0143
 2273TIP3   OH228453   6.985   1.772   2.300 -0.5230  0.0607 -0.2231
 2273TIP3    H128454   6.926   1.844   2.280 -0.7333 -0.0945 -0.1710
 2273TIP3    H228455   6.979   1.762   2.395  0.0724  0.4554 -0.1386
 2274TIP3   OH228456   4.505   3.216   2.113 -0.1080 -0.3376  1.0448
 2274TIP3    H128457   4.509   3.309   2.093 -1.4560 -0.5773 -0.6503
 2274TIP3    H228458   4.541   3.208   2.201  1.0885  1.6158  0.7826
 2275TIP3   OH228459   6.906   3.684   7.538 -0.3522 -0.6008 -0.4230
 2275TIP3    H128460   6.814   3.674   7.564  0.0169  0.2528  1.3524
 2275TIP3    H228461   6.955   3.636   7.605  0.6184  1.1581  0.1661
 2276TIP3   OH228462   6.912   1.224   1.345  0.5073 -0.7758  0.4005
 2276TIP3    H128463   6.928   1.212   1.439 -1.5283  0.7729  1.0252
 2276TIP3    H228464   6.998   1.245   1.309  1.2165 -0.6589  2.0519
 2277TIP3   OH228465   1.490   5.115   3.463 -0.3159 -0.2904  0.1071
 2277TIP3    H128466   1.582   5.090   3.456 -0.1622 -0.0609  1.0658
 2277TIP3    H228467   1.455   5.103   3.375  1.0833  1.3945 -0.7588
 2278TIP3   OH228468   1.785   5.642   7.468  0.3910 -0.0377  0.8389
 2278TIP3    H128469   1.756   5.647   7.377 -0.3706 -0.8996  1.0218
 2278TIP3    H228470   1.822   5.729   7.486 -1.3907  0.8752  0.3538
 2279TIP3   OH228471   6.530   0.191   0.469 -0.7274 -0.6309 -0.3345
 2279TIP3    H128472   6.439   0.212   0.447 -0.7227 -1.2009 -0.9341
 2279TIP3    H228473   6.526   0.106   0.512 -0.6752  0.2628  1.5165
 2280TIP3   OH228474   5.236   5.930   0.402 -0.4192 -0.9613  0.0864
 2280TIP3    H128475   5.234   5.844   0.443  0.7333 -0.0857  2.1965
 2280TIP3    H228476   5.262   5.989   0.473  3.7051  0.4739 -2.2714
 2281TIP3   OH228477   2.277   5.702   2.222 -0.1536 -0.3486 -0.3823
 2281TIP3    H128478   2.357   5.687   2.170  0.9436  0.4306  1.0099
 2281TIP3    H228479   2.216   5.636   2.191  0.2292  0.4441 -3.0873
 2282TIP3   OH228480   5.942   4.438   8.206  0.3706 -0.1048 -0.0479
 2282TIP3    H128481   5.985   4.438   8.292  0.2979  0.4573 -0.0067
 2282TIP3    H228482   5.867   4.496   8.217  1.3986  1.4571 -0.9893
 2283TIP3   OH228483   1.997   2.580   8.221  0.5271 -0.0554 -0.2856
 2283TIP3    H128484   1.999   2.551   8.129 -0.0597 -1.4868  0.1289
 2283TIP3    H228485   1.913   2.623   8.231 -0.4151 -1.8814  0.1113
 2284TIP3   OH228486   1.606   2.470   3.020  0.0701 -0.9434 -0.2181
 2284TIP3    H128487   1.573   2.553   3.056  3.2764 -0.0927  1.1281
 2284TIP3    H228488   1.614   2.413   3.096  1.1578 -1.2642 -0.5592
 2285TIP3   OH228489   3.783   2.298   6.939  0.2964  0.5758 -0.0978
 2285TIP3    H128490   3.832   2.283   6.859  0.6026 -0.1774  0.2211
 2285TIP3    H228491   3.846   2.280   7.009 -0.2200  0.3350  0.3118
 2286TIP3   OH228492   4.159   1.872   0.055 -0.3814  0.4578 -0.3568
 2286TIP3    H128493   4.125   1.788   0.026  0.1727 -0.2925  1.0403
 2286TIP3    H228494   4.254   1.864   0.045 -0.3738  1.2970 -1.1250
 2287TIP3   OH228495   1.190   1.827   2.283  0.0211 -0.4908  0.0434
 2287TIP3    H128496   1.245   1.761   2.242  1.5075 -0.4194  1.7849
 2287TIP3    H228497   1.103   1.813   2.246  0.7145 -2.1372 -1.0614
 2288TIP3   OH228498   5.166   6.177   1.734 -0.0724  0.1610  0.0757
 2288TIP3    H128499   5.117   6.103   1.697 -0.2638 -0.6101  1.8016
 2288TIP3    H228500   5.132   6.254   1.686 -0.1690 -0.7877 -1.4521
 2289TIP3   OH228501   6.291   2.891   0.648 -0.1848  0.1561  0.0562
 2289TIP3    H128502   6.332   2.828   0.708 -2.6125  1.2122  3.1020
 2289TIP3    H228503   6.358   2.958   0.634  1.4960 -1.6700 -1.0431
 2290TIP3   OH228504   6.771   2.060   7.927 -0.4159 -0.4123 -0.3974
 2290TIP3    H128505   6.706   2.117   7.887 -0.4284  1.2996  1.8792
 2290TIP3    H228506   6.851   2.076   7.877 -0.3434  1.9298  0.3231
 2291TIP3   OH228507   2.255   1.060   2.608  0.5105 -0.0875  0.4244
 2291TIP3    H128508   2.319   1.112   2.560  0.5409 -0.0106  0.5485
 2291TIP3    H228509   2.225   1.118   2.678 -0.2743  0.1553 -0.1028
 2292TIP3   OH228510   5.055   6.851   1.840 -0.2899 -0.4698 -0.3582
 2292TIP3    H128511   5.049   6.841   1.935 -2.4358  2.3031 -0.0679
 2292TIP3    H228512   5.146   6.830   1.819  0.4722 -0.3296  2.4402
 2293TIP3   OH228513   4.397   1.431   8.012  0.8581  0.4748 -0.3467
 2293TIP3    H128514   4.352   1.396   8.089  1.7280 -1.0340 -0.4627
 2293TIP3    H228515   4.332   1.429   7.943  0.9758 -1.4823 -0.4667
 2294TIP3   OH228516   5.761   2.638   7.762  0.8286 -0.0059 -0.5701
 2294TIP3    H128517   5.689   2.648   7.824 -0.6914 -2.0183 -1.8709
 2294TIP3    H228518   5.821   2.710   7.782 -0.3900  0.3699  2.0921
 2295TIP3   OH228519   5.202   6.195   2.280  0.1928 -0.1105 -0.1256
 2295TIP3    H128520   5.271   6.170   2.342  1.5184  1.2002 -0.9874
 2295TIP3    H228521   5.249   6.209   2.198 -1.4123 -1.0775 -1.2662
 2296TIP3   OH228522   6.212   3.317   0.951 -0.3006  0.2697 -0.3161
 2296TIP3    H128523   6.253   3.248   1.004  0.1288  0.0538 -0.9032
 2296TIP3    H228524   6.264   3.317   0.870 -1.1653  0.3325 -0.8803
 2297TIP3   OH228525   0.840   3.014   2.962  0.2534 -0.2203  0.7073
 2297TIP3    H128526   0.759   2.972   2.931 -0.6365  0.3779  2.0954
 2297TIP3    H228527   0.890   2.942   3.001  2.0070 -1.2573 -3.0007
 2298TIP3   OH228528   4.208   4.863   1.039 -0.1959 -0.2754  0.0571
 2298TIP3    H128529   4.166   4.834   1.120  0.0456  0.3368  0.4092
 2298TIP3    H228530   4.266   4.935   1.067 -1.2524  0.9646 -0.8757
 2299TIP3   OH228531   5.469   4.087   2.597 -0.1127 -0.1206  0.6432
 2299TIP3    H128532   5.532   4.021   2.624  0.6795  0.0500 -0.7076
 2299TIP3    H228533   5.459   4.143   2.673  0.3569 -0.9143  1.3049
 2300TIP3   OH228534   5.911   0.621   0.413 -0.2494  0.5505 -0.3738
 2300TIP3    H128535   5.845   0.684   0.383  1.1894  2.0314 -0.5537
 2300TIP3    H228536   5.994   0.668   0.407  0.9024 -1.3866 -0.5332
 2301TIP3   OH228537   2.071   0.437   2.254 -0.4777  0.5374  0.0714
 2301TIP3    H128538   2.034   0.375   2.192 -0.3177 -1.3845  1.7689
 2301TIP3    H228539   2.002   0.449   2.320 -0.3248  1.8240  0.0200
 2302TIP3   OH228540   0.323   6.219   2.222 -0.5918  0.5422 -0.2413
 2302TIP3    H128541   0.301   6.166   2.145 -0.0435 -1.2788  0.7980
 2302TIP3    H228542   0.244   6.216   2.276 -0.2531 -0.0094  0.2354
 2303TIP3   OH228543   3.690   0.010   2.645  0.1839 -0.2081  0.3040
 2303TIP3    H128544   3.629   0.080   2.623 -0.2044 -0.9369 -1.0211
 2303TIP3    H228545   3.717  -0.026   2.561  0.3380 -1.6846  0.9517
 2304TIP3   OH228546   1.005   6.923   6.816  0.0577 -0.3043  0.0037
 2304TIP3    H128547   0.957   6.999   6.848 -0.4556 -0.7221  0.2391
 2304TIP3    H228548   1.094   6.936   6.849  0.1172  0.4738 -0.4352
 2305TIP3   OH228549   1.429   6.551   3.022 -0.2285  0.1436 -0.3348
 2305TIP3    H128550   1.474   6.490   2.963 -1.3231 -0.5848 -0.4370
 2305TIP3    H228551   1.337   6.528   3.014 -0.4282  0.1730  1.4928
 2306TIP3   OH228552   1.625   4.182   1.512 -0.1098 -0.1939 -0.2604
 2306TIP3    H128553   1.617   4.106   1.455 -1.3892 -0.0720 -0.2767
 2306TIP3    H228554   1.590   4.255   1.460 -3.4723 -0.4622  1.3725
 2307TIP3   OH228555   6.503   6.903   0.982  0.4448 -0.6598 -0.0361
 2307TIP3    H128556   6.582   6.927   0.933  0.0090  0.9008  0.0015
 2307TIP3    H228557   6.530   6.908   1.074  0.2758  0.0074 -0.0190
 2308TIP3   OH228558   6.386   3.820   1.420  0.0019 -0.0174 -0.2568
 2308TIP3    H128559   6.346   3.779   1.343  0.5206  1.0087 -1.1063
 2308TIP3    H228560   6.426   3.748   1.468 -1.9558 -0.9387  0.0850
 2309TIP3   OH228561   2.607   5.783   0.464  0.6883  0.9187 -0.0486
 2309TIP3    H128562   2.623   5.693   0.437  1.0185  1.1254 -0.5356
 2309TIP3    H228563   2.511   5.792   0.460  0.6416  0.5507  0.1502
 2310TIP3   OH228564   4.092   3.951   8.216 -0.2671 -0.4461 -0.0410
 2310TIP3    H128565   4.042   3.912   8.144  1.7901  1.3221 -2.6209
 2310TIP3    H228566   4.183   3.944   8.188  0.6919 -0.1757  2.7312
 2311TIP3   OH228567   3.818   6.943   0.025  0.8305  0.2325 -0.5934
 2311TIP3    H128568   3.729   6.925  -0.004  0.5919  1.2806 -0.5300
 2311TIP3    H228569   3.873   6.914  -0.048  0.4352 -0.2970 -0.6863
 2312TIP3   OH228570   4.759   3.499   7.867  0.0628  0.1802  0.1239
 2312TIP3    H128571   4.780   3.486   7.775 -0.5026  0.4261 -0.0457
 2312TIP3    H228572   4.823   3.564   7.898  1.1887 -0.9685  0.2943
 2313TIP3   OH228573   6.308   3.271   7.897 -0.3814  0.1022  0.2010
 2313TIP3    H128574   6.221   3.232   7.910 -0.1905  0.0163  1.3562
 2313TIP3    H228575   6.369   3.206   7.933  0.2342 -0.1814 -1.3009
 2314TIP3   OH228576   6.080   0.727   7.480 -0.1776  0.0733 -0.1757
 2314TIP3    H128577   5.996   0.697   7.446  0.2781 -0.2914 -1.0160
 2314TIP3    H228578   6.098   0.807   7.432  0.2490 -0.1887 -0.4608
 2315TIP3   OH228579   5.356   0.816   6.687 -0.2043 -0.5771  0.3537
 2315TIP3    H128580   5.364   0.721   6.684 -0.2036 -0.7314  3.1022
 2315TIP3    H228581   5.438   0.849   6.650 -0.7405 -1.5522 -1.8594
 2316TIP3   OH228582   4.645   4.323   2.783 -0.0436 -0.0568  0.2875
 2316TIP3    H128583   4.727   4.303   2.737 -0.8475  1.4143 -1.9532
 2316TIP3    H228584   4.584   4.254   2.755 -0.6283  1.0246 -1.2242
 2317TIP3   OH228585   5.817   1.681   0.153 -0.0454 -0.0963 -0.4423
 2317TIP3    H128586   5.830   1.637   0.069 -1.0983 -0.3881 -0.4704
 2317TIP3    H228587   5.757   1.753   0.133 -1.9464 -1.3647  0.3788
 2318TIP3   OH228588   4.439   5.184   7.490 -0.0718  0.0095  0.6918
 2318TIP3    H128589   4.524   5.198   7.448 -0.3921 -0.0849  0.0101
 2318TIP3    H228590   4.413   5.096   7.464 -0.4293  0.0754  0.8161
 2319TIP3   OH228591   4.230   1.492   7.790  0.1081  0.3812 -0.0281
 2319TIP3    H128592   4.184   1.525   7.712  0.0258  1.2008  0.3532
 2319TIP3    H228593   4.160   1.460   7.847 -0.1238  2.4578  0.9421
 2320TIP3   OH228594   6.426   0.988   1.108  0.3253  0.3621 -0.0115
 2320TIP3    H128595   6.412   0.902   1.069  1.7476  0.1383 -0.0967
 2320TIP3    H228596   6.487   0.972   1.180 -0.2385  1.1522  0.6619
 2321TIP3   OH228597   1.416   6.526   7.044 -0.2548 -0.3305  0.4052
 2321TIP3    H128598   1.424   6.462   6.972  1.9069 -1.2552  1.3816
 2321TIP3    H228599   1.506   6.547   7.067 -0.8459 -0.6298  3.3426
 2322TIP3   OH228600   1.486   4.238   8.356 -0.2576 -0.2665  0.3560
 2322TIP3    H128601   1.454   4.153   8.386  0.5546 -0.7207 -0.0372
 2322TIP3    H228602   1.574   4.221   8.323 -1.0660  0.1746 -2.3057
 2323TIP3   OH228603   3.186   6.660   1.766  0.3404 -0.8311  0.2111
 2323TIP3    H128604   3.214   6.665   1.675 -1.6412 -0.2710 -0.4163
 2323TIP3    H228605   3.126   6.585   1.769 -1.3649  0.4794  0.4857
 2324TIP3   OH228606   2.219   0.873   2.968 -0.3007 -0.3752 -0.3985
 2324TIP3    H128607   2.185   0.904   2.884  0.0299 -0.2462 -0.4846
 2324TIP3    H228608   2.167   0.918   3.034  0.1148  0.2907 -0.5214
 2325TIP3   OH228609   4.254   0.568   2.341  0.1335  0.1240  0.5409
 2325TIP3    H128610   4.168   0.555   2.380 -0.4423 -3.3189 -1.4968
 2325TIP3    H228611   4.314   0.521   2.400 -0.2853 -2.3212 -0.8676
 2326TIP3   OH228612   5.389   2.271   0.468  0.2083  0.3582 -0.2532
 2326TIP3    H128613   5.346   2.191   0.437  0.5259  0.2371 -0.3815
 2326TIP3    H228614   5.330   2.304   0.536 -0.0576  0.1589 -0.3823
 2327TIP3   OH228615   7.032   6.061   7.279 -0.1666  0.3104  0.0983
 2327TIP3    H128616   7.066   6.148   7.258  1.1481 -0.2108  0.0025
 2327TIP3    H228617   7.033   6.058   7.375  1.7915 -0.3282  0.0992
 2328TIP3   OH228618   3.362   3.951   2.439  0.1092  0.6601 -0.5807
 2328TIP3    H128619   3.451   3.944   2.404  0.2551  0.0897 -0.1147
 2328TIP3    H228620   3.364   4.028   2.495  0.9998 -0.6900  1.3514
 2329TIP3   OH228621   4.122   0.360   1.257  0.0792 -0.0787 -0.7298
 2329TIP3    H128622   4.122   0.279   1.307  0.0201  1.4858  1.9575
 2329TIP3    H228623   4.031   0.372   1.229 -0.5854  0.5435  1.5233
 2330TIP3   OH228624   4.633   4.996   2.089 -0.0934 -0.2798  0.0927
 2330TIP3    H128625   4.567   5.019   2.023  0.9814  0.4209 -0.7792
 2330TIP3    H228626   4.623   4.902   2.102 -1.0824 -0.2264 -0.2086
 2331TIP3   OH228627   0.242   4.120   0.570 -0.0564 -0.0539  0.4514
 2331TIP3    H128628   0.278   4.192   0.519 -1.5121  1.2047  1.1510
 2331TIP3    H228629   0.317   4.083   0.615  0.6501  1.2821  0.3997
 2332TIP3   OH228630   6.637   0.039   3.052  0.3635  0.2243 -0.2357
 2332TIP3    H128631   6.662   0.001   3.137 -0.1470 -1.3591 -0.7500
 2332TIP3    H228632   6.692   0.117   3.043  0.8284  0.1065  1.2904
 2333TIP3   OH228633   3.538   4.531   7.289  0.3450 -0.0102 -0.0600
 2333TIP3    H128634   3.536   4.443   7.251  2.3376  0.3629 -1.2088
 2333TIP3    H228635   3.533   4.589   7.213  0.3711  0.8451  0.5816
 2334TIP3   OH228636   6.438   5.370   0.406  0.8095  0.1937 -0.0267
 2334TIP3    H128637   6.532   5.384   0.421  0.7570  1.6571 -0.9345
 2334TIP3    H228638   6.407   5.452   0.368 -0.6660 -0.5956 -0.5938
 2335TIP3   OH228639   3.079   4.180   2.471 -0.3598 -0.4245 -0.1378
 2335TIP3    H128640   3.013   4.212   2.533  0.1555  0.0551  0.1718
 2335TIP3    H228641   3.162   4.185   2.519 -0.0614 -0.7833 -0.6053
 2336TIP3   OH228642   1.700   3.203   1.731 -0.0912  0.0077  0.0996
 2336TIP3    H128643   1.793   3.191   1.711 -0.5698  0.5007 -2.9388
 2336TIP3    H228644   1.687   3.298   1.727 -0.7483 -0.0620  0.4320
 2337TIP3   OH228645   3.022   0.343   1.799  0.1184  0.1253  0.2209
 2337TIP3    H128646   2.960   0.276   1.829  0.2547 -0.7895 -1.4435
 2337TIP3    H228647   3.101   0.328   1.851 -0.4680  0.2084  1.1623
 2338TIP3   OH228648   4.881   2.202   7.325  0.0237  0.5610  0.5175
 2338TIP3    H128649   4.946   2.226   7.391  0.5537 -2.2871  1.1825
 2338TIP3    H228650   4.808   2.167   7.375  1.4347 -4.0921 -0.1747
 2339TIP3   OH228651   6.457   5.187   0.181  0.2336 -0.4645  0.2100
 2339TIP3    H128652   6.364   5.165   0.173 -0.2640  1.6288 -0.2773
 2339TIP3    H228653   6.459   5.265   0.236  1.4691  0.9419 -1.7007
 2340TIP3   OH228654   4.619   6.698   7.344 -0.1216  0.3700  0.1580
 2340TIP3    H128655   4.594   6.678   7.254  0.6046 -1.9473  0.4199
 2340TIP3    H228656   4.715   6.697   7.343 -0.1103 -0.2474  1.0748
 2341TIP3   OH228657   4.018   1.292   8.285 -1.0228 -0.4119  0.6337
 2341TIP3    H128658   3.951   1.233   8.252  0.1984 -1.9300  0.7506
 2341TIP3    H228659   4.029   1.267   8.377 -1.1447  0.6604  0.9631
 2342TIP3   OH228660   4.379   5.485   2.849  0.0377  0.3835 -0.1351
 2342TIP3    H128661   4.427   5.412   2.888  0.2102 -0.0454 -1.1301
 2342TIP3    H228662   4.326   5.520   2.921  0.3543 -0.3805  0.4801
 2343TIP3   OH228663   2.352   0.776   0.108  0.4232 -0.6116 -0.5739
 2343TIP3    H128664   2.299   0.800   0.184  0.9158 -0.2402 -0.3375
 2343TIP3    H228665   2.442   0.777   0.141  0.9910  2.6921 -1.8658
 2344TIP3   OH228666   6.830   5.069   1.836  0.1658 -0.1782  0.2408
 2344TIP3    H128667   6.787   5.047   1.753  0.9096  0.4104 -0.3251
 2344TIP3    H228668   6.822   5.164   1.843  0.8854 -0.1177  0.3783
 2345TIP3   OH228669   0.286   5.293   2.716  0.0048 -0.0215  0.0102
 2345TIP3    H128670   0.242   5.255   2.792  0.1213  1.9021  1.0993
 2345TIP3    H228671   0.217   5.343   2.671 -0.3105 -1.9027 -1.7852
 2346TIP3   OH228672   1.452   2.610   1.214 -0.1439  0.0115 -0.3562
 2346TIP3    H128673   1.490   2.640   1.297  0.1661 -0.4992 -0.3155
 2346TIP3    H228674   1.371   2.566   1.240  0.2565 -0.6871 -0.2644
 2347TIP3   OH228675   6.863   3.553   3.426  0.2113 -0.0546 -0.0026
 2347TIP3    H128676   6.905   3.467   3.437  0.8765  0.3356  0.5823
 2347TIP3    H228677   6.774   3.533   3.397  0.4950 -0.9319 -0.2945
 2348TIP3   OH228678   2.073   5.816   0.800 -0.5983  0.1609 -0.5160
 2348TIP3    H128679   2.122   5.871   0.739  0.9397 -0.1901  0.3505
 2348TIP3    H228680   2.049   5.875   0.871  0.1365 -0.0544 -0.0865
 2349TIP3   OH228681   6.897   6.927   7.667 -0.0643  0.3819 -0.1472
 2349TIP3    H128682   6.862   6.842   7.638 -0.3622  0.6818 -0.6708
 2349TIP3    H228683   6.826   6.989   7.651  0.7481  1.0350 -1.3599
 2350TIP3   OH228684   3.114   4.896   1.497  0.1084 -0.3710 -0.0818
 2350TIP3    H128685   3.100   4.814   1.449  0.8507  0.0111 -0.9618
 2350TIP3    H228686   3.028   4.916   1.534 -0.0627 -1.6093  0.2599
 2351TIP3   OH228687   6.365   0.114   6.573  0.2197 -0.3207 -0.1606
 2351TIP3    H128688   6.275   0.146   6.581  0.2854 -0.3822  0.9804
 2351TIP3    H228689   6.392   0.096   6.663  2.4790  2.7191 -0.0955
 2352TIP3   OH228690   2.633   6.263   2.806  0.1353 -0.3585 -0.0461
 2352TIP3    H128691   2.627   6.326   2.735  0.0278 -1.7678 -1.3394
 2352TIP3    H228692   2.726   6.245   2.816  0.2072  0.3693  0.6761
 2353TIP3   OH228693   5.436   1.414   0.385  0.6706 -0.0833 -0.2896
 2353TIP3    H128694   5.522   1.448   0.363  0.8720 -0.3968 -0.0033
 2353TIP3    H228695   5.446   1.378   0.474 -0.3131  1.8470  0.6622
 2354TIP3   OH228696   1.106   0.129   7.600  0.0833  0.4068 -0.1356
 2354TIP3    H128697   1.011   0.126   7.586  0.0879  1.4413 -0.4606
 2354TIP3    H228698   1.142   0.078   7.527 -0.2168 -0.1032  0.0613
 2355TIP3   OH228699   4.266   5.611   3.052  0.7858 -0.1067 -0.0874
 2355TIP3    H128700   4.323   5.687   3.060  1.1686 -0.3568 -0.4034
 2355TIP3    H228701   4.255   5.580   3.142  1.0147  0.0431 -0.0062
 2356TIP3   OH228702   5.779   1.994   0.042 -0.5925  0.2592 -0.0212
 2356TIP3    H128703   5.737   1.998  -0.044  0.2612  1.9416 -0.4030
 2356TIP3    H228704   5.855   2.053   0.034  0.9596 -1.4788  1.1160
 2357TIP3   OH228705   4.441   2.892   7.851 -0.5052 -0.2226 -0.2691
 2357TIP3    H128706   4.528   2.859   7.830 -0.8078 -1.5052  0.3731
 2357TIP3    H228707   4.394   2.815   7.885 -1.9466  0.3894 -0.7992
 2358TIP3   OH228708   4.433   0.278   6.445 -0.4718  0.7305  0.1413
 2358TIP3    H128709   4.441   0.252   6.537  0.3525 -2.0723 -0.6205
 2358TIP3    H228710   4.494   0.352   6.437  1.7632 -0.8357  1.2822
 2359TIP3   OH228711   1.193   4.201   7.496 -0.0901 -0.3209 -1.2221
 2359TIP3    H128712   1.100   4.183   7.487  0.0797 -0.6921 -2.5068
 2359TIP3    H228713   1.234   4.114   7.493  0.1953 -0.4029  1.7060
 2360TIP3   OH228714   6.038   2.676   7.732 -0.9261 -0.8021 -0.6040
 2360TIP3    H128715   6.034   2.697   7.825  0.9139  0.8356 -0.8085
 2360TIP3    H228716   6.060   2.583   7.729 -2.7257 -1.3126  0.5201
 2361TIP3   OH228717   5.172   5.240   2.755  0.1573  0.7830  0.2040
 2361TIP3    H128718   5.125   5.157   2.764  1.1491  0.4250  3.5579
 2361TIP3    H228719   5.105   5.307   2.771  0.1443  0.3956  1.9672
 2362TIP3   OH228720   3.338   1.089   1.470  0.9905 -0.0373 -0.1929
 2362TIP3    H128721   3.389   1.162   1.434 -1.0920  0.7649 -1.7195
 2362TIP3    H228722   3.306   1.042   1.394  0.7837 -1.5022  0.7591
 2363TIP3   OH228723   5.566   0.008   0.879 -0.2000  0.1054 -0.3469
 2363TIP3    H128724   5.604  -0.071   0.839 -0.2010 -0.3974  0.6245
 2363TIP3    H228725   5.545   0.064   0.804  1.4743 -0.0362 -0.9564
 2364TIP3   OH228726   2.550   4.959   2.589 -0.1411  0.3783  0.2619
 2364TIP3    H128727   2.614   4.934   2.522 -0.7324 -1.5648  0.3525
 2364TIP3    H228728   2.474   4.904   2.571 -0.8745  0.8809  1.6547
 2365TIP3   OH228729   3.560   3.584   3.086 -0.2826 -0.0032 -0.3467
 2365TIP3    H128730   3.591   3.530   3.159 -0.9523 -0.0103 -0.0592
 2365TIP3    H228731   3.513   3.523   3.030 -1.0841  0.2833  0.0042
 2366TIP3   OH228732   5.311   2.623   3.031  0.0003  0.5281 -0.1662
 2366TIP3    H128733   5.327   2.538   3.072 -1.9989 -0.0490 -0.4859
 2366TIP3    H228734   5.216   2.633   3.032 -0.0271  1.3473 -2.9010
 2367TIP3   OH228735   2.982   2.532   7.537  0.4340  0.4139 -0.0722
 2367TIP3    H128736   2.983   2.451   7.485 -1.9567 -0.3749  0.9430
 2367TIP3    H228737   2.960   2.601   7.475 -0.2723 -0.1796 -0.4982
 2368TIP3   OH228738   0.331   3.740   7.923 -0.5299 -0.1151  0.1200
 2368TIP3    H128739   0.401   3.689   7.884 -2.1194 -2.2271 -0.1519
 2368TIP3    H228740   0.294   3.790   7.850 -1.1442 -1.2346 -0.3569
 2369TIP3   OH228741   5.980   3.172   1.533  0.0769  0.0669 -0.1888
 2369TIP3    H128742   5.939   3.095   1.494 -0.0348  0.2106 -0.3570
 2369TIP3    H228743   6.019   3.140   1.615  2.2106 -0.7207 -1.4311
 2370TIP3   OH228744   3.700   0.556   0.745  0.6063  0.3999  0.2258
 2370TIP3    H128745   3.713   0.600   0.829  2.3010  0.8161 -0.2166
 2370TIP3    H228746   3.617   0.591   0.713  0.9053  1.7394  0.8380
 2371TIP3   OH228747   0.892   0.694   1.028 -0.0077  0.6042 -0.0792
 2371TIP3    H128748   0.815   0.727   0.983 -0.4889 -1.6248 -1.0506
 2371TIP3    H228749   0.883   0.599   1.024  3.4004  0.1737 -1.4056
 2372TIP3   OH228750   4.001   2.802   2.946 -0.2628 -0.4541 -0.6202
 2372TIP3    H128751   4.060   2.726   2.941  0.2803 -0.1715  0.9474
 2372TIP3    H228752   3.936   2.777   3.011  0.4332  0.7507  0.5679
 2373TIP3   OH228753   2.617   5.373   8.096  0.4378  0.2787 -0.1163
 2373TIP3    H128754   2.556   5.361   8.024  0.8451 -0.8709 -0.2904
 2373TIP3    H228755   2.687   5.310   8.080  2.4058  2.4299 -0.6560
 2374TIP3   OH228756   6.360   4.063   2.710  0.3565 -0.2728 -0.1646
 2374TIP3    H128757   6.321   4.145   2.740  2.4444  1.7519 -2.4755
 2374TIP3    H228758   6.373   4.076   2.616  0.8450 -3.2679 -0.6149
 2375TIP3   OH228759   2.200   4.257   0.519 -0.6096 -0.5543 -0.5238
 2375TIP3    H128760   2.286   4.298   0.508 -0.6211 -0.4407 -0.2188
 2375TIP3    H228761   2.196   4.190   0.452 -0.2310 -0.6358 -0.4660
 2376TIP3   OH228762   6.836   5.751   1.534 -0.0053  0.0600 -0.0895
 2376TIP3    H128763   6.809   5.836   1.569  0.0431  0.4180 -0.9047
 2376TIP3    H228764   6.930   5.760   1.520 -0.1059  0.0999 -0.7849
 2377TIP3   OH228765   5.972   5.105   8.332  0.0384 -0.0724 -0.4525
 2377TIP3    H128766   5.921   5.173   8.287  0.0458  0.6612  0.6129
 2377TIP3    H228767   5.907   5.050   8.374  0.0153 -0.9651 -1.5951
 2378TIP3   OH228768   1.374   0.645   2.467 -0.1143  0.1190  0.7327
 2378TIP3    H128769   1.413   0.572   2.515  1.2211  0.3812  0.1062
 2378TIP3    H228770   1.321   0.691   2.531  0.3636 -0.4544  1.5529
 2379TIP3   OH228771   1.879   2.975   0.273  0.3445  0.3917 -0.0012
 2379TIP3    H128772   1.879   2.899   0.331 -2.2471  0.3263  0.0354
 2379TIP3    H228773   1.910   2.942   0.189 -0.2055 -0.5921  0.1698
 2380TIP3   OH228774   4.948   3.437   0.352  0.1548  0.1794  0.2525
 2380TIP3    H128775   5.044   3.442   0.356  0.2062  0.6150 -1.1317
 2380TIP3    H228776   4.926   3.470   0.265 -1.2484 -0.1040  0.4842
 2381TIP3   OH228777   0.665   3.771   0.056 -0.2721 -0.2427 -0.5887
 2381TIP3    H128778   0.712   3.827  -0.006  0.6259 -0.3079  0.0065
 2381TIP3    H228779   0.592   3.824   0.087  1.5031  1.2704  1.2297
 2382TIP3   OH228780   6.295   5.997   0.403  0.0755 -0.7753  0.3499
 2382TIP3    H128781   6.228   5.929   0.407 -2.4153  1.5235  0.3378
 2382TIP3    H228782   6.265   6.064   0.465  1.6540  0.9539 -0.6503
 2383TIP3   OH228783   0.686   5.480   8.240 -0.1657  0.1577  0.0981
 2383TIP3    H128784   0.606   5.472   8.291 -0.6666  0.5787 -0.6036
 2383TIP3    H228785   0.755   5.444   8.296 -0.9923 -1.1092  0.3238
 2384TIP3   OH228786   1.340   3.753   1.452 -0.3112  0.2199  0.0512
 2384TIP3    H128787   1.414   3.694   1.465  1.3066  2.1220 -0.0278
 2384TIP3    H228788   1.269   3.714   1.504  1.4428 -0.4280  2.1246
 2385TIP3   OH228789   3.406   1.777   1.784 -0.4267 -0.0633 -0.1552
 2385TIP3    H128790   3.457   1.789   1.865  0.4237 -1.5700 -0.4313
 2385TIP3    H228791   3.394   1.682   1.778 -3.1479  0.2246 -0.2212
 2386TIP3   OH228792   0.646   4.854   1.455 -0.5474  0.3452  0.2448
 2386TIP3    H128793   0.720   4.817   1.501 -1.0854 -0.1913  0.6962
 2386TIP3    H228794   0.572   4.797   1.477 -1.1581  1.0338  0.0545
 2387TIP3   OH228795   0.720   6.561   3.035  0.1730 -0.0842 -0.8831
 2387TIP3    H128796   0.701   6.586   2.945 -3.9766 -1.7009 -0.6670
 2387TIP3    H228797   0.713   6.466   3.036 -0.3137 -0.0768  1.1948
 2388TIP3   OH228798   1.561   4.824   2.409  0.2375 -0.2785  0.0826
 2388TIP3    H128799   1.546   4.891   2.343  1.6326  0.1041  0.1288
 2388TIP3    H228800   1.615   4.758   2.364 -0.0649 -0.7564  0.4058
 2389TIP3   OH228801   6.230   2.338   3.234 -0.2090 -0.4986 -0.1229
 2389TIP3    H128802   6.223   2.332   3.330  2.4633  0.9202  0.2649
 2389TIP3    H228803   6.268   2.424   3.219  0.6156 -1.2088 -2.4005
 2390TIP3   OH228804   4.080   4.595   0.492  0.0346 -0.6755 -0.0642
 2390TIP3    H128805   3.995   4.566   0.524 -0.1707  0.6010  0.6550
 2390TIP3    H228806   4.141   4.569   0.561  0.5394 -3.0426 -1.3028
 2391TIP3   OH228807   3.606   3.321   8.189 -0.6010  0.0016 -0.1923
 2391TIP3    H128808   3.629   3.318   8.096 -1.6464  2.4603 -0.5970
 2391TIP3    H228809   3.689   3.305   8.234 -0.6942 -5.8758 -1.2919
 2392TIP3   OH228810   2.037   3.650   0.678 -0.0523 -0.7798 -0.1432
 2392TIP3    H128811   2.096   3.623   0.749 -1.1366  0.3928  1.2817
 2392TIP3    H228812   2.064   3.598   0.603  2.7442 -0.3394  0.4442
 2393TIP3   OH228813   4.175   0.462   2.669 -0.5521  0.3154 -0.3356
 2393TIP3    H128814   4.223   0.409   2.733  0.6374  0.8580 -0.7314
 2393TIP3    H228815   4.222   0.546   2.668  0.1096 -0.0097 -2.6362
 2394TIP3   OH228816   6.660   6.285   0.981  0.2345 -0.0438  0.6637
 2394TIP3    H128817   6.599   6.216   0.955  1.4715 -1.1148  0.4835
 2394TIP3    H228818   6.645   6.296   1.075 -1.7839  1.3241  0.2312
 2395TIP3   OH228819   3.321   2.007   8.321  0.3174 -0.2059  0.2181
 2395TIP3    H128820   3.378   1.937   8.290  1.8032  1.3117 -0.6687
 2395TIP3    H228821   3.378   2.065   8.371 -0.7923  0.5398  0.6668
 2396TIP3   OH228822   1.634   5.953   1.428  0.0683  0.0827 -0.1013
 2396TIP3    H128823   1.719   5.935   1.469 -0.3614  1.6141  1.6206
 2396TIP3    H228824   1.613   6.043   1.454 -1.6537  0.0731 -1.2666
 2397TIP3   OH228825   2.089   3.721   1.312 -0.3367  0.3557  0.0309
 2397TIP3    H128826   2.142   3.753   1.239 -0.3248  0.6350  0.1574
 2397TIP3    H228827   2.145   3.659   1.358 -0.1022  0.6732  0.1828
 2398TIP3   OH228828   6.716   6.359   0.481 -0.0577 -0.8872 -0.5271
 2398TIP3    H128829   6.658   6.285   0.498 -2.6011  0.5154 -2.3539
 2398TIP3    H228830   6.713   6.412   0.561 -1.9552 -0.4877 -0.8238
 2399TIP3   OH228831   1.211   4.592   0.749 -0.0023 -0.0073 -0.2950
 2399TIP3    H128832   1.183   4.667   0.800 -1.0807 -1.3640  1.2059
 2399TIP3    H228833   1.166   4.517   0.789  1.6886 -1.5743 -1.1631
 2400TIP3   OH228834   0.579   1.225   1.729  0.4009  0.3622 -0.4270
 2400TIP3    H128835   0.651   1.286   1.713  0.9463 -0.1846 -0.0820
 2400TIP3    H228836   0.595   1.191   1.817 -0.8509  0.9975  0.0674
 2401TIP3   OH228837   1.220   5.781   2.752 -0.1870 -0.3533  0.4190
 2401TIP3    H128838   1.259   5.856   2.797 -1.3996  0.7109 -0.2250
 2401TIP3    H228839   1.202   5.718   2.821  0.3673  0.1674  1.0504
 2402TIP3   OH228840   2.823   1.694   8.139 -0.0273  0.1779  0.0699
 2402TIP3    H128841   2.856   1.607   8.114 -0.1068 -0.2400  1.3456
 2402TIP3    H228842   2.730   1.692   8.115 -0.2463 -0.4426  0.8961
 2403TIP3   OH228843   1.300   4.992   1.135 -0.1858 -0.2299  0.4220
 2403TIP3    H128844   1.322   4.910   1.090  0.1374 -0.2690  0.6467
 2403TIP3    H228845   1.250   4.964   1.212 -0.2645 -0.1994  0.3825
 2404TIP3   OH228846   5.922   1.835   2.797  0.3333  0.1371 -0.3636
 2404TIP3    H128847   5.921   1.890   2.876 -0.5354  0.3137 -0.4913
 2404TIP3    H228848   5.911   1.746   2.830  1.4939  0.0412 -0.1767
 2405TIP3   OH228849   2.191   5.389   8.256  0.0601 -0.0260 -0.0685
 2405TIP3    H128850   2.192   5.443   8.177 -0.6735 -0.3857 -0.3351
 2405TIP3    H228851   2.200   5.451   8.328  0.6761  0.3133 -0.4332
 2406TIP3   OH228852   2.526   6.179   1.836 -0.4604 -0.1455 -0.2949
 2406TIP3    H128853   2.510   6.126   1.757 -2.1170  0.2840 -0.2965
 2406TIP3    H228854   2.485   6.129   1.906 -2.9161  1.4876 -0.4430
 2407TIP3   OH228855   6.055   6.731   8.107 -0.3062  0.5617  0.1560
 2407TIP3    H128856   6.097   6.801   8.156 -0.1732 -0.2010  1.1844
 2407TIP3    H228857   6.038   6.663   8.173  1.8717 -1.4369 -1.1911
 2408TIP3   OH228858   0.404   1.052   0.822  0.4814  0.1728 -0.0769
 2408TIP3    H128859   0.382   0.982   0.761  0.7923 -0.6720  0.7571
 2408TIP3    H228860   0.320   1.077   0.860  0.5359 -0.7827  0.7030
 2409TIP3   OH228861   2.526   3.207   0.654  0.8841  0.2874  0.3621
 2409TIP3    H128862   2.512   3.242   0.566  1.5659  1.2405  0.6155
 2409TIP3    H228863   2.527   3.284   0.710 -0.7207 -0.3868  1.3963
 2410TIP3   OH228864   1.932   1.335   0.294 -0.3105  0.2387 -0.1137
 2410TIP3    H128865   1.854   1.384   0.268 -0.4614 -0.4170 -0.9713
 2410TIP3    H228866   1.985   1.398   0.343  0.2540  1.8022 -2.5379
 2411TIP3   OH228867   0.896   6.297   1.482  0.3093  0.1019  0.1375
 2411TIP3    H128868   0.982   6.256   1.489  0.8091  0.6321 -2.0744
 2411TIP3    H228869   0.835   6.224   1.470  0.3195 -0.3076  2.1355
 2412TIP3   OH228870   1.535   0.751   0.088 -0.5075  0.4051 -0.0544
 2412TIP3    H128871   1.571   0.780   0.005  1.3155 -0.5154  0.3638
 2412TIP3    H228872   1.516   0.658   0.075 -1.3882  0.5392  0.1917
 2413TIP3   OH228873   0.136   2.315   1.120  0.4244 -0.1756 -0.0243
 2413TIP3    H128874   0.051   2.329   1.162  1.3080 -0.4293  1.9623
 2413TIP3    H228875   0.197   2.367   1.173  1.8095 -1.5724 -0.1805
 2414TIP3   OH228876   5.803   2.516   8.102 -0.2508  0.7368  0.0784
 2414TIP3    H128877   5.743   2.590   8.099  0.6401  1.6637  2.6152
 2414TIP3    H228878   5.778   2.467   8.180  1.6962  0.6549  0.7053
 2415TIP3   OH228879   4.070   0.319   2.327 -0.7672 -0.0286 -0.3157
 2415TIP3    H128880   4.164   0.329   2.344 -0.5318 -0.8941 -1.0699
 2415TIP3    H228881   4.045   0.242   2.378 -0.8453 -0.4203 -0.9451
 2416TIP3   OH228882   4.651   3.719   8.202  0.8371  0.3167 -0.3508
 2416TIP3    H128883   4.640   3.790   8.138 -0.2877 -0.3071 -0.8832
 2416TIP3    H228884   4.706   3.757   8.271  0.2779  1.6955 -0.6276
 2417TIP3   OH228885   4.776   0.836   2.254  0.0215 -0.2726 -0.1681
 2417TIP3    H128886   4.762   0.806   2.164 -1.5039  1.6089 -0.6149
 2417TIP3    H228887   4.717   0.782   2.306 -0.0114 -0.5135 -0.4466
 2418TIP3   OH228888   3.684   1.919   0.829 -0.2102  0.4453  0.0649
 2418TIP3    H128889   3.617   1.979   0.797 -0.0325  0.7036  0.1732
 2418TIP3    H228890   3.691   1.939   0.922 -0.3616  0.0504  0.1596
 2419TIP3   OH228891   4.287   3.119   7.896  0.0991 -0.3117  0.0491
 2419TIP3    H128892   4.323   3.141   7.982 -0.0945 -0.4022  0.1519
 2419TIP3    H228893   4.337   3.043   7.867  1.1143  0.5362 -0.5209
 2420TIP3   OH228894   0.886   5.889   0.022  0.5146  0.4030  0.1070
 2420TIP3    H128895   0.925   5.961  -0.027  0.1171  1.6218  1.5206
 2420TIP3    H228896   0.961   5.843   0.061  0.7240  0.5135 -0.1630
 2421TIP3   OH228897   3.734   1.667   0.713 -0.3947 -0.3505  0.0808
 2421TIP3    H128898   3.724   1.743   0.770 -0.1021 -0.8601  0.8133
 2421TIP3    H228899   3.724   1.591   0.770 -0.0576 -0.8732 -0.5310
 2422TIP3   OH228900   3.463   2.140   1.121 -0.3552 -0.0317  0.1375
 2422TIP3    H128901   3.474   2.187   1.204  1.3548 -1.1194  0.5782
 2422TIP3    H228902   3.529   2.071   1.123 -2.3004 -2.0591 -0.7932
 2423TIP3   OH228903   3.892   6.135   7.041  0.2501  0.1851  0.0452
 2423TIP3    H128904   3.838   6.079   6.985 -1.0913 -0.5099  1.9391
 2423TIP3    H228905   3.829   6.187   7.090  1.2651 -0.3775  2.0536
 2424TIP3   OH228906   2.274   2.103   0.538  0.0069  0.3402 -0.6367
 2424TIP3    H128907   2.258   2.128   0.447 -1.8180 -1.4889 -0.8710
 2424TIP3    H228908   2.362   2.065   0.538  1.0212  2.5051 -1.0997
 2425TIP3   OH228909   2.227   6.567   2.098  0.5508 -0.0641 -0.3245
 2425TIP3    H128910   2.220   6.534   2.188 -0.4712  1.6775  0.2836
 2425TIP3    H228911   2.143   6.610   2.082  0.6818 -0.4319 -2.1724
 2426TIP3   OH228912   5.863   6.827   7.183 -0.0541  0.1362  0.5415
 2426TIP3    H128913   5.841   6.917   7.159 -2.5547 -0.6060 -0.1865
 2426TIP3    H228914   5.864   6.779   7.100 -0.1958 -0.7978  1.0600
 2427TIP3   OH228915   1.803   0.861   1.971 -0.3197  0.1679 -0.7026
 2427TIP3    H128916   1.744   0.934   1.986 -1.5281 -1.1417  1.4619
 2427TIP3    H228917   1.859   0.859   2.048 -0.3834 -1.2183 -0.6605
 2428TIP3   OH228918   0.091   4.115   2.834 -0.2218  0.1412 -0.0177
 2428TIP3    H128919   0.065   4.030   2.870 -0.2831  0.9904  2.0642
 2428TIP3    H228920   0.039   4.125   2.755 -3.1995 -0.0767  1.7579
 2429TIP3   OH228921   1.329   3.018   2.148 -0.4621 -0.5606  0.0355
 2429TIP3    H128922   1.372   3.084   2.202 -1.3918 -1.4388  1.9435
 2429TIP3    H228923   1.308   3.064   2.066 -0.3661  1.2629  0.9859
 2430TIP3   OH228924   2.711   4.335   2.075  0.1177 -0.3792  0.1099
 2430TIP3    H128925   2.673   4.247   2.070 -1.5294  0.3222 -0.4043
 2430TIP3    H228926   2.804   4.320   2.091 -0.0771 -2.2190 -0.2553
 2431TIP3   OH228927   1.089   6.221   1.820  0.4328 -0.2331  0.0626
 2431TIP3    H128928   1.023   6.283   1.851 -2.6975 -2.4787 -1.5698
 2431TIP3    H228929   1.049   6.135   1.834  2.7482 -1.7146 -1.7133
 2432TIP3   OH228930   4.546   2.289   1.420 -0.3393 -0.9171  0.1882
 2432TIP3    H128931   4.601   2.296   1.499  1.0078  0.0232 -0.7951
 2432TIP3    H228932   4.595   2.231   1.362 -0.5999 -0.4462 -0.5119
 2433TIP3   OH228933   3.935   0.994   7.902  0.1901 -0.0621 -0.5051
 2433TIP3    H128934   3.994   0.920   7.895  0.9172  0.4885 -0.3210
 2433TIP3    H228935   3.866   0.976   7.838  0.1761 -1.0498 -0.2237
 2434TIP3   OH228936   2.557   3.945   2.642  0.2692  0.2073 -0.0318
 2434TIP3    H128937   2.604   3.990   2.713 -0.5420  0.2170  0.5175
 2434TIP3    H228938   2.525   3.864   2.682  1.6648 -0.8695 -0.9977
 2435TIP3   OH228939   4.344   5.704   1.411  0.2056 -0.1794  0.3229
 2435TIP3    H128940   4.308   5.674   1.495  0.0041 -1.8809 -0.3315
 2435TIP3    H228941   4.290   5.661   1.345  0.2443  1.2883 -0.7017
 2436TIP3   OH228942   3.318   1.721   2.887 -0.6937  0.6288  0.5772
 2436TIP3    H128943   3.298   1.627   2.889 -0.7798  0.6473  0.6090
 2436TIP3    H228944   3.264   1.758   2.956  0.0464  0.5743  1.1939
 2437TIP3   OH228945   2.309   3.629   2.008 -0.5089 -0.0629 -0.1117
 2437TIP3    H128946   2.389   3.664   2.047  0.6783 -0.2337 -2.1943
 2437TIP3    H228947   2.253   3.606   2.082  0.5205  1.9545  1.3827
 2438TIP3   OH228948   1.826   3.474   1.752 -0.1682  0.5321 -0.7511
 2438TIP3    H128949   1.844   3.567   1.764 -0.8006  0.6454 -0.6773
 2438TIP3    H228950   1.771   3.450   1.826 -0.0603  0.1090 -0.8030
 2439TIP3   OH228951   1.518   5.728   0.254  0.4702  0.1366  0.3276
 2439TIP3    H128952   1.430   5.766   0.259  0.3848 -0.1774  1.4474
 2439TIP3    H228953   1.577   5.803   0.266  0.3107  0.0727  1.7054
 2440TIP3   OH228954   1.958   3.210   2.293 -0.4455 -0.4627  0.3313
 2440TIP3    H128955   1.958   3.217   2.388  1.3103  3.6086  0.2284
 2440TIP3    H228956   1.875   3.251   2.267  0.7949  2.1290  0.1485
 2441TIP3   OH228957   1.684   5.615   8.016  0.2766  0.1942  0.0392
 2441TIP3    H128958   1.770   5.576   7.997  1.0158  2.0677 -0.6639
 2441TIP3    H228959   1.641   5.550   8.072  1.6819 -1.3127 -0.5297
 2442TIP3   OH228960   6.020   7.011   1.382 -0.6964 -0.0966 -0.0705
 2442TIP3    H128961   6.015   7.104   1.405 -1.2301 -0.2176  0.3252
 2442TIP3    H228962   6.011   6.966   1.466 -1.6857 -0.5283 -0.3971
 2443TIP3   OH228963   0.934   3.656   0.119  0.2165 -0.0158  0.2671
 2443TIP3    H128964   0.958   3.638   0.028  1.8440 -2.2300  1.0411
 2443TIP3    H228965   0.840   3.673   0.116 -0.1769 -2.0511 -1.6201
 2444TIP3   OH228966   2.447   4.540   1.356  0.1246 -0.5713 -0.5177
 2444TIP3    H128967   2.370   4.484   1.363  0.1639 -0.5602  0.0353
 2444TIP3    H228968   2.418   4.625   1.389  0.4681 -0.6595  0.0112
 2445TIP3   OH228969   2.306   2.444   8.043  0.1572  0.1175 -0.1007
 2445TIP3    H128970   2.216   2.475   8.029 -0.1615  0.4319  2.1983
 2445TIP3    H228971   2.354   2.522   8.071  0.9375 -0.2266 -0.4528
 2446TIP3   OH228972   1.241   3.443   8.101 -0.1436 -0.0621  0.2768
 2446TIP3    H128973   1.270   3.513   8.160 -1.0459  0.7525 -0.2039
 2446TIP3    H228974   1.217   3.371   8.158 -0.4600  0.5111  0.8814
 2447TIP3   OH228975   4.008   2.699   1.573  0.0082 -0.0396  0.7470
 2447TIP3    H128976   4.017   2.790   1.600 -1.3779  0.4668 -0.3734
 2447TIP3    H228977   4.072   2.689   1.503 -0.9332  0.5853 -0.2451
 2448TIP3   OH228978   1.430   6.525   1.098 -0.7862  0.1092 -0.0394
 2448TIP3    H128979   1.460   6.455   1.040  0.5050 -0.7117  1.5404
 2448TIP3    H228980   1.510   6.558   1.140 -1.4453  2.1094 -0.2641
 2449TIP3   OH228981   2.381   1.151   0.040 -0.0459 -0.1278  0.3492
 2449TIP3    H128982   2.358   1.110   0.124  0.0098 -0.4808  0.1973
 2449TIP3    H228983   2.304   1.138  -0.014 -0.0865  0.1119  0.3489
 2450TIP3   OH228984   3.017   6.045   1.999 -0.6316  0.1019  0.2995
 2450TIP3    H128985   2.950   6.078   1.939 -1.1756 -1.6668 -0.1538
 2450TIP3    H228986   2.974   6.043   2.084 -1.1861 -1.0004  0.0142
 2451TIP3   OH228987   4.675   3.362   0.432  0.6000  0.4746 -0.4982
 2451TIP3    H128988   4.663   3.274   0.398 -0.9755  0.7105 -0.6145
 2451TIP3    H228989   4.768   3.380   0.419  0.2182  0.4305 -4.4020
 2452TIP3   OH228990   4.573   6.814   1.412 -0.1988  0.3893 -0.6931
 2452TIP3    H128991   4.591   6.733   1.364  1.9442  0.3870 -0.0033
 2452TIP3    H228992   4.627   6.881   1.368  0.0974  0.8486  0.3252
 2453TIP3   OH228993   0.879   1.205   1.758 -0.1550 -0.3691 -0.6482
 2453TIP3    H128994   0.884   1.172   1.668 -3.3472  1.0102 -1.4493
 2453TIP3    H228995   0.840   1.292   1.751 -2.1449 -0.8724  2.1211
 2454TIP3   OH228996   0.542   2.818   2.026  0.1776  0.2497 -0.2321
 2454TIP3    H128997   0.552   2.743   1.968  0.6939  0.0398  0.1232
 2454TIP3    H228998   0.447   2.832   2.030  0.0664 -0.4635 -0.1993
 2455TIP3   OH228999   5.231   1.576   8.264  0.1719 -0.4343  0.2351
 2455TIP3    H129000   5.264   1.518   8.195 -0.3930 -1.7261  1.0105
 2455TIP3    H229001   5.309   1.619   8.299  0.9360 -2.3543  1.0667
 2456TIP3   OH229002   1.063   0.848   1.811  0.3147  0.6221  0.3347
 2456TIP3    H129003   1.042   0.909   1.740 -1.4589 -0.0779  0.2047
 2456TIP3    H229004   1.139   0.887   1.854  0.2527  2.0523 -0.7625
 2457TIP3   OH229005   3.495   0.984   8.342 -0.1228 -0.5230 -0.7437
 2457TIP3    H129006   3.521   0.965   8.252  0.7962  1.8339 -1.0267
 2457TIP3    H229007   3.399   0.988   8.338 -0.2319 -2.5476 -1.1181
 2458TIP3   OH229008   2.703   0.622   1.891  0.3157  0.3147 -0.2187
 2458TIP3    H129009   2.731   0.558   1.956 -1.4555 -0.1922  0.1148
 2458TIP3    H229010   2.779   0.635   1.834  0.5747 -2.4839 -0.6377
 2459TIP3   OH229011   1.030   4.044   0.791  0.0450 -0.3840  0.0828
 2459TIP3    H129012   0.942   4.083   0.789  1.0774  2.1427 -0.5288
 2459TIP3    H229013   1.089   4.120   0.789  2.2557 -2.0337 -0.5139
 2460TIP3   OH229014   0.584   2.934   2.868 -0.1705 -0.2551  0.1319
 2460TIP3    H129015   0.559   2.852   2.825 -1.8515  0.7737 -0.9617
 2460TIP3    H229016   0.572   2.916   2.962 -1.1715 -1.0572 -0.1264
 2461TIP3   OH229017   4.392   2.076   1.088  0.3365  0.0699  0.3646
 2461TIP3    H129018   4.450   2.005   1.117  1.4558 -0.3876 -2.7005
 2461TIP3    H229019   4.304   2.042   1.102  0.6619  0.1829  3.6983
 2462TIP3   OH229020   6.554   0.367   2.179  0.2533 -0.1188  0.2822
 2462TIP3    H129021   6.571   0.354   2.272 -0.2694 -1.7167  0.1798
 2462TIP3    H229022   6.579   0.285   2.137 -0.2884  0.2779 -0.8883
 2463TIP3   OH229023   0.462   1.144   7.611 -0.7755 -0.2655  0.7703
 2463TIP3    H129024   0.411   1.072   7.576  0.1767 -2.1275  2.9298
 2463TIP3    H229025   0.410   1.178   7.684 -0.9575  0.9067  0.1289
 2464TIP3   OH229026   5.803   5.240   8.185 -0.2022  0.3398 -0.3070
 2464TIP3    H129027   5.805   5.320   8.133 -0.1682  1.2389  1.0467
 2464TIP3    H229028   5.740   5.258   8.255  1.6693  0.1854  1.5230
 2465TIP3   OH229029   6.973   5.765   7.618  0.4877 -0.8315  0.5755
 2465TIP3    H129030   7.016   5.704   7.557 -1.5300 -2.9828  1.1326
 2465TIP3    H229031   6.888   5.724   7.636 -0.6540  1.8059  1.6702
 2466TIP3   OH229032   5.868   0.836   8.117  0.9602 -0.6681  0.0022
 2466TIP3    H129033   5.917   0.892   8.178  0.9805 -1.5539  0.8161
 2466TIP3    H229034   5.826   0.898   8.057  2.1979  0.1603 -0.0561
 2467TIP3   OH229035   3.339   5.754   1.625  0.7895  0.3181 -0.1551
 2467TIP3    H129036   3.272   5.686   1.623  1.2038 -0.1398  0.7045
 2467TIP3    H229037   3.293   5.832   1.655  0.6145  0.0223  0.3662
 2468TIP3   OH229038   2.700   2.060   1.313 -0.3479 -0.2095 -0.2287
 2468TIP3    H129039   2.660   2.127   1.369  1.1741  0.5219  0.0363
 2468TIP3    H229040   2.763   2.016   1.370  0.3356 -0.2924 -1.0375
 2469TIP3   OH229041   0.094   4.315   1.402  0.7341 -0.6513 -0.5596
 2469TIP3    H129042   0.039   4.289   1.476 -0.5421 -0.9167 -1.5510
 2469TIP3    H229043   0.171   4.258   1.408 -0.2291 -2.0046 -0.4949
 2470TIP3   OH229044   2.936   1.509   0.444 -0.7085  0.2375  0.1921
 2470TIP3    H129045   2.885   1.589   0.431 -2.6696 -0.5566  2.2493
 2470TIP3    H229046   2.959   1.510   0.537  2.9426  0.3998 -0.5808
 2471TIP3   OH229047   3.683   4.869   0.857 -0.1212 -0.1468  0.1448
 2471TIP3    H129048   3.653   4.958   0.837  1.2599  0.2388 -0.3416
 2471TIP3    H229049   3.757   4.855   0.799  1.5370 -0.5031  2.2191
 2472TIP3   OH229050   6.607   4.998   8.168 -1.3023 -0.1615  0.1141
 2472TIP3    H129051   6.653   5.080   8.149 -1.2066 -0.0386  0.8312
 2472TIP3    H229052   6.608   4.992   8.264  0.1117 -1.7963  0.0597
 2473TIP3   OH229053   5.715   4.800   1.078  0.0015  0.0865  0.1511
 2473TIP3    H129054   5.678   4.880   1.043 -1.8209 -1.7639 -2.5855
 2473TIP3    H229055   5.678   4.792   1.166 -0.8377  1.5838 -0.0405
 2474TIP3   OH229056   3.512   3.648   7.851  0.2144 -0.5570 -0.3658
 2474TIP3    H129057   3.422   3.617   7.837 -0.5999  1.7678 -0.7664
 2474TIP3    H229058   3.532   3.700   7.773  1.0910  0.7015  0.6432
 2475TIP3   OH229059   4.068   0.845   1.658 -0.5404  0.0428  0.3076
 2475TIP3    H129060   4.155   0.860   1.620 -0.1204 -1.6432  0.4940
 2475TIP3    H229061   4.054   0.919   1.717  1.7865 -0.7187  1.9774
 2476TIP3   OH229062   5.475   4.473   1.588  0.0015 -0.1507  0.0791
 2476TIP3    H129063   5.512   4.528   1.657 -0.0779  0.0948 -0.0774
 2476TIP3    H229064   5.513   4.386   1.605  1.0315  0.1948 -0.3650
 2477TIP3   OH229065   2.045   1.859   1.835  0.6299 -0.1032 -0.0918
 2477TIP3    H129066   2.100   1.821   1.766 -0.0898  0.1432 -0.8204
 2477TIP3    H229067   2.034   1.788   1.898  1.0654 -0.4238 -0.3671
 2478TIP3   OH229068   0.871   3.254   2.832 -0.4312 -0.3611 -0.1843
 2478TIP3    H129069   0.865   3.160   2.845  2.6833 -0.7359 -0.6106
 2478TIP3    H229070   0.878   3.265   2.738 -1.4250  0.3910 -0.1889
 2479TIP3   OH229071   2.194   0.923   1.915  0.1115  0.2739  0.4513
 2479TIP3    H129072   2.183   0.911   2.009  1.7842  0.5053  0.7050
 2479TIP3    H229073   2.289   0.928   1.902 -0.1133  3.1061 -0.8708
 2480TIP3   OH229074   6.493   5.452   6.585  0.2725  0.4446 -0.0660
 2480TIP3    H129075   6.447   5.398   6.649  0.0598 -0.1898 -0.7417
 2480TIP3    H229076   6.426   5.513   6.553  0.4374  0.9171  0.4807
 2481TIP3   OH229077   3.295   2.779   0.142 -0.1837  0.2327 -0.1749
 2481TIP3    H129078   3.361   2.776   0.073  1.6785  0.8200  1.4974
 2481TIP3    H229079   3.288   2.872   0.165 -1.0194  0.0824  0.2240
 2482TIP3   OH229080   4.500   5.779   7.335  0.0873 -0.4380 -0.6911
 2482TIP3    H129081   4.572   5.716   7.335 -0.1985 -0.7708 -0.5442
 2482TIP3    H229082   4.502   5.819   7.248  0.4225 -0.4759 -0.6991
 2483TIP3   OH229083   0.337   2.132   2.260 -0.1295 -0.6843 -0.1613
 2483TIP3    H129084   0.419   2.116   2.213  0.7714 -0.9205  1.4064
 2483TIP3    H229085   0.343   2.075   2.338 -0.5111  1.3091  1.4055
 2484TIP3   OH229086   2.248   5.975   2.484 -0.5837 -0.1250  0.0439
 2484TIP3    H129087   2.217   6.017   2.403 -2.4728 -0.1964  0.6796
 2484TIP3    H229088   2.243   6.043   2.550 -1.6808 -0.7562  0.6463
 2485TIP3   OH229089   3.347   6.638   0.530  0.4869 -0.5980  0.1118
 2485TIP3    H129090   3.329   6.693   0.454 -0.8586  0.1679  0.9392
 2485TIP3    H229091   3.373   6.554   0.493 -0.8071 -0.4546 -1.2331
 2486TIP3   OH229092   0.811   5.883   1.768 -0.1151 -0.4531  0.0465
 2486TIP3    H129093   0.753   5.958   1.753  0.1444  0.0662  1.5152
 2486TIP3    H229094   0.818   5.842   1.682 -0.7523  0.8476 -0.6693
 2487TIP3   OH229095   3.001   2.615   0.777 -0.2202  0.2815 -0.0414
 2487TIP3    H129096   2.980   2.624   0.869 -1.2146  0.5515 -0.2851
 2487TIP3    H229097   2.993   2.704   0.741  1.5215  0.4330 -0.1228
 2488TIP3   OH229098   1.533   6.935   8.177 -0.2254  0.3133  1.1380
 2488TIP3    H129099   1.558   7.011   8.228  1.9798 -0.4928  1.3537
 2488TIP3    H229100   1.561   6.860   8.230 -0.5268 -0.6090  0.0401
 2489TIP3   OH229101   1.493   4.468   0.120  0.1848 -0.6830 -0.0407
 2489TIP3    H129102   1.406   4.504   0.100  0.3920 -0.1604 -0.0195
 2489TIP3    H229103   1.498   4.387   0.069 -0.4557 -0.9112  0.2414
 2490TIP3   OH229104   1.032   3.730   1.102 -0.4382 -0.0654  0.3607
 2490TIP3    H129105   1.049   3.637   1.089  0.2660  0.1133 -0.0468
 2490TIP3    H229106   0.945   3.733   1.142 -1.0673 -0.8329 -0.8753
 2491TIP3   OH229107   2.609   0.741   0.188 -0.2731 -0.6463  0.3741
 2491TIP3    H129108   2.700   0.771   0.186 -0.2849 -0.6341 -0.9607
 2491TIP3    H229109   2.569   0.789   0.261  0.2102  1.1320 -0.4820
 2492TIP3   OH229110   5.988   5.637   7.357  0.0674 -0.3425 -0.1560
 2492TIP3    H129111   5.955   5.564   7.304 -0.8215  0.4409 -0.6972
 2492TIP3    H229112   6.043   5.687   7.297  0.3137 -0.3148  0.0926
 2493TIP3   OH229113   2.742   4.909   2.780 -0.8912 -0.4090  0.0469
 2493TIP3    H129114   2.659   4.883   2.820 -0.1933  0.6049  2.2805
 2493TIP3    H229115   2.715   4.954   2.699 -2.3611 -2.0843 -0.4707
 2494TIP3   OH229116   3.703   6.211   8.288 -0.0830 -0.6804 -0.3847
 2494TIP3    H129117   3.680   6.199   8.196 -2.1118 -1.3569  0.1546
 2494TIP3    H229118   3.694   6.305   8.303 -1.7548 -0.7850 -0.4527
 2495TIP3   OH229119   2.458   4.822   0.840 -0.0800 -0.0751 -0.1077
 2495TIP3    H129120   2.404   4.782   0.908  0.5956 -0.6046  0.1188
 2495TIP3    H229121   2.409   4.900   0.814 -1.2579 -0.8634 -0.3324
 2496TIP3   OH229122   5.589   5.707   2.023  0.3086 -0.3454 -0.1047
 2496TIP3    H129123   5.608   5.724   1.931  2.0588 -2.1887 -0.1731
 2496TIP3    H229124   5.514   5.762   2.043  0.1712  0.4572 -2.4971
 2497TIP3   OH229125   6.455   5.697   7.953  0.1456 -0.6220 -0.0406
 2497TIP3    H129126   6.429   5.659   8.037 -0.4358 -0.7129 -0.2534
 2497TIP3    H229127   6.385   5.672   7.893  0.0995  0.2007 -0.3459
 2498TIP3   OH229128   4.416   6.494   1.503 -0.1238  0.0317 -0.3295
 2498TIP3    H129129   4.484   6.543   1.550 -0.3450  1.1252 -1.1096
 2498TIP3    H229130   4.432   6.513   1.411 -0.8061 -0.6192 -0.5912
 2499TIP3   OH229131   6.552   6.038   2.359 -0.0997 -0.0595 -0.2979
 2499TIP3    H129132   6.594   6.012   2.441 -0.3652  0.7460  0.1076
 2499TIP3    H229133   6.536   5.956   2.313  1.2483 -0.4309 -0.1419
 2500TIP3   OH229134   3.736   2.813   7.689  0.0805 -0.6439  0.3535
 2500TIP3    H129135   3.702   2.874   7.624 -1.5980 -1.0468  0.8127
 2500TIP3    H229136   3.673   2.817   7.761 -0.4139 -3.3491  0.1413
 2501TIP3   OH229137   2.700   1.788   6.970  0.2336 -0.5334  0.5015
 2501TIP3    H129138   2.620   1.838   6.949 -0.5059 -1.6544  0.5845
 2501TIP3    H229139   2.771   1.847   6.945 -0.6162  0.3771  0.1307
 2502TIP3   OH229140   6.438   3.428   6.963  0.2381 -0.2874  0.4209
 2502TIP3    H129141   6.408   3.443   7.052 -0.5692  1.3288 -0.0866
 2502TIP3    H229142   6.362   3.445   6.908  1.3575  1.3822 -0.7239
 2503TIP3   OH229143   0.283   2.127   0.456  0.2753 -0.3712  0.0746
 2503TIP3    H129144   0.221   2.053   0.457 -0.5264  0.2848 -0.3243
 2503TIP3    H229145   0.275   2.164   0.544  0.1624 -0.3398  0.0519
 2504TIP3   OH229146   5.985   1.099   0.513 -0.8907 -0.1667 -0.0788
 2504TIP3    H129147   5.987   1.042   0.436  1.3125  2.3505 -2.0663
 2504TIP3    H229148   6.034   1.051   0.580  0.0415 -1.0531 -1.3499
 2505TIP3   OH229149   6.255   2.189   0.645 -0.2612  0.3691 -0.3362
 2505TIP3    H129150   6.199   2.217   0.718  0.2377 -0.2933  0.3165
 2505TIP3    H229151   6.206   2.117   0.605 -0.9160  1.2604 -1.1789
 2506TIP3   OH229152   2.835   0.777   2.142 -0.1841  0.1287 -0.3126
 2506TIP3    H129153   2.851   0.691   2.104 -1.0986 -0.2611  0.1521
 2506TIP3    H229154   2.744   0.797   2.121 -0.0965  0.8149 -0.0931
 2507TIP3   OH229155   3.697   6.645   2.031 -0.2574  0.4860 -0.0519
 2507TIP3    H129156   3.750   6.689   1.965 -1.3261  4.2246  1.3340
 2507TIP3    H229157   3.617   6.619   1.985  0.1593  0.4791 -0.7858
 2508TIP3   OH229158   1.384   5.376   7.606  0.4023 -0.7067 -0.0415
 2508TIP3    H129159   1.329   5.394   7.683 -0.3349  0.7006 -0.8599
 2508TIP3    H229160   1.471   5.407   7.631  0.7058 -2.2558  0.9883
 2509TIP3   OH229161   0.272   1.172   1.375  0.0078 -0.4967 -0.8335
 2509TIP3    H129162   0.191   1.122   1.386  0.9027 -2.2919 -1.9181
 2509TIP3    H229163   0.320   1.124   1.308  1.5575  1.0836 -0.9096
 2510TIP3   OH229164   2.683   2.083   8.356 -0.4273  0.1201  0.5445
 2510TIP3    H129165   2.726   2.000   8.376  0.3481  0.1686 -0.7531
 2510TIP3    H229166   2.651   2.072   8.266 -1.0315  0.9463  0.6454
 2511TIP3   OH229167   6.344   6.085   6.956  0.5686  0.3240  0.1674
 2511TIP3    H129168   6.382   6.115   6.873 -1.2968  1.6586 -0.2714
 2511TIP3    H229169   6.375   6.149   7.021  0.1064  0.7008  0.0281
 2512TIP3   OH229170   3.553   0.697   1.226 -0.0218 -0.1096  0.0586
 2512TIP3    H129171   3.497   0.766   1.191 -0.4463 -0.2336  0.4797
 2512TIP3    H229172   3.501   0.657   1.296  0.9726  0.4294  1.1394
 2513TIP3   OH229173   4.000   5.258   8.195  0.1975  0.2363  0.1378
 2513TIP3    H129174   3.997   5.349   8.224 -1.0876 -0.1757  1.4214
 2513TIP3    H229175   3.916   5.221   8.223  0.8553 -1.4453  0.0147
 2514TIP3   OH229176   5.060   6.301   7.644  0.1331 -0.4210 -0.0516
 2514TIP3    H129177   5.003   6.310   7.721  1.1963  0.5876  0.6552
 2514TIP3    H229178   5.115   6.379   7.646 -1.0669  0.6403 -2.9221
 2515TIP3   OH229179   5.986   4.978   0.931  0.0852  0.0155  0.4399
 2515TIP3    H129180   6.058   5.036   0.905  2.1432 -2.4676  0.2463
 2515TIP3    H229181   5.914   5.038   0.951  2.0528  2.6266  0.3121
 2516TIP3   OH229182   6.835   4.379   2.733  0.4343  0.8767  0.3523
 2516TIP3    H129183   6.812   4.290   2.756  1.3691  0.9516  1.6906
 2516TIP3    H229184   6.767   4.406   2.671  0.3299 -0.8565 -0.3457
 2517TIP3   OH229185   4.342   1.191   1.821 -0.2678 -0.3567 -0.2035
 2517TIP3    H129186   4.359   1.107   1.778 -0.5136 -1.7800  2.2974
 2517TIP3    H229187   4.337   1.169   1.914  1.6287  2.7254  0.7570
 2518TIP3   OH229188   0.033   3.636   2.617  0.3377  0.3006 -0.1119
 2518TIP3    H129189   0.022   3.719   2.570  2.2544  0.1999 -0.8224
 2518TIP3    H229190   0.083   3.660   2.695 -1.1314  0.1505  0.9127
 2519TIP3   OH229191   5.346   0.790   7.616 -0.3258  0.3041 -0.4505
 2519TIP3    H129192   5.363   0.734   7.691 -0.9265 -0.4997 -0.8879
 2519TIP3    H229193   5.400   0.753   7.546 -1.2762 -0.2049 -0.9385
 2520TIP3   OH229194   2.259   4.792   6.866 -0.2451  0.0210  0.1972
 2520TIP3    H129195   2.254   4.704   6.830 -0.0131  0.1123 -0.0613
 2520TIP3    H229196   2.350   4.819   6.850 -0.0036 -0.1021  1.2232
 2521TIP3   OH229197   4.816   1.960   1.515 -0.6695 -0.8220 -0.0331
 2521TIP3    H129198   4.805   2.019   1.441 -1.5600 -1.5645 -0.5194
 2521TIP3    H229199   4.730   1.960   1.558 -0.2969 -0.7647  0.7251
 2522TIP3   OH229200   0.354   1.681   0.446  0.2247  0.5324 -0.8479
 2522TIP3    H129201   0.328   1.601   0.401  0.2948  1.2099 -2.1241
 2522TIP3    H229202   0.405   1.650   0.521 -1.9083 -0.7205  0.1897
 2523TIP3   OH229203   6.107   2.933   7.650 -0.3516  0.3594 -0.0037
 2523TIP3    H129204   6.053   2.973   7.718 -0.6051 -0.3611  0.2299
 2523TIP3    H229205   6.081   2.841   7.650  1.4695 -0.2030  0.6915
 2524TIP3   OH229206   2.677   0.006   7.749 -0.0100 -0.2982 -0.1076
 2524TIP3    H129207   2.695  -0.087   7.758  1.3488 -0.0675 -0.2155
 2524TIP3    H229208   2.631   0.030   7.830 -0.3967 -1.0564 -0.0973
 2525TIP3   OH229209   3.845   2.109   2.538  0.2377 -0.6726 -0.1235
 2525TIP3    H129210   3.802   2.063   2.610 -1.3684  0.7291 -0.1393
 2525TIP3    H229211   3.933   2.128   2.571 -0.2500 -0.6521  1.2168
 2526TIP3   OH229212   2.657   0.333   3.331  0.2096 -0.5155  0.2107
 2526TIP3    H129213   2.628   0.249   3.367  0.6265 -0.2660  1.1763
 2526TIP3    H229214   2.722   0.309   3.265  1.2009 -0.9432  1.3024
 2527TIP3   OH229215   4.191   4.106   0.826 -0.5144 -0.0926  0.2009
 2527TIP3    H129216   4.260   4.151   0.875 -0.6870 -1.4413  1.7598
 2527TIP3    H229217   4.237   4.058   0.758  0.0739 -0.7073  1.0180
 2528TIP3   OH229218   0.373   4.425   2.881  0.2540  0.1488  0.0938
 2528TIP3    H129219   0.333   4.512   2.879  0.3735  0.2288  0.9057
 2528TIP3    H229220   0.374   4.397   2.790  0.7000  1.2185 -0.2352
 2529TIP3   OH229221   4.159   0.409   1.842 -0.2138  0.3607 -0.1379
 2529TIP3    H129222   4.223   0.408   1.912 -0.6237  0.0660  0.2376
 2529TIP3    H229223   4.157   0.499   1.811 -2.2574  1.2618  2.2930
 2530TIP3   OH229224   4.438   3.430   7.577  0.3396 -0.1997  0.7455
 2530TIP3    H129225   4.344   3.429   7.557  0.4823  2.9642 -0.5300
 2530TIP3    H229226   4.458   3.338   7.596 -2.4999 -1.4380 -1.3716
 2531TIP3   OH229227   5.228   3.403   0.427  0.1654  0.1554 -0.5278
 2531TIP3    H129228   5.255   3.428   0.516 -0.6008  1.5947 -0.6679
 2531TIP3    H229229   5.310   3.383   0.382  0.5507 -0.8706  0.5606
 2532TIP3   OH229230   6.282   3.295   2.040  0.4618 -0.6705 -0.1941
 2532TIP3    H129231   6.281   3.389   2.020 -0.8922 -1.0084 -1.8378
 2532TIP3    H229232   6.367   3.265   2.007 -0.5951 -0.6860 -3.1400
 2533TIP3   OH229233   0.090   4.452   7.549  0.6719  0.0222  0.2726
 2533TIP3    H129234   0.086   4.460   7.453  0.3050  1.7030  0.3911
 2533TIP3    H229235   0.168   4.501   7.574 -0.1662  1.0677  0.9338
 2534TIP3   OH229236   5.958   6.033   6.769  0.3716  0.1696  0.0043
 2534TIP3    H129237   5.913   6.068   6.692 -1.0603  0.9344  1.1541
 2534TIP3    H229238   5.889   6.009   6.829  1.4382 -1.6233  0.5838
 2535TIP3   OH229239   2.276   6.982   1.300  0.4950  0.1928 -0.0983
 2535TIP3    H129240   2.274   7.024   1.386 -1.0530  0.7586 -0.3759
 2535TIP3    H229241   2.325   6.900   1.314  1.7383  1.0655  0.9152
 2536TIP3   OH229242   0.660   6.743   7.573  0.4647 -0.1346  0.2143
 2536TIP3    H129243   0.575   6.739   7.528 -0.3181  0.9076  1.5108
 2536TIP3    H229244   0.666   6.660   7.621  0.7441 -0.7236 -0.8215
 2537TIP3   OH229245   5.627   6.173   8.023  0.4070  0.2488 -0.4640
 2537TIP3    H129246   5.716   6.162   8.059  0.3654  1.9274  0.2426
 2537TIP3    H229247   5.578   6.099   8.058  1.0339  0.4257  0.8415
 2538TIP3   OH229248   3.739   7.035   7.374  0.0932 -0.1136  0.1329
 2538TIP3    H129249   3.782   7.118   7.351 -0.0603 -0.0553  0.0530
 2538TIP3    H229250   3.755   7.026   7.468 -0.8671  0.5857  0.3805
 2539TIP3   OH229251   2.051   6.690   7.221 -0.0920  0.3920  0.2678
 2539TIP3    H129252   2.077   6.598   7.219 -0.8551  0.0166  3.1298
 2539TIP3    H229253   2.102   6.728   7.291 -0.6276  1.8875 -0.1165
 2540TIP3   OH229254   6.325   0.602   0.243 -0.0444 -0.0212  0.1383
 2540TIP3    H129255   6.266   0.554   0.185  0.4934 -0.3204 -0.1741
 2540TIP3    H229256   6.407   0.552   0.240  0.1629  0.2780  0.7153
 2541TIP3   OH229257   3.846   3.025   2.386  0.1654 -0.0136  0.1198
 2541TIP3    H129258   3.767   2.972   2.399  0.5423 -0.0343  3.1934
 2541TIP3    H229259   3.825   3.109   2.427  1.8471 -0.2014  1.4601
 2542TIP3   OH229260   0.101   4.561   2.344  0.2098  0.5545  0.0728
 2542TIP3    H129261   0.082   4.546   2.251 -0.3567 -0.3932  0.3256
 2542TIP3    H229262   0.096   4.474   2.384  0.3549  0.9646  1.0087
 2543TIP3   OH229263   5.468   1.076   0.878 -0.2335 -0.5800 -0.2530
 2543TIP3    H129264   5.535   1.009   0.868 -0.8473 -1.1783 -0.4639
 2543TIP3    H229265   5.398   1.032   0.927 -0.9258 -0.3029 -0.9759
 2544TIP3   OH229266   1.259   2.262   1.817  0.8957  0.5790  0.4468
 2544TIP3    H129267   1.236   2.251   1.909  0.8444  1.8154  0.5997
 2544TIP3    H229268   1.180   2.240   1.769  0.7712  0.4158  0.7275
 2545TIP3   OH229269   0.447   5.851   6.916  0.5411  0.2817 -0.2351
 2545TIP3    H129270   0.505   5.854   6.839  0.7995  0.4649 -0.0337
 2545TIP3    H229271   0.500   5.888   6.987  0.2515  0.2455 -0.0011
 2546TIP3   OH229272   2.552   2.940   1.972  0.0952 -0.2791 -0.4714
 2546TIP3    H129273   2.612   2.918   2.043 -0.6316 -0.0751  0.2282
 2546TIP3    H229274   2.493   2.864   1.966  0.4512 -0.5071 -1.1946
 2547TIP3   OH229275   5.258   0.016   1.148 -0.2491  0.6467 -0.3370
 2547TIP3    H129276   5.256  -0.023   1.060 -1.1532 -2.1160  0.8051
 2547TIP3    H229277   5.350   0.036   1.163 -0.0283  0.8050 -1.7603
 2548TIP3   OH229278   4.983   4.792   7.408  0.0391  0.1514  0.3477
 2548TIP3    H129279   4.991   4.718   7.348 -0.9051  0.1103  0.2508
 2548TIP3    H229280   4.967   4.753   7.494 -2.0927  0.2111  0.0392
 2549TIP3   OH229281   5.608   2.367   1.300 -0.0099  0.3932  0.4217
 2549TIP3    H129282   5.565   2.425   1.363  0.4556  0.7378  0.4243
 2549TIP3    H229283   5.701   2.378   1.317  0.0896 -0.1941  0.2743
 2550TIP3   OH229284   6.868   2.832   8.083  0.6054  1.3356  0.2013
 2550TIP3    H129285   6.909   2.818   7.998  0.0064  0.2644  0.0668
 2550TIP3    H229286   6.878   2.748   8.129 -0.3796  1.4236  0.6076
 2551TIP3   OH229287   1.465   1.029   1.983 -0.3620 -0.2144 -0.2454
 2551TIP3    H129288   1.401   0.975   2.028 -0.6674  0.5850  0.3092
 2551TIP3    H229289   1.471   1.109   2.036 -0.6857  0.7283 -1.5776
 2552TIP3   OH229290   1.728   1.529   2.413 -0.3268  0.4430  0.7066
 2552TIP3    H129291   1.658   1.464   2.416  0.1781 -0.1252  0.3847
 2552TIP3    H229292   1.747   1.540   2.320  0.1905  0.3959  0.8031
 2553TIP3   OH229293   2.434   3.323   8.157  0.0459  0.5826 -0.2315
 2553TIP3    H129294   2.504   3.262   8.180  0.0151  1.2353  1.7860
 2553TIP3    H229295   2.462   3.407   8.192 -0.9707  1.2374 -0.9226
 2554TIP3   OH229296   4.820   5.237   2.798 -0.1526  0.0164  0.4273
 2554TIP3    H129297   4.864   5.152   2.801 -1.6409 -0.9590 -2.3467
 2554TIP3    H229298   4.891   5.301   2.807  1.7639 -1.5055 -2.3023
 2555TIP3   OH229299   4.305   3.811   0.967  0.2438 -0.3205 -0.0459
 2555TIP3    H129300   4.373   3.875   0.988 -0.8725  0.8458  0.1414
 2555TIP3    H229301   4.328   3.734   1.019  1.0346  0.2951  0.5472
 2556TIP3   OH229302   1.903   4.272   1.654 -0.2192  0.8355 -0.1410
 2556TIP3    H129303   1.821   4.292   1.607 -0.8786  0.2551  0.7478
 2556TIP3    H229304   1.949   4.211   1.596 -1.4700 -0.6493  0.3544
 2557TIP3   OH229305   5.688   5.744   1.346  0.3051  0.2635 -0.3068
 2557TIP3    H129306   5.667   5.662   1.392  1.8140 -0.6093 -1.1105
 2557TIP3    H229307   5.781   5.758   1.364  0.6608  0.4788 -2.1914
 2558TIP3   OH229308   7.018   5.491   1.369  0.5078 -0.0700 -0.2680
 2558TIP3    H129309   7.064   5.575   1.379 -0.1369  0.2397  0.1411
 2558TIP3    H229310   6.968   5.481   1.449  0.2385 -0.6447 -0.5012
 2559TIP3   OH229311   2.659   4.114   7.539  0.6925 -0.3070  0.0814
 2559TIP3    H129312   2.688   4.188   7.486  0.1375  0.1166  0.3570
 2559TIP3    H229313   2.700   4.130   7.625 -1.7470  1.3132  1.0616
 2560TIP3   OH229314   6.338   0.993   0.474 -0.4278 -0.0987 -0.2873
 2560TIP3    H129315   6.412   1.009   0.415  0.1628  0.3385  0.5479
 2560TIP3    H229316   6.359   0.910   0.516 -0.8684 -0.4307 -0.7179
 2561TIP3   OH229317   1.362   1.667   2.884 -0.1836 -0.0979 -0.7384
 2561TIP3    H129318   1.343   1.739   2.943 -1.0223  0.5287 -1.7331
 2561TIP3    H229319   1.457   1.669   2.873  0.0777 -0.6340  1.0505
 2562TIP3   OH229320   4.233   0.984   1.478  0.3643 -0.5194  0.0780
 2562TIP3    H129321   4.291   0.952   1.408  1.9683 -0.4527  1.3167
 2562TIP3    H229322   4.231   1.079   1.465  0.2240 -0.5617 -0.2074
 2563TIP3   OH229323   5.966   0.503   7.766  0.1661  0.1843  0.4139
 2563TIP3    H129324   6.061   0.509   7.776  0.2096 -0.3373  0.3773
 2563TIP3    H229325   5.931   0.538   7.848  0.4466 -1.2874  1.2062
 2564TIP3   OH229326   6.702   3.612   0.305 -0.2018 -0.4027 -0.3272
 2564TIP3    H129327   6.675   3.624   0.396 -0.4368 -3.3332  0.1093
 2564TIP3    H229328   6.782   3.663   0.297 -1.3030  1.6107  0.8662
 2565TIP3   OH229329   0.964   0.178   2.875  0.4644  0.0717 -0.2435
 2565TIP3    H129330   0.945   0.085   2.887 -0.5421  0.0336 -1.8307
 2565TIP3    H229331   0.897   0.223   2.927  1.1202 -0.0771  0.7459
 2566TIP3   OH229332   4.080   5.623   2.311  0.1931 -0.2114 -0.1324
 2566TIP3    H129333   4.112   5.596   2.397 -0.5030 -0.1872  0.1416
 2566TIP3    H229334   4.116   5.710   2.297  0.6347 -0.3801 -0.0417
 2567TIP3   OH229335   5.181   0.202   0.663  0.2256 -0.1824  0.5684
 2567TIP3    H129336   5.116   0.135   0.640  0.0431  0.4290 -0.8305
 2567TIP3    H229337   5.258   0.178   0.611 -0.2876  1.4112 -1.0390
 2568TIP3   OH229338   1.348   1.154   0.830 -0.1333 -0.0827  0.0104
 2568TIP3    H129339   1.434   1.155   0.787 -0.0353  2.5992  0.0949
 2568TIP3    H229340   1.313   1.067   0.812  2.6436 -1.3076  0.0865
 2569TIP3   OH229341   3.273   1.215   0.625  0.0483  0.7376 -0.3018
 2569TIP3    H129342   3.193   1.230   0.576 -1.9877  0.0967  2.5695
 2569TIP3    H229343   3.278   1.119   0.635  0.7296  0.8172  0.2158
 2570TIP3   OH229344   3.622   0.947   1.342 -0.1622  0.0016  0.2222
 2570TIP3    H129345   3.685   0.959   1.413 -2.6826 -0.7605  2.7956
 2570TIP3    H229346   3.623   0.853   1.325 -0.6176 -0.0172  0.2996
 2571TIP3   OH229347   5.536   1.107   7.384  0.3169 -0.3620 -0.0191
 2571TIP3    H129348   5.613   1.143   7.429 -0.2098 -0.4404  0.9783
 2571TIP3    H229349   5.525   1.162   7.307  1.2535 -0.2272 -0.0671
 2572TIP3   OH229350   0.710   5.692   2.136 -0.5243 -0.7807  0.0576
 2572TIP3    H129351   0.703   5.616   2.193 -0.2422 -1.5150 -0.8531
 2572TIP3    H229352   0.801   5.720   2.144 -0.4899 -0.8723 -0.0091
 2573TIP3   OH229353   0.434   1.653   7.426  0.2796  0.2128 -0.4571
 2573TIP3    H129354   0.515   1.692   7.458  0.1612 -1.4433  2.1594
 2573TIP3    H229355   0.451   1.559   7.426 -1.6229 -0.1795  0.2169
 2574TIP3   OH229356   4.888   4.764   7.918 -0.0156  0.0526  0.5283
 2574TIP3    H129357   4.910   4.822   7.991 -0.6583  0.8068  0.1425
 2574TIP3    H229358   4.801   4.792   7.891  0.2284 -0.1911 -0.5553
 2575TIP3   OH229359   2.151   6.999   2.890  0.4833 -0.0766  0.1063
 2575TIP3    H129360   2.133   7.076   2.944 -0.2641  0.3267 -0.6923
 2575TIP3    H229361   2.070   6.949   2.892  1.4408 -1.6535  1.8615
 2576TIP3   OH229362   1.048   0.144   8.354  0.1563 -0.0181 -0.3758
 2576TIP3    H129363   1.031   0.221   8.407 -0.9430  1.0554 -2.1763
 2576TIP3    H229364   1.111   0.174   8.288 -0.2036 -0.6737 -1.0334
 2577TIP3   OH229365   1.252   5.433   8.222  0.7422 -0.0163 -0.0735
 2577TIP3    H129366   1.279   5.388   8.302 -0.9098  0.6506  0.9138
 2577TIP3    H229367   1.165   5.399   8.204 -0.5513  2.6338  0.6684
 2578TIP3   OH229368   1.360   4.990   0.619  0.0341 -0.4407 -0.1132
 2578TIP3    H129369   1.306   5.000   0.697 -0.3623 -1.5283 -0.2298
 2578TIP3    H229370   1.402   5.075   0.607 -1.5700  0.4079  0.0366
 2579TIP3   OH229371   2.330   1.770   6.725 -0.1518  0.0204  0.2720
 2579TIP3    H129372   2.257   1.828   6.745  0.1851  0.4952  0.1463
 2579TIP3    H229373   2.406   1.812   6.764 -0.0167 -0.7203  0.8267
 2580TIP3   OH229374   0.841   4.966   0.576  0.0717 -0.3207 -0.1591
 2580TIP3    H129375   0.873   5.033   0.636 -0.8436  0.5360 -0.6154
 2580TIP3    H229376   0.746   4.976   0.576  0.0559 -0.2325 -1.8421
 2581TIP3   OH229377   1.307   0.537   0.104 -0.2534 -0.6019 -0.1214
 2581TIP3    H129378   1.231   0.479   0.093 -1.5712  0.6058  1.9875
 2581TIP3    H229379   1.287   0.588   0.182  3.1645 -0.8502  1.0880
 2582TIP3   OH229380   4.820   1.266   0.802  0.8950 -0.2354 -0.2869
 2582TIP3    H129381   4.773   1.314   0.870 -3.4143  1.2110 -3.8019
 2582TIP3    H229382   4.876   1.332   0.761 -0.0435  0.1264 -1.0059
 2583TIP3   OH229383   6.915   6.356   1.746 -0.3220  0.4182  0.2912
 2583TIP3    H129384   6.961   6.440   1.747  0.0379  0.2255  1.2227
 2583TIP3    H229385   6.842   6.368   1.806 -1.6877  0.8161 -1.4097
 2584TIP3   OH229386   1.099   0.190   7.014  0.1839 -0.6486 -0.6101
 2584TIP3    H129387   1.049   0.133   6.956  1.2165 -0.1384 -2.0580
 2584TIP3    H229388   1.163   0.232   6.957  1.6381 -0.5601  1.0010
 2585TIP3   OH229389   1.728   3.732   1.120  0.0071  0.8520  0.0732
 2585TIP3    H129390   1.640   3.717   1.087  0.2102  0.7739 -0.4339
 2585TIP3    H229391   1.785   3.688   1.058  0.3738  0.4382  0.6945
 2586TIP3   OH229392   5.446   3.855   0.871  0.1973 -0.1688  0.2647
 2586TIP3    H129393   5.452   3.933   0.815 -2.2747 -0.9746 -1.2610
 2586TIP3    H229394   5.535   3.819   0.871  1.0574  1.8151 -0.2081
 2587TIP3   OH229395   3.172   3.884   0.867 -0.1941 -0.0866  0.3940
 2587TIP3    H129396   3.114   3.887   0.943 -1.8559 -1.7150 -0.6851
 2587TIP3    H229397   3.181   3.790   0.848  1.9124  0.1873 -0.1715
 2588TIP3   OH229398   6.760   0.604   1.390  0.3722  0.2221 -0.1866
 2588TIP3    H129399   6.784   0.534   1.451 -1.0115  0.4027  0.5873
 2588TIP3    H229400   6.822   0.675   1.410 -0.8589  0.7727  1.9530
 2589TIP3   OH229401   1.359   1.149   7.080  0.3912  0.1675  0.2836
 2589TIP3    H129402   1.386   1.063   7.112  1.3345  0.0722 -0.6942
 2589TIP3    H229403   1.306   1.130   7.002  1.1533  0.4559 -0.3291
 2590TIP3   OH229404   2.302   6.562   0.561 -0.1697  0.1883 -0.1676
 2590TIP3    H129405   2.251   6.617   0.621  0.8821  0.6874  0.2994
 2590TIP3    H229406   2.238   6.501   0.525 -1.4776  1.9008 -0.9405
 2591TIP3   OH229407   5.846   0.609   7.997  0.0033 -0.1199 -0.2547
 2591TIP3    H129408   5.878   0.678   8.054 -1.3323  1.0401 -0.8310
 2591TIP3    H229409   5.751   0.610   8.010 -0.5652  1.1997 -3.4533
 2592TIP3   OH229410   1.734   1.605   8.355 -0.7498 -0.2114 -0.3197
 2592TIP3    H129411   1.724   1.511   8.371  0.6841 -0.2444  0.6708
 2592TIP3    H229412   1.828   1.620   8.364 -0.9689  1.3309 -0.3999
 2593TIP3   OH229413   1.875   2.075   0.961  0.5267  0.3178 -0.7945
 2593TIP3    H129414   1.810   2.079   0.890 -0.1634 -0.9217 -0.2742
 2593TIP3    H229415   1.952   2.118   0.925 -0.1267  0.5926 -1.9437
 2594TIP3   OH229416   2.322   1.648   7.061  0.2362  0.0466 -0.2794
 2594TIP3    H129417   2.368   1.731   7.052  0.1020  0.0986 -0.4996
 2594TIP3    H229418   2.295   1.645   7.153 -0.8901  0.8587 -0.5556
 2595TIP3   OH229419   6.885   4.287   0.951 -0.3851  0.6225 -0.1670
 2595TIP3    H129420   6.909   4.313   1.040 -2.2367 -3.0146  1.6170
 2595TIP3    H229421   6.872   4.369   0.905 -3.3958  2.9160  4.0783
 2596TIP3   OH229422   5.559   2.340   7.134 -0.4446  0.3254  0.1658
 2596TIP3    H129423   5.585   2.423   7.093  0.5656  0.5628  1.2179
 2596TIP3    H229424   5.467   2.330   7.112 -0.8314  2.1761  0.7352
 2597TIP3   OH229425   3.607   4.231   0.238  0.0377 -0.4453 -0.4623
 2597TIP3    H129426   3.616   4.326   0.234  1.7203 -0.5949 -1.0352
 2597TIP3    H229427   3.594   4.212   0.331  2.1972  0.1988  0.0285
 2598TIP3   OH229428   5.884   2.304   7.620  0.2545  1.1464 -0.5540
 2598TIP3    H129429   5.973   2.281   7.593 -0.2893 -0.6584 -0.9137
 2598TIP3    H229430   5.896   2.361   7.696  1.7084 -0.0776  0.1793
 2599TIP3   OH229431   3.053   6.287   1.206 -0.1518 -0.6015 -0.4556
 2599TIP3    H129432   3.005   6.315   1.283 -2.3175 -0.8411 -1.6426
 2599TIP3    H229433   3.016   6.202   1.183 -1.1663  0.4134 -2.9762
 2600TIP3   OH229434   0.283   0.789   1.039 -0.3969 -0.5756 -0.0259
 2600TIP3    H129435   0.195   0.771   1.003 -0.3806 -1.6953  0.4722
 2600TIP3    H229436   0.343   0.760   0.970 -0.3974 -0.6450  0.0034
 2601TIP3   OH229437   1.406   1.574   0.512 -0.4462  0.6677  0.2696
 2601TIP3    H129438   1.359   1.620   0.581  0.1558  1.5027  0.1413
 2601TIP3    H229439   1.441   1.643   0.456  0.7327  0.0751  0.2326
 2602TIP3   OH229440   1.768   2.334   0.697 -0.3195 -0.1180  0.4562
 2602TIP3    H129441   1.757   2.242   0.720  1.2372  0.0436  2.0363
 2602TIP3    H229442   1.863   2.346   0.688 -0.4660  1.4111  0.6577
 2603TIP3   OH229443   4.638   2.804   8.108 -0.1979  0.0143 -0.1221
 2603TIP3    H129444   4.545   2.795   8.130 -0.1395  1.0250  0.5987
 2603TIP3    H229445   4.673   2.862   8.175  0.8526  0.0437 -0.6785
 2604TIP3   OH229446   5.768   6.179   0.057  0.2674 -0.0536 -0.4991
 2604TIP3    H129447   5.769   6.271   0.030 -1.3518  0.2608  0.3634
 2604TIP3    H229448   5.675   6.160   0.071  0.7365 -1.2118  1.3727
 2605TIP3   OH229449   1.280   2.993   0.221  0.6005 -0.0421 -0.1137
 2605TIP3    H129450   1.204   3.051   0.211 -0.6335 -1.5177  0.4077
 2605TIP3    H229451   1.351   3.052   0.246 -0.9361  1.1272  1.8429
 2606TIP3   OH229452   6.385   5.731   2.474 -0.3555 -0.0430 -0.0301
 2606TIP3    H129453   6.355   5.640   2.471 -2.1635  0.5380 -1.2029
 2606TIP3    H229454   6.447   5.734   2.547  1.5961 -2.7424 -1.4081
 2607TIP3   OH229455   2.889   1.054   7.176 -0.0233  0.4529  0.4447
 2607TIP3    H129456   2.946   1.092   7.109  0.5411 -1.0665  0.0197
 2607TIP3    H229457   2.801   1.079   7.149  0.2240  0.1716 -0.6966
 2608TIP3   OH229458   3.319   2.459   1.245  0.0785 -0.0594 -0.6345
 2608TIP3    H129459   3.413   2.443   1.241  0.1273  0.5219 -2.5306
 2608TIP3    H229460   3.281   2.398   1.182 -0.7547  0.2001 -0.4021
 2609TIP3   OH229461   4.187   6.886   8.327 -0.0689 -0.2688 -0.1125
 2609TIP3    H129462   4.262   6.896   8.386  0.5550  1.9783 -1.1763
 2609TIP3    H229463   4.193   6.960   8.267 -3.4552  0.3649  0.0895
 2610TIP3   OH229464   2.798   2.407   8.272  0.7458 -0.1020  0.6234
 2610TIP3    H129465   2.848   2.445   8.200  0.1600  2.0335  1.2682
 2610TIP3    H229466   2.862   2.353   8.319  1.4268 -0.5465 -0.7596
 2611TIP3   OH229467   4.923   1.979   7.970 -0.0975 -0.5447 -0.1104
 2611TIP3    H129468   4.833   1.998   7.944  0.8449  2.2686 -1.8279
 2611TIP3    H229469   4.916   1.906   8.032 -3.4752 -0.6870 -0.4897
 2612TIP3   OH229470   3.560   6.830   8.383 -0.2653  0.2369  0.6021
 2612TIP3    H129471   3.517   6.764   8.437  0.9355  0.0434  1.3727
 2612TIP3    H229472   3.562   6.792   8.295  1.0897 -1.1430  1.1730
 2613TIP3   OH229473   2.364   3.921   7.738 -0.5295 -0.1554  0.0878
 2613TIP3    H129474   2.385   4.015   7.739 -0.7786 -0.0999  0.0801
 2613TIP3    H229475   2.327   3.904   7.825 -2.2664  0.1581 -0.5676
 2614TIP3   OH229476   1.132   5.736   1.072  0.2036 -0.0122 -0.0420
 2614TIP3    H129477   1.223   5.755   1.094  0.2452 -0.3382  0.0704
 2614TIP3    H229478   1.132   5.645   1.043 -0.3063 -0.4578  1.2928
 2615TIP3   OH229479   3.398   2.270   0.870  0.2783  0.3471 -0.2518
 2615TIP3    H129480   3.380   2.364   0.874  0.8548  0.4173  1.0935
 2615TIP3    H229481   3.397   2.241   0.961  0.1679 -0.9530 -0.6461
 2616TIP3   OH229482   5.859   6.839   0.258 -0.1431  0.1998 -0.1531
 2616TIP3    H129483   5.799   6.908   0.287 -0.3744  0.7204 -1.7830
 2616TIP3    H229484   5.840   6.765   0.315 -1.2528  0.8597  0.3637
 2617TIP3   OH229485   1.494   3.050   1.200 -0.1808  0.1450 -0.3483
 2617TIP3    H129486   1.450   2.989   1.259  1.9850 -2.0106 -0.7831
 2617TIP3    H229487   1.547   3.104   1.258  1.3349 -1.4458 -0.1629
 2618TIP3   OH229488   5.219   6.571   7.404  0.1895  0.4488 -0.3039
 2618TIP3    H129489   5.169   6.512   7.348 -1.4664 -0.5760  2.1160
 2618TIP3    H229490   5.179   6.657   7.390 -1.1502 -0.0496  0.3095
 2619TIP3   OH229491   4.328   4.163   7.951  0.5897  0.0247  0.3259
 2619TIP3    H129492   4.373   4.102   7.892  0.9177  0.1324  0.4603
 2619TIP3    H229493   4.360   4.139   8.038  1.8053  1.2756  0.2615
 2620TIP3   OH229494   4.115   2.215   2.518 -0.0977  0.0046 -0.0097
 2620TIP3    H129495   4.165   2.204   2.437  1.0358 -1.8257  0.8577
 2620TIP3    H229496   4.136   2.303   2.549  2.4542 -0.5849  0.1663
 2621TIP3   OH229497   0.952   4.252   0.413 -0.3929  0.2467 -0.1205
 2621TIP3    H129498   1.000   4.183   0.367 -0.1268 -0.2564  0.8791
 2621TIP3    H229499   0.873   4.208   0.445  1.7512 -0.8854  4.3074
 2622TIP3   OH229500   0.585   6.636   1.777  0.2504 -0.0618 -0.2566
 2622TIP3    H129501   0.590   6.544   1.748  1.9082  0.1261 -0.7156
 2622TIP3    H229502   0.674   6.669   1.763  0.1960  1.0627  1.7661
 2623TIP3   OH229503   5.319   2.533   0.787  0.0454 -0.4488  0.1921
 2623TIP3    H129504   5.375   2.566   0.857  0.2104  0.8609 -0.5283
 2623TIP3    H229505   5.247   2.595   0.782  0.2679 -0.2755 -1.0869
 2624TIP3   OH229506   4.711   5.949   7.923 -0.0459 -0.3274 -0.5642
 2624TIP3    H129507   4.664   5.881   7.970  0.3728 -2.0408 -2.4762
 2624TIP3    H229508   4.646   6.016   7.904 -0.7179 -0.6844  0.4449
 2625TIP3   OH229509   2.064   0.515   0.850  0.3861  0.0422 -0.5304
 2625TIP3    H129510   1.994   0.544   0.908  0.3528 -2.1040  0.6185
 2625TIP3    H229511   2.093   0.594   0.806 -1.3373  1.3344  0.5179
 2626TIP3   OH229512   5.582   3.057   0.582  0.1808 -0.0057 -0.2070
 2626TIP3    H129513   5.601   3.108   0.661 -0.8636  0.7057 -0.3985
 2626TIP3    H229514   5.487   3.056   0.576  0.2540  0.6901 -1.9389
 2627TIP3   OH229515   5.355   4.193   7.619 -0.1468  0.1614 -0.0825
 2627TIP3    H129516   5.376   4.274   7.573  1.0351 -0.1989 -0.2278
 2627TIP3    H229517   5.271   4.209   7.661 -0.7306  0.8704 -1.4910
 2628TIP3   OH229518   6.721   1.945   0.397 -0.0740 -0.3775 -0.6795
 2628TIP3    H129519   6.715   1.857   0.360 -0.7981 -0.3850 -0.5647
 2628TIP3    H229520   6.636   1.959   0.437 -0.2274  0.6602 -1.3375
 2629TIP3   OH229521   1.568   6.192   1.543  0.1860 -0.1979 -0.8171
 2629TIP3    H129522   1.629   6.233   1.481 -0.2305  1.3888 -0.2248
 2629TIP3    H229523   1.507   6.262   1.566  0.6836 -0.5534  1.8308
 2630TIP3   OH229524   5.678   0.924   1.799  0.2802 -0.0316  0.3314
 2630TIP3    H129525   5.700   0.986   1.729 -1.3059 -0.8895 -1.0024
 2630TIP3    H229526   5.600   0.961   1.840  0.5976 -0.0671  0.9807
 2631TIP3   OH229527   2.732   6.974   0.672  0.3448  0.1017  0.1596
 2631TIP3    H129528   2.663   6.952   0.735 -0.2920  2.3507  0.3043
 2631TIP3    H229529   2.691   6.964   0.587  0.5005 -0.6041  0.1564
 2632TIP3   OH229530   3.202   5.925   1.793 -0.5973 -0.0808  0.4398
 2632TIP3    H129531   3.257   6.002   1.780  0.2495 -0.8164 -0.4628
 2632TIP3    H229532   3.151   5.945   1.871  1.5395  0.2943  1.8264
 2633TIP3   OH229533   0.734   3.469   0.944 -0.5134 -0.1552  0.7154
 2633TIP3    H129534   0.769   3.411   1.012 -0.1515 -0.3518  0.3664
 2633TIP3    H229535   0.811   3.497   0.894 -0.9712 -1.8342 -1.0425
 2634TIP3   OH229536   6.907   0.294   6.833 -0.3921 -0.6096 -0.1780
 2634TIP3    H129537   6.827   0.344   6.849 -1.5857 -2.3760 -0.3434
 2634TIP3    H229538   6.968   0.358   6.795 -0.3932  1.6630  3.2144
 2635TIP3   OH229539   5.781   5.137   2.133 -0.1621 -0.0718 -0.2975
 2635TIP3    H129540   5.863   5.114   2.175  0.0375  0.8953 -0.1243
 2635TIP3    H229541   5.804   5.208   2.072 -0.8377  0.1373 -0.3192
 2636TIP3   OH229542   4.015   0.624   1.050  0.0866  0.3972  0.0189
 2636TIP3    H129543   3.963   0.563   1.103  0.6514 -1.8638 -1.8969
 2636TIP3    H229544   4.106   0.601   1.069  0.4246  2.1751  0.8803
 2637TIP3   OH229545   6.015   1.779   2.270  0.2103 -0.3745  0.1132
 2637TIP3    H129546   6.010   1.812   2.180 -0.2494 -1.1767 -0.1604
 2637TIP3    H229547   6.100   1.808   2.302 -0.0128  0.7329 -0.2563
 2638TIP3   OH229548   2.028   0.713   0.103  0.3228 -0.7121  0.9692
 2638TIP3    H129549   2.096   0.668   0.053  0.3950 -0.2558  0.6573
 2638TIP3    H229550   1.956   0.650   0.107 -0.7714  0.1815 -2.0181
 2639TIP3   OH229551   5.964   5.782   8.224 -0.4450  0.4274  0.2851
 2639TIP3    H129552   5.977   5.859   8.280  0.3128  0.3285  0.2545
 2639TIP3    H229553   5.872   5.760   8.235 -0.8893  1.8201 -0.3144
 2640TIP3   OH229554   1.369   0.103   1.894  0.2661  0.0047  0.1744
 2640TIP3    H129555   1.430   0.117   1.820 -0.0825  0.7599  0.0157
 2640TIP3    H229556   1.406   0.156   1.965  1.1892 -1.5525  0.9104
 2641TIP3   OH229557   0.830   0.722   1.505  0.2273 -0.3348 -0.6022
 2641TIP3    H129558   0.803   0.631   1.489  1.3105 -0.4739 -1.8221
 2641TIP3    H229559   0.779   0.749   1.581  0.4117 -2.2050  0.2473
 2642TIP3   OH229560   5.875   0.514   1.500 -0.0379 -0.3972  0.1048
 2642TIP3    H129561   5.966   0.498   1.473 -0.2249  1.1365 -1.6009
 2642TIP3    H229562   5.862   0.455   1.575  2.7863  0.3215  1.3075
 2643TIP3   OH229563   3.199   3.191   1.438  0.2665  0.0978  0.2188
 2643TIP3    H129564   3.234   3.103   1.449 -0.4083  0.0461  2.3122
 2643TIP3    H229565   3.277   3.247   1.434  0.6791 -0.4790 -0.0280
 2644TIP3   OH229566   3.312   4.526   1.336  0.1790 -0.2517 -0.5156
 2644TIP3    H129567   3.224   4.561   1.338  0.3191  0.4855 -3.2864
 2644TIP3    H229568   3.346   4.549   1.250  4.2160  2.2252  1.3911
 2645TIP3   OH229569   6.524   4.682   0.063 -0.3568  0.2598 -0.5477
 2645TIP3    H129570   6.444   4.733   0.075  0.4509  1.6541 -0.8484
 2645TIP3    H229571   6.563   4.676   0.150 -0.8554 -0.5803 -0.3677
 2646TIP3   OH229572   2.890   1.762   0.189  0.5395 -0.2506 -0.2077
 2646TIP3    H129573   2.905   1.796   0.101  0.9061 -0.8763 -0.3955
 2646TIP3    H229574   2.810   1.709   0.181 -0.1950  0.7618  0.1474
 2647TIP3   OH229575   6.485   1.786   7.385 -0.5080 -0.2326 -0.5594
 2647TIP3    H129576   6.414   1.848   7.369 -0.1480  0.2923 -0.1972
 2647TIP3    H229577   6.509   1.801   7.477 -0.3810 -0.8754 -0.4854
 2648TIP3   OH229578   1.702   3.764   3.136 -0.1972  0.0781  0.2202
 2648TIP3    H129579   1.680   3.813   3.215  0.3683 -0.9573  1.0353
 2648TIP3    H229580   1.626   3.775   3.079 -1.3923 -0.6292  1.6145
 2649TIP3   OH229581   1.405   0.941   7.777 -0.2080  0.5802 -0.1096
 2649TIP3    H129582   1.430   0.892   7.856  0.2499  1.0783  0.0597
 2649TIP3    H229583   1.347   1.010   7.809 -1.1230 -0.0400 -0.3909
 2650TIP3   OH229584   5.631   4.964   0.774 -0.1932  0.3817  0.3838
 2650TIP3    H129585   5.663   4.884   0.731  0.4026  0.6442  0.3343
 2650TIP3    H229586   5.603   5.020   0.702  0.1089  0.5225  0.3736
 2651TIP3   OH229587   0.597   6.413   0.382 -0.0315  0.2804  0.0149
 2651TIP3    H129588   0.599   6.503   0.412 -3.8383  0.6214 -0.2216
 2651TIP3    H229589   0.519   6.408   0.326 -0.0708 -3.1720  0.1452
 2652TIP3   OH229590   6.289   3.316   1.404 -0.4495 -0.1167 -0.4874
 2652TIP3    H129591   6.205   3.275   1.384 -1.5062  0.0953  2.8272
 2652TIP3    H229592   6.351   3.243   1.408 -1.1198 -0.6781 -0.0950
 2653TIP3   OH229593   3.703   2.815   1.016  0.7873 -0.1491 -0.0375
 2653TIP3    H129594   3.747   2.820   0.930  0.8885  0.5706  0.0515
 2653TIP3    H229595   3.676   2.905   1.034 -0.4091 -0.5192  0.0848
 2654TIP3   OH229596   3.912   6.028   0.399 -0.6512 -0.3273  0.3463
 2654TIP3    H129597   3.876   6.106   0.443 -0.4912  0.8322 -1.4619
 2654TIP3    H229598   4.005   6.029   0.420 -0.8734 -0.7965  1.4007
 2655TIP3   OH229599   3.237   2.656   2.750 -0.2081  0.0360 -0.1912
 2655TIP3    H129600   3.247   2.583   2.811 -0.7290  1.9346  2.3486
 2655TIP3    H229601   3.254   2.734   2.803 -0.1717  1.8165 -2.6481
 2656TIP3   OH229602   3.150   6.843   8.230 -0.4213  0.1926  0.0421
 2656TIP3    H129603   3.106   6.853   8.314 -0.6356  0.0073 -0.0487
 2656TIP3    H229604   3.160   6.932   8.197 -4.1827  0.1655 -1.7394
 2657TIP3   OH229605   2.854   1.931   7.259  0.1645 -0.0743 -0.4479
 2657TIP3    H129606   2.847   1.991   7.184 -0.3194 -1.1051 -1.2440
 2657TIP3    H229607   2.763   1.914   7.284  0.2986 -0.5620 -0.2944
 2658TIP3   OH229608   1.174   5.658   7.338  0.3602  0.0516 -0.0964
 2658TIP3    H129609   1.088   5.654   7.380 -0.4525 -3.0750 -1.6583
 2658TIP3    H229610   1.166   5.727   7.272 -0.4523  0.7685  0.7445
 2659TIP3   OH229611   4.534   3.515   1.488  0.3645  0.3604  0.1003
 2659TIP3    H129612   4.470   3.521   1.418  3.0875 -0.0581 -2.6545
 2659TIP3    H229613   4.590   3.592   1.476  0.5490  0.6255  2.2714
 2660TIP3   OH229614   0.353   5.196   1.059  0.0054  0.1517  0.4793
 2660TIP3    H129615   0.280   5.143   1.092  0.2133  0.0726  0.8126
 2660TIP3    H229616   0.313   5.251   0.991  0.0130 -1.2632 -0.7256
 2661TIP3   OH229617   6.270   6.483   1.244 -0.1039  0.2839 -0.4174
 2661TIP3    H129618   6.182   6.455   1.268 -0.1589 -0.0704 -1.0310
 2661TIP3    H229619   6.274   6.575   1.271 -1.0202  0.6092 -1.3517
 2662TIP3   OH229620   3.372   6.310   0.741  0.0680  0.3500  0.1738
 2662TIP3    H129621   3.278   6.293   0.738  0.4480 -2.0942 -0.8058
 2662TIP3    H229622   3.390   6.328   0.834 -0.9438 -2.5912  1.0635
 2663TIP3   OH229623   2.814   0.434   2.087 -0.1076  0.0002 -0.4869
 2663TIP3    H129624   2.901   0.395   2.100 -0.8222 -1.7392 -0.6981
 2663TIP3    H229625   2.795   0.478   2.169  2.8316  4.4821 -1.7947
 2664TIP3   OH229626   2.414   4.668   0.629  0.0759  0.6826  0.2644
 2664TIP3    H129627   2.460   4.709   0.702  1.9090 -1.0293  0.1518
 2664TIP3    H229628   2.336   4.630   0.669  2.0081 -1.9371  1.8445
 2665TIP3   OH229629   6.270   1.957   2.247 -0.2500  0.1937  0.7106
 2665TIP3    H129630   6.321   2.037   2.259 -0.4475  0.5693 -0.7602
 2665TIP3    H229631   6.221   1.972   2.167 -1.5611 -0.7538  1.2970
 2666TIP3   OH229632   4.491   6.335   7.991 -0.2509  0.3545  0.2579
 2666TIP3    H129633   4.583   6.343   7.966 -0.2666  0.7002  0.3094
 2666TIP3    H229634   4.442   6.352   7.910 -0.2431 -1.4271 -0.1575
 2667TIP3   OH229635   0.101   3.537   0.254 -0.0003  0.4066  0.0983
 2667TIP3    H129636   0.189   3.503   0.244 -0.4156 -0.5233 -0.5539
 2667TIP3    H229637   0.072   3.557   0.164 -0.5462  0.4576  0.2776
 2668TIP3   OH229638   0.243   6.228   7.971 -0.3673  0.1730  0.2403
 2668TIP3    H129639   0.214   6.229   8.062 -1.5157  1.2671 -0.1041
 2668TIP3    H229640   0.332   6.193   7.974  0.4607  2.2201  2.0225
 2669TIP3   OH229641   4.065   2.756   0.339  0.3997 -0.5697 -0.0338
 2669TIP3    H129642   4.097   2.844   0.359 -0.9037 -0.3005  0.9998
 2669TIP3    H229643   4.027   2.725   0.422  0.9188 -2.1487 -0.3562
 2670TIP3   OH229644   6.485   6.719   0.406  0.2101 -0.3906  0.2043
 2670TIP3    H129645   6.547   6.757   0.344  0.0273 -0.0237  0.2436
 2670TIP3    H229646   6.526   6.731   0.491 -0.7237  1.5536  0.4373
 2671TIP3   OH229647   4.082   1.466   1.787  0.3631  0.0710  0.4820
 2671TIP3    H129648   4.056   1.554   1.761  1.0215  0.5489  1.4066
 2671TIP3    H229649   4.016   1.440   1.852  1.0968  0.5535  1.4458
 2672TIP3   OH229650   0.254   0.330   0.669  0.0405  0.4614  0.5712
 2672TIP3    H129651   0.325   0.275   0.638 -0.4489  0.1710 -0.0502
 2672TIP3    H229652   0.271   0.340   0.763  0.1023 -0.7952  0.7077
 2673TIP3   OH229653   5.579   3.933   1.493  0.2117 -0.5433  0.3031
 2673TIP3    H129654   5.508   3.892   1.542 -0.3030  1.1385  1.0514
 2673TIP3    H229655   5.597   3.872   1.421 -1.4449 -1.3885  0.5513
 2674TIP3   OH229656   6.639   0.890   1.263 -0.1273 -0.0260 -0.2808
 2674TIP3    H129657   6.682   0.902   1.348 -0.7318  2.0686 -0.2065
 2674TIP3    H229658   6.666   0.803   1.235  1.3456 -0.1636  1.3470
 2675TIP3   OH229659   4.132   2.662   1.865 -0.3507 -0.1859  0.0001
 2675TIP3    H129660   4.199   2.639   1.801 -0.2935  1.3234 -0.5236
 2675TIP3    H229661   4.089   2.739   1.828 -1.6052 -0.4242  0.8849
 2676TIP3   OH229662   2.501   6.093   7.588 -0.1407 -0.3404  0.8579
 2676TIP3    H129663   2.549   6.124   7.511  0.6457  0.4637  1.6529
 2676TIP3    H229664   2.563   6.102   7.660 -0.6527 -1.6922  1.4915
 2677TIP3   OH229665   4.664   6.527   0.731 -0.4907 -0.4744 -0.4804
 2677TIP3    H129666   4.746   6.525   0.781 -0.5129 -0.8003 -0.4559
 2677TIP3    H229667   4.692   6.517   0.640 -0.5378 -1.0862 -0.4307
 2678TIP3   OH229668   4.138   2.536   2.943  0.6391 -0.6508 -0.2865
 2678TIP3    H129669   4.210   2.477   2.965 -0.5234 -2.1691 -0.3921
 2678TIP3    H229670   4.059   2.484   2.958 -0.5020  1.2802  0.7627
 2679TIP3   OH229671   6.153   5.754   0.779 -0.3019 -0.4442  0.1740
 2679TIP3    H129672   6.214   5.799   0.837 -0.7916  0.4417  0.0208
 2679TIP3    H229673   6.115   5.824   0.725  0.9336 -1.3502 -1.9857
 2680TIP3   OH229674   6.567   4.495   2.208  0.2419  0.1970 -0.3661
 2680TIP3    H129675   6.503   4.438   2.166 -0.0250  0.3773 -0.2121
 2680TIP3    H229676   6.566   4.575   2.155  0.5878  0.0739 -0.5605
 2681TIP3   OH229677   0.236   5.529   7.236  0.2808  0.4560  0.3582
 2681TIP3    H129678   0.257   5.613   7.195  0.7512  1.4285  2.4321
 2681TIP3    H229679   0.291   5.465   7.190  0.6552  1.4566 -0.6136
 2682TIP3   OH229680   1.589   6.930   2.208  0.2865  0.0689  0.2921
 2682TIP3    H129681   1.544   6.905   2.127  0.3581 -1.1298  0.6000
 2682TIP3    H229682   1.535   7.000   2.245 -0.7856 -0.6400  0.1291
 2683TIP3   OH229683   5.087   2.362   3.061  0.2600 -0.6466  0.0463
 2683TIP3    H129684   5.064   2.331   2.973 -0.8150 -1.3666  0.5611
 2683TIP3    H229685   5.008   2.406   3.092  1.6383  2.5870 -0.5759
 2684TIP3   OH229686   0.985   0.688   0.529 -0.3348 -0.1498  0.3455
 2684TIP3    H129687   0.948   0.752   0.590 -0.5377  0.1764 -0.1160
 2684TIP3    H229688   1.045   0.637   0.582 -1.8861 -1.0994  1.2607
 2685TIP3   OH229689   1.377   4.845   2.611  0.1203  0.7868  0.2666
 2685TIP3    H129690   1.416   4.864   2.697  1.7527 -0.6376 -0.1039
 2685TIP3    H229691   1.452   4.823   2.555 -1.0618 -0.1853 -1.0080
 2686TIP3   OH229692   6.154   7.012   1.088 -0.4801 -0.3517  0.1435
 2686TIP3    H129693   6.134   7.018   1.182  1.4353  1.4086  0.5268
 2686TIP3    H229694   6.106   7.085   1.048  3.1127  2.7360  0.8011
 2687TIP3   OH229695   5.856   5.710   7.029 -1.3494 -0.1956 -0.5462
 2687TIP3    H129696   5.901   5.787   7.063 -2.1120 -0.4518  1.1296
 2687TIP3    H229697   5.864   5.645   7.099  2.0987 -2.8624 -3.0696
 2688TIP3   OH229698   0.922   6.666   2.034 -0.0498 -0.2060 -0.4638
 2688TIP3    H129699   1.009   6.670   2.074 -1.7415 -0.4844  3.7744
 2688TIP3    H229700   0.868   6.723   2.088 -2.8311 -1.1460 -2.0428
 2689TIP3   OH229701   3.707   4.023   8.001 -0.3483  0.2698 -0.2642
 2689TIP3    H129702   3.634   4.056   7.948 -0.0675  2.6139  0.6675
 2689TIP3    H229703   3.766   4.098   8.008  0.8055 -0.7440  1.2903
 2690TIP3   OH229704   1.333   3.707   0.165 -0.5026 -0.1983  0.0134
 2690TIP3    H129705   1.373   3.778   0.216  0.1465  1.7615 -2.9951
 2690TIP3    H229706   1.388   3.631   0.182  0.1684  0.5845  1.5504
 2691TIP3   OH229707   1.967   5.784   7.983  0.0474 -0.3739 -0.0911
 2691TIP3    H129708   1.942   5.719   7.918 -0.9575  0.4246 -0.5205
 2691TIP3    H229709   1.986   5.863   7.932 -3.6220  1.1995  0.6459
 2692TIP3   OH229710   3.337   2.531   7.892 -0.8123  0.0501  0.3019
 2692TIP3    H129711   3.421   2.486   7.886 -0.1357  1.3458 -0.5165
 2692TIP3    H229712   3.283   2.473   7.946  0.9292 -0.3205  1.7862
 2693TIP3   OH229713   5.713   4.154   1.153  0.0468 -0.0274  0.2172
 2693TIP3    H129714   5.722   4.122   1.063  0.7458  0.4142  0.1240
 2693TIP3    H229715   5.702   4.249   1.144 -0.6887 -0.0669  0.5631
 2694TIP3   OH229716   4.015   2.521   8.143 -0.3585 -0.0670 -0.0172
 2694TIP3    H129717   4.025   2.613   8.168 -1.0638  0.5889 -1.9939
 2694TIP3    H229718   4.073   2.510   8.067 -2.5580 -0.3951 -1.7389
 2695TIP3   OH229719   3.211   3.773   1.973 -0.2953  0.6320  0.0152
 2695TIP3    H129720   3.156   3.720   2.032 -0.4027  1.0656  0.3080
 2695TIP3    H229721   3.228   3.853   2.022 -0.7507  1.1940 -0.7231
 2696TIP3   OH229722   6.526   0.599   7.505 -0.6596  0.3988 -0.8214
 2696TIP3    H129723   6.449   0.627   7.456 -2.0077 -1.5225  0.0640
 2696TIP3    H229724   6.515   0.505   7.516  1.0038  0.3230  0.7456
 2697TIP3   OH229725   0.939   5.000   1.164 -0.1878  0.0303 -0.5701
 2697TIP3    H129726   0.995   5.074   1.188  0.5015 -0.3021 -1.1251
 2697TIP3    H229727   0.979   4.964   1.085 -0.4317 -1.0219 -0.2328
 2698TIP3   OH229728   2.275   3.523   7.274  0.1978 -0.2693 -0.0985
 2698TIP3    H129729   2.290   3.465   7.200 -1.1058 -0.6802 -0.0746
 2698TIP3    H229730   2.248   3.465   7.345 -3.6893  0.4200 -0.7655
 2699TIP3   OH229731   5.324   5.304   0.465 -0.5041  0.2492 -0.1149
 2699TIP3    H129732   5.292   5.241   0.529 -0.6027 -0.6382 -1.0034
 2699TIP3    H229733   5.251   5.363   0.450 -0.5880  0.2630  0.3453
 2700TIP3   OH229734   3.145   6.570   0.760 -0.1305 -0.1956 -0.1150
 2700TIP3    H129735   3.123   6.496   0.703  1.0118 -0.0386 -0.7967
 2700TIP3    H229736   3.202   6.625   0.706  0.1577  0.4717  0.8519
 2701TIP3   OH229737   5.529   2.828   1.543  0.1204  0.6070 -0.0602
 2701TIP3    H129738   5.469   2.873   1.484  0.1577 -0.5826 -1.0476
 2701TIP3    H229739   5.482   2.822   1.626 -1.2937 -0.5909 -0.8945
 2702TIP3   OH229740   4.594   2.638   2.223 -0.5472 -0.0952 -0.6725
 2702TIP3    H129741   4.676   2.686   2.230 -1.0140  0.7603 -0.9464
 2702TIP3    H229742   4.570   2.618   2.314 -0.1848 -0.1095 -0.5780
 2703TIP3   OH229743   1.882   6.075   3.295 -0.4379  0.3015 -0.3973
 2703TIP3    H129744   1.814   6.115   3.241 -1.7744 -1.0493  0.1944
 2703TIP3    H229745   1.845   5.990   3.320  1.9508 -0.9939 -0.9884
 2704TIP3   OH229746   2.360   4.766   1.485 -0.4452 -0.3153 -0.1884
 2704TIP3    H129747   2.295   4.761   1.554  0.8152  0.9984  1.1641
 2704TIP3    H229748   2.338   4.846   1.437 -0.3039 -0.3199 -0.2618
 2705TIP3   OH229749   6.715   4.521   7.415 -0.1647  0.3713 -0.4131
 2705TIP3    H129750   6.683   4.518   7.505 -0.9397  1.2108 -0.6391
 2705TIP3    H229751   6.686   4.438   7.376 -1.2107  0.6677 -0.3136
 2706TIP3   OH229752   1.972   5.580   0.646  0.4998  0.1674 -0.2610
 2706TIP3    H129753   1.982   5.664   0.691  0.4931  0.7133 -1.2486
 2706TIP3    H229754   1.981   5.515   0.715 -0.6637  1.0019  0.7369
 2707TIP3   OH229755   4.209   2.040   1.984 -0.2639 -0.8165 -0.0922
 2707TIP3    H129756   4.274   2.094   1.940 -0.2955 -1.5944 -1.1333
 2707TIP3    H229757   4.129   2.053   1.933 -1.3655  1.2294  1.9809
 2708TIP3   OH229758   3.063   6.816   7.001 -0.0196  0.0288  0.1009
 2708TIP3    H129759   3.056   6.721   7.012  2.9338 -0.4831 -1.4544
 2708TIP3    H229760   3.077   6.849   7.090 -0.7564 -1.0092  0.6257
 2709TIP3   OH229761   2.212   3.545   0.874 -0.0217 -0.0112  0.1454
 2709TIP3    H129762   2.295   3.525   0.830 -1.2127 -2.2519 -1.3034
 2709TIP3    H229763   2.197   3.470   0.932 -0.1752  1.2715  1.8529
 2710TIP3   OH229764   4.967   4.133   2.190  0.5274  0.0201  0.2151
 2710TIP3    H129765   5.019   4.208   2.161  0.4413  1.0000  2.4349
 2710TIP3    H229766   4.998   4.114   2.278 -1.4506 -0.6876  0.8197
 2711TIP3   OH229767   0.282   1.011   7.459  0.0092 -0.1436 -0.0116
 2711TIP3    H129768   0.236   0.973   7.384 -0.0073  0.7075 -0.4427
 2711TIP3    H229769   0.243   1.098   7.468 -0.8295 -0.6489  1.7153
 2712TIP3   OH229770   3.528   0.593   1.493  0.6262 -0.3653 -0.0260
 2712TIP3    H129771   3.605   0.538   1.478  0.3775 -0.7559  0.1034
 2712TIP3    H229772   3.536   0.622   1.584  1.3382  0.7407 -0.4300
 2713TIP3   OH229773   4.749   5.976   0.793 -0.5406  0.1126  0.0655
 2713TIP3    H129774   4.798   5.935   0.721  0.3425  0.3717  0.5022
 2713TIP3    H229775   4.770   5.923   0.870 -1.5465 -0.2141  0.1217
 2714TIP3   OH229776   0.068   4.154   1.681  0.8198 -0.1415  0.5712
 2714TIP3    H129777  -0.001   4.221   1.681  0.6469 -0.2581 -1.3181
 2714TIP3    H229778   0.021   4.072   1.667  1.1678 -0.4849  1.3733
 2715TIP3   OH229779   1.597   2.772   0.739  0.1581  0.3261  0.7510
 2715TIP3    H129780   1.507   2.797   0.717  1.0339  1.9526 -1.2661
 2715TIP3    H229781   1.629   2.845   0.792  0.8823  0.7290 -0.2125
 2716TIP3   OH229782   6.139   4.171   1.171  0.4459 -0.3008  0.0240
 2716TIP3    H129783   6.083   4.242   1.138 -1.2846 -1.4073  0.4526
 2716TIP3    H229784   6.130   4.101   1.106  0.6053 -0.8294  0.5676
 2717TIP3   OH229785   2.036   2.999   7.961  0.3336 -0.3070 -0.4329
 2717TIP3    H129786   2.079   3.070   7.913 -1.5575  0.5887 -0.8941
 2717TIP3    H229787   2.107   2.957   8.010  1.8677  0.5246 -1.8166
 2718TIP3   OH229788   1.764   6.477   2.327  0.2397  0.7184 -0.2848
 2718TIP3    H129789   1.682   6.477   2.278 -0.9425  1.8413  1.5644
 2718TIP3    H229790   1.798   6.565   2.316  0.0960  0.9038  0.6269
 2719TIP3   OH229791   0.341   2.619   2.199  0.0672 -0.2737  0.2604
 2719TIP3    H129792   0.296   2.652   2.121 -1.1213 -3.2536 -0.4444
 2719TIP3    H229793   0.357   2.697   2.252 -1.0926  1.5739 -1.9364
 2720TIP3   OH229794   4.893   3.765   2.616  0.7742  0.4322 -0.2592
 2720TIP3    H129795   4.840   3.815   2.679  0.2751 -1.3011  0.7813
 2720TIP3    H229796   4.966   3.732   2.668  0.1959 -1.2789 -0.4745
 2721TIP3   OH229797   2.367   1.077   0.321 -0.3034 -0.5962  0.2787
 2721TIP3    H129798   2.301   1.011   0.303 -1.2907  0.3506  0.2848
 2721TIP3    H229799   2.424   1.037   0.386 -0.2315 -1.8232 -0.5091
 2722TIP3   OH229800   3.503   2.340   8.184 -0.3971  0.6298  0.0654
 2722TIP3    H129801   3.546   2.327   8.100  0.2495  1.4854  0.2493
 2722TIP3    H229802   3.573   2.329   8.248 -1.1713 -1.6159  0.6397
 2723TIP3   OH229803   4.658   5.203   1.392 -0.3242 -0.3510  0.0119
 2723TIP3    H129804   4.666   5.117   1.352 -1.2101 -0.0804 -0.7750
 2723TIP3    H229805   4.733   5.252   1.359  1.8589 -1.6259  2.6982
 2724TIP3   OH229806   1.132   6.122   7.163  0.0203 -0.5641 -0.3133
 2724TIP3    H129807   1.122   6.034   7.198 -0.4775 -0.9709 -1.4487
 2724TIP3    H229808   1.043   6.158   7.163  0.2930  0.1743  0.6942
 2725TIP3   OH229809   2.824   1.448   8.334  0.0166 -0.5814  0.0348
 2725TIP3    H129810   2.729   1.438   8.332 -0.2658  1.3971  0.9587
 2725TIP3    H229811   2.855   1.402   8.256 -1.6866 -1.2574 -0.2836
 2726TIP3   OH229812   6.216   6.524   0.226  0.0483  0.4261 -0.0750
 2726TIP3    H129813   6.227   6.615   0.251 -0.2178  0.6464 -0.7444
 2726TIP3    H229814   6.230   6.475   0.307 -0.1178  1.0765  0.3544
 2727TIP3   OH229815   6.054   3.551   1.008  0.8613 -0.1390 -0.1100
 2727TIP3    H129816   6.004   3.530   1.087  0.1227  0.3764 -0.4224
 2727TIP3    H229817   6.109   3.474   0.994  1.8392  0.2095  1.5266
 2728TIP3   OH229818   2.877   6.136   3.251  0.5128  0.0385 -0.6537
 2728TIP3    H129819   2.892   6.220   3.293  0.1030  0.2430 -0.9081
 2728TIP3    H229820   2.962   6.110   3.216  0.9415 -0.3169  0.6204
 2729TIP3   OH229821   1.426   5.451   0.706  0.5584 -0.1746 -0.1086
 2729TIP3    H129822   1.520   5.470   0.700  0.6692  0.1446  1.8721
 2729TIP3    H229823   1.383   5.536   0.698  0.6434  0.0856  1.6898
 2730TIP3   OH229824   2.587   0.936   2.071  0.6207 -0.6233  0.4712
 2730TIP3    H129825   2.521   0.885   2.024  0.7361 -1.6467  1.3842
 2730TIP3    H229826   2.588   1.021   2.026 -3.1010  0.3610  1.9369
 2731TIP3   OH229827   2.309   0.599   1.722  0.0855 -0.4190 -0.6895
 2731TIP3    H129828   2.300   0.669   1.787  0.8488 -1.3108  0.3967
 2731TIP3    H229829   2.358   0.639   1.650 -0.8306  0.5969 -0.7702
 2732TIP3   OH229830   4.691   4.559   7.696 -1.1258  0.4669  0.2264
 2732TIP3    H129831   4.690   4.467   7.670 -0.7703  0.3954  0.4640
 2732TIP3    H229832   4.777   4.591   7.669 -1.0192  0.5746  0.6829
 2733TIP3   OH229833   3.232   3.676   1.684 -0.6961  0.3169 -0.1314
 2733TIP3    H129834   3.200   3.699   1.771  1.3109 -1.3200  1.1457
 2733TIP3    H229835   3.304   3.737   1.669 -0.3426 -0.0983 -0.1431
 2734TIP3   OH229836   3.751   6.366   0.831 -0.0922  0.2231 -0.1117
 2734TIP3    H129837   3.822   6.407   0.880 -1.1226  0.4320  1.2823
 2734TIP3    H229838   3.694   6.438   0.806  0.8068  0.2214 -2.3922
 2735TIP3   OH229839   1.140   4.558   7.555 -0.7433  0.3168  0.5454
 2735TIP3    H129840   1.047   4.570   7.575 -0.6851  1.7255  0.0405
 2735TIP3    H229841   1.181   4.641   7.576 -0.0460  0.6118 -1.6920
 2736TIP3   OH229842   6.088   3.165   1.269  0.3089  0.0168 -0.3793
 2736TIP3    H129843   6.109   3.078   1.235 -0.4063 -0.0105 -0.7764
 2736TIP3    H229844   6.037   3.148   1.348 -1.3101  0.0391 -1.3756
 2737TIP3   OH229845   5.985   4.386   2.560 -0.2759  0.3056 -0.5571
 2737TIP3    H129846   5.949   4.473   2.575  0.2814  0.4568 -0.0897
 2737TIP3    H229847   5.932   4.328   2.615 -0.5164  0.3687 -0.7178
 2738TIP3   OH229848   2.427   6.793   0.716  0.1462  0.1044  0.1725
 2738TIP3    H129849   2.460   6.878   0.746  0.8147 -0.3536  0.7502
 2738TIP3    H229850   2.405   6.808   0.624 -1.3992  1.3779  0.6897
 2739TIP3   OH229851   3.609   3.765   8.089 -0.7283 -0.2399  0.3260
 2739TIP3    H129852   3.585   3.722   8.007  0.1980 -1.9874  0.9291
 2739TIP3    H229853   3.657   3.844   8.061 -2.4193  0.4578 -0.7951
 2740TIP3   OH229854   3.120   5.505   2.830  0.6783 -0.2095 -0.1985
 2740TIP3    H129855   3.039   5.473   2.869  1.2541 -1.4506 -0.0048
 2740TIP3    H229856   3.182   5.511   2.903  1.3453 -1.2029 -0.6612
 2741TIP3   OH229857   5.634   0.727   1.985  0.3186 -0.0950  0.2804
 2741TIP3    H129858   5.668   0.800   1.933  0.3668  1.2458  2.0803
 2741TIP3    H229859   5.676   0.738   2.071 -1.2937 -1.0040  1.2182
 2742TIP3   OH229860   3.196   2.298   0.294 -0.3425 -0.4519  0.4473
 2742TIP3    H129861   3.284   2.293   0.257 -1.2449 -0.0534 -1.9093
 2742TIP3    H229862   3.190   2.387   0.329  0.8763 -1.1632  2.6505
 2743TIP3   OH229863   6.040   5.599   2.319  0.0033 -0.8072 -0.2374
 2743TIP3    H129864   5.996   5.515   2.335 -0.2971 -1.0136 -2.0200
 2743TIP3    H229865   5.973   5.665   2.335 -0.5300 -1.0478 -1.3709
 2744TIP3   OH229866   0.026   4.683   1.001  0.1188 -0.0170 -0.2868
 2744TIP3    H129867  -0.064   4.702   0.975  0.4149  1.4764 -0.2854
 2744TIP3    H229868   0.024   4.592   1.030 -1.0343 -0.5406 -1.8805
 2745TIP3   OH229869   5.570   1.551   2.219 -0.1917 -0.1668 -0.1865
 2745TIP3    H129870   5.590   1.458   2.219 -0.8320 -0.3287  1.0585
 2745TIP3    H229871   5.655   1.594   2.227 -0.0261 -0.7400  1.7848
 2746TIP3   OH229872   3.705   2.585   8.027 -0.3431  0.5174 -0.5005
 2746TIP3    H129873   3.687   2.626   8.112 -1.3330  0.1849 -0.5347
 2746TIP3    H229874   3.796   2.556   8.034 -0.5542  0.0640  0.6467
 2747TIP3   OH229875   6.630   3.965   1.952 -0.2232 -0.1898 -0.2384
 2747TIP3    H129876   6.724   3.986   1.954  0.0703 -0.7199 -3.2870
 2747TIP3    H229877   6.587   4.047   1.931 -0.7313  0.4331  2.7459
 2748TIP3   OH229878   4.172   0.152   1.440 -0.0425  0.6113 -0.1544
 2748TIP3    H129879   4.208   0.173   1.526  0.4287  0.8943 -0.4108
 2748TIP3    H229880   4.192   0.059   1.428  0.7324  0.7918 -0.3417
 2749TIP3   OH229881   0.410   3.857   0.135 -0.3292  0.0202  0.1511
 2749TIP3    H129882   0.353   3.877   0.061  1.5144 -0.6640 -1.5339
 2749TIP3    H229883   0.389   3.766   0.157 -1.4659  0.4833  1.0548
 2750TIP3   OH229884   1.100   5.333   2.246  0.1759  0.2042  0.0329
 2750TIP3    H129885   1.147   5.254   2.274 -2.0337 -0.4902  2.1252
 2750TIP3    H229886   1.055   5.307   2.165  0.2487 -0.3576  0.1685
 2751TIP3   OH229887   4.841   1.098   7.136  0.2014  0.5444  0.2974
 2751TIP3    H129888   4.863   1.185   7.103  1.4725 -0.2353 -1.0401
 2751TIP3    H229889   4.880   1.038   7.073  0.0055 -1.0180  1.5919
 2752TIP3   OH229890   3.731   5.115   2.741 -0.2044 -0.0889 -0.7449
 2752TIP3    H129891   3.789   5.190   2.756  0.1437 -0.3207 -0.9021
 2752TIP3    H229892   3.660   5.126   2.804 -0.1796  0.3972 -0.7999
 2753TIP3   OH229893   6.446   0.574   7.016 -0.1755 -0.3243 -0.0021
 2753TIP3    H129894   6.356   0.584   6.985 -0.9138 -0.2955  2.0035
 2753TIP3    H229895   6.446   0.492   7.065  0.5094  0.3650  1.2076
 2754TIP3   OH229896   2.370   1.883   0.056  0.1089 -0.1278 -0.3520
 2754TIP3    H129897   2.403   1.963   0.097  0.3882 -0.4863  0.1349
 2754TIP3    H229898   2.444   1.849   0.006  0.3190 -0.6281  0.2800
 2755TIP3   OH229899   0.435   3.682   1.920  0.8012  0.1763  0.1624
 2755TIP3    H129900   0.433   3.587   1.906 -0.7170  0.1765  0.2629
 2755TIP3    H229901   0.466   3.718   1.837 -4.0281 -0.0908 -2.0714
 2756TIP3   OH229902   3.382   0.880   7.508 -0.3932 -0.2087 -0.7287
 2756TIP3    H129903   3.405   0.929   7.429 -4.3409 -0.7111 -2.4369
 2756TIP3    H229904   3.408   0.790   7.489 -1.0657 -0.2764 -1.3768
 2757TIP3   OH229905   2.714   6.887   1.153  0.3155  0.4499 -0.5002
 2757TIP3    H129906   2.635   6.918   1.109  0.4729  1.4266 -0.1296
 2757TIP3    H229907   2.779   6.881   1.083 -0.1458 -0.6199 -0.8546
 2758TIP3   OH229908   6.051   0.376   6.915 -0.2235  0.0920 -0.2247
 2758TIP3    H129909   6.040   0.437   6.843  1.0000  1.5903  0.7957
 2758TIP3    H229910   6.146   0.374   6.931 -0.4073 -0.6853  0.9341
 2759TIP3   OH229911   4.049   1.224   2.075  0.5477  0.2660 -0.2411
 2759TIP3    H129912   4.022   1.313   2.097  2.1981  0.5897  0.6458
 2759TIP3    H229913   4.113   1.201   2.142  0.5913 -1.3786 -0.7975
 2760TIP3   OH229914   4.922   4.050   0.756  0.8076  0.3612 -0.2813
 2760TIP3    H129915   5.005   4.080   0.720  1.4878 -0.0938  0.8434
 2760TIP3    H229916   4.913   3.960   0.725  1.6448 -0.2055  1.0408
 2761TIP3   OH229917   3.763   0.807   1.810  0.1100 -0.3282  0.5548
 2761TIP3    H129918   3.793   0.814   1.901  0.3474 -1.0333  0.5351
 2761TIP3    H229919   3.729   0.717   1.803 -0.8500  0.0485  0.2269
 2762TIP3   OH229920   4.557   1.306   1.572  0.1627 -0.4624 -0.0784
 2762TIP3    H129921   4.592   1.395   1.564 -1.0410 -0.1505 -3.4004
 2762TIP3    H229922   4.491   1.312   1.641 -0.6126  1.5251 -0.9218
 2763TIP3   OH229923   3.706   6.648   7.544  0.4693  0.4135  0.6383
 2763TIP3    H129924   3.688   6.569   7.493  0.2367 -0.6231  2.2360
 2763TIP3    H229925   3.794   6.675   7.518  0.9233 -0.9269  0.7210
 2764TIP3   OH229926   4.403   1.641   1.429  0.0236 -0.3166  0.1336
 2764TIP3    H129927   4.492   1.626   1.397 -0.1513  0.1439 -0.5965
 2764TIP3    H229928   4.405   1.729   1.467 -0.6369  0.6382 -1.8982
 2765TIP3   OH229929   6.098   3.260   0.621  0.0026 -0.7877 -0.2666
 2765TIP3    H129930   6.083   3.293   0.533  0.7902 -1.0328 -0.5072
 2765TIP3    H229931   6.057   3.173   0.622  1.9708 -1.7888 -1.1662
 2766TIP3   OH229932   3.552   3.884   3.292  0.0095 -0.7633 -0.3841
 2766TIP3    H129933   3.517   3.807   3.336 -0.4087  0.9323  2.4811
 2766TIP3    H229934   3.513   3.882   3.204 -1.8872 -2.4986  0.4346
 2767TIP3   OH229935   3.953   3.138   3.255  0.0226 -0.5284  0.4008
 2767TIP3    H129936   3.873   3.137   3.308 -1.6871 -1.1707 -2.0057
 2767TIP3    H229937   3.939   3.210   3.194  1.0537 -0.9713 -0.3786
 2768TIP3   OH229938   6.047   7.010   7.857 -0.4437  0.2104 -0.4623
 2768TIP3    H129939   6.069   6.918   7.841 -0.8103  0.0633 -0.1434
 2768TIP3    H229940   6.106   7.059   7.801  1.9064 -0.0943  1.5849
 2769TIP3   OH229941   4.797   3.354   8.297  0.2812 -0.0852 -0.6712
 2769TIP3    H129942   4.728   3.419   8.315  1.3443  0.6636  0.9300
 2769TIP3    H229943   4.788   3.290   8.368  1.6880  0.4535  0.0441
 2770TIP3   OH229944   2.548   6.945   1.555 -0.1231  0.3490 -0.5564
 2770TIP3    H129945   2.542   7.003   1.631  1.0483 -1.3760  0.9572
 2770TIP3    H229946   2.592   6.997   1.488  0.9171  1.2132  0.7524
 2771TIP3   OH229947   2.285   5.236   3.328 -0.0621 -0.1769  0.1341
 2771TIP3    H129948   2.220   5.174   3.361 -0.2721 -0.0780 -0.0910
 2771TIP3    H229949   2.353   5.181   3.288 -0.8914 -0.2359 -1.2561
 2772TIP3   OH229950   4.057   6.595   1.416 -0.8531 -0.1565  0.5104
 2772TIP3    H129951   4.126   6.617   1.353 -0.0276 -0.7134  1.2148
 2772TIP3    H229952   4.021   6.680   1.442  0.3889  0.2264  1.0498
 2773TIP3   OH229953   4.106   4.552   1.671 -0.1461 -0.2403  0.1686
 2773TIP3    H129954   4.175   4.581   1.730  0.3729 -1.2723  0.0915
 2773TIP3    H229955   4.149   4.541   1.587 -0.5265 -0.3584 -0.0144
 2774TIP3   OH229956   4.127   4.771   2.069 -0.3434 -0.1305 -0.3741
 2774TIP3    H129957   4.126   4.846   2.129  1.2280 -1.4105  1.3501
 2774TIP3    H229958   4.040   4.732   2.077 -0.0070 -0.5595  1.4750
 2775TIP3   OH229959   6.189   1.704   7.117  0.4488 -0.4590 -0.0956
 2775TIP3    H129960   6.254   1.734   7.053  1.7474 -0.5692  1.1156
 2775TIP3    H229961   6.159   1.785   7.159 -0.3037 -0.3981 -0.7376
 2776TIP3   OH229962   3.222   3.616   0.810  0.3163 -0.6957 -0.5546
 2776TIP3    H129963   3.314   3.632   0.787  0.5396 -3.4786 -1.9238
 2776TIP3    H229964   3.226   3.578   0.898  0.0638  2.6089  1.0473
 2777TIP3   OH229965   2.653   3.769   1.870  0.2564 -0.2431 -0.2137
 2777TIP3    H129966   2.573   3.811   1.836  0.4881 -0.5185 -1.1434
 2777TIP3    H229967   2.693   3.730   1.792  2.8629  2.4234 -0.4100
 2778TIP3   OH229968   2.080   4.283   3.134 -0.0631  0.0774 -0.2208
 2778TIP3    H129969   2.132   4.215   3.093  0.0590 -1.0789  1.6984
 2778TIP3    H229970   2.010   4.236   3.180 -2.4496  1.5225 -2.0745
 2779TIP3   OH229971   1.520   3.791   2.039  0.3638  0.0912 -0.5286
 2779TIP3    H129972   1.495   3.731   2.109  0.6457 -0.2482 -0.7105
 2779TIP3    H229973   1.452   3.781   1.973  0.1783  0.2995 -0.3716
 2780TIP3   OH229974   3.757   6.926   2.919 -0.1470  0.2402 -0.0812
 2780TIP3    H129975   3.703   6.847   2.923  0.5264 -0.2234 -0.0748
 2780TIP3    H229976   3.714   6.980   2.853 -0.1562 -0.4745 -0.6720
 2781TIP3   OH229977   1.038   3.673   8.231 -0.3732 -0.4904  0.0330
 2781TIP3    H129978   1.091   3.748   8.206 -0.4086 -0.0827  1.1202
 2781TIP3    H229979   0.970   3.668   8.165  0.7496 -0.7506 -1.1365
 2782TIP3   OH229980   1.431   3.338   0.036  0.3476 -0.1832 -0.4786
 2782TIP3    H129981   1.452   3.404  -0.030 -2.5690  0.8602 -0.4960
 2782TIP3    H229982   1.359   3.289  -0.002  2.4690 -3.6236 -0.5244
 2783TIP3   OH229983   4.610   2.218   0.189 -0.4922  0.0131 -0.0286
 2783TIP3    H129984   4.567   2.263   0.261 -1.7174  0.9270 -1.2791
 2783TIP3    H229985   4.687   2.177   0.229 -0.1928  1.8987  1.4686
 2784TIP3   OH229986   0.588   6.536   2.785  0.1592 -0.3710  0.2356
 2784TIP3    H129987   0.650   6.488   2.730 -1.3100 -0.2733 -1.6103
 2784TIP3    H229988   0.548   6.469   2.841  0.6872 -0.7080  0.2154
 2785TIP3   OH229989   5.462   1.431   1.094  0.0604  0.4471 -0.4567
 2785TIP3    H129990   5.459   1.487   1.172  1.4047  1.0383 -0.7978
 2785TIP3    H229991   5.499   1.348   1.125  1.6798  1.0581 -0.6253
 2786TIP3   OH229992   4.880   0.592   1.262 -0.3203 -0.3277 -0.3797
 2786TIP3    H129993   4.840   0.676   1.240  0.7501  0.8003  1.6305
 2786TIP3    H229994   4.891   0.548   1.178 -1.7544  1.1316 -1.4020
 2787TIP3   OH229995   4.244   5.414   2.150  0.1474 -0.0734  0.1175
 2787TIP3    H129996   4.230   5.505   2.176 -0.0420  0.0993 -0.5615
 2787TIP3    H229997   4.198   5.405   2.066 -1.6644 -1.3854  1.1868
 2788TIP3   OH229998   4.290   5.856   7.935 -0.2942 -0.4358  0.0292
 2788TIP3    H129999   4.264   5.840   8.026 -2.5306 -1.0582 -0.6576
 2788TIP3    H230000   4.344   5.781   7.912  1.4134  0.3576  1.1757
 2789TIP3   OH230001   3.282   0.166   7.963  0.1308  0.4635  0.1908
 2789TIP3    H130002   3.241   0.252   7.968 -0.3553  0.2635 -0.2003
 2789TIP3    H230003   3.364   0.181   7.917  2.1867  1.4345  3.7973
 2790TIP3   OH230004   6.840   1.465   0.994 -0.0805 -0.4138  0.3771
 2790TIP3    H130005   6.799   1.545   1.028 -0.3485  0.1811 -1.2753
 2790TIP3    H230006   6.926   1.492   0.964 -0.6057 -0.4573 -1.2672
 2791TIP3   OH230007   1.958   5.987   0.994 -0.2218 -0.3368  0.7378
 2791TIP3    H130008   1.931   5.949   1.077  0.9344 -0.8466  0.9033
 2791TIP3    H230009   1.938   6.080   1.002 -0.5723 -0.4693  1.3908
 2792TIP3   OH230010   3.636   4.431   2.067  0.2653 -0.1006 -0.6210
 2792TIP3    H130011   3.653   4.411   2.159  1.8584  1.6482 -0.4609
 2792TIP3    H230012   3.632   4.346   2.023 -1.7123 -1.0150  1.2177
 2793TIP3   OH230013   4.269   6.642   0.597 -0.1130  0.6682  0.7743
 2793TIP3    H130014   4.220   6.573   0.552 -0.2315  1.2930 -0.0870
 2793TIP3    H230015   4.289   6.605   0.683  0.0626 -0.5395  0.2418
 2794TIP3   OH230016   1.483   2.107   1.817 -0.1752  0.5805  0.0100
 2794TIP3    H130017   1.412   2.167   1.841 -0.7249  0.0298 -0.2217
 2794TIP3    H230018   1.442   2.044   1.758  0.4972  0.2205 -0.0739
 2795TIP3   OH230019   5.645   2.109   6.677  0.0481  0.3735  0.0431
 2795TIP3    H130020   5.649   2.088   6.770  0.6101  0.2918  0.0035
 2795TIP3    H230021   5.592   2.040   6.639  0.1335  0.1959  0.2436
 2796TIP3   OH230022   0.386   5.043   1.707  0.0958  0.3374 -0.6287
 2796TIP3    H130023   0.459   4.994   1.745 -0.2141  0.1489 -0.2616
 2796TIP3    H230024   0.327   4.975   1.673 -1.2954  0.3112  1.6220
 2797TIP3   OH230025   6.077   1.166   7.336  0.1022 -0.3832  0.2919
 2797TIP3    H130026   6.144   1.174   7.269 -0.9237  0.9732 -0.6141
 2797TIP3    H230027   6.046   1.075   7.329  2.3402 -1.3151  1.2924
 2798TIP3   OH230028   5.303   2.938   1.950  0.6109 -0.4180 -0.1066
 2798TIP3    H130029   5.298   2.904   1.860  2.5978 -0.1217 -0.3771
 2798TIP3    H230030   5.324   2.862   2.004  2.9463 -0.0439 -0.4189
 2799TIP3   OH230031   4.264   5.496   7.412  0.0853  0.5056 -0.1057
 2799TIP3    H130032   4.259   5.400   7.407  1.5500  0.3552  0.8978
 2799TIP3    H230033   4.317   5.521   7.336  0.9280  0.3805  0.4295
 2800TIP3   OH230034   3.485   1.519   0.099 -0.7622  0.0884  0.0503
 2800TIP3    H130035   3.522   1.514   0.011  0.1366  1.2255  0.3438
 2800TIP3    H230036   3.393   1.542   0.085 -0.8724 -0.7030 -0.6151
 2801TIP3   OH230037   1.067   4.861   7.834 -0.1083  0.4509  0.3002
 2801TIP3    H130038   1.022   4.944   7.847 -1.5163 -0.5170  1.9884
 2801TIP3    H230039   1.155   4.876   7.869  0.0898  1.5956 -0.6356
 2802TIP3   OH230040   4.764   3.554   2.145 -0.8158 -0.0501 -1.1766
 2802TIP3    H130041   4.736   3.630   2.094  0.2768 -0.4264 -2.3809
 2802TIP3    H230042   4.808   3.497   2.082 -2.6088 -2.2645 -0.5539
 2803TIP3   OH230043   6.248   2.641   2.901 -1.1151 -0.8263  0.3270
 2803TIP3    H130044   6.318   2.661   2.839 -0.7012  0.2698  1.1090
 2803TIP3    H230045   6.167   2.648   2.850 -1.0546  3.1733  0.4759
 2804TIP3   OH230046   1.505   4.752   0.789  0.0662 -0.0691  0.2068
 2804TIP3    H130047   1.446   4.822   0.763 -0.8046 -0.7227  0.3779
 2804TIP3    H230048   1.522   4.768   0.882  0.0630  0.0582  0.1847
 2805TIP3   OH230049   5.715   4.454   0.461  0.3641  0.3431  0.6362
 2805TIP3    H130050   5.740   4.460   0.554 -2.3536 -0.9635  1.5715
 2805TIP3    H230051   5.768   4.382   0.427  1.2744  0.7262  1.2018
 2806TIP3   OH230052   0.107   1.386   7.069  0.5347  0.2377 -0.1305
 2806TIP3    H130053   0.097   1.463   7.013  1.0904 -0.3210 -1.0092
 2806TIP3    H230054   0.175   1.411   7.132  1.1203  0.2807 -0.7664
 2807TIP3   OH230055   3.572   4.769   2.062 -0.4963  0.2934 -0.7037
 2807TIP3    H130056   3.585   4.838   1.997 -0.0830  0.6378 -0.2650
 2807TIP3    H230057   3.507   4.711   2.023  0.5200 -0.0864 -1.8792
 2808TIP3   OH230058   4.553   4.058   7.791  0.4337  0.1819  0.4041
 2808TIP3    H130059   4.617   4.127   7.772 -1.7718  2.0987 -0.4874
 2808TIP3    H230060   4.548   4.008   7.710  0.5283  0.2347  0.3645
 2809TIP3   OH230061   6.255   1.155   2.256 -0.0215 -0.1751 -0.2251
 2809TIP3    H130062   6.291   1.070   2.229 -1.2911 -0.6450 -0.5452
 2809TIP3    H230063   6.331   1.211   2.270  0.8145 -1.1604 -0.7319
 2810TIP3   OH230064   2.150   3.775   7.204 -0.0985  0.2311 -0.0961
 2810TIP3    H130065   2.190   3.702   7.250  2.5505  2.8707  2.2370
 2810TIP3    H230066   2.078   3.803   7.261 -0.9286 -0.3207 -0.8432
 2811TIP3   OH230067   0.094   0.101   6.765 -0.1574  0.1388  0.1635
 2811TIP3    H130068   0.003   0.109   6.793  0.0686 -0.7185  1.1830
 2811TIP3    H230069   0.096   0.021   6.713  0.1514 -0.2454  0.7565
 2812TIP3   OH230070   5.048   1.920   1.641  0.7355 -0.0525  0.7836
 2812TIP3    H130071   5.047   1.972   1.721  2.1010 -1.2989  1.6774
 2812TIP3    H230072   4.958   1.922   1.610 -0.0526 -0.2664  2.8574
 2813TIP3   OH230073   4.256   4.158   2.142 -0.1631 -0.3280 -0.3185
 2813TIP3    H130074   4.165   4.141   2.163  0.2292 -0.4385  1.3904
 2813TIP3    H230075   4.261   4.253   2.131 -0.2756 -0.1880  0.7358
 2814TIP3   OH230076   5.223   2.112   7.132 -0.0386  0.2479 -0.2398
 2814TIP3    H130077   5.246   2.201   7.104 -0.7926  0.1929 -1.0938
 2814TIP3    H230078   5.281   2.056   7.080 -0.8977  0.1784 -1.1606
 2815TIP3   OH230079   6.070   5.231   7.661 -0.1871 -0.0518 -0.0467
 2815TIP3    H130080   6.038   5.186   7.739 -0.0326 -0.5860 -0.2876
 2815TIP3    H230081   6.026   5.316   7.663  0.3852  0.2381  1.0197
 2816TIP3   OH230082   1.624   1.993   7.910 -0.2977 -0.2174 -0.3705
 2816TIP3    H130083   1.667   1.924   7.859  0.0515 -0.1005 -0.2341
 2816TIP3    H230084   1.678   2.002   7.988 -2.4092 -2.5033  1.5437
 2817TIP3   OH230085   4.072   1.188   0.140  0.1676  0.0862  0.0957
 2817TIP3    H130086   4.114   1.189   0.225  0.0252 -0.4978  0.1721
 2817TIP3    H230087   4.042   1.098   0.128 -1.2054  0.5096  0.1132
 2818TIP3   OH230088   1.536   3.170   3.130  0.2458 -0.1194  0.5230
 2818TIP3    H130089   1.592   3.111   3.080 -0.3071  0.0702 -0.3248
 2818TIP3    H230090   1.596   3.237   3.163  0.4943  0.2250 -0.5876
 2819TIP3   OH230091   1.052   6.337   0.071  0.0068 -0.1135 -0.0697
 2819TIP3    H130092   0.979   6.367   0.124  1.0808  1.2802  0.7236
 2819TIP3    H230093   1.082   6.416   0.026  1.0829 -0.6237 -0.2870
 2820TIP3   OH230094   2.219   6.952   1.703 -0.4207  0.3912  0.2189
 2820TIP3    H130095   2.169   6.870   1.701 -2.8741  1.5872  3.2501
 2820TIP3    H230096   2.307   6.926   1.727 -1.1441 -1.3910  1.1324
 2821TIP3   OH230097   1.345   6.396   1.316  0.0819 -0.6579  0.0557
 2821TIP3    H130098   1.394   6.316   1.297 -0.5132 -0.9612 -0.2186
 2821TIP3    H230099   1.362   6.453   1.242  0.7234 -0.4246  0.3797
 2822TIP3   OH230100   2.035   2.612   7.513  0.5375  0.1152  0.6977
 2822TIP3    H130101   2.019   2.618   7.419 -0.4096 -0.3006  0.8206
 2822TIP3    H230102   2.067   2.699   7.538 -1.5858  1.0625  0.4051
 2823TIP3   OH230103   4.438   5.888   0.646 -0.6123 -0.7208 -0.1158
 2823TIP3    H130104   4.474   5.801   0.666 -3.0652 -2.3327 -2.0777
 2823TIP3    H230105   4.362   5.896   0.703 -0.8173 -0.1595 -0.4630
 2824TIP3   OH230106   2.165   3.182   8.220 -0.4231  0.6242  0.1329
 2824TIP3    H130107   2.217   3.254   8.256 -0.7584  0.9957 -0.1156
 2824TIP3    H230108   2.075   3.214   8.224 -0.4033  1.0481 -1.8524
 2825TIP3   OH230109   3.643   4.176   0.504  0.0226  0.1214  0.2572
 2825TIP3    H130110   3.642   4.084   0.478 -0.0067 -0.1402  1.1557
 2825TIP3    H230111   3.565   4.186   0.558 -0.8739  1.0832 -1.1381
 2826TIP3   OH230112   2.717   1.175   3.028 -0.2414 -0.2323 -0.6488
 2826TIP3    H130113   2.734   1.232   2.953 -0.3434 -0.7423 -1.0611
 2826TIP3    H230114   2.793   1.116   3.031 -0.1318 -0.0760 -0.2183
 2827TIP3   OH230115   5.497   3.701   1.362 -0.0594 -0.3143 -0.2984
 2827TIP3    H130116   5.485   3.606   1.360  1.1191 -0.4695 -0.6587
 2827TIP3    H230117   5.535   3.722   1.277  0.1936  0.4137 -0.0113
 2828TIP3   OH230118   0.730   6.099   1.427  0.8760 -0.6507  0.4204
 2828TIP3    H130119   0.725   6.011   1.389  0.0310 -0.7103  0.6677
 2828TIP3    H230120   0.648   6.141   1.401  1.7392  0.4600 -0.6425
 2829TIP3   OH230121   0.639   0.016   0.036  0.3648  0.6243  0.2358
 2829TIP3    H130122   0.586   0.096   0.048  1.6704  1.6479 -0.5116
 2829TIP3    H230123   0.574  -0.054   0.027 -0.9452  1.9415 -1.5192
 2830TIP3   OH230124   2.726   0.626   8.335 -0.1138  0.1342 -0.5446
 2830TIP3    H130125   2.783   0.569   8.387  2.0783  1.3210 -1.5273
 2830TIP3    H230126   2.662   0.660   8.398  1.4348  0.2380  1.0425
 2831TIP3   OH230127   5.695   4.032   0.926 -0.2103 -0.2253  0.2567
 2831TIP3    H130128   5.714   3.940   0.909  1.3360 -0.0743  1.0679
 2831TIP3    H230129   5.657   4.064   0.843 -1.1427 -1.6526  0.0911
 2832TIP3   OH230130   5.102   4.938   2.310  0.1256 -0.2319  0.3686
 2832TIP3    H130131   5.042   4.894   2.370  0.0591 -0.2184  0.3125
 2832TIP3    H230132   5.053   4.945   2.228  0.3536 -0.5823  0.2002
 2833TIP3   OH230133   2.466   0.250   0.820 -0.4991 -0.2151  0.3609
 2833TIP3    H130134   2.541   0.308   0.805  0.5209 -1.2699  1.2453
 2833TIP3    H230135   2.393   0.295   0.778  0.8392  0.2567 -1.6132
 2834TIP3   OH230136   1.253   4.936   0.175  0.1836  0.3675  0.1146
 2834TIP3    H130137   1.319   4.985   0.126 -0.8686  0.7420 -0.9836
 2834TIP3    H230138   1.289   4.928   0.263 -0.4170  4.9356  1.0117
 2835TIP3   OH230139   6.913   2.772   0.505  0.1738  0.3583 -0.7280
 2835TIP3    H130140   6.841   2.764   0.568 -0.9142  2.3320 -1.6270
 2835TIP3    H230141   6.987   2.805   0.557  0.3138 -1.2165  0.1082
 2836TIP3   OH230142   6.850   5.214   1.319 -0.2653 -0.2525  0.3260
 2836TIP3    H130143   6.839   5.152   1.247 -1.8120 -0.5090  0.7448
 2836TIP3    H230144   6.796   5.289   1.294  0.2023  0.1891  0.6338
 2837TIP3   OH230145   2.468   6.618   8.302  0.0403 -0.3652  0.0982
 2837TIP3    H130146   2.461   6.617   8.207 -0.6069  0.7819  0.1110
 2837TIP3    H230147   2.551   6.575   8.321  0.8183  0.5586 -1.0681
 2838TIP3   OH230148   2.943   2.258   2.442  0.3033  0.0071  0.0934
 2838TIP3    H130149   2.921   2.169   2.468  0.1589 -0.8421 -2.5991
 2838TIP3    H230150   2.859   2.297   2.418  0.4950  0.4789  0.1925
 2839TIP3   OH230151   1.232   5.984   0.686  0.3313  0.4024  0.5299
 2839TIP3    H130152   1.156   5.964   0.630  0.3315 -0.7768  0.9289
 2839TIP3    H230153   1.237   6.080   0.686 -1.5832  0.5436  1.0600
 2840TIP3   OH230154   2.070   1.784   2.685 -0.1902  0.1878 -0.7537
 2840TIP3    H130155   2.054   1.877   2.700 -2.2378 -0.0610 -1.0737
 2840TIP3    H230156   2.138   1.760   2.748 -0.8259  1.5293  0.4980
 2841TIP3   OH230157   5.567   1.543   7.753  0.0586  0.7150 -0.0100
 2841TIP3    H130158   5.509   1.475   7.718 -0.5778  0.9934  0.4944
 2841TIP3    H230159   5.624   1.565   7.679 -0.3907  0.3506 -0.4797
 2842TIP3   OH230160   0.589   1.127   0.327 -0.3392  0.3338  0.1883
 2842TIP3    H130161   0.574   1.220   0.346  0.2542  0.9042 -1.8648
 2842TIP3    H230162   0.514   1.101   0.273  0.5611  0.2414 -1.0623
 2843TIP3   OH230163   6.091   6.743   1.206  0.1604 -0.3543  0.0596
 2843TIP3    H130164   6.130   6.744   1.293 -0.0441  1.3756  0.1736
 2843TIP3    H230165   6.151   6.795   1.152  0.1070 -1.1192 -0.7539
 2844TIP3   OH230166   4.103   3.380   0.524 -0.2170 -0.4720  0.5822
 2844TIP3    H130167   4.055   3.434   0.460  1.5503  0.9340  0.3480
 2844TIP3    H230168   4.101   3.432   0.605  0.7165 -0.4572  0.6102
 2845TIP3   OH230169   0.209   6.124   1.736 -0.2250 -0.2482 -1.0264
 2845TIP3    H130170   0.159   6.138   1.817 -0.2187  2.1791 -1.3665
 2845TIP3    H230171   0.233   6.032   1.739  0.1073 -0.1870  1.9538
 2846TIP3   OH230172   0.550   4.680   7.570  0.3453  0.0621 -0.0839
 2846TIP3    H130173   0.516   4.705   7.483 -1.9591 -0.5234  0.5774
 2846TIP3    H230174   0.592   4.596   7.556  2.0949  1.0335 -1.0345
 2847TIP3   OH230175   0.087   6.883   0.596 -0.1040  0.1574  0.2955
 2847TIP3    H130176   0.050   6.960   0.554 -0.4120 -0.8875 -1.4254
 2847TIP3    H230177   0.128   6.833   0.525  0.2802 -1.1699  1.3897
 2848TIP3   OH230178   3.613   3.635   8.338  0.5540 -0.7235  0.1713
 2848TIP3    H130179   3.637   3.660   8.249 -0.3929 -0.6825 -0.0830
 2848TIP3    H230180   3.695   3.638   8.387  1.2267 -1.4832 -0.8634
 2849TIP3   OH230181   5.732   2.364   0.834  0.2043 -0.1335 -0.3306
 2849TIP3    H130182   5.701   2.425   0.768 -1.4460 -0.4211  0.1378
 2849TIP3    H230183   5.713   2.407   0.917  0.1875 -0.7322 -0.0176
 2850TIP3   OH230184   3.135   1.321   1.209  0.0856  0.1314 -0.3577
 2850TIP3    H130185   3.167   1.349   1.123 -0.1924 -1.8598 -1.1500
 2850TIP3    H230186   3.069   1.386   1.232  0.7324  1.1451 -1.2628
 2851TIP3   OH230187   3.304   6.839   0.336  0.4584  0.3051 -0.0147
 2851TIP3    H130188   3.337   6.927   0.321 -0.4872  0.8805  1.1723
 2851TIP3    H230189   3.212   6.851   0.357 -0.7275 -1.2724 -3.5395
 2852TIP3   OH230190   5.391   6.042   2.410  0.0716  0.0328 -0.2725
 2852TIP3    H130191   5.435   5.969   2.454 -0.7415  0.5905  1.5947
 2852TIP3    H230192   5.459   6.086   2.360  1.1573 -0.4135  0.7799
 2853TIP3   OH230193   6.678   6.957   1.187  0.1291  0.5685  0.6063
 2853TIP3    H130194   6.751   6.909   1.148  1.0646  1.0655  1.7071
 2853TIP3    H230195   6.665   6.915   1.272 -1.3827 -0.0050  0.1298
 2854TIP3   OH230196   1.681   5.053   0.763  0.2981 -0.3909  0.0564
 2854TIP3    H130197   1.629   5.094   0.694 -0.1903  0.4432  0.8990
 2854TIP3    H230198   1.772   5.062   0.734  0.0588 -0.8405 -0.8850
 2855TIP3   OH230199   6.999   4.401   0.260 -0.2306  0.3380 -0.2873
 2855TIP3    H130200   7.040   4.391   0.346 -0.1521  1.2561 -0.2070
 2855TIP3    H230201   7.039   4.334   0.206 -0.0332 -0.0278  0.3080
 2856TIP3   OH230202   3.240   4.124   7.846 -0.4146  0.2296  0.3996
 2856TIP3    H130203   3.218   4.191   7.780 -0.7557 -1.5260 -1.3654
 2856TIP3    H230204   3.259   4.046   7.795 -1.0097 -1.3197  2.4266
 2857TIP3   OH230205   5.763   1.203   2.476 -0.2929  1.0060  0.5218
 2857TIP3    H130206   5.798   1.234   2.560  0.5267 -0.0036  0.5697
 2857TIP3    H230207   5.706   1.130   2.499  0.0615  0.6234  0.1869
 2858TIP3   OH230208   0.700   0.250   2.181  0.2796 -0.1512  0.0813
 2858TIP3    H130209   0.761   0.214   2.246 -0.3720  0.0631  0.8274
 2858TIP3    H230210   0.692   0.342   2.204  2.7198  0.8336 -2.4273
 2859TIP3   OH230211   6.318   2.142   1.423 -0.2178 -0.0644  0.2199
 2859TIP3    H130212   6.288   2.131   1.333 -0.8756 -1.4435  0.5830
 2859TIP3    H230213   6.239   2.132   1.476 -0.4106  3.6691  0.8673
 2860TIP3   OH230214   4.056   3.623   2.900  0.0533 -0.0790  0.4071
 2860TIP3    H130215   4.101   3.705   2.921 -0.3634  0.2369  0.0934
 2860TIP3    H230216   4.111   3.555   2.938 -0.3224  0.4284  1.8963
 2861TIP3   OH230217   5.843   6.657   2.345 -0.1493 -0.6845 -0.0744
 2861TIP3    H130218   5.780   6.703   2.289 -0.0467 -0.4961 -0.0378
 2861TIP3    H230219   5.879   6.589   2.289  0.0945 -0.3741 -0.3001
 2862TIP3   OH230220   3.561   6.698   2.828  0.3617  0.0637 -0.0505
 2862TIP3    H130221   3.567   6.603   2.820  3.0457  0.1779 -0.1734
 2862TIP3    H230222   3.478   6.713   2.874 -1.4402 -2.1493 -2.3166
 2863TIP3   OH230223   0.557   4.045   1.098  0.7134 -0.1974  0.2608
 2863TIP3    H130224   0.585   4.018   1.185  0.4341 -2.6916 -0.3484
 2863TIP3    H230225   0.639   4.059   1.050  0.8758 -0.8706  0.3411
 2864TIP3   OH230226   5.107   0.223   1.232 -0.4327 -0.4093 -0.1709
 2864TIP3    H130227   5.164   0.162   1.279 -0.4862  0.0934  0.5608
 2864TIP3    H230228   5.115   0.197   1.140  0.5677 -0.6916 -0.0219
 2865TIP3   OH230229   3.717   1.897   0.369  0.0539 -0.3418  0.4775
 2865TIP3    H130230   3.717   1.852   0.284  0.7940  0.3111  0.1212
 2865TIP3    H230231   3.644   1.857   0.417  0.5186 -1.7314  0.0818
 2866TIP3   OH230232   1.006   0.230   1.120 -0.3526  0.3307  0.3369
 2866TIP3    H130233   1.070   0.241   1.050 -0.5797  0.4583  0.1510
 2866TIP3    H230234   0.926   0.269   1.086 -0.0501  1.8552  1.2793
 2867TIP3   OH230235   6.008   0.341   1.143 -0.1123  0.3125 -0.2146
 2867TIP3    H130236   6.037   0.432   1.133  0.1073  0.4920  1.7830
 2867TIP3    H230237   6.011   0.306   1.054 -0.7028  2.3951 -1.1217
 2868TIP3   OH230238   2.131   1.555   0.387 -0.4025  0.1564  0.2371
 2868TIP3    H130239   2.194   1.488   0.359 -0.8441  0.3199 -1.2059
 2868TIP3    H230240   2.177   1.603   0.456  0.3456 -0.8991  0.5084
 2869TIP3   OH230241   1.715   4.345   0.695 -0.4104  0.3204  0.2401
 2869TIP3    H130242   1.692   4.269   0.642 -1.8137  2.8618 -3.1615
 2869TIP3    H230243   1.810   4.355   0.683 -0.2305 -0.7664  0.6423
 2870TIP3   OH230244   5.827   4.626   1.449 -0.1320  0.2816  0.1702
 2870TIP3    H130245   5.794   4.536   1.458  1.6766 -0.3317  1.3545
 2870TIP3    H230246   5.910   4.616   1.402 -0.0604  1.3702  0.0495
 2871TIP3   OH230247   3.739   2.946   8.141  0.2640 -0.1196  0.2007
 2871TIP3    H130248   3.806   2.885   8.110 -0.7594 -0.7036 -0.9664
 2871TIP3    H230249   3.780   3.032   8.133  0.3537 -0.2964 -2.1620
 2872TIP3   OH230250   4.274   2.028   0.549 -0.3249 -0.0061 -0.0284
 2872TIP3    H130251   4.231   2.087   0.487 -1.3885 -0.8101 -0.0774
 2872TIP3    H230252   4.205   1.969   0.578 -0.0463  0.7652  2.4609
 2873TIP3   OH230253   3.486   0.299   2.365 -0.3506  0.3724  0.3367
 2873TIP3    H130254   3.499   0.264   2.453 -1.4390 -0.5084  0.1765
 2873TIP3    H230255   3.559   0.360   2.351  1.2500 -1.3527  0.8725
 2874TIP3   OH230256   0.088   4.287   3.060  0.2026  0.4935 -0.8023
 2874TIP3    H130257   0.073   4.234   2.982 -2.0337 -0.5755  0.2514
 2874TIP3    H230258   0.028   4.361   3.050 -0.8923 -0.1970  0.3172
 2875TIP3   OH230259   2.332   0.254   8.156  0.0304 -0.4016  0.1901
 2875TIP3    H130260   2.284   0.264   8.238  0.3321 -0.8571  0.4275
 2875TIP3    H230261   2.337   0.343   8.120  0.3654 -0.1132  0.9272
 2876TIP3   OH230262   0.179   5.203   7.919  0.0694  0.4252  0.5192
 2876TIP3    H130263   0.229   5.256   7.981  1.9805  0.6386 -1.1375
 2876TIP3    H230264   0.185   5.114   7.954  0.0189  0.7211  1.3123
 2877TIP3   OH230265   6.961   1.825   7.790  0.3764 -0.1081  0.1669
 2877TIP3    H130266   6.970   1.917   7.764 -0.9136  0.0793  0.3260
 2877TIP3    H230267   6.945   1.778   7.709 -1.8184  0.2268  0.3477
 2878TIP3   OH230268   1.176   0.670   1.233  0.0925  0.3558 -0.5405
 2878TIP3    H130269   1.150   0.612   1.304  0.1200  0.0845 -0.7491
 2878TIP3    H230270   1.135   0.754   1.253 -0.4531  0.0939 -0.5611
 2879TIP3   OH230271   0.820   2.372   0.950 -0.3970 -0.6852 -0.3974
 2879TIP3    H130272   0.857   2.373   1.038 -0.7002  0.3182 -0.2656
 2879TIP3    H230273   0.895   2.354   0.892 -0.3658 -2.4065  0.1062
 2880TIP3   OH230274   0.437   5.854   1.124 -0.0779 -0.7945  0.5814
 2880TIP3    H130275   0.439   5.769   1.168  0.3982 -0.7534  0.6508
 2880TIP3    H230276   0.371   5.904   1.171  0.2930 -0.8170  1.1275
 2881TIP3   OH230277   1.239   0.164   2.860  0.0405 -0.5406  0.1236
 2881TIP3    H130278   1.160   0.111   2.872  0.7392 -2.4406 -2.7017
 2881TIP3    H230279   1.205   0.251   2.837 -1.1650 -0.6606  1.3133
 2882TIP3   OH230280   1.689   5.347   1.611  0.3679 -0.0362  0.1086
 2882TIP3    H130281   1.758   5.400   1.651  0.7900 -0.2839 -0.2837
 2882TIP3    H230282   1.621   5.409   1.587  0.5982  0.2516  0.2007
 2883TIP3   OH230283   2.350   0.168   7.798  0.1088 -0.2057 -0.0655
 2883TIP3    H130284   2.422   0.105   7.812  1.0472  0.7788 -0.3305
 2883TIP3    H230285   2.307   0.137   7.718  1.7895  0.5541 -1.3218
 2884TIP3   OH230286   1.785   6.716   7.223  0.0953  0.0496  0.0480
 2884TIP3    H130287   1.877   6.691   7.227  0.1604  0.3752  0.6101
 2884TIP3    H230288   1.784   6.809   7.246 -0.3241  0.1613 -0.4024
 2885TIP3   OH230289   6.700   1.064   7.342  0.1438  0.1372 -0.4993
 2885TIP3    H130290   6.685   1.158   7.349 -1.4432 -0.1710  0.5364
 2885TIP3    H230291   6.618   1.029   7.307 -0.5396 -1.2236  2.2331
 2886TIP3   OH230292   0.612   0.378   7.304 -0.1587  0.4328  0.1407
 2886TIP3    H130293   0.652   0.301   7.264  0.0363  0.1952  0.7695
 2886TIP3    H230294   0.537   0.398   7.249  0.3670  0.4033 -0.6031
 2887TIP3   OH230295   3.866   5.729   0.032 -0.0926 -0.1929  0.2279
 2887TIP3    H130296   3.831   5.805   0.078  1.1342 -0.0531  0.9858
 2887TIP3    H230297   3.955   5.755   0.008  1.1620 -2.0754  2.4034
 2888TIP3   OH230298   1.508   0.439   1.713 -0.2205  0.3026 -0.4878
 2888TIP3    H130299   1.532   0.453   1.805  0.2792  0.6795 -0.6739
 2888TIP3    H230300   1.573   0.377   1.681 -0.1999  0.4202 -0.6740
 2889TIP3   OH230301   5.785   3.000   0.401  0.5331  0.0472 -0.0853
 2889TIP3    H130302   5.718   3.024   0.466 -2.0920  0.2379 -2.6563
 2889TIP3    H230303   5.811   2.911   0.425 -0.9860 -0.2005  0.7599
 2890TIP3   OH230304   1.462   4.045   2.782 -0.1288 -0.4265  0.2866
 2890TIP3    H130305   1.453   4.135   2.751  0.1910 -0.1463  0.9865
 2890TIP3    H230306   1.447   4.050   2.876  2.0689 -0.7283  0.7254
 2891TIP3   OH230307   0.446   4.184   8.248 -0.0708 -0.2376 -0.3016
 2891TIP3    H130308   0.431   4.091   8.230 -0.5103 -0.7043  2.0812
 2891TIP3    H230309   0.485   4.185   8.335  1.5180  1.7584 -0.9667
 2892TIP3   OH230310   3.894   4.948   7.825  0.3966  0.2670 -0.1449
 2892TIP3    H130311   3.804   4.916   7.816  0.1252  1.0054 -0.1340
 2892TIP3    H230312   3.914   4.938   7.918  0.9292 -1.4363 -0.4079
 2893TIP3   OH230313   3.074   6.705   1.236  0.1764 -0.7154  0.5138
 2893TIP3    H130314   3.103   6.789   1.200 -0.3973  0.1210  1.9373
 2893TIP3    H230315   3.090   6.642   1.165  0.1857  0.6537 -0.7486
 2894TIP3   OH230316   0.165   0.464   2.316 -0.2497 -0.0235  0.1333
 2894TIP3    H130317   0.170   0.523   2.391 -0.4610  0.8198 -0.4954
 2894TIP3    H230318   0.240   0.490   2.261  0.6167 -1.4256  0.5931
 2895TIP3   OH230319   2.608   0.065   7.498  0.2965  0.2276  0.1865
 2895TIP3    H130320   2.547   0.001   7.461  0.6457 -0.2662  0.4524
 2895TIP3    H230321   2.625   0.034   7.587 -0.0986  1.0978  0.5693
 2896TIP3   OH230322   0.300   4.764   2.352 -0.5016 -0.0008 -0.1152
 2896TIP3    H130323   0.229   4.706   2.326 -0.9744  0.2082  0.6649
 2896TIP3    H230324   0.266   4.852   2.335 -0.8182  0.1424  1.1268
 2897TIP3   OH230325   6.505   4.714   8.180  0.0447 -0.5863 -0.0630
 2897TIP3    H130326   6.506   4.680   8.270  0.9261 -2.0860 -0.6026
 2897TIP3    H230327   6.419   4.755   8.171 -1.1369 -2.7079  0.6658
 2898TIP3   OH230328   2.959   4.384   1.141 -0.0044 -0.2155  0.5201
 2898TIP3    H130329   2.872   4.402   1.177 -0.2547  0.9324 -0.6175
 2898TIP3    H230330   2.943   4.353   1.052  0.7849  1.0087 -0.0747
 2899TIP3   OH230331   1.836   6.312   2.518 -0.2578  0.7989 -0.1233
 2899TIP3    H130332   1.792   6.367   2.453 -1.6459  1.5470  1.3709
 2899TIP3    H230333   1.834   6.364   2.598  1.9970  0.1688  0.3894
 2900TIP3   OH230334   0.929   2.089   0.411 -0.0916 -0.0166  0.0919
 2900TIP3    H130335   0.925   2.041   0.328  0.4813 -0.6095  0.3914
 2900TIP3    H230336   0.956   2.177   0.387  1.4232 -0.5424 -0.2429
 2901TIP3   OH230337   4.868   5.335   8.130 -0.0652  0.7610  0.8532
 2901TIP3    H130338   4.819   5.264   8.088  1.1945  0.2196  0.2198
 2901TIP3    H230339   4.958   5.323   8.099  0.3694  2.0417  1.5355
 2902TIP3   OH230340   0.891   6.453   0.509  0.0932  0.5236 -0.0814
 2902TIP3    H130341   0.805   6.429   0.543  1.3203 -1.9531  1.5868
 2902TIP3    H230342   0.943   6.473   0.588  1.0802  1.9940 -1.0487
 2903TIP3   OH230343   2.468   1.147   8.165 -0.0876  0.1051  0.6682
 2903TIP3    H130344   2.455   1.112   8.253 -2.5242 -0.2598  0.2470
 2903TIP3    H230345   2.418   1.089   8.108  1.5840  0.2264 -1.0245
 2904TIP3   OH230346   5.743   6.366   2.422  0.3486  0.2328 -0.3435
 2904TIP3    H130347   5.760   6.450   2.464 -2.2377  1.5508 -1.7239
 2904TIP3    H230348   5.669   6.382   2.364  1.2368 -2.4499 -2.4362
 2905TIP3   OH230349   5.611   5.854   0.052  0.0711  0.1178 -0.0353
 2905TIP3    H130350   5.585   5.942   0.025 -1.2128 -0.4265 -0.6795
 2905TIP3    H230351   5.673   5.868   0.123  0.8644  1.5508 -0.9664
 2906TIP3   OH230352   5.973   1.981   1.486  0.1819 -0.3019  0.2682
 2906TIP3    H130353   5.917   1.904   1.500  0.0027  0.0442  1.5774
 2906TIP3    H230354   5.953   2.038   1.560  0.9898  0.6051 -0.2054
 2907TIP3   OH230355   4.025   2.970   1.627 -0.2460  0.2107  0.1687
 2907TIP3    H130356   4.020   3.024   1.548  0.8662  0.4531  0.2485
 2907TIP3    H230357   4.086   3.016   1.684 -0.1557 -0.5492  0.7051
 2908TIP3   OH230358   3.440   6.897   1.473 -0.1611 -0.1724 -0.1649
 2908TIP3    H130359   3.347   6.917   1.485 -0.0462  0.2444  0.0512
 2908TIP3    H230360   3.450   6.887   1.378 -0.4328 -0.2660 -0.1855
 2909TIP3   OH230361   3.303   4.205   2.648 -0.5587 -0.0935  0.7491
 2909TIP3    H130362   3.303   4.118   2.689  0.0440 -0.1900  0.5655
 2909TIP3    H230363   3.263   4.263   2.713 -0.0345 -0.3238  1.2870
 2910TIP3   OH230364   1.005   6.875   1.382 -0.4355 -0.1208  0.0047
 2910TIP3    H130365   1.052   6.794   1.402  0.0338  0.2541  0.4448
 2910TIP3    H230366   1.046   6.906   1.301 -0.4817 -0.2176 -0.0564
 2911TIP3   OH230367   6.259   4.363   8.195 -0.4831 -0.3423  0.7028
 2911TIP3    H130368   6.305   4.368   8.279  1.7851  0.9740 -0.5150
 2911TIP3    H230369   6.238   4.454   8.175 -1.1217 -0.6617 -0.1019
 2912TIP3   OH230370   5.988   1.248   0.092 -0.1245  0.1769  0.5489
 2912TIP3    H130371   5.905   1.235   0.138 -1.7928 -0.0726 -2.3139
 2912TIP3    H230372   5.978   1.200   0.010  3.1571 -0.4322  0.3660
 2913TIP3   OH230373   6.130   3.240   0.137 -0.1740  0.2712 -0.0737
 2913TIP3    H130374   6.167   3.300   0.201  0.9883 -0.3872 -0.0902
 2913TIP3    H230375   6.205   3.187   0.108 -1.2473 -1.5963  0.4062
 2914TIP3   OH230376   5.419   2.078   2.302 -0.3328  0.0005 -0.4011
 2914TIP3    H130377   5.504   2.110   2.332 -0.3302 -0.4581  0.1008
 2914TIP3    H230378   5.434   1.985   2.285 -0.9100 -0.2431  0.3819
 2915TIP3   OH230379   6.110   5.565   1.163 -0.1669  0.4377  0.5602
 2915TIP3    H130380   6.022   5.556   1.201  0.2052  3.7655  2.5708
 2915TIP3    H230381   6.161   5.498   1.208 -1.6530 -1.8970 -0.9958
 2916TIP3   OH230382   4.672   6.514   0.459 -0.7340  0.2642 -0.3190
 2916TIP3    H130383   4.578   6.504   0.473 -1.0308 -0.1965 -2.3619
 2916TIP3    H230384   4.680   6.544   0.368  1.1292 -0.8007 -0.5549
 2917TIP3   OH230385   0.683   3.353   0.439  0.1873  0.2200 -0.2614
 2917TIP3    H130386   0.697   3.437   0.484 -0.3741  1.1362 -1.7408
 2917TIP3    H230387   0.588   3.345   0.433  0.2514 -0.1936 -0.7336
 2918TIP3   OH230388   3.972   0.802   0.166  0.0144 -0.6298 -0.5792
 2918TIP3    H130389   3.981   0.735   0.234  0.1735 -1.0667 -1.0271
 2918TIP3    H230390   4.062   0.823   0.141 -0.0260 -0.1097 -0.3187
 2919TIP3   OH230391   2.326   5.053   0.780  0.7830 -0.0790  0.0422
 2919TIP3    H130392   2.244   5.028   0.823  1.6031 -0.9524  1.1690
 2919TIP3    H230393   2.328   5.149   0.785  0.2333 -0.0980  0.7946
 2920TIP3   OH230394   5.935   0.939   7.306 -0.7007  0.3309  0.5529
 2920TIP3    H130395   5.914   0.909   7.217 -0.1323 -1.7725  1.0758
 2920TIP3    H230396   5.883   0.882   7.363  0.5450  0.2239  1.6260
 2921TIP3   OH230397   0.668   3.719   7.597  0.1908 -0.5325 -0.7531
 2921TIP3    H130398   0.726   3.699   7.671 -0.8292  1.0007  0.5291
 2921TIP3    H230399   0.703   3.801   7.562 -0.8054  0.0751 -0.3573
 2922TIP3   OH230400   4.556   0.132   1.595 -0.2380  0.2476 -0.1827
 2922TIP3    H130401   4.513   0.091   1.670  0.5119  0.0143  0.1345
 2922TIP3    H230402   4.486   0.176   1.548 -0.9071 -0.5852  0.0126
 2923TIP3   OH230403   6.776   6.520   6.632 -0.0257  0.0217  0.4483
 2923TIP3    H130404   6.853   6.497   6.684 -0.1019 -0.3199  0.4176
 2923TIP3    H230405   6.705   6.469   6.670  0.0433 -0.7201 -0.3585
 2924TIP3   OH230406   3.714   4.521   0.269 -0.5925  0.0116  0.1424
 2924TIP3    H130407   3.723   4.581   0.195 -0.6531 -0.1002  0.0437
 2924TIP3    H230408   3.636   4.552   0.316 -1.9401 -1.3003 -1.1377
 2925TIP3   OH230409   2.249   2.496   1.668  0.5294  0.6237 -0.3730
 2925TIP3    H130410   2.289   2.576   1.632 -1.3225  1.7144 -0.1361
 2925TIP3    H230411   2.294   2.484   1.752  1.6158  0.7590 -0.9202
 2926TIP3   OH230412   5.954   6.648   8.380  0.0960 -0.0591 -0.2547
 2926TIP3    H130413   5.896   6.723   8.369  3.2207  2.3193 -2.4576
 2926TIP3    H230414   6.006   6.670   8.458  0.6446 -0.1957 -0.5807
 2927TIP3   OH230415   0.752   0.335   2.979  0.9061  0.5257  0.2397
 2927TIP3    H130416   0.789   0.364   2.896  1.3172  1.0860  0.6122
 2927TIP3    H230417   0.664   0.371   2.980 -0.2433 -1.9367 -1.2621
 2928TIP3   OH230418   1.369   4.368   0.623  0.1882 -0.5283  0.1224
 2928TIP3    H130419   1.373   4.295   0.561 -0.2910  0.1484 -0.7380
 2928TIP3    H230420   1.277   4.395   0.623 -0.1483 -1.4870  2.3293
 2929TIP3   OH230421   3.765   5.304   2.178  0.9223 -0.2984  0.1759
 2929TIP3    H130422   3.672   5.315   2.196  1.0954  0.4661  0.6797
 2929TIP3    H230423   3.770   5.229   2.119  0.0289 -0.6283  0.5037
 2930TIP3   OH230424   0.802   3.944   2.236  0.2870  0.1478 -0.0917
 2930TIP3    H130425   0.799   3.950   2.332 -1.1598 -1.9125  0.0370
 2930TIP3    H230426   0.723   3.896   2.212  1.3315 -0.6127 -2.2177
 2931TIP3   OH230427   0.094   5.551   8.006  0.7230  0.5376 -0.0755
 2931TIP3    H130428   0.175   5.501   8.018  1.2198  0.6234 -2.4661
 2931TIP3    H230429   0.029   5.506   8.059  1.4118 -1.9870 -1.2435
 2932TIP3   OH230430   0.739   5.310   3.214 -0.3462  0.0640  0.1362
 2932TIP3    H130431   0.669   5.277   3.156  1.1582 -1.5035 -0.8915
 2932TIP3    H230432   0.761   5.235   3.269  0.2100  0.6795  0.7594
 2933TIP3   OH230433   1.655   4.248   1.046  0.4415  0.6819  0.3425
 2933TIP3    H130434   1.743   4.282   1.032 -0.2314  2.9656  1.2274
 2933TIP3    H230435   1.611   4.261   0.962  0.9372 -0.5386 -0.1257
 2934TIP3   OH230436   2.583   2.327   2.107  0.0604  0.1864 -0.2708
 2934TIP3    H130437   2.645   2.315   2.035  1.4582  1.8409  0.5841
 2934TIP3    H230438   2.632   2.307   2.186 -0.9493  0.0511  0.3465
 2935TIP3   OH230439   4.211   3.490   7.909 -0.1333 -0.1478  0.0964
 2935TIP3    H130440   4.178   3.401   7.902  1.4632 -0.6868 -1.4074
 2935TIP3    H230441   4.296   3.488   7.864  0.5637  1.8192  1.1843
 2936TIP3   OH230442   0.183   0.788   0.242  0.1749  0.1087  0.4240
 2936TIP3    H130443   0.109   0.791   0.182  0.0035 -0.3868  0.6060
 2936TIP3    H230444   0.234   0.712   0.214  0.9797  0.8292 -0.1187
 2937TIP3   OH230445   5.573   4.046   2.123 -0.5619  0.0397  0.0733
 2937TIP3    H130446   5.557   3.974   2.062 -1.1831  0.2881 -0.0545
 2937TIP3    H230447   5.487   4.080   2.144 -0.2851  0.5950  0.3241
 2938TIP3   OH230448   1.145   1.069   2.440  0.9458 -0.7835 -0.3270
 2938TIP3    H130449   1.065   1.109   2.406  0.9576  1.2331  1.7433
 2938TIP3    H230450   1.125   1.050   2.532  2.6647 -0.6486  0.1189
 2939TIP3   OH230451   6.254   5.481   2.505  0.2722 -0.0944  0.6186
 2939TIP3    H130452   6.166   5.499   2.472  0.1897 -1.1338  0.2400
 2939TIP3    H230453   6.267   5.387   2.490  2.6936  0.5751 -2.3611
 2940TIP3   OH230454   0.756   1.202   2.490  0.1748  0.0158  0.1982
 2940TIP3    H130455   0.769   1.296   2.476 -0.1765  0.0413  0.0150
 2940TIP3    H230456   0.769   1.190   2.584 -1.4857  0.5550  0.5352
 2941TIP3   OH230457   3.321   6.965   7.670  0.0431  0.0671 -0.6681
 2941TIP3    H130458   3.354   7.051   7.699 -1.7755  0.5920  0.0172
 2941TIP3    H230459   3.387   6.934   7.608  2.5232  0.3821  1.5928
 2942TIP3   OH230460   3.521   6.374   1.022  0.1599  0.1712  0.1746
 2942TIP3    H130461   3.609   6.404   0.998 -0.5355  0.1829 -2.7638
 2942TIP3    H230462   3.495   6.432   1.094  2.0404  1.0392  0.2090
 2943TIP3   OH230463   2.414   4.036   3.391 -0.5032  0.1314 -0.1165
 2943TIP3    H130464   2.460   3.969   3.441  0.0130 -1.0332 -2.0372
 2943TIP3    H230465   2.406   3.999   3.303 -0.8002  2.3315 -1.0817
 2944TIP3   OH230466   3.757   2.543   2.136  0.2299 -0.5364 -0.0013
 2944TIP3    H130467   3.732   2.475   2.073 -0.2706  1.9685 -2.6987
 2944TIP3    H230468   3.852   2.545   2.133  0.3058 -1.6866  0.8304
 2945TIP3   OH230469   2.853   4.616   0.402 -0.0268  0.2066  0.2219
 2945TIP3    H130470   2.772   4.613   0.352  0.2679  1.0146 -0.3314
 2945TIP3    H230471   2.920   4.640   0.337  0.2113  2.3162  1.1717
 2946TIP3   OH230472   6.037   1.355   1.315 -0.2864  0.3338  0.0336
 2946TIP3    H130473   6.077   1.393   1.237 -2.0260  1.6010 -0.3078
 2946TIP3    H230474   5.962   1.307   1.282 -0.1643 -0.4060  0.8110
 2947TIP3   OH230475   0.643   5.227   1.793 -0.4232  0.1374  0.0686
 2947TIP3    H130476   0.710   5.241   1.860 -0.7109  0.6150  0.2659
 2947TIP3    H230477   0.663   5.141   1.756 -1.0698 -0.7749  1.7283
 2948TIP3   OH230478   1.696   2.732   1.581 -0.1955  0.2064  0.4336
 2948TIP3    H130479   1.642   2.659   1.550  1.9421 -0.9813 -0.7162
 2948TIP3    H230480   1.761   2.745   1.512 -0.2375  2.9502  0.8134
 2949TIP3   OH230481   0.602   1.900   7.391 -0.1189  0.0629 -0.1322
 2949TIP3    H130482   0.553   1.939   7.319  0.1504  2.0320  0.7049
 2949TIP3    H230483   0.679   1.860   7.348 -0.4071  0.4243 -1.0134
 2950TIP3   OH230484   2.588   4.624   3.111  0.0356 -0.1367 -0.3646
 2950TIP3    H130485   2.628   4.640   3.197 -1.6847 -0.5825  0.5629
 2950TIP3    H230486   2.645   4.560   3.069  0.3420 -0.7011  0.8735
 2951TIP3   OH230487   0.838   4.929   1.951 -0.2746 -0.6261 -0.1044
 2951TIP3    H130488   0.820   5.008   2.001 -1.8446 -1.2371  0.3452
 2951TIP3    H230489   0.839   4.859   2.016 -0.1337 -1.1474 -0.6534
 2952TIP3   OH230490   4.531   3.262   2.394  0.7432 -0.0371  0.1909
 2952TIP3    H130491   4.576   3.279   2.477  2.0351  0.4037 -0.5652
 2952TIP3    H230492   4.457   3.322   2.393  1.4028  0.8053  0.5220
 2953TIP3   OH230493   0.333   2.265   1.957  0.0717 -0.7142  0.5181
 2953TIP3    H130494   0.300   2.317   2.030 -2.3691 -0.7713 -0.4435
 2953TIP3    H230495   0.365   2.184   1.998  0.9585  0.2108  1.7069
 2954TIP3   OH230496   2.568   6.856   2.338 -0.0374  0.5737  0.0792
 2954TIP3    H130497   2.556   6.819   2.425  1.8251  0.0276  0.1376
 2954TIP3    H230498   2.572   6.780   2.280  2.4858  0.6829  0.0283
 2955TIP3   OH230499   3.367   1.688   8.055 -0.0796 -0.5361  0.4171
 2955TIP3    H130500   3.401   1.722   8.138 -0.7698 -1.2638  1.0195
 2955TIP3    H230501   3.331   1.765   8.011 -2.1312 -0.4969  2.0145
 2956TIP3   OH230502   6.906   6.733   6.501 -0.1034 -0.6530 -0.2912
 2956TIP3    H130503   6.857   6.654   6.522 -3.6854  1.4392  0.2377
 2956TIP3    H230504   6.882   6.795   6.570  0.5794  1.5961 -1.9574
 2957TIP3   OH230505   1.215   4.798   1.691  0.3496  0.2064  0.5747
 2957TIP3    H130506   1.134   4.843   1.665  0.7810  0.7156  0.0775
 2957TIP3    H230507   1.188   4.737   1.759 -0.9124 -1.3932 -1.2354
 2958TIP3   OH230508   0.099   0.996   0.409 -0.4882  0.3584  0.3530
 2958TIP3    H130509   0.128   0.909   0.382 -1.3523 -0.4483  1.8475
 2958TIP3    H230510   0.090   0.989   0.504 -2.6889  1.4179  0.2706
 2959TIP3   OH230511   6.201   4.108   0.884  0.0206 -0.1712  0.0759
 2959TIP3    H130512   6.239   4.183   0.839  1.5233  0.0723  1.6364
 2959TIP3    H230513   6.201   4.038   0.819  0.9870  0.4969 -0.6706
 2960TIP3   OH230514   1.821   6.998   7.731  0.2463  0.1678  0.1295
 2960TIP3    H130515   1.822   6.988   7.636 -2.8471 -0.8112  0.0861
 2960TIP3    H230516   1.794   6.911   7.763 -1.9068  1.2936  1.6099
 2961TIP3   OH230517   0.216   5.632   0.875  0.0864 -0.0092 -0.5689
 2961TIP3    H130518   0.272   5.701   0.840 -1.7604  1.5110 -0.7432
 2961TIP3    H230519   0.156   5.611   0.803 -1.9204  1.1165  0.6581
 2962TIP3   OH230520   1.236   0.297   2.232 -0.0954  0.2399 -0.3572
 2962TIP3    H130521   1.304   0.332   2.175  0.8321 -0.3623  0.3493
 2962TIP3    H230522   1.157   0.347   2.210  0.5830  0.9704 -1.1622
 2963TIP3   OH230523   4.551   3.935   0.920  0.2730 -0.0714  0.5964
 2963TIP3    H130524   4.545   3.978   0.835 -0.8003 -0.5237  0.4247
 2963TIP3    H230525   4.627   3.878   0.913  1.0906  0.9920  0.4680
 2964TIP3   OH230526   3.216   1.374   6.615  0.4557  0.1312 -0.1434
 2964TIP3    H130527   3.241   1.460   6.583 -0.0776  0.2276 -0.3169
 2964TIP3    H230528   3.141   1.390   6.673  0.1554 -0.2350 -0.4208
 2965TIP3   OH230529   6.622   2.268   7.853 -0.3573  0.2788  0.3948
 2965TIP3    H130530   6.660   2.308   7.775  0.9947 -1.9777 -0.1840
 2965TIP3    H230531   6.538   2.234   7.824 -0.6931  1.0419  0.4341
 2966TIP3   OH230532   2.967   4.438   8.140  0.1132 -0.6416  0.0774
 2966TIP3    H130533   2.943   4.415   8.051 -0.7132  1.3913 -0.2705
 2966TIP3    H230534   3.056   4.474   8.133  0.5086 -1.5264  0.2877
 2967TIP3   OH230535   1.816   1.320   1.664  0.2552 -0.7338 -0.3821
 2967TIP3    H130536   1.822   1.255   1.735  1.2917 -1.3904 -1.0433
 2967TIP3    H230537   1.843   1.402   1.705 -3.5329 -0.0494  1.1687
 2968TIP3   OH230538   1.553   3.489   0.867 -0.1347 -0.3100 -0.4069
 2968TIP3    H130539   1.485   3.540   0.821  1.1688  1.8606 -0.0930
 2968TIP3    H230540   1.531   3.498   0.959  1.0785  1.3133 -0.2260
 2969TIP3   OH230541   6.807   2.380   8.065  0.3925  0.0119 -0.0989
 2969TIP3    H130542   6.766   2.360   7.981  2.1721  1.4003 -1.3689
 2969TIP3    H230543   6.752   2.335   8.129 -1.8351  0.0336 -1.8518
 2970TIP3   OH230544   2.545   4.876   7.849 -0.5980  0.0771  0.1609
 2970TIP3    H130545   2.595   4.901   7.926 -1.8121  0.5020  0.8362
 2970TIP3    H230546   2.562   4.945   7.785 -2.2196  1.5765  1.2568
 2971TIP3   OH230547   3.572   2.392   1.287 -0.0250 -0.2951  0.3541
 2971TIP3    H130548   3.654   2.363   1.248 -0.5453 -1.0275 -0.2135
 2971TIP3    H230549   3.542   2.317   1.337 -0.0887  0.1541  1.0063
 2972TIP3   OH230550   2.863   1.673   1.838  0.6633  0.1095  0.1851
 2972TIP3    H130551   2.809   1.707   1.766  1.2146  1.5246  0.4166
 2972TIP3    H230552   2.830   1.718   1.916  0.7183 -0.6852  0.6705
 2973TIP3   OH230553   4.708   1.173   1.783  0.1825  0.0950  0.0559
 2973TIP3    H130554   4.791   1.189   1.739 -0.7173 -1.5352 -2.3977
 2973TIP3    H230555   4.641   1.208   1.724 -0.9648  0.7580  1.6498
 2974TIP3   OH230556   3.041   5.776   0.459 -0.7079 -0.2350  0.2575
 2974TIP3    H130557   2.971   5.801   0.520  0.1501  0.7243  0.8796
 2974TIP3    H230558   3.119   5.816   0.495  0.2029 -1.3819 -0.3736
 2975TIP3   OH230559   0.887   5.215   7.880 -0.0102 -0.8867  0.0091
 2975TIP3    H130560   0.851   5.303   7.894 -1.0216 -1.5349  1.8987
 2975TIP3    H230561   0.813   5.164   7.848  0.7859 -0.9052 -1.9497
 2976TIP3   OH230562   2.007   2.309   7.626 -0.5015 -0.0061  0.3857
 2976TIP3    H130563   2.078   2.316   7.690 -0.6466 -0.1358  0.5623
 2976TIP3    H230564   1.944   2.376   7.653  0.5578  1.6437 -1.0719
 2977TIP3   OH230565   0.634   0.719   7.654  0.2800  0.4052 -0.2751
 2977TIP3    H130566   0.610   0.698   7.744 -0.9351  0.4097 -0.5754
 2977TIP3    H230567   0.550   0.728   7.609  0.8788 -0.1803 -1.5378
 2978TIP3   OH230568   0.059   5.107   0.709 -0.1536 -0.1265  0.4342
 2978TIP3    H130569   0.021   5.041   0.651  2.4625 -1.3409 -0.0237
 2978TIP3    H230570   0.055   5.188   0.658 -2.1601 -0.1532  0.4698
 2979TIP3   OH230571   6.644   1.871   2.733 -0.5044  0.1164 -0.0257
 2979TIP3    H130572   6.734   1.839   2.738 -0.4119  0.4493  0.4703
 2979TIP3    H230573   6.590   1.795   2.753 -0.3396 -0.1004 -0.3904
 2980TIP3   OH230574   5.035   2.991   7.032  0.4458 -0.4138  0.3843
 2980TIP3    H130575   5.095   3.066   7.027  0.5068 -0.4659  0.3377
 2980TIP3    H230576   4.964   3.021   7.090 -0.0037  0.0124 -0.3727
 2981TIP3   OH230577   5.546   5.300   7.217 -0.2533  0.1620  0.3185
 2981TIP3    H130578   5.553   5.356   7.141 -1.2794  0.4909  0.4555
 2981TIP3    H230579   5.608   5.229   7.200  0.4296  0.8746 -0.2422
 2982TIP3   OH230580   1.138   2.589   0.664 -0.3267 -0.2703  0.1247
 2982TIP3    H130581   1.120   2.666   0.610  1.2015 -0.6176 -0.9509
 2982TIP3    H230582   1.226   2.604   0.699 -0.7001 -0.7535  1.3193
 2983TIP3   OH230583   6.435   4.233   1.054 -0.0430 -0.6983 -0.4017
 2983TIP3    H130584   6.357   4.240   0.999  0.5228  1.4534 -1.0494
 2983TIP3    H230585   6.406   4.187   1.132 -1.8952 -0.2099 -0.7521
 2984TIP3   OH230586   5.002   5.063   1.541  0.0125  0.2435  0.2580
 2984TIP3    H130587   4.994   5.097   1.452  0.1285  0.2418  0.2467
 2984TIP3    H230588   4.918   5.020   1.558 -0.9052  2.2079  0.9974
 2985TIP3   OH230589   0.781   3.997   8.346 -0.1099 -0.0130  0.1560
 2985TIP3    H130590   0.858   4.051   8.331  0.2963 -0.5136  0.4004
 2985TIP3    H230591   0.725   4.050   8.403  0.4521  0.0056  0.6976
 2986TIP3   OH230592   5.974   1.401   1.855  0.9373 -0.3175 -0.1507
 2986TIP3    H130593   6.036   1.329   1.845  1.1324 -0.2122  0.2723
 2986TIP3    H230594   6.028   1.476   1.881  0.9381  0.3464 -1.9091
 2987TIP3   OH230595   3.870   2.398   0.288  0.4819  0.7039  0.5289
 2987TIP3    H130596   3.947   2.376   0.236  0.3868 -0.6779  0.9169
 2987TIP3    H230597   3.851   2.489   0.267  0.8345  0.3749 -1.3271
 2988TIP3   OH230598   2.751   2.268   1.900 -0.8848  0.1007 -0.0850
 2988TIP3    H130599   2.835   2.247   1.860 -1.1130 -0.6250 -0.2078
 2988TIP3    H230600   2.687   2.249   1.831 -1.3112 -1.4454  0.6888
 2989TIP3   OH230601   1.181   5.468   1.250  0.6043  0.3621  0.0086
 2989TIP3    H130602   1.098   5.497   1.213 -0.1845 -1.5594  0.1798
 2989TIP3    H230603   1.200   5.531   1.320 -1.1554  0.3316  0.5432
 2990TIP3   OH230604   5.198   6.893   1.365  0.1270  0.3405  0.7378
 2990TIP3    H130605   5.228   6.950   1.294 -0.4029 -0.2969 -0.0119
 2990TIP3    H230606   5.175   6.953   1.436  1.5259  0.9478  0.7276
 2991TIP3   OH230607   2.272   4.669   1.053  0.2187 -0.6323 -0.1516
 2991TIP3    H130608   2.282   4.629   1.140  1.2220  0.6208  0.3351
 2991TIP3    H230609   2.203   4.734   1.065 -0.5664 -1.3616 -0.6396
 2992TIP3   OH230610   1.223   1.255   7.458  0.1471 -0.4587 -0.1384
 2992TIP3    H130611   1.209   1.328   7.398 -0.3790 -0.8869 -0.5443
 2992TIP3    H230612   1.183   1.180   7.415 -0.3423 -0.7516  0.7984
 2993TIP3   OH230613   4.211   5.834   2.644  0.0179  0.0264 -0.2679
 2993TIP3    H130614   4.174   5.846   2.556 -0.3413 -0.3987 -0.1842
 2993TIP3    H230615   4.213   5.922   2.682 -0.7608  0.0853 -0.3441
 2994TIP3   OH230616   0.851   2.281   1.469  0.2179  0.6830  0.0298
 2994TIP3    H130617   0.834   2.308   1.560 -0.1072 -2.0681  0.8680
 2994TIP3    H230618   0.770   2.239   1.440  1.1988 -0.9327 -0.5157
 2995TIP3   OH230619   5.397   3.186   1.167 -0.3155  0.5419  0.1815
 2995TIP3    H130620   5.369   3.120   1.104  0.8718  0.9428 -0.8020
 2995TIP3    H230621   5.402   3.139   1.250 -0.1434 -0.4474 -0.3708
 2996TIP3   OH230622   3.493   4.615   0.392 -0.0157 -0.8567  0.9252
 2996TIP3    H130623   3.399   4.621   0.410 -0.1351  2.0450 -0.1475
 2996TIP3    H230624   3.534   4.615   0.479 -0.9242  1.4682  1.4162
 2997TIP3   OH230625   0.699   3.167   0.990  0.5311  0.0465  0.5651
 2997TIP3    H130626   0.791   3.187   0.974  0.1702  1.2589 -0.1885
 2997TIP3    H230627   0.695   3.072   0.995  1.9097  0.0060  1.2275
 2998TIP3   OH230628   4.999   4.314   0.384 -0.0530  0.2115  0.0513
 2998TIP3    H130629   5.064   4.286   0.320 -0.6380  1.9087 -1.3844
 2998TIP3    H230630   4.990   4.408   0.369 -0.7853  0.5268  2.1419
 2999TIP3   OH230631   0.277   2.172   0.724  0.4787 -0.0818  0.2173
 2999TIP3    H130632   0.354   2.228   0.733 -0.3091  1.0810 -0.0696
 2999TIP3    H230633   0.286   2.108   0.795  1.9725 -0.3153 -0.1414
 3000TIP3   OH230634   4.789   3.977   2.740 -0.0589  0.1360  0.1731
 3000TIP3    H130635   4.803   3.911   2.807  1.3349  1.7145  1.5252
 3000TIP3    H230636   4.823   4.058   2.778 -1.3705  1.5938 -1.5418
 3001TIP3   OH230637   5.081   5.536   2.071  0.2455 -0.0887 -0.0524
 3001TIP3    H130638   5.168   5.540   2.033  1.6254 -0.4486  2.7942
 3001TIP3    H230639   5.053   5.445   2.058 -0.3202  0.3165 -2.0521
 3002TIP3   OH230640   5.604   5.189   0.575 -0.0678 -0.1054  0.5931
 3002TIP3    H130641   5.615   5.284   0.573 -1.8512  0.1475  0.8610
 3002TIP3    H230642   5.509   5.176   0.579  0.1771 -1.8780  1.7269
 3003TIP3   OH230643   4.809   3.553   2.470  0.3944  0.2494 -0.1769
 3003TIP3    H130644   4.770   3.574   2.385 -0.0405 -1.0389 -0.3076
 3003TIP3    H230645   4.827   3.639   2.509 -1.2312  0.8841 -0.7286
 3004TIP3   OH230646   1.563   2.184   7.527  0.1543  0.6254  0.2103
 3004TIP3    H130647   1.544   2.154   7.616 -2.1049  2.9894  0.6549
 3004TIP3    H230648   1.546   2.278   7.529  2.3371  1.1864 -2.1984
 3005TIP3   OH230649   6.923   4.869   0.258 -0.4365 -0.3227  0.1848
 3005TIP3    H130650   6.905   4.794   0.202  0.5449 -0.9033  0.6202
 3005TIP3    H230651   6.838   4.892   0.295 -0.6471 -1.6656  0.5926
 3006TIP3   OH230652   2.267   4.468   3.859 -0.1063 -0.1980 -0.0269
 3006TIP3    H130653   2.317   4.399   3.815 -2.1354 -2.5908  1.1862
 3006TIP3    H230654   2.335   4.525   3.897  1.6509 -0.8221 -2.0137
 3007TIP3   OH230655   4.290   4.815   8.243  0.3857  0.1768 -0.2670
 3007TIP3    H130656   4.254   4.890   8.195 -1.4818  0.3728  1.3068
 3007TIP3    H230657   4.360   4.853   8.296  2.2979 -0.0015 -2.5395
 3008TIP3   OH230658   3.438   0.100   7.355  0.4854 -0.0970 -0.2416
 3008TIP3    H130659   3.423   0.011   7.326 -0.2533 -0.4835  1.2148
 3008TIP3    H230660   3.531   0.102   7.380  1.1048  0.2201 -2.3946
 3009TIP3   OH230661   1.399   3.199   0.868  0.2595  0.0193  0.0889
 3009TIP3    H130662   1.314   3.190   0.826  0.3271  1.1289 -0.3260
 3009TIP3    H230663   1.381   3.248   0.948  0.3315 -0.8888  0.6769
 3010TIP3   OH230664   2.993   2.621   8.000 -0.2590  0.0294  0.2348
 3010TIP3    H130665   3.052   2.547   8.007  2.0778  1.6877 -0.7476
 3010TIP3    H230666   3.019   2.680   8.070 -0.1983  1.1391 -0.6896
 3011TIP3   OH230667   4.990   2.229   7.566 -0.2254  0.3240  0.2932
 3011TIP3    H130668   4.970   2.321   7.551 -0.9059 -0.0506 -1.3739
 3011TIP3    H230669   4.926   2.200   7.631 -0.7631  0.7457 -0.0474
 3012TIP3   OH230670   5.984   6.208   1.144  0.1201  0.2535  0.0967
 3012TIP3    H130671   6.020   6.185   1.229 -0.0756 -0.0564  0.0964
 3012TIP3    H230672   5.923   6.137   1.123  0.7212 -0.0642 -0.6396
 3013TIP3   OH230673   0.329   2.059   1.331 -0.4464 -0.0774 -0.3005
 3013TIP3    H130674   0.371   2.130   1.379  0.3746 -0.5833 -0.2557
 3013TIP3    H230675   0.388   2.040   1.258 -0.3738 -1.0619 -0.0066
 3014TIP3   OH230676   3.139   5.460   8.000  0.4717 -0.3692  0.1217
 3014TIP3    H130677   3.233   5.440   8.002  0.5917  0.1808  0.3211
 3014TIP3    H230678   3.129   5.518   7.925  0.5666  0.8283  1.0039
 3015TIP3   OH230679   5.339   0.201   1.829 -0.3850  0.6110 -0.3665
 3015TIP3    H130680   5.433   0.181   1.830 -0.6266 -0.6039 -0.5816
 3015TIP3    H230681   5.314   0.201   1.921 -0.7400 -2.0930 -0.3682
 3016TIP3   OH230682   4.648   3.905   7.999 -0.4794  0.2492 -0.0784
 3016TIP3    H130683   4.595   3.959   7.941 -0.1560  0.5368 -0.1108
 3016TIP3    H230684   4.736   3.941   7.992 -0.6419  1.0423  1.4759
 3017TIP3   OH230685   5.849   5.520   8.067  0.1303 -0.1234 -0.3267
 3017TIP3    H130686   5.801   5.578   8.126  1.7329 -0.7427  1.7087
 3017TIP3    H230687   5.941   5.541   8.083  0.6426 -0.2233 -2.7833
 3018TIP3   OH230688   0.023   3.472   2.395  0.0888  0.6973 -0.1844
 3018TIP3    H130689   0.010   3.530   2.470  2.5894  0.8095  0.2354
 3018TIP3    H230690   0.117   3.473   2.379 -0.0798 -1.2870 -1.7593
 3019TIP3   OH230691   0.366   3.083   1.149 -0.3907 -0.1161 -0.2257
 3019TIP3    H130692   0.379   3.039   1.066 -3.3007  1.1154 -1.4543
 3019TIP3    H230693   0.352   3.013   1.212  0.1667 -1.0136 -1.0775
 3020TIP3   OH230694   5.887   3.084   2.750  0.6046  0.1928  0.4163
 3020TIP3    H130695   5.889   3.032   2.830 -0.7698 -0.6109 -0.0364
 3020TIP3    H230696   5.921   3.026   2.682 -2.7560 -0.9685 -0.4808
 3021TIP3   OH230697   3.900   3.797   7.939  0.1865 -0.2398 -0.3292
 3021TIP3    H130698   3.985   3.801   7.982  0.2043  0.8207 -0.4289
 3021TIP3    H230699   3.858   3.880   7.962  0.3288  0.5290 -2.5877
 3022TIP3   OH230700   6.007   5.945   7.182  0.4256 -0.3317  0.2335
 3022TIP3    H130701   5.935   5.997   7.146  0.8502  0.1073  0.0072
 3022TIP3    H230702   6.072   5.943   7.113  0.1779 -1.6811  0.0059
 3023TIP3   OH230703   5.677   6.362   7.837  0.0577  0.0913 -0.9624
 3023TIP3    H130704   5.643   6.321   7.917 -0.8478  2.4430 -0.0317
 3023TIP3    H230705   5.769   6.379   7.856  0.7162 -2.2429 -1.7408
 3024TIP3   OH230706   0.219   0.614   7.963 -0.0960 -0.5653  0.6067
 3024TIP3    H130707   0.288   0.655   8.015  0.4174 -0.1659 -0.3707
 3024TIP3    H230708   0.261   0.539   7.921  0.4867  1.0879 -1.9821
 3025TIP3   OH230709   4.851   4.713   1.806  0.1312  0.0008 -0.2347
 3025TIP3    H130710   4.768   4.761   1.808 -0.5704 -1.1313  2.0588
 3025TIP3    H230711   4.869   4.701   1.713 -1.9075  0.9025 -0.8193
 3026TIP3   OH230712   5.170   2.824   2.813  0.3001  0.4405 -0.3351
 3026TIP3    H130713   5.126   2.874   2.881  0.2826  0.9568 -0.7213
 3026TIP3    H230714   5.131   2.736   2.819  0.7565  0.3067  0.7268
 3027TIP3   OH230715   1.613   6.164   2.675 -0.6733 -0.2815  0.1182
 3027TIP3    H130716   1.535   6.111   2.660 -1.6352  0.3973  2.3609
 3027TIP3    H230717   1.681   6.101   2.696 -1.4283 -0.7404  1.2714
 3028TIP3   OH230718   4.831   0.725   7.549 -0.2389 -0.5953 -0.1424
 3028TIP3    H130719   4.894   0.673   7.499 -0.9118 -0.8648 -0.7248
 3028TIP3    H230720   4.747   0.708   7.507 -0.5658  0.4995  0.0322
 3029TIP3   OH230721   0.946   3.788   0.395  0.3390 -0.2832  0.3556
 3029TIP3    H130722   0.888   3.863   0.391 -0.8310 -1.1443  0.6854
 3029TIP3    H230723   0.934   3.743   0.311 -0.4627 -1.1625  0.9220
 3030TIP3   OH230724   6.639   2.500   7.399 -0.0068  0.3798 -0.3123
 3030TIP3    H130725   6.623   2.591   7.373  0.9610  1.0179  1.2184
 3030TIP3    H230726   6.588   2.488   7.479 -0.7116 -0.6811 -0.8911
 3031TIP3   OH230727   1.478   4.936   0.357  0.4096 -0.6098 -0.4216
 3031TIP3    H130728   1.440   4.908   0.440 -0.3463 -1.4455 -1.0232
 3031TIP3    H230729   1.497   4.855   0.311  1.9364 -0.1775 -0.5977
 3032TIP3   OH230730   2.257   5.649   7.811 -0.2855  0.4141 -0.4995
 3032TIP3    H130731   2.285   5.607   7.730  0.1600 -0.5617  0.1468
 3032TIP3    H230732   2.232   5.737   7.784 -0.4852 -0.0027 -1.7547
 3033TIP3   OH230733   4.936   0.019   1.102 -0.1273  0.0765  0.2619
 3033TIP3    H130734   4.993   0.088   1.138  0.1846  0.4066 -0.8310
 3033TIP3    H230735   4.973  -0.000   1.016 -0.2050 -1.4925  0.5538
 3034TIP3   OH230736   5.563   5.113   1.883 -0.2946 -0.0985  0.0189
 3034TIP3    H130737   5.561   5.070   1.968 -0.9067  1.8413  1.0619
 3034TIP3    H230738   5.473   5.143   1.869  0.0075  0.4490 -0.8552
 3035TIP3   OH230739   0.715   0.304   1.870  0.0636 -0.4416  0.0761
 3035TIP3    H130740   0.658   0.293   1.945 -0.1841  1.7026  0.2543
 3035TIP3    H230741   0.796   0.341   1.906 -0.9562  3.0714 -0.8803
 3036TIP3   OH230742   4.323   6.874   2.639 -0.5122 -0.3603 -0.2110
 3036TIP3    H130743   4.280   6.959   2.633 -0.0231  0.1437  2.3348
 3036TIP3    H230744   4.261   6.818   2.686 -0.7637 -1.4127 -1.7158
 3037TIP3   OH230745   3.934   4.886   8.090 -0.0554 -0.6046  0.2786
 3037TIP3    H130746   3.952   4.812   8.147  0.7475  0.1964  1.1054
 3037TIP3    H230747   3.854   4.925   8.127 -0.8540 -1.4050 -0.5457
 3038TIP3   OH230748   4.331   2.247   7.447  0.1746 -0.4393 -0.1300
 3038TIP3    H130749   4.364   2.281   7.530  1.3523  0.8002 -1.0626
 3038TIP3    H230750   4.387   2.287   7.380  1.2048 -3.6610 -1.3982
 3039TIP3   OH230751   4.251   4.149   1.485  0.2565 -1.2799 -0.3188
 3039TIP3    H130752   4.161   4.161   1.517  1.4873 -0.4905  3.4200
 3039TIP3    H230753   4.258   4.054   1.471 -0.1623 -2.0166  3.3739
 3040TIP3   OH230754   3.544   3.386   1.118  0.0746 -0.1748 -0.0261
 3040TIP3    H130755   3.472   3.348   1.167 -0.4896  1.1246  0.2160
 3040TIP3    H230756   3.542   3.479   1.141  0.8940  0.1560 -1.1702
 3041TIP3   OH230757   3.032   4.385   7.441  0.0634 -0.2726  0.2367
 3041TIP3    H130758   2.959   4.333   7.407 -0.8422 -0.1733  1.9361
 3041TIP3    H230759   3.091   4.396   7.366 -1.1725 -1.2090 -0.9101
 3042TIP3   OH230760   1.048   2.312   0.812  0.3850 -0.3624 -0.3404
 3042TIP3    H130761   1.128   2.352   0.778  0.9887 -1.3914 -0.1698
 3042TIP3    H230762   1.051   2.222   0.779 -1.3153 -0.0958 -1.3453
 3043TIP3   OH230763   4.955   1.322   7.052 -0.2946 -0.0288  0.3290
 3043TIP3    H130764   5.015   1.315   6.978 -1.9008  0.5748 -1.0821
 3043TIP3    H230765   4.946   1.416   7.067 -0.1117 -0.1419  1.2059
 3044TIP3   OH230766   0.397   1.137   2.711 -0.1864  0.6578  0.2298
 3044TIP3    H130767   0.307   1.118   2.685 -0.1823 -1.0067  1.2878
 3044TIP3    H230768   0.407   1.093   2.795  2.3428 -1.3829 -0.9951
 3045TIP3   OH230769   1.081   1.074   1.294 -0.2567  0.4764  0.2611
 3045TIP3    H130770   1.166   1.067   1.251 -0.3334  1.7742 -0.1297
 3045TIP3    H230771   1.040   0.989   1.278  0.5746  0.1825 -0.3860
 3046TIP3   OH230772   5.122   4.806   0.558  0.4216 -0.1926 -0.1816
 3046TIP3    H130773   5.129   4.712   0.573  0.3476 -0.1046  0.4081
 3046TIP3    H230774   5.136   4.816   0.463  0.1004 -0.8261 -0.3029
 3047TIP3   OH230775   3.903   5.141   0.532 -0.1654  0.0551 -0.3241
 3047TIP3    H130776   3.824   5.099   0.498 -0.4207 -0.1296  0.4604
 3047TIP3    H230777   3.973   5.077   0.519 -0.2423  0.0260 -0.5838
 3048TIP3   OH230778   4.798   3.771   0.058  0.0622 -0.0114 -0.0380
 3048TIP3    H130779   4.844   3.693   0.088  2.6321  0.4427 -2.3118
 3048TIP3    H230780   4.863   3.841   0.065 -1.5980  1.5740  0.2864
 3049TIP3   OH230781   1.285   5.838   8.375  0.1121  0.3871  0.4262
 3049TIP3    H130782   1.364   5.890   8.390  0.7154 -0.6042  0.8157
 3049TIP3    H230783   1.247   5.827   8.462  0.1225 -0.0257  0.3789
 3050TIP3   OH230784   3.475   6.839   8.069  0.3983 -0.1190 -0.2066
 3050TIP3    H130785   3.514   6.754   8.092  0.1153  0.0709  1.0204
 3050TIP3    H230786   3.388   6.817   8.035 -0.3372 -0.2626  1.6300
 3051TIP3   OH230787   3.141   2.905   0.625  0.2672  0.0499 -1.0799
 3051TIP3    H130788   3.139   2.910   0.720  0.6447 -0.6783 -1.0248
 3051TIP3    H230789   3.233   2.889   0.604  0.0533 -0.6555 -1.5102
 3052TIP3   OH230790   4.653   0.458   0.265  0.8561  0.1499  0.0651
 3052TIP3    H130791   4.638   0.514   0.341  1.9309  1.6257 -0.7453
 3052TIP3    H230792   4.746   0.470   0.245  0.9399 -1.3800 -0.5909
 3053TIP3   OH230793   5.588   4.151   7.908  0.2376  0.2233  0.0653
 3053TIP3    H130794   5.608   4.140   7.815  1.9833 -1.7373  0.5981
 3053TIP3    H230795   5.662   4.201   7.943  0.2237 -0.1159  0.5977
 3054TIP3   OH230796   6.409   3.488   1.579 -0.2529 -0.3437 -0.2600
 3054TIP3    H130797   6.367   3.436   1.511 -1.8776 -0.3528  0.6943
 3054TIP3    H230798   6.338   3.512   1.638  0.3909  2.9943 -0.6439
 3055TIP3   OH230799   1.184   5.685   0.478  0.6822 -0.3268  0.8087
 3055TIP3    H130800   1.249   5.680   0.548  0.1502 -0.3864  1.3133
 3055TIP3    H230801   1.102   5.707   0.523  0.3551 -0.2313  0.1862
 3056TIP3   OH230802   0.174   3.930   8.078 -0.1054  0.1691  0.1060
 3056TIP3    H130803   0.147   3.845   8.044  1.8220 -0.2630 -0.4594
 3056TIP3    H230804   0.131   3.993   8.019 -0.4410 -0.4472 -0.3269
 3057TIP3   OH230805   2.142   1.256   6.714  0.1511 -0.0346 -0.2604
 3057TIP3    H130806   2.226   1.229   6.677  2.4791  0.6081  4.0007
 3057TIP3    H230807   2.137   1.350   6.696  0.8079  0.0937  0.1878
 3058TIP3   OH230808   1.481   3.790   1.002 -0.1716  0.0535 -0.1755
 3058TIP3    H130809   1.401   3.803   0.949 -0.3780  1.1062  0.3851
 3058TIP3    H230810   1.451   3.794   1.092  0.3311 -0.8530  0.0483
 3059TIP3   OH230811   6.666   1.305   2.064  0.0080 -0.6037 -0.8881
 3059TIP3    H130812   6.668   1.375   1.998 -1.4073 -0.7863 -1.1525
 3059TIP3    H230813   6.729   1.241   2.033  1.3940  0.5758 -0.6053
 3060TIP3   OH230814   0.974   6.521   0.765 -0.1045  0.3454  0.6604
 3060TIP3    H130815   1.030   6.589   0.803 -1.3084  0.3245  2.6168
 3060TIP3    H230816   0.885   6.550   0.785 -0.7387 -0.4839 -0.8533
 3061TIP3   OH230817   3.466   3.704   1.917 -0.0792 -0.2440 -1.1356
 3061TIP3    H130818   3.479   3.649   1.994 -2.7785 -1.7579 -1.6357
 3061TIP3    H230819   3.384   3.751   1.934 -0.0925  0.3229 -2.5724
 3062TIP3   OH230820   2.449   6.070   2.891 -0.3540  0.1698 -0.1493
 3062TIP3    H130821   2.530   6.040   2.932 -0.2696  1.6605  0.8738
 3062TIP3    H230822   2.476   6.142   2.835 -1.1078  1.7806  1.4494
 3063TIP3   OH230823   4.365   3.489   2.356 -0.6213  0.1586 -0.7992
 3063TIP3    H130824   4.429   3.559   2.348 -0.3302  0.1557  1.1071
 3063TIP3    H230825   4.284   3.533   2.383 -0.2446 -0.2451  1.1652
 3064TIP3   OH230826   5.622   5.634   2.967  0.0831  0.4443  0.0966
 3064TIP3    H130827   5.564   5.612   3.040  0.2895 -2.3289 -0.4852
 3064TIP3    H230828   5.567   5.628   2.889  0.6930 -0.3928 -0.2900
 3065TIP3   OH230829   3.452   4.163   8.015 -0.6103  0.2080  0.3746
 3065TIP3    H130830   3.519   4.215   7.970 -1.3698  0.8478 -0.0452
 3065TIP3    H230831   3.384   4.150   7.949 -0.9338 -0.3866  0.8148
 3066TIP3   OH230832   3.772   6.997   6.868 -0.6517  0.2729  0.3421
 3066TIP3    H130833   3.807   6.965   6.784 -1.1505 -3.0992  1.2486
 3066TIP3    H230834   3.828   7.071   6.891  1.1459 -0.3139 -1.7506
 3067TIP3   OH230835   4.299   6.392   2.578  0.5751 -0.6762  0.0371
 3067TIP3    H130836   4.244   6.436   2.643  0.4861 -0.6613 -0.0479
 3067TIP3    H230837   4.315   6.305   2.615 -0.0792 -0.9265 -0.2526
 3068TIP3   OH230838   5.917   4.083   0.690 -0.0474 -0.3064 -0.9571
 3068TIP3    H130839   5.987   4.019   0.695  0.5518  0.3903 -0.1203
 3068TIP3    H230840   5.841   4.033   0.661  0.8896 -0.9847 -2.3467
 3069TIP3   OH230841   1.390   0.823   7.145 -0.5615  0.1184 -0.1977
 3069TIP3    H130842   1.298   0.799   7.149 -0.0079 -2.3726 -0.8357
 3069TIP3    H230843   1.422   0.781   7.066  1.4757 -0.3675  0.8267
 3070TIP3   OH230844   6.457   4.947   2.261 -0.0394  0.7336 -0.1005
 3070TIP3    H130845   6.454   4.874   2.199 -0.1068 -0.4554  1.2423
 3070TIP3    H230846   6.366   4.977   2.267  0.0783  1.3139 -1.0747
 3071TIP3   OH230847   0.164   2.698   0.800 -0.0223  0.3327  0.6195
 3071TIP3    H130848   0.093   2.633   0.799 -0.6052  0.9621  0.0121
 3071TIP3    H230849   0.229   2.662   0.861  0.6711 -1.8653 -1.3089
 3072TIP3   OH230850   5.623   4.404   1.080  0.3352 -0.0887 -0.6203
 3072TIP3    H130851   5.593   4.453   1.156  0.4643 -0.3192 -0.4188
 3072TIP3    H230852   5.599   4.459   1.005 -0.5959 -0.2751 -0.4719
 3073TIP3   OH230853   6.658   1.790   7.894 -0.1553  0.8236 -0.0385
 3073TIP3    H130854   6.675   1.715   7.952 -0.3791  1.8501  1.4185
 3073TIP3    H230855   6.741   1.837   7.890 -0.3423  1.1660  0.0699
 3074TIP3   OH230856   2.467   2.437   0.629  0.2921 -0.8105  0.4971
 3074TIP3    H130857   2.548   2.420   0.581  1.2922  1.3713  1.2647
 3074TIP3    H230858   2.405   2.466   0.562  1.0114  0.1465  0.2238
 3075TIP3   OH230859   4.499   4.716   0.158 -0.3482  0.1120 -0.2555
 3075TIP3    H130860   4.405   4.701   0.154 -0.3954  0.0944  0.7546
 3075TIP3    H230861   4.535   4.635   0.195  0.0845  0.0676 -0.7473
 3076TIP3   OH230862   1.897   0.751   1.606  0.7032 -0.1428 -0.3770
 3076TIP3    H130863   1.820   0.788   1.563  0.6788  0.1163 -0.1184
 3076TIP3    H230864   1.940   0.827   1.648 -0.2823 -0.6239  1.6341
 3077TIP3   OH230865   4.320   3.205   1.396  0.1581  0.0640 -0.7355
 3077TIP3    H130866   4.313   3.143   1.323 -1.3839 -0.6457 -0.0347
 3077TIP3    H230867   4.264   3.279   1.370 -0.9904 -0.5128 -0.0093
 3078TIP3   OH230868   1.978   4.306   2.097  0.3499  0.0186  0.7393
 3078TIP3    H130869   1.920   4.297   2.021  1.6527  1.3367 -0.4863
 3078TIP3    H230870   2.013   4.217   2.111  1.6854  0.0894 -1.5935
 3079TIP3   OH230871   2.686   4.996   0.112 -0.3935  0.2983 -0.7340
 3079TIP3    H130872   2.711   4.949   0.033 -1.0376  0.2452 -0.9073
 3079TIP3    H230873   2.688   5.089   0.087 -2.3082  0.2156 -1.3318
 3080TIP3   OH230874   0.061   6.436   7.943 -0.1268 -0.1228 -0.8130
 3080TIP3    H130875   0.118   6.503   7.981 -0.0710 -1.7443  2.3221
 3080TIP3    H230876   0.111   6.354   7.952 -0.2474 -0.7593 -4.3581
 3081TIP3   OH230877   3.637   6.351   1.804  0.0567  0.8674  0.4541
 3081TIP3    H130878   3.702   6.404   1.850  1.0816 -0.0405  0.1136
 3081TIP3    H230879   3.638   6.384   1.714  1.2498 -0.1828  0.0564
 3082TIP3   OH230880   2.454   3.047   0.121 -0.0464 -0.0025  0.4693
 3082TIP3    H130881   2.533   3.068   0.171  1.4692  1.2666 -2.2690
 3082TIP3    H230882   2.404   3.129   0.120  0.6973  0.4735 -1.3001
 3083TIP3   OH230883   6.693   0.188   1.931  0.0615  0.3562  0.0576
 3083TIP3    H130884   6.706   0.282   1.919 -1.0046  0.2160 -3.1813
 3083TIP3    H230885   6.779   0.150   1.914 -0.0132  0.6406 -1.0452
 3084TIP3   OH230886   2.896   1.869   8.323 -0.1999 -0.0397 -0.0526
 3084TIP3    H130887   2.869   1.795   8.268 -0.3064 -0.2456  0.2713
 3084TIP3    H230888   2.976   1.901   8.282 -0.6137  0.2079 -0.6876
 3085TIP3   OH230889   6.852   4.541   0.813 -0.9831 -0.5690  0.3822
 3085TIP3    H130890   6.828   4.583   0.730 -0.8944 -0.3131  0.4848
 3085TIP3    H230891   6.811   4.596   0.880  0.6329  0.4240  0.6177
 3086TIP3   OH230892   3.617   4.295   1.129  0.0048 -0.2439  0.5201
 3086TIP3    H130893   3.628   4.221   1.070  1.8293 -0.0856  0.6252
 3086TIP3    H230894   3.566   4.359   1.079  0.0101 -0.8216 -0.2364
 3087TIP3   OH230895   6.818   3.514   2.240 -0.1386 -0.0299  0.4299
 3087TIP3    H130896   6.910   3.519   2.264 -0.1647  0.7337  0.3952
 3087TIP3    H230897   6.816   3.455   2.164  0.3583  0.1783  0.2520
 3088TIP3   OH230898   0.957   0.427   7.916  0.3562  0.2942 -0.4284
 3088TIP3    H130899   0.892   0.441   7.848  1.0346  1.5212 -0.8600
 3088TIP3    H230900   1.015   0.359   7.880 -0.5902 -0.7170 -0.0873
 3089TIP3   OH230901   6.958   6.136   1.240  0.1185  0.0119  0.4978
 3089TIP3    H130902   6.897   6.172   1.305  0.5035  0.7229  0.4699
 3089TIP3    H230903   7.044   6.144   1.281  0.2195 -0.8761  0.4843
 3090TIP3   OH230904   4.423   0.156   1.048  0.5179 -0.0674 -0.3740
 3090TIP3    H130905   4.449   0.195   1.131  1.3264  1.2974 -1.2304
 3090TIP3    H230906   4.330   0.179   1.039  1.3589  3.4376 -1.6918
 3091TIP3   OH230907   2.051   5.404   0.846 -0.1540  0.0880 -0.7243
 3091TIP3    H130908   2.142   5.373   0.843  0.5086  1.9278 -1.2933
 3091TIP3    H230909   2.017   5.371   0.929  0.9048 -0.9596 -0.6786
 3092TIP3   OH230910   2.289   0.956   2.263  0.0111 -0.1879 -0.1265
 3092TIP3    H130911   2.375   0.951   2.306  0.3300  0.6936 -0.6251
 3092TIP3    H230912   2.226   0.946   2.334  0.5273  1.0436  0.5445
 3093TIP3   OH230913   0.535   3.668   2.744 -0.0307  0.1579  0.1097
 3093TIP3    H130914   0.544   3.613   2.667  0.1171 -1.0906  0.9969
 3093TIP3    H230915   0.448   3.707   2.735  0.0649  0.1948 -0.7746
 3094TIP3   OH230916   1.141   6.646   2.212 -0.3458  1.1779  0.3637
 3094TIP3    H130917   1.119   6.704   2.285 -0.2417  0.2016  1.2025
 3094TIP3    H230918   1.132   6.558   2.249 -2.5003  0.5639 -1.3962
 3095TIP3   OH230919   3.480   2.450   7.324 -0.6258  0.4394 -0.2856
 3095TIP3    H130920   3.388   2.429   7.305 -0.6026 -0.9984  1.0250
 3095TIP3    H230921   3.530   2.388   7.270 -0.5400 -1.7847  2.1194
 3096TIP3   OH230922   5.591   4.621   7.875  0.1694 -0.0833 -0.0130
 3096TIP3    H130923   5.618   4.590   7.788  1.3123 -1.4534  0.7788
 3096TIP3    H230924   5.511   4.572   7.894 -1.1852  1.6051 -1.0180
 3097TIP3   OH230925   4.947   4.545   0.773  0.4810 -0.3113  0.0776
 3097TIP3    H130926   4.926   4.499   0.855 -0.2909 -0.3188 -0.1193
 3097TIP3    H230927   5.030   4.590   0.792  0.9777 -1.3408  0.4489
 3098TIP3   OH230928   3.745   1.761   1.652  0.4227 -0.7938 -0.0702
 3098TIP3    H130929   3.692   1.685   1.629 -1.7662  0.8387 -0.7413
 3098TIP3    H230930   3.753   1.811   1.570 -1.5953  1.6477  1.0820
 3099TIP3   OH230931   2.457   2.956   1.434  0.0341  0.5292 -0.1435
 3099TIP3    H130932   2.418   2.906   1.363  1.6187 -1.5550  0.3144
 3099TIP3    H230933   2.541   2.985   1.399 -0.0250  1.1864  0.2493
 3100TIP3   OH230934   3.473   5.377   1.832  0.3482 -0.7732  0.1478
 3100TIP3    H130935   3.479   5.448   1.895  0.5371  0.4438 -1.1938
 3100TIP3    H230936   3.381   5.375   1.807  0.4331 -0.6795 -0.1734
 3101TIP3   OH230937   2.485   4.209   1.522  0.3889 -0.0739 -0.0244
 3101TIP3    H130938   2.397   4.173   1.508  0.3235  0.6056 -1.5094
 3101TIP3    H230939   2.544   4.139   1.494  0.3726 -0.7472  1.4985
 3102TIP3   OH230940   5.160   2.828   6.852  0.4952  0.2708 -0.5673
 3102TIP3    H130941   5.098   2.869   6.913  1.9206 -0.1953  1.2892
 3102TIP3    H230942   5.217   2.899   6.824  2.3415 -0.1098  1.8755
 3103TIP3   OH230943   2.700   6.503   1.497  0.6937 -0.0583 -0.3640
 3103TIP3    H130944   2.753   6.535   1.424  1.7457 -1.3371 -0.2014
 3103TIP3    H230945   2.740   6.419   1.521 -0.0607 -0.0091  1.2158
 3104TIP3   OH230946   3.079   4.125   0.144  0.0727 -0.3508 -0.3261
 3104TIP3    H130947   3.166   4.164   0.156  0.5528 -1.6825  0.6935
 3104TIP3    H230948   3.021   4.180   0.197  0.2375  0.6087 -1.0920
 3105TIP3   OH230949   3.670   0.713   0.975  0.3857  0.1019  0.0702
 3105TIP3    H130950   3.632   0.789   0.932 -2.7516 -2.0645 -1.3111
 3105TIP3    H230951   3.638   0.718   1.065  2.4810  1.7291  0.8287
 3106TIP3   OH230952   3.209   4.843   6.804 -0.2093 -0.0797  0.0292
 3106TIP3    H130953   3.276   4.912   6.805  0.2204 -0.4998  0.2067
 3106TIP3    H230954   3.136   4.882   6.756  0.1783  0.3645 -0.2096
 3107TIP3   OH230955   5.617   4.375   0.729  0.0509 -0.5420  0.8974
 3107TIP3    H130956   5.596   4.462   0.696 -0.6609 -1.7202 -2.1618
 3107TIP3    H230957   5.710   4.378   0.749  0.1847  0.7540  0.1693
 3108TIP3   OH230958   4.446   1.036   8.272 -0.3053 -0.3265  0.1678
 3108TIP3    H130959   4.469   1.118   8.316 -0.4202  0.1827 -0.6988
 3108TIP3    H230960   4.494   1.039   8.189  0.0644 -1.3614  0.3212
 3109TIP3   OH230961   5.687   3.359   0.101 -0.5224  0.1172 -0.0984
 3109TIP3    H130962   5.606   3.313   0.079  0.5594 -1.7914 -0.3883
 3109TIP3    H230963   5.746   3.290   0.132  0.1462  1.8128  2.7250
 3110TIP3   OH230964   3.226   6.084   7.564 -0.5833 -0.2450 -0.2595
 3110TIP3    H130965   3.148   6.087   7.619 -2.5605 -0.7606 -2.8287
 3110TIP3    H230966   3.225   6.167   7.517  1.3224  0.3882  0.7214
 3111TIP3   OH230967   3.177   3.237   0.846 -0.7087  0.4988 -0.0233
 3111TIP3    H130968   3.262   3.197   0.866 -0.2991  1.7284  0.8908
 3111TIP3    H230969   3.189   3.278   0.761 -0.9127 -0.6875 -0.6396
 3112TIP3   OH230970   4.103   3.040   0.218  0.0217  0.3369 -0.4660
 3112TIP3    H130971   4.091   2.957   0.172 -0.0772 -0.0415  0.2322
 3112TIP3    H230972   4.082   3.107   0.153  0.2069 -0.1794 -1.0682
 3113TIP3   OH230973   3.254   6.377   2.906 -0.8030  0.3785 -0.0425
 3113TIP3    H130974   3.188   6.428   2.859 -0.2598  1.0185 -0.1302
 3113TIP3    H230975   3.215   6.290   2.917 -0.8419  0.1162 -1.9177
 3114TIP3   OH230976   6.354   2.457   8.116 -0.4692 -0.0974 -0.0962
 3114TIP3    H130977   6.424   2.521   8.104  0.7217 -1.2905  0.3411
 3114TIP3    H230978   6.319   2.478   8.203  1.4197 -1.4049  1.0412
 3115TIP3   OH230979   0.722   4.200   2.442  0.3896  0.2222  0.1187
 3115TIP3    H130980   0.641   4.155   2.469  0.9240 -2.7237 -2.5903
 3115TIP3    H230981   0.790   4.162   2.499  0.5612 -1.1359 -0.9506
 3116TIP3   OH230982   5.140   3.402   3.278  0.5035  0.0282  0.1905
 3116TIP3    H130983   5.101   3.323   3.242  0.4800 -0.3099  0.9403
 3116TIP3    H230984   5.123   3.469   3.212 -1.7599 -0.0031  0.6538
 3117TIP3   OH230985   2.887   3.638   0.881  0.2545  0.2301  0.1231
 3117TIP3    H130986   2.897   3.662   0.789  1.1715  1.1627  0.4385
 3117TIP3    H230987   2.829   3.562   0.880 -1.2863  1.3357 -1.0856
 3118TIP3   OH230988   1.786   1.429   1.133 -1.0222  0.1364  0.5639
 3118TIP3    H130989   1.755   1.428   1.043 -1.9654 -1.0561  0.8764
 3118TIP3    H230990   1.755   1.512   1.169  0.4138  1.1889 -0.5293
 3119TIP3   OH230991   1.168   6.513   8.056  0.3209 -0.2129 -0.0838
 3119TIP3    H130992   1.228   6.510   7.981  0.6976 -1.6462  0.2417
 3119TIP3    H230993   1.214   6.568   8.120  0.1319  0.7712 -0.7616
 3120TIP3   OH230994   1.595   0.698   2.290 -0.2372 -0.1934  0.2560
 3120TIP3    H130995   1.532   0.679   2.360 -0.9299  0.1227 -0.2720
 3120TIP3    H230996   1.667   0.744   2.334 -1.1183  0.8728  0.6056
 3121TIP3   OH230997   1.495   2.731   2.964  0.1451 -0.4724 -0.3668
 3121TIP3    H130998   1.451   2.700   3.043  0.0778 -1.2171 -0.6926
 3121TIP3    H230999   1.504   2.826   2.977  1.8597 -0.8071  1.4126
 3122TIP3   OH231000   5.667   0.381   8.293  0.1774  0.0285  0.1330
 3122TIP3    H131001   5.736   0.404   8.356  0.5865  0.6758 -0.5453
 3122TIP3    H231002   5.713   0.331   8.225  0.0113  0.5594 -0.3777
 3123TIP3   OH231003   2.941   5.312   7.310 -0.0534  0.0467 -0.2697
 3123TIP3    H131004   2.905   5.230   7.343 -1.7307  0.2595 -1.4446
 3123TIP3    H231005   3.036   5.302   7.320 -0.2033 -2.0519 -0.3994
 3124TIP3   OH231006   2.702   3.716   0.586  0.2127  0.1297  0.6489
 3124TIP3    H131007   2.722   3.661   0.510  0.0850 -0.9825  1.3945
 3124TIP3    H231008   2.685   3.803   0.550  2.3226  0.1559 -0.3932
 3125TIP3   OH231009   0.111   2.861   1.134 -0.3094  0.8511  0.2352
 3125TIP3    H131010   0.040   2.796   1.128  0.0695  0.4661 -0.0850
 3125TIP3    H231011   0.086   2.929   1.072  0.7925 -0.4386 -1.7152
 3126TIP3   OH231012   6.713   4.397   7.823  0.1306 -0.8191  0.8826
 3126TIP3    H131013   6.662   4.345   7.761  1.0652 -1.0839  0.3225
 3126TIP3    H231014   6.779   4.441   7.769  1.0588 -1.1836  1.7015
 3127TIP3   OH231015   5.268   6.396   2.065 -0.5883  0.0832  0.2050
 3127TIP3    H131016   5.234   6.447   2.138  0.4869  1.8395 -0.4516
 3127TIP3    H231017   5.230   6.436   1.987 -0.8733 -1.0748 -0.2721
 3128TIP3   OH231018   1.531   6.396   7.796 -0.8571  0.0439  0.6412
 3128TIP3    H131019   1.496   6.328   7.854 -1.5336  1.4991  2.0084
 3128TIP3    H231020   1.461   6.461   7.790  0.5169  1.6237  1.0521
 3129TIP3   OH231021   1.234   3.040   2.703 -0.1860 -0.0517 -0.1993
 3129TIP3    H131022   1.307   3.055   2.643  0.0056 -2.4713 -0.6770
 3129TIP3    H231023   1.267   3.065   2.789  0.6087  0.4689 -0.6457
 3130TIP3   OH231024   6.638   1.962   1.332 -0.1611 -0.5007 -0.2490
 3130TIP3    H131025   6.610   1.952   1.241 -0.1021  1.7889 -0.5843
 3130TIP3    H231026   6.685   1.882   1.352 -1.8570 -1.9125 -1.5759
 3131TIP3   OH231027   1.074   7.005   1.154  0.3611 -0.2546 -0.4206
 3131TIP3    H131028   1.019   7.082   1.142  0.5922  0.0571  0.4238
 3131TIP3    H231029   1.155   7.025   1.108 -0.3759 -0.9223 -2.1092
 3132TIP3   OH231030   0.574   3.006   7.644  0.2044 -0.3139 -0.6444
 3132TIP3    H131031   0.522   2.974   7.718 -0.0843  0.1092 -0.6589
 3132TIP3    H231032   0.517   2.996   7.568 -0.6616  1.9854 -0.3923
 3133TIP3   OH231033   1.115   4.800   3.058  0.1801  0.5745  0.4568
 3133TIP3    H131034   1.105   4.744   3.135  1.8869 -0.5107 -0.0421
 3133TIP3    H231035   1.142   4.885   3.093  0.3027  0.2745  1.1012
 3134TIP3   OH231036   0.439   6.281   0.782 -0.0531 -0.4312 -0.5277
 3134TIP3    H131037   0.404   6.351   0.837 -1.3105 -0.7703 -0.8690
 3134TIP3    H231038   0.439   6.204   0.839  2.8675  0.0905  0.3884
 3135TIP3   OH231039   3.850   3.318   2.457 -0.2124  0.0880  0.4436
 3135TIP3    H131040   3.808   3.383   2.514 -1.9700 -1.0661  0.5025
 3135TIP3    H231041   3.869   3.366   2.377  1.7625  1.5900  1.6928
 3136TIP3   OH231042   6.871   1.578   1.678 -0.7425  0.0009  0.2810
 3136TIP3    H131043   6.826   1.494   1.685 -0.4147 -0.2991 -1.0642
 3136TIP3    H231044   6.945   1.561   1.620 -1.2852  1.4679 -0.8806
 3137TIP3   OH231045   3.079   6.393   1.894  0.5811  0.0317 -0.3060
 3137TIP3    H131046   3.069   6.314   1.948  1.3326  2.1488  3.2587
 3137TIP3    H231047   3.006   6.449   1.920  1.6578  1.6023 -0.5583
 3138TIP3   OH231048   1.383   6.380   2.395  0.6259 -0.4765  0.5723
 3138TIP3    H131049   1.334   6.356   2.317  0.5756  0.6278  0.2445
 3138TIP3    H231050   1.462   6.327   2.392  2.0557  1.5572 -1.8215
 3139TIP3   OH231051   2.731   0.819   7.111  0.0021  0.3269  0.2586
 3139TIP3    H131052   2.795   0.870   7.160  1.9486 -0.6618 -1.1515
 3139TIP3    H231053   2.775   0.737   7.089 -1.4200 -0.0432 -1.5271
 3140TIP3   OH231054   6.055   3.181   1.827 -0.4895  0.0768 -0.7777
 3140TIP3    H131055   6.036   3.246   1.894  0.1035  1.8050 -2.1784
 3140TIP3    H231056   6.092   3.107   1.874 -0.1095  1.2269  0.8075
 3141TIP3   OH231057   5.318   5.910   1.384 -0.4741  0.1641 -0.3527
 3141TIP3    H131058   5.321   5.925   1.290 -0.7708 -0.8156 -0.5262
 3141TIP3    H231059   5.334   5.996   1.423 -0.2066  0.5451 -1.2935
 3142TIP3   OH231060   6.169   2.258   7.288 -0.0812  0.5644  0.4757
 3142TIP3    H131061   6.121   2.308   7.222  0.1123 -1.4676 -1.2908
 3142TIP3    H231062   6.260   2.286   7.279 -0.1242  0.6026  0.1651
 3143TIP3   OH231063   0.609   3.143   3.699  1.5987 -0.4932  0.5522
 3143TIP3    H131064   0.640   3.118   3.612 -0.6359  0.3481 -0.5827
 3143TIP3    H231065   0.689   3.158   3.750  2.9766 -1.0087 -1.3429
 3144TIP3   OH231066   3.117   1.703   0.322  0.3901 -0.6126  0.1802
 3144TIP3    H131067   3.090   1.613   0.340 -0.8232 -0.0452  1.3204
 3144TIP3    H231068   3.042   1.743   0.277  0.1923  0.3391  1.3164
 3145TIP3   OH231069   1.672   6.872   2.816 -0.0328 -0.4783 -0.5008
 3145TIP3    H131070   1.605   6.936   2.839 -1.9987 -2.7901  0.7075
 3145TIP3    H231071   1.710   6.846   2.900 -1.2932 -2.8734 -0.5898
 3146TIP3   OH231072   0.665   6.664   8.258 -0.7465 -0.1200 -0.2725
 3146TIP3    H131073   0.657   6.690   8.350  0.8821 -0.1541 -0.1085
 3146TIP3    H231074   0.728   6.726   8.220 -0.6798 -0.6997 -1.1375
 3147TIP3   OH231075   2.157   6.146   7.376 -0.2292  0.4975 -0.5132
 3147TIP3    H131076   2.063   6.131   7.379  0.0555 -1.5904 -0.8644
 3147TIP3    H231077   2.167   6.230   7.332 -1.8815  0.0953 -1.7023
 3148TIP3   OH231078   3.827   1.319   1.219  0.1367  0.2647 -0.2436
 3148TIP3    H131079   3.896   1.265   1.258  1.1953 -0.4879 -2.9706
 3148TIP3    H231080   3.802   1.273   1.139 -2.5037  1.3193 -0.1339
 3149TIP3   OH231081   2.258   1.367   7.247  0.4159 -0.1205  0.4301
 3149TIP3    H131082   2.179   1.412   7.278  0.3527 -0.4214  0.7173
 3149TIP3    H231083   2.241   1.274   7.266 -0.8698 -0.7524 -3.0856
 3150TIP3   OH231084   6.666   6.262   1.874  0.7585 -0.5580 -0.3633
 3150TIP3    H131085   6.744   6.211   1.896  1.1691  0.5670  0.8916
 3150TIP3    H231086   6.599   6.232   1.936  1.1991  0.8587  0.8507
 3151TIP3   OH231087   6.776   2.426   2.107 -0.2027  0.0936 -0.3068
 3151TIP3    H131088   6.825   2.508   2.103 -1.1793  0.8194  1.3794
 3151TIP3    H231089   6.715   2.430   2.034 -0.0295  0.7302 -0.4183
 3152TIP3   OH231090   2.942   3.348   8.006 -0.5583  0.1472 -0.7223
 3152TIP3    H131091   3.036   3.332   8.009 -0.2318  0.8378 -3.5858
 3152TIP3    H231092   2.914   3.347   8.097  1.9401 -1.5509  0.1289
 3153TIP3   OH231093   1.528   1.476   0.189 -0.1975  0.3556  0.1982
 3153TIP3    H131094   1.513   1.571   0.193 -1.5716  0.1260  1.2312
 3153TIP3    H231095   1.577   1.456   0.269 -0.9177  0.0469  0.5721
 3154TIP3   OH231096   2.818   5.453   8.299  0.3247  0.6216  0.2803
 3154TIP3    H131097   2.776   5.538   8.310 -2.3773 -0.8818  3.5532
 3154TIP3    H231098   2.767   5.410   8.229  1.3849  1.4368 -1.0347
 3155TIP3   OH231099   1.614   5.102   7.273  0.0348 -0.0548  0.1316
 3155TIP3    H131100   1.632   5.047   7.197  0.5986 -0.1103  0.2963
 3155TIP3    H231101   1.701   5.127   7.306 -0.2039  0.2028  0.5856
 3156TIP3   OH231102   0.488   4.476   2.184 -0.5020  0.3075  0.6873
 3156TIP3    H131103   0.426   4.427   2.238 -1.3099  3.4190  2.8543
 3156TIP3    H231104   0.433   4.537   2.135  0.5967  0.3456 -0.5586
 3157TIP3   OH231105   2.899   6.207   2.863  0.4795 -0.4677  0.2690
 3157TIP3    H131106   2.974   6.172   2.912  0.8034  1.5746  1.3536
 3157TIP3    H231107   2.938   6.247   2.785  0.5589  0.5842  0.8270
 3158TIP3   OH231108   4.556   6.836   1.737  0.2715  0.4834 -0.4112
 3158TIP3    H131109   4.609   6.815   1.661 -0.4560 -2.0103 -0.3204
 3158TIP3    H231110   4.494   6.903   1.706  0.6020  0.1864 -1.7378
 3159TIP3   OH231111   2.671   1.789   7.523 -0.8111  0.7022  0.0649
 3159TIP3    H131112   2.642   1.698   7.528 -1.3878  0.9245  2.6430
 3159TIP3    H231113   2.639   1.821   7.439 -2.5169 -0.8849  0.0489
 3160TIP3   OH231114   6.000   6.652   7.582 -0.0148  0.2871 -0.5926
 3160TIP3    H131115   5.949   6.730   7.602 -0.5079 -0.0408 -0.5514
 3160TIP3    H231116   6.038   6.625   7.665  0.4730  0.6991 -0.6764
 3161TIP3   OH231117   5.461   1.712   0.566  0.0676 -0.2021 -0.2386
 3161TIP3    H131118   5.542   1.661   0.571 -0.5891 -1.3853 -1.0831
 3161TIP3    H231119   5.423   1.705   0.653  0.9108  0.4666  0.2011
 3162TIP3   OH231120   1.674   3.202   2.698 -0.2260 -0.3767 -0.0930
 3162TIP3    H131121   1.616   3.256   2.644  0.0530 -0.2404 -0.2588
 3162TIP3    H231122   1.762   3.226   2.669 -0.0972 -0.8398 -0.0886
 3163TIP3   OH231123   3.926   5.433   0.468 -0.4585  0.1372  0.5281
 3163TIP3    H131124   3.918   5.341   0.494 -0.8901 -0.2940 -0.9889
 3163TIP3    H231125   3.997   5.434   0.404 -1.6163  0.5229 -0.7993
 3164TIP3   OH231126   4.478   0.233   6.716 -0.1123  0.1015  0.1847
 3164TIP3    H131127   4.447   0.165   6.776  0.0970 -1.1132 -1.0484
 3164TIP3    H231128   4.573   0.235   6.730  0.2715 -1.8251 -1.6785
 3165TIP3   OH231129   0.825   6.214   7.178 -0.3876 -0.4358 -0.0674
 3165TIP3    H131130   0.740   6.218   7.133  0.9359  0.6781 -2.7263
 3165TIP3    H231131   0.861   6.302   7.166  2.2597 -1.6038 -1.5171
 3166TIP3   OH231132   3.156   1.443   8.210 -0.3954 -0.6610 -0.0792
 3166TIP3    H131133   3.105   1.391   8.272  0.3614 -0.6539  0.5593
 3166TIP3    H231134   3.203   1.507   8.264 -1.8275  1.1707 -0.9028
 3167TIP3   OH231135   1.988   4.187   3.449 -0.2345  0.2395 -0.5803
 3167TIP3    H131136   2.078   4.156   3.452 -0.1072  0.5845 -0.7773
 3167TIP3    H231137   1.956   4.159   3.363 -1.9381 -4.3122  1.2211
 3168TIP3   OH231138   6.631   5.267   8.050  0.6836 -0.5391  0.0463
 3168TIP3    H131139   6.637   5.358   8.022 -1.3181 -0.9031 -1.7632
 3168TIP3    H231140   6.544   5.260   8.089  0.2251 -1.9786 -1.1654
 3169TIP3   OH231141   0.623   6.273   1.126 -0.7737 -0.3433 -0.3346
 3169TIP3    H131142   0.618   6.357   1.172  0.3076 -0.5968  0.2758
 3169TIP3    H231143   0.557   6.218   1.167 -0.8690 -0.0786 -0.1307
 3170TIP3   OH231144   3.673   5.647   7.094  0.1539 -0.1960  0.1667
 3170TIP3    H131145   3.724   5.566   7.093  1.0547  0.3493  0.3657
 3170TIP3    H231146   3.582   5.618   7.097  0.3653 -1.2222 -1.7232
 3171TIP3   OH231147   5.419   1.845   7.631 -0.1817 -0.3902  0.1732
 3171TIP3    H131148   5.436   1.849   7.536  0.0091 -1.0623  0.1761
 3171TIP3    H231149   5.378   1.760   7.644  1.4217 -1.0914  0.9399
 3172TIP3   OH231150   4.837   5.392   1.287 -0.4848  0.1073  0.0802
 3172TIP3    H131151   4.927   5.388   1.257 -0.7269  0.2293 -0.6669
 3172TIP3    H231152   4.844   5.413   1.380  0.2398  0.5502 -0.0696
 3173TIP3   OH231153   3.289   2.837   2.970  0.0321 -0.2045  0.5788
 3173TIP3    H131154   3.365   2.815   3.024  1.6443  3.7584  0.2421
 3173TIP3    H231155   3.238   2.897   3.024 -0.7068  0.3287 -0.6823
 3174TIP3   OH231156   6.773   1.953   0.689  0.4276  0.1901 -0.1240
 3174TIP3    H131157   6.782   1.959   0.594  1.8789 -1.2926 -0.1150
 3174TIP3    H231158   6.777   1.859   0.707 -0.0058  0.4441  1.3983
 3175TIP3   OH231159   6.509   4.705   7.687  0.5028 -0.2060 -0.0423
 3175TIP3    H131160   6.488   4.710   7.780 -1.3957 -1.5167 -0.3472
 3175TIP3    H231161   6.519   4.611   7.669  1.1563  0.0387 -1.1182
 3176TIP3   OH231162   5.645   2.482   2.534  0.5594  0.1986  0.4019
 3176TIP3    H131163   5.730   2.465   2.573  0.4925 -0.1260  0.4050
 3176TIP3    H231164   5.654   2.568   2.493  0.9068  0.1346  0.3453
 3177TIP3   OH231165   5.521   6.075   0.457 -0.3629 -0.1644 -0.3290
 3177TIP3    H131166   5.603   6.074   0.407 -0.0436  0.3671  0.1760
 3177TIP3    H231167   5.505   5.982   0.476 -0.7364 -0.4215 -1.7902
 3178TIP3   OH231168   1.761   1.875   2.297  0.4037 -0.4291  0.3277
 3178TIP3    H131169   1.711   1.897   2.375 -0.6543 -2.3650  0.2653
 3178TIP3    H231170   1.844   1.841   2.331  1.3392  1.8327  0.4589
 3179TIP3   OH231171   2.433   5.353   7.898  0.2787  0.1090  0.1958
 3179TIP3    H131172   2.344   5.382   7.920  0.0436  0.5353 -1.1970
 3179TIP3    H231173   2.432   5.342   7.803  1.5022 -0.6677  0.2428
 3180TIP3   OH231174   1.893   6.235   3.500 -0.4689  0.2998  0.1949
 3180TIP3    H131175   1.889   6.213   3.407 -0.8057 -0.4573  0.3786
 3180TIP3    H231176   1.940   6.162   3.541  2.2636  1.9655  0.2509
 3181TIP3   OH231177   6.438   4.804   0.643 -0.1006  0.5286 -0.1399
 3181TIP3    H131178   6.377   4.835   0.710 -0.4627  0.9183 -0.6468
 3181TIP3    H231179   6.383   4.783   0.568  0.4296  1.3000 -0.7543
 3182TIP3   OH231180   3.453   0.515   0.180  0.1126  0.0914  0.0092
 3182TIP3    H131181   3.413   0.432   0.156  0.4623  0.3595 -1.6365
 3182TIP3    H231182   3.453   0.515   0.276  1.8921 -2.6958  0.1331
 3183TIP3   OH231183   2.942   3.726   2.142  0.3076 -0.5257 -0.2073
 3183TIP3    H131184   2.854   3.761   2.126 -0.1264 -0.8380  1.3278
 3183TIP3    H231185   2.986   3.794   2.193  1.2143 -0.0878 -1.5167
 3184TIP3   OH231186   6.452   5.328   7.126 -0.1147 -0.2744  0.1575
 3184TIP3    H131187   6.472   5.277   7.047  0.2841  0.9402 -0.5616
 3184TIP3    H231188   6.416   5.411   7.092 -0.1601  0.1726  1.2622
 3185TIP3   OH231189   2.042   2.606   0.722 -0.9403  0.0470 -0.0794
 3185TIP3    H131190   1.956   2.622   0.684 -0.3352  2.8630 -0.5536
 3185TIP3    H231191   2.032   2.627   0.815 -0.8992 -0.1187 -0.0381
 3186TIP3   OH231192   6.330   3.540   0.545  0.1333  0.2297  0.3127
 3186TIP3    H131193   6.241   3.550   0.577 -0.5356 -1.3411 -0.9268
 3186TIP3    H231194   6.358   3.455   0.577  0.8452  0.3001 -0.0967
 3187TIP3   OH231195   4.917   3.737   7.330  0.2694  0.1088  0.5135
 3187TIP3    H131196   4.879   3.799   7.392  1.4713  2.0017 -0.5514
 3187TIP3    H231197   4.851   3.729   7.261 -0.5321 -1.0379  1.3635
 3188TIP3   OH231198   6.038   2.861   2.592  0.1867  0.6369  0.7029
 3188TIP3    H131199   6.115   2.910   2.623  0.7579 -0.5618  1.2534
 3188TIP3    H231200   6.068   2.818   2.513 -0.3412  1.2152  0.1753
 3189TIP3   OH231201   6.923   4.298   8.339 -0.3113 -0.6437  0.2021
 3189TIP3    H131202   6.970   4.381   8.326  0.1514 -1.0215 -0.6348
 3189TIP3    H231203   6.988   4.231   8.316 -1.6710 -1.1622 -2.4830
 3190TIP3   OH231204   2.931   6.281   0.869 -0.2923 -0.4048  0.2144
 3190TIP3    H131205   2.914   6.361   0.918  2.3523  0.0291  0.5405
 3190TIP3    H231206   2.864   6.220   0.899 -0.0787  0.5040  2.8058
 3191TIP3   OH231207   2.150   0.189   1.177 -0.0696  0.2834 -0.6536
 3191TIP3    H131208   2.120   0.115   1.230 -1.7400  0.9383 -0.6189
 3191TIP3    H231209   2.208   0.238   1.235 -0.0053 -0.2741 -0.2359
 3192TIP3   OH231210   4.665   5.242   7.313 -1.2353  0.5341 -0.3039
 3192TIP3    H131211   4.612   5.310   7.272 -1.4424  0.3392 -0.3646
 3192TIP3    H231212   4.711   5.201   7.240 -0.0549  1.4949 -0.1284
 3193TIP3   OH231213   5.124   3.285   1.845  0.7689  0.4296  0.2049
 3193TIP3    H131214   5.079   3.356   1.799 -0.4144 -1.2102 -1.3009
 3193TIP3    H231215   5.138   3.218   1.778  1.4239 -0.9715  1.6788
 3194TIP3   OH231216   4.805   6.860   0.559  0.3394 -0.0389  0.7699
 3194TIP3    H131217   4.712   6.870   0.581  0.6072 -0.5404  2.2003
 3194TIP3    H231218   4.844   6.819   0.636  1.2256 -2.4212 -0.8127
 3195TIP3   OH231219   5.781   2.509   1.828  0.1381 -0.2415 -0.3115
 3195TIP3    H131220   5.690   2.518   1.800  0.2291  1.5375 -0.1429
 3195TIP3    H231221   5.821   2.452   1.762 -1.3924 -2.2730  0.3909
 3196TIP3   OH231222   2.903   6.963   7.947 -0.0263 -0.4471  0.3083
 3196TIP3    H131223   2.993   6.932   7.962  0.5736 -0.4000 -2.6382
 3196TIP3    H231224   2.871   6.909   7.875 -1.3924  1.3359 -0.4698
 3197TIP3   OH231225   3.411   5.399   7.681  0.7158 -0.0505  0.0840
 3197TIP3    H131226   3.409   5.337   7.754  1.0781 -0.5978 -0.3658
 3197TIP3    H231227   3.463   5.356   7.614  0.5349  0.5257 -0.4378
 3198TIP3   OH231228   0.453   1.697   1.768  0.6575 -0.8322 -0.1382
 3198TIP3    H131229   0.370   1.651   1.755  0.2018 -0.3692  1.0368
 3198TIP3    H231230   0.508   1.668   1.695 -0.0606 -2.2240 -0.1561
 3199TIP3   OH231231   1.000   5.278   2.004  0.2334  0.7433 -0.0174
 3199TIP3    H131232   0.949   5.213   2.051  1.2383  0.8634  1.3029
 3199TIP3    H231233   1.016   5.240   1.918 -0.3567 -0.1422  0.2607
 3200TIP3   OH231234   6.971   1.539   0.725 -0.1913 -0.1909 -0.9645
 3200TIP3    H131235   6.889   1.588   0.723 -0.6439 -0.8878 -0.1574
 3200TIP3    H231236   6.961   1.472   0.657 -0.8707 -1.1369  0.0288
 3201TIP3   OH231237   0.576   3.521   1.336 -0.2693  0.3908  0.4661
 3201TIP3    H131238   0.614   3.502   1.422 -1.3952  1.1105  1.1520
 3201TIP3    H231239   0.551   3.436   1.301  0.9560  0.0097  0.4717
 3202TIP3   OH231240   1.289   1.456   2.342  0.1846 -0.4120  0.2255
 3202TIP3    H131241   1.318   1.512   2.270  0.4341  2.2040  2.2418
 3202TIP3    H231242   1.200   1.429   2.317  0.3226  0.2994 -1.1234
 3203TIP3   OH231243   5.302   1.580   2.503  0.0152  0.2811 -0.1515
 3203TIP3    H131244   5.390   1.549   2.526 -0.7217 -0.2634  2.1492
 3203TIP3    H231245   5.306   1.675   2.517  0.6600  0.5230 -1.7023
 3204TIP3   OH231246   0.939   3.706   0.809  0.1296 -0.4854  0.3377
 3204TIP3    H131247   1.001   3.704   0.881 -0.3675 -0.7810  0.7643
 3204TIP3    H231248   0.859   3.744   0.846 -0.3751 -1.3326  0.1544
 3205TIP3   OH231249   2.677   0.117   8.206 -0.5706 -0.0719 -0.0710
 3205TIP3    H131250   2.768   0.147   8.206 -0.1759 -1.1878 -1.1368
 3205TIP3    H231251   2.681   0.026   8.235 -1.2236 -0.4092 -0.9757
 3206TIP3   OH231252   2.925   1.637   7.501 -0.4413  0.2121  0.0717
 3206TIP3    H131253   2.949   1.615   7.591  0.2572 -0.7409 -0.3375
 3206TIP3    H231254   2.860   1.707   7.510  1.3768  1.8635  1.2756
 3207TIP3   OH231255   0.062   1.351   1.643 -0.4254  0.0242 -0.4562
 3207TIP3    H131256  -0.022   1.307   1.655  0.2262 -1.3529 -0.7906
 3207TIP3    H231257   0.127   1.281   1.644  1.0091  1.2455  2.0998
 3208TIP3   OH231258   0.422   0.191   0.002  0.3953 -0.4374 -0.6481
 3208TIP3    H131259   0.379   0.245   0.068  0.3677 -0.3529 -0.7348
 3208TIP3    H231260   0.357   0.125  -0.021  1.0033 -1.5624  0.6828
 3209TIP3   OH231261   4.069   1.827   1.321 -0.3599 -0.3994  0.0388
 3209TIP3    H131262   4.127   1.793   1.253  0.2190  1.8392 -0.6715
 3209TIP3    H231263   4.115   1.808   1.403  1.6094  1.5265 -0.5085
 3210TIP3   OH231264   4.567   3.933   8.382  0.3121  0.1893  0.2335
 3210TIP3    H131265   4.627   3.877   8.432 -0.0539  0.0574  0.5248
 3210TIP3    H231266   4.621   4.009   8.358  0.2873  0.6380  1.5098
 3211TIP3   OH231267   3.312   1.921   1.310 -0.1658  0.3361  0.0073
 3211TIP3    H131268   3.257   1.930   1.388 -2.1173 -0.2288 -1.2365
 3211TIP3    H231269   3.314   1.827   1.292  2.3846  0.1644  0.7539
 3212TIP3   OH231270   2.809   0.236   3.127  0.5414  0.0023  0.1319
 3212TIP3    H131271   2.905   0.235   3.131  0.5980 -0.1809 -0.9036
 3212TIP3    H231272   2.786   0.149   3.094  0.0942  0.4204 -0.6817
 3213TIP3   OH231273   4.060   2.182   0.915  0.6604 -0.3959 -0.4199
 3213TIP3    H131274   4.032   2.130   0.839  1.2693 -0.4810 -0.6000
 3213TIP3    H231275   4.000   2.256   0.917 -0.1320 -1.0311 -0.2491
 3214TIP3   OH231276   6.100   1.771   1.304 -0.0024  0.2171 -0.7062
 3214TIP3    H131277   6.102   1.834   1.376 -0.3536 -0.9949  0.4061
 3214TIP3    H231278   6.170   1.708   1.325  1.1915  0.8879 -2.4491
 3215TIP3   OH231279   1.290   2.021   0.554 -0.9150  0.1198  0.0653
 3215TIP3    H131280   1.292   2.116   0.539  1.7528 -0.0945 -1.7508
 3215TIP3    H231281   1.320   2.010   0.644 -2.9528  1.0032  0.9057
 3216TIP3   OH231282   1.587   3.482   1.959 -0.1132  0.1324  0.3759
 3216TIP3    H131283   1.566   3.572   1.986  0.1685  0.2886  0.0740
 3216TIP3    H231284   1.505   3.448   1.924  0.0808  0.7032 -0.6834
 3217TIP3   OH231285   4.099   0.898   2.242 -0.5933 -0.2779  0.1094
 3217TIP3    H131286   4.142   0.983   2.231 -2.6205  0.8662  0.6196
 3217TIP3    H231287   4.107   0.880   2.335  0.7437 -1.2019 -0.1531
 3218TIP3   OH231288   2.788   5.556   0.593  0.1965  0.3489 -0.2633
 3218TIP3    H131289   2.842   5.532   0.518 -0.6152 -0.6029 -0.5593
 3218TIP3    H231290   2.800   5.484   0.656  0.3809  0.8302  0.2620
 3219TIP3   OH231291   4.998   3.985   7.765  0.3378  0.5941 -0.2748
 3219TIP3    H131292   4.936   3.960   7.697 -1.5569  1.5038  1.0223
 3219TIP3    H231293   5.038   3.902   7.792 -0.8172 -0.1260 -0.7040
 3220TIP3   OH231294   5.677   6.129   2.167  0.1508  0.2898 -0.7917
 3220TIP3    H131295   5.619   6.205   2.164  2.5902  2.3631  0.3896
 3220TIP3    H231296   5.761   6.164   2.196  0.8346 -3.2015  2.3329
 3221TIP3   OH231297   1.099   0.634   7.006  0.3111 -0.0932 -0.0508
 3221TIP3    H131298   1.119   0.694   7.078  0.5270  0.0469 -0.2250
 3221TIP3    H231299   1.103   0.689   6.928 -0.1999 -0.1867 -0.1453
 3222TIP3   OH231300   6.785   5.829   1.031  0.1749  0.9743  0.3216
 3222TIP3    H131301   6.878   5.850   1.024  0.5035 -0.5720 -0.6258
 3222TIP3    H231302   6.775   5.797   1.121  0.5929  1.0674  0.4069
 3223TIP3   OH231303   3.821   5.525   2.350  0.6442 -0.4789  0.9989
 3223TIP3    H131304   3.899   5.581   2.347 -0.8711  1.7301  0.6594
 3223TIP3    H231305   3.810   5.497   2.259 -0.0590  0.8963  0.6249
 3224TIP3   OH231306   0.922   5.869   6.928  0.0008 -0.3394 -0.5513
 3224TIP3    H131307   0.918   5.809   6.853  0.5746 -0.9312 -0.1166
 3224TIP3    H231308   0.924   5.956   6.889 -0.0778 -0.6298 -1.2129
 3225TIP3   OH231309   1.431   4.467   0.944  0.2921  0.7513 -0.8166
 3225TIP3    H131310   1.429   4.544   1.001 -1.3176  0.1578  0.0072
 3225TIP3    H231311   1.367   4.408   0.983  1.2288 -0.8614 -1.6494
 3226TIP3   OH231312   5.362   4.723   2.499  0.0545 -0.4810  0.2972
 3226TIP3    H131313   5.445   4.733   2.453  1.7690 -1.2916  2.9966
 3226TIP3    H231314   5.372   4.643   2.551 -1.8251  0.1745  1.8260
 3227TIP3   OH231315   0.478   1.608   0.679 -0.7736 -0.4984  0.9958
 3227TIP3    H131316   0.451   1.581   0.767 -1.3079 -0.0542  0.9741
 3227TIP3    H231317   0.571   1.585   0.675 -0.7387 -0.5124  1.6870
 3228TIP3   OH231318   5.714   4.604   8.265 -0.5047 -0.1601  0.2081
 3228TIP3    H131319   5.618   4.607   8.267 -0.9250 -2.8774 -4.0834
 3228TIP3    H231320   5.739   4.665   8.195  0.8494 -0.3250  0.5135
 3229TIP3   OH231321   4.077   5.319   1.138  0.0698 -0.0026  0.0540
 3229TIP3    H131322   4.094   5.346   1.229  1.8345  1.0892 -0.5384
 3229TIP3    H231323   4.130   5.378   1.086  0.0970 -1.4411 -1.6404
 3230TIP3   OH231324   0.966   4.307   1.150  0.0227 -0.0883  0.3391
 3230TIP3    H131325   0.987   4.217   1.176 -0.8891  0.0647  1.7123
 3230TIP3    H231326   0.967   4.357   1.231 -0.7062  0.8936 -0.2240
 3231TIP3   OH231327   2.599   4.434   7.173  0.3366 -0.2240 -0.5430
 3231TIP3    H131328   2.645   4.374   7.231 -1.0839  0.3228  1.2260
 3231TIP3    H231329   2.655   4.512   7.170  0.7875 -0.5421 -0.5406
 3232TIP3   OH231330   6.097   3.594   7.876  0.3605 -0.1257 -0.0668
 3232TIP3    H131331   6.190   3.619   7.875  0.5423 -0.6693  0.9653
 3232TIP3    H231332   6.097   3.506   7.915 -0.5118 -0.5087 -0.9014
 3233TIP3   OH231333   5.598   1.669   2.793  0.2178  0.5513  0.3587
 3233TIP3    H131334   5.506   1.651   2.813  0.1443  2.0571  1.5990
 3233TIP3    H231335   5.647   1.601   2.838 -0.2396  0.5428  0.8434
 3234TIP3   OH231336   1.622   0.272   0.728  0.2926 -0.4971  0.2368
 3234TIP3    H131337   1.643   0.192   0.777 -2.2470 -1.2115  0.3232
 3234TIP3    H231338   1.566   0.241   0.656 -2.7360  1.3407  1.5926
 3235TIP3   OH231339   6.457   1.888   0.459 -0.4907 -0.3975  0.2021
 3235TIP3    H131340   6.419   1.897   0.546  1.0681  1.3984  0.7664
 3235TIP3    H231341   6.383   1.895   0.399 -1.3131  0.9230  1.3215
 3236TIP3   OH231342   0.125   6.430   0.410 -0.3902  0.0598  0.1248
 3236TIP3    H131343   0.117   6.387   0.496 -0.6002  3.5887  2.0674
 3236TIP3    H231344   0.034   6.442   0.381 -0.3692 -4.0200 -2.4348
 3237TIP3   OH231345   0.541   3.395   7.118  0.1545 -0.3878 -0.1696
 3237TIP3    H131346   0.495   3.462   7.168 -1.0858  0.5817 -2.4542
 3237TIP3    H231347   0.612   3.366   7.176 -1.9267 -0.3280  2.6282
 3238TIP3   OH231348   3.187   4.837   0.939  0.0522  0.2186 -0.0557
 3238TIP3    H131349   3.114   4.790   0.900 -0.3215  1.3388 -0.7497
 3238TIP3    H231350   3.255   4.837   0.871  0.9180 -1.2360  0.7549
 3239TIP3   OH231351   2.657   0.685   7.662 -0.1888  0.0487 -0.5385
 3239TIP3    H131352   2.728   0.697   7.599 -1.5114  0.5423 -2.0321
 3239TIP3    H231353   2.674   0.600   7.702  2.7337  1.3256  1.2532
 3240TIP3   OH231354   1.265   1.733   0.756  0.7094  0.3041 -0.1458
 3240TIP3    H131355   1.289   1.801   0.819 -0.5885  1.2957 -0.6819
 3240TIP3    H231356   1.189   1.768   0.710  1.4625 -0.4801 -2.1164
 3241TIP3   OH231357   0.677   1.020   8.006  0.0632  0.2728 -0.2600
 3241TIP3    H131358   0.663   1.113   7.990  1.5138  0.2475 -1.9297
 3241TIP3    H231359   0.611   0.976   7.951  0.3911  0.2993 -0.6781
 3242TIP3   OH231360   2.794   4.691   8.152 -0.4592  0.4151  0.4699
 3242TIP3    H131361   2.777   4.617   8.094 -0.8300  0.6937  0.2118
 3242TIP3    H231362   2.772   4.768   8.099  1.3247  0.8045  0.2201
 3243TIP3   OH231363   0.217   5.333   0.046 -0.6677 -0.4029 -0.1227
 3243TIP3    H131364   0.192   5.310   0.135 -1.2224  3.0839  0.7797
 3243TIP3    H231365   0.291   5.393   0.058 -1.2277  0.7064 -1.9306
 3244TIP3   OH231366   6.109   6.871   2.672 -0.2274 -0.6117  0.1279
 3244TIP3    H131367   6.121   6.779   2.695 -0.3712 -0.5486  0.4547
 3244TIP3    H231368   6.197   6.908   2.670 -0.0513 -1.0275 -1.1550
 3245TIP3   OH231369   3.703   3.413   0.444  0.5592 -0.1921  0.3245
 3245TIP3    H131370   3.791   3.450   0.449  0.3506  0.1691  2.2032
 3245TIP3    H231371   3.671   3.416   0.535 -1.3933 -0.2899 -0.3206
 3246TIP3   OH231372   1.857   6.321   1.435  0.0619 -0.2317 -0.7139
 3246TIP3    H131373   1.861   6.289   1.525 -0.5750 -2.3433 -1.3728
 3246TIP3    H231374   1.851   6.416   1.443 -2.3391 -0.4709  1.5678
 3247TIP3   OH231375   2.677   0.864   1.379  0.3864 -0.1707  0.7511
 3247TIP3    H131376   2.742   0.935   1.377  0.9489 -0.6033  2.2082
 3247TIP3    H231377   2.679   0.833   1.469  0.1227 -2.0249  0.1515
 3248TIP3   OH231378   6.885   0.533   7.655  0.5245  0.0180  0.1974
 3248TIP3    H131379   6.929   0.525   7.740  2.3318  0.7258 -0.6199
 3248TIP3    H231380   6.867   0.442   7.629  0.4025 -0.2258  1.0986
 3249TIP3   OH231381   3.023   3.190   7.417 -0.2233 -0.1408  0.1561
 3249TIP3    H131382   3.060   3.262   7.366 -0.3656 -0.4954 -0.4635
 3249TIP3    H231383   3.085   3.177   7.489  1.1238 -0.9946 -1.0832
 3250TIP3   OH231384   3.391   5.706   2.546  0.0512 -0.0638  0.9031
 3250TIP3    H131385   3.484   5.687   2.533 -0.1411 -1.2796  1.1450
 3250TIP3    H231386   3.346   5.630   2.509 -0.8940  0.9096 -0.0157
 3251TIP3   OH231387   4.952   4.061   7.014 -0.4719  0.7363  0.3885
 3251TIP3    H131388   4.956   3.966   7.016  1.3768  0.7861  2.9123
 3251TIP3    H231389   5.006   4.086   6.939 -0.5758 -0.1477  0.0033
 3252TIP3   OH231390   2.030   2.609   2.868  0.3555  0.0304  0.5423
 3252TIP3    H131391   2.015   2.559   2.788 -0.8053  0.2116  0.6185
 3252TIP3    H231392   1.980   2.562   2.935 -0.8547  1.3083  0.5914
 3253TIP3   OH231393   0.221   4.646   2.809  0.3127 -0.7469 -0.6493
 3253TIP3    H131394   0.197   4.730   2.850  3.7093  0.8065 -1.4976
 3253TIP3    H231395   0.139   4.614   2.772 -1.0549  2.5650 -0.8768
 3254TIP3   OH231396   3.647   1.881   7.865  0.1899  0.5251 -0.2914
 3254TIP3    H131397   3.583   1.817   7.834 -0.0705  0.7372 -0.1914
 3254TIP3    H231398   3.715   1.828   7.907 -0.6561  0.3806  0.9583
 3255TIP3   OH231399   0.552   2.493   2.090 -0.2744  0.0519  0.2871
 3255TIP3    H131400   0.466   2.525   2.118  0.5569  2.4847  0.2782
 3255TIP3    H231401   0.596   2.469   2.171 -0.2299  0.8260  0.5033
 3256TIP3   OH231402   3.666   4.886   2.471 -0.6301  0.8668  0.6040
 3256TIP3    H131403   3.705   4.812   2.518  0.5373  0.9058 -0.2547
 3256TIP3    H231404   3.573   4.866   2.469 -0.1709 -1.4880 -1.0755
 3257TIP3   OH231405   4.988   4.812   1.306  0.3275 -0.5980  0.0677
 3257TIP3    H131406   4.960   4.901   1.326  0.7170 -0.2741 -0.7596
 3257TIP3    H231407   5.083   4.817   1.303  0.3216 -0.8260 -0.8947
 3258TIP3   OH231408   0.742   6.625   2.422 -0.0340  0.0462  0.3394
 3258TIP3    H131409   0.763   6.666   2.338  0.6196  1.4178  1.1275
 3258TIP3    H231410   0.818   6.645   2.477 -0.8414 -0.0478  1.5073
 3259TIP3   OH231411   5.912   1.108   0.967 -0.5266  0.0027 -0.1346
 3259TIP3    H131412   5.975   1.036   0.963 -1.1978 -0.6197  0.3236
 3259TIP3    H231413   5.827   1.066   0.963 -0.9379  0.7612  0.3508
 3260TIP3   OH231414   6.105   2.476   2.126 -0.3194  0.3917 -0.1051
 3260TIP3    H131415   6.015   2.506   2.141 -0.0537  1.3038 -0.2905
 3260TIP3    H231416   6.152   2.501   2.206 -0.2309 -0.0889 -0.0056
 3261TIP3   OH231417   1.299   2.359   1.005  0.4518 -0.2694  0.4299
 3261TIP3    H131418   1.391   2.386   1.003  0.0695  1.3111  1.6828
 3261TIP3    H231419   1.302   2.265   1.024  1.8013 -0.0204  1.6102
 3262TIP3   OH231420   2.581   5.401   2.094  0.0341  0.0352 -0.2967
 3262TIP3    H131421   2.533   5.435   2.170  1.2403 -0.2021  0.6091
 3262TIP3    H231422   2.517   5.347   2.048 -0.8527  0.5444  0.2874
 3263TIP3   OH231423   6.169   5.212   0.100  0.2567  0.2156  0.3504
 3263TIP3    H131424   6.096   5.166   0.059 -0.0815 -0.7173  1.9160
 3263TIP3    H231425   6.134   5.298   0.123  0.5342  0.8713 -1.4744
 3264TIP3   OH231426   2.350   0.431   6.975  0.0940  0.7342  0.0420
 3264TIP3    H131427   2.402   0.351   6.976 -0.7429  0.1691  0.8378
 3264TIP3    H231428   2.413   0.502   6.968  0.7993 -0.0194 -2.1661
 3265TIP3   OH231429   3.441   5.363   0.282 -0.0205  0.0263  0.2461
 3265TIP3    H131430   3.430   5.340   0.374 -2.0175 -1.8574 -0.3612
 3265TIP3    H231431   3.536   5.374   0.270  0.3194 -0.2847  2.3551
 3266TIP3   OH231432   4.778   2.499   2.530 -0.6909 -0.2484  0.1622
 3266TIP3    H131433   4.859   2.548   2.549  0.4772 -2.3235  0.8177
 3266TIP3    H231434   4.776   2.429   2.596 -4.0777  0.8381  1.4236
 3267TIP3   OH231435   3.023   6.442   2.243 -0.2270 -0.1164 -0.3288
 3267TIP3    H131436   3.008   6.466   2.151 -0.3959 -0.0048 -0.2731
 3267TIP3    H231437   3.108   6.481   2.265 -0.8143  1.0430 -0.0353
 3268TIP3   OH231438   2.061   2.426   0.338 -0.1268  0.1661  0.1058
 3268TIP3    H131439   2.128   2.360   0.318 -0.9858 -1.0506  1.0822
 3268TIP3    H231440   2.068   2.489   0.267  3.3343  1.1664  1.1221
 3269TIP3   OH231441   6.052   1.998   0.551 -0.4061 -0.5372 -0.1407
 3269TIP3    H131442   6.033   1.999   0.457 -1.3964 -1.4176  0.0211
 3269TIP3    H231443   5.987   1.937   0.588 -0.3604  0.1676  1.1815
 3270TIP3   OH231444   2.052   6.470   8.068  0.4171  0.1215 -0.3227
 3270TIP3    H131445   2.095   6.464   7.982 -1.2020 -0.4066 -1.1273
 3270TIP3    H231446   1.959   6.461   8.049  0.0433 -0.2940  1.5364
 3271TIP3   OH231447   0.294   1.723   1.370  0.3968  0.0594  0.9631
 3271TIP3    H131448   0.250   1.801   1.403  1.4463  1.1454 -0.1014
 3271TIP3    H231449   0.279   1.726   1.275  1.0508 -0.6366  0.8251
 3272TIP3   OH231450   6.225   3.549   6.821  0.2502  0.2713  0.3206
 3272TIP3    H131451   6.207   3.640   6.844  1.4540  1.0683 -1.6752
 3272TIP3    H231452   6.157   3.526   6.758  0.3194  0.0116  0.3401
 3273TIP3   OH231453   5.864   3.174   0.193  0.3749  0.2587 -0.5859
 3273TIP3    H131454   5.859   3.103   0.256  1.9043 -1.3504 -2.1574
 3273TIP3    H231455   5.955   3.175   0.164  0.3470  2.6985 -0.8649
 3274TIP3   OH231456   3.058   4.030   8.038  0.0185 -0.3024 -0.3138
 3274TIP3    H131457   3.108   4.058   7.961 -0.6426  0.0088 -0.6474
 3274TIP3    H231458   3.091   4.084   8.109 -1.8595  2.1370 -1.1228
 3275TIP3   OH231459   1.704   0.184   1.779  0.0196  0.3094  0.0415
 3275TIP3    H131460   1.654   0.144   1.708 -0.5413  1.3796 -0.1889
 3275TIP3    H231461   1.788   0.208   1.740 -0.1346  0.5310 -0.1517
 3276TIP3   OH231462   3.098   5.023   0.768 -0.1645 -0.2348  0.2789
 3276TIP3    H131463   3.016   5.053   0.808  0.3212  0.6601  0.6083
 3276TIP3    H231464   3.144   4.978   0.840 -0.8641 -1.8060 -0.1944
 3277TIP3   OH231465   2.073   5.243   0.417 -0.0029 -0.0345  0.8614
 3277TIP3    H131466   2.106   5.317   0.468  2.9984  0.4430 -1.4753
 3277TIP3    H231467   2.051   5.281   0.332  0.2175 -1.5921  0.0777
 3278TIP3   OH231468   2.063   5.233   1.763  0.1319  0.0020  0.0265
 3278TIP3    H131469   2.028   5.258   1.848 -1.0081 -1.1819 -0.0581
 3278TIP3    H231470   2.027   5.298   1.702  1.0992  0.9606  0.4419
 3279TIP3   OH231471   0.154   2.731   7.948 -0.1357  0.2188  0.3730
 3279TIP3    H131472   0.069   2.697   7.920 -0.7664  1.9877 -0.0403
 3279TIP3    H231473   0.134   2.818   7.983  1.4765  0.5583  0.5202
 3280TIP3   OH231474   1.963   5.475   7.270  0.2991 -0.4731 -0.1101
 3280TIP3    H131475   1.905   5.546   7.243 -0.9682 -0.9095  1.3251
 3280TIP3    H231476   2.039   5.519   7.308 -0.6501  0.1619  1.1290
 3281TIP3   OH231477   1.442   0.270   2.522 -0.6354 -0.2803  0.6339
 3281TIP3    H131478   1.347   0.268   2.528 -0.6464  0.4232  0.8683
 3281TIP3    H231479   1.466   0.352   2.565  0.0597 -0.3440  0.3751
 3282TIP3   OH231480   6.573   0.721   1.626 -0.2831  0.0527 -0.3046
 3282TIP3    H131481   6.529   0.668   1.693  0.5376  0.1593  0.3243
 3282TIP3    H231482   6.619   0.657   1.572 -1.8344 -0.1447 -1.4846
 3283TIP3   OH231483   3.759   0.315   2.383  0.5431  0.7441  0.1157
 3283TIP3    H131484   3.804   0.232   2.372  1.1362  1.0274  0.3599
 3283TIP3    H231485   3.788   0.347   2.469 -0.0704  0.9640  0.2450
 3284TIP3   OH231486   3.913   5.499   1.399  0.5651 -0.2403  0.7563
 3284TIP3    H131487   3.917   5.556   1.322 -1.2862  1.5237  1.8712
 3284TIP3    H231488   3.830   5.453   1.390  0.3821 -0.0897  1.6490
 3285TIP3   OH231489   0.982   6.544   1.598  0.7718 -0.2437 -0.0408
 3285TIP3    H131490   0.991   6.549   1.693  0.8298 -1.7846  0.0573
 3285TIP3    H231491   1.005   6.454   1.576  0.5847  0.0353 -1.5034
 3286TIP3   OH231492   5.025   1.898   7.081 -0.1747 -0.3249  0.2384
 3286TIP3    H131493   5.051   1.990   7.085  1.6068 -0.8320  2.0306
 3286TIP3    H231494   4.950   1.892   7.141 -1.1584  0.1727 -0.9089
 3287TIP3   OH231495   0.385   6.896   7.744 -0.3909  0.2394  0.4233
 3287TIP3    H131496   0.470   6.862   7.716 -1.3768 -1.3001 -0.9482
 3287TIP3    H231497   0.340   6.820   7.782 -1.5514  0.7337  0.0960
 3288TIP3   OH231498   4.567   1.552   8.315  0.1800 -0.5078  0.2793
 3288TIP3    H131499   4.527   1.602   8.387  1.5609  0.4260  0.4411
 3288TIP3    H231500   4.523   1.584   8.237  0.1618  0.0507  0.5113
 3289TIP3   OH231501   6.865   1.430   7.718 -0.2548 -0.6053 -0.3938
 3289TIP3    H131502   6.912   1.508   7.688  2.4346 -1.8773  0.2232
 3289TIP3    H231503   6.814   1.403   7.641  0.8232  0.2835 -1.4693
 3290TIP3   OH231504   5.760   5.334   1.914 -0.0188 -0.0599  0.0855
 3290TIP3    H131505   5.704   5.271   1.868  1.4542 -0.1854 -1.6978
 3290TIP3    H231506   5.750   5.415   1.865  2.2565 -0.4238 -1.1595
 3291TIP3   OH231507   5.529   4.980   8.080  0.2784 -0.1350 -0.2203
 3291TIP3    H131508   5.437   4.960   8.059  0.1237  0.3623 -0.0131
 3291TIP3    H231509   5.529   4.999   8.174  0.3453  1.2999 -0.4993
 3292TIP3   OH231510   5.579   3.679   2.690  0.1198 -0.6132 -0.0170
 3292TIP3    H131511   5.583   3.740   2.764  2.0163 -0.8951  0.1581
 3292TIP3    H231512   5.491   3.691   2.654  0.1309  1.5882  0.5483
 3293TIP3   OH231513   6.186   0.691   0.463 -0.4004 -0.5760 -0.2543
 3293TIP3    H131514   6.242   0.712   0.538 -1.4501 -0.8929  0.6587
 3293TIP3    H231515   6.247   0.668   0.393  0.7409  2.6365 -0.4851
 3294TIP3   OH231516   0.158   0.971   7.946 -0.1884 -0.1066 -0.0587
 3294TIP3    H131517   0.136   0.914   7.872 -0.6420  1.1399 -0.9046
 3294TIP3    H231518   0.086   0.958   8.008  0.2905 -1.3037  0.2865
 3295TIP3   OH231519   3.111   2.742   8.242 -0.3841  0.5670 -0.1034
 3295TIP3    H131520   3.108   2.813   8.306  0.3812  0.6169 -0.1093
 3295TIP3    H231521   3.188   2.691   8.268 -0.6706  0.0015 -0.3696
 3296TIP3   OH231522   5.586   6.710   7.643  0.1897  0.5053 -0.1274
 3296TIP3    H131523   5.629   6.717   7.558  0.7575 -1.1005 -0.0025
 3296TIP3    H231524   5.512   6.653   7.628  2.9205 -3.8822  1.2632
 3297TIP3   OH231525   4.065   1.483   2.226 -0.1537  0.5794  0.1285
 3297TIP3    H131526   4.118   1.538   2.284  0.1497  1.4866 -0.9712
 3297TIP3    H231527   3.974   1.509   2.245 -0.1359  0.0601  0.9813
 3298TIP3   OH231528   0.376   0.184   0.931 -0.2258 -0.3744 -0.1780
 3298TIP3    H131529   0.395   0.091   0.924 -0.5482 -0.4989  0.4994
 3298TIP3    H231530   0.427   0.213   1.007 -0.0918  0.0102 -0.4118
 3299TIP3   OH231531   5.512   5.261   1.531 -0.5001  0.2318 -0.1932
 3299TIP3    H131532   5.530   5.172   1.562  0.8206  0.3004 -0.6603
 3299TIP3    H231533   5.433   5.288   1.577 -0.6631 -1.0235  0.2912
 3300TIP3   OH231534   3.427   6.337   7.914  0.0873  0.0743  0.2290
 3300TIP3    H131535   3.462   6.350   7.826 -1.4750 -1.0061 -0.5835
 3300TIP3    H231536   3.334   6.318   7.901 -0.3343  0.5667  2.1636
 3301TIP3   OH231537   1.812   6.752   2.284 -0.3792 -0.1669 -0.4417
 3301TIP3    H131538   1.870   6.802   2.341 -0.8534  0.0959 -0.1867
 3301TIP3    H231539   1.739   6.811   2.266 -1.0296 -0.8284  0.0089
 3302TIP3   OH231540   6.030   4.193   0.461 -0.4966  0.2024  0.2069
 3302TIP3    H131541   5.960   4.184   0.396 -2.6296  1.5101  2.1783
 3302TIP3    H231542   5.985   4.191   0.545  1.7517  1.7439  1.5577
 3303TIP3   OH231543   5.505   6.123   0.065  0.1834  0.0533  0.2681
 3303TIP3    H131544   5.438   6.099   0.001  0.7102 -0.5111 -0.0754
 3303TIP3    H231545   5.456   6.170   0.134 -0.5567 -0.3162  0.0094
 3304TIP3   OH231546   2.558   5.054   1.357 -0.4374 -0.7308  0.0353
 3304TIP3    H131547   2.462   5.048   1.356 -0.4306 -0.9437 -0.9555
 3304TIP3    H231548   2.577   5.144   1.383 -0.9509 -0.2449 -1.2041
 3305TIP3   OH231549   0.426   3.957   0.386  0.2415  0.4282 -0.0433
 3305TIP3    H131550   0.409   4.051   0.374 -0.8865  0.4062  1.1147
 3305TIP3    H231551   0.437   3.923   0.298 -1.2836  1.3358 -0.6257
 3306TIP3   OH231552   5.331   5.850   1.758 -0.6244  0.1217  0.5661
 3306TIP3    H131553   5.245   5.884   1.734 -0.3312  0.5727  0.1314
 3306TIP3    H231554   5.364   5.911   1.823 -0.9948 -0.5422  1.3914
 3307TIP3   OH231555   2.232   3.726   2.703  0.0389 -0.3428 -0.2254
 3307TIP3    H131556   2.301   3.736   2.769 -0.5086 -1.6537  0.5937
 3307TIP3    H231557   2.194   3.640   2.722 -1.2758  0.0077 -1.1750
 3308TIP3   OH231558   0.630   4.497   1.891 -0.1386 -0.1911  0.5731
 3308TIP3    H131559   0.557   4.486   1.830 -0.3633  3.3656 -0.0037
 3308TIP3    H231560   0.608   4.439   1.964 -4.2105  1.4845  0.9539
 3309TIP3   OH231561   3.813   5.724   0.898 -0.0579 -0.3112 -0.4794
 3309TIP3    H131562   3.745   5.792   0.902  0.5302  0.4109 -1.9122
 3309TIP3    H231563   3.878   5.759   0.837  0.9384 -1.5867 -0.1932
 3310TIP3   OH231564   3.914   4.916   0.134  0.4535  0.3877 -0.5947
 3310TIP3    H131565   3.991   4.964   0.163 -0.8743  1.6976  1.0036
 3310TIP3    H231566   3.851   4.984   0.109 -0.6753 -0.5902 -0.5061
 3311TIP3   OH231567   6.486   1.298   2.272 -0.0261  0.1420 -0.2556
 3311TIP3    H131568   6.481   1.392   2.291  1.1706 -0.0160  1.0077
 3311TIP3    H231569   6.558   1.291   2.209 -0.1577  0.0849 -0.3977
 3312TIP3   OH231570   3.202   1.058   6.623  0.2383 -0.6671  0.5100
 3312TIP3    H131571   3.165   1.144   6.604  0.0898 -0.3485  2.0783
 3312TIP3    H231572   3.291   1.075   6.653 -0.0710 -0.9511  1.6585
 3313TIP3   OH231573   1.176   4.325   1.528 -0.2016  0.3067 -0.1732
 3313TIP3    H131574   1.151   4.302   1.618  3.3258 -0.9061  0.6571
 3313TIP3    H231575   1.246   4.390   1.539 -0.3119  0.8136 -2.1149
 3314TIP3   OH231576   4.535   1.776   7.335 -0.4747  0.4748  0.3200
 3314TIP3    H131577   4.514   1.738   7.420 -1.5588  0.6425  0.1422
 3314TIP3    H231578   4.457   1.826   7.311 -0.5452 -0.2975 -1.1791
 3315TIP3   OH231579   0.888   0.886   2.874  0.7661  0.9394 -0.3150
 3315TIP3    H131580   0.809   0.838   2.849  0.3816  1.6559 -0.4970
 3315TIP3    H231581   0.944   0.881   2.797  2.0674 -1.8186  0.6411
 3316TIP3   OH231582   1.350   4.259   3.625  0.1238  0.0944  0.4837
 3316TIP3    H131583   1.277   4.307   3.664  0.0111  0.5101 -0.2163
 3316TIP3    H231584   1.345   4.280   3.532 -0.2026 -1.6251  0.0658
 3317TIP3   OH231585   5.783   3.453   1.290  0.2218 -0.4837 -0.0936
 3317TIP3    H131586   5.825   3.521   1.236  3.1059 -0.0205  2.4651
 3317TIP3    H231587   5.815   3.370   1.253  1.4842 -0.2011  0.3221
 3318TIP3   OH231588   0.497   6.112   7.486 -0.0795  0.4837  0.0154
 3318TIP3    H131589   0.491   6.096   7.392 -0.4325 -0.6415  0.2082
 3318TIP3    H231590   0.578   6.161   7.497 -0.4267  1.3194 -0.9473
 3319TIP3   OH231591   4.317   6.115   2.179 -0.4970 -0.0504 -0.1924
 3319TIP3    H131592   4.381   6.131   2.248  0.4025  1.7490 -1.3704
 3319TIP3    H231593   4.245   6.174   2.199 -0.8872 -0.5853 -0.0006
 3320TIP3   OH231594   1.570   3.149   2.248  0.4275 -0.0317 -0.1534
 3320TIP3    H131595   1.604   3.060   2.252  0.4502 -0.1303 -1.8476
 3320TIP3    H231596   1.607   3.186   2.168 -0.6600  1.0458 -0.1956
 3321TIP3   OH231597   2.657   5.711   1.214  0.5484 -0.1792 -0.6174
 3321TIP3    H131598   2.729   5.775   1.211  1.2114 -0.7037  1.6954
 3321TIP3    H231599   2.618   5.724   1.301 -1.2022 -0.9560 -1.2380
 3322TIP3   OH231600   3.355   5.076   0.468 -0.3902 -0.2818  0.4606
 3322TIP3    H131601   3.369   5.008   0.401 -0.7935 -0.8056  0.8951
 3322TIP3    H231602   3.328   5.153   0.418  1.8621  0.1355 -0.1983
 3323TIP3   OH231603   3.385   5.664   0.199 -0.1183  0.4812  0.3538
 3323TIP3    H131604   3.465   5.635   0.155 -0.8583  0.1455 -0.8083
 3323TIP3    H231605   3.317   5.655   0.133 -0.6550  3.4992  0.3636
 3324TIP3   OH231606   0.955   0.993   7.664  0.4151 -0.1871 -0.3950
 3324TIP3    H131607   0.881   1.045   7.634 -0.8347 -1.6674  0.0083
 3324TIP3    H231608   0.981   0.942   7.587  1.2639  0.5604 -0.6279
 3325TIP3   OH231609   6.301   2.367   1.927  0.1228 -0.3222  0.3743
 3325TIP3    H131610   6.237   2.396   1.991  0.6693 -1.2793  1.4112
 3325TIP3    H231611   6.372   2.330   1.980  0.5550 -1.2265 -0.7861
 3326TIP3   OH231612   6.851   5.840   2.090  0.1837  0.1449  0.2365
 3326TIP3    H131613   6.869   5.764   2.035 -0.0646  0.7432 -0.6835
 3326TIP3    H231614   6.843   5.804   2.178  1.6715 -0.6932  0.0744
 3327TIP3   OH231615   1.731   0.545   0.675 -0.4027 -0.1658 -0.2637
 3327TIP3    H131616   1.666   0.480   0.703 -1.2085 -0.0408 -1.7425
 3327TIP3    H231617   1.700   0.628   0.712 -0.4963 -0.2858 -0.0742
 3328TIP3   OH231618   0.246   4.906   7.870  0.7896 -0.1461  0.6569
 3328TIP3    H131619   0.316   4.846   7.896  1.4324  0.4489  0.3426
 3328TIP3    H231620   0.266   4.928   7.779  0.9914  1.1038  0.9797
 3329TIP3   OH231621   2.923   3.401   2.112 -0.1771 -0.2878 -0.0559
 3329TIP3    H131622   2.849   3.397   2.052  1.4168  0.1018 -2.1471
 3329TIP3    H231623   2.931   3.494   2.134 -2.1628 -0.6380  2.7671
 3330TIP3   OH231624   5.530   6.428   1.485 -0.2556 -0.1471  0.0600
 3330TIP3    H131625   5.492   6.510   1.454  1.3789  0.1968 -1.1229
 3330TIP3    H231626   5.610   6.417   1.435  0.9495 -1.1340  2.0478
 3331TIP3   OH231627   4.109   5.199   7.776 -0.0295  0.3148  0.2280
 3331TIP3    H131628   4.032   5.232   7.823 -0.8699  0.5628 -1.2716
 3331TIP3    H231629   4.077   5.124   7.727  0.2236  1.4657 -1.7971
 3332TIP3   OH231630   5.379   1.072   7.591 -0.3461  0.1795 -0.0937
 3332TIP3    H131631   5.449   1.081   7.526 -2.6332  2.9366 -2.4437
 3332TIP3    H231632   5.361   0.978   7.594  4.0912 -0.8819  1.5988
 3333TIP3   OH231633   1.886   5.788   0.026  0.3995  1.0817 -0.3442
 3333TIP3    H131634   1.820   5.819  -0.037  0.9688 -1.1231 -2.2002
 3333TIP3    H231635   1.968   5.786  -0.024  1.0330 -0.0216  0.6791
 3334TIP3   OH231636   5.410   5.267   7.905 -0.0773  0.2930 -0.2578
 3334TIP3    H131637   5.401   5.304   7.817 -2.0634  0.5223 -0.0139
 3334TIP3    H231638   5.431   5.174   7.890 -0.7188  0.2561 -0.9986
 3335TIP3   OH231639   5.743   5.306   7.444 -1.0089 -0.4290 -0.3617
 3335TIP3    H131640   5.691   5.234   7.406 -0.5253 -0.0200 -1.8920
 3335TIP3    H231641   5.793   5.341   7.369  1.0788 -0.4667  0.9304
 3336TIP3   OH231642   4.619   6.525   1.707 -0.3365  0.3227  0.0138
 3336TIP3    H131643   4.591   6.616   1.713 -1.2919 -0.0401  1.6429
 3336TIP3    H231644   4.706   6.524   1.746 -0.7056  0.4104  0.8729
 3337TIP3   OH231645   3.372   1.969   2.287  1.0623 -0.5117 -0.6914
 3337TIP3    H131646   3.373   2.065   2.280 -0.3934 -0.5246 -1.4084
 3337TIP3    H231647   3.329   1.952   2.370 -0.7847 -0.5222 -1.5921
 3338TIP3   OH231648   4.712   3.721   1.432  0.1939  0.2855 -0.3711
 3338TIP3    H131649   4.695   3.785   1.363  1.4362  0.4701 -0.5351
 3338TIP3    H231650   4.776   3.661   1.393 -1.9061 -1.8974 -0.7185
 3339TIP3   OH231651   6.279   3.579   7.473 -0.3493  0.1038 -0.3984
 3339TIP3    H131652   6.301   3.534   7.392 -3.1818  0.5016 -1.4928
 3339TIP3    H231653   6.220   3.519   7.519  0.3285  0.3608  0.8610
 3340TIP3   OH231654   1.658   0.180   1.349  0.2101  0.3325 -0.0612
 3340TIP3    H131655   1.732   0.123   1.370 -0.6144 -1.1727 -1.1149
 3340TIP3    H231656   1.680   0.263   1.391  2.2583 -0.2201  0.0665
 3341TIP3   OH231657   1.957   3.881   0.790  0.0192  0.5223 -0.0817
 3341TIP3    H131658   1.863   3.872   0.776 -0.2248  0.5529  1.3942
 3341TIP3    H231659   1.990   3.791   0.791 -0.0789  0.4860 -0.0635
 3342TIP3   OH231660   0.513   1.428   2.544  0.7101 -0.1316 -0.3490
 3342TIP3    H131661   0.484   1.429   2.635  2.2769  0.1890  0.1754
 3342TIP3    H231662   0.476   1.347   2.508 -1.7232  0.7843 -0.0887
 3343TIP3   OH231663   0.388   0.922   8.293  0.4330  0.3130 -0.4737
 3343TIP3    H131664   0.434   1.000   8.264 -0.2889  0.6566 -0.7089
 3343TIP3    H231665   0.307   0.922   8.243  0.3946 -0.5530 -0.4273
 3344TIP3   OH231666   1.510   6.400   2.077 -0.7000  0.0516  0.6324
 3344TIP3    H131667   1.447   6.342   2.120 -0.6385 -0.6679 -0.2261
 3344TIP3    H231668   1.456   6.456   2.020 -0.7970  1.1017  1.7105
 3345TIP3   OH231669   6.993   4.029   1.326 -0.7167  0.1239 -0.1088
 3345TIP3    H131670   6.979   4.010   1.234 -0.7623 -0.1003 -0.0577
 3345TIP3    H231671   7.020   4.120   1.329  0.4006 -0.1810 -0.4508
 3346TIP3   OH231672   1.771   0.131   2.359 -0.2374  0.5099  0.0689
 3346TIP3    H131673   1.677   0.117   2.348 -0.0342 -0.5836 -0.3721
 3346TIP3    H231674   1.796   0.185   2.284  0.0193 -1.7656 -1.5582
 3347TIP3   OH231675   4.477   5.878   1.710  0.0055  0.2888 -0.4232
 3347TIP3    H131676   4.423   5.800   1.722  1.6159 -0.8910 -0.5348
 3347TIP3    H231677   4.421   5.938   1.660 -1.1617 -0.9091 -0.6241
 3348TIP3   OH231678   6.047   4.132   8.161  0.0682  0.3717  0.0513
 3348TIP3    H131679   6.087   4.216   8.181 -0.6842  0.6047  0.6492
 3348TIP3    H231680   6.063   4.079   8.239  0.0644  0.1501 -0.0988
 3349TIP3   OH231681   1.720   5.459   0.605  0.2846 -0.0351  0.8256
 3349TIP3    H131682   1.807   5.497   0.618 -0.4736  2.1621  0.1283
 3349TIP3    H231683   1.701   5.476   0.512 -0.5118 -1.3248  0.7381
 3350TIP3   OH231684   3.166   0.763   0.345 -0.7059 -0.1325 -0.2123
 3350TIP3    H131685   3.090   0.820   0.334  0.0774  0.9064 -0.3281
 3350TIP3    H231686   3.174   0.751   0.440 -0.5261  0.4255 -0.1570
 3351TIP3   OH231687   6.523   5.891   1.359  0.1060 -0.2313 -0.4365
 3351TIP3    H131688   6.528   5.821   1.423  1.9148 -1.5455 -1.8915
 3351TIP3    H231689   6.480   5.851   1.283  2.4729 -0.2975 -1.8277
 3352TIP3   OH231690   3.814   6.194   7.577  0.0578  0.5925  0.1210
 3352TIP3    H131691   3.907   6.200   7.600 -0.1465  0.1985  1.1459
 3352TIP3    H231692   3.802   6.259   7.509  1.2923 -0.0328 -0.7394
 3353TIP3   OH231693   4.904   3.704   1.663 -0.2076 -0.0097  0.3164
 3353TIP3    H131694   4.850   3.698   1.584 -0.4084 -0.5777  0.4900
 3353TIP3    H231695   4.843   3.731   1.732 -0.6835 -2.3151  0.8859
 3354TIP3   OH231696   5.284   5.401   1.623  0.5923  0.1467  0.6287
 3354TIP3    H131697   5.213   5.405   1.686 -0.1328 -0.1124 -0.1457
 3354TIP3    H231698   5.283   5.486   1.580 -0.9820 -0.6968 -1.1697
 3355TIP3   OH231699   2.561   5.907   2.556  0.6796 -0.2281  0.1572
 3355TIP3    H131700   2.587   5.996   2.529  0.2105 -0.2090 -0.2270
 3355TIP3    H231701   2.562   5.856   2.475 -2.6169  0.2651 -0.3343
 3356TIP3   OH231702   2.680   2.653   7.013 -0.5231  0.0882  0.0853
 3356TIP3    H131703   2.672   2.724   7.076  1.2302  1.2525 -0.9093
 3356TIP3    H231704   2.632   2.683   6.936 -0.5631 -0.2217 -0.0148
 3357TIP3   OH231705   6.835   6.244   1.463  0.4768  0.0992  0.1550
 3357TIP3    H131706   6.906   6.291   1.506 -0.2209  0.0087  1.4768
 3357TIP3    H231707   6.843   6.154   1.496 -0.7038  0.2656  0.9369
 3358TIP3   OH231708   0.517   2.928   3.144  0.3418 -0.2488 -0.1085
 3358TIP3    H131709   0.532   2.948   3.236  0.0163  1.1701 -0.3445
 3358TIP3    H231710   0.453   2.993   3.115  1.1895 -0.0279 -1.5822
 3359TIP3   OH231711   0.676   4.985   0.330 -0.0039 -0.4061 -0.3064
 3359TIP3    H131712   0.644   5.013   0.416  1.0499 -1.1938  0.3666
 3359TIP3    H231713   0.743   4.919   0.350  3.4381  2.4423 -1.5280
 3360TIP3   OH231714   6.829   0.567   2.076  1.0610  0.4163 -0.3393
 3360TIP3    H131715   6.918   0.557   2.043  0.4134  1.4140 -2.5932
 3360TIP3    H231716   6.840   0.586   2.169  3.0179 -2.1582  0.0648
 3361TIP3   OH231717   6.358   3.120   1.103 -0.5921 -0.6001  1.0919
 3361TIP3    H131718   6.432   3.081   1.149 -0.2034 -0.9555  0.1859
 3361TIP3    H231719   6.292   3.051   1.100  1.2428 -2.5744 -3.3411
 3362TIP3   OH231720   3.873   0.411   1.639  0.4868 -0.1251  0.0105
 3362TIP3    H131721   3.922   0.479   1.593  0.2951  1.5364  2.0967
 3362TIP3    H231722   3.789   0.406   1.594  0.0604  1.9014  0.4948
 3363TIP3   OH231723   6.580   5.312   7.362  0.8087 -0.3852 -0.2206
 3363TIP3    H131724   6.569   5.367   7.440  1.2688  0.5659 -0.8122
 3363TIP3    H231725   6.516   5.346   7.299 -0.4675 -1.9742  0.1509
 3364TIP3   OH231726   1.940   0.441   1.248  0.3922  0.1121 -0.2137
 3364TIP3    H131727   2.005   0.494   1.202  0.7942 -0.5994 -0.4839
 3364TIP3    H231728   1.860   0.451   1.198  1.2198 -2.0105 -2.1456
 3365TIP3   OH231729   5.741   2.510   1.074  0.7089 -0.0419 -0.0597
 3365TIP3    H131730   5.716   2.482   1.162  2.5499 -1.7192 -0.0010
 3365TIP3    H231731   5.832   2.538   1.082  0.4468  1.2719 -1.1611
 3366TIP3   OH231732   5.653   1.290   2.201  0.1834  0.5364  0.0512
 3366TIP3    H131733   5.708   1.311   2.125  1.1275  1.8653  1.0403
 3366TIP3    H231734   5.716   1.273   2.271 -0.4677 -4.7519 -0.2412
 3367TIP3   OH231735   5.541   5.596   7.786  0.2249  0.1763 -0.1134
 3367TIP3    H131736   5.471   5.661   7.778  1.0739  1.4582  1.9376
 3367TIP3    H231737   5.612   5.630   7.732 -0.3200 -0.5970 -1.3666
 3368TIP3   OH231738   0.999   0.189   0.298  0.1797 -0.1404 -0.2136
 3368TIP3    H131739   0.947   0.268   0.289  0.9730  0.3231 -0.7949
 3368TIP3    H231740   0.957   0.125   0.240  1.0875  0.6696 -1.8219
 3369TIP3   OH231741   6.973   4.314   0.561  0.1214 -0.2700  0.0880
 3369TIP3    H131742   6.879   4.305   0.581 -0.0538  0.1526 -0.5284
 3369TIP3    H231743   6.996   4.233   0.516 -0.1670  0.0043 -0.5665
 3370TIP3   OH231744   1.644   3.566   2.537  0.3786 -0.5981 -0.1451
 3370TIP3    H131745   1.609   3.480   2.513 -1.4402 -0.0659  0.4339
 3370TIP3    H231746   1.642   3.617   2.456 -0.5726 -0.4716 -0.0547
 3371TIP3   OH231747   2.090   5.393   6.837 -0.3731  0.0398 -0.1074
 3371TIP3    H131748   2.141   5.407   6.917 -0.5464 -2.1866  0.4420
 3371TIP3    H231749   1.999   5.392   6.866 -0.3841 -1.8280 -0.1287
 3372TIP3   OH231750   0.113   6.985   2.233 -0.5134 -0.2839 -0.1208
 3372TIP3    H131751   0.171   6.911   2.255 -0.0399 -0.1753 -0.9665
 3372TIP3    H231752   0.138   7.009   2.144 -0.5630  1.0025  0.1916
 3373TIP3   OH231753   4.417   4.143   2.812 -0.1698 -0.3053 -0.1244
 3373TIP3    H131754   4.385   4.228   2.843 -1.7105 -0.7438 -0.3963
 3373TIP3    H231755   4.478   4.113   2.880 -0.0229  0.7705  0.2273
 3374TIP3   OH231756   4.931   6.742   0.344  0.3157 -0.1032  0.5170
 3374TIP3    H131757   4.926   6.824   0.294 -2.1379 -1.2514 -1.2746
 3374TIP3    H231758   4.874   6.757   0.419  0.9128  0.2343  0.9218
 3375TIP3   OH231759   6.810   5.692   1.264 -0.3620 -0.0709 -0.1934
 3375TIP3    H131760   6.904   5.695   1.246 -0.2399  2.0914  0.4704
 3375TIP3    H231761   6.802   5.727   1.352 -1.7433 -1.1272  0.1241
 3376TIP3   OH231762   0.086   1.850   0.803  0.5215  0.5151 -0.3389
 3376TIP3    H131763   0.182   1.854   0.808  0.5691  0.2180 -0.9082
 3376TIP3    H231764   0.067   1.858   0.709 -0.0570  1.4014 -0.1616
 3377TIP3   OH231765   4.330   5.046   1.920 -0.2900  0.7251 -0.1053
 3377TIP3    H131766   4.244   5.086   1.915  0.5774  2.8455  0.9254
 3377TIP3    H231767   4.321   4.979   1.988 -1.5335 -0.3148 -1.2426
 3378TIP3   OH231768   1.158   3.491   0.003  0.3899  0.2456 -0.4870
 3378TIP3    H131769   1.140   3.566  -0.054 -1.4317  0.3950  0.2336
 3378TIP3    H231770   1.207   3.527   0.076  0.1199  0.6102 -0.4840
 3379TIP3   OH231771   0.348   5.399   0.318  0.3143 -0.2785 -0.0781
 3379TIP3    H131772   0.332   5.458   0.392  1.2112  0.1398 -0.2016
 3379TIP3    H231773   0.379   5.318   0.358  2.2864  0.4532 -0.0274
 3380TIP3   OH231774   5.115   5.440   0.357 -0.7448  0.7134  0.6848
 3380TIP3    H131775   5.026   5.444   0.391 -1.0335  0.9996 -0.0941
 3380TIP3    H231776   5.109   5.387   0.278 -0.1315  0.3118  0.8956
 3381TIP3   OH231777   0.461   4.764   7.937 -0.5999  0.0380  0.0888
 3381TIP3    H131778   0.512   4.815   8.000  0.6862 -0.1041 -0.7920
 3381TIP3    H231779   0.503   4.678   7.937 -0.3420  0.1406 -1.1948
 3382TIP3   OH231780   5.597   1.456   1.355 -0.1419  0.2304  0.1101
 3382TIP3    H131781   5.637   1.454   1.442 -0.5618 -0.2017  0.3035
 3382TIP3    H231782   5.571   1.547   1.343  1.0797  0.5664 -0.1160
 3383TIP3   OH231783   0.053   5.689   7.407  0.7077  0.1504  0.4073
 3383TIP3    H131784   0.115   5.622   7.380 -1.9154 -1.9795 -0.8526
 3383TIP3    H231785   0.008   5.714   7.326 -0.8166  0.7619  1.4046
 3384TIP3   OH231786   0.449   5.894   1.451  0.3518  0.1501 -0.9450
 3384TIP3    H131787   0.467   5.877   1.544  2.6176  0.0985 -1.3320
 3384TIP3    H231788   0.364   5.854   1.435 -0.7569  1.3883  1.4383
 3385TIP3   OH231789   0.641   5.065   1.000  0.0915 -0.1765  0.1982
 3385TIP3    H131790   0.611   5.097   0.915  1.3528  0.0561 -0.1743
 3385TIP3    H231791   0.561   5.036   1.044 -0.6431  0.2067 -0.8474
 3386TIP3   OH231792   4.710   1.807   2.740  0.0356 -0.0322  0.1243
 3386TIP3    H131793   4.750   1.763   2.815  0.0353 -0.1701  0.0429
 3386TIP3    H231794   4.687   1.737   2.680 -1.0002 -0.0136  0.4798
 3387TIP3   OH231795   4.420   5.037   0.653  0.4134  0.2877 -0.0437
 3387TIP3    H131796   4.395   4.971   0.718 -2.3543 -0.1506 -1.3657
 3387TIP3    H231797   4.373   5.116   0.681  1.7517  1.0359  0.1760
 3388TIP3   OH231798   1.579   0.907   1.535  0.1762  0.5327 -0.0362
 3388TIP3    H131799   1.629   0.985   1.512 -0.9149  1.5391  0.8761
 3388TIP3    H231800   1.501   0.940   1.579  0.8047 -1.1422  2.5602
 3389TIP3   OH231801   3.092   2.104   6.969  0.1401  0.0043  0.1995
 3389TIP3    H131802   3.122   2.194   6.977  1.2206 -0.4161  1.2858
 3389TIP3    H231803   3.093   2.087   6.874 -0.0125  1.0932 -0.0122
 3390TIP3   OH231804   1.546   1.436   7.859  0.2333  0.3647  0.0894
 3390TIP3    H131805   1.492   1.442   7.938  1.0171  1.1121  0.5936
 3390TIP3    H231806   1.546   1.525   7.824 -0.7477 -0.1164 -1.2138
 3391TIP3   OH231807   5.923   0.119   7.522 -0.0096  0.4382 -0.1475
 3391TIP3    H131808   5.994   0.132   7.459 -0.6447  1.5334 -0.6828
 3391TIP3    H231809   5.915   0.024   7.530  0.9727  0.2960 -0.6955
 3392TIP3   OH231810   2.374   0.712   7.832  0.4179  0.4548  0.1507
 3392TIP3    H131811   2.459   0.680   7.861  0.3443 -1.5456 -1.5419
 3392TIP3    H231812   2.394   0.783   7.771  1.0333 -0.9047 -1.3223
 3393TIP3   OH231813   2.699   4.860   1.189 -0.3981  0.3226 -0.2574
 3393TIP3    H131814   2.738   4.853   1.276  1.6991  2.1978 -0.9580
 3393TIP3    H231815   2.631   4.926   1.198 -1.8566 -1.2037  0.4280
 3394TIP3   OH231816   3.839   1.186   7.054  0.4533  0.0921 -0.2033
 3394TIP3    H131817   3.810   1.254   6.993  0.3454 -1.0768 -1.5309
 3394TIP3    H231818   3.757   1.150   7.089  0.3486 -1.1949 -1.6577
 3395TIP3   OH231819   1.810   1.412   0.826 -0.1523  0.1792  0.3044
 3395TIP3    H131820   1.853   1.475   0.769  0.2926  1.4921  2.0263
 3395TIP3    H231821   1.721   1.406   0.791  0.6528 -0.7357 -1.8093
 3396TIP3   OH231822   0.533   5.622   8.069  0.5306 -0.6802 -0.2742
 3396TIP3    H131823   0.546   5.716   8.057  1.3678 -0.9878 -2.2861
 3396TIP3    H231824   0.585   5.600   8.146 -0.5381  0.6360  0.8809
 3397TIP3   OH231825   4.765   0.845   1.221  0.3599 -0.1226 -0.2773
 3397TIP3    H131826   4.709   0.824   1.296  1.1990 -1.7239 -0.0626
 3397TIP3    H231827   4.708   0.893   1.161 -1.3146 -1.8550 -0.1608
 3398TIP3   OH231828   0.644   1.227   0.775  0.2041  0.4113 -0.6451
 3398TIP3    H131829   0.694   1.191   0.702 -1.3100  1.6286 -2.3695
 3398TIP3    H231830   0.560   1.181   0.773  0.5129 -0.3330  1.0833
 3399TIP3   OH231831   4.688   1.085   2.035  0.2656 -0.0367 -0.2235
 3399TIP3    H131832   4.616   1.146   2.054 -0.3779 -0.6393 -0.6541
 3399TIP3    H231833   4.707   1.099   1.942 -0.1395 -0.7274 -0.4246
 3400TIP3   OH231834   4.158   2.958   8.172 -0.3314  0.4663 -0.3557
 3400TIP3    H131835   4.116   3.008   8.242  0.7002  1.8325 -0.6819
 3400TIP3    H231836   4.252   2.967   8.188 -0.0590 -2.4031  0.2632
 3401TIP3   OH231837   5.591   6.987   2.367  0.6807 -0.3221  0.0437
 3401TIP3    H131838   5.533   7.036   2.308  1.0742 -1.7867 -1.6702
 3401TIP3    H231839   5.540   6.910   2.392  1.5222 -1.1858 -0.7949
 3402TIP3   OH231840   6.663   2.172   1.809 -0.2418 -0.2591  0.2630
 3402TIP3    H131841   6.709   2.128   1.737  1.3205  1.2856  0.2451
 3402TIP3    H231842   6.582   2.204   1.769  0.1733 -0.2266 -0.5898
 3403TIP3   OH231843   0.884   2.434   0.571  0.0048 -0.0161 -0.2264
 3403TIP3    H131844   0.970   2.453   0.533  0.2935  1.0330  0.8998
 3403TIP3    H231845   0.887   2.473   0.658 -1.8254  0.5807 -0.3865
 3404TIP3   OH231846   6.680   6.873   0.308 -0.2040 -0.1866 -0.4008
 3404TIP3    H131847   6.761   6.844   0.350  1.4208  2.0318 -1.7882
 3404TIP3    H231848   6.681   6.968   0.317 -1.9295  0.0012 -1.7204
 3405TIP3   OH231849   2.009   3.411   0.006 -0.2916 -0.1069 -0.2440
 3405TIP3    H131850   1.990   3.444  -0.082 -0.2315  1.3648  0.2690
 3405TIP3    H231851   2.100   3.436   0.022  0.4277 -2.3153 -0.5823
 3406TIP3   OH231852   5.053   5.753   8.305  0.4112 -0.5501 -0.2336
 3406TIP3    H131853   5.006   5.781   8.383  2.0371  1.5451  0.0822
 3406TIP3    H231854   5.038   5.659   8.301 -1.5565 -0.3716  1.3067
 3407TIP3   OH231855   5.702   1.251   1.204  0.0194  0.6478  0.3716
 3407TIP3    H131856   5.677   1.319   1.267 -0.3963 -0.0011  0.9078
 3407TIP3    H231857   5.719   1.173   1.257 -0.8559 -0.0541 -0.3470
 3408TIP3   OH231858   3.035   3.652   7.655 -0.0034 -0.1995 -0.2358
 3408TIP3    H131859   3.056   3.603   7.576 -1.9245 -1.9349  0.2088
 3408TIP3    H231860   2.947   3.621   7.679 -1.7102  4.0050 -0.2481
 3409TIP3   OH231861   0.486   2.381   0.295 -0.0241 -0.3157  0.0227
 3409TIP3    H131862   0.575   2.414   0.297  0.0222 -0.3040 -1.5678
 3409TIP3    H231863   0.495   2.286   0.289 -0.0981 -0.2660 -0.9944
 3410TIP3   OH231864   2.092   5.575   7.489  0.4540  0.5846 -0.4855
 3410TIP3    H131865   2.181   5.550   7.513  0.3498  0.4973 -0.1895
 3410TIP3    H231866   2.097   5.670   7.474  0.4104  0.7332  0.3964
 3411TIP3   OH231867   3.911   5.972   2.541 -0.5366 -0.4464 -0.1457
 3411TIP3    H131868   3.924   6.031   2.615  0.9227  0.9174 -1.4125
 3411TIP3    H231869   3.830   6.001   2.500 -0.5043 -0.1593 -0.0093
 3412TIP3   OH231870   4.362   6.049   0.000  0.6614  0.0285 -0.2751
 3412TIP3    H131871   4.344   6.140  -0.024  2.4530 -0.0020 -1.9786
 3412TIP3    H231872   4.377   6.051   0.094  1.2977  1.6110 -0.3887
 3413TIP3   OH231873   0.938   4.897   1.622 -0.4673  0.0964 -0.5889
 3413TIP3    H131874   0.868   4.842   1.657  0.1212  0.4518  1.2434
 3413TIP3    H231875   0.967   4.850   1.543 -1.4266 -1.0876 -0.2750
 3414TIP3   OH231876   6.392   4.147   1.908  0.2024 -0.0822  0.5385
 3414TIP3    H131877   6.403   4.242   1.903 -0.4023 -0.0053  0.6338
 3414TIP3    H231878   6.391   4.118   1.816  0.4000  0.0000  0.5103
 3415TIP3   OH231879   3.340   0.243   1.800  0.2452 -0.0135 -0.2121
 3415TIP3    H131880   3.324   0.325   1.846 -1.5768 -0.2410 -0.3539
 3415TIP3    H231881   3.261   0.229   1.747  0.0188 -2.3351  0.5885
 3416TIP3   OH231882   4.099   3.369   1.356  0.6959  0.0829  0.0102
 3416TIP3    H131883   4.051   3.442   1.318 -1.7674 -1.1310  0.5938
 3416TIP3    H231884   4.102   3.387   1.450 -0.3286 -0.7182  0.2220
 3417TIP3   OH231885   5.645   2.715   0.073 -0.3153  0.3042  0.5272
 3417TIP3    H131886   5.708   2.718   0.001  0.1992 -1.5102  0.8352
 3417TIP3    H231887   5.589   2.791   0.059  1.6592  1.7483  0.0001
 3418TIP3   OH231888   4.071   5.053   0.906 -0.3788  0.2058 -0.2199
 3418TIP3    H131889   4.138   4.997   0.944 -2.6262 -2.9156 -0.4834
 3418TIP3    H231890   4.014   5.075   0.979 -0.2466  1.0840 -0.3698
 3419TIP3   OH231891   2.816   6.633   8.066 -0.5478 -0.3934  0.4688
 3419TIP3    H131892   2.846   6.704   8.123 -1.2758 -1.2650  2.0199
 3419TIP3    H231893   2.730   6.609   8.102 -0.8830 -1.2124 -0.8170
 3420TIP3   OH231894   4.167   5.226   2.499 -0.1936 -0.0707 -0.1051
 3420TIP3    H131895   4.174   5.318   2.526 -0.3649  0.0925 -0.6222
 3420TIP3    H231896   4.123   5.228   2.415 -0.5799 -0.6616  0.0748
 3421TIP3   OH231897   6.094   6.540   7.343  0.0645 -0.1544  0.6367
 3421TIP3    H131898   6.083   6.597   7.419  0.0677  0.9495 -0.1737
 3421TIP3    H231899   6.089   6.598   7.268  0.7219 -1.1333 -0.1961
 3422TIP3   OH231900   3.670   6.195   8.027  0.3494  0.2186  0.3290
 3422TIP3    H131901   3.700   6.140   7.955 -0.7850 -2.1845  1.5555
 3422TIP3    H231902   3.577   6.209   8.009  0.6810  2.0757 -0.1130
 3423TIP3   OH231903   0.714   1.677   2.953 -0.5134 -0.3360  0.7297
 3423TIP3    H131904   0.644   1.720   3.002 -1.9642 -0.5162 -1.0715
 3423TIP3    H231905   0.756   1.620   3.017 -0.7555  1.1677  2.3280
 3424TIP3   OH231906   5.192   1.262   1.092 -0.1604  0.2223  0.3456
 3424TIP3    H131907   5.169   1.279   1.184  0.0233  2.7216 -0.0063
 3424TIP3    H231908   5.208   1.349   1.055 -0.4495 -0.7083 -2.1276
 3425TIP3   OH231909   5.873   1.723   7.714  0.4218 -0.3336 -0.2333
 3425TIP3    H131910   5.851   1.768   7.632 -0.0734 -0.6656 -0.2885
 3425TIP3    H231911   5.924   1.647   7.687 -2.7800 -2.5324 -0.6288
 3426TIP3   OH231912   5.807   0.066   7.943  0.4703  0.0722  0.2677
 3426TIP3    H131913   5.738   0.000   7.932 -0.1619  0.6344  0.7483
 3426TIP3    H231914   5.883   0.029   7.898 -0.2733 -0.3686 -0.6779
 3427TIP3   OH231915   4.233   3.334   8.196  0.5763  0.5327 -0.8357
 3427TIP3    H131916   4.288   3.386   8.255  2.3159 -0.6688 -1.3306
 3427TIP3    H231917   4.244   3.374   8.110  1.9913 -0.6329 -1.2356
 3428TIP3   OH231918   6.897   2.579   8.210  0.8139 -0.5052  0.3735
 3428TIP3    H131919   6.869   2.519   8.142  1.2739 -0.1090 -0.1743
 3428TIP3    H231920   6.842   2.557   8.286 -1.3645  0.5925 -0.7923
 3429TIP3   OH231921   5.545   4.832   3.131 -1.2338 -0.2873 -0.2524
 3429TIP3    H131922   5.554   4.917   3.087 -0.5072  0.6310  1.5735
 3429TIP3    H231923   5.634   4.796   3.130 -1.5121 -0.9900 -0.8829
 3430TIP3   OH231924   1.619   4.521   1.812  0.0254 -0.4848 -0.3602
 3430TIP3    H131925   1.585   4.524   1.723 -0.5703 -1.7514 -0.2067
 3430TIP3    H231926   1.549   4.558   1.866  1.2449  2.3985 -0.5764
 3431TIP3   OH231927   4.370   6.167   7.365  0.3063  0.7724 -0.4584
 3431TIP3    H131928   4.326   6.113   7.300 -2.7791  2.0719  0.4005
 3431TIP3    H231929   4.396   6.106   7.434 -2.5156  0.1868  0.1879
 3432TIP3   OH231930   1.732   4.791   1.775 -0.1974  0.7078 -0.0432
 3432TIP3    H131931   1.712   4.701   1.799  2.0982 -0.3425 -1.6478
 3432TIP3    H231932   1.648   4.837   1.781 -1.7750 -1.8766 -0.6973
 3433TIP3   OH231933   4.109   1.055   0.839 -0.4034 -0.3737 -0.4619
 3433TIP3    H131934   4.085   1.025   0.752 -2.5232  0.6872 -0.3344
 3433TIP3    H231935   4.054   1.003   0.898  0.9655 -1.0410  0.2686
 3434TIP3   OH231936   4.819   1.292   3.090  0.1171  0.0394 -0.1288
 3434TIP3    H131937   4.904   1.263   3.056  0.3215 -0.0486  0.4396
 3434TIP3    H231938   4.836   1.380   3.124 -0.5453  0.9506 -2.0220
 3435TIP3   OH231939   0.875   0.143   2.339  0.0908 -0.1786 -0.0651
 3435TIP3    H131940   0.950   0.092   2.308 -0.8537 -1.6206 -0.0914
 3435TIP3    H231941   0.896   0.165   2.429  1.3125  0.9961 -0.6053
 3436TIP3   OH231942   4.058   6.347   1.845  0.0732 -0.1701 -0.6310
 3436TIP3    H131943   4.083   6.352   1.753  2.5998  0.8213  0.0138
 3436TIP3    H231944   4.029   6.436   1.867  0.1498 -0.2259 -0.2960
 3437TIP3   OH231945   0.975   3.151   0.983  0.1387 -0.1938  0.2149
 3437TIP3    H131946   1.038   3.100   0.933  0.5007  0.7007 -0.2712
 3437TIP3    H231947   1.007   3.148   1.073 -0.6457 -2.0147  0.4638
 3438TIP3   OH231948   0.710   4.425   1.153  1.1362 -0.5402 -0.5733
 3438TIP3    H131949   0.774   4.358   1.128  2.4128 -0.1247  1.3996
 3438TIP3    H231950   0.643   4.377   1.202  1.4105 -0.5613 -0.2180
 3439TIP3   OH231951   6.103   6.977   1.633 -0.1122  0.3869  0.1190
 3439TIP3    H131952   6.166   6.906   1.621 -0.4972 -0.2588  1.7012
 3439TIP3    H231953   6.042   6.945   1.698 -1.5681  1.3716 -0.6958
 3440TIP3   OH231954   5.951   3.290   8.248  0.3418  0.7515 -0.1299
 3440TIP3    H131955   5.985   3.250   8.328  1.4741 -0.9196 -1.3954
 3440TIP3    H231956   5.967   3.384   8.260  0.9658  0.4815  1.3700
 3441TIP3   OH231957   3.379   3.081   0.037 -0.2065  0.1907  0.1106
 3441TIP3    H131958   3.351   3.171   0.018  1.0269  0.3959 -0.9194
 3441TIP3    H231959   3.448   3.064  -0.028  1.6018 -0.4560  2.0838
 3442TIP3   OH231960   2.296   4.112   8.021  0.2766  0.0127 -0.0348
 3442TIP3    H131961   2.276   4.021   7.998 -1.2401 -0.1172  1.5676
 3442TIP3    H231962   2.210   4.154   8.030  0.9485  1.5169 -0.4009
 3443TIP3   OH231963   3.998   6.992   0.387  0.1457  0.5468  0.4144
 3443TIP3    H131964   4.022   7.013   0.297  0.2524  0.2943  0.3831
 3443TIP3    H231965   4.078   6.955   0.425  0.0637  0.5308  0.5718
 3444TIP3   OH231966   1.870   0.672   0.957 -0.1590  0.1405 -0.3939
 3444TIP3    H131967   1.800   0.677   1.022 -0.8056 -0.5540 -1.0134
 3444TIP3    H231968   1.858   0.749   0.902 -0.2366  0.1980 -0.2951
 3445TIP3   OH231969   3.658   3.023   1.293 -0.3348  0.9709 -0.1237
 3445TIP3    H131970   3.675   2.931   1.308  2.9235  1.7251  1.7016
 3445TIP3    H231971   3.578   3.041   1.343 -1.0346 -0.7900 -0.5358
 3446TIP3   OH231972   2.926   6.617   0.905  0.5886 -0.1325 -0.4614
 3446TIP3    H131973   3.009   6.592   0.865 -0.3506 -1.3702 -1.7195
 3446TIP3    H231974   2.861   6.607   0.835 -0.7070  0.3066  0.6265
 3447TIP3   OH231975   3.850   5.555   1.913  0.1797  0.0004 -0.3003
 3447TIP3    H131976   3.848   5.469   1.953  1.0569 -0.1545 -0.5759
 3447TIP3    H231977   3.796   5.546   1.834 -1.8869  0.4115  0.9743
 3448TIP3   OH231978   1.402   4.157   8.105  0.2421  0.4226  0.1092
 3448TIP3    H131979   1.424   4.065   8.096 -1.5479 -0.0714  0.4969
 3448TIP3    H231980   1.438   4.182   8.190  0.9197  0.1592 -0.0914
 3449TIP3   OH231981   3.666   2.979   1.999  0.4936 -0.1910 -0.3794
 3449TIP3    H131982   3.721   2.904   2.022  1.6432  0.1331 -1.8787
 3449TIP3    H231983   3.701   3.009   1.915 -1.2897  0.7336 -0.8478
 3450TIP3   OH231984   1.855   3.359   1.479  0.3262  0.1265 -0.2806
 3450TIP3    H131985   1.893   3.274   1.501 -1.0894 -0.5469 -0.2895
 3450TIP3    H231986   1.859   3.408   1.561 -1.5812 -1.0681  0.6294
 3451TIP3   OH231987   6.077   6.481   1.443 -0.5937 -0.5797  0.0777
 3451TIP3    H131988   6.151   6.450   1.495 -0.1279  0.1305 -0.1517
 3451TIP3    H231989   6.010   6.503   1.508 -0.1633 -0.0925  0.3658
 3452TIP3   OH231990   0.879   6.530   1.298 -0.3960 -0.0687  0.0091
 3452TIP3    H131991   0.886   6.493   1.386 -2.8928 -1.3188 -0.2013
 3452TIP3    H231992   0.939   6.478   1.245 -1.7092 -2.0310  0.3023
 3453TIP3   OH231993   4.742   0.991   7.390  0.3124  0.1412 -0.4251
 3453TIP3    H131994   4.774   1.037   7.312  0.4084  0.6252 -0.1044
 3453TIP3    H231995   4.785   0.905   7.386  1.5274  0.7069 -0.1057
 3454TIP3   OH231996   6.618   2.479   2.976  0.2733  0.1984 -0.1347
 3454TIP3    H131997   6.619   2.550   3.040 -0.9732  0.6421 -0.5595
 3454TIP3    H231998   6.649   2.520   2.895  1.5203 -0.2761  0.0847
 3455TIP3   OH231999   0.790   2.924   8.036  0.2666  0.0237  0.0643
 3455TIP3    H132000   0.697   2.946   8.043  0.4103  0.7881 -0.2674
 3455TIP3    H232001   0.792   2.829   8.031 -0.4801 -0.0170  0.3622
 3456TIP3   OH232002   6.409   4.070   7.386  0.3116  0.2925  0.0397
 3456TIP3    H132003   6.381   4.021   7.308  0.2012  1.6814 -0.8327
 3456TIP3    H232004   6.423   4.003   7.453 -2.0523 -0.7514 -0.4156
 3457TIP3   OH232005   5.819   4.710   0.099 -0.0474 -0.6112 -0.0749
 3457TIP3    H132006   5.914   4.697   0.106  0.0253  0.4459  1.1460
 3457TIP3    H232007   5.792   4.648   0.030  1.6337 -0.3563 -1.0250
 3458TIP3   OH232008   2.275   1.460   2.122  0.0378  0.4128  0.8303
 3458TIP3    H132009   2.254   1.373   2.156  0.1729 -0.1491 -0.4606
 3458TIP3    H232010   2.263   1.519   2.197 -3.2615 -0.2217  0.9473
 3459TIP3   OH232011   1.519   7.027   3.026 -0.3099 -0.5194 -0.4166
 3459TIP3    H132012   1.464   6.949   3.026 -0.0754 -0.7425  1.5051
 3459TIP3    H232013   1.474   7.088   2.967 -0.7677 -1.8891 -1.5444
 3460TIP3   OH232014   2.257   3.151   0.725  0.2105  0.0942  0.1482
 3460TIP3    H132015   2.279   3.092   0.653 -1.3374 -0.1009 -0.2072
 3460TIP3    H232016   2.339   3.196   0.745  0.8822 -0.4981 -1.1318
 3461TIP3   OH232017   2.041   3.283   7.836 -0.4924  0.4215  1.0312
 3461TIP3    H132018   2.114   3.327   7.879 -0.6575  1.1249  0.6118
 3461TIP3    H232019   1.963   3.322   7.875 -0.7868  3.8657 -2.3385
 3462TIP3   OH232020   1.533   3.925   8.114  0.7893  0.4706 -0.1578
 3462TIP3    H132021   1.482   3.902   8.192 -1.9252 -1.2138 -2.2562
 3462TIP3    H232022   1.621   3.891   8.133 -0.1537 -1.1932  1.6249
 3463TIP3   OH232023   4.259   6.677   1.114  0.2002 -0.4705 -0.4740
 3463TIP3    H132024   4.186   6.717   1.066 -0.0533  0.5221  0.6930
 3463TIP3    H232025   4.337   6.710   1.070  0.0265  2.0403  0.9079
 3464TIP3   OH232026   3.963   6.538   0.372 -0.0043 -0.1203  0.4020
 3464TIP3    H132027   3.891   6.563   0.431 -0.2063  0.5605 -0.1191
 3464TIP3    H232028   3.940   6.578   0.288  1.2735  0.6033  0.3701
 3465TIP3   OH232029   2.096   3.192   0.383  0.2162  0.1279  0.5310
 3465TIP3    H132030   2.127   3.108   0.419 -0.1737  0.0912  0.7834
 3465TIP3    H232031   2.045   3.167   0.306  1.0572  0.2074 -0.0764
 3466TIP3   OH232032   5.070   2.650   0.858  0.5598  0.5840 -0.2944
 3466TIP3    H132033   5.064   2.593   0.935 -2.8564  2.4434  1.0255
 3466TIP3    H232034   4.992   2.630   0.807  1.8464  0.6740 -2.4423
 3467TIP3   OH232035   2.634   0.397   8.084  0.2700 -0.0114 -0.3738
 3467TIP3    H132036   2.572   0.420   8.015  1.4807  0.3825 -1.3764
 3467TIP3    H232037   2.607   0.310   8.113 -0.6363  0.0793 -0.9149
 3468TIP3   OH232038   5.153   5.961   7.650  0.1292 -0.6300 -0.4751
 3468TIP3    H132039   5.147   5.922   7.564  0.9823 -0.5513 -0.5809
 3468TIP3    H232040   5.105   5.902   7.708  2.6044 -2.7009 -0.3553
 3469TIP3   OH232041   5.822   4.016   1.562 -0.4242 -0.2481 -0.1678
 3469TIP3    H132042   5.731   3.995   1.543 -0.3921  0.1589 -0.7825
 3469TIP3    H232043   5.851   4.068   1.488 -0.4995  1.9560  1.2542
 3470TIP3   OH232044   4.012   4.224   1.043 -1.1481  0.1739 -1.3165
 3470TIP3    H132045   4.081   4.228   0.977 -0.0461  0.0929 -0.2091
 3470TIP3    H232046   4.040   4.155   1.103 -0.1643  2.6218  1.2941
 3471TIP3   OH232047   3.733   0.592   8.247  0.5442  0.0195  0.2209
 3471TIP3    H132048   3.727   0.501   8.278 -0.0206  0.0881  0.3159
 3471TIP3    H232049   3.712   0.645   8.324 -1.2623  0.1877 -0.3455
 3472TIP3   OH232050   6.063   6.113   7.717 -0.4096  0.4652 -0.4360
 3472TIP3    H132051   6.020   6.099   7.633 -0.5906 -0.1981 -0.2314
 3472TIP3    H232052   6.019   6.190   7.754 -0.6258  0.4917 -0.7509
 3473TIP3   OH232053   6.953   2.793   1.616  0.1166  0.5607 -0.2424
 3473TIP3    H132054   7.029   2.754   1.659 -0.5751 -1.3849 -0.6897
 3473TIP3    H232055   6.882   2.783   1.679 -0.3306 -0.0018 -0.8210
 3474TIP3   OH232056   2.772   6.892   2.781 -0.3642  0.7211 -0.2913
 3474TIP3    H132057   2.837   6.823   2.767  0.7168  1.3353  1.4182
 3474TIP3    H232058   2.824   6.970   2.799 -1.5770  1.4241  0.2585
 3475TIP3   OH232059   5.617   1.577   0.811 -0.5861  0.0389 -0.1781
 3475TIP3    H132060   5.656   1.494   0.838  2.1004  1.3285  0.2351
 3475TIP3    H232061   5.648   1.590   0.722 -0.0387  1.1059  0.1541
 3476TIP3   OH232062   3.194   2.421   0.740 -0.1941 -0.0835 -0.8796
 3476TIP3    H132063   3.269   2.474   0.711  0.8575 -0.8499  0.3330
 3476TIP3    H232064   3.141   2.480   0.793  1.0121 -0.2049  0.5255
 3477TIP3   OH232065   3.154   0.170   1.525 -0.2581  0.2770 -0.0709
 3477TIP3    H132066   3.070   0.216   1.535  0.0515  0.5712  1.3767
 3477TIP3    H232067   3.212   0.235   1.486 -0.1308  0.7775  0.9262
 3478TIP3   OH232068   4.810   2.870   0.520 -0.1208 -0.4625  0.3395
 3478TIP3    H132069   4.768   2.843   0.601  1.1149  0.3847  1.2993
 3478TIP3    H232070   4.884   2.809   0.509  0.6864  0.4210  0.7417
 3479TIP3   OH232071   5.017   5.903   8.076 -0.2309 -0.3039  0.0545
 3479TIP3    H132072   5.079   5.969   8.046 -2.0780  1.4290 -0.2085
 3479TIP3    H232073   5.050   5.875   8.161  0.4831  1.1719  0.2962
 3480TIP3   OH232074   2.343   4.206   2.566 -0.5592 -0.2552  0.6268
 3480TIP3    H132075   2.433   4.172   2.564  0.2597  1.6639 -2.8097
 3480TIP3    H232076   2.290   4.134   2.533  0.2139 -0.3548 -0.4478
 3481TIP3   OH232077   2.690   5.057   1.951 -0.1902  0.2465 -0.1999
 3481TIP3    H132078   2.689   4.963   1.932 -0.0695  0.2152 -0.0578
 3481TIP3    H232079   2.603   5.087   1.926 -0.3514  0.0268  0.0880
 3482TIP3   OH232080   4.047   1.524   2.693  0.2786  0.9330  0.0600
 3482TIP3    H132081   4.009   1.520   2.781 -1.4492 -1.2295 -0.6746
 3482TIP3    H232082   3.996   1.590   2.647 -0.9461 -0.1067 -0.1484
 3483TIP3   OH232083   4.597   5.747   8.083 -0.3790  0.1707 -0.0419
 3483TIP3    H132084   4.551   5.697   8.016 -3.1435  0.9230  1.1494
 3483TIP3    H232085   4.632   5.680   8.142 -0.7620 -0.4175 -0.4726
 3484TIP3   OH232086   4.833   1.279   1.108 -0.3937  0.3001  0.0002
 3484TIP3    H132087   4.852   1.371   1.130  1.1751  0.2880 -1.0846
 3484TIP3    H232088   4.797   1.242   1.189 -0.0990  1.6203  0.7769
 3485TIP3   OH232089   6.380   3.534   7.924  0.0179  0.0198 -0.0154
 3485TIP3    H132090   6.462   3.532   7.973  0.6096  0.3179 -0.9670
 3485TIP3    H232091   6.357   3.442   7.911 -0.4544 -0.0632  1.3043
 3486TIP3   OH232092   0.223   1.238   0.514 -0.9910 -0.5108  0.4342
 3486TIP3    H132093   0.152   1.209   0.457 -1.0303  0.7636 -0.1872
 3486TIP3    H232094   0.263   1.311   0.468  1.9730 -2.3063 -0.1314
 3487TIP3   OH232095   2.852   5.352   0.192 -0.3386  0.3752  0.1276
 3487TIP3    H132096   2.884   5.365   0.103  0.5476 -0.5902  0.2850
 3487TIP3    H232097   2.787   5.282   0.184 -0.4691  0.4870  0.2024
 3488TIP3   OH232098   1.294   2.164   1.376  0.4811 -0.2599  0.1047
 3488TIP3    H132099   1.238   2.111   1.433 -0.6906 -0.6500 -1.3318
 3488TIP3    H232100   1.364   2.195   1.433 -1.4493  0.6762  2.1319
 3489TIP3   OH232101   1.919   4.753   8.311  0.0830  0.4517  0.4806
 3489TIP3    H132102   1.832   4.715   8.321  0.3888 -0.1875  0.8052
 3489TIP3    H232103   1.925   4.820   8.379  0.5318 -0.8153  1.7318
 3490TIP3   OH232104   4.087   3.166   8.365 -0.1201 -0.0191 -0.0417
 3490TIP3    H132105   4.020   3.234   8.366  0.1426  0.2565 -0.5837
 3490TIP3    H232106   4.163   3.208   8.324 -0.1932 -0.8566 -1.0880
 3491TIP3   OH232107   6.826   3.992   2.944  0.4622  0.0997  0.3588
 3491TIP3    H132108   6.766   3.924   2.974  1.5389 -0.2323  1.9032
 3491TIP3    H232109   6.913   3.957   2.964  1.2675  0.2288 -2.5171
 3492TIP3   OH232110   5.951   5.281   1.020 -0.3498  0.5378  0.7189
 3492TIP3    H132111   5.878   5.235   0.978 -3.6249  2.7991  3.4038
 3492TIP3    H232112   5.999   5.321   0.948  0.3720 -3.6194 -1.4167
 3493TIP3   OH232113   0.782   3.100   7.152 -0.0395 -0.0249 -0.4418
 3493TIP3    H132114   0.736   3.077   7.071 -0.2725  1.6309 -0.8239
 3493TIP3    H232115   0.872   3.115   7.126  0.4925 -2.0650  0.0961
 3494TIP3   OH232116   4.983   1.073   2.169 -0.6242 -0.4444 -0.1150
 3494TIP3    H132117   5.005   1.013   2.098 -1.0811  0.1823 -0.8212
 3494TIP3    H232118   5.043   1.146   2.158 -0.3859 -0.5545  0.4410
 3495TIP3   OH232119   3.161   1.169   2.547 -0.0946  0.1960 -0.1980
 3495TIP3    H132120   3.254   1.169   2.568 -0.5572 -1.3773  2.3422
 3495TIP3    H232121   3.121   1.225   2.615 -0.9146  1.9473 -2.0318
 3496TIP3   OH232122   4.530   6.923   0.512  0.1338  0.8849  0.2415
 3496TIP3    H132123   4.556   6.923   0.420 -0.2053 -0.7505  0.1197
 3496TIP3    H232124   4.501   7.013   0.529  2.0669  1.7284 -0.6862
 3497TIP3   OH232125   5.054   0.143   0.298  0.6483 -0.1327  0.1889
 3497TIP3    H132126   5.059   0.234   0.328  0.7195  0.4318 -1.4342
 3497TIP3    H232127   5.146   0.117   0.285  0.6466 -0.5738  0.9869
 3498TIP3   OH232128   6.119   2.106   1.708 -0.2471  0.6660  0.2120
 3498TIP3    H132129   6.150   2.016   1.721  2.3022  1.2582 -1.1028
 3498TIP3    H232130   6.112   2.142   1.796 -0.3587 -0.5342  0.7112
 3499TIP3   OH232131   2.904   4.864   1.940 -0.8183  0.0507 -0.3052
 3499TIP3    H132132   2.981   4.809   1.951 -0.2647  0.4736 -1.9306
 3499TIP3    H232133   2.938   4.949   1.911 -1.8338  0.5173 -0.1839
 3500TIP3   OH232134   3.900   3.226   0.762  0.6237  0.1055 -0.1094
 3500TIP3    H132135   3.871   3.244   0.672  2.5333  1.0789 -0.5701
 3500TIP3    H232136   3.867   3.300   0.813 -0.1394 -0.2603 -0.0544
 3501TIP3   OH232137   5.967   2.464   2.493 -0.1502  0.3791  0.6918
 3501TIP3    H132138   5.968   2.474   2.588 -0.3070  1.8439  0.5623
 3501TIP3    H232139   6.044   2.514   2.463  0.7509 -1.2584  0.1269
 3502TIP3   OH232140   0.407   5.584   1.311 -0.2102 -0.0236 -0.3951
 3502TIP3    H132141   0.416   5.491   1.331 -0.6546  0.0231  0.0617
 3502TIP3    H232142   0.312   5.598   1.307 -0.1919  0.6777  0.8984
 3503TIP3   OH232143   6.387   5.351   1.889 -1.1581  0.0364 -0.4823
 3503TIP3    H132144   6.478   5.335   1.914 -1.4313 -0.8676 -0.0174
 3503TIP3    H232145   6.353   5.410   1.957 -1.3396 -0.8452  0.2101
 3504TIP3   OH232146   5.085   1.270   7.384  0.1311  0.0314 -0.2364
 3504TIP3    H132147   5.171   1.265   7.343  1.9499  0.4065  3.2084
 3504TIP3    H232148   5.077   1.360   7.414  1.1781 -1.1434  4.3299
 3505TIP3   OH232149   2.341   5.327   0.808  0.2755 -0.0336  0.5711
 3505TIP3    H132150   2.416   5.373   0.769 -0.5035  1.2682  0.5679
 3505TIP3    H232151   2.356   5.333   0.903  0.3821 -0.1418  0.5618
 3506TIP3   OH232152   3.113   4.473   2.026  0.2380  0.4066  0.2380
 3506TIP3    H132153   3.090   4.520   1.946  0.7952  1.9144  0.9252
 3506TIP3    H232154   3.208   4.462   2.022  0.1135 -0.7257  0.0749
 3507TIP3   OH232155   5.500   3.257   2.662 -0.6112  0.1416  0.2399
 3507TIP3    H132156   5.567   3.318   2.630 -0.5320  0.7050  1.4344
 3507TIP3    H232157   5.435   3.253   2.592  0.5302 -0.2115 -0.8310
 3508TIP3   OH232158   0.397   1.041   1.161 -0.1669 -0.2350 -0.2242
 3508TIP3    H132159   0.377   0.950   1.138  0.2903 -0.5473  0.5565
 3508TIP3    H232160   0.342   1.094   1.104 -0.1829 -1.0007 -0.9281
 3509TIP3   OH232161   6.154   1.613   7.955  0.2559  0.8259 -0.8158
 3509TIP3    H132162   6.170   1.565   8.036 -0.3079 -0.5609 -1.5072
 3509TIP3    H232163   6.059   1.624   7.952  0.3734  2.0230 -0.6623
 3510TIP3   OH232164   2.305   4.949   1.257 -0.0209  0.1047 -0.0712
 3510TIP3    H132165   2.348   4.983   1.179  0.9247 -1.2496 -0.1717
 3510TIP3    H232166   2.234   4.895   1.224  0.5964 -0.7564 -0.0373
 3511TIP3   OH232167   3.096   1.041   1.192  0.1454  0.1938  0.4462
 3511TIP3    H132168   3.020   1.030   1.135  0.1458 -1.5325  0.7278
 3511TIP3    H232169   3.098   1.135   1.212 -2.0279  0.2524  0.5985
 3512TIP3   OH232170   3.583   1.107   0.670  0.1704  0.0672  0.0324
 3512TIP3    H132171   3.568   1.044   0.599 -4.9873 -0.1799  0.9839
 3512TIP3    H232172   3.575   1.055   0.750  2.1633  0.9963  0.9023
 3513TIP3   OH232173   5.980   3.790   7.709  0.6245  0.1840  0.6697
 3513TIP3    H132174   6.002   3.729   7.779 -0.0384  0.0943  0.8061
 3513TIP3    H232175   5.986   3.739   7.628  0.5337  0.0613  0.7413
 3514TIP3   OH232176   4.571   2.325   7.917  0.6673 -0.4937 -0.1823
 3514TIP3    H132177   4.497   2.310   7.858  0.0740  0.6108  0.2439
 3514TIP3    H232178   4.613   2.405   7.884 -0.2617  0.7150  1.4006
 3515TIP3   OH232179   6.927   1.364   6.826 -0.0555 -0.4362 -0.4815
 3515TIP3    H132180   6.965   1.446   6.859  0.8938 -0.1292 -2.2218
 3515TIP3    H232181   6.833   1.383   6.821  0.1905  0.7186 -1.2319
 3516TIP3   OH232182   5.279   0.279   7.804 -0.1610 -0.2715 -0.1873
 3516TIP3    H132183   5.355   0.332   7.828 -0.7542  1.2711 -1.5000
 3516TIP3    H232184   5.238   0.328   7.732 -1.3984 -1.9693 -0.6882
 3517TIP3   OH232185   1.850   2.765   8.018  0.1866  0.4779 -0.2265
 3517TIP3    H132186   1.878   2.731   7.933 -0.2746 -0.6576  0.0510
 3517TIP3    H232187   1.915   2.831   8.040  0.7274  0.2693 -1.1220
 3518TIP3   OH232188   2.119   6.009   1.504 -0.5305 -0.6919 -0.2897
 3518TIP3    H132189   2.122   6.100   1.474 -1.3559  0.3662  2.4840
 3518TIP3    H232190   2.209   5.990   1.530 -0.7019  0.0697  0.9428
 3519TIP3   OH232191   6.452   1.216   7.670 -0.6059  0.7243  0.3159
 3519TIP3    H132192   6.361   1.243   7.652 -0.2017  0.1580 -3.3991
 3519TIP3    H232193   6.505   1.285   7.630  0.6781  0.8835  2.1858
 3520TIP3   OH232194   5.972   1.918   0.272  0.2867 -0.4138 -0.1735
 3520TIP3    H132195   5.930   1.850   0.219  0.4369 -0.7282  0.1036
 3520TIP3    H232196   5.914   1.993   0.265  0.8124 -0.1143 -1.6023
 3521TIP3   OH232197   1.590   6.362   7.505  0.1457 -0.1766 -0.2813
 3521TIP3    H132198   1.567   6.352   7.598  0.7820 -0.0898 -0.1143
 3521TIP3    H232199   1.633   6.447   7.500  0.2636 -0.2568 -0.6310
 3522TIP3   OH232200   0.593   2.909   0.385 -0.5923  0.0855 -0.2104
 3522TIP3    H132201   0.608   2.818   0.360  0.8074 -0.0129  0.8603
 3522TIP3    H232202   0.505   2.910   0.422 -1.1896 -0.5137 -1.5307
 3523TIP3   OH232203   3.165   3.738   1.278 -0.0995  0.3829 -0.4319
 3523TIP3    H132204   3.109   3.792   1.222 -0.2174  2.1827  1.3158
 3523TIP3    H232205   3.125   3.744   1.365  1.4743 -0.2497  0.3701
 3524TIP3   OH232206   5.597   2.492   2.927 -0.2305 -0.3217 -0.0815
 3524TIP3    H132207   5.567   2.501   3.018 -0.4617 -2.1748  0.0816
 3524TIP3    H232208   5.549   2.559   2.879 -1.7171 -0.6662  0.8499
 3525TIP3   OH232209   3.285   3.018   2.611 -0.2195  0.7786 -0.5143
 3525TIP3    H132210   3.239   2.938   2.587  2.0492 -1.0255  0.6650
 3525TIP3    H232211   3.301   3.063   2.528 -0.0292 -0.9104 -1.4278
 3526TIP3   OH232212   3.105   1.647   6.812  0.0609 -0.2144 -0.1392
 3526TIP3    H132213   3.179   1.636   6.751 -0.9274 -0.4307 -1.3427
 3526TIP3    H232214   3.095   1.560   6.852  0.4315 -0.1911  0.0138
 3527TIP3   OH232215   3.991   6.838   7.093 -0.3706  0.2145  0.2858
 3527TIP3    H132216   3.994   6.913   7.035  0.0917 -0.1175 -0.1290
 3527TIP3    H232217   4.082   6.809   7.100 -0.4922 -0.0778  0.7415
 3528TIP3   OH232218   5.735   0.370   0.197 -0.0790  0.2486  0.1254
 3528TIP3    H132219   5.675   0.433   0.235 -1.9515 -1.4566  0.1307
 3528TIP3    H232220   5.758   0.311   0.269 -0.6410 -0.7500 -0.4828
 3529TIP3   OH232221   2.505   6.566   0.862  0.4048  0.0137 -0.4421
 3529TIP3    H132222   2.463   6.636   0.813 -2.0588 -1.1646 -0.1461
 3529TIP3    H232223   2.573   6.610   0.913  0.3525  1.8402 -1.8299
 3530TIP3   OH232224   5.498   6.542   7.403 -0.1374 -0.3481  0.4486
 3530TIP3    H132225   5.505   6.606   7.332 -1.1831  0.1239  0.7603
 3530TIP3    H232226   5.422   6.489   7.380 -0.5352 -0.1420  1.2353
 3531TIP3   OH232227   1.993   0.114   1.747  0.0861 -0.1300  0.0577
 3531TIP3    H132228   2.071   0.067   1.719  1.0655  1.1146  0.6132
 3531TIP3    H232229   2.023   0.203   1.766 -1.0240 -0.1440  2.2974
 3532TIP3   OH232230   3.995   2.064   3.203  0.7492 -0.2610 -0.1025
 3532TIP3    H132231   4.069   2.089   3.147  1.5811  0.7167  1.3482
 3532TIP3    H232232   3.977   1.973   3.180  1.0574  0.1039 -1.9134
 3533TIP3   OH232233   6.750   1.688   0.625  0.4029 -0.2753  0.0712
 3533TIP3    H132234   6.662   1.652   0.622 -0.2436  1.0419  1.9184
 3533TIP3    H232235   6.782   1.680   0.535 -2.5563  1.5186 -1.2908
 3534TIP3   OH232236   6.930   0.797   0.046  0.1998 -0.2428 -0.3960
 3534TIP3    H132237   6.921   0.834   0.134  1.7607 -0.5716 -0.0658
 3534TIP3    H232238   6.841   0.772   0.022 -0.5120  1.3010  0.4253
 3535TIP3   OH232239   0.473   1.362   7.434  0.2512 -0.6295  0.1507
 3535TIP3    H132240   0.452   1.287   7.489  0.5864  0.2520  1.5415
 3535TIP3    H232241   0.568   1.373   7.443  0.2675 -0.2892 -0.3700
 3536TIP3   OH232242   3.544   5.183   7.858 -0.1335 -0.3070 -0.2217
 3536TIP3    H132243   3.577   5.093   7.850 -1.8278 -1.0695  0.7268
 3536TIP3    H232244   3.622   5.238   7.857  1.2777 -2.0313  2.6682
 3537TIP3   OH232245   5.836   5.183   2.596 -0.1766 -0.0062  0.2206
 3537TIP3    H132246   5.907   5.230   2.552  1.3259 -1.4274  1.0251
 3537TIP3    H232247   5.800   5.246   2.658 -0.8317  1.2962 -1.4002
 3538TIP3   OH232248   2.414   4.401   0.089 -0.3246  0.5245  0.2393
 3538TIP3    H132249   2.348   4.408   0.020 -1.2371  1.0279  1.1420
 3538TIP3    H232250   2.413   4.309   0.114  0.0542  0.3269 -0.4497
 3539TIP3   OH232251   2.734   6.528   8.360 -0.7969 -0.3720  0.0394
 3539TIP3    H132252   2.720   6.433   8.359 -0.6276 -0.3966 -0.0266
 3539TIP3    H232253   2.760   6.548   8.449  2.0408 -0.8154 -0.5935
 3540TIP3   OH232254   1.631   0.145   0.283 -0.6343  0.1756 -0.1796
 3540TIP3    H132255   1.716   0.175   0.316 -0.8275  0.9341 -0.3539
 3540TIP3    H232256   1.571   0.216   0.304 -1.2665 -0.4303  0.0967
 3541TIP3   OH232257   0.350   4.350   1.133 -0.1505  0.4131  0.1785
 3541TIP3    H132258   0.359   4.398   1.050  2.7502 -0.0734  0.1039
 3541TIP3    H232259   0.343   4.259   1.106  2.5299  0.0651  0.3896
 3542TIP3   OH232260   5.656   5.816   0.421 -0.1050  0.3867  0.9875
 3542TIP3    H132261   5.736   5.830   0.369 -0.1519  1.4271  1.1632
 3542TIP3    H232262   5.624   5.731   0.393  0.3262  0.5587 -0.0894
 3543TIP3   OH232263   2.080   5.830   8.231 -0.1725 -0.2544  0.2840
 3543TIP3    H132264   2.092   5.925   8.238 -0.7470 -0.1419 -0.2035
 3543TIP3    H232265   2.028   5.818   8.152  1.4820 -1.1124 -0.7323
 3544TIP3   OH232266   3.627   3.238   7.741 -0.2976  0.0986 -0.0562
 3544TIP3    H132267   3.677   3.300   7.794 -1.9345 -0.0366  1.7464
 3544TIP3    H232268   3.620   3.279   7.655 -0.5105  1.9598  0.8152
 3545TIP3   OH232269   2.864   0.807   0.181  0.2305  0.3480 -0.4370
 3545TIP3    H132270   2.850   0.885   0.236  3.2559  0.0787  0.9016
 3545TIP3    H232271   2.908   0.841   0.103 -1.2720  0.3217 -1.3296
 3546TIP3   OH232272   3.924   5.921   1.272  0.8738  0.2387 -0.0261
 3546TIP3    H132273   3.976   5.918   1.352 -0.3366 -0.0712  0.7615
 3546TIP3    H232274   3.845   5.968   1.296 -1.3353 -3.1841  0.0857
 3547TIP3   OH232275   1.385   5.812   1.124 -0.1987 -0.4725 -0.6277
 3547TIP3    H132276   1.443   5.739   1.141 -0.0852 -0.3374 -0.4301
 3547TIP3    H232277   1.443   5.888   1.119 -0.5275  0.0281  1.7893
 3548TIP3   OH232278   5.010   2.657   2.510 -0.1817 -0.3986  0.1291
 3548TIP3    H132279   5.049   2.637   2.595 -0.7859 -0.1340  0.4710
 3548TIP3    H232280   5.083   2.692   2.458 -0.0780  0.6764  0.9698
 3549TIP3   OH232281   5.809   6.659   0.486 -0.0644  0.2778  0.1248
 3549TIP3    H132282   5.781   6.575   0.521 -0.3633 -0.6963 -2.2486
 3549TIP3    H232283   5.904   6.660   0.499 -0.2494  0.3198  1.6023
 3550TIP3   OH232284   5.076   6.962   2.219 -0.4041 -0.2450  0.2373
 3550TIP3    H132285   5.161   6.918   2.219 -0.2353  0.0663 -0.6088
 3550TIP3    H232286   5.021   6.908   2.162 -0.2907  0.4339 -0.5422
 3551TIP3   OH232287   3.099   2.424   2.577  0.6181 -0.3966 -0.0956
 3551TIP3    H132288   3.065   2.419   2.667 -0.1699  1.2525 -0.2619
 3551TIP3    H232289   3.063   2.347   2.533 -0.2258 -0.4295  0.6207
 3552TIP3   OH232290   0.992   5.608   0.682  0.0639 -0.2763 -0.3109
 3552TIP3    H132291   0.989   5.544   0.754  0.7992  0.2627  0.2037
 3552TIP3    H232292   0.967   5.691   0.722 -0.5072 -0.1477 -0.9009
 3553TIP3   OH232293   1.841   5.538   0.109 -0.2473  0.2001 -0.3024
 3553TIP3    H132294   1.750   5.539   0.080 -0.3562  1.6548  0.0046
 3553TIP3    H232295   1.861   5.630   0.128  0.8020 -0.2892  1.1225
 3554TIP3   OH232296   2.175   6.828   0.425  0.1407  0.2380 -0.0774
 3554TIP3    H132297   2.197   6.890   0.494  0.3748  0.5031 -0.3853
 3554TIP3    H232298   2.123   6.761   0.468 -0.2915  0.7560  0.2257
 3555TIP3   OH232299   3.886   0.830   2.070  0.0498 -0.7286 -0.3131
 3555TIP3    H132300   3.857   0.772   2.140  1.6608 -1.5808 -0.3064
 3555TIP3    H232301   3.981   0.839   2.085 -0.0769  1.6112 -0.5271
 3556TIP3   OH232302   3.224   6.047   7.939  0.1820  0.4281 -0.0143
 3556TIP3    H132303   3.294   6.088   7.887 -0.2880 -0.0951 -1.0867
 3556TIP3    H232304   3.168   6.120   7.965  0.9188  0.8076  0.5364
 3557TIP3   OH232305   0.921   4.669   2.097 -0.5113 -0.0270 -0.6402
 3557TIP3    H132306   0.982   4.599   2.074 -1.2164 -0.5582 -0.9654
 3557TIP3    H232307   0.853   4.625   2.148 -0.0768  0.7519  0.6626
 3558TIP3   OH232308   1.298   0.388   6.887 -0.7827 -0.2396  0.6489
 3558TIP3    H132309   1.375   0.431   6.849  0.1840 -0.6692  2.0456
 3558TIP3    H232310   1.249   0.460   6.927  0.3808 -0.2544  2.2125
 3559TIP3   OH232311   5.446   3.410   7.880 -0.5952 -0.1345  0.4841
 3559TIP3    H132312   5.506   3.439   7.811  0.3413  0.9273  1.6921
 3559TIP3    H232313   5.376   3.475   7.881 -0.9447 -0.4946  0.1460
 3560TIP3   OH232314   1.246   6.006   1.425  0.3551  0.4938  0.0350
 3560TIP3    H132315   1.229   6.093   1.461  0.5413  0.0145  1.3426
 3560TIP3    H232316   1.162   5.979   1.388 -0.3264  0.3673  1.5740
 3561TIP3   OH232317   4.935   1.047   0.394  0.0596  0.3051 -0.1869
 3561TIP3    H132318   4.967   1.137   0.403  2.4645 -0.3680 -1.2066
 3561TIP3    H232319   4.930   1.014   0.484  2.9259  0.3043  0.0504
 3562TIP3   OH232320   3.922   1.934   7.995  0.2076 -0.2634 -0.1171
 3562TIP3    H132321   4.006   1.895   7.969 -0.4559 -0.6109 -1.8696
 3562TIP3    H232322   3.915   2.013   7.942 -0.8148 -0.5350 -0.4013
 3563TIP3   OH232323   3.188   6.734   7.648 -0.2054  0.3891  0.1374
 3563TIP3    H132324   3.198   6.731   7.553 -0.5343  0.8527  0.0867
 3563TIP3    H232325   3.220   6.820   7.674  1.3525 -0.3044  0.6373
 3564TIP3   OH232326   6.475   0.020   8.313  0.1346 -0.6939 -0.4605
 3564TIP3    H132327   6.549   0.079   8.300  1.2643 -1.9052  0.2551
 3564TIP3    H232328   6.512  -0.056   8.357 -1.7007 -0.9860  0.6827
 3565TIP3   OH232329   0.626   5.980   2.237  0.3762  0.0472 -0.2374
 3565TIP3    H132330   0.669   5.894   2.242  0.7480  0.0829 -2.0243
 3565TIP3    H232331   0.597   5.987   2.146 -0.5622  1.3964  0.1365
 3566TIP3   OH232332   5.608   3.555   0.655 -0.5866 -0.2142  0.2850
 3566TIP3    H132333   5.682   3.510   0.694 -0.7056 -1.4808 -0.9071
 3566TIP3    H232334   5.644   3.602   0.580 -1.0059 -1.0852 -0.4868
 3567TIP3   OH232335   3.507   0.833   2.616 -0.1564  0.0108  0.5380
 3567TIP3    H132336   3.436   0.801   2.561  0.3680 -0.6171  0.2162
 3567TIP3    H232337   3.550   0.754   2.649  1.1297  0.3563 -0.2237
 3568TIP3   OH232338   2.506   4.632   8.301  0.2314 -0.0818  0.0197
 3568TIP3    H132339   2.510   4.710   8.246  2.9434  1.1906  1.7917
 3568TIP3    H232340   2.436   4.651   8.364  0.1873  0.4783 -0.1950
 3569TIP3   OH232341   6.174   5.913   2.461  0.0972  0.5841  0.2648
 3569TIP3    H132342   6.171   5.892   2.554  1.1945 -1.4161 -0.0988
 3569TIP3    H232343   6.246   5.860   2.427 -1.7824 -0.5897 -2.1410
 3570TIP3   OH232344   1.063   0.398   7.430  0.0269 -0.3907 -0.0314
 3570TIP3    H132345   0.997   0.374   7.495 -0.4583  2.6165  0.7060
 3570TIP3    H232346   1.016   0.454   7.368  1.4867  0.4237 -0.4340
 3571TIP3   OH232347   2.773   3.553   7.674  0.2024  0.3756  0.1218
 3571TIP3    H132348   2.713   3.558   7.599  1.0925 -1.0927 -0.7392
 3571TIP3    H232349   2.716   3.541   7.750 -0.6204 -0.7697 -0.6479
 3572TIP3   OH232350   6.071   2.415   7.048 -0.5379 -0.4121 -0.0154
 3572TIP3    H132351   6.155   2.459   7.044 -0.5477 -0.1584  1.7366
 3572TIP3    H232352   6.008   2.480   7.016 -0.1720 -0.3304 -0.5783
 3573TIP3   OH232353   3.809   0.975   0.320  0.0892  0.1426  0.0772
 3573TIP3    H132354   3.718   0.994   0.297  0.1088  0.3158  0.1468
 3573TIP3    H232355   3.834   0.904   0.261 -0.5435 -0.9090  1.0455
 3574TIP3   OH232356   6.797   1.778   1.854 -0.2501 -0.2013  0.3661
 3574TIP3    H132357   6.813   1.707   1.792 -0.4764  0.1530 -0.0987
 3574TIP3    H232358   6.745   1.737   1.924  0.9972 -0.8818  0.9247
 3575TIP3   OH232359   3.695   1.552   1.342  0.0540  0.2546 -0.9103
 3575TIP3    H132360   3.606   1.560   1.376  0.6928 -0.4908  1.1274
 3575TIP3    H232361   3.701   1.462   1.311  0.6913 -0.4301  1.0331
 3576TIP3   OH232362   1.155   2.993   0.852  0.3738 -0.4842  0.3146
 3576TIP3    H132363   1.111   2.970   0.771  1.0694 -0.1988 -0.1508
 3576TIP3    H232364   1.211   2.918   0.871  1.8529  0.3282 -0.6465
 3577TIP3   OH232365   2.878   4.834   3.065 -0.5843  0.1134  0.4055
 3577TIP3    H132366   2.829   4.825   2.983 -1.6146  0.4307  0.9538
 3577TIP3    H232367   2.952   4.774   3.057 -1.8890 -1.5365  0.1305
 3578TIP3   OH232368   6.794   3.762   3.204  0.5809  0.5715  0.0544
 3578TIP3    H132369   6.814   3.688   3.146  1.5462  2.3929 -2.1333
 3578TIP3    H232370   6.724   3.731   3.260  0.0565 -1.5775 -1.6445
 3579TIP3   OH232371   1.764   6.538   3.265  0.0202  0.2184 -0.1812
 3579TIP3    H132372   1.743   6.493   3.347  2.1065  0.9042  0.8205
 3579TIP3    H232373   1.857   6.558   3.273  0.4061 -0.1626 -2.9950
 3580TIP3   OH232374   4.316   5.396   7.850 -0.0711 -0.0920 -1.1170
 3580TIP3    H132375   4.281   5.307   7.847  0.8854 -0.5568  0.4547
 3580TIP3    H232376   4.242   5.450   7.879 -0.3717 -0.5312 -1.0582
 3581TIP3   OH232377   4.349   0.370   2.019 -0.4926  0.1175 -0.2770
 3581TIP3    H132378   4.422   0.408   2.068 -1.2766  0.6355  0.5317
 3581TIP3    H232379   4.384   0.289   1.983  1.5931  2.0597 -3.0400
 3582TIP3   OH232380   1.393   4.097   3.084  0.2176 -1.1570  0.6375
 3582TIP3    H132381   1.354   4.178   3.051  0.2470 -0.9722  1.0459
 3582TIP3    H232382   1.320   4.036   3.089  0.4483 -1.6291 -1.0717
 3583TIP3   OH232383   6.919   2.102   8.309 -0.1538 -0.7394  0.1885
 3583TIP3    H132384   6.857   2.125   8.240  1.4490 -1.2617 -1.5039
 3583TIP3    H232385   6.867   2.051   8.372 -1.5301 -0.7919 -0.9387
 3584TIP3   OH232386   0.503   6.149   2.401 -0.2824  0.4289 -0.0694
 3584TIP3    H132387   0.443   6.175   2.331 -2.1137 -1.5673  0.6702
 3584TIP3    H232388   0.549   6.072   2.367  2.2938  2.1315 -0.7758
 3585TIP3   OH232389   3.203   2.585   0.325 -0.4192 -0.0732  0.4275
 3585TIP3    H132390   3.231   2.630   0.246 -1.1912 -1.2067 -0.5226
 3585TIP3    H232391   3.147   2.648   0.370 -0.0644  0.5360  0.0310
 3586TIP3   OH232392   4.350   2.961   7.224  0.1513 -0.7022  0.5493
 3586TIP3    H132393   4.331   2.921   7.139 -0.2009 -0.0496  0.3168
 3586TIP3    H232394   4.272   2.944   7.276 -0.2824  0.2715  0.2279
 3587TIP3   OH232395   1.259   6.582   1.801  0.2506  0.1906 -0.2367
 3587TIP3    H132396   1.233   6.674   1.799 -0.6646 -0.0412  0.2614
 3587TIP3    H232397   1.314   6.574   1.879  2.7281  0.8812 -1.7985
 3588TIP3   OH232398   5.697   5.654   8.268  0.0773 -0.1011  0.1861
 3588TIP3    H132399   5.746   5.602   8.331  0.3024  0.4567  0.4793
 3588TIP3    H232400   5.642   5.712   8.321  1.2213  1.2876 -0.0950
 3589TIP3   OH232401   1.172   5.360   0.626 -0.0081  1.1415  0.4528
 3589TIP3    H132402   1.117   5.401   0.693  0.8844  1.3839  1.0498
 3589TIP3    H232403   1.261   5.375   0.656  0.3781 -1.4280  0.8352
 3590TIP3   OH232404   1.369   5.244   1.138 -0.3739  0.7823 -0.5763
 3590TIP3    H132405   1.331   5.156   1.139 -3.0060  1.8377 -0.3048
 3590TIP3    H232406   1.419   5.250   1.220 -1.7432  0.1567  0.3345
 3591TIP3   OH232407   3.140   3.770   8.021  0.3897  0.0545  0.8061
 3591TIP3    H132408   3.125   3.864   8.005  0.0962 -0.2441 -0.9302
 3591TIP3    H232409   3.227   3.754   7.983  0.6605 -0.2812  1.5616
 3592TIP3   OH232410   4.352   6.887   0.934 -0.0872  0.6082  0.1420
 3592TIP3    H132411   4.411   6.859   0.863 -0.9085  1.5514 -0.9609
 3592TIP3    H232412   4.378   6.978   0.951 -0.1243  0.4900  0.8264
 3593TIP3   OH232413   3.530   6.642   2.289 -0.5917  0.0168  0.7085
 3593TIP3    H132414   3.576   6.666   2.209 -0.9626 -1.0926  0.1339
 3593TIP3    H232415   3.597   6.600   2.344 -0.8222 -1.4060 -0.0404
 3594TIP3   OH232416   4.549   3.255   8.369 -0.0259 -0.3394  0.2454
 3594TIP3    H132417   4.535   3.227   8.460 -4.6094  0.4876 -0.0094
 3594TIP3    H232418   4.560   3.350   8.375 -0.1358 -0.3078 -0.0709
 3595TIP3   OH232419   1.565   5.561   0.045  0.2235 -0.9321  0.3696
 3595TIP3    H132420   1.545   5.620   0.117 -1.5607 -1.0278  0.0016
 3595TIP3    H232421   1.496   5.494   0.049 -0.1982 -0.6916 -1.6731
 3596TIP3   OH232422   1.754   2.287   7.374  0.0460 -0.0398  0.3006
 3596TIP3    H132423   1.736   2.373   7.413  2.1106  0.4564  0.2495
 3596TIP3    H232424   1.694   2.228   7.420 -1.0850  1.3234  0.6718
 3597TIP3   OH232425   1.414   5.037   1.486  0.0918  0.1799 -0.6833
 3597TIP3    H132426   1.472   5.093   1.435  0.3490 -1.1722 -1.9258
 3597TIP3    H232427   1.344   5.011   1.426 -0.8752  0.3854  0.3017
 3598TIP3   OH232428   1.895   1.694   7.566 -0.3294 -0.5341 -0.8605
 3598TIP3    H132429   1.828   1.753   7.600 -0.2306 -0.4266 -0.8570
 3598TIP3    H232430   1.865   1.673   7.477  0.7306  1.2101 -1.6779
 3599TIP3   OH232431   3.676   2.178   0.369 -0.1377  0.0639  0.3110
 3599TIP3    H132432   3.739   2.210   0.305 -1.5794  1.0956 -0.6588
 3599TIP3    H232433   3.690   2.083   0.371 -0.5478 -0.1035 -2.1076
 3600TIP3   OH232434   6.270   0.240   1.486  0.0109 -0.1649 -0.1699
 3600TIP3    H132435   6.179   0.264   1.467  0.8604  4.2992  0.3072
 3600TIP3    H232436   6.295   0.295   1.561  2.9102 -1.7939  0.2256
 3601TIP3   OH232437   6.551   4.142   7.997 -0.1121  0.0968 -0.1063
 3601TIP3    H132438   6.517   4.205   7.933  0.5311 -0.7785 -1.3692
 3601TIP3    H232439   6.484   4.138   8.065 -0.5550  1.4922 -0.4402
 3602TIP3   OH232440   5.865   7.023   2.477 -0.1061 -1.1478  0.6056
 3602TIP3    H132441   5.781   7.027   2.432 -0.9661  1.1274  2.2407
 3602TIP3    H232442   5.913   7.100   2.445  1.3258 -2.3064 -0.1575
 3603TIP3   OH232443   5.163   1.858   0.527  0.9085  0.6283  0.4507
 3603TIP3    H132444   5.249   1.900   0.531  1.1617  0.1485  0.1577
 3603TIP3    H232445   5.179   1.776   0.480  0.1136  0.9720 -0.4599
 3604TIP3   OH232446   5.486   6.918   1.688 -0.0706  0.0582 -0.2210
 3604TIP3    H132447   5.569   6.904   1.642  0.3941  2.5417 -0.2653
 3604TIP3    H232448   5.504   6.987   1.751 -2.2132  1.0757 -0.6004
 3605TIP3   OH232449   1.130   3.644   1.607  0.2463 -0.8386  0.2909
 3605TIP3    H132450   1.103   3.702   1.678  1.2236 -1.6730  1.4077
 3605TIP3    H232451   1.064   3.575   1.606  0.6760 -1.2787  0.9948
 3606TIP3   OH232452   6.503   4.587   7.955 -0.0199 -0.3793  0.9742
 3606TIP3    H132453   6.444   4.512   7.965  0.4055 -0.5653  2.2211
 3606TIP3    H232454   6.492   4.638   8.035  0.3890  0.4098  0.5475
 3607TIP3   OH232455   1.807   5.873   0.645 -0.5177  0.1803  0.0120
 3607TIP3    H132456   1.846   5.955   0.674 -1.1947  1.4508 -2.4431
 3607TIP3    H232457   1.875   5.833   0.589  0.4662 -1.8396  2.4320
 3608TIP3   OH232458   6.294   3.509   2.590  0.0845  0.1008  0.0555
 3608TIP3    H132459   6.222   3.570   2.574 -1.1071 -1.7205 -2.2704
 3608TIP3    H232460   6.340   3.503   2.506  0.6930 -1.4657  0.4605
 3609TIP3   OH232461   0.270   1.204   7.789 -0.1641 -0.1490 -0.1398
 3609TIP3    H132462   0.303   1.126   7.835  0.6253  1.3111  1.9114
 3609TIP3    H232463   0.174   1.195   7.793 -0.1071 -1.8182 -1.4598
 3610TIP3   OH232464   6.139   1.888   7.901  0.1784  0.7549 -0.1836
 3610TIP3    H132465   6.232   1.913   7.907  0.3197 -0.0818  1.7206
 3610TIP3    H232466   6.139   1.794   7.917 -1.1287  1.0211  1.6781
 3611TIP3   OH232467   2.384   1.829   1.981 -0.3328  0.3681 -0.1495
 3611TIP3    H132468   2.399   1.842   2.075  2.4215  0.9845 -0.5762
 3611TIP3    H232469   2.300   1.784   1.976 -0.2245 -0.3458  2.6547
 3612TIP3   OH232470   1.914   6.774   0.518  0.2488 -0.2055  0.0209
 3612TIP3    H132471   1.839   6.829   0.538 -0.3855 -1.4624  1.2123
 3612TIP3    H232472   1.880   6.704   0.462  0.1063 -1.7496  1.9387
 3613TIP3   OH232473   2.119   0.256   7.959  0.4465  0.3802  0.2112
 3613TIP3    H132474   2.132   0.239   8.052 -0.9784  1.7512  0.7115
 3613TIP3    H232475   2.189   0.208   7.915 -0.1484 -2.1302  1.8181
 3614TIP3   OH232476   5.567   2.129   1.043  0.7353  0.4680  0.0725
 3614TIP3    H132477   5.643   2.171   1.083  1.0280  0.7433 -0.7462
 3614TIP3    H232478   5.594   2.112   0.953 -0.6043  1.7120 -0.6114
 3615TIP3   OH232479   5.846   3.436   0.764 -0.3291  0.2068  0.1601
 3615TIP3    H132480   5.926   3.432   0.712 -0.5358  0.7428 -0.2092
 3615TIP3    H232481   5.877   3.435   0.855  0.0360 -0.6849  0.0347
 3616TIP3   OH232482   1.873   5.904   1.542 -0.6185  0.5819 -0.0116
 3616TIP3    H132483   1.947   5.964   1.531 -0.5350  0.6240  0.7364
 3616TIP3    H232484   1.881   5.872   1.632 -0.7095 -0.4936 -0.3726
 3617TIP3   OH232485   2.436   6.719   3.361 -0.5078  0.4737 -0.0485
 3617TIP3    H132486   2.438   6.809   3.327 -0.5171  1.4208  2.2536
 3617TIP3    H232487   2.354   6.714   3.409  0.0000 -0.4043  0.7588
 3618TIP3   OH232488   3.307   3.545   1.434 -0.2672  0.0169  0.0618
 3618TIP3    H132489   3.304   3.595   1.515  0.7746 -0.3251  0.3188
 3618TIP3    H232490   3.239   3.584   1.379 -0.9167  0.3087  1.0590
 3619TIP3   OH232491   4.161   2.506   7.901 -0.5135  0.1469  0.0392
 3619TIP3    H132492   4.067   2.501   7.886 -0.7527  0.4236  1.3558
 3619TIP3    H232493   4.187   2.589   7.860 -1.2688  1.2334  1.6576
 3620TIP3   OH232494   1.684   4.839   3.354  0.3266 -0.1205  0.7575
 3620TIP3    H132495   1.606   4.855   3.301  0.1944 -0.6181  0.8009
 3620TIP3    H232496   1.757   4.844   3.291  0.6226  3.4308  1.1658
 3621TIP3   OH232497   2.416   3.819   1.693  0.5178 -0.4746  0.7353
 3621TIP3    H132498   2.398   3.725   1.688  0.6188 -0.4530 -0.4669
 3621TIP3    H232499   2.487   3.833   1.630  0.0651  0.5031  0.4174
 3622TIP3   OH232500   5.439   2.944   6.801  0.5012  0.0943 -0.2628
 3622TIP3    H132501   5.450   2.903   6.887 -1.8252 -0.4362 -0.1411
 3622TIP3    H232502   5.447   2.871   6.739 -1.4762 -0.2551 -0.1881
 3623TIP3   OH232503   0.426   5.996   7.724 -0.0116  0.2113 -0.2071
 3623TIP3    H132504   0.468   5.910   7.732  0.7439  0.5151 -0.8961
 3623TIP3    H232505   0.439   6.022   7.633 -0.3914  0.9870 -0.0503
 3624TIP3   OH232506   4.724   0.355   7.946 -0.0405  0.1681 -0.1389
 3624TIP3    H132507   4.777   0.424   7.906 -0.1152 -0.0179 -0.5714
 3624TIP3    H232508   4.772   0.331   8.025  0.9889 -0.5808 -0.9488
 3625TIP3   OH232509   3.737   3.103   1.023  0.0781  0.3411 -0.1667
 3625TIP3    H132510   3.716   3.089   1.115 -0.3854 -1.3653 -0.5034
 3625TIP3    H232511   3.833   3.096   1.018  0.0783  0.1331  0.1378
 3626TIP3   OH232512   1.979   3.742   0.012  0.1271  0.2715 -0.1596
 3626TIP3    H132513   1.944   3.662   0.050  0.3908  0.2172 -0.0332
 3626TIP3    H232514   1.918   3.811   0.042  0.4351  0.2586  0.5195
 3627TIP3   OH232515   4.562   6.659   8.094 -0.7909  0.0295  0.0570
 3627TIP3    H132516   4.645   6.640   8.051 -0.9287  2.4801 -1.5003
 3627TIP3    H232517   4.550   6.587   8.156  2.5741 -0.3195  0.5169
 3628TIP3   OH232518   0.230   3.671   2.801 -0.5941 -0.0258 -0.2317
 3628TIP3    H132519   0.217   3.590   2.852 -1.9539  0.4331  0.2129
 3628TIP3    H232520   0.266   3.733   2.865 -2.2677  0.5399  0.2217
 3629TIP3   OH232521   0.192   5.027   2.020 -0.1435  0.4818 -0.2701
 3629TIP3    H132522   0.115   5.084   2.024 -0.6541 -0.2387  1.9618
 3629TIP3    H232523   0.267   5.088   2.017 -0.7033  1.2863  1.0427
 3630TIP3   OH232524   5.854   6.626   1.162 -0.0103 -0.2167  0.2388
 3630TIP3    H132525   5.947   6.649   1.175  0.3447 -0.6735 -1.2827
 3630TIP3    H232526   5.812   6.709   1.140  0.1564 -0.1066  0.3297
 3631TIP3   OH232527   0.714   5.515   2.335 -0.4989  0.4061  0.5203
 3631TIP3    H132528   0.748   5.522   2.424  0.0225  0.6034  0.3099
 3631TIP3    H232529   0.623   5.488   2.346  0.0347 -1.3266  1.0691
 3632TIP3   OH232530   1.944   1.429   7.123  0.6962 -1.1212 -0.0049
 3632TIP3    H132531   2.027   1.405   7.081 -0.5267  0.7175 -4.0584
 3632TIP3    H232532   1.878   1.386   7.069 -1.0690  1.2715  0.1140
 3633TIP3   OH232533   4.722   6.126   0.080  0.7027  0.2578  0.9141
 3633TIP3    H132534   4.717   6.073   0.001  1.8485  2.2309 -0.5749
 3633TIP3    H232535   4.631   6.134   0.109  0.4490 -1.9972  0.8973
 3634TIP3   OH232536   0.543   0.502   0.976 -0.1343  0.3002  0.1121
 3634TIP3    H132537   0.516   0.433   0.916  1.8785  1.2015 -1.9518
 3634TIP3    H232538   0.513   0.583   0.936 -0.9224  0.7928  1.6136
 3635TIP3   OH232539   2.603   6.917   8.332 -0.3232 -0.0301 -0.0498
 3635TIP3    H132540   2.515   6.956   8.324 -1.6653 -2.5647  1.0689
 3635TIP3    H232541   2.586   6.824   8.346  2.6223 -0.7653 -0.7370
 3636TIP3   OH232542   3.025   1.476   2.233  0.3300 -0.4369  0.2283
 3636TIP3    H132543   2.937   1.453   2.205 -0.0550  0.9313  0.2141
 3636TIP3    H232544   3.051   1.545   2.172  2.0105 -1.8201 -0.7136
 3637TIP3   OH232545   0.329   5.591   1.644  0.3131 -0.3521 -0.3748
 3637TIP3    H132546   0.297   5.502   1.638  0.7901 -0.4148 -2.3656
 3637TIP3    H232547   0.290   5.637   1.570  0.1440  1.0919  0.5520
 3638TIP3   OH232548   2.911   0.423   0.068 -0.3135  0.9296 -0.0829
 3638TIP3    H132549   2.853   0.346   0.075  0.9461 -0.0728 -0.2792
 3638TIP3    H232550   2.911   0.461   0.156 -1.0323  0.7633 -0.0036
 3639TIP3   OH232551   2.883   4.229   0.944  0.0004  0.0325 -0.4174
 3639TIP3    H132552   2.830   4.248   0.866 -3.0788 -0.7527  1.3127
 3639TIP3    H232553   2.844   4.150   0.981  1.0548  0.6178  2.1619
 3640TIP3   OH232554   2.267   3.420   7.966 -0.3300  0.3770 -0.1731
 3640TIP3    H132555   2.341   3.383   8.014 -0.4178  0.2428 -0.1401
 3640TIP3    H232556   2.232   3.488   8.025  0.2095  0.9443 -0.4912
 3641TIP3   OH232557   2.584   4.229   0.368 -1.0057  0.2019  0.3048
 3641TIP3    H132558   2.608   4.143   0.404 -1.3990  0.3821  1.0174
 3641TIP3    H232559   2.605   4.223   0.275 -0.3614 -0.4248  0.4829
 3642TIP3   OH232560   4.889   1.638   7.112 -0.2081  0.7015 -0.0516
 3642TIP3    H132561   4.819   1.686   7.068 -0.3328  0.5227 -0.0499
 3642TIP3    H232562   4.962   1.700   7.116 -0.8979  1.4630  1.4220
 3643TIP3   OH232563   1.638   3.962   1.358 -0.2667  0.3077  0.6485
 3643TIP3    H132564   1.643   3.874   1.395 -1.1524 -0.3440 -0.7304
 3643TIP3    H232565   1.681   3.955   1.273 -0.3205  1.2261  0.5328
 3644TIP3   OH232566   3.515   0.483   3.285  0.8767 -0.2598 -0.9780
 3644TIP3    H132567   3.545   0.574   3.289  0.2725 -0.0266 -1.5684
 3644TIP3    H232568   3.439   0.485   3.227 -0.7594 -0.6956  1.0273
 3645TIP3   OH232569   2.965   4.970   0.538 -0.2025  0.5624 -0.2106
 3645TIP3    H132570   2.903   4.950   0.607 -0.6465  0.2733 -0.6862
 3645TIP3    H232571   3.050   4.972   0.582 -0.3679 -0.4783  0.1935
 3646TIP3   OH232572   0.937   6.095   2.949 -0.2736 -0.1355  0.1695
 3646TIP3    H132573   0.949   6.072   3.041 -0.8012 -0.5941  0.1309
 3646TIP3    H232574   0.931   6.010   2.904  1.5240  0.0543 -0.5120
 3647TIP3   OH232575   0.682   4.897   7.637  0.1241 -0.3218  0.0819
 3647TIP3    H132576   0.625   4.822   7.621  0.2165 -0.9823  2.4230
 3647TIP3    H232577   0.771   4.862   7.626  0.2090 -0.9291  2.2348
 3648TIP3   OH232578   6.390   0.657   8.257 -0.2683 -0.0438 -0.3917
 3648TIP3    H132579   6.419   0.676   8.346  1.9152  0.4756 -1.1511
 3648TIP3    H232580   6.377   0.562   8.256  1.0018 -0.2503  0.1545
 3649TIP3   OH232581   6.567   6.610   1.377  0.2067 -0.3905 -0.5704
 3649TIP3    H132582   6.594   6.576   1.463 -0.3620 -0.4799 -0.4246
 3649TIP3    H232583   6.647   6.605   1.324  0.6418 -0.0617  0.0331
 3650TIP3   OH232584   3.608   6.593   0.786  0.4287 -0.5636 -0.2535
 3650TIP3    H132585   3.514   6.579   0.777  0.1707  1.4886 -1.4044
 3650TIP3    H232586   3.616   6.657   0.857  0.7256  0.9431 -1.5757
 3651TIP3   OH232587   5.297   6.724   7.634  0.1645  0.1549  0.9493
 3651TIP3    H132588   5.335   6.812   7.628 -0.0924  0.1803 -1.0929
 3651TIP3    H232589   5.273   6.702   7.544  1.1157 -2.4166  1.2226
 3652TIP3   OH232590   3.441   4.782   1.118  0.4805 -0.8116 -1.0210
 3652TIP3    H132591   3.425   4.868   1.079  1.5895  0.0412  0.3262
 3652TIP3    H232592   3.373   4.726   1.080 -0.0016  0.5429 -2.2592
 3653TIP3   OH232593   2.944   4.338   0.288  0.4891 -0.5761  0.2391
 3653TIP3    H132594   2.926   4.389   0.209  0.9627 -0.9546 -0.1209
 3653TIP3    H232595   2.868   4.353   0.344  0.6834  0.6262  0.1995
 3654TIP3   OH232596   1.584   5.209   2.308  0.0634 -0.3384 -0.2670
 3654TIP3    H132597   1.623   5.167   2.231 -1.5672 -1.6511 -0.4520
 3654TIP3    H232598   1.508   5.154   2.330  0.3019  0.1496  2.1228
 3655TIP3   OH232599   5.981   3.392   2.017  0.5266 -0.0153  0.0870
 3655TIP3    H132600   5.996   3.485   2.028  0.5241  0.1518 -1.1877
 3655TIP3    H232601   6.052   3.350   2.066  0.3551  0.6419  0.9100
 3656TIP3   OH232602   5.326   1.340   7.601  0.2260  0.5076  0.6029
 3656TIP3    H132603   5.325   1.244   7.596 -0.7746  0.4012  2.1563
 3656TIP3    H232604   5.282   1.360   7.684 -0.4361  2.3413 -0.1450
 3657TIP3   OH232605   1.589   1.085   7.621 -0.1083 -0.4928  0.2846
 3657TIP3    H132606   1.520   1.043   7.672 -1.0093 -0.2394 -0.6926
 3657TIP3    H232607   1.654   1.017   7.608 -0.4483 -0.9075  0.7362
 3658TIP3   OH232608   0.589   4.947   1.847 -0.7423  0.0231 -1.0271
 3658TIP3    H132609   0.683   4.935   1.841 -0.5230  1.9392 -2.4241
 3658TIP3    H232610   0.570   4.941   1.941  0.5549 -1.5214 -0.8198
 3659TIP3   OH232611   4.783   0.035   1.439  1.2279 -0.4099 -0.0487
 3659TIP3    H132612   4.739   0.077   1.513 -1.5968 -1.0218 -1.2616
 3659TIP3    H232613   4.824  -0.042   1.477 -0.5651 -0.9650  0.8798
 3660TIP3   OH232614   5.881   4.278   7.104 -0.5327  0.3088  0.4672
 3660TIP3    H132615   5.834   4.285   7.022  0.4788  1.4002 -0.0613
 3660TIP3    H232616   5.860   4.191   7.138  0.9684 -1.2179 -2.1826
 3661TIP3   OH232617   5.834   6.883   7.674  0.2873  0.0915 -0.5143
 3661TIP3    H132618   5.868   6.949   7.734 -1.0606  0.3297  0.0245
 3661TIP3    H232619   5.766   6.838   7.724 -0.3140 -0.2293 -1.5921
 3662TIP3   OH232620   5.958   6.405   8.105  0.3232 -0.0353 -0.1453
 3662TIP3    H132621   5.948   6.313   8.084 -0.1242  0.4593 -2.3509
 3662TIP3    H232622   5.898   6.450   8.045 -1.1587  1.5903  2.3488
 3663TIP3   OH232623   4.194   2.799   7.930  0.2757 -0.6000 -0.0622
 3663TIP3    H132624   4.209   2.870   7.993  1.6432 -0.8579 -0.0675
 3663TIP3    H232625   4.125   2.832   7.873  1.3495  1.0338 -0.4959
 3664TIP3   OH232626   6.629   2.946   1.698  0.0900 -0.0596 -0.9588
 3664TIP3    H132627   6.641   3.034   1.660 -0.0203  0.5611  0.3981
 3664TIP3    H232628   6.555   2.955   1.757 -1.1488 -1.5613 -2.1840
 3665TIP3   OH232629   2.812   0.579   1.375 -0.3383 -0.3590 -0.5793
 3665TIP3    H132630   2.793   0.559   1.284  2.3586  1.1680 -1.5959
 3665TIP3    H232631   2.809   0.675   1.380  0.5791 -0.3612  0.6524
 3666TIP3   OH232632   2.740   6.593   0.730 -0.4186  0.7033  0.4639
 3666TIP3    H132633   2.754   6.596   0.635 -0.3960  2.7236  0.5024
 3666TIP3    H232634   2.645   6.587   0.741 -0.4568  1.0032  0.3086
 3667TIP3   OH232635   5.847   2.167   0.371  0.3410  0.2057 -0.1095
 3667TIP3    H132636   5.930   2.215   0.366  1.2043 -0.9016  2.2696
 3667TIP3    H232637   5.785   2.230   0.409  0.4702  0.5654 -0.4844
 3668TIP3   OH232638   6.635   3.517   8.043  0.1476 -0.1245 -0.1292
 3668TIP3    H132639   6.672   3.499   7.957 -0.0596  0.2740 -0.3045
 3668TIP3    H232640   6.675   3.599   8.070  1.2752 -0.9298  0.7726
 3669TIP3   OH232641   1.036   4.098   7.979 -0.2251 -0.0805 -0.1941
 3669TIP3    H132642   1.033   4.056   7.893 -2.0385 -0.3055 -0.0611
 3669TIP3    H232643   1.058   4.190   7.959  0.3051 -0.3258 -0.7923
 3670TIP3   OH232644   4.455   5.297   0.004  0.0222  0.2374  0.3847
 3670TIP3    H132645   4.413   5.367   0.053  0.4051 -0.1589  1.3017
 3670TIP3    H232646   4.447   5.324  -0.088  0.4536  1.6411  0.7314
 3671TIP3   OH232647   1.103   5.608   6.480 -0.2512 -0.4397 -0.2491
 3671TIP3    H132648   1.166   5.575   6.415 -0.0533 -0.8197  0.1321
 3671TIP3    H232649   1.158   5.641   6.551 -0.4291  1.0374 -0.7649
 3672TIP3   OH232650   6.589   6.274   1.610 -0.0863  0.3319 -0.2469
 3672TIP3    H132651   6.671   6.299   1.568  0.1349  2.2884  1.1979
 3672TIP3    H232652   6.608   6.278   1.704 -2.2080  2.5434  0.2029
 3673TIP3   OH232653   4.624   0.394   1.111  0.3391  0.5021  0.1218
 3673TIP3    H132654   4.595   0.458   1.176 -0.2270  0.5242 -0.1482
 3673TIP3    H232655   4.625   0.311   1.159 -0.1384  0.5067  0.1447
 3674TIP3   OH232656   3.740   1.521   0.214  0.5549 -0.3406 -0.1030
 3674TIP3    H132657   3.664   1.475   0.178 -0.5008  0.1149  1.4749
 3674TIP3    H232658   3.724   1.526   0.308  1.7568  1.1913  0.0731
 3675TIP3   OH232659   4.777   4.167   1.513  0.0227 -0.5367 -0.4856
 3675TIP3    H132660   4.808   4.112   1.585 -2.7461  0.0226  1.2766
 3675TIP3    H232661   4.845   4.235   1.504  0.7187 -0.9575  1.1953
 3676TIP3   OH232662   3.802   4.879   2.209  0.4291 -0.2248  0.1262
 3676TIP3    H132663   3.723   4.838   2.172 -1.0098  2.4048  0.0595
 3676TIP3    H232664   3.805   4.846   2.299 -0.3284 -0.9392 -0.0956
 3677TIP3   OH232665   4.951   1.593   8.244  0.4728  0.6074 -0.3684
 3677TIP3    H132666   4.919   1.506   8.220  0.4347 -0.3643  2.7769
 3677TIP3    H232667   5.045   1.581   8.257  0.5942  1.2310 -0.6703
 3678TIP3   OH232668   4.161   3.496   7.561 -0.3466 -0.3612  0.0490
 3678TIP3    H132669   4.124   3.520   7.476 -0.6706 -1.2411 -0.0703
 3678TIP3    H232670   4.101   3.536   7.625  0.6785  1.5114 -0.0891
 3679TIP3   OH232671   0.821   6.908   2.567 -0.4824 -0.1897 -0.0926
 3679TIP3    H132672   0.900   6.939   2.611 -0.3511 -1.3432  0.5205
 3679TIP3    H232673   0.853   6.866   2.488 -0.5991  0.5082 -0.5197
 3680TIP3   OH232674   2.891   4.551   2.716 -0.0492 -0.1729 -0.0943
 3680TIP3    H132675   2.973   4.585   2.680  0.4639  0.8842  1.9661
 3680TIP3    H232676   2.826   4.568   2.647  1.0397  0.9539 -0.8772
 3681TIP3   OH232677   0.021   2.018   0.539 -0.1061  0.4591 -0.2049
 3681TIP3    H132678  -0.037   2.083   0.499 -0.6439  0.2638  0.2422
 3681TIP3    H232679   0.048   2.057   0.622 -0.8230 -0.0675  0.2999
 3682TIP3   OH232680   4.290   5.787   0.439 -0.5806  0.0149  0.3637
 3682TIP3    H132681   4.346   5.847   0.488 -1.6759 -0.6536  2.5538
 3682TIP3    H232682   4.285   5.709   0.495 -0.8626 -1.3153 -1.4402
 3683TIP3   OH232683   2.323   5.932   1.256 -0.3998 -0.1319 -0.3258
 3683TIP3    H132684   2.334   5.901   1.346 -2.5511 -1.7817 -0.5386
 3683TIP3    H232685   2.352   6.023   1.258 -1.3646  0.1968  2.2937
 3684TIP3   OH232686   5.307   2.516   7.951  0.2059 -0.1782 -0.2314
 3684TIP3    H132687   5.262   2.592   7.987  0.7988 -0.2394  0.6973
 3684TIP3    H232688   5.237   2.453   7.933 -0.5573  1.3147 -3.1114
 3685TIP3   OH232689   5.284   6.764   2.230  0.1666 -0.2825 -0.4838
 3685TIP3    H132690   5.241   6.679   2.238  0.2784 -0.2690  0.3000
 3685TIP3    H232691   5.325   6.779   2.315 -0.1161  0.7046 -0.5086
 3686TIP3   OH232692   6.797   4.764   7.692 -0.2019 -0.3938 -0.3467
 3686TIP3    H132693   6.790   4.858   7.706  0.7685 -0.6453  2.1819
 3686TIP3    H232694   6.706   4.735   7.681 -0.7364  0.4946  1.4539
 3687TIP3   OH232695   4.534   6.069   2.364  0.6029  0.1848  0.5878
 3687TIP3    H132696   4.577   6.012   2.300  1.1758  0.8160  0.4086
 3687TIP3    H232697   4.517   6.011   2.439 -0.1397 -0.5763 -0.1412
 3688TIP3   OH232698   5.842   0.101   7.208  0.6177 -0.3988  0.1261
 3688TIP3    H132699   5.918   0.115   7.264  0.7734  0.2089 -0.2295
 3688TIP3    H232700   5.839   0.178   7.151 -1.5168  0.7037  1.5648
 3689TIP3   OH232701   5.556   5.247   2.509  0.0941  0.4787  0.3703
 3689TIP3    H132702   5.562   5.337   2.477  0.4513  1.1926  2.3466
 3689TIP3    H232703   5.647   5.222   2.525 -0.0432 -0.0428  0.3444
 3690TIP3   OH232704   3.784   0.945   7.664  0.4071 -0.3335 -0.6377
 3690TIP3    H132705   3.761   0.868   7.613 -0.1967 -0.5654 -0.0313
 3690TIP3    H232706   3.785   1.016   7.600  0.3290 -0.7323 -1.0880
 3691TIP3   OH232707   2.760   1.259   2.499 -0.2996  0.1283 -0.3326
 3691TIP3    H132708   2.786   1.213   2.579  1.3699 -0.7762 -1.3421
 3691TIP3    H232709   2.674   1.223   2.478 -1.0106  0.7696  1.3174
 3692TIP3   OH232710   4.957   0.947   8.322  0.0102  0.3845  1.0245
 3692TIP3    H132711   4.930   0.897   8.244  0.1455 -1.2282  1.9657
 3692TIP3    H232712   4.898   1.021   8.324 -2.7551 -1.6799  1.5847
 3693TIP3   OH232713   6.084   2.670   3.419 -0.1800 -0.0038  0.2414
 3693TIP3    H132714   6.056   2.583   3.447 -2.0753  0.6015  0.3763
 3693TIP3    H232715   6.142   2.700   3.489 -0.7583 -0.5518  0.9716
 3694TIP3   OH232716   5.031   6.479   8.090 -0.2550 -0.4932  0.5695
 3694TIP3    H132717   5.082   6.555   8.116 -0.2507 -0.2269 -0.2135
 3694TIP3    H232718   4.941   6.511   8.083 -0.2109 -0.4894 -0.0323
 3695TIP3   OH232719   6.400   0.239   0.931  0.0006 -0.2743 -0.1026
 3695TIP3    H132720   6.415   0.194   1.014  1.0606 -1.4670 -0.9143
 3695TIP3    H232721   6.480   0.224   0.880 -0.1322  1.4458 -0.9077
 3696TIP3   OH232722   1.918   6.534   0.371 -0.0097 -0.1142 -0.1754
 3696TIP3    H132723   1.999   6.498   0.406 -1.1279 -0.7364  1.9042
 3696TIP3    H232724   1.912   6.496   0.283  2.0479  0.1709 -0.4994
 3697TIP3   OH232725   4.781   2.666   1.353 -0.1936 -0.1576  0.4378
 3697TIP3    H132726   4.707   2.616   1.318  1.1114 -0.2080 -2.4820
 3697TIP3    H232727   4.740   2.735   1.405 -2.1543 -1.7924  1.2057
 3698TIP3   OH232728   2.102   1.247   6.988 -0.4590 -0.0391 -0.5379
 3698TIP3    H132729   2.105   1.228   6.894 -1.0387  1.1576 -0.8247
 3698TIP3    H232730   2.091   1.162   7.030 -0.6513 -0.5434 -1.5887
 3699TIP3   OH232731   5.569   6.393   1.862  0.0463  0.0162  0.1667
 3699TIP3    H132732   5.605   6.401   1.951  0.0380  0.1429  0.1586
 3699TIP3    H232733   5.642   6.361   1.809 -0.1135 -0.6579  0.3377
 3700TIP3   OH232734   3.611   4.582   0.930 -0.0464  0.0299  0.5161
 3700TIP3    H132735   3.652   4.668   0.945  1.4531 -0.7934  1.3955
 3700TIP3    H232736   3.677   4.519   0.958 -0.6815 -1.4614 -1.1536
 3701TIP3   OH232737   3.601   2.455   7.578  0.7329 -0.3743  0.5221
 3701TIP3    H132738   3.550   2.427   7.502 -0.9672 -0.3711  1.6182
 3701TIP3    H232739   3.684   2.485   7.541 -0.9206  1.9335 -1.6093
 3702TIP3   OH232740   3.542   2.625   0.404 -1.2198  0.0245  0.1470
 3702TIP3    H132741   3.579   2.567   0.470  2.3824  1.2476 -0.5610
 3702TIP3    H232742   3.463   2.662   0.445 -0.3694 -0.9326  2.8528
 3703TIP3   OH232743   1.208   6.976   2.063 -0.1904 -0.1009  0.3652
 3703TIP3    H132744   1.191   6.905   2.001  1.8579  0.0643 -0.4874
 3703TIP3    H232745   1.264   7.038   2.014  1.8998 -0.1906  2.4467
 3704TIP3   OH232746   2.377   1.695   0.279 -0.0838 -0.3237 -0.5200
 3704TIP3    H132747   2.310   1.727   0.339  0.7324 -0.6214  0.5671
 3704TIP3    H232748   2.365   1.747   0.199 -0.3551  0.9833  0.3511
 3705TIP3   OH232749   2.848   5.371   2.135  0.3660  0.0612 -0.3931
 3705TIP3    H132750   2.753   5.369   2.123  0.1607  1.9629  0.6133
 3705TIP3    H232751   2.861   5.417   2.218  2.2073  0.6208 -0.9520
 3706TIP3   OH232752   1.018   5.968   3.182  0.0677  0.2091 -0.0613
 3706TIP3    H132753   1.067   5.945   3.261 -1.0484 -0.2920  0.5080
 3706TIP3    H232754   1.010   5.885   3.134 -0.3541  0.2395 -0.0530
 3707TIP3   OH232755   3.170   2.897   0.901  0.0160 -0.2941  0.2505
 3707TIP3    H132756   3.189   2.812   0.941  0.3057 -0.2012  0.3128
 3707TIP3    H232757   3.245   2.952   0.925 -0.9532  0.4860  1.6591
 3708TIP3   OH232758   4.809   3.278   2.549 -0.2486 -0.6359 -0.0532
 3708TIP3    H132759   4.824   3.242   2.462 -3.0857 -1.8972 -0.1449
 3708TIP3    H232760   4.831   3.370   2.541  1.2378 -1.0829 -1.5925
 3709TIP3   OH232761   6.440   5.624   7.561 -0.3966  0.6115  0.4445
 3709TIP3    H132762   6.417   5.532   7.549 -1.6738  0.8662  0.8122
 3709TIP3    H232763   6.417   5.643   7.652 -0.2189  1.3276  0.3443
 3710TIP3   OH232764   6.320   1.375   2.511 -0.1512 -0.2185 -0.1813
 3710TIP3    H132765   6.302   1.431   2.587 -1.0229 -0.0042 -0.5348
 3710TIP3    H232766   6.415   1.375   2.504 -0.1190  1.2399 -0.1803
 3711TIP3   OH232767   5.919   2.713   2.249  0.1535  0.2939 -0.1027
 3711TIP3    H132768   5.897   2.806   2.248  1.4348  0.6212 -0.7355
 3711TIP3    H232769   6.002   2.708   2.296  0.1354 -0.5209 -0.1377
 3712TIP3   OH232770   5.960   6.042   8.305  0.2623  0.1258 -0.5948
 3712TIP3    H132771   5.892   6.073   8.365  0.4784  2.7086 -1.5454
 3712TIP3    H232772   6.042   6.067   8.348  0.4170  1.9850 -1.8759
 3713TIP3   OH232773   0.716   3.816   0.938  0.4921 -0.0235  0.0686
 3713TIP3    H132774   0.712   3.911   0.932  0.3266  0.0043  0.5205
 3713TIP3    H232775   0.735   3.799   1.031  0.3679 -0.4296  0.0226
 3714TIP3   OH232776   4.435   2.278   2.114 -0.1033 -0.1811 -0.1255
 3714TIP3    H132777   4.521   2.237   2.124 -0.0455  0.0294  0.2228
 3714TIP3    H232778   4.423   2.285   2.019  0.5198  0.3367 -0.1688
 3715TIP3   OH232779   3.856   1.118   8.154 -0.3651  0.3085  0.1843
 3715TIP3    H132780   3.846   1.057   8.226 -0.2834  1.5784  1.3132
 3715TIP3    H232781   3.875   1.063   8.078 -2.8098 -1.2632  0.5835
 3716TIP3   OH232782   4.170   0.252   0.991  0.1807  0.1648 -0.0367
 3716TIP3    H132783   4.136   0.274   1.077 -0.3909 -1.0371  0.0545
 3716TIP3    H232784   4.095   0.263   0.932 -0.1728 -1.6148  0.0349
 3717TIP3   OH232785   2.736   0.126   2.400  0.3868 -0.7087 -0.3922
 3717TIP3    H132786   2.645   0.154   2.412  0.6229  1.5678 -2.8244
 3717TIP3    H232787   2.733   0.072   2.321  1.0825 -0.8276 -0.3380
 3718TIP3   OH232788   0.666   2.413   8.363  0.3623 -0.1096  0.4621
 3718TIP3    H132789   0.588   2.400   8.417 -1.1448  1.3479 -1.2428
 3718TIP3    H232790   0.643   2.484   8.303  3.0529  0.4332 -0.0666
 3719TIP3   OH232791   0.462   0.885   0.603 -0.0057 -0.0933  0.3643
 3719TIP3    H132792   0.522   0.832   0.551 -0.3220 -0.1705  0.0773
 3719TIP3    H232793   0.420   0.943   0.540  1.1854  1.3258  0.8253
 3720TIP3   OH232794   4.041   1.332   0.926  0.3508  0.6346  0.6637
 3720TIP3    H132795   4.075   1.243   0.920  1.9646  1.2769 -0.5401
 3720TIP3    H232796   4.097   1.375   0.991  0.4611  1.1289  0.2511
 3721TIP3   OH232797   3.994   1.047   1.872 -0.1250  0.2075  0.1999
 3721TIP3    H132798   3.934   0.989   1.919  2.0032 -1.0414  1.5364
 3721TIP3    H232799   4.024   1.109   1.937 -1.0523  1.7992 -0.8264
 3722TIP3   OH232800   3.505   0.464   0.446 -0.0592 -0.1010 -0.7983
 3722TIP3    H132801   3.522   0.376   0.480 -3.2321 -1.3080 -2.0051
 3722TIP3    H232802   3.484   0.515   0.524 -1.2937 -1.2503 -0.3378
 3723TIP3   OH232803   0.627   1.150   2.192 -0.3850 -0.0236 -0.3254
 3723TIP3    H132804   0.541   1.110   2.175 -0.2496  0.1127 -1.4577
 3723TIP3    H232805   0.625   1.173   2.285 -1.3151 -0.6353 -0.1744
 3724TIP3   OH232806   3.069   5.143   2.075  0.8533 -0.3781  0.1713
 3724TIP3    H132807   3.030   5.158   1.989  0.9763  0.8378  0.3094
 3724TIP3    H232808   2.994   5.140   2.135  0.8684  0.6904  0.2651
 3725TIP3   OH232809   2.626   5.726   2.333  0.4292 -0.1884 -0.2186
 3725TIP3    H132810   2.715   5.691   2.328  0.4749 -0.6828  2.6512
 3725TIP3    H232811   2.570   5.649   2.341  0.2126  0.1710  2.5247
 3726TIP3   OH232812   1.234   5.909   8.010 -0.1847 -0.4374 -0.0607
 3726TIP3    H132813   1.273   5.948   8.088  0.3391 -1.5187  0.2334
 3726TIP3    H232814   1.308   5.896   7.951 -0.5818  0.3894 -0.7643
 3727TIP3   OH232815   2.432   0.576   8.341 -0.0302 -0.4197  0.0140
 3727TIP3    H132816   2.418   0.593   8.248  1.2323 -0.7466 -0.2428
 3727TIP3    H232817   2.366   0.630   8.385  0.7999  1.4833 -0.9673
 3728TIP3   OH232818   6.160   1.029   1.194  0.3157  0.1091 -0.0063
 3728TIP3    H132819   6.246   0.994   1.169 -0.1324 -0.0257 -1.4263
 3728TIP3    H232820   6.157   1.117   1.156 -0.8208 -0.5215 -1.4753
 3729TIP3   OH232821   6.090   0.818   7.833  0.1047  0.0891 -0.2972
 3729TIP3    H132822   6.004   0.787   7.860  0.6702 -0.4905  0.9309
 3729TIP3    H232823   6.152   0.765   7.884  1.1409  1.7898  0.3139
 3730TIP3   OH232824   5.368   0.841   0.534  0.3145  0.3610  0.6146
 3730TIP3    H132825   5.341   0.803   0.450  0.2942 -1.2335  1.3027
 3730TIP3    H232826   5.336   0.931   0.531 -1.4203 -0.2425 -0.2993
 3731TIP3   OH232827   2.901   2.113   0.635 -0.3961 -0.1264 -0.3023
 3731TIP3    H132828   2.816   2.097   0.675 -0.8457  1.8333 -0.3875
 3731TIP3    H232829   2.882   2.152   0.550  0.5366  2.1854  0.4811
 3732TIP3   OH232830   1.714   3.761   8.349 -0.4032 -0.0862  0.6863
 3732TIP3    H132831   1.758   3.788   8.268 -0.8701 -2.4930 -0.4587
 3732TIP3    H232832   1.713   3.665   8.345 -0.5538 -0.2719  3.5255
 3733TIP3   OH232833   4.701   3.320   1.612 -0.0945  0.3260  0.3298
 3733TIP3    H132834   4.661   3.403   1.585  1.4418  0.8487 -0.4190
 3733TIP3    H232835   4.717   3.273   1.531 -1.4595 -0.9944  0.7744
 3734TIP3   OH232836   4.134   2.992   0.804 -0.2271 -0.0701 -0.3339
 3734TIP3    H132837   4.149   3.031   0.718 -0.1270 -0.3053 -0.4230
 3734TIP3    H232838   4.166   3.058   0.866 -0.0228 -0.0267 -0.4855
 3735TIP3   OH232839   6.913   5.605   6.563  0.6634 -0.2792  0.6998
 3735TIP3    H132840   6.895   5.661   6.639  1.0140  2.1010 -0.8610
 3735TIP3    H232841   6.848   5.630   6.498  2.2957  0.0613 -0.8809
 3736TIP3   OH232842   6.185   5.935   7.864  0.0755 -0.3628 -0.4417
 3736TIP3    H132843   6.128   5.988   7.807  1.7824  0.4476 -1.4678
 3736TIP3    H232844   6.124   5.887   7.920 -1.6074  1.6288 -0.4189
 3737TIP3   OH232845   4.791   2.049   7.624 -0.1960  0.4444  0.1183
 3737TIP3    H132846   4.796   1.957   7.598 -1.2408  0.6918 -1.0610
 3737TIP3    H232847   4.753   2.048   7.712  0.1846 -0.2560  0.2817
 3738TIP3   OH232848   6.758   5.197   7.136  0.9277  0.0672  0.2950
 3738TIP3    H132849   6.710   5.235   7.209  2.5916  2.2784  0.3383
 3738TIP3    H232850   6.729   5.106   7.133 -1.4054  0.6669  1.7951
 3739TIP3   OH232851   3.618   5.028   1.839  0.0581  0.1831 -0.5740
 3739TIP3    H132852   3.629   4.988   1.753  1.9390 -0.7225  0.0590
 3739TIP3    H232853   3.587   5.117   1.819  0.3946 -0.0202 -2.1793
 3740TIP3   OH232854   6.770   4.607   7.005  0.0204 -0.1042  0.1793
 3740TIP3    H132855   6.801   4.589   6.916 -0.3168 -0.3575  0.1103
 3740TIP3    H232856   6.805   4.535   7.057  1.7154  0.9678  0.6072
 3741TIP3   OH232857   0.284   6.748   6.679  0.6048 -0.2793  0.3172
 3741TIP3    H132858   0.280   6.681   6.610  1.7034  0.6500 -0.7016
 3741TIP3    H232859   0.375   6.744   6.710  1.5751  2.5641 -1.7381
 3742TIP3   OH232860   1.023   0.055   1.513 -0.0436  0.2234 -0.1579
 3742TIP3    H132861   1.017  -0.035   1.481  1.3266  0.1384 -0.2498
 3742TIP3    H232862   1.053   0.046   1.604 -0.8878  0.5609  0.1597
 3743TIP3   OH232863   6.665   1.360   6.893 -0.4035  0.5896  0.3733
 3743TIP3    H132864   6.604   1.293   6.927  0.1615 -0.2990 -0.3018
 3743TIP3    H232865   6.607   1.426   6.855 -0.9918 -0.5670 -0.8672
 3744TIP3   OH232866   4.939   4.006   0.146 -0.7578  0.3090 -0.6894
 3744TIP3    H132867   4.942   4.081   0.086 -1.6395 -0.8833 -2.2900
 3744TIP3    H232868   4.874   4.031   0.212  0.3644  1.7179 -0.0369
 3745TIP3   OH232869   6.392   2.046   1.931  0.2396  0.8219 -0.7339
 3745TIP3    H132870   6.486   2.037   1.916  0.3444  0.3502  0.1224
 3745TIP3    H232871   6.385   2.072   2.023 -0.5205 -1.6426 -0.0088
 3746TIP3   OH232872   6.783   1.836   6.860 -0.4403 -0.0525  0.3116
 3746TIP3    H132873   6.781   1.925   6.895 -0.5072 -0.2413  0.7989
 3746TIP3    H232874   6.876   1.818   6.846 -0.1320 -0.9231  2.9179
 3747TIP3   OH232875   1.153   0.443   1.744  0.2871 -0.0841 -0.6914
 3747TIP3    H132876   1.216   0.372   1.759  1.1746  0.8108 -0.1128
 3747TIP3    H232877   1.205   0.523   1.751 -1.1469  0.7535  1.2067
 3748TIP3   OH232878   0.780   1.967   1.563 -0.1465  0.0938  0.6632
 3748TIP3    H132879   0.780   1.871   1.559  1.9259  0.1077 -1.7331
 3748TIP3    H232880   0.716   1.993   1.497  1.7772  0.3126 -1.1868
 3749TIP3   OH232881   6.876   0.381   2.438 -0.2006 -0.3993 -0.4077
 3749TIP3    H132882   6.925   0.313   2.484  0.8693  0.6062 -0.0065
 3749TIP3    H232883   6.784   0.360   2.455  0.0926 -1.7573 -0.3384
 3750TIP3   OH232884   6.053   1.444   8.168  0.3637  0.0850  0.2629
 3750TIP3    H132885   6.051   1.491   8.251 -1.0124 -0.0932  0.3688
 3750TIP3    H232886   5.960   1.427   8.149  0.7474 -1.3337 -0.4678
 3751TIP3   OH232887   4.167   2.621   7.580  0.5041  0.7533  0.1023
 3751TIP3    H132888   4.159   2.717   7.584  0.1310  0.6720  2.3272
 3751TIP3    H232889   4.077   2.590   7.582  0.6545  0.3262  2.4992
 3752TIP3   OH232890   4.991   5.079   1.254  0.0496 -0.1542  0.9881
 3752TIP3    H132891   5.026   5.036   1.176  0.7121 -0.8366  1.6498
 3752TIP3    H232892   5.063   5.132   1.287 -0.3435  0.4135  0.9415
 3753TIP3   OH232893   6.797   3.004   7.571 -0.4320  0.1011 -0.7139
 3753TIP3    H132894   6.876   3.014   7.519 -0.4723 -0.5069 -0.9017
 3753TIP3    H232895   6.726   3.004   7.507 -0.4272 -1.4277 -0.7643
 3754TIP3   OH232896   0.385   2.412   1.190 -0.4173 -0.8995 -0.7183
 3754TIP3    H132897   0.404   2.356   1.115  2.4682 -0.5723 -0.3457
 3754TIP3    H232898   0.445   2.381   1.258  0.5496  1.9119 -0.1793
 3755TIP3   OH232899   3.893   0.442   2.599  0.1032 -0.3193 -0.1223
 3755TIP3    H132900   3.858   0.456   2.687 -0.8006 -1.7835 -0.2092
 3755TIP3    H232901   3.985   0.422   2.613  0.5868  1.9513  0.2575
 3756TIP3   OH232902   6.725   0.777   7.729  0.1700 -0.0311  0.1565
 3756TIP3    H132903   6.735   0.789   7.824 -0.8342 -0.3995  0.3177
 3756TIP3    H232904   6.699   0.685   7.720  0.9539 -0.1990 -0.5408
 3757TIP3   OH232905   3.383   6.806   1.181  0.1981  0.2306 -0.2901
 3757TIP3    H132906   3.459   6.842   1.135 -0.0645  1.7234  0.3881
 3757TIP3    H232907   3.325   6.881   1.194 -0.5271 -0.5056  0.9070
 3758TIP3   OH232908   5.094   2.458   0.417  0.2686  0.9273 -0.0756
 3758TIP3    H132909   5.178   2.454   0.371 -0.8361  2.8181 -2.5020
 3758TIP3    H232910   5.096   2.384   0.478  2.7469 -0.4382 -1.6400
 3759TIP3   OH232911   5.332   1.838   2.590 -0.5833  0.1833  0.2442
 3759TIP3    H132912   5.276   1.905   2.549 -2.9662 -1.9334 -0.1849
 3759TIP3    H232913   5.293   1.825   2.677 -0.0803 -0.5661  0.3615
 3760TIP3   OH232914   6.985   3.553   7.147  0.5665 -0.3640 -0.5824
 3760TIP3    H132915   6.959   3.472   7.190  0.3698  0.3036  0.6054
 3760TIP3    H232916   6.987   3.531   7.054 -0.1858 -1.5313 -0.3467
 3761TIP3   OH232917   6.913   1.000   0.250  0.0846 -0.2491 -0.2461
 3761TIP3    H132918   6.927   1.077   0.195 -0.4918  0.8601  1.0874
 3761TIP3    H232919   6.981   1.006   0.317 -0.1677 -0.7159  0.0585
 3762TIP3   OH232920   0.300   6.768   1.148 -0.5563  0.0221 -0.2830
 3762TIP3    H132921   0.224   6.767   1.091 -0.4813  1.4723 -0.4484
 3762TIP3    H232922   0.302   6.857   1.184 -0.1869 -0.6316  1.4228
 3763TIP3   OH232923   5.457   5.607   2.373 -0.0868 -0.1952  0.1653
 3763TIP3    H132924   5.457   5.606   2.277  1.3427  3.7983 -0.0867
 3763TIP3    H232925   5.543   5.571   2.397  0.8539  1.5922 -0.3311
 3764TIP3   OH232926   4.183   2.740   0.897  0.3192 -0.3201  0.1789
 3764TIP3    H132927   4.156   2.736   0.989 -0.2597 -0.5163  0.0026
 3764TIP3    H232928   4.169   2.832   0.872  0.2828 -0.3125  0.2277
 3765TIP3   OH232929   4.187   6.386   1.588  0.3680 -0.2169  0.3714
 3765TIP3    H132930   4.277   6.410   1.564  1.3185 -0.8306  2.9267
 3765TIP3    H232931   4.133   6.418   1.516  2.5030  1.3392 -0.6440
 3766TIP3   OH232932   0.871   3.998   1.217  0.1055  0.1831 -0.5964
 3766TIP3    H132933   0.817   3.982   1.294 -0.0456  0.9610 -0.5321
 3766TIP3    H232934   0.960   3.976   1.245 -0.1284 -0.8826 -0.6348
 3767TIP3   OH232935   0.506   3.642   1.008 -0.5888 -0.3265  0.4298
 3767TIP3    H132936   0.559   3.563   1.022 -0.2954 -0.0083  1.1531
 3767TIP3    H232937   0.571   3.710   0.991 -0.7639  0.0574  1.2697
 3768TIP3   OH232938   0.916   2.524   1.373  0.6624 -0.3914  0.3687
 3768TIP3    H132939   0.854   2.452   1.370  1.6520 -1.2329 -0.8079
 3768TIP3    H232940   0.891   2.581   1.300  0.8055 -0.3426  0.3560
 3769TIP3   OH232941   1.694   2.849   1.295  0.1415  0.5390  0.4733
 3769TIP3    H132942   1.646   2.824   1.216  1.9499  1.7045 -1.0977
 3769TIP3    H232943   1.735   2.933   1.272  0.0110  1.3500  2.9910
 3770TIP3   OH232944   2.800   6.795   0.326  0.3191 -0.2659 -0.0356
 3770TIP3    H132945   2.727   6.738   0.301  0.7842 -0.4370 -1.0935
 3770TIP3    H232946   2.859   6.738   0.376 -0.1366 -0.1947  0.5918
 3771TIP3   OH232947   1.417   2.879   1.415  0.3854  0.5663 -0.3627
 3771TIP3    H132948   1.508   2.852   1.402  0.8438  2.4216 -1.2498
 3771TIP3    H232949   1.419   2.935   1.493 -0.0024  0.6356 -0.4003
 3772TIP3   OH232950   1.142   5.018   1.370 -0.0194  0.2354  0.2546
 3772TIP3    H132951   1.069   4.965   1.402 -1.5808  1.5544 -0.9405
 3772TIP3    H232952   1.104   5.103   1.352  1.1710  0.2477 -2.9149
 3773TIP3   OH232953   5.376   1.793   1.827  0.2991  0.3232 -0.1321
 3773TIP3    H132954   5.433   1.870   1.833  0.8888 -0.0431 -0.8022
 3773TIP3    H232955   5.394   1.757   1.740  0.4184 -0.8639  0.3695
 3774TIP3   OH232956   5.771   2.924   0.821  0.3877 -0.4649 -0.0823
 3774TIP3    H132957   5.842   2.985   0.842 -0.9525  0.4574  2.0899
 3774TIP3    H232958   5.814   2.838   0.817  1.4151 -0.2613  3.3346
 3775TIP3   OH232959   2.977   0.588   0.273  0.4067 -0.4238  0.0155
 3775TIP3    H132960   3.061   0.633   0.272  0.2157 -0.0512  0.4698
 3775TIP3    H232961   2.915   0.651   0.237 -0.0138  0.0006  1.4191
 3776TIP3   OH232962   0.836   1.085   0.190  0.1299 -0.1027  0.7232
 3776TIP3    H132963   0.761   1.117   0.240 -0.0896  1.3431 -0.4477
 3776TIP3    H232964   0.854   0.999   0.226 -1.1610  0.1324  2.0307
 3777TIP3   OH232965   5.661   3.805   0.071 -0.2922  0.0833 -0.7535
 3777TIP3    H132966   5.587   3.758   0.109  0.1262 -1.4863 -1.7816
 3777TIP3    H232967   5.714   3.737   0.029  1.6361  1.1835 -0.2363
 3778TIP3   OH232968   2.380   3.341   7.697  1.0130  0.0859 -0.3110
 3778TIP3    H132969   2.424   3.302   7.622  1.0964  0.9422 -0.7247
 3778TIP3    H232970   2.339   3.420   7.662  1.5254  0.7980  0.6531
 3779TIP3   OH232971   1.537   2.957   1.662 -0.3540  0.6449  0.3204
 3779TIP3    H132972   1.572   3.032   1.711  0.1483  0.6305 -0.0072
 3779TIP3    H232973   1.598   2.886   1.679 -1.6813 -0.1897  1.9390
 3780TIP3   OH232974   2.951   3.682   1.840 -0.1610  0.0778  0.3609
 3780TIP3    H132975   2.900   3.755   1.805  1.8828  1.6587  0.4454
 3780TIP3    H232976   2.953   3.697   1.935  0.7986  0.3437  0.3186
 3781TIP3   OH232977   4.263   3.865   0.683  0.0603  0.2306  0.0052
 3781TIP3    H132978   4.349   3.898   0.656  0.0458  0.4773  0.2587
 3781TIP3    H232979   4.279   3.822   0.767 -0.2294  1.0834  0.5023
 3782TIP3   OH232980   0.199   0.850   7.250  0.2652 -0.3604  0.1251
 3782TIP3    H132981   0.126   0.799   7.215  1.4063 -1.8452 -0.1862
 3782TIP3    H232982   0.265   0.847   7.181  0.2219  1.9918 -0.1190
 3783TIP3   OH232983   6.316   4.164   3.037 -0.0187  0.3578  0.0691
 3783TIP3    H132984   6.309   4.135   3.128 -1.9513 -1.8913 -0.6921
 3783TIP3    H232985   6.226   4.163   3.004  0.6264  1.1995 -1.8528
 3784TIP3   OH232986   4.530   0.784   7.762  0.1573 -0.1629  0.2264
 3784TIP3    H132987   4.542   0.703   7.712  1.8790  0.5753 -0.6387
 3784TIP3    H232988   4.481   0.842   7.704 -0.4159 -0.3064  0.5565
 3785TIP3   OH232989   0.050   4.708   0.619  0.0853  0.1011  0.1231
 3785TIP3    H132990  -0.044   4.692   0.616 -0.4040  2.6418 -0.8072
 3785TIP3    H232991   0.060   4.797   0.585  3.1490 -1.2849 -3.3344
 3786TIP3   OH232992   0.964   1.692   2.118 -0.5584  0.3497  0.2503
 3786TIP3    H132993   0.994   1.612   2.161 -0.0403 -0.1942 -1.0550
 3786TIP3    H232994   1.013   1.694   2.036 -0.6577  1.9546  0.2121
 3787TIP3   OH232995   1.540   1.690   7.694 -0.2797 -0.0317 -0.0396
 3787TIP3    H132996   1.579   1.739   7.621  1.4515 -1.5989 -0.2619
 3787TIP3    H232997   1.449   1.718   7.697 -0.2910  0.4035 -2.5416
 3788TIP3   OH232998   3.927   1.765   2.033 -0.6927 -0.0611  0.0844
 3788TIP3    H132999   3.895   1.739   2.119  1.7262  1.0813  1.4338
 3788TIP3    H233000   3.917   1.860   2.031 -0.3652 -0.0317 -0.7486
 3789TIP3   OH233001   4.894   2.426   8.090 -0.3531 -0.0951  0.8592
 3789TIP3    H133002   4.848   2.389   8.166 -0.3272  1.3459  1.6000
 3789TIP3    H233003   4.825   2.450   8.029 -0.3654 -1.4725  0.2773
 3790TIP3   OH233004   2.678   6.556   7.605  0.3684 -0.4539 -0.1302
 3790TIP3    H133005   2.643   6.484   7.657  1.3496 -1.2193 -0.5064
 3790TIP3    H233006   2.600   6.600   7.571 -0.2577 -0.6898  0.9562
 3791TIP3   OH233007   2.342   0.484   8.004 -0.6725 -0.0601 -0.0127
 3791TIP3    H133008   2.336   0.567   8.051 -0.0487  0.3582 -0.6479
 3791TIP3    H233009   2.252   0.450   8.003 -0.8534  0.3851  0.6443
 3792TIP3   OH233010   3.030   1.946   7.468 -0.0165  0.2749 -0.7411
 3792TIP3    H133011   2.960   1.950   7.403 -0.7257  0.1819  0.0021
 3792TIP3    H233012   3.044   2.037   7.495 -0.7799  0.1595  0.0724
 3793TIP3   OH233013   3.725   5.343   0.285 -0.0904 -0.2396 -0.3581
 3793TIP3    H133014   3.721   5.248   0.297  1.1018 -0.5219 -1.9526
 3793TIP3    H233015   3.773   5.375   0.362  0.8401 -1.1009 -0.5657
 3794TIP3   OH233016   0.011   3.579   1.989  0.2149 -0.1767  0.1720
 3794TIP3    H133017  -0.046   3.505   2.009  0.1841 -0.0074  0.7150
 3794TIP3    H233018   0.025   3.573   1.894  1.0814 -1.4933  0.3599
 3795TIP3   OH233019   1.680   3.928   2.638  0.0138  0.0473  0.5109
 3795TIP3    H133020   1.626   3.969   2.705 -1.3047 -1.1549  0.2269
 3795TIP3    H233021   1.701   3.842   2.673  1.0445  0.1765  0.2443
 3796TIP3   OH233022   2.969   4.608   7.807 -0.4639  0.1937 -0.8014
 3796TIP3    H133023   2.890   4.627   7.857  0.4256  0.6263  0.4820
 3796TIP3    H233024   2.938   4.599   7.717 -1.5829  3.3912 -0.8521
 3797TIP3   OH233025   2.257   5.089   1.654 -0.0272  0.3296 -0.3921
 3797TIP3    H133026   2.206   5.145   1.713 -1.6258  0.2275 -1.6070
 3797TIP3    H233027   2.195   5.063   1.586  0.8337 -2.3739 -0.2695
 3798TIP3   OH233028   6.466   6.255   0.045 -0.4372  0.0920 -0.0904
 3798TIP3    H133029   6.486   6.275  -0.047  0.7643  1.0656  0.3646
 3798TIP3    H233030   6.496   6.165   0.057  0.7139  0.4295 -0.2994
 3799TIP3   OH233031   3.776   2.908   0.120  0.0195 -0.0668 -0.1115
 3799TIP3    H133032   3.856   2.860   0.098 -1.2811 -2.9657  0.9124
 3799TIP3    H233033   3.748   2.948   0.037  1.6063 -0.4194 -0.8536
 3800TIP3   OH233034   6.294   4.843   0.918  0.9047 -0.1624  0.1794
 3800TIP3    H133035   6.295   4.908   0.988 -0.9868  0.3861 -0.2666
 3800TIP3    H233036   6.232   4.876   0.854  0.3266 -2.1243 -0.3595
 3801TIP3   OH233037   0.931   1.456   1.481  0.3289 -0.0160 -0.5993
 3801TIP3    H133038   0.992   1.508   1.428  2.1605 -2.2205 -0.8351
 3801TIP3    H233039   0.907   1.383   1.424 -0.3976 -0.6242  0.4633
 3802TIP3   OH233040   0.350   2.447   0.017 -0.0454  0.2761 -0.8040
 3802TIP3    H133041   0.367   2.433   0.110 -1.4253 -2.7560 -0.8637
 3802TIP3    H233042   0.310   2.534   0.012  1.3921  1.1092  1.1882
 3803TIP3   OH233043   4.762   0.916   1.650 -0.0121 -0.1575  0.2341
 3803TIP3    H133044   4.751   0.986   1.714  0.5085  0.6712 -0.5548
 3803TIP3    H233045   4.779   0.838   1.702 -0.2015  0.3736  1.1176
 3804TIP3   OH233046   4.828   1.577   1.119  0.0328  0.2321  0.5537
 3804TIP3    H133047   4.780   1.619   1.047  1.0334 -0.4833 -0.5824
 3804TIP3    H233048   4.901   1.636   1.135 -0.0376  0.2532  0.7886
 3805TIP3   OH233049   6.829   1.533   0.132  0.3824  0.4141 -0.8284
 3805TIP3    H133050   6.805   1.582   0.054 -0.8710  0.2037 -0.5875
 3805TIP3    H233051   6.764   1.464   0.139  1.0379 -0.1552 -0.1224
 3806TIP3   OH233052   4.595   4.796   8.056  0.0832  0.2362 -0.1106
 3806TIP3    H133053   4.623   4.748   8.133 -0.1127 -2.4921 -1.6135
 3806TIP3    H233054   4.516   4.751   8.026 -0.1674  1.5571 -1.5912
 3807TIP3   OH233055   4.405   2.166   1.845  0.4410  0.4401 -0.5141
 3807TIP3    H133056   4.428   2.080   1.808  0.9725  0.0675  0.6345
 3807TIP3    H233057   4.448   2.229   1.787  1.5405 -0.1455 -0.3702
 3808TIP3   OH233058   3.030   2.888   2.643 -0.3902 -0.4204  0.6101
 3808TIP3    H133059   2.935   2.890   2.651 -0.2413 -0.8094  3.5831
 3808TIP3    H233060   3.061   2.945   2.712  1.5614 -0.5118 -0.1379
 3809TIP3   OH233061   1.174   1.230   2.809  0.9016 -0.1829  0.1911
 3809TIP3    H133062   1.246   1.277   2.768  0.1239  0.2620 -0.7036
 3809TIP3    H233063   1.122   1.298   2.852 -0.0742 -0.2111 -0.8741
 3810TIP3   OH233064   2.747   1.109   8.184 -0.0880 -0.0315  0.1466
 3810TIP3    H133065   2.780   1.186   8.138 -0.6926 -0.1700 -0.5362
 3810TIP3    H233066   2.652   1.112   8.172 -0.1500 -0.7099  0.3811
 3811TIP3   OH233067   1.976   6.949   1.179  0.2673  0.3085  0.3692
 3811TIP3    H133068   2.021   6.931   1.262  0.0310  0.6919  0.5854
 3811TIP3    H233069   1.901   7.003   1.204 -0.2308 -0.1995 -0.0041
 3812TIP3   OH233070   1.317   4.839   8.023  0.2775 -0.1793  0.1931
 3812TIP3    H133071   1.325   4.754   7.979 -0.7952  0.5864 -1.6006
 3812TIP3    H233072   1.404   4.878   8.018  0.3959 -0.5139 -0.4266
 3813TIP3   OH233073   3.207   5.295   0.588  0.5980 -0.1514 -0.3455
 3813TIP3    H133074   3.172   5.212   0.620 -1.3801  0.8182  0.1276
 3813TIP3    H233075   3.301   5.280   0.581  0.7048 -1.5248  2.6023
 3814TIP3   OH233076   1.192   4.159   1.280  0.2391 -0.3882  0.1500
 3814TIP3    H133077   1.210   4.080   1.331  0.6563 -0.9544 -0.8426
 3814TIP3    H233078   1.155   4.220   1.343 -0.1271 -1.3891  0.9342
 3815TIP3   OH233079   6.527   1.841   7.645 -0.0552 -0.2191  0.4802
 3815TIP3    H133080   6.438   1.865   7.668  0.4380  0.5319  1.6531
 3815TIP3    H233081   6.566   1.808   7.726  1.1225  0.6567  0.3031
 3816TIP3   OH233082   6.373   6.226   7.181  0.1413 -0.0210  0.6364
 3816TIP3    H133083   6.419   6.294   7.230  0.0157 -0.7079  1.7312
 3816TIP3    H233084   6.284   6.226   7.217 -0.9232  1.5517 -1.7142
 3817TIP3   OH233085   4.689   5.299   0.899 -0.4450 -0.6090  0.3265
 3817TIP3    H133086   4.736   5.217   0.891  1.1412  0.3676 -0.8155
 3817TIP3    H233087   4.735   5.347   0.968 -0.0167  0.1716 -0.4857
 3818TIP3   OH233088   6.350   6.231   1.855 -0.1811 -0.0514  0.1699
 3818TIP3    H133089   6.420   6.250   1.917 -1.1187 -0.3206  1.3591
 3818TIP3    H233090   6.291   6.307   1.862 -0.5128 -0.2854 -0.0663
 3819TIP3   OH233091   6.960   3.235   2.270 -0.3904 -0.0514  0.3528
 3819TIP3    H133092   7.024   3.164   2.277 -1.9062 -1.4008  1.2027
 3819TIP3    H233093   7.005   3.311   2.305  0.4794 -1.1527  1.7203
 3820TIP3   OH233094   3.108   7.018   1.783  0.7748 -0.2324  0.7256
 3820TIP3    H133095   3.153   6.978   1.709  0.5590 -0.2989  0.6287
 3820TIP3    H233096   3.028   6.966   1.793  1.1852 -0.7348  1.5096
 3821TIP3   OH233097   5.067   6.590   2.584  0.0765  0.8198  0.1155
 3821TIP3    H133098   5.159   6.567   2.574  0.1226  1.5471 -1.5582
 3821TIP3    H233099   5.020   6.518   2.541 -0.2741 -0.4280  2.4621
 3822TIP3   OH233100   3.120   2.497   2.019  0.5422 -0.2999  0.1879
 3822TIP3    H133101   3.090   2.447   1.942 -0.9323  1.3703 -0.3717
 3822TIP3    H233102   3.089   2.446   2.093 -0.6209 -0.4477 -0.3694
 3823TIP3   OH233103   4.647   2.580   7.896 -0.1535  0.3619  0.4778
 3823TIP3    H133104   4.651   2.633   7.817  0.1267  2.0088  1.5483
 3823TIP3    H233105   4.641   2.644   7.968  2.7872 -0.9181  2.0234
 3824TIP3   OH233106   4.342   7.012   1.747 -0.1120 -0.0810  0.0384
 3824TIP3    H133107   4.278   6.952   1.787 -1.4624  0.0806 -1.7620
 3824TIP3    H233108   4.291   7.089   1.723  1.4045  1.4173  1.3786
 3825TIP3   OH233109   1.117   3.466   2.780  0.1254  0.1736  0.0680
 3825TIP3    H133110   1.137   3.548   2.735 -1.5002  0.3940 -0.3170
 3825TIP3    H233111   1.075   3.493   2.862  0.8979 -0.2645  0.6216
 3826TIP3   OH233112   6.803   4.824   2.105 -0.0510  0.1411 -0.0477
 3826TIP3    H133113   6.803   4.739   2.148  2.3428 -1.3201 -2.5823
 3826TIP3    H233114   6.766   4.808   2.018 -0.8165  2.0178 -0.1244
 3827TIP3   OH233115   1.544   5.192   0.571  0.6134  0.4198 -0.0850
 3827TIP3    H133116   1.615   5.208   0.509  1.4640 -0.9971  0.4948
 3827TIP3    H233117   1.546   5.268   0.630  1.8896  0.2156  0.1505
 3828TIP3   OH233118   5.192   5.180   2.451 -0.0807  0.0561 -0.3024
 3828TIP3    H133119   5.193   5.102   2.396 -1.3025 -1.0248  1.1228
 3828TIP3    H233120   5.105   5.181   2.490  0.4595  1.2231  0.9754
 3829TIP3   OH233121   1.739   1.166   1.171 -0.6830  0.0880  0.1859
 3829TIP3    H133122   1.778   1.250   1.149  1.1158 -0.6958  0.2493
 3829TIP3    H233123   1.802   1.101   1.141 -1.5390 -1.2215  1.1080
 3830TIP3   OH233124   5.778   4.246   8.080  0.1549 -0.5926 -0.3281
 3830TIP3    H133125   5.835   4.315   8.114 -1.7342  0.7493  0.2349
 3830TIP3    H233126   5.810   4.166   8.124  0.1444  0.4967  1.8040
 3831TIP3   OH233127   1.265   0.903   0.795  0.2254 -0.1408  0.4147
 3831TIP3    H133128   1.206   0.854   0.851  1.2012 -1.3218  0.4617
 3831TIP3    H233129   1.291   0.840   0.727 -2.4415  1.7337 -2.6422
 3832TIP3   OH233130   1.777   1.571   0.272  0.0915 -0.3119 -0.4060
 3832TIP3    H133131   1.847   1.580   0.207  0.7523 -0.2876  0.2921
 3832TIP3    H233132   1.787   1.648   0.328 -0.4239 -0.3730 -0.2241
 3833TIP3   OH233133   4.363   5.726   7.569 -0.4980  0.0382 -0.1578
 3833TIP3    H133134   4.401   5.732   7.481 -0.0414 -0.3959  0.0064
 3833TIP3    H233135   4.303   5.652   7.564 -0.5704  0.0963 -0.1432
 3834TIP3   OH233136   6.534   3.982   3.444 -0.6272  0.0545 -0.5684
 3834TIP3    H133137   6.525   3.919   3.373  1.1952 -1.9740  0.8634
 3834TIP3    H233138   6.479   3.946   3.515 -1.1792  1.2069 -0.3861
 3835TIP3   OH233139   3.380   4.029   0.487 -0.7457  0.4469 -0.0210
 3835TIP3    H133140   3.339   4.115   0.492 -0.9713  0.3759 -0.5632
 3835TIP3    H233141   3.426   4.020   0.570  0.3973  1.6652 -0.4704
 3836TIP3   OH233142   4.164   5.358   1.426  0.4405  0.1278  0.3090
 3836TIP3    H133143   4.085   5.401   1.459  0.1212  0.4856 -0.8626
 3836TIP3    H233144   4.211   5.332   1.504 -0.9004 -0.2053  1.0432
 3837TIP3   OH233145   2.471   3.538   1.658  0.2409  0.3316  0.2597
 3837TIP3    H133146   2.554   3.497   1.634  0.2314  0.2463  0.3715
 3837TIP3    H233147   2.440   3.488   1.733  1.7605  2.4638  2.4549
 3838TIP3   OH233148   4.292   1.483   0.043  0.0160  0.6248  0.4562
 3838TIP3    H133149   4.282   1.388   0.048 -0.3487  0.4921 -1.9192
 3838TIP3    H233150   4.202   1.516   0.048  0.1199  0.8519  0.9330
 3839TIP3   OH233151   0.524   4.035   2.552 -0.3841  0.1829 -0.0529
 3839TIP3    H133152   0.585   3.997   2.614  0.5256  1.4910 -0.1203
 3839TIP3    H233153   0.443   4.047   2.602  0.5369  1.8610  1.1313
 3840TIP3   OH233154   3.020   3.679   2.469  0.0799  0.0927  0.3076
 3840TIP3    H133155   3.059   3.746   2.526 -1.6762  1.6962 -0.2860
 3840TIP3    H233156   2.958   3.727   2.415 -2.1765 -2.2030  0.6922
 3841TIP3   OH233157   1.714   2.250   1.766  0.2243  0.6071  0.3031
 3841TIP3    H133158   1.788   2.200   1.732 -1.6945 -0.1437 -3.2413
 3841TIP3    H233159   1.649   2.184   1.789 -0.2101  1.3200  1.1872
 3842TIP3   OH233160   5.480   3.906   7.919 -0.6881 -1.1831 -0.3292
 3842TIP3    H133161   5.557   3.853   7.897  0.4682 -0.6327  2.0580
 3842TIP3    H233162   5.512   3.996   7.914 -0.6182 -0.9926  2.2896
 3843TIP3   OH233163   5.714   0.346   1.201 -0.1405 -0.3132  0.2833
 3843TIP3    H133164   5.670   0.421   1.161  0.0401 -0.2919  0.1232
 3843TIP3    H233165   5.806   0.356   1.175  0.1901  0.3206  1.6231
 3844TIP3   OH233166   5.756   5.396   7.840 -0.6436 -0.2318 -0.9974
 3844TIP3    H133167   5.678   5.450   7.824  1.3090  2.5617 -1.7903
 3844TIP3    H233168   5.786   5.424   7.926  0.6277  0.3005 -1.5931
 3845TIP3   OH233169   3.457   2.427   0.207 -0.3518 -0.2581 -0.2572
 3845TIP3    H133170   3.477   2.492   0.274 -0.4255 -0.4542 -0.0471
 3845TIP3    H233171   3.438   2.479   0.128 -1.0753  0.0062  0.0801
 3846TIP3   OH233172   6.700   0.680   0.015  0.1601  0.0879  0.2064
 3846TIP3    H133173   6.624   0.725   0.052 -1.1513 -0.3651 -1.7510
 3846TIP3    H233174   6.668   0.591  -0.001  2.1499 -1.1273  2.3435
 3847TIP3   OH233175   6.679   4.365   3.187  0.3748 -0.3015  0.4454
 3847TIP3    H133176   6.708   4.276   3.167  0.9947  0.0953 -0.4728
 3847TIP3    H233177   6.645   4.359   3.276 -2.6330 -2.1862 -0.6866
 3848TIP3   OH233178   5.153   4.567   2.353 -0.4131 -0.2197 -0.2234
 3848TIP3    H133179   5.185   4.504   2.417  0.1474 -0.8820 -1.1195
 3848TIP3    H233180   5.221   4.634   2.349 -0.2872 -0.3545 -0.3639
 3849TIP3   OH233181   0.518   4.248   3.041  0.8031 -0.1138 -0.3342
 3849TIP3    H133182   0.462   4.303   2.986  0.8347  0.0156 -0.2406
 3849TIP3    H233183   0.595   4.303   3.058 -0.6612  1.2541  2.6419
 3850TIP3   OH233184   4.891   0.303   0.801  0.3043  0.4644  0.2189
 3850TIP3    H133185   4.843   0.221   0.812 -0.8245  1.0403 -0.1620
 3850TIP3    H233186   4.911   0.307   0.708  1.0676  0.2567  0.3671
 3851TIP3   OH233187   5.292   0.435   1.263 -0.4988 -0.1456  0.7440
 3851TIP3    H133188   5.301   0.451   1.170 -1.4266  0.2738  0.7166
 3851TIP3    H233189   5.223   0.369   1.270 -0.1774 -0.4509  1.1170
 3852TIP3   OH233190   2.763   0.218   0.683  0.0362  0.0049  0.4202
 3852TIP3    H133191   2.681   0.247   0.642  0.6881 -0.3320 -1.2038
 3852TIP3    H233192   2.760   0.122   0.678  1.6357  0.0036 -2.0868
 3853TIP3   OH233193   2.045   4.955   6.904  0.0999 -0.0470  0.0847
 3853TIP3    H133194   2.056   5.001   6.821 -0.9832 -2.3726 -1.4346
 3853TIP3    H233195   2.110   4.885   6.902  0.8300  0.5254  1.7604
 3854TIP3   OH233196   3.409   4.524   2.548  0.2993 -0.2210  0.3363
 3854TIP3    H133197   3.484   4.465   2.564  0.7689  0.0049 -0.9667
 3854TIP3    H233198   3.403   4.531   2.453 -1.7591 -0.6895  0.3821
 3855TIP3   OH233199   6.842   4.185   3.451  0.4768 -0.1939 -0.1375
 3855TIP3    H133200   6.925   4.229   3.430 -0.0535  0.4436 -0.9624
 3855TIP3    H233201   6.776   4.253   3.444 -0.0733 -0.5943  0.9812
 3856TIP3   OH233202   5.082   6.379   8.326  1.4517 -0.6080  0.5575
 3856TIP3    H133203   5.061   6.421   8.243  2.8577  0.1403  0.5350
 3856TIP3    H233204   5.086   6.286   8.306 -0.0616 -0.6121  0.2206
 3857TIP3   OH233205   6.212   5.090   2.163  0.1855 -0.3458  0.4177
 3857TIP3    H133206   6.230   5.121   2.074 -0.7311 -1.4692 -0.1774
 3857TIP3    H233207   6.140   5.028   2.154 -0.6144  0.2534  2.0760
 3858TIP3   OH233208   4.969   4.576   0.352 -0.0897  0.3846  0.1469
 3858TIP3    H133209   4.910   4.606   0.422 -3.2783  0.2135 -2.2131
 3858TIP3    H233210   4.993   4.656   0.305 -0.6634  0.2228 -0.4429
 3859TIP3   OH233211   0.400   2.972   0.914 -0.1797 -0.1247 -0.2414
 3859TIP3    H133212   0.368   3.025   0.841 -1.7478 -1.3943 -0.5083
 3859TIP3    H233213   0.389   2.882   0.886 -1.0943 -0.6571  1.6730
 3860TIP3   OH233214   3.609   4.548   7.559 -0.7014 -0.7586  0.3781
 3860TIP3    H133215   3.601   4.567   7.466  2.5702 -2.5522 -0.4112
 3860TIP3    H233216   3.660   4.621   7.595 -0.5798 -0.8582  0.4098
 3861TIP3   OH233217   5.639   5.484   1.481  0.0815  0.1762 -0.3163
 3861TIP3    H133218   5.575   5.417   1.505 -0.2786  1.4766  2.7666
 3861TIP3    H233219   5.724   5.444   1.498 -0.1490  0.8912  3.1672
 3862TIP3   OH233220   1.481   0.285   2.062  0.4147  0.1673 -0.2135
 3862TIP3    H133221   1.463   0.373   2.031 -0.1796 -0.0164 -0.3989
 3862TIP3    H233222   1.563   0.293   2.111  0.3544  0.8198 -0.2147
 3863TIP3   OH233223   4.413   1.698   7.853 -0.4065  0.0704 -0.1953
 3863TIP3    H133224   4.479   1.723   7.788  1.2051 -2.2650  0.4530
 3863TIP3    H233225   4.384   1.611   7.827 -1.5371  0.0846  0.8773
 3864TIP3   OH233226   5.561   2.867   1.837  0.1503  0.3509  0.8456
 3864TIP3    H133227   5.592   2.853   1.926 -0.4176 -0.5217  0.9197
 3864TIP3    H233228   5.475   2.826   1.834  0.3992 -0.1542 -0.2630
 3865TIP3   OH233229   2.100   6.197   2.613 -0.3677  0.1813 -0.3558
 3865TIP3    H133230   2.024   6.254   2.603 -0.7240 -0.2790 -0.2980
 3865TIP3    H233231   2.167   6.236   2.557 -0.5044  0.8363 -0.0675
 3866TIP3   OH233232   4.552   4.619   1.950 -0.1467  0.0286  0.1513
 3866TIP3    H133233   4.614   4.548   1.930 -0.3984 -0.3900  0.8020
 3866TIP3    H233234   4.586   4.658   2.030 -1.6585 -1.3700  1.5557
 3867TIP3   OH233235   6.663   4.569   0.429  0.1552  0.0755  0.3542
 3867TIP3    H133236   6.611   4.490   0.417 -0.0362  0.1654  0.5820
 3867TIP3    H233237   6.732   4.563   0.364 -0.7887  0.4994 -0.7123
 3868TIP3   OH233238   2.689   3.519   2.470 -0.0801 -0.1290 -0.2045
 3868TIP3    H133239   2.696   3.536   2.564 -0.5423 -2.1133  0.2437
 3868TIP3    H233240   2.750   3.446   2.455  0.7894  0.8615 -1.6696
 3869TIP3   OH233241   2.343   5.816   0.519  0.0252  0.0179  0.4020
 3869TIP3    H133242   2.351   5.763   0.599  1.5651  1.0411  0.9776
 3869TIP3    H233243   2.289   5.891   0.545  0.4772  0.3206  0.4932
 3870TIP3   OH233244   6.709   6.258   2.325 -0.7014  0.0077 -0.2224
 3870TIP3    H133245   6.657   6.182   2.350  0.5611 -1.2348 -1.2064
 3870TIP3    H233246   6.792   6.246   2.371 -0.3383  0.5494 -0.7212
 3871TIP3   OH233247   2.468   2.170   0.116  0.0302  0.2045 -0.2410
 3871TIP3    H133248   2.496   2.255   0.151  0.2060 -0.0053  0.1391
 3871TIP3    H233249   2.536   2.146   0.053  0.2318  0.1213  0.0073
 3872TIP3   OH233250   3.485   1.047   6.809 -0.6393  0.0624 -0.2038
 3872TIP3    H133251   3.433   0.969   6.824 -2.0278  1.2131  1.4020
 3872TIP3    H233252   3.574   1.014   6.793 -1.2899 -1.8394 -0.1382
 3873TIP3   OH233253   4.837   2.606   0.703  0.2929  0.1719  0.5771
 3873TIP3    H133254   4.866   2.591   0.613 -0.4414  1.0513  0.1770
 3873TIP3    H233255   4.742   2.605   0.698  0.2145  2.1520  0.9794
 3874TIP3   OH233256   5.729   4.498   3.242  0.1813  0.1725  0.5050
 3874TIP3    H133257   5.731   4.590   3.215  3.3187 -0.0916 -0.5366
 3874TIP3    H233258   5.769   4.498   3.329 -1.4999 -0.0600  1.3184
 3875TIP3   OH233259   5.108   3.579   3.477 -0.3051 -0.1362  0.2240
 3875TIP3    H133260   5.191   3.627   3.476 -0.0518 -0.5694 -0.1590
 3875TIP3    H233261   5.118   3.514   3.407 -1.5538  0.7726 -0.8495
 3876TIP3   OH233262   2.956   0.057   2.810 -0.8390 -0.6090 -0.6045
 3876TIP3    H133263   2.968   0.136   2.863  1.1545 -0.6325 -0.9391
 3876TIP3    H233264   2.952   0.089   2.720 -2.8236 -0.6894 -0.5805
 3877TIP3   OH233265   2.998   6.420   1.433  0.4249 -0.0072 -0.1921
 3877TIP3    H133266   2.961   6.365   1.502 -0.6729 -0.3718 -1.0473
 3877TIP3    H233267   3.005   6.507   1.473  0.4591 -0.3681  0.5951
 3878TIP3   OH233268   3.257   3.739   6.903  0.0605  0.3869 -0.5699
 3878TIP3    H133269   3.314   3.815   6.913  0.5314 -0.0004 -0.2453
 3878TIP3    H233270   3.257   3.697   6.989 -0.6775  0.3539 -0.5811
 3879TIP3   OH233271   1.180   2.545   0.274  0.0886 -0.1964  0.4582
 3879TIP3    H133272   1.273   2.564   0.269  0.1661 -0.6428  0.0623
 3879TIP3    H233273   1.149   2.553   0.183 -0.3012  0.1621  0.6191
 3880TIP3   OH233274   2.999   6.678   0.495 -0.4719 -0.0423  0.2150
 3880TIP3    H133275   3.055   6.738   0.544  0.1436 -0.7556  0.3986
 3880TIP3    H233276   3.036   6.592   0.512  0.0721 -0.2759 -1.9277
 3881TIP3   OH233277   1.296   1.347   1.021 -0.0299 -0.3219 -0.0503
 3881TIP3    H133278   1.348   1.326   1.098  0.8396  1.6790 -0.0457
 3881TIP3    H233279   1.331   1.291   0.951  0.3752 -0.8500  0.5718
 3882TIP3   OH233280   3.458   5.855   1.343 -0.4301 -0.1607 -0.1148
 3882TIP3    H133281   3.401   5.833   1.417 -1.7216 -1.4903 -1.4225
 3882TIP3    H233282   3.458   5.776   1.289  1.5158  0.3307 -0.8992
 3883TIP3   OH233283   3.203   4.597   8.166 -0.7095 -0.2378 -0.3507
 3883TIP3    H133284   3.289   4.587   8.207 -1.0126  1.2237  0.7133
 3883TIP3    H233285   3.220   4.587   8.072  0.3548 -1.4543 -0.0649
 3884TIP3   OH233286   0.822   3.184   7.927  0.4854  0.1105 -0.1607
 3884TIP3    H133287   0.817   3.091   7.953 -1.2501  0.4408  0.9075
 3884TIP3    H233288   0.799   3.184   7.834 -0.3306 -0.4853  0.0227
 3885TIP3   OH233289   6.252   1.876   0.202  0.3035 -0.5202 -0.2716
 3885TIP3    H133290   6.172   1.867   0.253  0.1913 -1.4573 -0.5950
 3885TIP3    H233291   6.224   1.919   0.121  0.3522  0.2709  0.1189
 3886TIP3   OH233292   2.144   1.679   7.285 -0.3239 -0.1248  0.1658
 3886TIP3    H133293   2.067   1.735   7.278 -0.6258 -0.4785  0.5690
 3886TIP3    H233294   2.122   1.616   7.354  0.2124 -0.4124  0.0846
 3887TIP3   OH233295   4.124   2.171   8.082  0.0294 -0.1193  0.7589
 3887TIP3    H133296   4.091   2.108   8.018  0.4157 -0.1356  0.5751
 3887TIP3    H233297   4.052   2.233   8.095 -1.3445 -1.9838  2.8182
 3888TIP3   OH233298   0.520   5.371   2.115  0.3051 -0.1004  0.4616
 3888TIP3    H133299   0.600   5.414   2.086  0.7157  0.0882  1.8222
 3888TIP3    H233300   0.548   5.283   2.140 -0.1199 -0.4026 -0.0973
 3889TIP3   OH233301   3.370   6.598   7.363 -0.0762 -0.2925  0.3066
 3889TIP3    H133302   3.430   6.552   7.304 -1.7514 -0.7228 -1.1156
 3889TIP3    H233303   3.329   6.528   7.415  0.8976  0.0320  1.5767
 3890TIP3   OH233304   3.942   3.896   2.345  0.4331 -0.0789 -0.1510
 3890TIP3    H133305   4.027   3.900   2.390 -0.2751 -2.1024  1.5219
 3890TIP3    H233306   3.879   3.927   2.411 -0.3043 -0.1834 -0.8010
 3891TIP3   OH233307   6.880   3.776   6.999 -0.0163 -0.2646  0.2730
 3891TIP3    H133308   6.936   3.721   7.055 -0.1545 -0.1143  0.5598
 3891TIP3    H233309   6.794   3.774   7.041  0.0641  0.4584  0.4808
 3892TIP3   OH233310   3.044   1.780   1.056 -0.5986 -0.7000  0.1705
 3892TIP3    H133311   3.132   1.816   1.065 -0.4780 -0.8548 -0.3563
 3892TIP3    H233312   3.046   1.699   1.106 -0.2578 -1.0077 -0.3329
 3893TIP3   OH233313   6.460   2.372   7.215  0.1229 -0.1731  0.3761
 3893TIP3    H133314   6.518   2.378   7.290  0.7886 -0.9551 -0.0568
 3893TIP3    H233315   6.505   2.312   7.155  0.0160  1.0360 -0.9942
 3894TIP3   OH233316   0.798   1.598   0.367  0.6089 -0.0922  0.5103
 3894TIP3    H133317   0.839   1.663   0.311  1.4936 -0.1603  1.0574
 3894TIP3    H233318   0.729   1.647   0.412 -0.5727 -0.1986 -1.1083
 3895TIP3   OH233319   4.277   6.310   8.198  0.1995 -0.3321  0.1932
 3895TIP3    H133320   4.349   6.295   8.137 -0.8276 -3.3705 -0.4566
 3895TIP3    H233321   4.204   6.338   8.142  0.8651  3.3369  0.9118
 3896TIP3   OH233322   0.168   4.439   0.578  0.4764  0.2108 -0.1064
 3896TIP3    H133323   0.141   4.529   0.558  1.0288  0.9489  2.2432
 3896TIP3    H233324   0.089   4.387   0.561 -0.5069  1.4361  0.5169
 3897TIP3   OH233325   5.287   5.842   0.143 -0.2438 -0.2617 -0.3600
 3897TIP3    H133326   5.295   5.889   0.226 -1.3399  0.3811 -0.5968
 3897TIP3    H233327   5.195   5.817   0.139  0.0445 -1.2953 -0.8619
 3898TIP3   OH233328   1.479   4.023   2.400  0.2427  0.0502  0.2743
 3898TIP3    H133329   1.439   4.102   2.437  2.9511  2.1130 -0.8305
 3898TIP3    H233330   1.514   3.976   2.476 -1.9842 -0.5256  1.0113
 3899TIP3   OH233331   5.192   6.336   7.914  0.4604 -0.2324  0.0051
 3899TIP3    H133332   5.261   6.401   7.905 -0.3094  1.0057  2.1367
 3899TIP3    H233333   5.124   6.380   7.965 -0.0127 -2.7633  1.7670
 3900TIP3   OH233334   0.957   1.830   8.326 -0.2225  0.1220 -0.6671
 3900TIP3    H133335   0.995   1.918   8.323 -1.7695  1.2572  4.4744
 3900TIP3    H233336   1.028   1.774   8.357 -0.3883  0.4739  0.3630
 3901TIP3   OH233337   2.913   6.871   1.479  0.2316  0.2596 -0.2235
 3901TIP3    H133338   2.855   6.825   1.540  0.0112  0.9379  0.0894
 3901TIP3    H233339   2.860   6.944   1.446  0.2497 -0.2519 -1.4491
 3902TIP3   OH233340   1.016   4.349   7.859  0.0119 -0.3185 -0.2738
 3902TIP3    H133341   1.097   4.376   7.815 -0.8242  1.1484 -0.9971
 3902TIP3    H233342   0.949   4.406   7.821 -0.9332  0.3222  2.2045
 3903TIP3   OH233343   2.256   4.408   2.143 -0.3095  0.8810 -0.2461
 3903TIP3    H133344   2.278   4.320   2.112 -0.4179  1.1584 -1.1270
 3903TIP3    H233345   2.164   4.420   2.118  0.0778  1.7359 -1.3069
 3904TIP3   OH233346   5.526   0.031   1.919 -0.4408  0.1914 -0.7466
 3904TIP3    H133347   5.506  -0.057   1.949 -0.2585  0.1921 -0.6161
 3904TIP3    H233348   5.596   0.061   1.977 -1.6026  1.0385  0.2606
 3905TIP3   OH233349   5.640   6.641   0.098 -0.5296  0.8604 -0.1727
 3905TIP3    H133350   5.658   6.567   0.041  0.6972  0.6112  0.4985
 3905TIP3    H233351   5.624   6.602   0.184 -0.2563  1.3436  0.1037
 3906TIP3   OH233352   0.580   3.244   0.759  0.1961 -0.0963 -0.0917
 3906TIP3    H133353   0.610   3.217   0.845  2.0376 -0.5484 -0.8413
 3906TIP3    H233354   0.607   3.174   0.700  0.5514  1.0186 -1.3026
 3907TIP3   OH233355   3.404   0.065   2.152  0.3909  0.1339  0.5071
 3907TIP3    H133356   3.473   0.049   2.087  1.0867 -0.7662  1.4436
 3907TIP3    H233357   3.419   0.155   2.181  0.9408  0.0682  0.4313
 3908TIP3   OH233358   1.037   1.884   7.635 -0.1748 -0.1683 -0.0027
 3908TIP3    H133359   0.994   1.856   7.554 -2.2744 -2.8112  1.8543
 3908TIP3    H233360   0.977   1.858   7.705  2.1655  0.7126  2.5297
 3909TIP3   OH233361   4.864   3.230   2.037  0.3313 -0.0323  0.1520
 3909TIP3    H133362   4.881   3.215   2.130 -0.4427  0.4887  0.3907
 3909TIP3    H233363   4.948   3.216   1.994  0.2795 -2.3556  0.6554
 3910TIP3   OH233364   2.876   2.030   2.561 -0.6225  0.9306  0.4371
 3910TIP3    H133365   2.853   2.099   2.623  1.3833  2.2489 -0.1921
 3910TIP3    H233366   2.842   1.950   2.600 -2.2021  2.1374  1.6459
 3911TIP3   OH233367   5.762   3.051   7.351  0.3639  0.5137 -0.7326
 3911TIP3    H133368   5.717   2.985   7.299 -0.3979 -0.9463  1.6355
 3911TIP3    H233369   5.842   3.070   7.303  0.5079 -2.0024 -1.5828
 3912TIP3   OH233370   2.553   3.917   2.367 -0.1713 -0.4050  0.2999
 3912TIP3    H133371   2.514   3.936   2.453 -1.2276  1.5734 -0.5567
 3912TIP3    H233372   2.579   4.003   2.333  0.3983 -1.1733 -1.2935
 3913TIP3   OH233373   0.931   0.410   7.091 -0.8838 -0.0833 -0.4201
 3913TIP3    H133374   0.974   0.338   7.045  0.2932  0.9480 -0.9965
 3913TIP3    H233375   0.968   0.489   7.051 -1.4264  0.8413  0.8499
 3914TIP3   OH233376   2.900   5.673   1.532 -0.5622 -0.8810  0.0095
 3914TIP3    H133377   2.864   5.589   1.503  0.5127 -1.4089  0.1659
 3914TIP3    H233378   2.986   5.652   1.567 -0.6501  0.1595  0.9202
 3915TIP3   OH233379   5.521   0.725   7.427 -0.3420 -0.4476  0.9336
 3915TIP3    H133380   5.615   0.735   7.442 -0.2862  1.6877 -0.4196
 3915TIP3    H233381   5.514   0.649   7.369  0.4431 -1.1686  1.7572
 3916TIP3   OH233382   6.842   3.928   3.501 -0.3992 -0.2799 -0.0978
 3916TIP3    H133383   6.869   4.013   3.465  0.1056 -0.7433 -0.8545
 3916TIP3    H233384   6.747   3.934   3.507 -0.2564  0.9822  1.5592
 3917TIP3   OH233385   0.079   5.336   1.139 -0.1865  0.1877  0.6707
 3917TIP3    H133386   0.124   5.417   1.114  0.0343 -0.1331 -0.0235
 3917TIP3    H233387   0.036   5.356   1.222 -1.0210  1.3340 -0.0243
 3918TIP3   OH233388   6.134   3.433   2.275 -0.3948 -0.0338  0.1090
 3918TIP3    H133389   6.118   3.524   2.300 -0.0710 -0.6347  2.7533
 3918TIP3    H233390   6.226   3.418   2.298 -0.9051 -1.4877  1.3257
 3919TIP3   OH233391   5.160   5.299   8.104 -0.1684 -0.6493 -0.4424
 3919TIP3    H133392   5.203   5.260   8.028 -0.3415 -2.7874  0.4821
 3919TIP3    H233393   5.223   5.365   8.135  1.3808 -1.9957 -0.5678
 3920TIP3   OH233394   1.622   1.348   8.349 -0.1031  0.6711  0.2974
 3920TIP3    H133395   1.576   1.388   8.423  0.7754  1.8019  0.2580
 3920TIP3    H233396   1.562   1.360   8.275 -0.9248 -0.3399  0.7799
 3921TIP3   OH233397   5.510   0.631   2.590  0.2408  0.4449  0.2323
 3921TIP3    H133398   5.564   0.557   2.616  2.0864  1.5298 -0.3645
 3921TIP3    H233399   5.423   0.611   2.625 -0.5116 -4.0172 -3.3102
 3922TIP3   OH233400   5.456   5.947   2.073  0.2119 -0.0898  0.2431
 3922TIP3    H133401   5.541   5.991   2.071 -0.1005  0.5081 -0.0438
 3922TIP3    H233402   5.393   6.016   2.053 -0.3609 -0.4870  0.6592
 3923TIP3   OH233403   1.583   1.910   7.267 -0.0934  0.3116 -0.3232
 3923TIP3    H133404   1.590   1.826   7.221  1.2350  0.6703 -0.8201
 3923TIP3    H233405   1.543   1.969   7.203 -0.8147  0.1264 -0.0520
 3924TIP3   OH233406   2.294   5.493   1.840  0.1945  0.1732  0.3051
 3924TIP3    H133407   2.322   5.458   1.924  1.8155  2.1232  0.6630
 3924TIP3    H233408   2.207   5.529   1.857  0.7946  1.1932  1.3836
 3925TIP3   OH233409   4.404   6.148   2.909  0.2138  0.0731  0.5222
 3925TIP3    H133410   4.366   6.169   2.994  1.4431 -2.4334  1.7954
 3925TIP3    H233411   4.330   6.118   2.857 -0.0626 -2.1209  2.0526
 3926TIP3   OH233412   3.121   1.320   7.616  0.1996 -0.0504 -0.6156
 3926TIP3    H133413   3.108   1.227   7.596 -0.5901  0.1876 -1.2621
 3926TIP3    H233414   3.212   1.326   7.644 -0.5994 -1.6006  2.8372
 3927TIP3   OH233415   2.002   3.394   1.241  0.1094  0.1033 -0.2178
 3927TIP3    H133416   1.958   3.425   1.320  0.2134 -0.6478  0.1421
 3927TIP3    H233417   2.010   3.300   1.253 -0.4305 -0.1183 -1.4070
 3928TIP3   OH233418   5.033   3.493   7.177  0.0503  1.0955 -0.0610
 3928TIP3    H133419   5.008   3.436   7.250  2.3146  1.3597  1.0257
 3928TIP3    H233420   4.957   3.548   7.163 -1.0280 -0.0337  1.0285
 3929TIP3   OH233421   5.147   3.940   1.790 -0.9551  0.4288 -0.0236
 3929TIP3    H133422   5.164   3.951   1.884  2.2800  1.3263 -0.5601
 3929TIP3    H233423   5.154   4.028   1.754 -3.1845  0.2508 -1.0448
 3930TIP3   OH233424   2.396   3.366   2.396 -0.5498  0.2949 -0.6323
 3930TIP3    H133425   2.408   3.437   2.333 -0.9919  0.8515 -0.0855
 3930TIP3    H233426   2.432   3.289   2.351 -0.4394  0.7750 -1.3845
 3931TIP3   OH233427   0.712   4.823   1.173 -0.5208  0.7536 -0.2221
 3931TIP3    H133428   0.765   4.902   1.167 -0.7362  0.8778 -0.5574
 3931TIP3    H233429   0.673   4.826   1.261 -1.0755  1.3798 -0.4779
 3932TIP3   OH233430   0.214   3.573   0.605  0.1594  0.0832 -0.0362
 3932TIP3    H133431   0.213   3.610   0.693 -1.4970 -0.6030  0.2598
 3932TIP3    H233432   0.211   3.650   0.547  1.7079  0.5560  0.4495
 3933TIP3   OH233433   6.512   0.944   1.918  0.3921 -0.2404 -0.1773
 3933TIP3    H133434   6.529   0.894   1.998  0.6799 -1.0759 -0.7443
 3933TIP3    H233435   6.584   0.921   1.860 -1.7597 -2.6728 -2.1002
 3934TIP3   OH233436   0.657   6.755   0.156 -0.5233 -0.5726  0.0973
 3934TIP3    H133437   0.700   6.736   0.240 -2.3394 -0.5691  1.1008
 3934TIP3    H233438   0.654   6.850   0.152 -1.8155 -0.5455  0.8529
 3935TIP3   OH233439   4.897   6.976   0.201  0.0461 -0.0123 -0.2716
 3935TIP3    H133440   4.939   7.046   0.251 -0.6684 -1.5084  2.6761
 3935TIP3    H233441   4.865   7.019   0.122 -0.1382  2.9655  1.2634
 3936TIP3   OH233442   1.721   5.844   8.182 -0.3467  0.6477  0.3590
 3936TIP3    H133443   1.708   5.776   8.115 -1.6707  0.6942  0.5397
 3936TIP3    H233444   1.752   5.920   8.132  0.8381  0.0364  0.1141
 3937TIP3   OH233445   2.759   0.217   0.207  0.0564  0.1053 -0.0632
 3937TIP3    H133446   2.679   0.270   0.209  0.1710  0.3921 -1.7163
 3937TIP3    H233447   2.779   0.200   0.299 -1.2353  1.0348  0.4164
 3938TIP3   OH233448   5.313   5.081   2.147 -0.0322  0.5499  0.1968
 3938TIP3    H133449   5.224   5.069   2.114  0.1199 -0.0658 -0.0101
 3938TIP3    H233450   5.362   5.117   2.072  0.1406 -0.1431 -0.0294
 3939TIP3   OH233451   0.219   2.498   1.448 -0.2305 -1.0304 -0.3956
 3939TIP3    H133452   0.298   2.464   1.406 -1.0668 -0.5125 -2.5296
 3939TIP3    H233453   0.232   2.481   1.541  2.7772 -0.2106 -0.5510
 3940TIP3   OH233454   3.158   5.538   1.611  0.2923 -0.1444 -0.2811
 3940TIP3    H133455   3.190   5.514   1.524 -1.7608  0.1400 -1.1758
 3940TIP3    H233456   3.125   5.456   1.648 -0.3363  0.0113 -0.4751
 3941TIP3   OH233457   0.633   5.295   0.189  0.1063  0.9163  0.1660
 3941TIP3    H133458   0.637   5.328   0.278 -1.2348  1.8710 -0.1008
 3941TIP3    H233459   0.557   5.236   0.188  0.7452  0.0629 -0.0963
 3942TIP3   OH233460   0.811   1.595   2.700  0.1872  0.4141 -0.1754
 3942TIP3    H133461   0.890   1.636   2.735  1.1883 -0.7399 -1.0260
 3942TIP3    H233462   0.754   1.583   2.776  1.0909  0.6499  0.5494
 3943TIP3   OH233463   5.059   2.723   2.151  0.7623 -0.7340  0.0439
 3943TIP3    H133464   5.096   2.635   2.143  0.9512 -0.7015  0.5097
 3943TIP3    H233465   5.023   2.742   2.065 -0.2343 -1.6900  0.2292
 3944TIP3   OH233466   1.651   6.486   1.646 -0.4051  0.2779  0.1050
 3944TIP3    H133467   1.565   6.448   1.665  0.6273 -2.6937 -0.5344
 3944TIP3    H233468   1.697   6.483   1.730 -0.3280  0.0921  0.0572
 3945TIP3   OH233469   4.643   5.890   2.185 -0.5093  0.1528 -0.8129
 3945TIP3    H133470   4.564   5.895   2.131  0.0279 -2.7905 -2.0701
 3945TIP3    H233471   4.713   5.874   2.122  0.3331 -2.0864  0.5910
 3946TIP3   OH233472   3.900   2.865   0.841  0.1117 -0.3016 -0.0654
 3946TIP3    H133473   3.964   2.935   0.826 -0.1859  0.2463  1.0685
 3946TIP3    H233474   3.948   2.784   0.823  0.4027  0.1849 -1.5950
 3947TIP3   OH233475   4.918   3.116   0.063 -0.1768 -0.4627 -0.4719
 3947TIP3    H133476   4.941   3.038   0.113 -0.0353 -0.2790 -0.2488
 3947TIP3    H233477   4.986   3.122  -0.004  1.6749  1.2333  1.4420
 3948TIP3   OH233478   3.944   4.985   2.622  0.0465  0.3078  0.4084
 3948TIP3    H133479   3.933   5.055   2.558 -0.1788  0.5093  0.6680
 3948TIP3    H233480   3.900   5.016   2.700 -0.9472 -0.5548  0.2066
 3949TIP3   OH233481   6.532   2.743   1.206  0.2391 -0.1806  0.5038
 3949TIP3    H133482   6.560   2.833   1.191 -0.6150  0.1117  0.6357
 3949TIP3    H233483   6.562   2.695   1.129  0.9316  0.1522  0.5536
 3950TIP3   OH233484   0.029   0.131   0.093  0.2735 -0.5270  0.1893
 3950TIP3    H133485  -0.053   0.173   0.117 -0.9323 -3.0489  0.7698
 3950TIP3    H233486   0.032   0.138  -0.002 -1.6541 -2.0588 -0.0504
 3951TIP3   OH233487   2.325   1.068   1.391 -0.0197 -0.0703 -0.7135
 3951TIP3    H133488   2.277   1.072   1.474  1.4374  0.8648  0.1343
 3951TIP3    H233489   2.259   1.086   1.324 -0.6992  2.3001  0.4767
 3952TIP3   OH233490   2.474   2.862   8.312 -0.1361 -0.0993 -0.2552
 3952TIP3    H133491   2.470   2.939   8.369  0.8359 -0.5970  0.5010
 3952TIP3    H233492   2.553   2.875   8.259 -0.1139 -0.4586 -0.3111
 3953TIP3   OH233493   1.195   5.079   2.275 -0.2846  0.2912  0.5775
 3953TIP3    H133494   1.212   5.007   2.214  2.1033  1.5509 -0.3832
 3953TIP3    H233495   1.271   5.080   2.333 -0.5776  1.6318  0.9790
 3954TIP3   OH233496   5.564   1.659   8.003 -0.6195 -0.8598  0.4832
 3954TIP3    H133497   5.579   1.616   7.919 -0.0106 -0.6820  0.4925
 3954TIP3    H233498   5.489   1.716   7.988  1.6805  2.0351 -1.0728
 3955TIP3   OH233499   2.502   0.203   7.000 -0.1863  0.4628 -0.2659
 3955TIP3    H133500   2.527   0.157   6.920 -1.4068  1.2772 -1.1691
 3955TIP3    H233501   2.570   0.181   7.063  0.0586 -1.3516 -1.0953
 3956TIP3   OH233502   2.832   5.800   0.207 -0.6687 -0.0300  0.7556
 3956TIP3    H133503   2.857   5.857   0.134 -1.5514  0.4848  0.8451
 3956TIP3    H233504   2.872   5.839   0.284  3.2050 -2.3918  0.2380
 3957TIP3   OH233505   0.133   6.470   7.654  0.0090  1.1052 -0.6870
 3957TIP3    H133506   0.153   6.398   7.594 -2.5559 -0.3248  0.0111
 3957TIP3    H233507   0.111   6.426   7.737 -1.6998  2.6452 -0.2568
 3958TIP3   OH233508   4.333   2.727   1.676 -0.1100  0.3764 -0.3522
 3958TIP3    H133509   4.362   2.779   1.601  0.1683 -1.0633 -1.2836
 3958TIP3    H233510   4.379   2.764   1.751  0.3796  1.2004 -1.0488
 3959TIP3   OH233511   2.708   2.909   2.190  0.0037  0.0598 -0.1797
 3959TIP3    H133512   2.765   2.983   2.168 -1.8140  1.7869  0.6170
 3959TIP3    H233513   2.697   2.916   2.285 -1.7102 -0.0556 -0.3488
 3960TIP3   OH233514   4.847   4.969   0.354 -0.5774  0.4875  0.0400
 3960TIP3    H133515   4.917   4.934   0.299 -0.3233  0.1625  0.5623
 3960TIP3    H233516   4.770   4.968   0.298 -0.9090 -2.2320  0.4421
 3961TIP3   OH233517   1.472   4.905   2.863  0.2923  0.0943 -0.2456
 3961TIP3    H133518   1.414   4.851   2.918  2.3191 -1.9444  0.0572
 3961TIP3    H233519   1.540   4.935   2.923 -0.8557  3.3453 -0.3629
 3962TIP3   OH233520   5.739   4.823   8.037 -0.5702 -0.0411 -0.1439
 3962TIP3    H133521   5.711   4.772   7.961  0.0642 -1.2040  0.3904
 3962TIP3    H233522   5.671   4.890   8.046 -2.0916 -1.5190 -0.1466
 3963TIP3   OH233523   4.562   2.297   1.094 -0.4128  0.2730 -0.3722
 3963TIP3    H133524   4.580   2.315   1.002  0.1947  0.3753 -0.2359
 3963TIP3    H233525   4.496   2.228   1.092  0.3601 -0.4759 -0.8938
 3964TIP3   OH233526   1.272   6.430   0.480 -0.2690  0.3803  0.1638
 3964TIP3    H133527   1.227   6.387   0.552 -0.1354  0.9948  0.6210
 3964TIP3    H233528   1.294   6.517   0.513  0.4624  0.4077 -0.3600
 3965TIP3   OH233529   4.398   3.105   0.157  0.5180 -0.3222  0.0596
 3965TIP3    H133530   4.434   3.027   0.199 -0.5156 -1.2015 -0.6474
 3965TIP3    H233531   4.314   3.077   0.121 -0.3371  1.3547  0.6070
 3966TIP3   OH233532   1.006   0.296   0.708  0.1912  0.4086 -0.1554
 3966TIP3    H133533   1.054   0.360   0.655  0.0110  0.0193 -0.8062
 3966TIP3    H233534   1.066   0.273   0.779  0.1104  1.5872  0.3131
 3967TIP3   OH233535   0.235   1.873   1.969  0.4182  0.1817 -0.2611
 3967TIP3    H133536   0.144   1.869   1.938 -0.1965 -1.6562  1.6107
 3967TIP3    H233537   0.283   1.908   1.894 -1.6349  0.0786 -1.7344
 3968TIP3   OH233538   2.767   0.770   2.498 -0.5552  0.4252  0.2388
 3968TIP3    H133539   2.823   0.835   2.455  1.3957 -0.6175  1.1059
 3968TIP3    H233540   2.791   0.776   2.591 -0.7417 -1.1328  0.4087
 3969TIP3   OH233541   6.316   0.620   7.313 -0.2714 -0.0599  0.2889
 3969TIP3    H133542   6.314   0.715   7.296 -4.0150 -0.1627 -0.7685
 3969TIP3    H233543   6.248   0.606   7.380 -0.6634 -2.0949 -0.4585
 3970TIP3   OH233544   0.093   3.671   7.683  0.3774  0.1434 -0.0930
 3970TIP3    H133545   0.151   3.737   7.646 -0.5777  1.5655  0.8358
 3970TIP3    H233546   0.058   3.712   7.762 -1.2071 -0.9976 -0.1596
 3971TIP3   OH233547   0.683   4.295   2.767  0.6063  0.1711 -0.0265
 3971TIP3    H133548   0.601   4.320   2.725  0.3614 -2.0761 -1.0625
 3971TIP3    H233549   0.707   4.370   2.822 -1.0099  1.7210 -1.3427
 3972TIP3   OH233550   4.101   1.510   7.534 -0.0329 -0.2177 -0.0962
 3972TIP3    H133551   4.069   1.565   7.463  0.1716 -1.5214 -1.2465
 3972TIP3    H233552   4.163   1.450   7.491  1.0941 -0.1920  1.4198
 3973TIP3   OH233553   1.819   1.147   8.250 -0.4038  0.0080 -0.8514
 3973TIP3    H133554   1.772   1.230   8.244  0.4830  0.4709 -1.7578
 3973TIP3    H233555   1.750   1.080   8.249 -1.3223  0.7252  2.4702
 3974TIP3   OH233556   4.920   6.738   0.758 -0.1414 -0.0702 -0.3895
 3974TIP3    H133557   4.954   6.667   0.703 -1.3750  0.2188 -1.6044
 3974TIP3    H233558   4.881   6.693   0.833  0.6286 -0.5547 -0.2755
 3975TIP3   OH233559   3.635   2.043   8.281 -0.9381 -0.0129 -0.0504
 3975TIP3    H133560   3.616   2.007   8.194  1.2815  0.4992 -0.8306
 3975TIP3    H233561   3.714   1.996   8.308 -3.3117 -2.5515  3.2237
 3976TIP3   OH233562   5.584   1.877   3.227 -0.0166  0.6570  0.3231
 3976TIP3    H133563   5.524   1.916   3.164  1.1151  0.9769 -0.5872
 3976TIP3    H233564   5.533   1.807   3.269 -0.6075  0.0472 -1.3554
 3977TIP3   OH233565   0.216   0.626   0.535 -0.1138  0.1214  0.2481
 3977TIP3    H133566   0.255   0.576   0.606  0.3686 -0.8125 -0.6444
 3977TIP3    H233567   0.266   0.600   0.457 -0.4952  1.2624 -0.4028
 3978TIP3   OH233568   2.130   1.833   2.128 -0.0603 -0.9886 -0.1169
 3978TIP3    H133569   2.070   1.759   2.117 -0.8854 -0.3325 -0.2098
 3978TIP3    H233570   2.111   1.867   2.215  0.4139 -0.9717 -0.0180
 3979TIP3   OH233571   5.445   1.852   1.113 -0.3078 -0.0625  0.2492
 3979TIP3    H133572   5.531   1.814   1.133  0.2758  1.5118  0.9471
 3979TIP3    H233573   5.458   1.947   1.121 -2.4008  0.1879  1.6402
 3980TIP3   OH233574   3.098   1.839   2.176 -0.1668  0.1543  0.1446
 3980TIP3    H133575   3.105   1.758   2.125 -1.4247  0.1745 -0.0994
 3980TIP3    H233576   3.112   1.909   2.113  0.7826  0.1434  0.3293
 3981TIP3   OH233577   2.478   4.903   6.771  0.2340  0.1543  0.3104
 3981TIP3    H133578   2.553   4.847   6.791 -0.4168  0.1434  3.0634
 3981TIP3    H233579   2.496   4.986   6.816 -1.0750  0.3997  0.4340
 3982TIP3   OH233580   0.595   4.163   0.118 -0.1286  0.6057  0.0317
 3982TIP3    H133581   0.553   4.172   0.204 -0.1755  0.3063  0.0428
 3982TIP3    H233582   0.627   4.250   0.097 -0.7835  0.8473  0.0084
 3983TIP3   OH233583   3.307   2.025   0.405 -0.2699 -0.3859 -0.3880
 3983TIP3    H133584   3.269   2.068   0.481  1.1212 -1.1060  0.7534
 3983TIP3    H233585   3.383   2.077   0.383  0.6867 -1.4795  0.2074
 3984TIP3   OH233586   0.063   2.203   0.169  0.5011 -0.2621 -0.4807
 3984TIP3    H133587   0.141   2.148   0.161  0.6809  0.0601 -0.9212
 3984TIP3    H233588   0.010   2.180   0.093 -0.1401 -0.9593  0.1575
 3985TIP3   OH233589   4.570   4.640   8.268 -0.8442 -0.0071 -0.2826
 3985TIP3    H133590   4.585   4.548   8.290 -1.9079 -0.2486 -0.5017
 3985TIP3    H233591   4.546   4.680   8.351 -1.4797 -0.1735 -0.3834
 3986TIP3   OH233592   0.722   4.288   1.405 -0.6120 -0.0810  0.5523
 3986TIP3    H133593   0.719   4.196   1.433 -1.7489 -0.6646 -1.3027
 3986TIP3    H233594   0.630   4.313   1.397 -0.3317  0.5370 -0.9986
 3987TIP3   OH233595   4.384   0.925   1.725 -0.5839 -0.0695 -0.1460
 3987TIP3    H133596   4.325   0.953   1.656  1.7620 -0.9086 -2.6617
 3987TIP3    H233597   4.403   0.833   1.705  1.1695  0.0360  0.8049
 3988TIP3   OH233598   3.132   5.278   7.698  0.1594 -0.3695  0.2217
 3988TIP3    H133599   3.172   5.263   7.783 -1.2995  0.7556  1.1503
 3988TIP3    H233600   3.111   5.372   7.697 -0.9164 -0.5852 -0.8895
 3989TIP3   OH233601   4.144   6.292   7.070  0.6143 -0.3931 -0.1587
 3989TIP3    H133602   4.167   6.199   7.080 -0.0136 -0.5906 -0.4474
 3989TIP3    H233603   4.071   6.291   7.008  1.1195  0.3730 -0.7628
 3990TIP3   OH233604   3.766   1.334   0.758 -0.4342 -0.2959 -0.4626
 3990TIP3    H133605   3.675   1.306   0.763  0.0658 -1.7845  1.2581
 3990TIP3    H233606   3.783   1.380   0.840  0.7567 -1.3970 -0.0541
 3991TIP3   OH233607   0.078   6.715   7.096  0.7007  0.3718  0.6877
 3991TIP3    H133608   0.016   6.642   7.093  1.7516 -0.5238 -0.3774
 3991TIP3    H233609   0.090   6.740   7.004  1.7579  0.6475  0.8841
 3992TIP3   OH233610   2.579   6.805   2.620  0.3884  0.7451 -0.0345
 3992TIP3    H133611   2.641   6.840   2.683  0.0320  0.1310  0.6724
 3992TIP3    H233612   2.494   6.841   2.646  0.5582  2.5513 -1.7050
 3993TIP3   OH233613   5.050   2.034   2.841 -0.3113  0.1571  0.3420
 3993TIP3    H133614   5.114   1.965   2.856  0.3432  0.4733 -0.8677
 3993TIP3    H233615   4.986   2.023   2.911 -0.0462 -1.4678  0.3775
 3994TIP3   OH233616   4.977   3.555   0.084 -0.7699 -0.7711 -0.4406
 3994TIP3    H133617   5.067   3.589   0.080 -1.1097  0.1682 -0.2877
 3994TIP3    H233618   4.970   3.498   0.008  0.4448 -2.1038  0.3794
 3995TIP3   OH233619   0.829   1.927   7.812  0.0198  0.0240  0.0271
 3995TIP3    H133620   0.793   1.971   7.735  0.0924 -0.2244 -0.1491
 3995TIP3    H233621   0.752   1.897   7.861 -0.0567  1.0966  0.5940
 3996TIP3   OH233622   2.005   5.280   2.149 -0.3650 -0.0692  0.0034
 3996TIP3    H133623   1.959   5.207   2.108 -2.6698 -0.9506  3.6412
 3996TIP3    H233624   1.952   5.357   2.128 -0.9106 -0.3425  0.3347
 3997TIP3   OH233625   6.083   4.105   1.766  0.3914  0.5184  0.0122
 3997TIP3    H133626   6.017   4.097   1.698 -0.4807  1.3876  0.7320
 3997TIP3    H233627   6.147   4.036   1.746 -0.7045 -0.3128 -0.7047
 3998TIP3   OH233628   6.280   6.663   1.595  0.8117 -0.3031  0.1945
 3998TIP3    H133629   6.276   6.567   1.603 -1.3704 -0.4344 -1.7304
 3998TIP3    H233630   6.287   6.679   1.501  0.7521  1.4412  0.4643
 3999TIP3   OH233631   0.897   6.771   8.111  0.3671 -0.2019  0.3150
 3999TIP3    H133632   0.919   6.694   8.058  1.9189  0.3001  0.1954
 3999TIP3    H233633   0.841   6.823   8.054 -0.6983 -1.2143  0.3907
 4000TIP3   OH233634   3.182   2.998   2.042 -0.1706  0.5552 -0.1496
 4000TIP3    H133635   3.172   2.921   2.098  2.9810  1.3623  1.7665
 4000TIP3    H233636   3.095   3.035   2.036 -1.4958 -2.2339  0.2045
 4001TIP3   OH233637   0.398   5.015   2.518 -0.0599  0.7013 -0.1169
 4001TIP3    H133638   0.333   4.978   2.459  0.2870 -1.5454  0.8181
 4001TIP3    H233639   0.481   5.006   2.471  0.0007  0.4633  0.0355
 4002TIP3   OH233640   3.277   1.105   8.207  0.5193 -0.1291  0.2800
 4002TIP3    H133641   3.208   1.102   8.274 -0.7733 -1.8654 -1.0490
 4002TIP3    H233642   3.268   1.192   8.168  0.2342  0.3013  1.2672
 4003TIP3   OH233643   5.115   0.204   0.959  0.3203 -0.0490  0.1826
 4003TIP3    H133644   5.028   0.214   0.919  0.5559  2.0992  0.0702
 4003TIP3    H233645   5.171   0.174   0.887 -0.1919 -0.7988  0.0889
 4004TIP3   OH233646   3.855   1.453   7.635  0.1005  0.3056  0.0857
 4004TIP3    H133647   3.905   1.418   7.708  1.6956 -0.7996 -1.4622
 4004TIP3    H233648   3.918   1.506   7.586 -0.4669 -0.3094 -1.3762
 4005TIP3   OH233649   5.970   4.928   1.282  0.7394  0.3587  0.1951
 4005TIP3    H133650   5.969   4.979   1.363 -0.1718  2.5709 -1.1163
 4005TIP3    H233651   5.878   4.910   1.264  0.7838  1.3690 -1.1839
 4006TIP3   OH233652   0.609   4.148   0.564 -0.0547  0.0361  0.4416
 4006TIP3    H133653   0.564   4.226   0.597 -1.1577  0.4063 -1.7747
 4006TIP3    H233654   0.570   4.076   0.614  1.0023  0.8306  2.5466
 4007TIP3   OH233655   6.057   2.002   0.928  0.1222 -0.2727  0.2174
 4007TIP3    H133656   6.044   2.078   0.985  0.5286 -0.9720  1.2882
 4007TIP3    H233657   6.014   2.025   0.846  0.4386  1.1895  0.4446
 4008TIP3   OH233658   3.048   3.272   0.072 -0.4676  0.6911  0.1394
 4008TIP3    H133659   3.102   3.307   0.143 -1.6747 -1.0931  2.0834
 4008TIP3    H233660   3.085   3.186   0.055 -1.0586  0.5312 -0.3699
 4009TIP3   OH233661   4.599   4.753   2.176 -0.6651  0.1665 -0.1521
 4009TIP3    H133662   4.630   4.779   2.263 -1.0162  2.8070 -0.7124
 4009TIP3    H233663   4.506   4.732   2.189  0.0849 -3.2835  0.7002
 4010TIP3   OH233664   6.741   0.934   2.405  0.4086  1.2229  0.4674
 4010TIP3    H133665   6.817   0.952   2.459  0.6191 -0.9657  0.9844
 4010TIP3    H233666   6.776   0.889   2.328 -0.3404 -0.1018  0.8634
 4011TIP3   OH233667   6.777   6.249   8.383 -0.5406 -0.0484 -0.6282
 4011TIP3    H133668   6.861   6.268   8.425 -0.7003 -1.3484  0.3273
 4011TIP3    H233669   6.726   6.330   8.393  0.6222  0.8040 -1.3364
 4012TIP3   OH233670   6.927   4.390   1.664  0.1418 -0.2664 -0.5618
 4012TIP3    H133671   6.948   4.469   1.713  0.9026 -0.3736 -0.7084
 4012TIP3    H233672   6.844   4.410   1.621 -1.0278 -0.4743  1.4498
 4013TIP3   OH233673   6.956   3.771   8.189  0.2960  0.1821 -0.4421
 4013TIP3    H133674   6.961   3.853   8.236 -1.4390 -0.7370  1.5099
 4013TIP3    H233675   6.862   3.755   8.179  0.5535 -0.0305 -3.6956
 4014TIP3   OH233676   3.994   1.886   2.893 -0.5561  0.0914 -0.1657
 4014TIP3    H133677   3.927   1.932   2.842  0.1774 -0.6966 -1.9109
 4014TIP3    H233678   3.952   1.871   2.978 -3.3319 -1.8298 -1.6700
 4015TIP3   OH233679   5.725   1.538   1.841 -0.7021 -0.4339  0.3044
 4015TIP3    H133680   5.656   1.506   1.900 -0.8052  0.7652  0.8733
 4015TIP3    H233681   5.806   1.501   1.876 -0.0944  3.5020  3.9855
 4016TIP3   OH233682   6.893   3.347   2.029  1.0506  0.3391 -0.6087
 4016TIP3    H133683   6.926   3.290   2.099  0.1222 -0.5482 -0.8721
 4016TIP3    H233684   6.860   3.287   1.962  0.1813  1.1791 -0.9571
 4017TIP3   OH233685   3.652   2.036   1.848  0.4237  0.0895  0.3035
 4017TIP3    H133686   3.646   1.970   1.779 -0.5139  0.5100 -0.0291
 4017TIP3    H233687   3.607   1.997   1.923  1.1514 -0.2295  0.5936
 4018TIP3   OH233688   5.740   0.461   2.668  0.4656 -0.1926 -0.1225
 4018TIP3    H133689   5.747   0.505   2.752 -1.3811  0.5433 -0.2997
 4018TIP3    H233690   5.826   0.422   2.654  0.9379 -0.0141  1.9124
 4019TIP3   OH233691   3.316   6.319   0.368  0.2653  0.2172  0.1473
 4019TIP3    H133692   3.288   6.232   0.339  1.0554  0.3651 -1.1586
 4019TIP3    H233693   3.303   6.374   0.291 -1.1083  1.4778  1.2433
 4020TIP3   OH233694   2.519   1.404   1.722  0.1548 -0.2786  0.1069
 4020TIP3    H133695   2.528   1.471   1.790  1.2202 -0.8383  0.5469
 4020TIP3    H233696   2.424   1.388   1.717  0.0390 -0.2119  1.4691
 4021TIP3   OH233697   1.406   5.724   8.166 -0.4063  0.1540 -0.2625
 4021TIP3    H133698   1.491   5.706   8.206 -1.0830 -2.2588  0.2443
 4021TIP3    H233699   1.350   5.750   8.239 -0.6314 -0.3618 -0.2471
 4022TIP3   OH233700   4.094   1.350   3.075 -0.7359  0.0027  0.2241
 4022TIP3    H133701   4.146   1.275   3.103 -0.9086 -0.5401 -0.8818
 4022TIP3    H233702   4.119   1.420   3.136 -0.2482 -0.8193  0.9857
 4023TIP3   OH233703   5.031   6.790   2.760  0.1468 -0.0748  0.5041
 4023TIP3    H133704   4.944   6.763   2.788  0.2120 -0.6933  0.1190
 4023TIP3    H233705   5.061   6.720   2.702  1.2973 -0.3723  1.4164
 4024TIP3   OH233706   0.796   2.896   1.011  0.0780  0.1218 -0.3185
 4024TIP3    H133707   0.789   2.831   0.942 -0.7741  0.8914 -0.9856
 4024TIP3    H233708   0.890   2.910   1.021  0.2668 -1.0820 -0.2672
 4025TIP3   OH233709   3.998   0.070   0.669 -0.0545  0.6539 -0.4356
 4025TIP3    H133710   4.002   0.018   0.589  4.0670  1.3339 -0.8895
 4025TIP3    H233711   4.007   0.007   0.740 -1.3730  0.2736 -0.5742
 4026TIP3   OH233712   0.112   1.894   1.153  0.2276 -0.4697  0.4523
 4026TIP3    H133713   0.056   1.968   1.177 -0.0867 -0.2540 -0.8812
 4026TIP3    H233714   0.051   1.822   1.138  0.4252 -0.6186  0.3625
 4027TIP3   OH233715   1.965   1.114   0.124 -0.1309  0.4410 -0.0363
 4027TIP3    H133716   1.951   1.197   0.170  0.5234  0.8657 -0.5650
 4027TIP3    H233717   1.890   1.107   0.065 -0.6811  0.1733  0.6826
 4028TIP3   OH233718   0.781   4.241   1.819  0.6123  0.1566  0.2045
 4028TIP3    H133719   0.716   4.231   1.749  1.9856 -0.9212 -0.9980
 4028TIP3    H233720   0.761   4.325   1.859 -0.1340  0.8985 -1.6139
 4029TIP3   OH233721   3.488   6.128   1.844  0.1836  0.1081 -0.6772
 4029TIP3    H133722   3.544   6.205   1.856  0.1717  0.0646 -0.3228
 4029TIP3    H233723   3.437   6.148   1.765  1.6289 -0.4351 -1.8011
 4030TIP3   OH233724   5.553   2.951   7.951  0.6154  0.9639 -0.9538
 4030TIP3    H133725   5.489   3.000   8.002 -1.5152 -2.3049 -0.1810
 4030TIP3    H233726   5.521   2.957   7.861  0.0241  0.5419 -0.7769
 4031TIP3   OH233727   2.873   2.385   0.794  0.6903 -0.1316  0.3954
 4031TIP3    H133728   2.883   2.332   0.715 -2.5723  0.2250 -0.3902
 4031TIP3    H233729   2.921   2.466   0.775 -0.5228  0.1974 -1.5482
 4032TIP3   OH233730   2.033   3.897   2.395 -0.3828 -0.3660  0.2537
 4032TIP3    H133731   1.953   3.847   2.378 -1.4919  0.9738  1.2652
 4032TIP3    H233732   2.016   3.983   2.356  0.8271 -0.2364 -0.0419
 4033TIP3   OH233733   1.728   4.433   7.272  0.1509 -0.3078 -0.0801
 4033TIP3    H133734   1.730   4.415   7.178 -0.2865  2.8716 -0.8110
 4033TIP3    H233735   1.820   4.430   7.299  0.4967  0.7437 -1.0841
 4034TIP3   OH233736   0.854   5.024   2.383  0.2045 -0.0282 -0.1204
 4034TIP3    H133737   0.773   4.975   2.374  0.1136  0.0131  0.4172
 4034TIP3    H233738   0.889   4.997   2.468  1.2882 -0.8354 -0.7979
 4035TIP3   OH233739   1.969   4.551   0.203  0.2765 -0.8068 -0.2019
 4035TIP3    H133740   1.994   4.612   0.133  1.7985 -1.4771 -0.2890
 4035TIP3    H233741   2.049   4.541   0.255 -0.3857 -1.5510  0.6954
 4036TIP3   OH233742   4.766   0.567   0.524 -0.7194  0.6091 -0.8354
 4036TIP3    H133743   4.794   0.658   0.510 -1.3830  1.3687  2.0587
 4036TIP3    H233744   4.848   0.517   0.519  0.3510  1.9508  1.2438
 4037TIP3   OH233745   3.411   6.091   8.235  0.1315  0.9197  0.2212
 4037TIP3    H133746   3.435   6.181   8.254 -0.8196  1.3174 -0.3820
 4037TIP3    H233747   3.439   6.077   8.144  1.1447  0.2873  0.6127
 4038TIP3   OH233748   6.404   3.555   0.947 -0.2880 -0.4995 -0.4408
 4038TIP3    H133749   6.383   3.482   1.005  0.5577 -1.5156 -1.3619
 4038TIP3    H233750   6.495   3.539   0.920 -0.5986  0.0204 -1.8929
 4039TIP3   OH233751   3.963   5.364   7.303  0.0703  0.4442 -0.3785
 4039TIP3    H133752   3.917   5.386   7.384  0.1808 -2.1488  0.4774
 4039TIP3    H233753   4.052   5.343   7.331  0.4515  0.7068 -1.3605
 4040TIP3   OH233754   6.504   1.577   2.334 -0.4899 -0.2464 -0.7501
 4040TIP3    H133755   6.569   1.612   2.395 -0.7863 -2.0254  0.6806
 4040TIP3    H233756   6.420   1.611   2.367 -0.6838 -1.4699  0.0976
 4041TIP3   OH233757   5.575   6.407   7.157  0.2338  0.3751 -0.6060
 4041TIP3    H133758   5.584   6.406   7.253  0.2099 -1.1510 -0.5965
 4041TIP3    H233759   5.585   6.315   7.131 -0.4473  0.6776 -2.0154
 4042TIP3   OH233760   0.077   0.637   0.902  0.6180 -0.0271 -0.1335
 4042TIP3    H133761   0.057   0.594   0.986 -1.8526  1.1381 -0.0294
 4042TIP3    H233762   0.066   0.568   0.837  1.2932 -0.6383  0.3782
 4043TIP3   OH233763   0.539   2.238   8.037  0.0382  0.0604  0.0434
 4043TIP3    H133764   0.504   2.260   7.951  0.3474 -0.0609 -0.1148
 4043TIP3    H233765   0.466   2.254   8.097 -0.2235  0.0048 -0.2571
 4044TIP3   OH233766   4.460   4.407   7.897 -0.3391 -0.5629  0.5138
 4044TIP3    H133767   4.552   4.408   7.923  0.0989 -0.7327 -0.9150
 4044TIP3    H233768   4.432   4.316   7.912  1.1116 -1.8456 -3.2894
 4045TIP3   OH233769   0.555   2.264   0.989  0.1563 -0.5026  0.0668
 4045TIP3    H133770   0.626   2.285   1.050  1.6029 -2.3031 -0.9112
 4045TIP3    H233771   0.596   2.260   0.903 -1.4381 -0.1057 -0.7592
 4046TIP3   OH233772   2.038   3.549   2.102  0.4761 -0.2496  0.2419
 4046TIP3    H133773   1.951   3.581   2.081  0.1686 -1.2246  0.0123
 4046TIP3    H233774   2.025   3.483   2.170  1.0364 -0.3810  0.2328
 4047TIP3   OH233775   4.773   2.319   8.337 -0.0716  0.5716 -0.7043
 4047TIP3    H133776   4.736   2.298   8.423 -0.9425 -0.6075 -1.3273
 4047TIP3    H233777   4.736   2.404   8.315  1.5535  1.7378  0.8194
 4048TIP3   OH233778   0.204   0.280   1.794  0.1609 -0.1589 -0.1305
 4048TIP3    H133779   0.234   0.301   1.882 -0.2702  1.2401 -0.2950
 4048TIP3    H233780   0.268   0.322   1.736 -1.2506  1.6372 -0.4705
 4049TIP3   OH233781   1.807   0.670   7.999 -0.1937  0.9944  0.4249
 4049TIP3    H133782   1.724   0.630   7.976 -0.4073  1.8189 -0.2611
 4049TIP3    H233783   1.866   0.645   7.928 -0.2594  1.6654  0.1293
 4050TIP3   OH233784   5.647   1.052   0.431 -0.2275 -0.0994  0.5060
 4050TIP3    H133785   5.562   1.062   0.389 -0.6080  0.2191  1.3146
 4050TIP3    H233786   5.647   1.118   0.501  0.9808  0.4173  0.0511
 4051TIP3   OH233787   1.846   5.389   6.970  0.8782  0.2773  0.3970
 4051TIP3    H133788   1.782   5.443   7.017  0.3408 -1.3233  1.5673
 4051TIP3    H233789   1.825   5.402   6.877 -1.2488 -0.3082  0.7536
 4052TIP3   OH233790   3.770   1.047   2.248 -0.3476 -0.0990  0.0825
 4052TIP3    H133791   3.828   1.016   2.178 -0.9638  0.5887 -0.7558
 4052TIP3    H233792   3.768   0.975   2.311  1.3109 -0.1964  0.0851
 4053TIP3   OH233793   2.786   5.389   7.800 -0.3566  0.4144 -0.3789
 4053TIP3    H133794   2.829   5.348   7.725 -3.2305 -0.7320 -1.5379
 4053TIP3    H233795   2.794   5.324   7.871 -0.3707  0.1193 -0.6466
 4054TIP3   OH233796   2.083   2.934   0.515  0.1044 -0.6282 -0.1934
 4054TIP3    H133797   2.171   2.937   0.551  0.2722 -2.4013 -0.3719
 4054TIP3    H233798   2.086   2.865   0.449 -0.9370  0.5899 -1.6056
 4055TIP3   OH233799   5.928   4.709   0.625  0.1074  1.1371 -0.4201
 4055TIP3    H133800   5.861   4.675   0.684 -0.2072  0.1539 -1.3084
 4055TIP3    H233801   5.880   4.730   0.545  0.5289  2.4505 -0.3474
 4056TIP3   OH233802   5.308   0.480   2.229 -0.1956 -0.3685 -0.5833
 4056TIP3    H133803   5.398   0.456   2.251 -0.3356  0.3211  0.8888
 4056TIP3    H233804   5.265   0.490   2.314 -0.9805  1.7753 -1.1658
 4057TIP3   OH233805   6.440   4.065   1.312  0.2951 -0.3899  0.6530
 4057TIP3    H133806   6.530   4.040   1.331  0.3477 -0.1402  0.7420
 4057TIP3    H233807   6.387   4.002   1.360  0.4023 -1.5494 -0.6965
 4058TIP3   OH233808   0.858   0.783   0.289 -0.4259  0.1192  0.2993
 4058TIP3    H133809   0.802   0.711   0.261 -0.1571  0.1979 -0.4524
 4058TIP3    H233810   0.908   0.748   0.363  1.1436 -1.1405 -1.2688
 4059TIP3   OH233811   6.598   2.146   2.750  0.4839 -0.0275 -0.0981
 4059TIP3    H133812   6.602   2.051   2.752  0.4858 -0.0217  0.2130
 4059TIP3    H233813   6.689   2.174   2.760  0.5737 -0.0030 -0.9752
 4060TIP3   OH233814   2.745   6.457   1.792 -0.1651 -0.2385 -0.2228
 4060TIP3    H133815   2.677   6.484   1.854  0.5705  1.0994  0.0488
 4060TIP3    H233816   2.706   6.474   1.706  0.0275  1.1985 -0.0645
 4061TIP3   OH233817   2.510   5.737   1.447  0.0187 -0.1286  0.1014
 4061TIP3    H133818   2.499   5.820   1.495  0.2360 -0.3790  0.5848
 4061TIP3    H233819   2.504   5.669   1.514  1.5316 -0.4299 -0.0363
 4062TIP3   OH233820   3.716   6.512   0.023 -0.6963 -0.3606 -0.4258
 4062TIP3    H133821   3.660   6.589   0.027  1.2294  1.1070  0.2857
 4062TIP3    H233822   3.726   6.484   0.114 -1.0495 -1.2211 -0.6383
 4063TIP3   OH233823   0.109   6.920   0.991 -0.1598  0.0362 -0.1015
 4063TIP3    H133824   0.092   7.005   0.951  1.5455  0.0605 -0.8913
 4063TIP3    H233825   0.023   6.882   1.005 -0.9590  1.7595  0.0127
 4064TIP3   OH233826   3.752   6.490   2.376 -0.3146  0.1147 -0.2441
 4064TIP3    H133827   3.811   6.491   2.301 -0.8327  0.8373 -0.6508
 4064TIP3    H233828   3.804   6.452   2.447  1.4233  2.7722  0.0327
 4065TIP3   OH233829   2.820   0.343   1.011  0.2173 -0.4182 -0.2122
 4065TIP3    H133830   2.851   0.425   1.048  0.2636 -0.7930  0.6014
 4065TIP3    H233831   2.736   0.328   1.054  0.7878 -1.4200  0.6031
 4066TIP3   OH233832   2.514   2.071   2.484  0.4764 -0.2390 -0.2780
 4066TIP3    H133833   2.507   2.016   2.406 -0.6628  0.7135 -0.8704
 4066TIP3    H233834   2.423   2.085   2.512  0.8472 -0.2864  1.0308
 4067TIP3   OH233835   0.575   6.589   0.958 -0.1558  0.0765  0.8973
 4067TIP3    H133836   0.574   6.584   1.053 -0.1075 -2.4555  0.8282
 4067TIP3    H233837   0.482   6.590   0.933 -0.1736 -0.3076  0.9457
 4068TIP3   OH233838   2.833   4.892   3.344 -0.1424  0.2248  0.1606
 4068TIP3    H133839   2.775   4.834   3.393 -0.2323  0.6096  0.5160
 4068TIP3    H233840   2.839   4.852   3.257  1.0353 -1.1919  0.8337
 4069TIP3   OH233841   0.980   2.633   8.172  0.0338  0.3650  0.2546
 4069TIP3    H133842   1.029   2.711   8.148 -0.1592  0.3653 -0.1449
 4069TIP3    H233843   0.977   2.581   8.092  0.5013 -0.2372  0.6198
 4070TIP3   OH233844   5.106   5.912   1.592  0.1312  0.0794  0.0131
 4070TIP3    H133845   5.039   5.856   1.554  0.3318 -0.0018 -0.2273
 4070TIP3    H233846   5.184   5.896   1.538 -0.4269  2.4076 -1.6732
 4071TIP3   OH233847   6.493   5.468   2.254  0.4090 -0.0862 -0.2630
 4071TIP3    H133848   6.543   5.464   2.336  0.7708  2.0266 -0.2980
 4071TIP3    H233849   6.540   5.411   2.194  1.6113  0.2513  0.3192
 4072TIP3   OH233850   5.298   3.105   0.619 -0.3500 -0.3091  0.3882
 4072TIP3    H133851   5.219   3.115   0.567  0.0870 -0.3058 -0.2878
 4072TIP3    H233852   5.268   3.111   0.710 -1.2435 -1.1280  0.1640
 4073TIP3   OH233853   3.576   6.923   0.322 -0.3803  0.0298  0.1149
 4073TIP3    H133854   3.564   6.922   0.227 -1.3872 -0.0703  0.2309
 4073TIP3    H233855   3.535   6.842   0.352 -1.6817  0.8987  0.7967
 4074TIP3   OH233856   1.677   3.099   0.910 -0.5687 -0.2412 -0.4181
 4074TIP3    H133857   1.730   3.179   0.908 -0.0728 -0.5735 -1.1961
 4074TIP3    H233858   1.589   3.127   0.886 -0.2530 -0.0147 -1.3690
 4075TIP3   OH233859   2.027   2.489   2.615  0.2609  0.0441  0.0758
 4075TIP3    H133860   1.934   2.490   2.591  0.1544 -0.3648  0.4553
 4075TIP3    H233861   2.063   2.415   2.566  0.5278  0.5929 -0.5696
 4076TIP3   OH233862   1.907   6.098   0.317  0.5251  0.0829  0.5305
 4076TIP3    H133863   1.917   6.129   0.407  1.8479  0.2435  0.3421
 4076TIP3    H233864   1.872   6.174   0.270  0.8778  0.3408  0.6829
 4077TIP3   OH233865   0.288   3.187   0.748  0.0161 -0.4716 -0.2336
 4077TIP3    H133866   0.364   3.240   0.771  1.0986 -2.1674  0.3226
 4077TIP3    H233867   0.270   3.209   0.657  0.2353  1.0299  0.0632
 4078TIP3   OH233868   1.860   6.563   7.787  0.2770  0.0286 -0.7584
 4078TIP3    H133869   1.846   6.477   7.826 -0.0223  1.2458  2.0019
 4078TIP3    H233870   1.842   6.550   7.694  1.6957 -3.1832 -0.7030
 4079TIP3   OH233871   0.431   1.596   7.970 -0.1042 -0.3549 -0.3077
 4079TIP3    H133872   0.373   1.534   7.926  0.4467 -1.5595  0.6280
 4079TIP3    H233873   0.378   1.675   7.979 -1.7745 -1.5487  0.9024
 4080TIP3   OH233874   0.521   2.017   1.136  0.1599 -0.2470  0.1454
 4080TIP3    H133875   0.514   2.073   1.058 -0.9507  0.7286  0.9015
 4080TIP3    H233876   0.511   1.928   1.103 -1.1767  0.2009 -0.7400
 4081TIP3   OH233877   4.897   0.988   7.973  0.0991 -0.7111  0.5558
 4081TIP3    H133878   4.818   1.034   7.944  0.7959  0.2195  0.0873
 4081TIP3    H233879   4.891   0.902   7.931 -0.4684 -0.5038  0.2016
 4082TIP3   OH233880   0.306   2.118   1.732  0.5439 -0.6713 -0.4008
 4082TIP3    H133881   0.317   2.174   1.810 -1.4986 -0.3752 -0.2692
 4082TIP3    H233882   0.332   2.174   1.659 -2.2508  0.8665 -0.3548
 4083TIP3   OH233883   1.932   6.073   1.924 -0.5513 -0.1443 -0.6368
 4083TIP3    H133884   1.860   6.055   1.985 -0.7851  0.2523 -0.7957
 4083TIP3    H233885   1.947   5.989   1.881 -1.3677 -0.0810 -1.0767
 4084TIP3   OH233886   5.021   5.299   0.138  0.3481 -0.8336 -0.7165
 4084TIP3    H133887   5.044   5.245   0.062 -0.8407 -2.1433 -0.1771
 4084TIP3    H233888   4.958   5.247   0.187  1.2402 -0.1029  1.3141
 4085TIP3   OH233889   4.702   4.964   1.255  0.0718 -0.1452  0.0467
 4085TIP3    H133890   4.671   4.902   1.189 -1.6460 -1.0652  1.6462
 4085TIP3    H233891   4.795   4.977   1.234  0.0682 -1.9802 -1.3045
 4086TIP3   OH233892   3.568   3.008   1.679 -0.3383  0.6158  0.0002
 4086TIP3    H133893   3.562   2.922   1.720  2.5194 -0.8076 -2.2250
 4086TIP3    H233894   3.657   3.038   1.700 -0.4868  1.9735 -1.1506
 4087TIP3   OH233895   2.439   6.270   1.241  0.2230  0.0519 -0.0739
 4087TIP3    H133896   2.518   6.253   1.293  1.6158  1.5762 -1.5615
 4087TIP3    H233897   2.372   6.291   1.305  0.8803 -1.6444  1.2586
 4088TIP3   OH233898   4.484   5.838   2.491 -0.6548 -0.1774 -1.2611
 4088TIP3    H133899   4.531   5.762   2.458  3.2610  0.2412  2.4315
 4088TIP3    H233900   4.464   5.816   2.582  0.0803  2.8994 -0.2363
 4089TIP3   OH233901   3.656   3.494   1.547  0.2043 -0.1763  0.5115
 4089TIP3    H133902   3.630   3.493   1.639 -3.2193  0.0186 -0.2973
 4089TIP3    H233903   3.658   3.587   1.524  1.5918 -0.1956  0.4581
 4090TIP3   OH233904   0.333   3.080   3.417  0.4252  0.2299 -0.1362
 4090TIP3    H133905   0.273   3.022   3.465  0.1775  3.1290  3.4909
 4090TIP3    H233906   0.275   3.129   3.358 -0.3535  0.8301  1.0793
 4091TIP3   OH233907   5.467   2.851   3.095 -0.1553  0.5579 -0.4330
 4091TIP3    H133908   5.412   2.773   3.081  0.5944 -0.0951  0.1486
 4091TIP3    H233909   5.406   2.924   3.093 -0.8751 -0.0383 -1.0511
 4092TIP3   OH233910   4.730   5.861   0.479 -0.1203  0.4826  0.1233
 4092TIP3    H133911   4.673   5.799   0.525 -0.7597  0.1306 -1.1040
 4092TIP3    H233912   4.677   5.941   0.472  0.5954  1.1015  1.4482
 4093TIP3   OH233913   5.207   3.635   7.404  0.1855  0.8632  0.5476
 4093TIP3    H133914   5.158   3.553   7.407  1.3745  0.1489  1.7628
 4093TIP3    H233915   5.156   3.692   7.347 -0.1790 -1.0506 -1.1674
 4094TIP3   OH233916   1.792   2.601   0.631  0.0963  0.0590 -0.1612
 4094TIP3    H133917   1.755   2.516   0.653 -1.4389  1.0590  1.3276
 4094TIP3    H233918   1.729   2.665   0.663  0.8621  1.7896 -1.8516
 4095TIP3   OH233919   0.813   0.022   1.785  0.6686  0.0402 -0.6133
 4095TIP3    H133920   0.771  -0.022   1.859  1.2837  1.0735  0.3983
 4095TIP3    H233921   0.769   0.107   1.780  0.5985 -0.0371 -1.4878
 4096TIP3   OH233922   2.422   6.561   1.668 -0.0276  0.2306  0.2243
 4096TIP3    H133923   2.369   6.482   1.673  1.0137 -0.5495 -0.5819
 4096TIP3    H233924   2.483   6.554   1.743  1.1731 -0.5998 -0.7893
 4097TIP3   OH233925   1.540   0.411   0.250 -0.0288  0.0583 -0.1353
 4097TIP3    H133926   1.508   0.464   0.323 -3.0346 -0.9230 -0.5790
 4097TIP3    H233927   1.460   0.378   0.208  1.5647  0.1217 -3.5555
 4098TIP3   OH233928   6.706   2.717   2.363 -0.3707  0.1140  0.6339
 4098TIP3    H133929   6.679   2.653   2.429  1.2899 -0.7713  0.5173
 4098TIP3    H233930   6.722   2.797   2.412 -0.3350 -0.1955  1.1382
 4099TIP3   OH233931   2.844   6.275   1.607  0.0993  0.6081  0.2891
 4099TIP3    H133932   2.827   6.299   1.698  0.3933  0.9812  0.2472
 4099TIP3    H233933   2.857   6.180   1.610  0.4437  0.6632  0.6911
 4100TIP3   OH233934   3.749   4.891   1.137  0.1712 -0.3999  0.0891
 4100TIP3    H133935   3.781   4.981   1.144  0.7670 -0.5713 -0.3628
 4100TIP3    H233936   3.707   4.887   1.050  1.7679 -1.0502 -0.6842
 4101TIP3   OH233937   4.102   3.279   0.945 -0.1248 -0.3417  0.1500
 4101TIP3    H133938   4.065   3.221   1.012 -0.8034  0.5218  0.5455
 4101TIP3    H233939   4.050   3.261   0.866 -2.9668  2.2793  1.1818
 4102TIP3   OH233940   3.616   2.404   0.536 -0.3256  0.1623  0.4483
 4102TIP3    H133941   3.554   2.366   0.598 -0.7746  0.3031  0.0914
 4102TIP3    H233942   3.643   2.330   0.481  0.0548  0.0426  0.7964
 4103TIP3   OH233943   1.652   3.877   0.821  0.7084 -0.1204  0.8008
 4103TIP3    H133944   1.627   3.814   0.888 -0.2454 -1.0140 -0.3716
 4103TIP3    H233945   1.592   3.951   0.834  0.7509 -0.1419  1.1307
 4104TIP3   OH233946   0.558   4.225   3.398  0.3101  0.1661  0.4675
 4104TIP3    H133947   0.585   4.306   3.354  4.6108  0.1042  2.5044
 4104TIP3    H233948   0.487   4.191   3.343  1.1636  3.1050 -2.8625
 4105TIP3   OH233949   1.316   3.282   1.137  0.0099  0.0379  0.3961
 4105TIP3    H133950   1.371   3.218   1.182  0.5595 -2.6489 -3.5731
 4105TIP3    H233951   1.228   3.244   1.141  0.3473 -1.1645 -2.0305
 4106TIP3   OH233952   1.239   6.135   0.065  0.8909  0.0929 -0.0465
 4106TIP3    H133953   1.293   6.123   0.144 -0.8849 -0.4113  1.1589
 4106TIP3    H233954   1.174   6.199   0.090 -0.2146 -0.6937 -0.8189
 4107TIP3   OH233955   1.759   5.557   0.912  0.1337 -0.5937  0.1047
 4107TIP3    H133956   1.849   5.552   0.944  0.3468 -0.4361 -0.4584
 4107TIP3    H233957   1.762   5.519   0.825  0.4196  2.5657 -1.4291
 4108TIP3   OH233958   2.649   6.019   3.295 -0.1367 -0.0026  0.3952
 4108TIP3    H133959   2.734   6.058   3.313 -0.1041 -0.4125  1.1940
 4108TIP3    H233960   2.586   6.090   3.307  0.0411  0.1446  0.4463
 4109TIP3   OH233961   2.092   0.662   1.132 -0.0204 -0.1376 -0.0044
 4109TIP3    H133962   2.154   0.731   1.108  1.0941 -0.0044  2.8923
 4109TIP3    H233963   2.016   0.679   1.077  1.2107  1.8064 -1.2367
 4110TIP3   OH233964   3.211   3.347   2.131 -0.3304  0.4226 -0.0940
 4110TIP3    H133965   3.250   3.369   2.047 -0.1184 -1.0047 -0.3926
 4110TIP3    H233966   3.117   3.359   2.119 -0.2289  1.1371 -0.2285
 4111TIP3   OH233967   2.237   1.315   0.283 -0.2597  0.2624 -0.4868
 4111TIP3    H133968   2.301   1.249   0.308 -0.5629  0.3455  0.5886
 4111TIP3    H233969   2.152   1.271   0.293 -0.4244  0.5458 -0.6069
 4112TIP3   OH233970   6.958   3.729   0.326 -0.3184 -0.1290  0.4427
 4112TIP3    H133971   7.023   3.659   0.323 -0.7084 -0.5358  1.2554
 4112TIP3    H233972   7.010   3.809   0.315  0.7673 -0.2201  3.7234
 4113TIP3   OH233973   4.011   4.556   8.126  0.2750  0.2200 -0.1386
 4113TIP3    H133974   3.977   4.564   8.215 -0.3936 -2.3737 -0.0842
 4113TIP3    H233975   4.102   4.530   8.137  0.0511 -0.6186 -0.1664
 4114TIP3   OH233976   2.698   1.796   1.057  0.0490 -0.0075  0.1430
 4114TIP3    H133977   2.742   1.724   1.012 -1.7911 -0.7375 -0.5601
 4114TIP3    H233978   2.691   1.767   1.147  0.5919 -0.0703  0.1701
 4115TIP3   OH233979   5.794   6.597   7.952  0.1380  0.0939  0.7148
 4115TIP3    H133980   5.848   6.673   7.972  0.0363  0.7585 -1.3460
 4115TIP3    H233981   5.724   6.630   7.897 -0.4369 -1.3324  0.5386
 4116TIP3   OH233982   3.171   6.935   1.537  0.1668  0.4460 -0.1711
 4116TIP3    H133983   3.157   7.030   1.539 -0.5731  0.3326  0.5406
 4116TIP3    H233984   3.086   6.899   1.514  0.8394  0.0088 -2.1636
 4117TIP3   OH233985   0.022   2.219   8.102  0.3061  0.3185 -0.0557
 4117TIP3    H133986  -0.023   2.299   8.076  1.2976  0.9790  0.2022
 4117TIP3    H233987  -0.023   2.191   8.182  0.7675  1.3543  0.5918
 4118TIP3   OH233988   0.542   5.107   2.215  0.1969 -0.5488  0.6421
 4118TIP3    H133989   0.510   5.017   2.215 -2.4443  0.2769 -1.8453
 4118TIP3    H233990   0.476   5.156   2.263  0.9068  0.3198  0.7604
 4119TIP3   OH233991   4.295   4.640   1.846  0.1779  0.3380  0.4334
 4119TIP3    H133992   4.250   4.654   1.929 -0.9177 -0.4079 -0.0205
 4119TIP3    H233993   4.378   4.599   1.872  0.1619  0.7624  1.2014
 4120TIP3   OH233994   3.909   1.397   2.895 -1.2076  0.3027 -0.7237
 4120TIP3    H133995   3.975   1.395   2.965 -1.9225 -0.1925 -0.0488
 4120TIP3    H233996   3.895   1.305   2.873 -0.7157  0.4677 -1.8046
 4121TIP3   OH233997   1.987   1.224   7.578  0.7316  0.2705 -0.8143
 4121TIP3    H133998   2.008   1.149   7.522 -0.5760  0.0765 -1.0661
 4121TIP3    H233999   1.892   1.233   7.572  0.5634  0.3404  1.2699
 4122TIP3   OH234000   6.641   6.414   0.198  0.1399  0.0281 -0.2146
 4122TIP3    H134001   6.563   6.360   0.186  0.0386  0.4050 -1.3295
 4122TIP3    H234002   6.647   6.425   0.293 -0.9989 -0.2487 -0.0914
 4123TIP3   OH234003   2.029   2.271   8.049 -0.9182  0.1044  0.4075
 4123TIP3    H134004   2.048   2.359   8.018 -1.1125  0.1881  0.5254
 4123TIP3    H234005   1.934   2.264   8.047 -0.9364  0.1347  1.0510
 4124TIP3   OH234006   6.435   1.387   8.327 -0.1333 -0.2303  0.0308
 4124TIP3    H134007   6.477   1.445   8.264  0.0386  0.3566  0.6727
 4124TIP3    H234008   6.376   1.443   8.376  0.7817 -0.3594  1.3497
 4125TIP3   OH234009   4.721   5.813   7.117 -0.0088 -0.9148 -0.4675
 4125TIP3    H134010   4.732   5.728   7.074 -1.8380 -0.5285 -1.8299
 4125TIP3    H234011   4.629   5.836   7.100 -0.0339  0.5360  1.3878
 4126TIP3   OH234012   2.171   6.895   2.551 -0.5544  0.5401  0.5610
 4126TIP3    H134013   2.208   6.979   2.526  0.8522 -0.2921 -0.2801
 4126TIP3    H234014   2.086   6.891   2.507  0.0439  0.8709 -0.6467
 4127TIP3   OH234015   7.019   3.737   1.004  0.0538 -0.1294  0.0187
 4127TIP3    H134016   7.088   3.712   0.944  0.6601 -1.4523  1.2020
 4127TIP3    H234017   6.969   3.656   1.018 -0.8713  0.4677  0.2681
 4128TIP3   OH234018   4.340   4.987   0.073 -0.0857 -0.2607  0.3841
 4128TIP3    H134019   4.278   5.024   0.136  0.0163  0.1095  0.2741
 4128TIP3    H234020   4.398   5.061   0.052  0.4515 -0.6255  0.5626
 4129TIP3   OH234021   6.475   3.058   7.992  0.4386  0.2200 -0.4200
 4129TIP3    H134022   6.558   3.042   7.948 -0.0833 -1.8640 -0.8018
 4129TIP3    H234023   6.472   2.991   8.061 -0.5381  0.8211  0.1414
 4130TIP3   OH234024   1.956   3.607   7.089  0.5711 -0.3719  0.5928
 4130TIP3    H134025   1.883   3.668   7.099 -0.0158 -0.3787 -2.5178
 4130TIP3    H234026   2.025   3.642   7.145  0.0439  2.8265 -0.5366
 4131TIP3   OH234027   3.436   2.026   1.644 -0.1087  0.1401  0.1980
 4131TIP3    H134028   3.454   1.944   1.691  1.2785  0.8141  0.9004
 4131TIP3    H234029   3.342   2.024   1.627 -0.1478 -1.4743  0.4346
 4132TIP3   OH234030   2.864   0.371   0.469 -0.1405  0.0456  0.2019
 4132TIP3    H134031   2.869   0.459   0.431  0.3443 -0.5196 -1.0958
 4132TIP3    H234032   2.824   0.385   0.555  1.6974  1.7757  0.8470
 4133TIP3   OH234033   2.856   0.815   0.722  0.1773  0.4231 -0.6742
 4133TIP3    H134034   2.812   0.898   0.703  0.9043  0.2502 -3.4048
 4133TIP3    H234035   2.942   0.824   0.681  1.0645 -0.9216  0.8059
 4134TIP3   OH234036   1.967   0.330   2.793  0.0401  0.3464  0.2548
 4134TIP3    H134037   2.063   0.331   2.788  0.0405 -1.7055 -1.2970
 4134TIP3    H234038   1.939   0.365   2.708 -0.5797  0.3759  0.4706
 4135TIP3   OH234039   3.489   3.061   8.160  0.4562  0.7051  0.6607
 4135TIP3    H134040   3.501   3.156   8.165  1.2011  0.6279  0.3866
 4135TIP3    H234041   3.568   3.029   8.116 -0.3006  0.0830 -0.2911
 4136TIP3   OH234042   3.998   3.839   0.616  0.1714  0.8939 -0.5131
 4136TIP3    H134043   4.085   3.861   0.650  1.0395 -2.3773 -0.3148
 4136TIP3    H234044   3.996   3.879   0.529  1.5353  1.7058 -0.2138
 4137TIP3   OH234045   4.866   6.536   1.827 -0.6269  0.9556  0.4454
 4137TIP3    H134046   4.938   6.517   1.767 -1.2186  0.8927 -0.2587
 4137TIP3    H234047   4.906   6.587   1.898  0.1191  0.8539  0.0997
 4138TIP3   OH234048   2.227   3.099   7.734 -0.6685  0.5379 -0.2497
 4138TIP3    H134049   2.255   3.187   7.760  2.9854 -0.4062 -0.4786
 4138TIP3    H234050   2.227   3.101   7.638 -0.5634  0.2923 -0.2562
 4139TIP3   OH234051   3.402   6.852   1.728  0.0233 -0.5729 -0.2996
 4139TIP3    H134052   3.414   6.855   1.634 -1.0879 -1.9318 -0.5257
 4139TIP3    H234053   3.315   6.814   1.740  0.2340 -0.6544  1.2792
 4140TIP3   OH234054   0.055   0.598   1.996 -0.2249 -0.1610 -0.1315
 4140TIP3    H134055   0.022   0.657   1.929  1.0124 -1.2475 -1.7886
 4140TIP3    H234056   0.135   0.562   1.958  0.9928 -0.2081  2.2828
 4141TIP3   OH234057   5.222   6.062   7.957 -0.0422 -0.2671  0.0503
 4141TIP3    H134058   5.203   6.153   7.978  0.7879  0.4313 -2.0093
 4141TIP3    H234059   5.293   6.038   8.018  0.8858  1.0070 -0.4830
 4142TIP3   OH234060   5.649   6.249   7.409  0.6327 -0.1885  0.4344
 4142TIP3    H134061   5.664   6.159   7.379 -1.0618 -0.0958 -0.8362
 4142TIP3    H234062   5.570   6.244   7.463 -0.6988  0.8166 -1.3311
 4143TIP3   OH234063   4.368   5.277   1.262  0.6621 -0.4813  0.2593
 4143TIP3    H134064   4.442   5.285   1.323  0.3024 -2.6176  1.0494
 4143TIP3    H234065   4.292   5.303   1.314  0.4410 -1.6667  0.5576
 4144TIP3   OH234066   4.346   3.168   2.871 -0.8696 -0.1992  0.4922
 4144TIP3    H134067   4.426   3.198   2.915 -1.2294  0.2371  0.8603
 4144TIP3    H234068   4.365   3.077   2.847 -0.4317 -0.2483  0.9875
 4145TIP3   OH234069   0.669   6.369   8.032 -0.2967 -0.0808  0.2862
 4145TIP3    H134070   0.661   6.298   7.970  0.7076 -1.5190  1.7170
 4145TIP3    H234071   0.655   6.448   7.980  0.8781 -1.1767 -1.8491
 4146TIP3   OH234072   2.727   2.389   1.612 -0.2285 -0.0135 -0.1387
 4146TIP3    H134073   2.821   2.403   1.625 -0.7119  3.4311  0.4308
 4146TIP3    H234074   2.715   2.393   1.517  0.0394  1.1566 -0.1373
 4147TIP3   OH234075   5.739   5.124   0.962 -0.1100  0.4604 -0.2601
 4147TIP3    H134076   5.667   5.169   1.005 -0.4445 -2.2224  2.2717
 4147TIP3    H234077   5.697   5.060   0.904  0.1770 -0.9183  1.0116
 4148TIP3   OH234078   6.288   4.128   7.098  0.2925  0.4807 -0.2927
 4148TIP3    H134079   6.281   4.034   7.114  0.5386 -0.0010 -2.5593
 4148TIP3    H234080   6.370   4.137   7.048 -0.2605  1.7359 -1.0257
 4149TIP3   OH234081   2.269   4.553   2.997 -0.7707  0.3992 -1.0974
 4149TIP3    H134082   2.353   4.580   2.960  0.1800  0.4993  0.9908
 4149TIP3    H234083   2.289   4.471   3.043 -1.8257  0.3671 -0.6720
 4150TIP3   OH234084   1.237   5.431   0.371 -0.0204  0.2744  0.0495
 4150TIP3    H134085   1.222   5.525   0.361 -1.0697  0.1208  0.1000
 4150TIP3    H234086   1.208   5.412   0.460 -0.4138 -0.2058 -0.1761
 4151TIP3   OH234087   1.370   2.299   0.291 -0.7705  0.7078 -0.2195
 4151TIP3    H134088   1.430   2.250   0.346 -0.6977 -0.5772 -1.3941
 4151TIP3    H234089   1.383   2.390   0.317  0.4868  0.2984  0.6819
 4152TIP3   OH234090   1.450   2.041   2.284  0.2431  0.4330 -0.0078
 4152TIP3    H134091   1.368   2.073   2.323 -0.4798  0.5054 -1.4862
 4152TIP3    H234092   1.519   2.081   2.336 -0.6624  0.4956  1.1828
 4153TIP3   OH234093   4.123   0.769   7.817 -0.1398 -0.7987  0.2053
 4153TIP3    H134094   4.127   0.765   7.721  0.5883  2.0414  0.0253
 4153TIP3    H234095   4.166   0.688   7.846  0.2414 -1.4010 -1.8558
 4154TIP3   OH234096   0.289   0.450   0.015  0.4527 -0.1362  0.1001
 4154TIP3    H134097   0.307   0.496  -0.068 -0.0655 -0.1004  0.0021
 4154TIP3    H234098   0.195   0.433   0.012  0.3832  0.1127  0.8092
 4155TIP3   OH234099   6.857   5.350   1.854 -0.6067  0.3176 -0.6821
 4155TIP3    H134100   6.869   5.326   1.762  1.0561  0.4473 -0.5266
 4155TIP3    H234101   6.836   5.443   1.853  0.5034  0.5772 -0.8919
 4156TIP3   OH234102   2.917   2.281   1.059  0.0386 -0.7099  0.2368
 4156TIP3    H134103   2.894   2.314   0.972 -1.6161  0.4582  1.0524
 4156TIP3    H234104   2.904   2.187   1.054 -0.7597 -0.5695 -0.5902
 4157TIP3   OH234105   0.293   3.922   7.736 -0.1683  0.1098  0.2105
 4157TIP3    H134106   0.243   4.004   7.730  0.8781  0.6737 -2.2297
 4157TIP3    H234107   0.310   3.898   7.645  1.8951 -1.3702  0.9107
 4158TIP3   OH234108   6.526   0.697   2.326  0.0316  0.3087  0.2536
 4158TIP3    H134109   6.590   0.763   2.354 -0.6959  0.2409  2.2486
 4158TIP3    H234110   6.541   0.687   2.232  2.1181  1.1856  0.4385
 4159TIP3   OH234111   4.719   5.630   7.401 -0.5357 -0.3393 -0.0059
 4159TIP3    H134112   4.741   5.573   7.475  1.7873  2.1030  1.3671
 4159TIP3    H234113   4.694   5.570   7.331 -0.2808 -2.8949  1.9431
 4160TIP3   OH234114   2.772   2.540   2.278  0.6397  0.2942  0.0136
 4160TIP3    H134115   2.802   2.535   2.187 -0.2013 -0.1653 -0.2477
 4160TIP3    H234116   2.761   2.449   2.305 -1.3509  0.4148 -0.2054
 4161TIP3   OH234117   5.583   2.543   0.667  0.4871  0.0842  0.3360
 4161TIP3    H134118   5.497   2.555   0.706  1.3457  1.7213  1.8775
 4161TIP3    H234119   5.598   2.622   0.615  0.4290 -0.9256 -1.3127
 4162TIP3   OH234120   0.321   6.543   1.807  0.0978  0.1084  0.1681
 4162TIP3    H134121   0.285   6.522   1.893 -0.2471 -1.7603 -0.3860
 4162TIP3    H234122   0.413   6.520   1.813  0.2939  0.8883  0.3029
 4163TIP3   OH234123   6.550   5.718   0.545 -0.7706  0.1863  0.4695
 4163TIP3    H134124   6.610   5.685   0.478 -0.6668  1.2404  0.0150
 4163TIP3    H234125   6.568   5.664   0.622  0.7908  0.4699  0.3549
 4164TIP3   OH234126   2.238   6.376   1.705 -0.1973 -0.2006  0.0376
 4164TIP3    H134127   2.293   6.298   1.710  0.1359  0.0511  0.3839
 4164TIP3    H234128   2.172   6.364   1.773  0.7274  0.4742  1.0914
 4165TIP3   OH234129   6.601   4.953   1.004 -0.2551  0.4016 -0.1001
 4165TIP3    H134130   6.584   5.007   0.927 -1.3635 -0.3689 -0.4251
 4165TIP3    H234131   6.519   4.957   1.054 -0.1543 -0.5046  0.1536
 4166TIP3   OH234132   0.374   1.514   1.205 -0.1724 -0.6176 -0.0464
 4166TIP3    H134133   0.432   1.474   1.269 -1.5576 -0.2236  1.5518
 4166TIP3    H234134   0.364   1.605   1.235 -2.8260 -1.0685  0.7388
 4167TIP3   OH234135   5.943   3.332   7.814 -0.4492  0.1852 -0.0700
 4167TIP3    H134136   5.870   3.272   7.798  0.1379 -0.4391 -0.4662
 4167TIP3    H234137   5.998   3.286   7.878 -0.3125  0.5782  0.1020
 4168TIP3   OH234138   6.023   4.392   6.803  0.1686  0.1688  0.3152
 4168TIP3    H134139   6.063   4.434   6.727  0.8244  0.3873  0.7710
 4168TIP3    H234140   5.986   4.311   6.769  0.0834  0.4709 -0.3173
 4169TIP3   OH234141   2.978   3.557   0.334  0.3200 -0.6886 -0.3961
 4169TIP3    H134142   3.047   3.507   0.290 -0.8129 -1.1288 -1.7694
 4169TIP3    H234143   2.986   3.645   0.297  0.1215 -0.7535 -0.5956
 4170TIP3   OH234144   0.577   4.891   3.326  0.2230  0.3074 -0.3396
 4170TIP3    H134145   0.665   4.863   3.352 -0.8345 -1.5230  1.5128
 4170TIP3    H234146   0.520   4.819   3.352 -2.0248  2.0154 -0.2296
 4171TIP3   OH234147   0.913   1.510   1.033 -0.0638 -0.1831 -0.5776
 4171TIP3    H134148   0.866   1.527   0.951  1.1949 -0.0775 -1.3128
 4171TIP3    H234149   1.004   1.530   1.012  0.1567  0.8070  1.1418
 4172TIP3   OH234150   5.583   6.942   1.319 -0.0776 -0.4521 -0.2703
 4172TIP3    H134151   5.555   7.021   1.274  0.0603 -0.7385 -0.8596
 4172TIP3    H234152   5.654   6.907   1.266  0.2574 -0.6554  0.3022
 4173TIP3   OH234153   5.034   5.201   1.781  0.0216  0.2407  0.0419
 4173TIP3    H134154   4.952   5.250   1.770  0.1691  0.5569  0.3153
 4173TIP3    H234155   5.047   5.156   1.697  0.0282  0.8936 -0.3117
 4174TIP3   OH234156   6.490   2.875   2.787  0.1656 -0.1815 -0.1138
 4174TIP3    H134157   6.444   2.791   2.786  0.0385 -0.1478  1.0375
 4174TIP3    H234158   6.582   2.852   2.800  0.4766 -0.2384 -2.2011
 4175TIP3   OH234159   2.826   1.388   0.923 -0.5474 -0.4091 -0.0313
 4175TIP3    H134160   2.818   1.433   1.007 -0.0832  0.0718 -0.2364
 4175TIP3    H234161   2.757   1.322   0.924 -0.1002 -0.8883  1.0309
 4176TIP3   OH234162   4.694   6.728   1.951 -0.3850  0.1151  0.6022
 4176TIP3    H134163   4.654   6.643   1.970  1.1266 -0.5867  0.7778
 4176TIP3    H234164   4.632   6.771   1.892 -0.3474 -1.8714 -1.0047
 4177TIP3   OH234165   2.044   0.133   3.104  0.2306 -0.0795  0.0858
 4177TIP3    H134166   2.011   0.114   3.192 -2.9881  1.7195 -0.5847
 4177TIP3    H234167   2.093   0.215   3.114 -0.5143  0.3640  0.1520
 4178TIP3   OH234168   6.716   1.171   7.665  0.3332 -0.1272  0.3347
 4178TIP3    H134169   6.621   1.167   7.652  0.2230  0.3847  0.9421
 4178TIP3    H234170   6.751   1.189   7.577 -0.2937  1.8348  0.4287
 4179TIP3   OH234171   3.578   3.401   0.711 -0.6001  0.2596  0.5014
 4179TIP3    H134172   3.566   3.307   0.716  0.3525  0.1418  1.0166
 4179TIP3    H234173   3.636   3.421   0.785  1.0227  0.9167 -0.8809
 4180TIP3   OH234174   2.021   5.608   2.026 -0.2307 -0.2145  0.1237
 4180TIP3    H134175   1.982   5.521   2.017 -0.3030 -0.4861  2.3567
 4180TIP3    H234176   1.947   5.667   2.032 -0.1904 -0.0680 -0.7143
 4181TIP3   OH234177   1.556   4.561   1.555 -0.1453 -1.0930  1.0494
 4181TIP3    H134178   1.574   4.499   1.484 -1.2461 -0.3514  0.0792
 4181TIP3    H234179   1.629   4.621   1.554  0.0354 -1.3136  0.7930
 4182TIP3   OH234180   2.409   1.102   1.693 -0.3878  0.3851 -0.4940
 4182TIP3    H134181   2.330   1.145   1.660 -0.4264  0.7849  0.1120
 4182TIP3    H234182   2.479   1.136   1.637 -0.6186  0.1330 -0.9430
 4183TIP3   OH234183   0.545   4.865   0.111  0.3112 -0.2078 -0.3097
 4183TIP3    H134184   0.532   4.809   0.187 -0.4231 -0.3608 -0.5415
 4183TIP3    H234185   0.597   4.939   0.144  0.9467 -0.8139  0.0827
 4184TIP3   OH234186   6.149   2.929   1.905  0.1568  0.1170  0.3581
 4184TIP3    H134187   6.113   2.870   1.839 -0.0738  0.4086  0.2178
 4184TIP3    H234188   6.165   2.873   1.981 -2.6955  0.3191  1.2289
 4185TIP3   OH234189   2.736   2.636   8.016 -0.5861 -0.2090  0.4950
 4185TIP3    H134190   2.827   2.607   8.022 -0.7777 -1.4435 -1.3847
 4185TIP3    H234191   2.741   2.723   7.978 -0.1681 -0.2071  0.5490
 4186TIP3   OH234192   2.919   2.296   7.396 -0.4911  0.2236 -0.0725
 4186TIP3    H134193   2.976   2.240   7.343 -1.0526  0.7108 -1.2275
 4186TIP3    H234194   2.837   2.301   7.347 -1.0140  0.7359  0.8270
 4187TIP3   OH234195   1.426   4.645   3.068 -0.5587  0.1848 -0.4648
 4187TIP3    H134196   1.386   4.617   3.150  1.5775 -1.9070 -0.0043
 4187TIP3    H234197   1.476   4.723   3.091 -1.2080  0.5178 -0.1612
 4188TIP3   OH234198   3.594   5.652   1.525 -0.3826 -0.7005 -0.3684
 4188TIP3    H134199   3.520   5.680   1.578  0.1235 -1.2914  0.6907
 4188TIP3    H234200   3.652   5.729   1.522 -0.9073 -0.3217 -0.9833
 4189TIP3   OH234201   4.963   0.342   0.533 -0.1970  0.1358  0.3965
 4189TIP3    H134202   4.934   0.253   0.512  0.3083  0.0175  0.1900
 4189TIP3    H234203   5.058   0.338   0.528 -0.1760  0.7289  0.2321
 4190TIP3   OH234204   4.369   6.902   0.164 -0.4185  0.1876  0.1172
 4190TIP3    H134205   4.464   6.906   0.179 -0.1297 -1.3506 -1.0839
 4190TIP3    H234206   4.336   6.983   0.204  1.6136  1.7766 -1.1881
 4191TIP3   OH234207   6.044   2.891   3.722  0.0867  0.2598  0.0602
 4191TIP3    H134208   6.057   2.948   3.646  0.8969  0.1023  0.0745
 4191TIP3    H234209   5.953   2.906   3.747 -0.8291 -1.1454 -2.1343
 4192TIP3   OH234210   2.939   2.267   0.191  0.1815  0.4938 -0.2211
 4192TIP3    H134211   2.983   2.232   0.114  1.3331  1.4255 -0.0112
 4192TIP3    H234212   3.009   2.282   0.254 -0.4186  2.0169  0.1270
 4193TIP3   OH234213   3.837   2.605   1.137 -0.1406  0.1820  0.0641
 4193TIP3    H134214   3.824   2.627   1.230 -2.1331 -1.1521  0.1492
 4193TIP3    H234215   3.810   2.684   1.090 -0.7971  0.2655  0.5710
 4194TIP3   OH234216   0.901   6.522   7.988  0.8050 -0.1282  0.3985
 4194TIP3    H134217   0.862   6.479   8.064  1.4149  0.5726  1.1244
 4194TIP3    H234218   0.990   6.543   8.016 -0.0633  3.5725  0.9175
 4195TIP3   OH234219   1.786   0.317   8.234  0.0360 -0.0642  0.2238
 4195TIP3    H134220   1.808   0.267   8.313 -1.1369 -0.5729  0.2492
 4195TIP3    H234221   1.859   0.377   8.222 -0.1549  0.6341  2.1989
 4196TIP3   OH234222   1.189   6.744   0.646 -0.3100  0.1431 -0.3447
 4196TIP3    H134223   1.216   6.708   0.730 -0.0091  1.8520  0.3352
 4196TIP3    H234224   1.095   6.726   0.641 -0.0397 -1.3372 -0.3852
 4197TIP3   OH234225   0.356   3.139   3.076 -0.0413 -0.1630 -0.6787
 4197TIP3    H134226   0.393   3.222   3.047 -0.1636  0.1727  0.1190
 4197TIP3    H234227   0.288   3.163   3.139  0.0946 -0.8733 -0.2455
 4198TIP3   OH234228   6.157   4.504   2.274 -0.1306  0.0954 -0.6301
 4198TIP3    H134229   6.097   4.570   2.239  0.0314  1.4366  1.4393
 4198TIP3    H234230   6.101   4.429   2.293 -0.8389  0.6634 -0.4130
 4199TIP3   OH234231   4.333   1.942   2.313 -0.5409  0.0903 -0.2340
 4199TIP3    H134232   4.271   1.907   2.250 -1.3936 -0.2170  0.7465
 4199TIP3    H234233   4.309   2.034   2.322 -1.1493 -0.1201  0.4462
 4200TIP3   OH234234   0.494   0.422   2.985  0.0913  0.1690  0.2528
 4200TIP3    H134235   0.443   0.436   3.065  0.2009  0.6181  0.2445
 4200TIP3    H234236   0.477   0.499   2.931  0.6182  0.2316  0.1653
 4201TIP3   OH234237   5.209   1.068   8.375  0.7084 -0.0067 -0.1806
 4201TIP3    H134238   5.186   1.161   8.366  0.2798 -0.0652  0.2967
 4201TIP3    H234239   5.135   1.021   8.338  0.6229 -0.1702  0.1921
 4202TIP3   OH234240   0.070   6.535   1.040 -0.0308 -0.4710  0.2361
 4202TIP3    H134241   0.031   6.618   1.068  0.6156 -0.4850  1.1947
 4202TIP3    H234242   0.069   6.480   1.118 -2.4274 -2.1809 -0.8658
 4203TIP3   OH234243   5.234   1.278   6.939 -0.0815  0.0180 -0.4213
 4203TIP3    H134244   5.329   1.285   6.937 -0.0957  0.3306 -0.1117
 4203TIP3    H234245   5.209   1.265   6.848  0.1466  1.5075 -0.7258
 4204TIP3   OH234246   1.211   5.806   2.105  0.6192 -0.0895  0.1248
 4204TIP3    H134247   1.244   5.883   2.059  1.1487  0.7621  1.8424
 4204TIP3    H234248   1.116   5.811   2.094  0.6883  0.4996 -0.2464
 4205TIP3   OH234249   4.076   3.067   2.983  0.5569  0.0687 -0.5160
 4205TIP3    H134250   4.062   2.972   2.977 -0.7286  0.1895  0.1442
 4205TIP3    H234251   4.081   3.084   3.077  1.9265  0.5217 -0.6607
 4206TIP3   OH234252   6.829   6.637   1.354 -0.7352 -0.0473 -0.0504
 4206TIP3    H134253   6.859   6.673   1.271 -0.7678 -1.2051 -0.5855
 4206TIP3    H234254   6.906   6.596   1.393 -0.9380 -0.3925 -0.0003
 4207TIP3   OH234255   3.340   2.894   1.838 -0.1905  0.2067 -0.0613
 4207TIP3    H134256   3.388   2.834   1.895  1.0261 -0.0718 -1.3181
 4207TIP3    H234257   3.300   2.957   1.897 -0.8226 -1.3543  1.2307
 4208TIP3   OH234258   3.422   4.244   2.202 -0.4605  0.1589  0.2517
 4208TIP3    H134259   3.401   4.318   2.258 -3.7471 -0.8697  0.6402
 4208TIP3    H234260   3.458   4.283   2.122 -0.1516  1.9773  1.2250
 4209TIP3   OH234261   5.354   5.366   2.207  0.6825  0.1155 -0.6292
 4209TIP3    H134262   5.258   5.364   2.213  0.6051 -0.1404 -1.7276
 4209TIP3    H234263   5.380   5.274   2.213  0.6858 -0.0370 -2.4161
 4210TIP3   OH234264   5.269   5.105   1.866  0.1811  0.1403  0.1460
 4210TIP3    H134265   5.277   5.019   1.824 -0.5234 -0.8601  1.9557
 4210TIP3    H234266   5.178   5.131   1.851  0.4708  0.7266 -0.6513
 4211TIP3   OH234267   0.838   6.460   1.873 -0.2527 -0.1660  0.2082
 4211TIP3    H134268   0.842   6.394   1.943 -1.2459  0.0341  0.4699
 4211TIP3    H234269   0.858   6.543   1.918 -1.3200  0.0260  0.3728
 4212TIP3   OH234270   0.104   2.120   7.325 -0.1291  0.1034  0.2863
 4212TIP3    H134271   0.057   2.124   7.242  1.5953 -0.0483 -0.7566
 4212TIP3    H234272   0.189   2.159   7.306  0.6867 -0.8865  1.7201
 4213TIP3   OH234273   0.483   5.515   0.046  0.5497 -0.3968 -0.1530
 4213TIP3    H134274   0.503   5.604   0.075 -0.2017 -0.3957  0.3828
 4213TIP3    H234275   0.506   5.460   0.121 -1.8314 -0.3522  0.6799
 4214TIP3   OH234276   6.536   2.761   7.641  0.1470  0.2731  0.6425
 4214TIP3    H134277   6.519   2.701   7.568  0.4727  0.0951  0.7121
 4214TIP3    H234278   6.451   2.770   7.685 -0.1225  0.6084  0.0767
 4215TIP3   OH234279   0.285   4.627   7.638 -0.0046  0.0447  0.3899
 4215TIP3    H134280   0.371   4.651   7.603 -0.2386  0.6786  0.2432
 4215TIP3    H234281   0.274   4.684   7.714 -0.7092  0.6442 -0.1520
 4216TIP3   OH234282   2.283   2.687   2.898 -0.1577 -0.3534  0.2825
 4216TIP3    H134283   2.195   2.652   2.891  0.0026 -0.4819 -1.4355
 4216TIP3    H234284   2.270   2.782   2.905 -0.4375 -0.4278  0.9146
 4217TIP3   OH234285   0.604   0.016   2.384 -0.8643  0.8328  0.1915
 4217TIP3    H134286   0.623  -0.058   2.443 -1.5134 -1.7735 -2.6164
 4217TIP3    H234287   0.689   0.057   2.369 -0.5384  0.9139  2.0709
 4218TIP3   OH234288   5.395   1.332   1.476 -0.2045 -0.2756  0.3937
 4218TIP3    H134289   5.414   1.383   1.555 -1.3541  0.4135  0.2575
 4218TIP3    H234290   5.447   1.373   1.407  0.1827 -0.3677  0.6294
 4219TIP3   OH234291   4.380   3.312   2.594  0.0663 -0.5247  0.2719
 4219TIP3    H134292   4.294   3.346   2.617  0.6380  0.4954  0.9723
 4219TIP3    H234293   4.400   3.248   2.663 -0.7579 -1.9101 -0.7266
 4220TIP3   OH234294   0.327   4.314   2.335  0.3904 -0.0724 -0.4206
 4220TIP3    H134295   0.279   4.299   2.254 -0.3699 -0.7114  0.1269
 4220TIP3    H234296   0.351   4.226   2.365  1.0048  0.1799 -0.1526
 4221TIP3   OH234297   2.693   5.127   0.566  0.1980 -0.0993  0.1629
 4221TIP3    H134298   2.614   5.086   0.530 -0.3992 -0.4768  1.7871
 4221TIP3    H234299   2.755   5.054   0.577  0.6053  0.1126 -0.6182
 4222TIP3   OH234300   0.939   3.543   0.572 -0.2382  0.1113  0.0972
 4222TIP3    H134301   0.954   3.588   0.655 -0.6411 -0.0546  0.2623
 4222TIP3    H234302   0.898   3.609   0.516 -0.5965  0.0227  0.2558
 4223TIP3   OH234303   1.613   1.120   0.209  0.6713  0.8351 -0.0999
 4223TIP3    H134304   1.582   1.188   0.149 -0.3507  1.4160  1.0557
 4223TIP3    H234305   1.541   1.058   0.215  0.8844  0.6233  0.3072
 4224TIP3   OH234306   1.702   1.140   1.441 -0.2380 -0.4431  0.0820
 4224TIP3    H134307   1.764   1.203   1.477 -1.8488  1.2462  0.0486
 4224TIP3    H234308   1.708   1.152   1.346 -0.4287 -0.4676  0.0668
 4225TIP3   OH234309   1.540   1.317   2.384 -0.3758 -0.1042  0.2465
 4225TIP3    H134310   1.452   1.348   2.364  0.1932  1.3620 -0.1117
 4225TIP3    H234311   1.537   1.296   2.478 -0.7916  1.0978  0.5192
 4226TIP3   OH234312   1.476   2.578   1.493 -0.1050  0.3257  0.2298
 4226TIP3    H134313   1.440   2.492   1.474  0.1318  0.2141  0.2863
 4226TIP3    H234314   1.430   2.606   1.572 -1.6032  1.0854 -0.8433
 4227TIP3   OH234315   6.903   6.512   0.358 -0.5976 -0.0805 -0.4509
 4227TIP3    H134316   6.868   6.595   0.392  0.5786  0.6363 -0.9269
 4227TIP3    H234317   6.847   6.445   0.397 -0.7518  0.8574  1.0141
 4228TIP3   OH234318   4.437   5.325   2.315 -0.2021 -0.5479  0.1707
 4228TIP3    H134319   4.418   5.392   2.380  1.8434  0.2476  0.0223
 4228TIP3    H234320   4.382   5.347   2.240 -0.7990 -0.0593  0.7458
 4229TIP3   OH234321   2.206   4.551   6.752 -0.2408  0.1302  0.0970
 4229TIP3    H134322   2.246   4.467   6.729 -1.7129 -1.0430  1.5175
 4229TIP3    H234323   2.163   4.580   6.672 -0.1938 -0.7832 -0.2767
 4230TIP3   OH234324   3.185   6.931   7.957 -0.5215  0.0658  0.2050
 4230TIP3    H134325   3.232   6.853   7.928 -2.4024 -0.4256 -1.8578
 4230TIP3    H234326   3.245   7.004   7.940 -0.4152 -0.5254 -2.3480
 4231TIP3   OH234327   6.477   4.363   0.388  0.4386  0.2229  0.9410
 4231TIP3    H134328   6.516   4.324   0.310  0.0406 -0.8161  1.2549
 4231TIP3    H234329   6.401   4.310   0.407 -0.6553  1.6929  0.8743
 4232TIP3   OH234330   0.108   3.351   0.460 -0.2236 -0.3736 -0.3861
 4232TIP3    H134331   0.096   3.398   0.378 -0.2412  0.6954  0.2055
 4232TIP3    H234332   0.162   3.409   0.513  0.5363 -1.4501  0.0370
 4233TIP3   OH234333   1.342   5.725   7.549  0.7532  0.2157 -0.0249
 4233TIP3    H134334   1.297   5.693   7.471 -1.1481  1.1793  0.6212
 4233TIP3    H234335   1.301   5.678   7.621  2.3354 -0.4991  0.4579
 4234TIP3   OH234336   1.697   5.966   0.225  0.0241  0.1060 -0.2295
 4234TIP3    H134337   1.659   6.042   0.269 -1.7917 -0.1690 -1.2218
 4234TIP3    H234338   1.791   5.977   0.235 -0.2161  2.1214  0.2400
 4235TIP3   OH234339   0.458   4.358   2.620  0.1367 -0.1426 -0.1757
 4235TIP3    H134340   0.425   4.275   2.654 -0.9714  0.7344  1.0222
 4235TIP3    H234341   0.447   4.352   2.525 -1.4917 -0.7443  0.0224
 4236TIP3   OH234342   0.573   5.902   0.323  0.5146 -0.0798  0.5527
 4236TIP3    H134343   0.614   5.950   0.251  2.4737 -0.2134  1.5219
 4236TIP3    H234344   0.491   5.870   0.286  0.8549  0.9396 -1.2164
 4237TIP3   OH234345   3.807   3.908   3.340  0.2036 -0.5483  0.0476
 4237TIP3    H134346   3.819   4.001   3.361 -0.4635 -0.3332 -0.4771
 4237TIP3    H234347   3.714   3.901   3.318  0.1063 -1.4735  0.7095
 4238TIP3   OH234348   3.724   5.563   0.601 -0.5919 -0.8777 -0.3648
 4238TIP3    H134349   3.693   5.630   0.540 -1.3534 -0.0244  0.9208
 4238TIP3    H234350   3.784   5.509   0.549  0.1540  0.8702 -1.3988
 4239TIP3   OH234351   0.456   3.531   0.454 -0.4697 -0.6996 -0.0637
 4239TIP3    H134352   0.482   3.622   0.463  0.7554 -0.9608 -0.7776
 4239TIP3    H234353   0.403   3.513   0.532  0.1646  0.3084  0.6121
 4240TIP3   OH234354   2.134   0.302   8.331  0.8449 -0.3436  0.0289
 4240TIP3    H134355   2.086   0.374   8.290  1.6366 -0.0108 -0.3366
 4240TIP3    H234356   2.086   0.284   8.412 -0.0008 -0.1542 -0.4141
 4241TIP3   OH234357   3.097   1.077   0.842  0.5488 -0.4092  0.2817
 4241TIP3    H134358   3.045   1.121   0.775 -1.5341 -1.5776  1.0206
 4241TIP3    H234359   3.125   0.995   0.801 -0.3145 -0.8990  0.6296
 4242TIP3   OH234360   1.349   4.063   7.728 -0.4526  0.0181  0.0773
 4242TIP3    H134361   1.312   4.019   7.651  1.3018 -0.0578 -0.7967
 4242TIP3    H234362   1.366   3.993   7.790 -0.1808 -0.1790 -0.2164
 4243TIP3   OH234363   2.512   6.596   8.022 -0.6679  0.2772  0.2439
 4243TIP3    H134364   2.498   6.633   7.934 -0.4104 -0.8272 -0.2741
 4243TIP3    H234365   2.455   6.519   8.025 -0.2624 -0.0047  0.8463
 4244TIP3   OH234366   1.227   6.016   2.424  0.1338 -0.2984  0.1952
 4244TIP3    H134367   1.300   6.048   2.371  0.7100 -0.6527  0.7562
 4244TIP3    H234368   1.154   6.007   2.363  0.8132 -0.7975 -0.5567
 4245TIP3   OH234369   0.722   3.320   8.291 -0.5411  0.0884  0.6638
 4245TIP3    H134370   0.711   3.335   8.385 -1.3200  0.3738  0.5315
 4245TIP3    H234371   0.764   3.234   8.286  2.6866  1.4897  1.3703
 4246TIP3   OH234372   0.889   5.061   3.004 -0.0965  0.4299  0.2091
 4246TIP3    H134373   0.979   5.063   3.034  0.2552  0.5757 -0.8250
 4246TIP3    H234374   0.837   5.088   3.080  0.6921  0.0201  0.9063
 4247TIP3   OH234375   3.187   4.979   2.484 -0.4257 -0.1834  0.2112
 4247TIP3    H134376   3.147   5.061   2.457 -2.0929 -0.8499  0.4990
 4247TIP3    H234377   3.158   4.966   2.574  0.8721 -0.4834  0.6133
 4248TIP3   OH234378   5.378   1.401   0.108 -0.0105 -0.5087 -0.1431
 4248TIP3    H134379   5.421   1.321   0.138  1.5366 -0.1020 -1.1636
 4248TIP3    H234380   5.382   1.460   0.183  1.3481 -0.4369 -0.2583
 4249TIP3   OH234381   1.920   1.251   2.114 -0.0496  1.0753  0.4593
 4249TIP3    H134382   2.011   1.225   2.130 -0.4544  0.0266  1.1125
 4249TIP3    H234383   1.875   1.231   2.195 -0.9000  1.4708  0.0932
 4250TIP3   OH234384   4.586   2.692   0.654 -0.0036 -0.3886 -0.0690
 4250TIP3    H134385   4.580   2.688   0.558 -0.3144  0.2281 -0.0793
 4250TIP3    H234386   4.495   2.696   0.683  0.1165  2.2069  0.1156
 4251TIP3   OH234387   0.709   4.604   2.843  0.1033 -0.2226 -0.1749
 4251TIP3    H134388   0.628   4.645   2.874 -0.8345 -1.8367 -0.3639
 4251TIP3    H234389   0.777   4.669   2.861 -1.2632  1.3300 -0.3407
 4252TIP3   OH234390   2.032   2.844   7.057 -0.2247  0.0907 -0.3890
 4252TIP3    H134391   2.016   2.906   7.128 -1.7869  2.0558 -2.3077
 4252TIP3    H234392   2.102   2.883   7.005 -2.9101  1.8419 -3.0669
 4253TIP3   OH234393   6.002   4.053   7.255  0.3253 -0.3598 -0.0433
 4253TIP3    H134394   6.071   4.100   7.209 -1.5731  0.3188 -2.3919
 4253TIP3    H234395   5.977   3.982   7.195 -0.9182 -0.6640  0.7881
 4254TIP3   OH234396   3.220   3.330   0.580  0.0857  0.7298  0.0598
 4254TIP3    H134397   3.194   3.362   0.494  0.2621  0.6544 -0.0232
 4254TIP3    H234398   3.313   3.352   0.586 -0.1712  1.7365  0.6822
 4255TIP3   OH234399   1.718   0.402   1.514  0.0122  0.2390  0.0966
 4255TIP3    H134400   1.718   0.465   1.441 -0.9156 -0.6578 -0.7098
 4255TIP3    H234401   1.775   0.442   1.579  0.4680  1.3177 -0.9101
 4256TIP3   OH234402   2.890   3.895   2.854 -0.2637 -0.7891  0.4334
 4256TIP3    H134403   2.844   3.978   2.867 -0.4529 -0.9427  0.7516
 4256TIP3    H234404   2.941   3.908   2.773 -0.7738 -0.5788  0.1445
 4257TIP3   OH234405   6.837   5.022   1.105  0.4448 -0.0369 -0.3769
 4257TIP3    H134406   6.756   4.996   1.061  0.3715  1.6254 -1.3110
 4257TIP3    H234407   6.881   5.077   1.041  1.2252  0.9492  0.9842
 4258TIP3   OH234408   5.501   6.611   0.747  0.0602 -0.1171  0.0568
 4258TIP3    H134409   5.494   6.631   0.653 -0.6097 -0.0026  0.1285
 4258TIP3    H234410   5.533   6.521   0.750  0.4127 -0.0062 -0.2797
 4259TIP3   OH234411   4.930   5.611   0.860  0.0850  0.4001 -0.0679
 4259TIP3    H134412   5.008   5.663   0.877 -0.1784  0.7201  0.1708
 4259TIP3    H234413   4.889   5.600   0.946 -1.1507  1.8586 -0.4429
 4260TIP3   OH234414   4.330   4.378   0.946  0.0129 -0.3713 -0.5893
 4260TIP3    H134415   4.364   4.399   1.033  0.0825 -1.2364 -0.3913
 4260TIP3    H234416   4.409   4.369   0.892 -0.0305  0.1650 -0.7454
 4261TIP3   OH234417   5.051   0.874   1.135 -0.2088  0.0484 -0.3810
 4261TIP3    H134418   5.032   0.934   1.062  1.6571 -0.2962 -1.2165
 4261TIP3    H234419   4.969   0.829   1.151 -1.0716  1.2340 -1.2476
 4262TIP3   OH234420   3.666   6.772   1.077 -0.4361 -0.3173 -0.1891
 4262TIP3    H134421   3.675   6.866   1.090 -0.1335 -0.2075 -1.1577
 4262TIP3    H234422   3.693   6.734   1.161  1.1971  0.3830 -0.3568
 4263TIP3   OH234423   1.344   4.789   7.589 -0.1855 -0.4759  0.1144
 4263TIP3    H134424   1.296   4.871   7.596 -1.9226 -1.1967 -2.2340
 4263TIP3    H234425   1.429   4.813   7.552 -1.3903  0.1308 -2.4380
 4264TIP3   OH234426   3.891   0.013   7.953  0.1629 -0.4942  0.2329
 4264TIP3    H134427   3.970   0.027   7.901 -0.6196 -2.9495 -1.8596
 4264TIP3    H234428   3.921  -0.039   8.028  0.7993  0.2453  0.5033
 4265TIP3   OH234429   1.313   6.523   0.218 -0.1550 -0.1903  0.2849
 4265TIP3    H134430   1.305   6.488   0.307  0.5139  0.6692  0.7107
 4265TIP3    H234431   1.245   6.590   0.213  0.8695  0.9205  0.7593
 4266TIP3   OH234432   2.309   6.544   2.603  0.2504  0.3838 -0.2267
 4266TIP3    H134433   2.256   6.620   2.626 -0.1744  0.0545 -0.1157
 4266TIP3    H234434   2.354   6.521   2.684 -0.2314  0.0316 -0.0576
 4267TIP3   OH234435   0.673   5.293   0.584 -0.0742  0.0554  0.2728
 4267TIP3    H134436   0.612   5.241   0.532 -0.2888  0.8790 -0.3187
 4267TIP3    H234437   0.720   5.346   0.519  1.6890 -0.9699  0.6530
 4268TIP3   OH234438   5.102   2.906   0.894  0.2519  0.0263 -0.5073
 4268TIP3    H134439   5.119   2.814   0.871  0.1181 -0.1962  0.2436
 4268TIP3    H234440   5.011   2.920   0.868 -0.0242 -0.3415  0.2329
 4269TIP3   OH234441   3.220   0.789   8.181 -0.6949  0.2207 -0.2110
 4269TIP3    H134442   3.219   0.884   8.166  2.7411  0.4957  0.3696
 4269TIP3    H234443   3.231   0.780   8.275  0.5521 -0.6336 -0.4082
 4270TIP3   OH234444   1.592   4.182   7.450  0.5331  0.6459 -0.2402
 4270TIP3    H134445   1.653   4.126   7.401 -1.3537 -1.5559 -0.2543
 4270TIP3    H234446   1.574   4.133   7.530  0.1692  2.1278  0.6124
 4271TIP3   OH234447   5.895   2.940   1.406  0.9683  0.5714  0.1553
 4271TIP3    H134448   5.955   2.866   1.403  1.3757  0.8820  0.4867
 4271TIP3    H234449   5.875   2.958   1.314  1.7936  0.7886  0.0103
 4272TIP3   OH234450   0.249   4.471   1.831  0.6117  0.3473  0.2608
 4272TIP3    H134451   0.195   4.533   1.782 -0.2026  1.0896  2.0031
 4272TIP3    H234452   0.323   4.452   1.773 -1.0801 -0.0863 -1.8945
 4273TIP3   OH234453   6.262   4.521   2.014  0.0002 -0.3491  0.4721
 4273TIP3    H134454   6.181   4.486   1.976 -1.6852  2.7436  0.9011
 4273TIP3    H234455   6.251   4.511   2.108 -0.3856  0.9395  0.5858
 4274TIP3   OH234456   6.931   1.199   1.063  0.0639  0.3287  0.3428
 4274TIP3    H134457   6.876   1.176   1.139 -0.3029 -0.0418 -0.0266
 4274TIP3    H234458   6.916   1.292   1.049 -0.4897  0.2240  0.2331
 4275TIP3   OH234459   2.672   4.647   2.594 -0.1546 -0.1351 -0.2291
 4275TIP3    H134460   2.658   4.646   2.688  2.0614 -0.7086  0.1568
 4275TIP3    H234461   2.711   4.733   2.576  0.3147 -0.3933 -0.4640
 4276TIP3   OH234462   6.461   2.285   1.658 -0.4156 -0.8721 -0.2705
 4276TIP3    H134463   6.474   2.351   1.591 -1.8773 -1.2978 -1.0183
 4276TIP3    H234464   6.379   2.309   1.700 -0.7090 -1.9044 -0.2117
 4277TIP3   OH234465   6.179   4.876   0.309  0.3788  0.1575  0.6049
 4277TIP3    H134466   6.142   4.794   0.343 -1.9451  0.6685 -0.4990
 4277TIP3    H234467   6.249   4.897   0.370 -0.8903 -1.1181  2.6553
 4278TIP3   OH234468   6.776   1.520   7.982  0.0293 -0.1828 -0.2698
 4278TIP3    H134469   6.841   1.510   8.051 -0.3978 -1.9497 -0.0541
 4278TIP3    H234470   6.813   1.472   7.907  0.1805  1.1233 -1.0503
 4279TIP3   OH234471   3.717   2.346   1.935 -0.5338  0.1684  0.0247
 4279TIP3    H134472   3.654   2.322   1.868 -2.5430  0.9955  1.5260
 4279TIP3    H234473   3.800   2.357   1.888 -1.6823 -0.0744 -2.1497
 4280TIP3   OH234474   2.612   1.107   7.731  1.1043  0.6112 -0.3669
 4280TIP3    H134475   2.596   1.107   7.637 -1.2844  0.7595 -0.0392
 4280TIP3    H234476   2.589   1.196   7.760  0.0824  0.0819  0.5510
 4281TIP3   OH234477   3.839   5.866   7.857  0.9273 -0.5796 -0.3246
 4281TIP3    H134478   3.770   5.929   7.835  0.6918 -0.3421  1.0421
 4281TIP3    H234479   3.917   5.900   7.813  0.7792  0.6324  0.3096
 4282TIP3   OH234480   5.577   1.782   0.303  0.1608  0.0427 -0.4763
 4282TIP3    H134481   5.535   1.754   0.222  0.4812 -0.8057 -0.3671
 4282TIP3    H234482   5.523   1.743   0.372  0.6239 -0.3368 -0.3198
 4283TIP3   OH234483   0.649   0.914   0.975 -0.6452  0.3868 -0.3913
 4283TIP3    H134484   0.730   0.965   0.979  0.7028 -1.6176  3.5866
 4283TIP3    H234485   0.580   0.979   0.982  0.8179  1.9586  0.2956
 4284TIP3   OH234486   1.327   4.616   7.171  0.2783 -0.2638 -0.2687
 4284TIP3    H134487   1.320   4.564   7.250  0.3455  0.6676  0.3605
 4284TIP3    H234488   1.420   4.611   7.147  0.5208  0.5182  0.4597
 4285TIP3   OH234489   1.862   2.712   0.360 -0.3179 -0.1965  0.2925
 4285TIP3    H134490   1.826   2.664   0.435  0.9578 -0.3500  0.8369
 4285TIP3    H234491   1.888   2.643   0.298 -1.0658 -0.0825 -0.1585
 4286TIP3   OH234492   3.993   2.686   3.289  0.6263 -0.3318 -0.0638
 4286TIP3    H134493   3.936   2.699   3.213 -2.5018  2.7885  2.4503
 4286TIP3    H234494   4.033   2.771   3.304  2.4901 -1.3087  0.8947
 4287TIP3   OH234495   0.884   5.165   0.778  0.1251  0.0186  0.0139
 4287TIP3    H134496   0.807   5.220   0.770 -0.1211 -0.3883 -0.4932
 4287TIP3    H234497   0.935   5.204   0.849  0.2549  1.2569 -0.7313
 4288TIP3   OH234498   6.619   0.621   1.148  0.4688  0.4946 -0.5257
 4288TIP3    H134499   6.663   0.588   1.227  1.6763  2.9213 -0.1051
 4288TIP3    H234500   6.656   0.568   1.077  0.9205 -0.3423  0.3058
 4289TIP3   OH234501   1.599   4.583   8.007  0.3716  0.3309  0.9991
 4289TIP3    H134502   1.537   4.573   8.079  0.3422 -2.7790  0.6860
 4289TIP3    H234503   1.545   4.609   7.932 -0.0537  0.6595  1.4143
 4290TIP3   OH234504   4.165   6.968   7.980 -0.3786 -0.1589  0.4077
 4290TIP3    H134505   4.237   6.986   7.920  0.4844  0.8396  1.6982
 4290TIP3    H234506   4.191   6.888   8.026 -0.3995 -0.1575  0.4224
 4291TIP3   OH234507   4.134   6.881   1.941  0.4248  0.3627  0.0320
 4291TIP3    H134508   4.104   6.956   1.992  0.7205  1.0782 -0.8310
 4291TIP3    H234509   4.167   6.819   2.006  0.0458  0.9168  0.7593
 4292TIP3   OH234510   2.751   2.108   0.386  0.3712  0.1518  0.1113
 4292TIP3    H134511   2.807   2.127   0.311  0.8937 -0.0317  0.4504
 4292TIP3    H234512   2.732   2.014   0.378  0.3849  0.1433  0.1813
 4293TIP3   OH234513   4.351   1.663   8.166 -0.7370 -0.2134 -0.5607
 4293TIP3    H134514   4.331   1.740   8.113  0.4608 -0.1877 -1.0030
 4293TIP3    H234515   4.382   1.598   8.104  0.4555 -0.2624  0.0524
 4294TIP3   OH234516   3.560   3.102   2.494  0.4969 -0.5105 -0.0165
 4294TIP3    H134517   3.581   3.185   2.537 -0.9835  0.1598 -0.5170
 4294TIP3    H234518   3.480   3.120   2.445  0.0326 -2.2932  0.0095
 4295TIP3   OH234519   3.623   5.443   3.511 -0.2219  0.2569 -0.1044
 4295TIP3    H134520   3.550   5.424   3.570  1.3775 -2.9930  1.1213
 4295TIP3    H234521   3.620   5.373   3.446  1.9553 -0.2311  0.2334
 4296TIP3   OH234522   1.134   5.810   3.434 -0.1563 -0.2308  0.3080
 4296TIP3    H134523   1.073   5.778   3.500  0.5243 -0.3496  0.8872
 4296TIP3    H234524   1.194   5.737   3.419  0.1415  0.0483  0.1080
 4297TIP3   OH234525   3.791   0.923   1.545 -0.2103  0.2625  0.0771
 4297TIP3    H134526   3.704   0.907   1.582 -0.1624 -0.9554 -0.2607
 4297TIP3    H234527   3.852   0.903   1.616 -0.1822  0.0659 -0.0007
 4298TIP3   OH234528   6.027   2.304   0.828 -0.0851  0.3525  0.5177
 4298TIP3    H134529   6.005   2.294   0.921  0.0590 -2.0277  0.3803
 4298TIP3    H234530   5.942   2.311   0.785 -0.1669  1.0602  0.7797
 4299TIP3   OH234531   4.218   6.687   1.715 -0.4457  0.1015  0.5466
 4299TIP3    H134532   4.212   6.611   1.656  0.1277  2.2719 -2.5703
 4299TIP3    H234533   4.278   6.658   1.784  0.0574 -2.1736 -0.7037
 4300TIP3   OH234534   1.542   1.062   0.661  1.1122  0.1139 -0.3785
 4300TIP3    H134535   1.611   1.103   0.609  1.2003  1.7374  0.9376
 4300TIP3    H234536   1.460   1.087   0.617  1.1557  1.9098  0.4655
 4301TIP3   OH234537   4.607   3.931   6.950 -0.5932  0.0152 -0.0911
 4301TIP3    H134538   4.594   3.979   7.031  1.5521 -3.0040  2.2936
 4301TIP3    H234539   4.670   3.984   6.901  0.6169  0.3989  1.7655
 4302TIP3   OH234540   3.698   5.799   0.472  0.8429  0.5802  0.0445
 4302TIP3    H134541   3.688   5.876   0.529 -1.7186 -0.2350  0.8192
 4302TIP3    H234542   3.687   5.833   0.383  1.9443  1.4151  0.2091
 4303TIP3   OH234543   6.189   4.530   0.284  0.2304 -0.4307 -0.1126
 4303TIP3    H134544   6.186   4.435   0.272 -0.7214 -0.4306  0.0278
 4303TIP3    H234545   6.157   4.544   0.373 -0.9931  0.0989 -0.6103
 4304TIP3   OH234546   3.162   4.217   1.209 -0.3070 -0.8428  0.5423
 4304TIP3    H134547   3.208   4.175   1.136  0.0827 -1.1252  0.9409
 4304TIP3    H234548   3.091   4.266   1.168  1.2342  0.8417 -0.2314
 4305TIP3   OH234549   1.327   5.708   0.711  0.1605  0.7483  0.5737
 4305TIP3    H134550   1.284   5.791   0.732  0.2645  0.8636  0.3330
 4305TIP3    H234551   1.416   5.718   0.746  0.9710  1.7051 -1.6073
 4306TIP3   OH234552   2.958   1.215   1.896 -0.5358  0.3990 -0.6336
 4306TIP3    H134553   2.886   1.268   1.863 -0.4355  0.3687 -0.9072
 4306TIP3    H234554   3.024   1.217   1.826 -0.9810 -0.9683 -1.1248
 4307TIP3   OH234555   3.042   2.227   1.365 -0.1927  0.0387 -0.6236
 4307TIP3    H134556   2.980   2.197   1.299 -0.4337 -0.7224 -0.0599
 4307TIP3    H234557   3.114   2.265   1.315 -0.4016 -0.4797 -1.3287
 4308TIP3   OH234558   5.953   5.489   7.677  0.4876  0.2732 -0.5592
 4308TIP3    H134559   5.918   5.523   7.595 -0.8408 -0.3068 -0.2582
 4308TIP3    H234560   5.876   5.468   7.729  1.2353  2.9814  1.8936
 4309TIP3   OH234561   1.587   5.029   8.062  0.3041  0.5807  0.2590
 4309TIP3    H134562   1.604   5.026   8.156  1.3637 -0.4117  0.0637
 4309TIP3    H234563   1.625   5.111   8.034  1.8463 -0.0515  0.3964
 4310TIP3   OH234564   2.309   5.689   7.282  0.8119 -0.1700  0.2020
 4310TIP3    H134565   2.311   5.784   7.294  0.9407  0.0539 -1.2916
 4310TIP3    H234566   2.385   5.656   7.329  0.0376  0.2984  1.8395
 4311TIP3   OH234567   2.037   4.545   1.256 -0.8034  0.3057 -0.3528
 4311TIP3    H134568   2.056   4.631   1.217  1.8224 -0.3317 -0.6726
 4311TIP3    H234569   2.005   4.493   1.182 -2.0575  0.8626 -0.2335
 4312TIP3   OH234570   1.863   3.305   2.946 -0.5926 -0.3227  0.5391
 4312TIP3    H134571   1.872   3.398   2.925 -2.5935  0.0201  0.9853
 4312TIP3    H234572   1.939   3.264   2.904 -0.6716  1.2487 -1.3194
 4313TIP3   OH234573   2.192   4.714   8.309  0.0855 -0.8423  0.1218
 4313TIP3    H134574   2.226   4.739   8.223  1.0738 -1.4856  0.3081
 4313TIP3    H234575   2.097   4.723   8.301  0.2482  0.7477 -0.5095
 4314TIP3   OH234576   0.709   2.141   1.801  0.0773  0.0644 -0.3047
 4314TIP3    H134577   0.729   2.094   1.719 -1.1059  1.3248 -1.3606
 4314TIP3    H234578   0.636   2.092   1.839  1.4434 -1.2788  0.7073
 4315TIP3   OH234579   6.777   6.224   7.579 -0.7097  0.3204  0.7043
 4315TIP3    H134580   6.812   6.296   7.527 -1.0863 -0.8162 -1.2199
 4315TIP3    H234581   6.850   6.165   7.592 -1.2208 -0.7912 -1.0904
 4316TIP3   OH234582   0.257   1.765   7.854  0.3277  0.1047 -0.8577
 4316TIP3    H134583   0.296   1.693   7.804  1.5529 -1.7442  2.4725
 4316TIP3    H234584   0.163   1.745   7.855  0.4690 -0.5976 -1.2052
 4317TIP3   OH234585   1.780   4.705   2.311 -0.7637  0.1027  0.9197
 4317TIP3    H134586   1.857   4.714   2.366  0.1715  1.1682 -0.4992
 4317TIP3    H234587   1.783   4.614   2.279  1.1802  0.7024 -0.8425
 4318TIP3   OH234588   3.407   6.053   2.433 -0.3637 -0.3471  0.3212
 4318TIP3    H134589   3.450   6.138   2.420  1.2717 -1.4469 -2.2156
 4318TIP3    H234590   3.479   5.992   2.452 -1.1317 -1.6399 -0.7284
 4319TIP3   OH234591   4.840   5.578   0.311 -0.3833 -0.0289 -0.0406
 4319TIP3    H134592   4.871   5.574   0.401 -1.2857  1.3383  0.3560
 4319TIP3    H234593   4.751   5.612   0.317 -0.2883  0.5670 -1.4699
 4320TIP3   OH234594   3.104   6.482   7.403 -0.2166  0.4987  0.1672
 4320TIP3    H134595   3.178   6.447   7.453  0.3197  0.1164 -0.8772
 4320TIP3    H234596   3.040   6.507   7.470 -0.4462 -2.0514  0.9935
 4321TIP3   OH234597   2.145   6.258   1.407  0.7938  0.1226 -0.4568
 4321TIP3    H134598   2.167   6.285   1.496  0.5529 -0.4569 -0.2184
 4321TIP3    H234599   2.059   6.295   1.391  0.8774  0.3067 -0.4868
 4322TIP3   OH234600   5.097   2.268   1.573  0.3989  0.1289 -0.2345
 4322TIP3    H134601   5.080   2.287   1.666  0.2278  0.1855 -0.2763
 4322TIP3    H234602   5.179   2.220   1.573  0.6456  0.5430 -0.0928
 4323TIP3   OH234603   2.388   5.848   3.278  0.2017  0.5881  0.1342
 4323TIP3    H134604   2.440   5.768   3.290  0.3018  0.0009 -3.2395
 4323TIP3    H234605   2.452   5.919   3.280  0.3567  0.4318  1.3612
 4324TIP3   OH234606   1.250   0.355   7.213  0.3375  0.3815 -0.1349
 4324TIP3    H134607   1.175   0.369   7.271  1.4702  0.9105  1.2424
 4324TIP3    H234608   1.213   0.309   7.137 -1.2880  0.2294  0.7095
 4325TIP3   OH234609   5.197   2.191   1.914 -0.0231 -0.0479 -0.0651
 4325TIP3    H134610   5.145   2.264   1.880  0.2930  0.7841  1.1668
 4325TIP3    H234611   5.176   2.188   2.007  1.8646  0.1119  0.4179
 4326TIP3   OH234612   6.833   4.209   7.366 -0.2348 -0.1746 -0.2737
 4326TIP3    H134613   6.846   4.276   7.299  0.7898 -0.1530 -0.0665
 4326TIP3    H234614   6.873   4.130   7.330 -1.0012 -0.5613 -0.3058
 4327TIP3   OH234615   1.360   4.007   0.611  0.0407 -0.4133 -0.0472
 4327TIP3    H134616   1.405   3.961   0.539  1.0828 -0.4833  0.6272
 4327TIP3    H234617   1.270   3.976   0.605  0.1611 -0.6248 -1.1606
 4328TIP3   OH234618   6.159   2.404   1.314 -0.0563 -0.2286 -0.2712
 4328TIP3    H134619   6.239   2.456   1.306 -0.0544  0.0522  1.2780
 4328TIP3    H234620   6.183   2.332   1.373 -0.2260 -1.6624 -1.8984
 4329TIP3   OH234621   4.043   2.177   1.760  0.2695 -0.1207 -0.1771
 4329TIP3    H134622   4.035   2.270   1.781 -0.5555 -0.7688  3.0435
 4329TIP3    H234623   3.977   2.161   1.692 -0.8592  1.3434  0.5277
 4330TIP3   OH234624   0.817   3.814   1.850 -0.2201  0.8951  0.2726
 4330TIP3    H134625   0.903   3.852   1.829 -0.1627  0.7708  0.2808
 4330TIP3    H234626   0.829   3.772   1.935  0.7889 -2.3797 -1.2946
 4331TIP3   OH234627   6.435   2.901   1.910 -0.4887  0.0158  0.0979
 4331TIP3    H134628   6.346   2.894   1.946 -0.4919  0.8143  0.2518
 4331TIP3    H234629   6.461   2.810   1.895 -1.0974 -0.2577  0.6263
 4332TIP3   OH234630   5.632   5.978   7.804  0.2965 -0.1724 -0.0492
 4332TIP3    H134631   5.726   5.970   7.822 -0.0507  1.4825  3.3863
 4332TIP3    H234632   5.591   5.922   7.871 -1.1717  0.6130 -0.2627
 4333TIP3   OH234633   2.264   5.931   8.001  0.4207 -0.3010 -0.2471
 4333TIP3    H134634   2.188   5.972   7.959  0.2299 -0.5250 -0.1230
 4333TIP3    H234635   2.339   5.981   7.969  0.2117 -0.0144 -0.2912
 4334TIP3   OH234636   1.693   2.860   7.384 -0.2065 -0.1795 -0.6546
 4334TIP3    H134637   1.659   2.947   7.362  0.2750  0.6041  1.4551
 4334TIP3    H234638   1.782   2.860   7.349 -0.6822 -0.4101 -1.9308
 4335TIP3   OH234639   0.637   6.107   1.730  0.0338  0.0268 -0.4960
 4335TIP3    H134640   0.686   6.186   1.709  0.2917 -0.1458 -0.5462
 4335TIP3    H234641   0.549   6.123   1.694 -0.1402  0.5979  0.1553
 4336TIP3   OH234642   1.324   1.598   8.260 -0.0653 -0.5989 -0.1165
 4336TIP3    H134643   1.230   1.599   8.280  0.1837 -2.2898  1.4105
 4336TIP3    H234644   1.363   1.655   8.326 -0.0224  0.2441 -0.8612
 4337TIP3   OH234645   3.955   0.925   1.322  0.4410 -0.2665 -0.3872
 4337TIP3    H134646   3.906   0.936   1.403  0.8923 -0.4172 -0.0951
 4337TIP3    H234647   3.996   1.011   1.307  2.3326 -0.9078  0.8361
 4338TIP3   OH234648   0.983   6.359   0.999 -0.3586 -1.0186  0.0673
 4338TIP3    H134649   1.006   6.436   0.948  1.0002 -1.3527  0.1426
 4338TIP3    H234650   0.899   6.329   0.962  0.0421 -0.6045 -1.2066
 4339TIP3   OH234651   0.110   5.515   7.634 -0.2443  0.0385  0.4687
 4339TIP3    H134652   0.073   5.467   7.707  0.2104 -0.9923  0.0391
 4339TIP3    H234653   0.181   5.567   7.672  0.1494 -0.6783  0.7342
 4340TIP3   OH234654   3.853   1.582   7.038  0.4616  0.1511  0.5436
 4340TIP3    H134655   3.933   1.552   6.996 -0.4163  0.8801 -1.8375
 4340TIP3    H234656   3.856   1.677   7.031 -0.7614  0.1712  0.0789
 4341TIP3   OH234657   1.867   3.593   2.993 -0.4338  0.3995 -0.2536
 4341TIP3    H134658   1.960   3.603   3.014 -0.8759  2.3840  1.0344
 4341TIP3    H234659   1.823   3.655   3.050 -2.5631 -0.3423 -0.9922
 4342TIP3   OH234660   0.043   2.264   0.820  0.6568  0.2787  0.5630
 4342TIP3    H134661   0.052   2.248   0.913  2.6170  0.4426  0.4317
 4342TIP3    H234662   0.132   2.259   0.785  0.0673  1.0124 -1.1748
 4343TIP3   OH234663   5.475   3.802   7.274 -0.2017  0.3519 -0.0838
 4343TIP3    H134664   5.380   3.799   7.271 -0.1598 -1.2418 -1.2917
 4343TIP3    H234665   5.503   3.754   7.197  1.5966 -0.2327  0.8672
 4344TIP3   OH234666   0.076   2.923   0.630 -0.6048  0.2296 -1.0048
 4344TIP3    H134667   0.157   2.882   0.661 -0.1875 -0.0700 -2.4409
 4344TIP3    H234668   0.050   2.980   0.702  1.9337  1.8290 -1.2161
 4345TIP3   OH234669   2.823   1.759   0.569  0.2035  0.2914  0.1254
 4345TIP3    H134670   2.888   1.796   0.629 -0.2120  1.6168 -0.2263
 4345TIP3    H234671   2.769   1.702   0.625  0.6662  0.4259  0.7268
 4346TIP3   OH234672   4.622   0.254   7.485  0.1117  0.1364 -0.4687
 4346TIP3    H134673   4.681   0.276   7.557 -0.6100 -0.2213  0.2369
 4346TIP3    H234674   4.681   0.226   7.414  0.8839  1.5774 -0.4282
 4347TIP3   OH234675   6.201   4.329   2.804 -0.2639  0.2484  0.2436
 4347TIP3    H134676   6.118   4.298   2.841  1.7821 -2.7315  2.7837
 4347TIP3    H234677   6.251   4.359   2.879  1.7891 -0.1544 -0.8951
 4348TIP3   OH234678   5.824   4.534   1.935 -0.2012  0.3066 -0.2267
 4348TIP3    H134679   5.890   4.478   1.896 -0.8276 -0.6119 -0.0039
 4348TIP3    H234680   5.742   4.505   1.895 -0.6096  0.6524  0.3440
 4349TIP3   OH234681   3.069   5.650   0.206 -0.4997 -0.0276 -0.7240
 4349TIP3    H134682   3.100   5.690   0.287  1.5122  0.0188 -1.4593
 4349TIP3    H234683   2.973   5.654   0.212 -0.5042 -1.9790  2.6002
 4350TIP3   OH234684   3.143   0.843   7.272 -0.0148  0.2055  0.0262
 4350TIP3    H134685   3.136   0.765   7.327  0.4754  0.7974  0.9586
 4350TIP3    H234686   3.056   0.853   7.233 -0.0425 -0.8828 -0.2266
 4351TIP3   OH234687   5.791   5.697   2.219 -0.1980  0.7107 -0.0982
 4351TIP3    H134688   5.844   5.774   2.243 -2.3519  1.9993  0.7382
 4351TIP3    H234689   5.727   5.732   2.156  0.2103 -0.9252 -1.4897
 4352TIP3   OH234690   4.174   3.844   1.422 -0.0475 -0.3820 -0.3115
 4352TIP3    H134691   4.171   3.805   1.509 -1.8796 -1.4687 -0.8048
 4352TIP3    H234692   4.138   3.776   1.364  0.5105  0.5581 -1.8225
 4353TIP3   OH234693   5.035   1.959   0.159 -0.3334  0.5093  0.2438
 4353TIP3    H134694   5.071   2.043   0.129  1.8766 -0.7188 -0.7506
 4353TIP3    H234695   4.977   1.931   0.088 -1.5023  1.3830  0.8086
 4354TIP3   OH234696   7.013   3.448   7.881  0.2149 -0.0546 -0.4331
 4354TIP3    H134697   7.089   3.504   7.895  0.1908  0.1641 -1.1087
 4354TIP3    H234698   7.039   3.362   7.916  2.0293 -0.8826 -3.4308
 4355TIP3   OH234699   6.193   5.061   2.978 -0.3442  0.3202 -0.4014
 4355TIP3    H134700   6.285   5.088   2.985 -0.2037 -0.0786 -0.6667
 4355TIP3    H234701   6.188   4.979   3.028 -0.9044  1.1211  0.9115
 4356TIP3   OH234702   0.444   0.077   7.156 -0.0026 -0.6165 -0.1331
 4356TIP3    H134703   0.417   0.150   7.100 -0.7182 -0.3666  0.5158
 4356TIP3    H234704   0.469   0.008   7.094  2.0368  0.6172 -0.7664
 4357TIP3   OH234705   2.609   1.706   1.378 -0.1298  0.2882 -0.1044
 4357TIP3    H134706   2.691   1.665   1.407  0.0538  0.3775 -0.4922
 4357TIP3    H234707   2.542   1.639   1.393  0.2533 -0.3911 -1.2865
 4358TIP3   OH234708   6.979   6.050   7.578  0.3497 -0.1850  0.3985
 4358TIP3    H134709   6.979   5.956   7.597  0.9699 -0.7429 -2.0096
 4358TIP3    H234710   7.057   6.083   7.621  1.5241 -1.2988 -0.7791
 4359TIP3   OH234711   4.747   4.270   7.665  0.0796 -0.0503  0.1115
 4359TIP3    H134712   4.777   4.293   7.577 -0.4256  2.7250  0.5573
 4359TIP3    H234713   4.823   4.233   7.709  1.1170  1.1099 -0.6679
 4360TIP3   OH234714   5.039   2.467   1.068 -0.1032  0.1571  0.0625
 4360TIP3    H134715   5.133   2.449   1.060  0.0183  0.8763 -0.2206
 4360TIP3    H234716   5.015   2.428   1.152  0.1002 -1.4140 -0.5690
 4361TIP3   OH234717   4.304   0.246   1.665  0.3516 -0.3841  0.0368
 4361TIP3    H134718   4.357   0.311   1.619  1.4757 -1.6280 -0.4954
 4361TIP3    H234719   4.269   0.292   1.741  0.8130  0.9296 -0.5220
 4362TIP3   OH234720   2.068   0.722   2.164 -0.4856 -0.5551 -0.0064
 4362TIP3    H134721   2.026   0.636   2.173  1.6835 -1.9677 -1.9830
 4362TIP3    H234722   2.154   0.711   2.205 -0.2319  0.7260 -0.1545
 4363TIP3   OH234723   5.473   5.435   8.119 -0.0602  0.0979 -0.8338
 4363TIP3    H134724   5.467   5.363   8.056  0.0311 -1.8128  1.2243
 4363TIP3    H234725   5.556   5.421   8.164 -0.3575  1.0947  0.0721
 4364TIP3   OH234726   4.002   0.436   8.293  0.0385 -0.2748 -0.8281
 4364TIP3    H134727   3.914   0.471   8.284  0.2583  0.4788 -0.2390
 4364TIP3    H234728   4.004   0.397   8.381  0.2556 -0.3817 -0.8783
 4365TIP3   OH234729   2.652   1.214   7.076  0.1355 -0.2341 -0.3687
 4365TIP3    H134730   2.589   1.274   7.116 -1.1846 -1.3314 -0.7616
 4365TIP3    H234731   2.716   1.272   7.034 -0.0901  0.9036  0.7789
 4366TIP3   OH234732   6.235   1.272   0.161 -0.2040 -0.3123 -0.0863
 4366TIP3    H134733   6.141   1.260   0.148 -0.2610  0.3158 -0.2720
 4366TIP3    H234734   6.249   1.254   0.254 -0.4631 -0.6407 -0.1077
 4367TIP3   OH234735   5.007   6.617   1.577 -0.6711 -0.1432  0.3824
 4367TIP3    H134736   5.057   6.635   1.497 -1.6553  0.5806 -0.1013
 4367TIP3    H234737   4.967   6.532   1.562 -1.7051  0.4587 -0.3628
 4368TIP3   OH234738   6.052   2.137   2.417  0.7297  0.2054  0.3404
 4368TIP3    H134739   5.970   2.171   2.453  1.0093  3.0859 -1.3940
 4368TIP3    H234740   6.026   2.095   2.335  0.8938  0.6709  0.0430
 4369TIP3   OH234741   6.778   2.455   0.027 -0.1646 -0.2766  0.4133
 4369TIP3    H134742   6.841   2.428   0.094 -0.2380 -3.2543 -0.5879
 4369TIP3    H234743   6.720   2.515   0.073 -0.0772 -2.0162  3.0443
 4370TIP3   OH234744   3.126   5.120   1.309  0.2149 -0.3356 -0.4464
 4370TIP3    H134745   3.142   5.039   1.358  1.4208 -0.9030 -1.7027
 4370TIP3    H234746   3.046   5.104   1.260  0.2620 -0.6352 -0.4262
 4371TIP3   OH234747   2.124   4.881   0.630  0.1140  0.5174 -0.1259
 4371TIP3    H134748   2.083   4.961   0.597  3.7009  2.0074 -1.4559
 4371TIP3    H234749   2.100   4.814   0.565  0.0656  1.3844 -1.0285
 4372TIP3   OH234750   6.362   3.264   0.654  0.2083 -0.2031  0.3397
 4372TIP3    H134751   6.386   3.190   0.599  0.2346 -0.6570  0.9478
 4372TIP3    H234752   6.267   3.271   0.646  0.1653 -0.5305  0.5588
 4373TIP3   OH234753   0.078   6.359   8.349  0.0818  0.4745 -0.2305
 4373TIP3    H134754   0.166   6.341   8.317 -0.2340  0.0620 -0.9145
 4373TIP3    H234755   0.068   6.454   8.342 -0.0716  0.3827 -1.6782
 4374TIP3   OH234756   0.930   0.227   2.596  0.1273 -0.3014 -0.0376
 4374TIP3    H134757   0.908   0.220   2.689 -0.5404 -1.2819 -0.2487
 4374TIP3    H234758   1.025   0.215   2.593 -0.0066 -1.6905  0.4102
 4375TIP3   OH234759   0.806   5.116   8.238 -0.1215 -0.9811 -0.8725
 4375TIP3    H134760   0.831   5.085   8.325  0.8456  1.1689 -0.3049
 4375TIP3    H234761   0.865   5.190   8.221 -1.5314 -0.1627 -2.5509
 4376TIP3   OH234762   1.845   5.116   1.482 -0.0392  0.2077  0.1518
 4376TIP3    H134763   1.890   5.081   1.559 -0.1149  0.5142  0.3379
 4376TIP3    H234764   1.863   5.210   1.484  0.7458  0.0979 -0.7214
 4377TIP3   OH234765   6.265   6.681   7.071  0.6831 -0.6861 -0.6372
 4377TIP3    H134766   6.339   6.628   7.041 -0.5064 -2.3348 -0.8201
 4377TIP3    H234767   6.249   6.743   7.000  2.1362 -0.0184 -0.4023
 4378TIP3   OH234768   1.730   6.733   0.917  0.3713  0.2907 -0.4623
 4378TIP3    H134769   1.694   6.763   0.833  0.1888  0.1417 -0.4380
 4378TIP3    H234770   1.802   6.793   0.935  0.6543  0.0960 -0.9137
 4379TIP3   OH234771   2.437   0.883   6.752  0.3625 -0.4843  0.1810
 4379TIP3    H134772   2.388   0.957   6.715 -0.0395 -0.9817 -0.3001
 4379TIP3    H234773   2.490   0.922   6.821  0.5769  0.3484 -0.4327
 4380TIP3   OH234774   0.331   2.273   8.214  0.0145  0.1340  0.7025
 4380TIP3    H134775   0.328   2.356   8.262 -1.7677  0.3615  0.2659
 4380TIP3    H234776   0.372   2.212   8.276  2.5352  1.5630  0.5722
 4381TIP3   OH234777   2.806   5.201   8.027  0.0907  0.1161  0.4908
 4381TIP3    H134778   2.817   5.108   8.006 -1.1187  0.2617 -0.9901
 4381TIP3    H234779   2.891   5.228   8.063  1.5074 -0.8538 -1.8838
 4382TIP3   OH234780   1.717   5.618   1.723  0.7435  0.3064  0.4580
 4382TIP3    H134781   1.638   5.602   1.672  0.9344 -0.6554  0.4490
 4382TIP3    H234782   1.687   5.616   1.814  1.0613 -2.1672  0.5700
 4383TIP3   OH234783   5.314   5.073   0.224  0.2603 -0.3668  0.4661
 4383TIP3    H134784   5.239   5.120   0.186  0.0756 -0.8654  0.2070
 4383TIP3    H234785   5.379   5.142   0.241 -0.0429 -0.0021  0.1744
 4384TIP3   OH234786   2.442   1.845   1.665  0.3822 -0.2581  0.0575
 4384TIP3    H134787   2.480   1.856   1.753 -1.4585  0.1740  0.8521
 4384TIP3    H234788   2.362   1.795   1.680 -0.6209  0.8876 -1.1817
 4385TIP3   OH234789   2.665   4.321   3.274 -0.1232 -0.3063 -0.5287
 4385TIP3    H134790   2.684   4.380   3.348 -0.5738  0.8559 -1.3102
 4385TIP3    H234791   2.730   4.252   3.281 -1.3363 -1.3246  2.1195
 4386TIP3   OH234792   4.056   3.636   7.305 -0.6223  0.3916  0.6214
 4386TIP3    H134793   3.976   3.583   7.311 -0.0696 -0.7621 -1.2434
 4386TIP3    H234794   4.048   3.681   7.221  0.8111 -0.0089  0.2352
 4387TIP3   OH234795   2.030   1.892   8.133  0.7311  0.5061 -0.1001
 4387TIP3    H134796   2.111   1.848   8.160 -0.6950 -0.9587  2.0406
 4387TIP3    H234797   1.972   1.821   8.106 -0.9152  1.1845  1.4607
 4388TIP3   OH234798   6.704   4.956   1.608  0.1867 -0.0655 -0.4362
 4388TIP3    H134799   6.672   4.866   1.609 -1.0326  0.2949  2.3702
 4388TIP3    H234800   6.637   5.005   1.562 -1.2136 -0.0507  1.4713
 4389TIP3   OH234801   0.592   0.292   0.382 -0.0757  0.3269 -0.4328
 4389TIP3    H134802   0.567   0.239   0.306  1.0350 -1.2486  0.2555
 4389TIP3    H234803   0.557   0.244   0.457 -0.0787  1.2071  0.1368
 4390TIP3   OH234804   6.606   6.061   7.452  0.5980  0.2181 -0.2838
 4390TIP3    H134805   6.539   6.129   7.443 -0.9115 -1.2351 -0.4468
 4390TIP3    H234806   6.676   6.103   7.503 -1.1744  1.2917  1.4234
 4391TIP3   OH234807   1.885   1.616   0.671  0.1679 -0.2439  0.3233
 4391TIP3    H134808   1.824   1.666   0.727 -1.1993 -0.4161 -0.9431
 4391TIP3    H234809   1.861   1.642   0.582  0.7364 -1.7119 -0.2765
 4392TIP3   OH234810   4.139   5.477   1.908 -0.5041 -0.4645 -0.0523
 4392TIP3    H134811   4.049   5.510   1.911 -0.4932 -0.4542  0.1694
 4392TIP3    H234812   4.143   5.427   1.827 -0.6591 -0.3181 -0.1522
 4393TIP3   OH234813   0.844   3.601   3.207  0.3148  0.3111  0.0034
 4393TIP3    H134814   0.753   3.615   3.232 -0.0501 -1.2816 -0.3659
 4393TIP3    H234815   0.887   3.685   3.226 -1.3932  1.3762 -0.6714
 4394TIP3   OH234816   3.498   1.816   0.543 -0.3661 -0.0778  0.4606
 4394TIP3    H134817   3.487   1.899   0.590 -2.0846  0.1214 -0.2264
 4394TIP3    H234818   3.516   1.752   0.612 -2.1326  0.3305  1.3522
 4395TIP3   OH234819   2.547   1.232   1.315 -0.3210 -0.4384 -0.9773
 4395TIP3    H134820   2.477   1.168   1.323 -0.4627 -0.2226 -0.4419
 4395TIP3    H234821   2.613   1.204   1.379 -0.7151  0.3651 -0.2022
 4396TIP3   OH234822   5.618   5.773   1.063  0.3289  0.2295  0.0916
 4396TIP3    H134823   5.635   5.690   1.019 -0.2452 -0.8336  1.7486
 4396TIP3    H234824   5.593   5.747   1.152  2.7389  2.2968  1.4901
 4397TIP3   OH234825   3.163   6.346   7.834 -0.1898 -0.0353 -0.1148
 4397TIP3    H134826   3.081   6.305   7.807 -0.0442 -0.6946  0.3897
 4397TIP3    H234827   3.137   6.424   7.883 -0.4923  0.1625 -0.5889
 4398TIP3   OH234828   5.058   3.818   0.366  0.2122  0.0455  0.3078
 4398TIP3    H134829   4.974   3.774   0.372  0.8856 -1.1111  1.9644
 4398TIP3    H234830   5.040   3.899   0.318 -1.4410 -1.0809 -1.0749
 4399TIP3   OH234831   6.992   4.891   1.290  0.8485  0.0957  0.0829
 4399TIP3    H134832   7.006   4.812   1.237  3.8709  1.4237 -1.3640
 4399TIP3    H234833   6.923   4.939   1.244  2.3118  0.4587 -1.8663
 4400TIP3   OH234834   0.233   5.000   7.601 -0.1257 -0.9272  0.2640
 4400TIP3    H134835   0.283   4.982   7.521 -0.7975 -2.1971  0.1115
 4400TIP3    H234836   0.190   5.084   7.584 -0.1252 -1.1000 -0.6360
 4401TIP3   OH234837   2.351   2.953   0.543 -0.0632  0.2421  0.2541
 4401TIP3    H134838   2.342   2.944   0.448 -1.0492 -0.0246  0.3558
 4401TIP3    H234839   2.374   2.865   0.573  2.9598  0.8626  0.0277
 4402TIP3   OH234840   0.773   3.286   2.027  0.1766  0.1625  0.5114
 4402TIP3    H134841   0.824   3.252   2.100  0.9470 -0.7051 -0.4037
 4402TIP3    H234842   0.700   3.332   2.068  1.0089  0.3536  1.8243
 4403TIP3   OH234843   6.807   3.382   0.213  0.2119  0.1775  0.0485
 4403TIP3    H134844   6.771   3.467   0.240 -0.0031  0.3231 -0.6654
 4403TIP3    H234845   6.870   3.404   0.144  1.4057 -0.1106  1.0176
 4404TIP3   OH234846   5.385   0.077   0.310 -0.6564 -0.6871 -0.6573
 4404TIP3    H134847   5.441   0.129   0.252 -1.4027  0.8314 -0.0765
 4404TIP3    H234848   5.411   0.105   0.398 -0.8649 -1.5436 -0.3212
 4405TIP3   OH234849   4.432   5.898   2.006 -0.3652  0.1331  0.1493
 4405TIP3    H134850   4.378   5.971   2.036 -2.1230 -1.1547  0.2397
 4405TIP3    H234851   4.412   5.890   1.913  0.2447  0.0921  0.0180
 4406TIP3   OH234852   5.771   2.863   8.103  0.7988  0.2417  0.2727
 4406TIP3    H134853   5.679   2.859   8.080  0.9065 -1.6473  0.0574
 4406TIP3    H234854   5.778   2.938   8.162 -0.8412  0.4717  0.2007
 4407TIP3   OH234855   6.429   5.818   6.715  0.4800 -0.1788  0.2366
 4407TIP3    H134856   6.378   5.891   6.680  1.4921  0.1504 -0.5876
 4407TIP3    H234857   6.376   5.741   6.697 -0.2151  0.2531  0.3695
 4408TIP3   OH234858   3.861   5.562   3.701 -0.1189  0.2577 -0.2846
 4408TIP3    H134859   3.791   5.536   3.642  0.2727 -1.0633 -0.1825
 4408TIP3    H234860   3.855   5.502   3.775  1.8080 -0.6271 -0.7880
 4409TIP3   OH234861   6.184   4.709   0.580  0.0701 -0.6081  0.1464
 4409TIP3    H134862   6.090   4.702   0.594  0.1018 -0.1420  0.6274
 4409TIP3    H234863   6.215   4.619   0.578 -0.3073 -0.7509  0.5639
 4410TIP3   OH234864   0.359   6.364   0.231 -0.0554 -0.6394  0.0359
 4410TIP3    H134865   0.281   6.375   0.286 -0.1297 -1.7945  0.1977
 4410TIP3    H234866   0.353   6.273   0.200  0.6440 -0.3933 -0.8583
 4411TIP3   OH234867   3.045   3.869   0.634  0.0786 -0.3478  0.0562
 4411TIP3    H134868   3.098   3.907   0.704  0.0600  1.3023 -0.7648
 4411TIP3    H234869   3.034   3.777   0.659  1.7373 -0.2838  1.1865
 4412TIP3   OH234870   5.341   3.473   0.675  0.2224  0.6779 -0.2454
 4412TIP3    H134871   5.429   3.504   0.655  0.8685 -0.9836 -0.0962
 4412TIP3    H234872   5.354   3.397   0.732 -1.3793  1.4401  1.2283
 4413TIP3   OH234873   4.744   5.102   8.027  0.0010  0.0347 -0.0502
 4413TIP3    H134874   4.696   5.028   8.064  0.0667  0.4537  0.8849
 4413TIP3    H234875   4.750   5.082   7.933  0.1902 -1.2354  0.2190
 4414TIP3   OH234876   1.277   6.242   2.147 -0.1304  0.1755 -0.0701
 4414TIP3    H134877   1.291   6.159   2.101 -1.0238 -0.5172  0.8460
 4414TIP3    H234878   1.183   6.243   2.165  0.0490  0.8683  0.8807
 4415TIP3   OH234879   1.673   0.473   1.172  0.2334  0.8723  0.0079
 4415TIP3    H134880   1.589   0.518   1.175  1.2443  2.8461  0.0080
 4415TIP3    H234881   1.650   0.380   1.170 -1.9447  1.3670 -0.4133
 4416TIP3   OH234882   0.830   3.123   7.634 -0.0207 -0.6416  0.8030
 4416TIP3    H134883   0.905   3.068   7.614  0.0731 -0.3620  0.3733
 4416TIP3    H234884   0.754   3.068   7.614  0.0644 -0.2496 -0.7127
 4417TIP3   OH234885   2.023   0.275   1.446 -0.2256 -0.0689  0.0141
 4417TIP3    H134886   2.033   0.325   1.527  2.4294  1.5545 -1.1571
 4417TIP3    H234887   1.983   0.336   1.384 -0.2933 -0.5892 -0.4642
 4418TIP3   OH234888   3.851   5.359   2.715  0.6451 -0.2633 -0.2005
 4418TIP3    H134889   3.936   5.373   2.755  0.1687 -2.0209  1.5953
 4418TIP3    H234890   3.796   5.429   2.751  1.1307  0.4501 -0.8165
 4419TIP3   OH234891   0.365   7.009   7.991  0.1983 -0.3382 -0.6804
 4419TIP3    H134892   0.346   6.972   7.905  2.4733 -2.8812 -0.2260
 4419TIP3    H234893   0.450   7.051   7.981  0.2666 -0.2408  0.2010
 4420TIP3   OH234894   3.374   5.433   2.942 -0.6157 -0.1058  0.0603
 4420TIP3    H134895   3.349   5.404   3.030 -2.5886  0.8685 -0.1154
 4420TIP3    H234896   3.413   5.520   2.955  0.1370 -0.4346  0.0584
 4421TIP3   OH234897   6.223   5.506   0.683  0.0245  0.2628  0.1480
 4421TIP3    H134898   6.194   5.589   0.723 -1.8047  0.2627 -1.0614
 4421TIP3    H234899   6.283   5.533   0.614  0.4230  0.4747  0.5649
 4422TIP3   OH234900   6.574   1.554   1.524  0.0902  0.1273 -0.2908
 4422TIP3    H134901   6.582   1.476   1.581 -2.1488 -0.4269 -0.6581
 4422TIP3    H234902   6.600   1.523   1.438  0.9020  0.2764 -0.1117
 4423TIP3   OH234903   2.342   2.301   1.386 -0.4474  0.7686 -0.4385
 4423TIP3    H134904   2.362   2.268   1.299 -1.1697  1.6049 -0.9326
 4423TIP3    H234905   2.411   2.264   1.442  1.0282  1.5840 -1.6424
 4424TIP3   OH234906   4.445   5.534   2.531  0.3212 -0.0604 -0.3653
 4424TIP3    H134907   4.357   5.570   2.520  1.2582  2.2245 -0.8377
 4424TIP3    H234908   4.459   5.533   2.626 -0.2564 -0.6309 -0.2750
 4425TIP3   OH234909   1.718   1.700   2.622 -0.3754  0.6010  0.3545
 4425TIP3    H134910   1.680   1.781   2.587 -2.3708 -0.2365  0.4717
 4425TIP3    H234911   1.694   1.633   2.558 -1.3515 -0.4085  1.7364
 4426TIP3   OH234912   3.966   2.448   1.808 -0.2980  0.0467 -0.6214
 4426TIP3    H134913   3.988   2.432   1.900  2.4314  0.7914 -1.0510
 4426TIP3    H234914   4.012   2.529   1.786  1.1721 -1.3734 -3.2488
 4427TIP3   OH234915   6.810   2.163   0.870  0.2139 -0.0620 -0.1489
 4427TIP3    H134916   6.768   2.111   0.802  0.7736 -1.0614  0.2489
 4427TIP3    H234917   6.888   2.199   0.828 -0.8595  1.5710 -0.8073
 4428TIP3   OH234918   5.188   3.180   0.855  0.1254 -0.0786 -0.1513
 4428TIP3    H134919   5.159   3.099   0.896 -1.4657 -0.0034 -1.0471
 4428TIP3    H234920   5.158   3.249   0.915 -2.1021  0.0249 -1.2857
 4429TIP3   OH234921   2.719   3.026   1.372 -0.3374 -0.3876  1.0427
 4429TIP3    H134922   2.747   3.049   1.283 -1.6725  0.6984  0.8740
 4429TIP3    H234923   2.800   3.002   1.417  0.6263  0.8980  0.0790
 4430TIP3   OH234924   1.127   0.020   0.507  0.1505  0.1071 -0.0138
 4430TIP3    H134925   1.087   0.071   0.436  1.5209  0.9115 -0.2491
 4430TIP3    H234926   1.061   0.020   0.576 -0.0410  1.9674 -0.1269
 4431TIP3   OH234927   4.854   6.263   2.119  0.2229 -0.3401  0.4519
 4431TIP3    H134928   4.786   6.317   2.161 -0.4643 -0.3591 -0.6071
 4431TIP3    H234929   4.841   6.277   2.026  0.3530 -1.9650  0.1662
 4432TIP3   OH234930   4.746   3.145   0.987 -0.2113  0.2424  0.2214
 4432TIP3    H134931   4.685   3.218   0.982  0.0914  0.4876  0.0170
 4432TIP3    H234932   4.754   3.114   0.897  0.1754  0.3948  0.1977
 4433TIP3   OH234933   0.454   4.803   2.802  0.1236  0.4455 -0.0951
 4433TIP3    H134934   0.375   4.747   2.801 -0.4636  1.1687  1.3773
 4433TIP3    H234935   0.510   4.767   2.734 -0.1886 -2.0301  0.8302
 4434TIP3   OH234936   0.816   0.542   2.749 -0.0832  0.7175  0.3674
 4434TIP3    H134937   0.778   0.625   2.720  0.1527  1.1105  1.1484
 4434TIP3    H234938   0.891   0.568   2.803  0.8120 -0.0257 -0.4785
 4435TIP3   OH234939   5.876   6.592   1.737 -0.3121 -0.6011  0.2785
 4435TIP3    H134940   5.796   6.623   1.780  0.5679  2.1634  0.1284
 4435TIP3    H234941   5.863   6.612   1.645 -0.1779 -1.8616 -0.0188
 4436TIP3   OH234942   1.452   5.931   2.586  0.2373 -0.1871 -0.3999
 4436TIP3    H134943   1.370   5.944   2.538  1.2037  0.6223 -1.9383
 4436TIP3    H234944   1.497   5.862   2.538  1.9428  1.7426 -1.7926
 4437TIP3   OH234945   1.580   5.401   2.791 -0.0808  0.5310 -0.3740
 4437TIP3    H134946   1.541   5.488   2.801 -1.2816 -0.0649  0.3930
 4437TIP3    H234947   1.583   5.366   2.880 -1.4621 -0.9608 -0.8676
 4438TIP3   OH234948   2.858   0.525   1.662  0.0302 -0.0230 -0.2025
 4438TIP3    H134949   2.919   0.460   1.695  1.2076  0.6338 -1.0143
 4438TIP3    H234950   2.873   0.528   1.568 -1.2298  0.1896 -0.4191
 4439TIP3   OH234951   5.478   6.842   2.050 -0.1802 -0.1775  0.1676
 4439TIP3    H134952   5.568   6.823   2.076  0.0983 -0.2217 -0.8011
 4439TIP3    H234953   5.425   6.811   2.123  0.5426 -0.8575  0.4162
 4440TIP3   OH234954   0.763   4.087   0.948 -0.5704 -0.0664  0.4987
 4440TIP3    H134955   0.773   4.169   0.899  0.8614 -0.6261 -0.2198
 4440TIP3    H234956   0.823   4.096   1.022  0.5492 -0.9271 -0.2666
 4441TIP3   OH234957   2.506   5.865   0.147  0.1683  0.0360 -0.5079
 4441TIP3    H134958   2.489   5.927   0.076  0.3141  0.8891  0.2007
 4441TIP3    H234959   2.596   5.882   0.174  0.5008 -1.0524 -0.8517
 4442TIP3   OH234960   5.695   3.848   7.769  0.4937 -0.0293  0.3479
 4442TIP3    H134961   5.788   3.872   7.761  0.2612  0.4776 -1.0930
 4442TIP3    H234962   5.648   3.923   7.734 -0.4544 -0.4575  0.6752
 4443TIP3   OH234963   3.204   6.669   1.489 -0.0420 -0.4062 -0.6513
 4443TIP3    H134964   3.212   6.764   1.494 -0.1358 -0.4463  0.3479
 4443TIP3    H234965   3.164   6.653   1.403  0.8437  0.3918 -1.2349
 4444TIP3   OH234966   1.337   6.610   7.846  0.2782 -0.1760  0.0854
 4444TIP3    H134967   1.343   6.615   7.751  2.3905 -1.4477  0.0826
 4444TIP3    H234968   1.320   6.700   7.874 -0.5285  0.1914 -1.4756
 4445TIP3   OH234969   4.744   0.202   7.236  0.2764  0.2082 -0.4618
 4445TIP3    H134970   4.708   0.122   7.199  0.7114 -0.3364  0.2580
 4445TIP3    H234971   4.765   0.256   7.160  1.4728 -1.0258 -1.0558
 4446TIP3   OH234972   2.795   6.655   1.274  0.1651 -0.2531 -0.1312
 4446TIP3    H134973   2.886   6.684   1.276  0.0176  0.1763  0.4790
 4446TIP3    H234974   2.747   6.729   1.237 -0.1255  0.0729  0.8682
 4447TIP3   OH234975   4.363   3.963   8.140  0.3519 -0.2393 -0.2501
 4447TIP3    H134976   4.427   3.914   8.089 -0.1625 -1.0322 -0.1590
 4447TIP3    H234977   4.411   4.039   8.174  0.7653  0.1774 -1.7012
 4448TIP3   OH234978   3.406   4.328   0.626  0.1507  0.2739  0.1709
 4448TIP3    H134979   3.310   4.328   0.624  0.0766  0.9332  2.0366
 4448TIP3    H234980   3.428   4.298   0.714  1.6252  1.1202  0.1197
 4449TIP3   OH234981   6.755   6.293   8.057 -0.1552 -0.2730 -0.1005
 4449TIP3    H134982   6.717   6.353   8.122 -1.5965 -1.1626 -0.0748
 4449TIP3    H234983   6.817   6.240   8.107 -0.2647 -0.0538  0.2752
 4450TIP3   OH234984   5.692   3.645   3.462  0.2200  0.0352 -0.3810
 4450TIP3    H134985   5.710   3.551   3.458 -1.1931 -0.2364 -0.7198
 4450TIP3    H234986   5.597   3.651   3.472  0.2011  1.4531 -1.1940
 4451TIP3   OH234987   2.251   5.819   3.046 -0.4102 -0.2875  0.0201
 4451TIP3    H134988   2.280   5.812   3.137 -1.9235 -1.0466  0.4694
 4451TIP3    H234989   2.302   5.753   3.000 -0.0156 -0.2590  0.4047
 4452TIP3   OH234990   6.981   6.839   1.984 -0.3246 -0.0790  0.2288
 4452TIP3    H134991   7.077   6.844   1.988 -0.1128 -0.8825 -2.2005
 4452TIP3    H234992   6.952   6.923   2.020  1.3928  1.0449 -0.8161
 4453TIP3   OH234993   3.761   3.449   7.846  0.2570  0.0305 -0.5038
 4453TIP3    H134994   3.844   3.495   7.858  0.5008 -0.9271  2.1349
 4453TIP3    H234995   3.694   3.515   7.861  0.5458  0.3531 -0.6213
 4454TIP3   OH234996   3.047   2.691   1.463 -0.9583  0.0297  0.0561
 4454TIP3    H134997   3.142   2.691   1.459 -0.9806  0.8699 -0.4964
 4454TIP3    H234998   3.027   2.707   1.556 -0.5772 -0.6289  0.2652
 4455TIP3   OH234999   3.974   4.157   2.200 -0.1304  0.2710 -0.2937
 4455TIP3    H135000   3.969   4.226   2.266 -0.5470  0.8686 -0.9402
 4455TIP3    H235001   3.942   4.078   2.245 -1.6570  0.9395 -0.1518
 4456TIP3   OH235002   4.171   3.555   1.028  0.5306  0.6474  0.0453
 4456TIP3    H135003   4.160   3.594   0.941 -0.8623  0.4874  0.1220
 4456TIP3    H235004   4.173   3.461   1.012  1.5580  0.6459  0.0869
 4457TIP3   OH235005   1.581   3.909   0.151 -0.1200  0.2707 -0.1353
 4457TIP3    H135006   1.638   3.866   0.088  2.5785 -0.2908  2.4267
 4457TIP3    H235007   1.634   3.979   0.188 -2.0637  1.4776  0.5618
 4458TIP3   OH235008   5.810   4.748   3.135 -0.0671  0.2140 -0.6630
 4458TIP3    H135009   5.897   4.720   3.106 -0.0172  0.4727 -0.7697
 4458TIP3    H235010   5.814   4.844   3.133 -0.2539  0.2294 -0.3619
 4459TIP3   OH235011   4.997   2.131   8.259  0.4155 -0.8071 -0.4121
 4459TIP3    H135012   4.944   2.210   8.273  1.6374 -0.2087  1.0482
 4459TIP3    H235013   4.934   2.059   8.261 -0.6039  0.0427 -0.9224
 4460TIP3   OH235014   0.303   2.777   1.325 -0.8908  0.7516 -0.0114
 4460TIP3    H135015   0.239   2.801   1.258 -0.6823  0.4279 -0.3287
 4460TIP3    H235016   0.262   2.704   1.372 -1.6263  1.8361  1.1049
 4461TIP3   OH235017   3.020   2.748   0.450  0.1308  0.1230  0.3218
 4461TIP3    H135018   2.924   2.750   0.457  0.0895 -0.4214 -0.0314
 4461TIP3    H235019   3.050   2.794   0.528 -0.4013 -0.5265  0.9195
 4462TIP3   OH235020   0.926   6.224   7.632  0.4032 -0.3418  0.1513
 4462TIP3    H135021   1.015   6.259   7.623 -0.5506  2.3390  0.3361
 4462TIP3    H235022   0.891   6.269   7.709 -1.2432 -1.0682 -0.1443
 4463TIP3   OH235023   1.765   3.943   2.025 -0.2410 -0.0433  0.4842
 4463TIP3    H135024   1.698   3.879   2.047 -0.2977 -0.2382 -0.2257
 4463TIP3    H235025   1.717   4.025   2.012 -0.2471 -0.0066  0.7306
 4464TIP3   OH235026   5.896   4.137   1.332  0.4567  0.7589  0.2999
 4464TIP3    H135027   5.974   4.149   1.278  1.2229 -1.5274  0.7555
 4464TIP3    H235028   5.823   4.158   1.274  1.3586  2.5223 -0.2671
 4465TIP3   OH235029   5.778   3.309   2.820 -0.2446 -0.1601  0.2579
 4465TIP3    H135030   5.790   3.360   2.740 -1.7115 -1.7940 -1.0546
 4465TIP3    H235031   5.780   3.218   2.792 -0.8555 -0.7762  2.0711
 4466TIP3   OH235032   1.281   6.316   2.685  0.1463  0.4190 -0.1045
 4466TIP3    H135033   1.326   6.312   2.600 -0.0223  1.5967 -0.2645
 4466TIP3    H235034   1.239   6.402   2.685 -1.8370 -0.5164  0.1929
 4467TIP3   OH235035   1.925   6.983   1.982  0.0864  0.2277  0.2864
 4467TIP3    H135036   2.009   7.014   1.948 -0.3390  0.8535 -0.2150
 4467TIP3    H235037   1.881   7.062   2.013 -0.9597  0.1415 -0.8917
 4468TIP3   OH235038   1.742   3.381   1.128  0.0062  0.2660 -0.3008
 4468TIP3    H135039   1.830   3.384   1.165 -0.3485  2.6304  0.5373
 4468TIP3    H235040   1.684   3.382   1.204 -0.7498 -0.1152 -0.8550
 4469TIP3   OH235041   2.268   5.644   1.214 -0.6206 -0.4161 -0.4001
 4469TIP3    H135042   2.297   5.730   1.244  2.7336 -1.6973  0.4840
 4469TIP3    H235043   2.241   5.658   1.123 -1.8009  1.8058  0.2150
 4470TIP3   OH235044   6.700   1.063   7.030  0.2683  0.1450 -0.6633
 4470TIP3    H135045   6.636   1.132   7.015  0.6628  0.7342  0.2837
 4470TIP3    H235046   6.648   0.983   7.035 -0.4653  0.6637  0.5066
 4471TIP3   OH235047   6.449   0.801   7.657  0.2419 -0.4737  0.0505
 4471TIP3    H135048   6.480   0.732   7.599  0.3761  0.3460 -0.8771
 4471TIP3    H235049   6.528   0.847   7.686  0.0634  0.2982 -0.6422
 4472TIP3   OH235050   6.288   2.985   2.651 -0.3445  0.0272  0.2133
 4472TIP3    H135051   6.341   2.960   2.726  0.9566  0.8524 -0.3804
 4472TIP3    H235052   6.331   3.063   2.616  0.2377 -1.3756 -2.5049
 4473TIP3   OH235053   6.662   5.352   2.045 -0.8429  0.2047  0.0256
 4473TIP3    H135054   6.676   5.275   2.101 -1.8209 -0.3758 -0.4884
 4473TIP3    H235055   6.744   5.362   1.997 -0.1597  0.4172  1.1886
 4474TIP3   OH235056   1.421   0.835   1.250 -0.2460  0.0425 -0.6991
 4474TIP3    H135057   1.413   0.765   1.185 -0.1409 -0.6864  0.0578
 4474TIP3    H235058   1.447   0.790   1.331 -1.5167  0.7820  0.1500
 4475TIP3   OH235059   6.893   6.739   7.962  0.0011  0.3976 -0.0449
 4475TIP3    H135060   6.862   6.648   7.960 -0.3893  0.4916  1.0188
 4475TIP3    H235061   6.976   6.737   7.914 -0.3589 -0.3736 -0.6581
 4476TIP3   OH235062   3.155   4.947   0.064 -0.3291  0.2597 -0.0776
 4476TIP3    H135063   3.086   4.949   0.130  0.5471 -0.9992  0.9002
 4476TIP3    H235064   3.137   4.868   0.013  1.5841 -1.3113  1.5570
 4477TIP3   OH235065   5.874   6.021   2.784 -0.3091 -0.0830  0.1567
 4477TIP3    H135066   5.795   6.005   2.732 -2.6680  2.8603  2.5182
 4477TIP3    H235067   5.917   6.095   2.741 -1.5749  1.5204  1.5559
 4478TIP3   OH235068   4.567   1.329   0.270  0.2297 -0.0213  0.9622
 4478TIP3    H135069   4.601   1.409   0.229 -2.1955  1.5798  1.8693
 4478TIP3    H235070   4.534   1.357   0.355  0.7245 -2.3422  2.0140
 4479TIP3   OH235071   3.058   5.901   8.178 -0.1614  0.1858  0.4969
 4479TIP3    H135072   3.071   5.987   8.139  0.5376  0.8887  2.1507
 4479TIP3    H235073   3.090   5.839   8.112 -1.7061  1.0830 -1.1680
 4480TIP3   OH235074   6.586   2.612   8.126  0.0148  0.7982 -0.0310
 4480TIP3    H135075   6.600   2.701   8.158 -0.0798  0.7396  0.1725
 4480TIP3    H235076   6.640   2.607   8.047  0.3951  0.8818  0.2182
 4481TIP3   OH235077   3.832   0.120   1.350  0.0939 -0.1235 -0.2196
 4481TIP3    H135078   3.790   0.205   1.362  3.1047  1.3781  0.5066
 4481TIP3    H235079   3.867   0.098   1.436  0.3642 -1.5722 -0.6649
 4482TIP3   OH235080   1.938   2.925   8.388 -0.6447 -0.6636 -0.4637
 4482TIP3    H135081   2.014   2.892   8.339 -0.8239 -1.7228 -0.0494
 4482TIP3    H235082   1.918   3.009   8.347  0.8304 -0.3021 -0.4927
 4483TIP3   OH235083   5.047   5.295   6.747  0.1696 -0.2437 -0.9616
 4483TIP3    H135084   5.079   5.213   6.784  0.7908 -0.2029 -1.3751
 4483TIP3    H235085   5.015   5.345   6.822 -0.1360 -0.8285 -0.7012
 4484TIP3   OH235086   3.322   6.436   1.542 -0.4502  0.2201 -0.2766
 4484TIP3    H135087   3.294   6.522   1.511  0.4603  1.2988  1.7678
 4484TIP3    H235088   3.415   6.445   1.560 -0.5634 -0.8719  1.0120
 4485TIP3   OH235089   4.793   4.111   7.234 -0.3866 -0.4863  0.1764
 4485TIP3    H135090   4.705   4.144   7.216 -0.5293 -1.1176 -0.3358
 4485TIP3    H235091   4.825   4.083   7.148  0.5664  0.3187  0.2508
 4486TIP3   OH235092   0.560   5.949   1.937 -0.3447 -0.3322  0.1533
 4486TIP3    H135093   0.579   6.001   1.859  0.1993  1.7194  1.5587
 4486TIP3    H235094   0.614   5.870   1.928 -0.5030 -0.2630 -1.6414
 4487TIP3   OH235095   5.110   3.626   2.384  0.0847 -0.4984 -0.2154
 4487TIP3    H135096   5.139   3.715   2.369  1.1034 -0.3158  2.3403
 4487TIP3    H235097   5.016   3.628   2.368  0.1663  0.9198 -0.6281
 4488TIP3   OH235098   6.365   2.817   0.320 -0.3204 -0.0742  0.1930
 4488TIP3    H135099   6.338   2.840   0.409  0.2839 -1.5283  0.7940
 4488TIP3    H235100   6.421   2.890   0.292 -1.6180  1.0526  0.4561
 4489TIP3   OH235101   1.913   0.625   1.856 -0.0424  0.1199 -0.4367
 4489TIP3    H135102   1.884   0.697   1.913  0.4688  0.0456 -0.0795
 4489TIP3    H235103   1.903   0.660   1.767  0.1522  0.6158 -0.2681
 4490TIP3   OH235104   4.194   4.171   7.627  0.6692 -0.2786 -0.3668
 4490TIP3    H135105   4.154   4.170   7.540  0.8949 -0.3123 -0.4725
 4490TIP3    H235106   4.268   4.231   7.619  0.0005  0.6340  0.1238
 4491TIP3   OH235107   4.789   6.188   8.112  0.0350 -0.3750  0.3593
 4491TIP3    H135108   4.845   6.180   8.035  0.4241 -0.1499  0.6147
 4491TIP3    H235109   4.768   6.098   8.137 -1.7897 -0.4549 -1.2225
 4492TIP3   OH235110   1.041   4.473   2.993  0.3478  0.5133 -0.5324
 4492TIP3    H135111   1.016   4.498   2.904 -2.0490  1.1499  0.2368
 4492TIP3    H235112   0.985   4.527   3.049 -1.6838 -3.1240  1.2920
 4493TIP3   OH235113   6.238   0.266   2.218 -0.1285  0.3067  0.3895
 4493TIP3    H135114   6.258   0.258   2.312  0.0163 -1.1157  0.2541
 4493TIP3    H235115   6.316   0.234   2.174 -1.0728 -1.3461 -0.1814
 4494TIP3   OH235116   6.431   2.277   0.893  0.0997 -0.2670 -0.2594
 4494TIP3    H135117   6.449   2.188   0.865  1.0919  0.5790 -2.5932
 4494TIP3    H235118   6.512   2.306   0.937  1.1711  0.5527 -2.6193
 4495TIP3   OH235119   0.356   5.431   8.056  0.2938  0.1908 -0.2975
 4495TIP3    H135120   0.432   5.373   8.057  0.9669  1.0555  1.2860
 4495TIP3    H235121   0.391   5.518   8.075 -1.1990  0.4489  1.5893
 4496TIP3   OH235122   4.896   3.839   2.317 -0.5607 -0.3533 -0.1951
 4496TIP3    H135123   4.822   3.892   2.286 -1.1435 -1.3896 -0.6106
 4496TIP3    H235124   4.907   3.866   2.408 -0.0805  1.3234 -0.7085
 4497TIP3   OH235125   5.896   5.932   1.981 -0.1147  0.0735 -0.5047
 4497TIP3    H135126   5.836   5.973   2.044 -0.5271  0.7922 -1.3473
 4497TIP3    H235127   5.961   5.999   1.962 -0.2966  0.0593 -1.2303
 4498TIP3   OH235128   5.298   6.032   8.313  0.5306  0.2931 -0.3747
 4498TIP3    H135129   5.207   6.058   8.297  0.7848  0.7768 -1.0692
 4498TIP3    H235130   5.291   5.960   8.376 -0.3839 -0.2109 -1.0255
 4499TIP3   OH235131   6.207   1.904   2.754  0.2495  0.3863 -0.0836
 4499TIP3    H135132   6.236   1.911   2.845  0.8781 -0.0315 -0.2459
 4499TIP3    H235133   6.111   1.900   2.760  0.2775  0.4957  0.5485
 4500TIP3   OH235134   3.411   6.526   1.239 -0.3748 -0.2963  0.0211
 4500TIP3    H135135   3.331   6.522   1.187 -0.2046  0.2536 -0.2900
 4500TIP3    H235136   3.428   6.619   1.249  0.4289 -0.4085 -0.2268
 4501TIP3   OH235137   2.756   5.887   8.081  0.4650 -0.4696 -0.2989
 4501TIP3    H135138   2.686   5.834   8.043  1.1313 -1.6721  0.0866
 4501TIP3    H235139   2.782   5.947   8.012 -0.6091 -0.3398 -0.6047
 4502TIP3   OH235140   1.801   2.555   1.326  0.0750  0.1408  0.1469
 4502TIP3    H135141   1.720   2.603   1.311  0.5217  0.6534 -0.7325
 4502TIP3    H235142   1.815   2.505   1.245 -0.4356 -1.5947  1.0701
 4503TIP3   OH235143   3.586   3.100   0.749 -0.3085 -0.6564  0.4028
 4503TIP3    H135144   3.635   3.092   0.667 -0.9716 -2.3661  0.1288
 4503TIP3    H235145   3.651   3.084   0.817  0.4463  1.6622  0.3249
 4504TIP3   OH235146   0.840   4.340   0.804 -0.6478 -0.1625 -0.1889
 4504TIP3    H135147   0.894   4.377   0.874  0.8630 -1.4868 -0.5738
 4504TIP3    H235148   0.784   4.411   0.775  1.3299  1.4891 -0.1527
 4505TIP3   OH235149   5.630   5.470   0.507 -0.1033 -0.2954  0.1559
 4505TIP3    H135150   5.620   5.502   0.417 -1.0995 -0.5797  0.1425
 4505TIP3    H235151   5.570   5.524   0.558 -0.5204 -0.9869  0.4182
 4506TIP3   OH235152   2.532   5.273   2.449 -0.0162  0.2121 -0.4995
 4506TIP3    H135153   2.483   5.192   2.434 -0.8997  0.3744  1.2807
 4506TIP3    H235154   2.581   5.258   2.529 -0.0455  1.3765 -0.2481
 4507TIP3   OH235155   1.571   1.855   1.598  0.3198 -0.2911 -0.3962
 4507TIP3    H135156   1.651   1.894   1.631 -0.1985  0.4328  0.0250
 4507TIP3    H235157   1.500   1.910   1.632 -0.2648  0.5160 -2.6818
 4508TIP3   OH235158   5.804   2.290   2.055  0.5444 -0.0323 -0.2931
 4508TIP3    H135159   5.782   2.345   1.980  2.5905  0.8730 -0.2854
 4508TIP3    H235160   5.782   2.343   2.131  0.9928  0.1367 -0.2783
 4509TIP3   OH235161   5.029   6.078   0.293 -0.0376 -0.0194  0.1634
 4509TIP3    H135162   5.096   6.025   0.338  0.0004  0.7819  1.0965
 4509TIP3    H235163   5.048   6.168   0.321 -1.2189  0.2724  0.0540
 4510TIP3   OH235164   6.589   7.014   2.055  0.9510  0.4872 -0.1514
 4510TIP3    H135165   6.631   7.077   1.996  1.0149  0.4054 -0.1944
 4510TIP3    H235166   6.641   7.019   2.136 -0.5273  2.2892  0.7450
 4511TIP3   OH235167   2.274   4.031   1.550 -0.0594 -0.0150  0.0992
 4511TIP3    H135168   2.235   4.067   1.630  0.4757 -1.3729  0.9942
 4511TIP3    H235169   2.294   3.940   1.571  0.7760 -0.1971 -1.3458
 4512TIP3   OH235170   2.313   2.498   1.015  0.4085  0.0664  0.2774
 4512TIP3    H135171   2.315   2.585   0.977 -0.2325  0.0730  0.2460
 4512TIP3    H235172   2.335   2.439   0.943 -0.6182  0.0917 -0.0753
 4513TIP3   OH235173   2.242   4.707   7.547  0.4923 -0.1029  0.1006
 4513TIP3    H135174   2.186   4.645   7.501 -0.3599  0.9208 -0.2728
 4513TIP3    H235175   2.290   4.654   7.611  0.7519 -1.3415 -1.0942
 4514TIP3   OH235176   6.678   5.443   1.284 -0.1359 -0.0181 -0.3604
 4514TIP3    H135177   6.656   5.447   1.378 -1.6001  1.8830 -0.7073
 4514TIP3    H235178   6.723   5.526   1.267 -1.0382  0.2431 -1.5702
 4515TIP3   OH235179   1.924   6.266   0.944  0.2882 -0.1394 -0.0915
 4515TIP3    H135180   1.865   6.333   0.980  0.9202  0.0939  0.5390
 4515TIP3    H235181   1.959   6.304   0.864 -0.7106 -0.4368 -0.6812
 4516TIP3   OH235182   5.316   4.447   8.288 -0.3243 -0.3301  0.3128
 4516TIP3    H135183   5.367   4.524   8.261 -0.6041  0.2915  1.5248
 4516TIP3    H235184   5.371   4.373   8.263  1.7084  0.3216  2.4807
 4517TIP3   OH235185   2.597   6.589   2.250 -0.7715 -0.7756  0.5546
 4517TIP3    H135186   2.552   6.511   2.217 -1.2629 -0.4819  0.5219
 4517TIP3    H235187   2.678   6.555   2.288 -1.4142 -1.4233  1.4023
 4518TIP3   OH235188   4.320   4.474   0.205 -0.0783 -0.1914 -0.0098
 4518TIP3    H135189   4.321   4.542   0.273  1.1642 -0.3561  0.1649
 4518TIP3    H235190   4.229   4.470   0.177 -0.4919  0.3711  1.1594
 4519TIP3   OH235191   3.251   2.038   2.924  0.2556  0.4972 -0.6611
 4519TIP3    H135192   3.188   2.088   2.873 -0.3989  0.5955  0.2206
 4519TIP3    H235193   3.199   1.971   2.968  0.3755  1.8631  1.7529
 4520TIP3   OH235194   0.401   5.775   0.724  0.2587 -0.0770  0.3176
 4520TIP3    H135195   0.415   5.713   0.652 -0.1335  0.6461 -0.3971
 4520TIP3    H235196   0.417   5.861   0.685 -0.0720  0.3383  1.0738
 4521TIP3   OH235197   3.379   4.435   0.097  0.1423  0.4771 -0.4681
 4521TIP3    H135198   3.357   4.345   0.072  0.5094  0.5627 -1.1377
 4521TIP3    H235199   3.375   4.436   0.192  0.5512 -0.3606 -0.4348
 4522TIP3   OH235200   2.489   5.467   0.628  0.7683 -0.1593 -1.0259
 4522TIP3    H135201   2.484   5.545   0.682 -1.3089 -1.3678  0.6939
 4522TIP3    H235202   2.422   5.479   0.561 -0.5694 -0.9886  0.1011
 4523TIP3   OH235203   0.195   4.369   7.853 -0.3977 -0.0962  0.5320
 4523TIP3    H135204   0.248   4.366   7.933 -0.0534 -0.2617  0.3056
 4523TIP3    H235205   0.189   4.462   7.831 -0.4931 -0.0503  0.7501
 4524TIP3   OH235206   5.123   3.078   2.100  0.4289  0.1232 -0.9439
 4524TIP3    H135207   5.156   3.127   2.175 -0.7777 -0.6399  0.1309
 4524TIP3    H235208   5.201   3.042   2.058  1.2042  1.5027 -0.7421
 4525TIP3   OH235209   6.901   2.265   7.453  0.2554 -0.1638  0.0007
 4525TIP3    H135210   6.903   2.361   7.457 -0.2964 -0.1058 -0.7871
 4525TIP3    H235211   6.992   2.240   7.437  0.4018  0.2202  0.1913
 4526TIP3   OH235212   1.220   2.432   1.340 -0.2822 -0.2891  0.3166
 4526TIP3    H135213   1.227   2.337   1.349 -0.0556 -0.3030  0.0021
 4526TIP3    H235214   1.229   2.465   1.430 -2.0091 -0.6547  0.6517
 4527TIP3   OH235215   4.521   4.372   8.387  0.4515 -0.3150  0.4945
 4527TIP3    H135216   4.438   4.408   8.419 -0.2799 -1.8256  0.3703
 4527TIP3    H235217   4.496   4.308   8.321  1.7151 -0.8159  0.4720
 4528TIP3   OH235218   5.483   3.801   7.559 -0.0275  0.4357  0.6162
 4528TIP3    H135219   5.499   3.814   7.466 -2.9173 -0.9580 -0.2231
 4528TIP3    H235220   5.403   3.852   7.577  0.0601  0.0925  2.1552
 4529TIP3   OH235221   5.013   2.830   1.473  0.6390 -0.4825  0.3374
 4529TIP3    H135222   5.079   2.839   1.404  1.5136  1.9945  1.4055
 4529TIP3    H235223   4.930   2.852   1.430  0.9653 -0.3980 -0.2620
 4530TIP3   OH235224   0.802   6.135   2.414 -0.7121  0.5568  0.4195
 4530TIP3    H135225   0.774   6.092   2.334 -1.0027  1.6066 -0.0542
 4530TIP3    H235226   0.859   6.070   2.457  1.1824  0.7117 -1.6378
 4531TIP3   OH235227   4.471   6.069   7.826  0.1427 -0.2993 -0.6181
 4531TIP3    H135228   4.463   6.128   7.901  0.3912 -0.1724 -0.6905
 4531TIP3    H235229   4.424   5.990   7.852  1.3336 -0.7579  0.1828
 4532TIP3   OH235230   3.826   3.185   8.056  0.1413 -0.0797  0.6383
 4532TIP3    H135231   3.878   3.234   8.120  0.1239  1.1827 -0.2828
 4532TIP3    H235232   3.874   3.194   7.974 -2.4356  2.9212 -0.7465
 4533TIP3   OH235233   5.929   3.996   2.495 -0.4827 -1.0412  0.2679
 4533TIP3    H135234   5.904   4.025   2.408  1.1951 -0.5933 -0.0961
 4533TIP3    H235235   6.024   3.986   2.491 -0.2789 -0.3937  2.2133
 4534TIP3   OH235236   5.880   5.868   1.489  0.2886  0.3683 -0.5010
 4534TIP3    H135237   5.906   5.959   1.478 -1.3306  0.9022 -0.0823
 4534TIP3    H235238   5.822   5.868   1.565  1.9270 -1.3641  0.8466
 4535TIP3   OH235239   4.655   5.306   2.580 -0.0632  0.2243 -0.5594
 4535TIP3    H135240   4.620   5.395   2.574 -0.5581  0.2022  1.3233
 4535TIP3    H235241   4.704   5.305   2.662 -0.7899 -1.4686 -0.1010
 4536TIP3   OH235242   6.328   5.935   7.626  0.9371 -0.0988  0.1115
 4536TIP3    H135243   6.266   6.006   7.611  1.3492  0.0242 -1.1040
 4536TIP3    H235244   6.306   5.902   7.713  0.7986  1.5610  0.7364
 4537TIP3   OH235245   0.482   2.656   2.782  0.2064 -0.0701  0.1732
 4537TIP3    H135246   0.396   2.685   2.812  0.0199  2.0069 -2.0182
 4537TIP3    H235247   0.513   2.597   2.851 -1.4159  1.8860  2.7671
 4538TIP3   OH235248   4.894   6.382   1.531 -0.8786  0.1056 -0.2369
 4538TIP3    H135249   4.802   6.395   1.508 -0.8052 -0.9350 -1.2519
 4538TIP3    H235250   4.911   6.289   1.511  0.6893  0.5590 -1.2402
 4539TIP3   OH235251   6.771   4.020   0.295 -0.2838 -0.0875  0.1165
 4539TIP3    H135252   6.770   3.925   0.305 -0.0115 -0.1809 -0.7212
 4539TIP3    H235253   6.774   4.053   0.385 -1.6265 -0.8424  0.4713
 4540TIP3   OH235254   6.271   0.440   0.587  0.4487  0.7256  0.3197
 4540TIP3    H135255   6.211   0.511   0.565  0.5253  1.0148  1.0210
 4540TIP3    H235256   6.262   0.378   0.514  2.4039  2.6606 -1.7465
 4541TIP3   OH235257   3.465   6.628   1.922  0.0631 -0.0594 -0.1609
 4541TIP3    H135258   3.388   6.624   1.977 -0.8946  0.8825 -1.3782
 4541TIP3    H235259   3.431   6.645   1.834  1.6358  0.1459 -0.7628
 4542TIP3   OH235260   3.469   2.709   1.195 -0.6913  0.2014  0.3266
 4542TIP3    H135261   3.502   2.631   1.239 -0.9033 -1.1632 -1.7538
 4542TIP3    H235262   3.545   2.743   1.147 -1.2349 -0.4362 -1.0437
 4543TIP3   OH235263   1.514   1.133   7.354 -0.0591  0.1106 -0.2479
 4543TIP3    H135264   1.510   1.118   7.449  1.9562  0.8577  0.0181
 4543TIP3    H235265   1.436   1.185   7.334 -0.1367  0.5578  1.1358
 4544TIP3   OH235266   5.176   1.838   1.394 -0.0230 -0.3396 -0.3149
 4544TIP3    H135267   5.271   1.850   1.399  0.1187 -1.5367  0.3129
 4544TIP3    H235268   5.146   1.843   1.485 -0.3805 -1.1912 -0.3762
 4545TIP3   OH235269   2.200   2.053   7.980  0.3060  0.1079  0.2021
 4545TIP3    H135270   2.162   1.986   8.036 -0.5755 -1.9436 -2.6349
 4545TIP3    H235271   2.129   2.116   7.966 -1.1972 -1.9923 -2.4406
 4546TIP3   OH235272   3.116   0.653   1.218 -0.6797 -0.4351 -0.2360
 4546TIP3    H135273   3.179   0.598   1.171  0.0982 -0.0883  0.3767
 4546TIP3    H235274   3.166   0.731   1.241 -1.4432  0.0011 -0.0464
 4547TIP3   OH235275   0.755   4.476   2.231  0.2778  0.6707  0.1223
 4547TIP3    H135276   0.661   4.491   2.222 -0.1075 -0.8874  0.9854
 4547TIP3    H235277   0.766   4.383   2.209  1.4111  0.5146  1.2252
 4548TIP3   OH235278   1.403   3.556   1.176  0.1619  0.3460 -0.4191
 4548TIP3    H135279   1.400   3.564   1.271  2.2884 -1.4938 -0.1081
 4548TIP3    H235280   1.374   3.466   1.159  0.5497  0.4002 -1.4316
 4549TIP3   OH235281   3.817   1.691   8.148 -0.1647 -0.3034 -0.0425
 4549TIP3    H135282   3.902   1.671   8.186 -0.0809 -1.3778 -0.7511
 4549TIP3    H235283   3.834   1.766   8.090 -0.0258  0.4589  0.9511
 4550TIP3   OH235284   4.685   2.818   7.746  0.1704  0.0704 -0.3150
 4550TIP3    H135285   4.781   2.819   7.748  0.3125  3.2104 -1.8577
 4550TIP3    H235286   4.663   2.776   7.663  0.1419 -1.1084  0.2680
 4551TIP3   OH235287   6.854   3.184   0.788  0.1110 -0.0578  0.6118
 4551TIP3    H135288   6.903   3.255   0.748  0.1870 -1.7209 -2.5362
 4551TIP3    H235289   6.765   3.217   0.795  0.3154  0.6510 -0.0313
 4552TIP3   OH235290   3.728   0.723   7.490 -0.6619  0.1374  0.2261
 4552TIP3    H135291   3.756   0.686   7.406  3.0336 -0.6370  1.5965
 4552TIP3    H235292   3.727   0.648   7.549  0.4848  1.1505  1.6181
 4553TIP3   OH235293   1.837   5.771   2.497 -0.0928  0.1012 -0.0183
 4553TIP3    H135294   1.810   5.828   2.569  1.0138 -0.0516  0.5299
 4553TIP3    H235295   1.873   5.830   2.432  2.2081 -0.0078  1.0631
 4554TIP3   OH235296   4.207   6.989   7.564  0.1398 -0.2734  0.3971
 4554TIP3    H135297   4.151   6.944   7.500 -0.5641 -0.6228  1.2230
 4554TIP3    H235298   4.274   7.032   7.512 -1.9205  1.6653 -0.8112
 4555TIP3   OH235299   0.607   0.038   7.365  0.3156 -0.0675 -0.2961
 4555TIP3    H135300   0.536  -0.003   7.414  0.6749 -1.7408 -1.0994
 4555TIP3    H235301   0.563   0.080   7.291  0.1810 -2.5382 -1.7607
 4556TIP3   OH235302   3.000   2.395   1.578  0.1135 -0.0555  0.1092
 4556TIP3    H135303   3.061   2.469   1.588  2.4848 -1.9924  0.8199
 4556TIP3    H235304   3.033   2.347   1.503 -1.2925 -0.5186 -0.2259
 4557TIP3   OH235305   0.900   3.268   0.601 -0.4700  0.7069  0.6843
 4557TIP3    H135306   0.805   3.268   0.584  0.0103 -0.1641 -2.6886
 4557TIP3    H235307   0.929   3.355   0.574 -0.0387  0.2147 -0.4910
 4558TIP3   OH235308   4.031   3.894   0.943 -0.3917 -0.0129 -0.2213
 4558TIP3    H135309   4.058   3.984   0.927 -0.4729 -0.4006 -3.1321
 4558TIP3    H235310   4.113   3.846   0.957 -0.3093  0.3779  0.6950
 4559TIP3   OH235311   2.671   5.999   3.025 -0.5342  0.2042 -0.8113
 4559TIP3    H135312   2.659   5.907   3.003  0.4677 -0.0316 -0.4444
 4559TIP3    H235313   2.692   5.999   3.119 -0.2629  0.7744 -0.8651
 4560TIP3   OH235314   6.183   4.897   2.449 -0.7788 -0.7631  0.1001
 4560TIP3    H135315   6.210   4.949   2.525 -1.8708  1.3988 -0.8996
 4560TIP3    H235316   6.254   4.834   2.438  0.0714 -0.2561  2.0875
 4561TIP3   OH235317   1.979   3.341   0.580  0.1990  0.2436  0.8129
 4561TIP3    H135318   2.018   3.283   0.514  0.0303  2.3152 -1.2634
 4561TIP3    H235319   2.042   3.340   0.652  1.3539 -0.7054 -0.1489
 4562TIP3   OH235320   2.442   0.454   2.299 -0.1777 -0.2466 -0.0055
 4562TIP3    H135321   2.433   0.454   2.204  0.6881 -1.3999 -0.1120
 4562TIP3    H235322   2.369   0.508   2.330 -0.2021  0.5302 -1.3328
 4563TIP3   OH235323   4.677   0.829   2.579  0.5689 -0.0017 -0.0572
 4563TIP3    H135324   4.609   0.864   2.520  1.3529  0.4535 -0.7139
 4563TIP3    H235325   4.735   0.779   2.522  0.9871 -0.0846  0.4363
 4564TIP3   OH235326   0.832   0.691   1.861 -0.6386  0.0619 -0.0542
 4564TIP3    H135327   0.897   0.726   1.799  0.1871 -3.4045 -1.3853
 4564TIP3    H235328   0.748   0.724   1.828  0.0742  1.0582 -0.9491
 4565TIP3   OH235329   0.520   2.313   0.713  0.4297  0.0966  0.0525
 4565TIP3    H135330   0.529   2.408   0.709  1.7663  0.1568  2.3793
 4565TIP3    H235331   0.599   2.280   0.669  2.1981  0.2482  2.8341
 4566TIP3   OH235332   4.884   2.224   2.087  0.4534 -0.2436  0.5124
 4566TIP3    H135333   4.870   2.270   2.170  0.6826 -0.2040  0.5286
 4566TIP3    H235334   4.827   2.269   2.024 -0.9730 -1.2721  0.9916
 4567TIP3   OH235335   5.413   1.502   1.881 -0.0971  0.2490 -0.0075
 4567TIP3    H135336   5.403   1.590   1.846  0.9122  0.1860 -0.4759
 4567TIP3    H235337   5.370   1.505   1.967 -1.0676  0.8715 -0.5092
 4568TIP3   OH235338   1.969   5.172   8.355  0.1849  0.3617  0.1434
 4568TIP3    H135339   2.041   5.233   8.343 -0.5615  1.2405 -0.0531
 4568TIP3    H235340   1.907   5.220   8.411 -0.3488 -0.2724  0.1107
 4569TIP3   OH235341   5.027   0.144   7.326 -0.0553 -0.1881 -0.5236
 4569TIP3    H135342   5.010   0.102   7.410 -0.3290 -0.6057 -0.7853
 4569TIP3    H235343   4.940   0.165   7.292  0.0635  2.7195  0.6449
 4570TIP3   OH235344   4.525   0.798   0.401 -0.0637  0.3310  0.5093
 4570TIP3    H135345   4.597   0.756   0.354  0.4579  1.5399  0.2025
 4570TIP3    H235346   4.523   0.888   0.368 -0.3995  0.9046  2.0064
 4571TIP3   OH235347   6.919   3.832   2.017  0.0685 -0.5505 -0.3727
 4571TIP3    H135348   6.837   3.838   2.066  1.2522  0.2525  1.6556
 4571TIP3    H235349   6.952   3.744   2.037 -0.2274 -0.8212 -1.0714
 4572TIP3   OH235350   4.016   4.606   2.877  0.5071  0.6413 -0.3435
 4572TIP3    H135351   3.973   4.524   2.852  1.2518  0.6167 -1.6338
 4572TIP3    H235352   3.944   4.668   2.891 -0.0518 -0.1768  0.4860
 4573TIP3   OH235353   3.208   4.597   0.670 -0.0738 -0.3592 -0.0888
 4573TIP3    H135354   3.239   4.677   0.711 -0.4816  0.1234 -0.6947
 4573TIP3    H235355   3.192   4.537   0.743  0.1199  0.1475  0.3797
 4574TIP3   OH235356   2.443   0.033   2.212 -0.2691 -0.9867  0.1301
 4574TIP3    H135357   2.394   0.090   2.271 -1.5436 -1.2183 -0.6704
 4574TIP3    H235358   2.481  -0.033   2.270  0.5023  0.1472  0.9605
 4575TIP3   OH235359   0.982   4.509   0.259  0.1898 -0.5660 -0.6478
 4575TIP3    H135360   1.070   4.524   0.294  1.3914 -0.0481 -3.5983
 4575TIP3    H235361   0.955   4.425   0.298  1.2642  0.0172  1.5313
 4576TIP3   OH235362   6.080   4.691   1.725  0.4488 -0.0630  0.2628
 4576TIP3    H135363   6.082   4.596   1.739 -0.2020 -0.7535 -3.4059
 4576TIP3    H235364   6.162   4.710   1.680 -0.9472  0.3743 -2.2933
 4577TIP3   OH235365   4.096   6.752   2.765  0.4338 -0.6739  0.1929
 4577TIP3    H135366   4.080   6.749   2.859 -1.4592 -0.8468 -0.1096
 4577TIP3    H235367   4.044   6.827   2.734 -0.6500 -1.8678 -0.9958
 4578TIP3   OH235368   1.394   5.071   2.458 -0.2775  0.0410  0.2171
 4578TIP3    H135369   1.361   5.151   2.498 -0.8763  0.0313 -0.2428
 4578TIP3    H235370   1.357   5.001   2.511  2.6395  0.0322  2.5308
 4579TIP3   OH235371   6.807   1.919   0.995  0.1094  0.3122 -0.4547
 4579TIP3    H135372   6.749   1.989   1.024  1.0982  1.6592 -1.5990
 4579TIP3    H235373   6.837   1.946   0.909 -1.1689 -2.6027 -1.9678
 4580TIP3   OH235374   3.690   4.818   7.547  0.5756  0.1243  0.1603
 4580TIP3    H135375   3.658   4.889   7.491 -0.6221  1.8468  2.8454
 4580TIP3    H235376   3.785   4.820   7.537  0.4258  0.5399 -1.5442
 4581TIP3   OH235377   3.982   0.025   2.401  0.0003 -0.0419  0.2377
 4581TIP3    H135378   3.944  -0.050   2.354 -1.1804  0.2494  0.6886
 4581TIP3    H235379   3.988  -0.005   2.492 -0.4226  0.3751  0.4098
 4582TIP3   OH235380   2.609   6.032   1.407  0.1131  0.2903 -0.1253
 4582TIP3    H135381   2.546   6.011   1.476  0.6782  0.2254  0.3778
 4582TIP3    H235382   2.693   6.006   1.443  0.3465 -0.4044 -1.1127
 4583TIP3   OH235383   2.392   1.866   7.978 -0.2573 -0.2361  0.2729
 4583TIP3    H135384   2.323   1.931   7.970 -0.7468 -0.8163 -0.2545
 4583TIP3    H235385   2.473   1.917   7.982 -0.7473  0.4955  1.7117
 4584TIP3   OH235386   0.087   4.485   6.872  0.2119 -0.6603  0.3715
 4584TIP3    H135387   0.167   4.537   6.866  0.1856 -0.7427 -1.0728
 4584TIP3    H235388   0.017   4.548   6.852 -0.0389 -0.7090  1.0879
 4585TIP3   OH235389   1.971   0.502   8.165  0.1524  0.4753  0.5207
 4585TIP3    H135390   2.037   0.570   8.176  1.2282 -0.1393 -1.7197
 4585TIP3    H235391   1.909   0.539   8.102  0.8819 -0.6693 -0.9139
 4586TIP3   OH235392   6.656   3.695   7.657  0.1181  0.4492  0.5196
 4586TIP3    H135393   6.596   3.709   7.584 -0.7627 -4.0543  0.1261
 4586TIP3    H235394   6.625   3.756   7.724 -1.7008  1.7681 -1.3720
 4587TIP3   OH235395   0.566   5.268   8.125  0.2557 -0.5633 -0.1670
 4587TIP3    H135396   0.640   5.324   8.150  0.2048 -0.2529 -0.7037
 4587TIP3    H235397   0.607   5.184   8.103  0.5200 -0.2116 -1.0556
 4588TIP3   OH235398   5.694   2.419   8.327  0.2885 -0.0210 -0.9591
 4588TIP3    H135399   5.695   2.340   8.380 -0.7107  0.7682  0.2793
 4588TIP3    H235400   5.636   2.479   8.373  1.8751  1.8553 -1.2575
 4589TIP3   OH235401   1.721   5.768   6.656 -0.6759  0.6612 -0.3104
 4589TIP3    H135402   1.630   5.775   6.686 -0.6519  0.2092 -0.1329
 4589TIP3    H235403   1.765   5.840   6.701 -0.8949  0.7289 -0.1990
 4590TIP3   OH235404   4.937   5.920   2.706  0.1832  0.1803  0.1927
 4590TIP3    H135405   4.999   5.973   2.757 -0.8365 -0.0278  1.7136
 4590TIP3    H235406   4.933   5.836   2.752 -2.4666  0.7460  1.2038
 4591TIP3   OH235407   2.772   3.137   1.006 -0.2250 -0.4071  0.4930
 4591TIP3    H135408   2.739   3.051   1.033 -1.4970 -0.1799 -0.2689
 4591TIP3    H235409   2.863   3.138   1.036 -0.0940 -2.1335  0.2412
 4592TIP3   OH235410   2.682   4.924   8.077  0.0012 -0.1244 -0.4695
 4592TIP3    H135411   2.600   4.925   8.127  1.4107 -0.3255  1.9995
 4592TIP3    H235412   2.746   4.967   8.134  1.7036 -0.1805 -2.2234
 4593TIP3   OH235413   4.956   4.646   7.653 -0.3952  0.3333 -0.2168
 4593TIP3    H135414   4.949   4.673   7.744 -0.8578 -0.9492  0.1432
 4593TIP3    H235415   5.040   4.601   7.647  0.4064  1.8222 -0.8320
 4594TIP3   OH235416   1.277   0.800   2.220  0.8465  0.2154  0.0894
 4594TIP3    H135417   1.283   0.743   2.297 -0.5285 -0.0842  0.0029
 4594TIP3    H235418   1.316   0.883   2.248 -0.9483  0.6081  1.6265
 4595TIP3   OH235419   2.235   3.202   1.693  0.0199  0.1100  0.5157
 4595TIP3    H135420   2.261   3.211   1.602  3.4380 -1.2055  1.2082
 4595TIP3    H235421   2.222   3.291   1.724 -0.8890  0.5878 -1.1261
 4596TIP3   OH235422   0.417   5.627   1.927  0.3121 -0.2690  0.4398
 4596TIP3    H135423   0.415   5.611   1.833  0.2939 -0.7374  0.5187
 4596TIP3    H235424   0.491   5.574   1.959 -0.4247 -1.0661  0.8597
 4597TIP3   OH235425   4.757   5.313   1.780  0.2216  0.2185  0.1411
 4597TIP3    H135426   4.671   5.304   1.821  0.9802 -0.6928  1.6531
 4597TIP3    H235427   4.804   5.374   1.838  0.9261 -0.1221 -0.0644
 4598TIP3   OH235428   6.683   0.051   2.292 -0.1748 -0.4469  0.0255
 4598TIP3    H135429   6.689   0.135   2.338  1.4305 -0.6957  0.3124
 4598TIP3    H235430   6.652  -0.011   2.358  0.0809 -0.3775  0.2120
 4599TIP3   OH235431   4.328   3.485   0.049  0.0056  0.5260 -0.1118
 4599TIP3    H135432   4.421   3.498   0.028  0.1042  1.2123  0.7339
 4599TIP3    H235433   4.285   3.565   0.018 -0.6644 -0.6145 -2.4096
 4600TIP3   OH235434   2.789   3.790   2.399 -0.2107 -0.8345 -0.3720
 4600TIP3    H135435   2.723   3.854   2.371  2.5605  1.9004 -1.3007
 4600TIP3    H235436   2.742   3.732   2.459 -3.2692  1.3039 -0.4193
 4601TIP3   OH235437   3.285   3.257   7.223  0.1018  0.1645  0.2159
 4601TIP3    H135438   3.285   3.220   7.311 -0.6319 -0.1398  0.0961
 4601TIP3    H235439   3.316   3.186   7.167  1.7434  0.7371  0.3658
 4602TIP3   OH235440   0.762   2.038   7.573 -0.3237  0.1365  0.4418
 4602TIP3    H135441   0.692   1.990   7.529 -0.3021 -0.2684  0.8408
 4602TIP3    H235442   0.793   2.101   7.508 -1.0520  0.3138  0.2611
 4603TIP3   OH235443   0.452   6.980   0.817 -0.2327  0.1567 -0.4641
 4603TIP3    H135444   0.382   6.916   0.826 -0.2704  0.4589  2.1118
 4603TIP3    H235445   0.512   6.941   0.754 -0.0539 -2.6469  1.2620
 4604TIP3   OH235446   0.494   0.527   8.077 -0.7278 -0.1277  0.6250
 4604TIP3    H135447   0.501   0.431   8.079 -0.1695 -0.0735  1.2981
 4604TIP3    H235448   0.513   0.550   7.986  2.9843 -0.3836  1.2157
 4605TIP3   OH235449   4.970   7.035   7.562 -0.3653  0.3057  0.0063
 4605TIP3    H135450   4.990   7.064   7.651 -0.3657  0.0868  0.0771
 4605TIP3    H235451   4.884   6.993   7.569  0.0713 -0.5737  0.0821
 4606TIP3   OH235452   6.826   2.833   0.855  0.0434  0.5734  0.4530
 4606TIP3    H135453   6.903   2.887   0.875  0.2114 -0.4574  2.9884
 4606TIP3    H235454   6.842   2.751   0.901 -1.9031 -0.2372 -0.2149
 4607TIP3   OH235455   2.514   4.704   2.841 -0.6297  0.4995 -0.1438
 4607TIP3    H135456   2.422   4.688   2.823 -0.7234 -1.2607  1.5522
 4607TIP3    H235457   2.517   4.725   2.934  0.7739 -0.5812  0.0924
 4608TIP3   OH235458   7.021   3.783   7.901  0.8425  0.3922 -0.3275
 4608TIP3    H135459   6.993   3.781   7.992 -2.4538 -1.0783 -1.1885
 4608TIP3    H235460   6.973   3.857   7.863  2.3434  1.1240 -0.8508
 4609TIP3   OH235461   6.769   6.930   1.757 -0.5180 -0.0885 -0.0744
 4609TIP3    H135462   6.840   6.985   1.789  1.2137 -0.4101 -3.0675
 4609TIP3    H235463   6.786   6.844   1.795 -2.1589  0.8204  3.0746
 4610TIP3   OH235464   6.229   5.999   6.668 -0.0394 -0.8818 -0.1938
 4610TIP3    H135465   6.144   6.033   6.697  0.3991 -1.2264  1.6152
 4610TIP3    H235466   6.286   6.076   6.666 -0.1943 -0.7762 -0.6512
 4611TIP3   OH235467   1.603   4.084   1.752  0.2827  0.4493 -0.0653
 4611TIP3    H135468   1.595   3.993   1.724 -2.0520  0.5609 -0.0023
 4611TIP3    H235469   1.651   4.127   1.682  1.8559 -0.8878  0.1349
 4612TIP3   OH235470   3.440   4.934   0.249  0.0684  0.1348 -0.1454
 4612TIP3    H135471   3.406   4.950   0.160  1.8411 -1.0736 -1.0845
 4612TIP3    H235472   3.380   4.870   0.286 -0.1596 -0.0666 -0.8365
 4613TIP3   OH235473   4.512   6.040   1.089  0.0069  0.5367  0.0394
 4613TIP3    H135474   4.446   6.029   1.158 -0.1459  1.0380 -0.0194
 4613TIP3    H235475   4.579   6.095   1.128  0.0462  0.6062 -0.1226
 4614TIP3   OH235476   0.730   4.395   3.092  0.1988 -0.0347  0.4426
 4614TIP3    H135477   0.774   4.468   3.047  1.8169  0.3205  2.4424
 4614TIP3    H235478   0.681   4.438   3.162 -1.8604 -0.6153 -0.5831
 4615TIP3   OH235479   0.765   1.134   2.760  0.0379 -0.3841 -0.4367
 4615TIP3    H135480   0.778   1.215   2.809 -2.4425 -0.0712 -0.1800
 4615TIP3    H235481   0.750   1.067   2.827  1.1889 -0.9318 -0.6840
 4616TIP3   OH235482   0.962   2.688   1.937  0.0212 -0.5931  0.0836
 4616TIP3    H135483   0.908   2.765   1.921  1.6615  0.5866  0.0351
 4616TIP3    H235484   0.955   2.636   1.857 -0.4342 -0.0931 -0.2028
 4617TIP3   OH235485   0.001   5.953   1.001 -0.0333 -0.5228 -0.5197
 4617TIP3    H135486   0.055   5.931   1.077 -0.0578  0.6474 -0.1371
 4617TIP3    H235487  -0.045   6.033   1.027 -0.0032 -0.0660 -1.7809
 4618TIP3   OH235488   1.926   2.842   1.874 -0.0273 -0.1514 -0.1144
 4618TIP3    H135489   1.831   2.850   1.873  0.0005  0.3505  0.6886
 4618TIP3    H235490   1.943   2.763   1.926  0.0229  0.3203  0.5914
 4619TIP3   OH235491   1.635   4.725   8.294  0.0483  0.4265 -0.2190
 4619TIP3    H135492   1.655   4.734   8.201  1.3373 -1.5856 -0.2078
 4619TIP3    H235493   1.559   4.667   8.297 -1.4892  2.3545 -0.0307
 4620TIP3   OH235494   1.095   2.986   1.689  0.1842 -0.4159 -0.1689
 4620TIP3    H135495   1.108   2.989   1.594 -2.5747  1.2806 -0.5962
 4620TIP3    H235496   1.003   2.962   1.700  0.7481 -1.8617  2.1661
 4621TIP3   OH235497   0.870   4.790   0.363  0.3168 -0.0265 -0.2709
 4621TIP3    H135498   0.899   4.866   0.414 -0.7426  0.5329 -0.4704
 4621TIP3    H235499   0.951   4.750   0.331  0.8896  1.1383 -0.3218
 4622TIP3   OH235500   5.300   6.534   7.074 -0.8027 -0.2948  0.3513
 4622TIP3    H135501   5.382   6.486   7.081 -0.8531 -0.5744 -0.7516
 4622TIP3    H235502   5.236   6.468   7.047 -1.3484 -0.0369  0.9892
 4623TIP3   OH235503   5.243   4.121   0.756 -0.5371  0.0171  0.2044
 4623TIP3    H135504   5.206   4.199   0.715 -0.4156 -0.0768 -0.0840
 4623TIP3    H235505   5.227   4.133   0.850  0.3154  0.8241  0.2547
 4624TIP3   OH235506   6.375   5.339   7.644 -0.0760 -0.0716 -0.0001
 4624TIP3    H135507   6.422   5.279   7.702 -1.1981 -0.0907  0.9250
 4624TIP3    H235508   6.287   5.302   7.638  0.1825 -0.4430 -2.2808
 4625TIP3   OH235509   2.896   5.372   2.480 -0.0808  0.2792  0.8836
 4625TIP3    H135510   2.876   5.307   2.547  1.6324 -0.0383  1.1480
 4625TIP3    H235511   2.982   5.345   2.447 -0.0732  1.5002 -0.1318
 4626TIP3   OH235512   5.108   2.986   2.510  0.5698  0.1846 -0.2578
 4626TIP3    H135513   5.044   2.958   2.576  0.1904  0.8032 -0.3576
 4626TIP3    H235514   5.170   3.040   2.558 -0.4317  1.7123 -0.6297
 4627TIP3   OH235515   3.166   6.972   1.138  0.2935 -0.3531  0.1636
 4627TIP3    H135516   3.112   6.927   1.073  0.9603 -0.2500 -0.4824
 4627TIP3    H235517   3.112   7.044   1.170  0.7458  1.0396 -2.0029
 4628TIP3   OH235518   5.276   0.563   2.712  0.0739 -0.4781  0.4563
 4628TIP3    H135519   5.260   0.559   2.806 -1.6556 -1.9730  0.1436
 4628TIP3    H235520   5.190   0.555   2.672  0.7955 -0.1235 -1.2867
 4629TIP3   OH235521   1.008   2.947   0.625 -0.3227  0.0558  0.2688
 4629TIP3    H135522   1.000   2.895   0.545 -1.4186  0.2208  0.2467
 4629TIP3    H235523   0.939   3.013   0.617  0.8158  1.3144  0.4633
 4630TIP3   OH235524   1.707   3.676   8.024 -0.0539  0.1207  0.1407
 4630TIP3    H135525   1.770   3.746   8.006  2.9059 -1.8378  1.9984
 4630TIP3    H235526   1.758   3.596   8.016 -2.3570 -1.6200  1.7704
 4631TIP3   OH235527   1.708   1.740   1.886  0.4327  0.3678  0.1306
 4631TIP3    H135528   1.724   1.827   1.849 -0.2691  0.3919 -0.1267
 4631TIP3    H235529   1.640   1.753   1.951 -0.0693 -0.0780 -0.2952
 4632TIP3   OH235530   5.566   1.498   3.402 -0.4615 -0.7174  0.0175
 4632TIP3    H135531   5.579   1.498   3.308 -1.3999 -1.3702 -0.1231
 4632TIP3    H235532   5.483   1.545   3.415 -1.2340 -2.1182  0.3602
 4633TIP3   OH235533   5.418   6.690   1.384  0.3075  0.6221 -0.3323
 4633TIP3    H135534   5.472   6.762   1.352  0.5903  0.7324  0.3693
 4633TIP3    H235535   5.335   6.731   1.407  0.2529  0.6153 -0.5132
 4634TIP3   OH235536   1.956   0.360   0.629 -0.2925  0.1597  0.0133
 4634TIP3    H135537   1.881   0.417   0.609 -0.3921  0.1078  0.2367
 4634TIP3    H235538   2.002   0.406   0.699  0.0018  0.2943 -0.2664
 4635TIP3   OH235539   2.094   2.120   0.775 -0.3879 -0.2323  0.3626
 4635TIP3    H135540   2.049   2.155   0.698  1.3550  0.6779 -0.2889
 4635TIP3    H235541   2.104   2.027   0.756 -0.0610 -0.0308 -0.4594
 4636TIP3   OH235542   6.326   1.782   2.452  0.0536 -0.0727 -0.3256
 4636TIP3    H135543   6.344   1.844   2.523 -1.8644  1.1936 -0.8775
 4636TIP3    H235544   6.307   1.837   2.377  0.9925 -1.3972 -1.5817
 4637TIP3   OH235545   5.428   3.451   1.286 -0.3406  0.5197  0.8650
 4637TIP3    H135546   5.498   3.386   1.287 -0.1253  0.7030  3.7516
 4637TIP3    H235547   5.348   3.400   1.267 -0.0342 -0.4218  2.0227
 4638TIP3   OH235548   3.119   3.016   0.008  0.3224  0.5402  0.0375
 4638TIP3    H135549   3.209   3.036   0.035  0.0081  1.0345  0.7616
 4638TIP3    H235550   3.075   2.988   0.089 -0.0602 -0.1521 -0.3936
 4639TIP3   OH235551   1.013   1.074   2.668  0.3952  0.2147 -0.1957
 4639TIP3    H135552   1.059   1.132   2.728 -1.7902 -0.3078  2.1523
 4639TIP3    H235553   0.922   1.077   2.697 -0.3594 -1.8505 -2.0832
 4640TIP3   OH235554   1.234   3.302   2.604  0.2804 -0.4513  0.3965
 4640TIP3    H135555   1.196   3.349   2.678  0.4658  0.4951 -0.0992
 4640TIP3    H235556   1.202   3.212   2.615 -3.2208  0.4820 -0.6516
 4641TIP3   OH235557   6.937   6.391   7.463 -0.0419  0.3406  1.0439
 4641TIP3    H135558   6.987   6.433   7.534 -1.8811  0.7198  2.1877
 4641TIP3    H235559   6.932   6.458   7.395  0.5815  0.4681  1.1165
 4642TIP3   OH235560   5.700   3.069   2.425 -1.1182  0.1014 -0.2400
 4642TIP3    H135561   5.715   3.009   2.498 -2.2692 -0.2969 -0.3005
 4642TIP3    H235562   5.622   3.034   2.381 -0.6671  0.5419 -1.4443
 4643TIP3   OH235563   3.978   3.522   0.344  0.2266  0.1091  0.4197
 4643TIP3    H135564   3.961   3.616   0.338  2.8845  0.5647 -1.3590
 4643TIP3    H235565   3.976   3.491   0.254  0.5805 -1.3121  0.8782
 4644TIP3   OH235566   6.749   3.206   1.448 -0.4004  0.1085 -0.5960
 4644TIP3    H135567   6.677   3.211   1.511 -0.2538  0.8775 -0.4888
 4644TIP3    H235568   6.739   3.284   1.393  1.1004  0.9222  0.2287
 4645TIP3   OH235569   5.946   4.687   2.520  0.7857 -0.0602 -0.0086
 4645TIP3    H135570   5.883   4.747   2.479  0.4314  0.2908  1.0393
 4645TIP3    H235571   6.030   4.711   2.481  0.5444  0.6655 -0.1022
 4646TIP3   OH235572   3.773   6.633   0.550  0.2306 -0.5146 -0.0098
 4646TIP3    H135573   3.848   6.685   0.581 -0.8859  1.2813 -0.1580
 4646TIP3    H235574   3.712   6.632   0.624 -0.5989  0.1085 -0.6585
 4647TIP3   OH235575   3.913   3.573   2.254 -0.0126  0.0189  0.4926
 4647TIP3    H135576   3.833   3.619   2.229  0.1651  0.1271  0.1197
 4647TIP3    H235577   3.977   3.599   2.188  0.4145  0.1825  0.9667
 4648TIP3   OH235578   3.003   1.827   0.791 -0.0418  0.2469  0.2995
 4648TIP3    H135579   3.022   1.813   0.884 -2.9936 -0.6680  0.8609
 4648TIP3    H235580   2.977   1.919   0.786  0.9121  0.5247  0.1817
 4649TIP3   OH235581   6.334   1.854   0.676 -0.1635  0.2274 -0.2781
 4649TIP3    H135582   6.350   1.760   0.681  0.8068  0.4337  1.3116
 4649TIP3    H235583   6.239   1.863   0.680 -0.2120 -0.6132  2.7123
 4650TIP3   OH235584   3.798   5.842   1.580  0.0492 -0.0824 -0.7711
 4650TIP3    H135585   3.875   5.892   1.554  0.3359 -0.7651 -1.2599
 4650TIP3    H235586   3.764   5.888   1.657 -0.2487  1.4102 -1.7636
 4651TIP3   OH235587   4.799   0.764   1.942  0.2119  0.1938  0.2393
 4651TIP3    H135588   4.720   0.812   1.920  1.3467  2.6218  1.0559
 4651TIP3    H235589   4.870   0.827   1.930  1.8165 -1.2529  1.5062
 4652TIP3   OH235590   4.320   0.018   7.190 -0.1407  0.7737  0.1431
 4652TIP3    H135591   4.387  -0.027   7.138 -1.9004 -2.0171  0.0919
 4652TIP3    H235592   4.239   0.006   7.141 -1.1719  1.6902  1.5453
 4653TIP3   OH235593   6.352   6.771   7.879 -0.6442 -0.1016 -0.1812
 4653TIP3    H135594   6.358   6.844   7.940  0.5440 -0.0240 -0.3628
 4653TIP3    H235595   6.427   6.782   7.821 -1.1003 -0.8251 -0.9301
 4654TIP3   OH235596   6.033   2.670   7.997  0.3251  0.2303 -0.1902
 4654TIP3    H135597   5.946   2.638   8.020 -0.0053  0.5077 -0.9985
 4654TIP3    H235598   6.066   2.711   8.077 -0.7967  1.2065 -0.1990
 4655TIP3   OH235599   0.792   0.603   0.023  0.2143 -0.0211  0.2949
 4655TIP3    H135600   0.728   0.660  -0.020 -0.7972 -1.2139  0.1810
 4655TIP3    H235601   0.850   0.576  -0.048 -0.6794 -0.9506 -0.1041
 4656TIP3   OH235602   1.641   1.901   1.034  0.5264  1.0009 -0.1755
 4656TIP3    H135603   1.664   1.974   0.977 -0.6281  2.2043  0.8318
 4656TIP3    H235604   1.629   1.941   1.120 -0.5029 -0.3070  0.3238
 4657TIP3   OH235605   6.454   3.050   0.212  0.4910  0.0104  0.0614
 4657TIP3    H135606   6.401   3.052   0.133  1.5870 -1.9871 -0.7902
 4657TIP3    H235607   6.501   3.133   0.212  0.0260  0.2926 -1.0450
 4658TIP3   OH235608   6.316   0.502   0.890 -0.2892 -0.5264  0.5259
 4658TIP3    H135609   6.323   0.411   0.920 -1.3621 -0.7669  0.0665
 4658TIP3    H235610   6.330   0.497   0.796  0.7956 -0.0543  0.6485
 4659TIP3   OH235611   1.165   3.724   2.676  0.4421  0.2662 -0.3734
 4659TIP3    H135612   1.106   3.775   2.621  1.0433 -0.8238 -2.0865
 4659TIP3    H235613   1.207   3.789   2.732  0.8691  1.6378 -2.1822
 4660TIP3   OH235614   3.217   3.407   0.259  0.3379  1.1444 -0.2856
 4660TIP3    H135615   3.267   3.335   0.297 -0.6892  0.8838  0.6399
 4660TIP3    H235616   3.283   3.471   0.233  1.3352 -0.4290 -1.8639
 4661TIP3   OH235617   6.298   4.147   0.430 -0.0872  0.1085  0.3077
 4661TIP3    H135618   6.308   4.052   0.426 -1.4199 -0.0112 -2.0850
 4661TIP3    H235619   6.204   4.161   0.434  0.0355  1.3354 -0.5734
 4662TIP3   OH235620   4.638   4.537   0.351 -0.2606  0.1484 -0.0171
 4662TIP3    H135621   4.664   4.565   0.439  1.1496 -0.6361 -0.1479
 4662TIP3    H235622   4.619   4.443   0.361 -1.3156  0.3271 -0.3045
 4663TIP3   OH235623   6.910   0.846   1.384  0.0115  0.2523  0.4258
 4663TIP3    H135624   6.992   0.825   1.430  0.4146  0.9794  0.0593
 4663TIP3    H235625   6.919   0.938   1.361 -0.0008 -0.1850 -1.4763
 4664TIP3   OH235626   1.776   1.981   2.022 -0.5635 -0.2679  0.0922
 4664TIP3    H135627   1.806   2.072   2.025  2.6073 -1.2061  1.0382
 4664TIP3    H235628   1.768   1.954   2.113 -0.0427 -1.3242 -0.1524
 4665TIP3   OH235629   3.830   5.088   2.027  1.0567 -0.1068 -0.5451
 4665TIP3    H135630   3.839   5.024   2.097  1.2958  0.4356 -0.0757
 4665TIP3    H235631   3.771   5.046   1.963 -0.7763  0.1442  0.8907
 4666TIP3   OH235632   6.239   3.863   0.433 -0.3790  0.1240  0.2588
 4666TIP3    H135633   6.172   3.882   0.497  0.8415  0.5055  1.4656
 4666TIP3    H235634   6.211   3.780   0.392 -2.6882  1.3679 -0.8794
 4667TIP3   OH235635   0.698   0.026   0.437 -0.4549 -0.0639 -0.2226
 4667TIP3    H135636   0.767   0.033   0.372 -1.0488  1.3485 -0.7557
 4667TIP3    H235637   0.735   0.064   0.517 -0.5454  0.5503 -0.4653
 4668TIP3   OH235638   0.165   3.155   7.988  0.1526 -0.1922  0.7901
 4668TIP3    H135639   0.182   3.101   8.064 -0.1236 -1.5929 -0.1054
 4668TIP3    H235640   0.117   3.098   7.928 -1.0041  1.3301  0.1798
 4669TIP3   OH235641   3.467   4.577   8.281  0.7961 -0.0253 -0.5496
 4669TIP3    H135642   3.485   4.656   8.333  1.9755  0.0017 -0.9700
 4669TIP3    H235643   3.440   4.512   8.346  2.5563 -0.0932  0.1813
 4670TIP3   OH235644   5.529   2.659   0.322 -0.4867  0.6950 -0.3669
 4670TIP3    H135645   5.494   2.569   0.322  2.4149 -0.5902  1.4092
 4670TIP3    H235646   5.585   2.662   0.245  1.9725 -0.3063  1.2280
 4671TIP3   OH235647   6.943   1.988   1.389  0.5018  0.2599  0.4417
 4671TIP3    H135648   7.019   1.982   1.448  0.2023 -0.9629  0.7330
 4671TIP3    H235649   6.942   1.903   1.344  2.0103  1.9014 -2.9713
 4672TIP3   OH235650   6.596   6.423   2.130  0.6576 -0.1484  0.0609
 4672TIP3    H135651   6.590   6.513   2.163 -0.2262 -0.1367 -0.1013
 4672TIP3    H235652   6.623   6.371   2.206 -0.2843  0.0401  0.5316
 4673TIP3   OH235653   2.374   5.084   2.059  0.1391 -0.8598  1.2270
 4673TIP3    H135654   2.338   5.034   1.985  2.2095 -1.0391  0.2725
 4673TIP3    H235655   2.408   5.018   2.119  0.4409 -0.6586  1.2769
 4674TIP3   OH235656   2.264   3.528   1.437  0.2972  0.0250 -0.9604
 4674TIP3    H135657   2.306   3.442   1.427 -0.1376 -0.2153 -0.7475
 4674TIP3    H235658   2.316   3.572   1.504 -0.3560 -0.6439  0.0127
 4675TIP3   OH235659   6.205   5.723   7.170 -0.2604 -0.1307  0.4902
 4675TIP3    H135660   6.189   5.792   7.106 -1.2287 -1.2999 -0.5817
 4675TIP3    H235661   6.257   5.658   7.122  0.0518 -0.4649  1.2641
 4676TIP3   OH235662   6.694   1.771   2.426 -0.9664 -0.5231  0.0366
 4676TIP3    H135663   6.713   1.860   2.397 -1.2597 -0.1956  0.8049
 4676TIP3    H235664   6.647   1.783   2.509  0.8521 -1.4063  1.2660
 4677TIP3   OH235665   5.539   0.745   2.871  0.0984 -0.0706 -0.1899
 4677TIP3    H135666   5.611   0.772   2.814 -1.0384 -0.5725 -1.9438
 4677TIP3    H235667   5.515   0.825   2.918  0.3137  0.6890 -1.3157
 4678TIP3   OH235668   0.339   2.469   1.740 -0.5217 -0.1255  0.0070
 4678TIP3    H135669   0.407   2.446   1.676  0.6011  0.5467  0.8993
 4678TIP3    H235670   0.345   2.400   1.806 -1.2693 -0.5007 -0.3166
 4679TIP3   OH235671   4.996   1.521   0.257  0.0702 -0.3406  0.1940
 4679TIP3    H135672   4.967   1.525   0.166  0.0442 -0.9133  0.1730
 4679TIP3    H235673   4.926   1.562   0.306  0.9078  1.6905 -0.2059
 4680TIP3   OH235674   0.517   6.329   1.905  0.0652 -0.1140 -0.3603
 4680TIP3    H135675   0.591   6.270   1.920 -0.9636 -1.6182 -0.8997
 4680TIP3    H235676   0.481   6.345   1.992  1.3668  1.1663 -0.0133
 4681TIP3   OH235677   1.040   3.193   8.090  0.0350  0.7205 -0.3583
 4681TIP3    H135678   0.958   3.221   8.050  0.6236  2.6595 -0.3521
 4681TIP3    H235679   1.103   3.192   8.017 -0.2753 -2.4323 -0.7109
 4682TIP3   OH235680   0.476   0.146   0.579  0.0269  0.5589 -0.0061
 4682TIP3    H135681   0.495   0.074   0.519  2.3597  1.5157 -0.5069
 4682TIP3    H235682   0.480   0.107   0.666  0.5586 -0.0718 -0.3096
 4683TIP3   OH235683   3.100   0.084   8.318  0.5184 -0.1247 -0.1671
 4683TIP3    H135684   3.044   0.110   8.244 -0.9992  0.6029  1.1786
 4683TIP3    H235685   3.039   0.048   8.382  1.2931  2.3522  2.1127
 4684TIP3   OH235686   1.545   5.461   0.398 -0.2825  0.0137 -0.1028
 4684TIP3    H135687   1.528   5.537   0.343 -0.8966 -0.7999 -1.0691
 4684TIP3    H235688   1.458   5.433   0.427 -0.1934 -1.0980 -0.8421
 4685TIP3   OH235689   1.332   4.338   3.338 -0.5554 -0.3867 -0.5819
 4685TIP3    H135690   1.400   4.308   3.278 -0.3585 -0.1637 -0.4737
 4685TIP3    H235691   1.336   4.433   3.334 -0.6961 -0.3710 -0.3895
 4686TIP3   OH235692   1.187   6.679   1.447 -0.2142 -0.3436  0.3233
 4686TIP3    H135693   1.265   6.681   1.503  0.7043 -3.2415 -0.7149
 4686TIP3    H235694   1.124   6.627   1.496  0.0615 -1.6126 -0.6224
 4687TIP3   OH235695   3.018   7.034   2.285  0.1016 -0.3166 -0.3642
 4687TIP3    H135696   2.924   7.045   2.270 -0.5452 -2.1169  1.8302
 4687TIP3    H235697   3.055   7.021   2.198 -2.1058 -2.2478 -1.1064
 4688TIP3   OH235698   3.020   3.215   2.596  0.7330  0.1194 -0.2376
 4688TIP3    H135699   3.061   3.177   2.674 -0.6218 -1.2359 -0.1531
 4688TIP3    H235700   3.004   3.306   2.620  1.2176 -0.0274  0.7008
 4689TIP3   OH235701   6.589   3.243   0.787  0.1784 -0.0292  0.0588
 4689TIP3    H135702   6.557   3.164   0.830 -0.7617  0.8331  1.0217
 4689TIP3    H235703   6.516   3.273   0.733  0.2657  0.5588  0.2556
 4690TIP3   OH235704   3.030   4.117   1.423 -0.3391  1.2287  0.0098
 4690TIP3    H135705   2.941   4.138   1.397 -0.6451  2.0439  1.5719
 4690TIP3    H235706   3.084   4.144   1.349 -1.3993  0.0317 -1.2819
 4691TIP3   OH235707   5.336   6.437   7.658 -0.4914  0.0760  0.4284
 4691TIP3    H135708   5.363   6.457   7.748  1.0938 -1.0468  0.2417
 4691TIP3    H235709   5.333   6.522   7.614 -0.1151  0.5225  1.2399
 4692TIP3   OH235710   5.275   6.038   1.147 -0.9613  0.2445 -0.1544
 4692TIP3    H135711   5.306   6.114   1.099 -1.4404  1.5285  1.4865
 4692TIP3    H235712   5.183   6.057   1.165 -0.9813 -0.5280  0.6327
 4693TIP3   OH235713   5.840   5.137   1.720 -0.2837  0.4538 -0.1799
 4693TIP3    H135714   5.792   5.056   1.737 -2.4068  1.7239  0.3476
 4693TIP3    H235715   5.844   5.180   1.806  0.3005  1.1468 -0.5504
 4694TIP3   OH235716   4.931   1.115   1.477 -0.0531  0.0038  0.0522
 4694TIP3    H135717   4.911   1.021   1.485  1.4210 -0.2749  0.7985
 4694TIP3    H235718   5.020   1.117   1.443 -0.7524  1.1819 -1.8307
 4695TIP3   OH235719   5.232   1.286   8.104  0.5253  0.0099 -0.3775
 4695TIP3    H135720   5.194   1.305   8.190 -0.1432  0.5836 -0.7831
 4695TIP3    H235721   5.215   1.193   8.091  0.4726 -0.0427  0.0382
 4696TIP3   OH235722   4.004   6.604   1.879  0.7675  0.0242 -0.2915
 4696TIP3    H135723   4.072   6.623   1.814 -0.2005  0.2127 -1.2829
 4696TIP3    H235724   3.958   6.687   1.889 -0.1848 -0.4498 -0.6756
 4697TIP3   OH235725   0.786   6.739   0.849 -0.4019  0.5292  0.1074
 4697TIP3    H135726   0.824   6.756   0.935  1.1734  1.9552 -0.7864
 4697TIP3    H235727   0.708   6.686   0.866  0.6377 -0.4426  2.2783
 4698TIP3   OH235728   4.848   1.561   0.755 -0.0786  0.3464  0.4916
 4698TIP3    H135729   4.928   1.612   0.766  0.8248 -0.3369 -2.0739
 4698TIP3    H235730   4.778   1.618   0.786  1.0914  2.3347 -0.3469
 4699TIP3   OH235731   6.615   3.793   7.041 -0.0003 -0.3422  0.1766
 4699TIP3    H135732   6.530   3.795   6.997  0.2593 -2.1358 -0.4962
 4699TIP3    H235733   6.598   3.751   7.125 -0.2354  1.7746  1.2305
 4700TIP3   OH235734   4.607   6.082   0.571 -0.0830 -0.0284  0.6129
 4700TIP3    H135735   4.526   6.034   0.587  0.2821 -1.5903 -1.6966
 4700TIP3    H235736   4.663   6.060   0.646 -0.2179 -2.6660  0.0351
 4701TIP3   OH235737   4.966   3.932   8.094 -0.0359 -0.0054 -0.3461
 4701TIP3    H135738   5.030   3.916   8.163  0.4376  1.8124 -0.3223
 4701TIP3    H235739   5.018   3.957   8.018 -0.6890  1.4199 -0.3509
 4702TIP3   OH235740   4.875   1.867   0.526 -0.3424  0.2215 -0.2226
 4702TIP3    H135741   4.970   1.863   0.512 -0.4713 -0.8101 -0.9086
 4702TIP3    H235742   4.844   1.778   0.506 -1.4577  0.5502 -0.0193
 4703TIP3   OH235743   4.435   1.095   0.574  0.3500  0.2803  0.6631
 4703TIP3    H135744   4.412   1.125   0.662 -0.5091 -0.6496  0.7845
 4703TIP3    H235745   4.515   1.044   0.586  0.8070  0.9960  0.7320
 4704TIP3   OH235746   5.109   6.829   7.365 -0.1620  0.1008  0.2545
 4704TIP3    H135747   5.078   6.912   7.402 -2.0208 -0.2737 -0.3223
 4704TIP3    H235748   5.138   6.851   7.277 -0.6380  0.1588  0.1078
 4705TIP3   OH235749   1.083   1.745   3.077  0.1244  0.1254 -0.4483
 4705TIP3    H135750   1.163   1.797   3.072  0.1368  0.3196  1.3230
 4705TIP3    H235751   1.013   1.809   3.088 -0.1438 -0.1135 -0.7504
 4706TIP3   OH235752   1.618   6.194   2.374 -0.1434  0.2644  0.0563
 4706TIP3    H135753   1.704   6.221   2.341 -0.2286 -0.1101 -0.4780
 4706TIP3    H235754   1.624   6.206   2.469  0.5701  0.0470  0.0443
 4707TIP3   OH235755   1.214   2.761   2.120 -0.5883 -0.1562 -0.2531
 4707TIP3    H135756   1.243   2.852   2.109 -0.0817 -0.2510  0.2349
 4707TIP3    H235757   1.167   2.741   2.039 -3.9972  1.7391  1.0466
 4708TIP3   OH235758   1.741   2.298   8.166 -0.3518  0.3113  0.4400
 4708TIP3    H135759   1.729   2.203   8.168  3.6698 -0.4451 -1.0478
 4708TIP3    H235760   1.733   2.321   8.074  2.9575  0.5053  0.0877
 4709TIP3   OH235761   3.366   4.771   1.720  0.3755  0.0184  0.1059
 4709TIP3    H135762   3.419   4.692   1.705 -0.5880 -0.5303 -0.5719
 4709TIP3    H235763   3.389   4.829   1.648 -0.7858 -0.7114 -0.9043
 4710TIP3   OH235764   2.988   1.516   0.730 -0.6145  0.4919  0.2200
 4710TIP3    H135765   2.956   1.459   0.799 -2.6190 -0.8980 -1.7079
 4710TIP3    H235766   2.950   1.602   0.749 -0.5921  0.3030  1.1655
 4711TIP3   OH235767   0.100   6.908   6.603 -0.2191  0.3140 -0.3029
 4711TIP3    H135768   0.041   6.848   6.557 -0.0533 -0.0810 -0.0181
 4711TIP3    H235769   0.170   6.851   6.634 -0.8959  0.3506  1.4177
 4712TIP3   OH235770   1.492   1.328   1.929 -0.0574 -0.2120  0.1404
 4712TIP3    H135771   1.478   1.422   1.916  1.8420  0.2698  1.2855
 4712TIP3    H235772   1.532   1.297   1.848  1.4502  0.4766  0.5920
 4713TIP3   OH235773   2.454   0.188   2.492  0.1747  0.7886 -0.6433
 4713TIP3    H135774   2.445   0.195   2.587  1.0400  3.6143 -0.6629
 4713TIP3    H235775   2.366   0.205   2.458 -0.0735  0.0665 -0.3852
 4714TIP3   OH235776   0.299   6.672   7.527 -0.3529 -0.3748 -0.0583
 4714TIP3    H135777   0.217   6.625   7.539  0.2555 -1.6657 -0.6751
 4714TIP3    H235778   0.365   6.603   7.522  0.9973  0.6871  1.8921
 4715TIP3   OH235779   2.201   3.348   7.461  0.2619 -0.6637 -0.3459
 4715TIP3    H135780   2.245   3.263   7.464  0.6416 -0.4816 -0.5543
 4715TIP3    H235781   2.108   3.328   7.470  0.3263 -1.1220 -0.6365
 4716TIP3   OH235782   1.451   1.265   1.229 -0.0725  0.1954  0.6481
 4716TIP3    H135783   1.531   1.229   1.190 -0.7378  0.3170 -0.8979
 4716TIP3    H235784   1.441   1.217   1.311  2.8734  1.8398  2.1377
 4717TIP3   OH235785   1.575   1.019   8.171  0.0755  0.3258  0.0604
 4717TIP3    H135786   1.517   0.962   8.121  0.7556 -1.1036  0.8577
 4717TIP3    H235787   1.518   1.060   8.237 -0.2442 -0.1599  0.0885
 4718TIP3   OH235788   6.753   5.978   0.812  0.4906  0.0920 -0.3133
 4718TIP3    H135789   6.754   5.909   0.879  0.2219  1.4474  1.1247
 4718TIP3    H235790   6.668   5.970   0.770  0.4979 -0.5151 -0.2209
 4719TIP3   OH235791   1.004   6.278   2.756  0.0681  0.1972  0.1886
 4719TIP3    H135792   0.976   6.212   2.818 -0.5348  1.0096  0.7967
 4719TIP3    H235793   1.097   6.259   2.741  0.5053  0.6089  2.1509
 4720TIP3   OH235794   1.057   1.199   0.287  0.1158  0.0930 -0.1912
 4720TIP3    H135795   1.086   1.260   0.219  0.1889  1.9292  1.4020
 4720TIP3    H235796   0.980   1.157   0.250  0.3916  0.7160 -1.5670
 4721TIP3   OH235797   5.191   4.327   0.596 -0.0923 -0.0617  0.9657
 4721TIP3    H135798   5.134   4.351   0.522 -0.5977 -1.0360  1.0158
 4721TIP3    H235799   5.276   4.309   0.556  0.3273  1.7673  0.9308
 4722TIP3   OH235800   6.406   1.964   1.659  0.5162  0.6786 -0.1076
 4722TIP3    H135801   6.384   1.997   1.746  0.8399 -0.9906  0.6567
 4722TIP3    H235802   6.446   1.878   1.676  2.2908  1.1003 -1.7813
 4723TIP3   OH235803   1.914   1.680   2.080  0.3423 -0.1348 -0.1536
 4723TIP3    H135804   1.836   1.625   2.073 -0.5909  1.1152  0.1388
 4723TIP3    H235805   1.886   1.766   2.051  1.8077  0.1841 -0.7036
 4724TIP3   OH235806   3.132   1.839   3.105  0.2912  0.5836  0.1775
 4724TIP3    H135807   3.128   1.760   3.160 -0.2556  0.6845  0.2841
 4724TIP3    H235808   3.048   1.882   3.119  0.0669  0.5096 -0.8917
 4725TIP3   OH235809   6.793   0.330   7.885 -0.0836  0.1732  0.6661
 4725TIP3    H135810   6.867   0.389   7.899 -0.5273  0.8880  0.0714
 4725TIP3    H235811   6.833   0.243   7.874  0.6041  0.4297  1.1048
 4726TIP3   OH235812   4.642   0.111   7.792 -0.2224 -0.0416 -0.3531
 4726TIP3    H135813   4.707   0.063   7.843 -1.7963  0.7639  2.6458
 4726TIP3    H235814   4.671   0.202   7.795 -0.3502  0.0219 -0.8996
 4727TIP3   OH235815   6.208   5.719   1.791  0.1548  0.4976  0.2295
 4727TIP3    H135816   6.253   5.791   1.835 -1.2784  1.2001  0.5938
 4727TIP3    H235817   6.133   5.700   1.846  0.4154 -1.2096  0.0681
 4728TIP3   OH235818   5.705   1.235   0.141 -0.3010  0.0685  0.8022
 4728TIP3    H135819   5.660   1.164   0.187 -1.3880 -0.3350 -0.7909
 4728TIP3    H235820   5.710   1.205   0.050  2.7920  0.3382  0.7968
 4729TIP3   OH235821   0.031   2.474   0.478  0.1766  0.0551 -0.5372
 4729TIP3    H135822   0.126   2.476   0.466  0.5015 -0.1212  1.6443
 4729TIP3    H235823   0.007   2.384   0.455  0.9564 -0.6764  1.2879
 4730TIP3   OH235824   5.393   0.337   0.799  0.4875 -0.0969  0.8135
 4730TIP3    H135825   5.309   0.296   0.818 -0.2376  1.5844  1.3845
 4730TIP3    H235826   5.429   0.285   0.727 -1.7222  0.0403 -0.4710
 4731TIP3   OH235827   3.344   4.851   0.699  0.0884 -0.3388 -0.5286
 4731TIP3    H135828   3.374   4.935   0.735  0.1282  0.1242 -1.5945
 4731TIP3    H235829   3.423   4.800   0.687 -0.0611 -1.0998  1.4527
 4732TIP3   OH235830   2.656   3.322   2.230 -0.3101 -1.0312 -0.0045
 4732TIP3    H135831   2.673   3.297   2.321 -1.5251  1.5927  1.0294
 4732TIP3    H235832   2.731   3.376   2.205 -0.6914 -0.5269 -0.0582
 4733TIP3   OH235833   6.390   6.500   0.985 -0.1897 -0.2209  0.5686
 4733TIP3    H135834   6.468   6.556   0.992 -0.6797  0.5527 -0.0403
 4733TIP3    H235835   6.361   6.490   1.076  0.9486 -1.0190  0.8718
 4734TIP3   OH235836   2.251   6.817   1.051  0.4297  0.0870  0.0294
 4734TIP3    H135837   2.261   6.895   0.996 -1.2299  0.3730  0.1011
 4734TIP3    H235838   2.216   6.850   1.134 -0.0386 -0.7104  0.1599
 4735TIP3   OH235839   5.340   1.827   7.921 -0.3598 -0.5375  0.1414
 4735TIP3    H135840   5.371   1.863   7.838  1.1093 -0.8248  0.5343
 4735TIP3    H235841   5.246   1.817   7.909 -0.5637  1.7020 -0.6116
 4736TIP3   OH235842   4.158   2.489   2.665  0.2757 -0.4518 -0.0794
 4736TIP3    H135843   4.131   2.507   2.756  2.3914 -1.8475  0.9157
 4736TIP3    H235844   4.095   2.536   2.612 -0.6870  0.9498  2.1348
 4737TIP3   OH235845   6.692   2.890   2.590  0.4276  0.3492  0.2333
 4737TIP3    H135846   6.617   2.947   2.606 -0.0686 -0.4923  1.0191
 4737TIP3    H235847   6.715   2.856   2.677  1.1972 -0.0420 -0.1129
 4738TIP3   OH235848   6.699   4.396   8.207 -0.5485 -0.0047  0.1439
 4738TIP3    H135849   6.781   4.372   8.251 -0.6515 -0.2658  0.1933
 4738TIP3    H235850   6.642   4.321   8.221 -0.3527 -0.3927 -1.0201
 4739TIP3   OH235851   6.972   4.916   1.570  0.2323  0.4219  0.1092
 4739TIP3    H135852   6.955   4.903   1.477  0.1055  0.4617  0.1265
 4739TIP3    H235853   6.886   4.925   1.609  0.3056  1.2160  0.1114
 4740TIP3   OH235854   4.706   1.556   1.620 -0.2764  0.1256 -0.2302
 4740TIP3    H135855   4.766   1.606   1.564  1.0415 -1.4818 -0.3438
 4740TIP3    H235856   4.710   1.600   1.704  0.3911  0.5688 -0.4814
 4741TIP3   OH235857   1.086   2.659   1.061 -0.2602 -0.3575  0.1704
 4741TIP3    H135858   1.081   2.572   1.021 -2.3081  0.0160 -0.5057
 4741TIP3    H235859   1.008   2.665   1.115  0.4304  0.6688  1.1071
 4742TIP3   OH235860   1.032   4.813   2.307  0.3112  0.4273 -0.0435
 4742TIP3    H135861   0.970   4.886   2.313 -1.5105 -1.0558 -0.1901
 4742TIP3    H235862   0.991   4.752   2.246  1.7495 -0.7875  0.1620
 4743TIP3   OH235863   6.119   6.113   1.662 -0.1775 -0.0981 -0.6313
 4743TIP3    H135864   6.209   6.107   1.630 -0.2870 -2.6693 -0.6334
 4743TIP3    H235865   6.128   6.143   1.753  0.8800 -2.2497  0.0224
 4744TIP3   OH235866   5.894   5.801   7.606  0.2100  0.0668  0.4572
 4744TIP3    H135867   5.964   5.743   7.576  3.1933  1.6739  3.6200
 4744TIP3    H235868   5.906   5.881   7.554  1.6630  0.7989  1.8475
 4745TIP3   OH235869   6.278   4.870   8.134 -0.0055 -0.2790  0.7144
 4745TIP3    H135870   6.290   4.947   8.191  0.5488 -0.6109  1.0587
 4745TIP3    H235871   6.184   4.868   8.115  0.1191  1.1065 -0.1874
 4746TIP3   OH235872   1.160   5.027   2.843  0.0188 -0.0156 -0.0778
 4746TIP3    H135873   1.147   5.039   2.937  1.0699 -0.5865  0.1473
 4746TIP3    H235874   1.243   5.070   2.824 -0.1733  0.0743 -0.7545
 4747TIP3   OH235875   2.472   4.527   1.944 -0.0040  0.1661  0.3439
 4747TIP3    H135876   2.442   4.491   2.028  0.2386  0.2393  0.4646
 4747TIP3    H235877   2.395   4.568   1.906 -0.0409  0.4173  0.6847
 4748TIP3   OH235878   6.876   5.154   7.999  0.6353 -0.0638  0.5212
 4748TIP3    H135879   6.797   5.201   8.027  0.4630  0.0011 -0.0567
 4748TIP3    H235880   6.910   5.207   7.927 -0.0493 -1.2694 -0.7381
 4749TIP3   OH235881   4.662   0.572   0.781 -0.0742  1.0759  0.2477
 4749TIP3    H135882   4.718   0.546   0.853  0.3585  1.3009  0.0014
 4749TIP3    H235883   4.708   0.542   0.702 -1.5816 -1.1559  0.1171
 4750TIP3   OH235884   6.144   0.145   2.514 -0.0169 -0.1783 -0.5329
 4750TIP3    H135885   6.234   0.174   2.498 -0.2236  1.1824  0.6141
 4750TIP3    H235886   6.153   0.056   2.548  0.8270 -0.3801 -1.2439
 4751TIP3   OH235887   6.334   4.342   1.331  0.0001 -0.6663 -0.0029
 4751TIP3    H135888   6.398   4.273   1.313 -1.1352 -1.5634 -0.7058
 4751TIP3    H235889   6.249   4.300   1.321 -0.7266  0.7496 -0.0759
 4752TIP3   OH235890   0.082   0.303   0.462  0.8007 -0.2394  0.1971
 4752TIP3    H135891   0.112   0.375   0.405  1.5428  0.2033  1.1235
 4752TIP3    H235892   0.128   0.317   0.544 -0.5129 -0.6852  1.0341
 4753TIP3   OH235893   0.753   3.877   3.043 -0.4067  0.3303  0.2723
 4753TIP3    H135894   0.781   3.962   3.009 -1.3895  0.7177  0.3939
 4753TIP3    H235895   0.816   3.857   3.111  0.1136  0.7387 -0.0808
 4754TIP3   OH235896   6.884   3.559   3.048  0.4752  0.1788 -0.0474
 4754TIP3    H135897   6.907   3.551   2.955 -0.1092  0.4147 -0.2166
 4754TIP3    H235898   6.952   3.509   3.094  0.5445 -0.2686 -0.6244
 4755TIP3   OH235899   0.583   0.570   1.240 -0.3994  1.2028  0.3017
 4755TIP3    H135900   0.514   0.621   1.282 -2.4332 -0.6817 -0.5394
 4755TIP3    H235901   0.540   0.531   1.164  1.8018  0.4396 -0.6276
 4756TIP3   OH235902   0.355   1.109   2.157 -0.7716 -0.0592  0.3722
 4756TIP3    H135903   0.366   1.036   2.096 -1.3795 -0.1944  0.4245
 4756TIP3    H235904   0.360   1.187   2.101  0.0877 -0.1184  0.3438
 4757TIP3   OH235905   7.036   6.098   0.042 -0.2847  0.8075 -0.0018
 4757TIP3    H135906   7.107   6.076   0.104 -0.7224  0.3304  0.3413
 4757TIP3    H235907   7.061   6.183   0.006  0.8624  0.3029 -0.4651
 4758TIP3   OH235908   0.849   2.247   2.162 -0.1265  0.1914  0.1669
 4758TIP3    H135909   0.846   2.151   2.164 -0.0721  0.0661 -2.3822
 4758TIP3    H235910   0.939   2.267   2.137  0.4465  1.0562  2.6115
 4759TIP3   OH235911   5.115   0.527   7.978  0.3387 -0.1342 -0.0137
 4759TIP3    H135912   5.143   0.618   7.991 -0.1502 -0.1675  1.4496
 4759TIP3    H235913   5.171   0.476   8.037  2.4631 -1.1604 -2.7352
 4760TIP3   OH235914   3.009   0.164   0.539  0.5908 -0.4339 -0.5402
 4760TIP3    H135915   3.096   0.182   0.504  0.7207 -0.8816 -0.4601
 4760TIP3    H235916   2.955   0.237   0.508  1.2893  0.5918  0.5875
 4761TIP3   OH235917   5.736   3.603   1.712  0.1306  0.2759 -0.2095
 4761TIP3    H135918   5.767   3.557   1.635  3.9032  0.7860  0.8410
 4761TIP3    H235919   5.773   3.691   1.705 -1.7941  1.2510  0.8760
 4762TIP3   OH235920   2.922   6.079   0.219  0.4353 -0.1578 -0.2860
 4762TIP3    H135921   2.853   6.074   0.285 -1.1952 -2.2434 -2.0010
 4762TIP3    H235922   2.883   6.041   0.140  3.2239 -0.4529 -1.6590
 4763TIP3   OH235923   1.433   0.572   0.434  0.1440 -0.1019  0.0723
 4763TIP3    H135924   1.452   0.573   0.528  1.5351 -0.2263 -0.1875
 4763TIP3    H235925   1.347   0.613   0.426 -0.9355 -1.9164  1.6029
 4764TIP3   OH235926   1.771   1.174   1.885  0.4357  0.2039  0.2871
 4764TIP3    H135927   1.707   1.113   1.923  0.6186  0.5143  1.1010
 4764TIP3    H235928   1.836   1.186   1.953  0.7771  0.7656 -0.1322
 4765TIP3   OH235929   6.534   4.321   7.357 -0.1511 -0.5163  0.6592
 4765TIP3    H135930   6.515   4.368   7.276 -0.0401  0.9030  1.4319
 4765TIP3    H235931   6.490   4.236   7.346  1.1937 -1.0342 -1.5418
 4766TIP3   OH235932   5.088   2.448   2.114  0.3915  0.8331  0.3633
 4766TIP3    H135933   5.025   2.413   2.176 -0.1338 -0.3831 -0.8140
 4766TIP3    H235934   5.161   2.387   2.116  1.6481  2.2787  1.7865
 4767TIP3   OH235935   1.464   1.359   8.116  0.1056  0.4627  0.3540
 4767TIP3    H135936   1.411   1.294   8.069 -1.1225  0.7626  1.2789
 4767TIP3    H235937   1.401   1.424   8.146  0.8223  0.2591  2.4629
 4768TIP3   OH235938   0.716   5.658   0.206  0.2861 -0.0625 -0.5173
 4768TIP3    H135939   0.736   5.747   0.236  1.5984 -0.4835 -0.0754
 4768TIP3    H235940   0.733   5.660   0.112  3.3804 -0.5771 -0.0841
 4769TIP3   OH235941   2.693   5.402   1.318 -0.4377  0.1138  0.9761
 4769TIP3    H135942   2.608   5.428   1.352 -1.1303 -2.1642  1.1541
 4769TIP3    H235943   2.734   5.484   1.290 -2.6026  1.2854  1.0317
 4770TIP3   OH235944   3.418   0.067   8.182  0.9180  0.0767 -0.7956
 4770TIP3    H135945   3.355   0.091   8.113 -2.4322 -0.7401  1.7417
 4770TIP3    H235946   3.444  -0.023   8.160  2.4910  0.8950 -2.6351
 4771TIP3   OH235947   6.215   5.612   7.794 -0.5110  0.1666 -0.1242
 4771TIP3    H135948   6.150   5.574   7.734 -0.4816  1.3298 -0.9126
 4771TIP3    H235949   6.169   5.619   7.877 -0.8499 -0.5889 -0.2339
 4772TIP3   OH235950   6.284   2.325   2.374 -0.7504 -0.0393 -0.2492
 4772TIP3    H135951   6.261   2.415   2.398 -1.4719 -0.3106  0.1310
 4772TIP3    H235952   6.205   2.275   2.395 -0.4632 -0.7084 -0.7588
 4773TIP3   OH235953   2.190   4.602   0.749  0.1576  0.2225 -0.1776
 4773TIP3    H135954   2.156   4.623   0.836  0.8811 -0.5249  0.3050
 4773TIP3    H235955   2.124   4.635   0.688  0.1060  1.6528  0.6094
 4774TIP3   OH235956   0.928   6.116   1.149  0.0644  0.9239  0.4124
 4774TIP3    H135957   0.963   6.196   1.109  1.2050  0.9264  1.3551
 4774TIP3    H235958   0.847   6.143   1.191  0.9289  1.8475  1.5706
 4775TIP3   OH235959   6.066   6.142   1.962  0.3287 -0.3051 -0.5618
 4775TIP3    H135960   6.141   6.188   2.000 -0.0237 -0.7139  0.6662
 4775TIP3    H235961   6.009   6.211   1.930 -0.0678  0.1493  1.0217
 4776TIP3   OH235962   1.816   5.406   1.973 -0.2907  0.6380 -0.4297
 4776TIP3    H135963   1.773   5.330   1.933  0.0606  0.7592 -1.0569
 4776TIP3    H235964   1.749   5.444   2.030 -0.1716 -0.6778  0.6316
 4777TIP3   OH235965   4.032   1.499   0.180  0.4250 -0.7711 -0.1603
 4777TIP3    H135966   3.946   1.474   0.146  0.5301 -2.5918  0.7688
 4777TIP3    H235967   4.016   1.525   0.271  0.9421 -2.1812  0.3750
 4778TIP3   OH235968   3.421   2.611   0.700  0.3131 -0.1694  0.0618
 4778TIP3    H135969   3.412   2.697   0.659 -0.1102 -0.3341 -0.1956
 4778TIP3    H235970   3.432   2.630   0.793 -0.6288  0.1304  0.1184
 4779TIP3   OH235971   1.241   4.180   2.527 -0.0378 -0.2011 -0.6085
 4779TIP3    H135972   1.279   4.241   2.589 -1.7001 -0.6164  0.9117
 4779TIP3    H235973   1.168   4.139   2.575 -0.6412 -1.4163 -2.4415
 4780TIP3   OH235974   4.991   3.163   1.580  0.1599  0.3999 -0.3191
 4780TIP3    H135975   4.908   3.134   1.618  0.2795  0.8465  0.3001
 4780TIP3    H235976   4.993   3.258   1.597  1.8867  0.0638  1.8600
 4781TIP3   OH235977   0.225   5.308   1.639 -0.1513 -0.2448  0.1386
 4781TIP3    H135978   0.286   5.236   1.655  0.1293  0.1083  0.6448
 4781TIP3    H235979   0.177   5.280   1.561 -0.3003 -1.1533  0.5382
 4782TIP3   OH235980   5.847   0.780   2.747 -0.1072 -0.5746  0.8314
 4782TIP3    H135981   5.922   0.836   2.771 -0.3837  1.0494 -1.7095
 4782TIP3    H235982   5.886   0.707   2.699 -0.0847  0.1493 -0.2874
 4783TIP3   OH235983   4.551   5.519   6.879  0.0010  0.5553  0.0057
 4783TIP3    H135984   4.570   5.435   6.838 -0.4267 -0.2772  1.4486
 4783TIP3    H235985   4.637   5.554   6.902  0.1093 -0.7209  1.7218
 4784TIP3   OH235986   0.599   2.964   2.478 -0.5056  0.4120 -0.4779
 4784TIP3    H135987   0.568   2.991   2.392  0.5908 -0.7313 -1.2709
 4784TIP3    H235988   0.577   3.038   2.536 -1.0312  1.3046 -1.7711
 4785TIP3   OH235989   4.540   2.346   7.190  0.0454  0.2261  0.0353
 4785TIP3    H135990   4.488   2.425   7.178  0.5563  0.5538 -0.0410
 4785TIP3    H235991   4.629   2.373   7.169 -0.1267 -1.0059 -2.6318
 4786TIP3   OH235992   6.135   4.053   7.633 -0.8809  0.1866 -0.1638
 4786TIP3    H135993   6.042   4.050   7.613 -1.0833 -0.9696  0.8356
 4786TIP3    H235994   6.158   3.963   7.657  0.1394  0.7448  1.0941
 4787TIP3   OH235995   6.965   4.000   7.257 -0.2637  0.4946 -0.6309
 4787TIP3    H135996   7.036   3.937   7.269 -0.1707  0.3492 -1.8269
 4787TIP3    H235997   6.924   3.975   7.174 -0.0469  2.1696 -1.2743
 4788TIP3   OH235998   5.998   4.510   7.932  0.1224  0.2257 -0.3015
 4788TIP3    H135999   5.962   4.491   8.018  0.5281 -0.5785 -0.3068
 4788TIP3    H236000   5.969   4.438   7.876  1.0304 -0.0100 -0.4948
 4789TIP3   OH236001   5.896   3.997   3.183  0.2477  0.0339  0.1029
 4789TIP3    H136002   5.879   3.903   3.170 -0.5401  0.2147 -0.2339
 4789TIP3    H236003   5.835   4.023   3.251  2.5610 -0.3264  2.4740
 4790TIP3   OH236004   5.201   6.708   8.128 -0.1042  0.4418 -0.3895
 4790TIP3    H136005   5.284   6.750   8.106 -0.5911  1.3070 -0.6560
 4790TIP3    H236006   5.179   6.744   8.214  1.9898 -3.2178  1.9458
 4791TIP3   OH236007   0.053   6.501   1.403 -0.2072 -0.4358 -0.0199
 4791TIP3    H136008   0.060   6.413   1.440  0.0059 -0.0941  0.7858
 4791TIP3    H236009   0.144   6.526   1.385  0.1778  1.0411  3.2646
 4792TIP3   OH236010   3.242   0.791   2.103  0.3108 -0.5958 -0.1948
 4792TIP3    H136011   3.182   0.762   2.034 -0.7413  0.0050  0.4524
 4792TIP3    H236012   3.187   0.808   2.178  1.2745  0.1247  0.3782
 4793TIP3   OH236013   1.554   2.206   2.083 -0.4938 -1.1315  0.4773
 4793TIP3    H136014   1.513   2.140   2.138 -0.1950 -2.3839 -0.7669
 4793TIP3    H236015   1.583   2.159   2.005  1.0523  0.1793  0.1974
 4794TIP3   OH236016   3.995   0.622   1.510 -0.6746 -0.4637 -0.2157
 4794TIP3    H136017   3.981   0.703   1.559 -2.2480 -0.5498 -0.4780
 4794TIP3    H236018   3.966   0.642   1.421  0.0500 -0.9786 -0.5833
 4795TIP3   OH236019   4.829   6.160   2.605 -0.9255 -0.0563 -0.8867
 4795TIP3    H136020   4.847   6.072   2.640 -1.4184  0.3739  0.5358
 4795TIP3    H236021   4.734   6.169   2.611 -0.7824  0.9849  0.0664
 4796TIP3   OH236022   3.047   4.792   1.215 -0.0992 -0.1141 -0.4434
 4796TIP3    H136023   2.964   4.763   1.176 -1.0550  0.0840  1.3050
 4796TIP3    H236024   3.091   4.841   1.146 -2.1497  1.0739 -0.9818
 4797TIP3   OH236025   0.467   4.232   1.986 -0.3144 -0.3163 -0.0606
 4797TIP3    H136026   0.536   4.254   2.049 -1.5319 -0.7991  1.4976
 4797TIP3    H236027   0.452   4.139   1.999 -0.6210 -0.4048 -1.0333
 4798TIP3   OH236028   2.150   1.037   8.311 -0.0250  0.1054  0.5908
 4798TIP3    H136029   2.096   1.070   8.383 -1.4689  0.0726 -0.4362
 4798TIP3    H236030   2.136   0.942   8.313 -1.2055  0.2241 -0.5654
 4799TIP3   OH236031   1.347   2.862   8.090 -0.3434  0.5431 -0.2989
 4799TIP3    H136032   1.383   2.877   8.177 -0.3305 -1.2627  0.0357
 4799TIP3    H236033   1.420   2.827   8.039  0.1915  3.3269 -1.6497
 4800TIP3   OH236034   5.380   1.693   0.853 -0.2002 -0.2265 -0.3939
 4800TIP3    H136035   5.463   1.646   0.848  0.0505  0.2462 -0.6936
 4800TIP3    H236036   5.389   1.749   0.930 -0.7974 -1.2250  0.4292
 4801TIP3   OH236037   6.323   0.628   2.085 -0.1393  0.4092 -0.2434
 4801TIP3    H136038   6.238   0.584   2.080  0.2337 -0.4802  0.8711
 4801TIP3    H236039   6.377   0.570   2.139  0.7801  1.6041  0.1616
 4802TIP3   OH236040   0.779   2.381   0.217  0.3743 -0.4537 -0.4877
 4802TIP3    H136041   0.811   2.293   0.196  0.4520 -0.0136 -2.3681
 4802TIP3    H236042   0.753   2.418   0.133 -2.1506  0.3809  0.5513
 4803TIP3   OH236043   1.806   4.324   1.899  0.0278  0.0958  0.3352
 4803TIP3    H136044   1.821   4.275   1.819  1.5327 -0.0892  0.7093
 4803TIP3    H236045   1.765   4.406   1.870  1.2102  0.3384 -0.7079
 4804TIP3   OH236046   3.564   4.571   0.655 -0.2889 -0.3255  0.3243
 4804TIP3    H136047   3.491   4.514   0.629 -0.8104  0.8904 -1.0288
 4804TIP3    H236048   3.573   4.557   0.749 -2.4989 -0.2768  0.5968
 4805TIP3   OH236049   3.055   6.204   2.369  0.0555 -0.2069 -0.3484
 4805TIP3    H136050   3.109   6.170   2.297  1.0332  0.5508  0.0132
 4805TIP3    H236051   3.026   6.290   2.338  1.1115  0.4613  0.4422
 4806TIP3   OH236052   2.786   5.107   3.152 -0.5171 -0.3165 -0.3121
 4806TIP3    H136053   2.869   5.132   3.193 -0.2696  1.2215 -1.6197
 4806TIP3    H236054   2.798   5.016   3.127  0.7938 -0.1174 -0.4907
 4807TIP3   OH236055   3.487   1.301   1.395 -0.4860  0.0683  0.7185
 4807TIP3    H136056   3.579   1.295   1.423 -0.3814 -0.2113  0.3243
 4807TIP3    H236057   3.486   1.261   1.308 -0.8343  0.7973  0.3830
 4808TIP3   OH236058   3.408   3.608   0.299 -0.0793  0.4666  0.0101
 4808TIP3    H136059   3.394   3.688   0.349 -0.0823 -0.5148  1.6718
 4808TIP3    H236060   3.484   3.627   0.244  0.5805  1.2894  1.1561
 4809TIP3   OH236061   1.895   0.521   2.995  0.1299 -0.1559  0.2229
 4809TIP3    H136062   1.887   0.483   2.908 -1.9633 -0.6434  0.5609
 4809TIP3    H236063   1.964   0.470   3.037 -0.9347 -2.0295 -0.1647
 4810TIP3   OH236064   1.437   0.827   8.030  0.1392  0.1258 -0.4112
 4810TIP3    H136065   1.488   0.747   8.011 -0.9192 -0.5174 -0.6230
 4810TIP3    H236066   1.388   0.806   8.109  0.1462  0.7120 -0.2501
 4811TIP3   OH236067   4.514   1.125   2.662  0.4846 -0.8615  0.2248
 4811TIP3    H136068   4.565   1.201   2.689  1.3196 -1.7992  1.3735
 4811TIP3    H236069   4.474   1.152   2.579  1.4987  0.4891  0.1347
 4812TIP3   OH236070   2.010   6.756   7.527 -0.6519  0.2484  0.0694
 4812TIP3    H136071   1.999   6.851   7.540 -1.2898  0.2897 -0.6827
 4812TIP3    H236072   2.096   6.747   7.487 -0.0447  0.3904  1.2887
 4813TIP3   OH236073   4.237   0.297   7.908 -0.1346 -0.5271 -0.0550
 4813TIP3    H136074   4.204   0.330   7.824  0.3046  0.8141  0.2766
 4813TIP3    H236075   4.329   0.322   7.908 -0.2295 -0.1553  0.9893
 4814TIP3   OH236076   6.224   3.110   2.208 -0.1437  0.0300 -0.2581
 4814TIP3    H136077   6.296   3.050   2.189 -0.3140  0.2257 -1.6252
 4814TIP3    H236078   6.241   3.185   2.151 -2.6295 -0.8775 -2.3704
 4815TIP3   OH236079   2.838   5.588   2.346  0.8610 -0.3162 -0.1938
 4815TIP3    H136080   2.897   5.660   2.370  1.1674 -0.6713  0.1288
 4815TIP3    H236081   2.857   5.520   2.410  0.4144 -0.6013 -0.3678
 4816TIP3   OH236082   2.513   4.357   2.778  0.1780 -0.1762 -0.0084
 4816TIP3    H136083   2.436   4.307   2.755 -0.8881  1.1635  0.4889
 4816TIP3    H236084   2.535   4.328   2.867  2.1654 -2.7765 -1.2205
 4817TIP3   OH236085   1.359   1.164   8.375 -0.0936 -0.2391  0.1529
 4817TIP3    H136086   1.296   1.219   8.421 -1.1374 -2.0103  0.9509
 4817TIP3    H236087   1.308   1.122   8.306  1.1949  1.5009 -1.9957
 4818TIP3   OH236088   1.868   3.983   0.100  0.0404  0.4304  0.3759
 4818TIP3    H136089   1.816   4.024   0.031  0.1651 -0.1428 -0.0749
 4818TIP3    H236090   1.903   4.056   0.151  1.9197  1.0149 -1.6195
 4819TIP3   OH236091   2.960   2.983   2.350  0.1901 -0.1988 -0.4492
 4819TIP3    H136092   2.898   2.978   2.422  0.5831 -0.9762 -0.1538
 4819TIP3    H236093   3.046   2.978   2.391  0.4295 -0.0202 -0.9205
 4820TIP3   OH236094   0.319   0.329   7.937  0.7107  0.0479  0.2796
 4820TIP3    H136095   0.247   0.282   7.895  0.8647 -0.4522  0.5657
 4820TIP3    H236096   0.340   0.277   8.014  2.5810 -0.7958 -0.7376
 4821TIP3   OH236097   4.601   5.651   0.701 -0.0213 -0.3411 -0.3844
 4821TIP3    H136098   4.550   5.571   0.687  0.1974 -0.4514 -0.5441
 4821TIP3    H236099   4.646   5.637   0.784 -1.9880  0.6585  0.9272
 4822TIP3   OH236100   1.658   4.585   2.741 -0.3855  0.0798 -0.5016
 4822TIP3    H136101   1.686   4.622   2.824 -2.5083 -0.8836  0.7548
 4822TIP3    H236102   1.739   4.564   2.695  0.8539  1.9147  0.6925
 4823TIP3   OH236103   2.560   2.999   0.839 -0.1788 -0.5762 -0.0886
 4823TIP3    H136104   2.534   3.062   0.773 -1.6710  0.4231  1.3917
 4823TIP3    H236105   2.654   3.014   0.851 -0.2647  0.4933 -0.6564
 4824TIP3   OH236106   5.583   3.573   7.637  0.1349  0.3109 -0.2124
 4824TIP3    H136107   5.570   3.668   7.640  0.4756  0.3353  1.2053
 4824TIP3    H236108   5.547   3.547   7.552  0.2262  1.7279 -0.7217
 4825TIP3   OH236109   1.790   0.223   2.970  0.0593 -0.0522  0.2020
 4825TIP3    H136110   1.844   0.199   3.046 -0.1857 -3.1875 -0.4639
 4825TIP3    H236111   1.853   0.255   2.905  0.6559 -0.1875  0.6979
 4826TIP3   OH236112   3.800   1.795   1.373  0.7238 -0.2962  0.5752
 4826TIP3    H136113   3.772   1.707   1.346  3.0835 -1.6206  2.1311
 4826TIP3    H236114   3.891   1.801   1.346 -0.1148  2.9735 -2.2935
 4827TIP3   OH236115   5.161   1.392   1.796 -0.1778  0.6563  0.0675
 4827TIP3    H136116   5.243   1.404   1.844 -0.7272  0.5595  1.0599
 4827TIP3    H236117   5.140   1.479   1.763 -0.6011  1.0698  1.3654
 4828TIP3   OH236118   3.282   5.973   0.066  1.2390 -0.3238 -0.5460
 4828TIP3    H136119   3.242   5.889   0.046  0.3660  0.2139 -1.1349
 4828TIP3    H236120   3.318   6.004  -0.017  0.1121  0.6079 -0.7239
 4829TIP3   OH236121   3.256   4.517   2.978 -0.2821 -0.0523 -0.4169
 4829TIP3    H136122   3.232   4.550   3.064  1.7072  2.3240 -0.6477
 4829TIP3    H236123   3.243   4.592   2.920  0.6290 -0.8895 -1.7601
 4830TIP3   OH236124   2.872   0.505   7.863 -0.7739 -0.2001  0.0949
 4830TIP3    H136125   2.847   0.414   7.847 -0.4509 -0.1557 -0.6907
 4830TIP3    H236126   2.931   0.527   7.791  0.6766  0.0501  1.3245
 4831TIP3   OH236127   2.310   4.541   2.717 -0.8905  0.4795 -0.3755
 4831TIP3    H136128   2.271   4.474   2.774 -0.6691  0.4512 -0.2552
 4831TIP3    H236129   2.402   4.515   2.709 -0.5491  1.3341  0.5277
 4832TIP3   OH236130   4.411   1.027   7.301 -0.0254 -0.0576  0.0623
 4832TIP3    H136131   4.451   1.114   7.299  0.5674 -0.2939  0.8053
 4832TIP3    H236132   4.317   1.044   7.301  0.0583  0.6659  1.6212
 4833TIP3   OH236133   4.533   3.067   1.212 -0.5236  0.0211  0.2237
 4833TIP3    H136134   4.468   2.998   1.195  2.2524 -3.1259  1.3605
 4833TIP3    H236135   4.550   3.105   1.126 -2.0856 -0.7122 -0.4665
 4834TIP3   OH236136   2.147   1.554   6.705  0.0134 -0.0408 -0.5231
 4834TIP3    H136137   2.089   1.570   6.780 -0.7964  0.4122 -1.2288
 4834TIP3    H236138   2.220   1.614   6.718  0.2611 -0.5100  0.3015
 4835TIP3   OH236139   5.552   0.364   6.985 -0.2596  0.2995 -0.3874
 4835TIP3    H136140   5.539   0.375   6.891  0.9637 -1.7981 -0.8528
 4835TIP3    H236141   5.647   0.362   6.996 -0.3669 -1.4304  0.5908
 4836TIP3   OH236142   1.661   4.108   0.332 -0.0858 -0.0272 -0.7376
 4836TIP3    H136143   1.577   4.135   0.368  0.0775  1.5270 -1.4456
 4836TIP3    H236144   1.710   4.076   0.408 -0.8923  0.1171 -0.1407
 4837TIP3   OH236145   5.684   1.980   0.514 -0.4925 -0.0819  0.9843
 4837TIP3    H136146   5.767   2.025   0.497 -0.5809  0.3631  1.7046
 4837TIP3    H236147   5.664   1.935   0.432 -0.3369  1.0864  0.2952
 4838TIP3   OH236148   0.436   0.719   0.121 -0.5239  0.4442 -0.5185
 4838TIP3    H136149   0.384   0.646   0.086  0.6665 -0.0735 -1.2871
 4838TIP3    H236150   0.449   0.777   0.046  0.7879  0.0824 -0.6056
 4839TIP3   OH236151   1.284   3.089   2.968  0.4002  0.3491  0.5726
 4839TIP3    H136152   1.354   3.139   3.009  1.6252 -1.4128  0.7550
 4839TIP3    H236153   1.272   3.013   3.026  1.3606 -1.5980 -1.6004
 4840TIP3   OH236154   5.397   3.089   7.714  0.0859  0.4523  0.9864
 4840TIP3    H136155   5.331   3.158   7.712 -1.2050 -0.7279  0.2356
 4840TIP3    H236156   5.346   3.008   7.726  1.0319 -0.8189 -2.3811
 4841TIP3   OH236157   5.935   0.324   8.375  0.2686 -0.2715 -0.1125
 4841TIP3    H136158   5.862   0.331   8.436 -0.0945 -2.4034 -0.2161
 4841TIP3    H236159   6.002   0.275   8.423  1.2691  0.8126 -0.3516
 4842TIP3   OH236160   2.024   3.701   7.881 -0.8546  0.6494 -0.2529
 4842TIP3    H136161   1.994   3.621   7.926  0.9241  0.6091  0.9361
 4842TIP3    H236162   1.998   3.772   7.940 -1.9621  0.9328 -1.0588
 4843TIP3   OH236163   6.574   3.287   0.142  0.1497 -0.2310 -0.3762
 4843TIP3    H136164   6.592   3.299   0.049  0.3305 -1.3397 -0.4983
 4843TIP3    H236165   6.651   3.323   0.186 -0.3324  1.1356 -0.5903
 4844TIP3   OH236166   5.265   0.141   1.524 -0.0617  0.6860  0.0627
 4844TIP3    H136167   5.328   0.207   1.497  1.6755 -1.4621 -1.5513
 4844TIP3    H236168   5.305   0.096   1.598  0.5042 -0.8488 -1.1202
 4845TIP3   OH236169   5.310   4.595   0.677 -0.1590 -0.3617  0.0100
 4845TIP3    H136170   5.315   4.614   0.583  0.8559  0.2804  0.1787
 4845TIP3    H236171   5.259   4.514   0.682 -3.0454  1.2510 -0.8742
 4846TIP3   OH236172   0.876   5.777   1.474 -0.3233  0.3316  0.1093
 4846TIP3    H136173   0.815   5.741   1.409 -1.5894  2.8519 -0.2459
 4846TIP3    H236174   0.934   5.833   1.422  0.5081  0.1253  0.8117
 4847TIP3   OH236175   3.335   3.613   8.381 -0.1189 -0.1894 -0.4331
 4847TIP3    H136176   3.427   3.619   8.355 -0.4195 -0.4630 -1.6106
 4847TIP3    H236177   3.313   3.702   8.409  0.3086  0.0480 -0.8324
 4848TIP3   OH236178   4.609   3.599   0.297 -0.0600  0.1053 -0.1445
 4848TIP3    H136179   4.530   3.628   0.343  0.8203 -0.4984  1.8403
 4848TIP3    H236180   4.603   3.503   0.299  0.1231  0.0700 -1.0979
 4849TIP3   OH236181   1.136   3.225   1.485 -0.1328 -0.1391  0.3469
 4849TIP3    H136182   1.203   3.233   1.552 -1.6957  0.4631  1.9094
 4849TIP3    H236183   1.076   3.297   1.502 -2.0234 -1.5578  0.0196
 4850TIP3   OH236184   4.863   4.946   6.885  0.1462  0.6415  0.6929
 4850TIP3    H136185   4.854   4.881   6.816  1.8018 -0.5080  1.4854
 4850TIP3    H236186   4.797   4.923   6.950 -0.1022  0.5172  0.3946
 4851TIP3   OH236187   3.477   1.290   0.450 -0.1065  0.3573  0.5440
 4851TIP3    H136188   3.408   1.279   0.516  0.7434 -0.3782  1.3374
 4851TIP3    H236189   3.534   1.214   0.462 -0.3029 -0.1734 -1.5232
 4852TIP3   OH236190   2.936   4.526   2.994  0.0440  0.1974 -0.7028
 4852TIP3    H136191   2.949   4.436   3.024  1.5339  0.5926 -0.0717
 4852TIP3    H236192   2.942   4.521   2.898  1.7462 -0.1685 -0.6073
 4853TIP3   OH236193   2.527   1.244   2.236 -1.1011 -0.0120 -0.2385
 4853TIP3    H136194   2.508   1.255   2.143 -0.4727  1.2286 -0.2333
 4853TIP3    H236195   2.503   1.327   2.276  0.3225  0.1265  0.4102
 4854TIP3   OH236196   4.641   4.569   0.951 -0.3823  0.1621 -0.4343
 4854TIP3    H136197   4.595   4.598   1.030  3.4908 -1.4428  2.7468
 4854TIP3    H236198   4.630   4.474   0.950 -0.2089  0.1319 -1.7771
 4855TIP3   OH236199   1.365   5.068   7.665 -0.2551 -0.5806  0.2719
 4855TIP3    H136200   1.309   5.147   7.668  1.8200  0.9415  1.0393
 4855TIP3    H236201   1.450   5.098   7.697  1.7704 -2.1822 -3.0622
 4856TIP3   OH236202   4.098   3.708   2.110 -0.5298 -0.0108 -0.0311
 4856TIP3    H136203   4.189   3.720   2.084 -0.5688 -1.7913 -1.2001
 4856TIP3    H236204   4.060   3.795   2.107  1.2240  0.8410  0.9206
 4857TIP3   OH236205   6.141   3.711   2.324  0.5324 -0.7442 -0.0104
 4857TIP3    H136206   6.174   3.796   2.295  2.4214 -0.7861  1.7545
 4857TIP3    H236207   6.125   3.722   2.418 -0.3063 -2.0369  0.0342
 4858TIP3   OH236208   1.563   6.811   7.598 -0.1880 -0.0170  0.0744
 4858TIP3    H136209   1.570   6.795   7.504  2.3585  1.3300 -0.0636
 4858TIP3    H236210   1.475   6.847   7.609 -1.2215 -1.8640 -1.4574
 4859TIP3   OH236211   5.356   6.734   0.109  0.3546  0.1734  0.6812
 4859TIP3    H136212   5.443   6.748   0.071 -0.6160 -0.7143 -2.0995
 4859TIP3    H236213   5.339   6.641   0.094 -1.0231  0.2963  1.3595
 4860TIP3   OH236214   4.492   1.399   0.509  0.1016  0.0610 -0.1630
 4860TIP3    H136215   4.429   1.424   0.578 -0.0260  1.0493 -0.6163
 4860TIP3    H236216   4.515   1.309   0.530  0.5201  0.5165  1.5311
 4861TIP3   OH236217   1.503   1.869   0.400 -0.1226  0.3259  0.0672
 4861TIP3    H136218   1.504   1.925   0.322  0.5976  0.8400  0.4272
 4861TIP3    H236219   1.425   1.896   0.448 -1.0004 -0.5422 -0.8563
 4862TIP3   OH236220   0.662   6.296   8.300 -0.2265  0.0379  0.6121
 4862TIP3    H136221   0.674   6.307   8.205 -1.2725 -0.3793  0.4169
 4862TIP3    H236222   0.608   6.370   8.326  0.7082  0.5934  1.0481
 4863TIP3   OH236223   4.888   3.993   1.707  0.0210  0.2746 -0.4307
 4863TIP3    H136224   4.878   4.020   1.798 -0.6442  0.0105 -0.4176
 4863TIP3    H236225   4.964   3.935   1.707 -0.3482 -0.2160  0.0709
 4864TIP3   OH236226   6.099   5.757   0.422 -0.4376 -0.1567  0.0526
 4864TIP3    H136227   6.027   5.728   0.478 -0.2417  2.1327  1.6058
 4864TIP3    H236228   6.058   5.778   0.338 -1.6450  1.1554  0.9320
 4865TIP3   OH236229   4.816   5.043   7.784 -0.7055 -0.3207 -0.0698
 4865TIP3    H136230   4.768   5.121   7.755  0.3518 -0.3522 -2.0630
 4865TIP3    H236231   4.816   4.985   7.709 -1.7702 -2.4658  1.4950
 4866TIP3   OH236232   1.272   6.925   1.597 -0.3706 -1.0699 -0.4647
 4866TIP3    H136233   1.355   6.882   1.617 -0.3773 -1.5441 -1.3966
 4866TIP3    H236234   1.297   7.003   1.547 -0.5090 -1.8749 -1.8712
 4867TIP3   OH236235   2.904   5.193   1.174  0.7519 -0.0237  0.9595
 4867TIP3    H136236   2.919   5.287   1.163  2.1254 -0.3198 -0.0549
 4867TIP3    H236237   2.853   5.186   1.255 -0.4573  1.6546  0.3829
 4868TIP3   OH236238   4.790   6.434   7.513  0.7665 -0.2382 -0.6514
 4868TIP3    H136239   4.853   6.505   7.496 -0.0846  0.2292 -2.0054
 4868TIP3    H236240   4.709   6.480   7.536  0.7341 -0.8273  0.4829
 4869TIP3   OH236241   7.021   6.973   8.151 -0.6653 -0.3903  0.0788
 4869TIP3    H136242   7.010   6.933   8.237 -0.9979 -1.0390 -0.2593
 4869TIP3    H236243   6.965   6.922   8.093  0.9605 -1.1313 -0.9044
 4870TIP3   OH236244   1.938   5.820   1.835  0.3391  0.4545 -0.1041
 4870TIP3    H136245   1.873   5.752   1.851 -0.1145  1.4155  2.7049
 4870TIP3    H236246   2.016   5.773   1.803 -0.4961 -1.1427  0.1334
 4871TIP3   OH236247   3.722   3.383   2.016  0.5299  0.2638 -0.7564
 4871TIP3    H136248   3.763   3.345   2.093  2.5188 -0.6715 -2.2051
 4871TIP3    H236249   3.650   3.323   1.995  1.2578 -0.6044 -0.8110
 4872TIP3   OH236250   3.992   2.450   3.443  0.3553 -0.1052 -0.1681
 4872TIP3    H136251   4.075   2.492   3.467  0.9409 -1.0214 -0.5222
 4872TIP3    H236252   3.947   2.515   3.390  1.4718 -0.0994 -1.1511
 4873TIP3   OH236253   3.821   0.658   1.285 -0.5488  0.5459 -0.2861
 4873TIP3    H136254   3.732   0.661   1.250 -0.0595 -0.7683 -1.7660
 4873TIP3    H236255   3.853   0.747   1.277 -1.7470  1.0563  0.3540
 4874TIP3   OH236256   4.587   4.310   0.899 -0.6388  0.1201 -0.1811
 4874TIP3    H136257   4.675   4.276   0.913 -0.3586  1.0120  0.3201
 4874TIP3    H236258   4.571   4.298   0.805 -0.9760 -2.2904  0.1139
 4875TIP3   OH236259   0.972   1.995   2.683  0.4729  0.2935 -0.5485
 4875TIP3    H136260   0.998   1.904   2.694  2.5353  0.5951 -2.2691
 4875TIP3    H236261   1.054   2.042   2.668 -0.0899  3.0670  3.3862
 4876TIP3   OH236262   4.009   1.964   2.224 -0.2065 -0.4292  0.8385
 4876TIP3    H136263   3.990   2.013   2.144 -0.1447  1.1770  1.7508
 4876TIP3    H236264   4.035   2.031   2.287 -1.3866 -1.4974  2.5570
 4877TIP3   OH236265   4.533   6.142   1.542  0.6207  0.4680  0.5854
 4877TIP3    H136266   4.548   6.188   1.624  1.5153  0.2098  0.5757
 4877TIP3    H236267   4.438   6.144   1.530  0.5085  0.7308  1.4898
 4878TIP3   OH236268   1.397   5.799   1.504 -0.8372  0.2507 -0.3192
 4878TIP3    H136269   1.325   5.839   1.455  0.0358  0.8886 -1.1032
 4878TIP3    H236270   1.476   5.828   1.459 -0.1372 -2.2871 -0.8888
 4879TIP3   OH236271   5.962   0.662   2.074 -0.1209  0.1514 -0.1073
 4879TIP3    H136272   5.971   0.729   2.007 -1.0830  0.5904  0.1848
 4879TIP3    H236273   5.875   0.677   2.112  0.5454  0.1624  1.5010
 4880TIP3   OH236274   3.804   3.946   0.009  0.6019  0.0176 -0.1916
 4880TIP3    H136275   3.711   3.965   0.021  0.4093 -1.5438  1.0550
 4880TIP3    H236276   3.839   4.025  -0.034 -0.8897  1.4434  1.0876
 4881TIP3   OH236277   6.016   1.046   7.711  0.2540  0.0115 -0.5597
 4881TIP3    H136278   5.992   1.013   7.625 -0.4022  1.2334 -0.8673
 4881TIP3    H236279   6.067   0.975   7.751 -1.2372 -1.4226 -1.1016
 4882TIP3   OH236280   3.847   2.885   2.738  0.3048  0.0812  0.0576
 4882TIP3    H136281   3.849   2.979   2.724 -1.4599  0.3594  1.2819
 4882TIP3    H236282   3.913   2.868   2.806 -0.1992  0.6330  0.6973
 4883TIP3   OH236283   2.003   4.141   1.164 -0.2498  0.0684 -0.0097
 4883TIP3    H136284   1.933   4.206   1.160  0.1487  0.4621 -1.0039
 4883TIP3    H236285   1.968   4.064   1.120 -0.3189  0.0081  0.1511
 4884TIP3   OH236286   5.144   1.351   0.003 -0.2543  0.2313  0.4051
 4884TIP3    H136287   5.147   1.442  -0.028 -2.5801  0.1129 -0.3736
 4884TIP3    H236288   5.229   1.337   0.044  0.9965  2.0813 -1.3497
 4885TIP3   OH236289   0.074   1.724   1.687  0.5952  0.3450 -0.5408
 4885TIP3    H136290  -0.018   1.727   1.663  0.5611 -1.6901 -0.8188
 4885TIP3    H236291   0.115   1.792   1.633 -0.7112  1.2473 -0.4339
 4886TIP3   OH236292   6.422   1.069   0.029  0.3641  0.0926 -0.6259
 4886TIP3    H136293   6.367   1.083   0.106  0.1138 -0.7219 -0.6418
 4886TIP3    H236294   6.423   1.153  -0.017 -0.0023  0.4027 -0.0700
 4887TIP3   OH236295   5.212   0.414   0.377  0.1107  0.0185 -0.5381
 4887TIP3    H136296   5.253   0.466   0.308 -0.3550 -0.5314 -1.2437
 4887TIP3    H236297   5.240   0.456   0.459  1.2898  0.2224 -1.0303
 4888TIP3   OH236298   5.342   6.205   0.265  0.5528  0.0912  0.4575
 4888TIP3    H136299   5.269   6.245   0.312  0.2188 -1.0654  0.9473
 4888TIP3    H236300   5.364   6.127   0.316  0.3442 -1.0683 -1.1441
 4889TIP3   OH236301   3.982   0.711   7.128  0.3511 -0.7222  0.3267
 4889TIP3    H136302   3.934   0.773   7.185  1.0067 -0.1296  0.2529
 4889TIP3    H236303   3.957   0.625   7.161 -2.1824 -0.5246 -0.8479
 4890TIP3   OH236304   5.910   4.992   0.661  0.3915 -0.0594  0.2204
 4890TIP3    H136305   5.934   4.910   0.705  0.5588 -0.4973 -0.6680
 4890TIP3    H236306   5.858   5.039   0.726  1.0250 -0.4760  1.0626
 4891TIP3   OH236307   4.041   1.761   2.424 -0.0234  0.2747  0.1523
 4891TIP3    H136308   4.014   1.823   2.356  1.9509  0.8576 -0.1565
 4891TIP3    H236309   3.964   1.753   2.481 -2.0637 -0.8178 -2.4811
 4892TIP3   OH236310   6.408   0.068   7.534  0.2358  0.0785  0.1494
 4892TIP3    H136311   6.338   0.007   7.558 -0.5082  0.4886 -0.8828
 4892TIP3    H236312   6.422   0.120   7.613 -0.5713 -0.0668  0.4039
 4893TIP3   OH236313   4.122   4.171   0.395  0.0732 -0.0029  0.3740
 4893TIP3    H136314   4.117   4.109   0.468  0.4849  0.1015  0.4920
 4893TIP3    H236315   4.041   4.157   0.346 -0.0026 -0.3770  0.6056
 4894TIP3   OH236316   2.538   6.449   0.448  0.7788 -0.4949 -0.4797
 4894TIP3    H136317   2.461   6.472   0.499  0.4807 -1.0349 -0.6747
 4894TIP3    H236318   2.543   6.353   0.453  0.0758 -0.6843 -2.3659
 4895TIP3   OH236319   4.034   3.776   0.114 -0.0301 -0.0188  0.3828
 4895TIP3    H136320   3.971   3.839   0.079  0.8171  0.0451 -1.0762
 4895TIP3    H236321   4.096   3.829   0.164  0.4123  0.2499 -0.4496
 4896TIP3   OH236322   2.378   3.093   1.143  0.1064 -0.1018  0.4980
 4896TIP3    H136323   2.347   3.018   1.194  2.0335 -0.5169  1.1614
 4896TIP3    H236324   2.406   3.055   1.060  1.2915 -0.1897  0.9174
 4897TIP3   OH236325   5.234   5.197   1.372 -0.5604 -0.6880 -0.2258
 4897TIP3    H136326   5.246   5.237   1.458 -0.3345  0.4397 -0.7592
 4897TIP3    H236327   5.321   5.169   1.345 -0.0434  1.6532 -1.3184
 4898TIP3   OH236328   0.333   5.806   0.253  0.0895 -0.3229  0.5724
 4898TIP3    H136329   0.350   5.815   0.159  1.3790  1.9692  0.9287
 4898TIP3    H236330   0.241   5.829   0.263  0.2205  0.5113 -0.0308
 4899TIP3   OH236331   5.254   4.028   2.055  0.6881 -0.1432  0.3565
 4899TIP3    H136332   5.286   3.946   2.093  0.4388  0.3881  1.7908
 4899TIP3    H236333   5.260   4.092   2.126  1.3283  1.2181 -0.8590
 4900TIP3   OH236334   6.592   5.559   0.758  0.3973  0.4404 -0.4285
 4900TIP3    H136335   6.553   5.591   0.840 -0.1909 -1.7811  0.2251
 4900TIP3    H236336   6.673   5.516   0.785  0.8824  0.8488 -1.2064
 4901TIP3   OH236337   6.631   6.006   7.152  0.0382  0.6396  0.0412
 4901TIP3    H136338   6.595   5.991   7.239 -1.4244 -1.9712 -0.9058
 4901TIP3    H236339   6.556   5.996   7.093  1.1984  1.2473 -1.5969
 4902TIP3   OH236340   4.732   5.552   8.219 -0.7269  0.3106  0.9552
 4902TIP3    H136341   4.725   5.533   8.313  0.1330  0.0133  0.9756
 4902TIP3    H236342   4.773   5.473   8.183 -2.3144 -0.1612  0.0916
 4903TIP3   OH236343   5.746   0.293   0.448  0.9996  0.2464 -0.0328
 4903TIP3    H136344   5.672   0.281   0.507 -0.3725 -2.8861 -2.1554
 4903TIP3    H236345   5.822   0.264   0.500  0.0995 -0.7236  0.8060
 4904TIP3   OH236346   1.047   6.963   2.303 -0.4265 -0.4296 -0.7671
 4904TIP3    H136347   1.097   6.970   2.221 -1.6932 -2.2330 -1.7611
 4904TIP3    H236348   1.101   6.907   2.358  1.2577  2.1281  0.4110
 4905TIP3   OH236349   6.831   6.476   7.873 -0.2035  0.0549  0.1159
 4905TIP3    H136350   6.809   6.412   7.942  0.1339  0.0884  0.2557
 4905TIP3    H236351   6.922   6.455   7.850 -1.2238 -2.0405 -2.5561
 4906TIP3   OH236352   5.759   6.204   0.371 -0.0187  0.3131  0.0046
 4906TIP3    H136353   5.725   6.250   0.295 -0.1001 -0.0311 -0.1714
 4906TIP3    H236354   5.849   6.182   0.348 -1.4955 -4.7571 -2.4415
 4907TIP3   OH236355   3.615   4.019   2.337 -0.3659 -0.6391  0.4719
 4907TIP3    H136356   3.680   4.046   2.402 -0.2415 -0.3875  0.2448
 4907TIP3    H236357   3.575   4.101   2.308 -0.3058 -0.7339  0.1120
 4908TIP3   OH236358   4.355   4.075   0.297  0.1862  0.2039 -0.2763
 4908TIP3    H136359   4.325   4.017   0.227  0.8473  0.3959 -0.7197
 4908TIP3    H236360   4.277   4.128   0.319 -0.0942 -0.0348 -0.6814
 4909TIP3   OH236361   0.828   4.559   7.826 -0.2676  0.1453  0.0415
 4909TIP3    H136362   0.770   4.591   7.895  0.4633  0.5133  0.4987
 4909TIP3    H236363   0.815   4.620   7.753 -0.0126  0.5871  0.3609
 4910TIP3   OH236364   4.471   5.653   7.851  0.0797 -0.7010  0.3377
 4910TIP3    H136365   4.459   5.562   7.823 -0.0864 -0.4230 -0.4981
 4910TIP3    H236366   4.505   5.698   7.774  1.5513 -0.3490  1.1510
 4911TIP3   OH236367   4.537   2.880   0.287  0.3589 -0.6409  0.0540
 4911TIP3    H136368   4.468   2.887   0.353  0.7416 -1.7030  0.6014
 4911TIP3    H236369   4.557   2.786   0.283  0.8292 -0.5117 -1.0744
 4912TIP3   OH236370   2.231   1.676   1.693 -0.0893 -0.0919  0.0183
 4912TIP3    H136371   2.260   1.590   1.664  0.3853  0.1955 -0.3791
 4912TIP3    H236372   2.141   1.684   1.660  0.5570  0.3819 -1.7768
 4913TIP3   OH236373   2.155   6.479   0.150 -0.2225 -0.1851 -0.6279
 4913TIP3    H136374   2.198   6.554   0.110 -1.3850  0.8253 -0.0377
 4913TIP3    H236375   2.074   6.468   0.100 -0.9243  0.0998  0.4136
 4914TIP3   OH236376   4.715   1.548   0.161 -0.6569 -0.2593 -0.3215
 4914TIP3    H136377   4.695   1.631   0.205  1.9005  1.0912 -1.4808
 4914TIP3    H236378   4.705   1.568   0.068  1.4315 -0.7414 -0.7023
 4915TIP3   OH236379   2.902   1.102   2.321 -0.4442 -0.0522  0.1883
 4915TIP3    H136380   2.841   1.104   2.248  0.5929  0.2250 -0.6934
 4915TIP3    H236381   2.864   1.163   2.385 -1.2392 -0.1261 -0.2004
 4916TIP3   OH236382   0.774   1.945   2.083  0.2820  0.2863  0.3535
 4916TIP3    H136383   0.833   1.870   2.090  0.8233  0.5777 -0.8362
 4916TIP3    H236384   0.689   1.906   2.060  0.5514  0.0312 -0.2266
 4917TIP3   OH236385   0.628   4.659   0.313 -0.1112  0.1165 -0.3771
 4917TIP3    H136386   0.718   4.692   0.305  0.3133 -0.6498  0.9841
 4917TIP3    H236387   0.608   4.664   0.406 -0.1950 -2.9129 -0.1196
 4918TIP3   OH236388   2.383   3.772   0.574  0.1564 -0.4130  0.1871
 4918TIP3    H136389   2.311   3.817   0.619  1.2268  0.4507  1.0613
 4918TIP3    H236390   2.401   3.827   0.498 -0.3825 -0.8722 -0.2889
 4919TIP3   OH236391   4.989   4.337   1.528 -0.2007 -0.0902 -0.0785
 4919TIP3    H136392   5.056   4.373   1.587  1.3225 -1.6163 -0.7672
 4919TIP3    H236393   5.002   4.385   1.446  0.4225 -0.7301 -0.3651
 4920TIP3   OH236394   3.467   5.499   2.375  0.2725 -0.1154  0.3415
 4920TIP3    H136395   3.539   5.463   2.426  1.1771  1.1660  0.0273
 4920TIP3    H236396   3.509   5.553   2.308 -0.9293 -0.6750 -0.9298
 4921TIP3   OH236397   0.889   6.918   7.528  0.3916  0.0946  0.1294
 4921TIP3    H136398   0.953   6.902   7.597  1.2448  0.5986 -0.5222
 4921TIP3    H236399   0.813   6.864   7.552  1.0064 -0.4109  0.9828
 4922TIP3   OH236400   4.722   2.123   2.407  0.0708  0.0955 -0.4839
 4922TIP3    H136401   4.700   2.082   2.323 -0.0718  1.7856 -1.3127
 4922TIP3    H236402   4.643   2.173   2.430  0.1541 -0.2561  0.6102
 4923TIP3   OH236403   4.563   6.252   1.802 -0.0825 -0.2778  0.1680
 4923TIP3    H136404   4.498   6.253   1.873  0.8549  1.3209  1.0622
 4923TIP3    H236405   4.563   6.342   1.769  1.4175 -0.3271 -0.0362
 4924TIP3   OH236406   5.896   2.909   3.336  1.3603 -0.0276  0.0354
 4924TIP3    H136407   5.902   2.825   3.381 -0.9723  1.3551  3.2701
 4924TIP3    H236408   5.817   2.903   3.283  0.2355  0.6203  1.5868
 4925TIP3   OH236409   2.739   4.004   0.681 -0.1053 -0.0975 -0.2926
 4925TIP3    H136410   2.827   3.965   0.685 -1.4469 -3.4416  1.4996
 4925TIP3    H236411   2.710   3.989   0.591  0.4449 -0.8538 -0.3565
 4926TIP3   OH236412   5.331   4.227   0.101  0.0708  0.7665  0.0028
 4926TIP3    H136413   5.379   4.235   0.019  0.1254  0.6290  0.0219
 4926TIP3    H236414   5.315   4.134   0.111  0.6117  0.7121  0.4588
 4927TIP3   OH236415   3.155   2.901   1.639  0.2355  0.1158  0.0421
 4927TIP3    H136416   3.213   2.918   1.714 -0.7945  0.9093  0.6903
 4927TIP3    H236417   3.074   2.870   1.678  0.1885 -0.9488 -0.8541
 4928TIP3   OH236418   3.767   5.309   7.799 -0.3049 -0.1841  0.4764
 4928TIP3    H136419   3.748   5.387   7.851 -2.0716  0.1872 -0.6089
 4928TIP3    H236420   3.831   5.338   7.734 -0.4992  0.2086  0.4587
 4929TIP3   OH236421   1.392   4.563   2.801  0.3645 -0.0257 -0.1541
 4929TIP3    H136422   1.383   4.620   2.878 -1.3940 -0.3010 -0.1052
 4929TIP3    H236423   1.474   4.590   2.760  1.0152  0.5667  1.4525
 4930TIP3   OH236424   2.501   4.073   1.101  0.0969 -0.1101 -0.1426
 4930TIP3    H136425   2.498   4.160   1.062  1.3620  0.6757  1.4099
 4930TIP3    H236426   2.417   4.064   1.145  0.8070  1.3520  1.6614
 4931TIP3   OH236427   6.859   2.215   1.254 -0.0162  0.0212 -0.4381
 4931TIP3    H136428   6.875   2.131   1.297 -0.7205 -0.1743 -0.5355
 4931TIP3    H236429   6.919   2.276   1.296 -0.3482 -0.2724  0.4936
 4932TIP3   OH236430   2.464   5.059   1.063 -0.3788 -0.1295  0.1970
 4932TIP3    H136431   2.460   5.029   0.972 -0.3847  1.6103 -0.4300
 4932TIP3    H236432   2.512   5.142   1.058 -0.5261  0.0782  1.7671
 4933TIP3   OH236433   4.383   5.668   2.184  0.3240  0.8128 -0.3486
 4933TIP3    H136434   4.472   5.687   2.213  0.5091  0.4176 -0.6569
 4933TIP3    H236435   4.358   5.745   2.132  0.0669  1.4301  0.6658
 4934TIP3   OH236436   5.280   0.251   7.348 -0.3669  0.4218 -0.0840
 4934TIP3    H136437   5.247   0.329   7.393 -0.5592 -0.4255  1.3152
 4934TIP3    H236438   5.202   0.208   7.313 -0.1304  1.6470 -2.2841
 4935TIP3   OH236439   2.770   1.785   7.847 -0.2552  0.0785  0.3076
 4935TIP3    H136440   2.784   1.774   7.941 -1.5977  0.7992  0.6120
 4935TIP3    H236441   2.858   1.794   7.811  0.2302  1.0692  1.6667
 4936TIP3   OH236442   1.199   3.896   8.146 -0.0958  0.4009  0.7904
 4936TIP3    H136443   1.138   3.910   8.073  2.3802  0.3328 -1.4307
 4936TIP3    H236444   1.227   3.984   8.171 -2.0290  0.5332  2.7683
 4937TIP3   OH236445   2.062   3.520   0.379  0.2871 -0.2819 -0.2324
 4937TIP3    H136446   2.150   3.506   0.414  0.4327  0.2830 -0.3703
 4937TIP3    H236447   2.015   3.439   0.400  1.2010 -1.1189 -1.3121
 4938TIP3   OH236448   2.719   2.900   7.135  0.4142 -0.3668  0.1051
 4938TIP3    H136449   2.807   2.865   7.121  0.4277 -0.2799 -0.0360
 4938TIP3    H236450   2.731   2.971   7.198  0.3328 -0.8542  0.6803
 4939TIP3   OH236451   3.938   6.758   0.208 -0.1804 -0.4120  0.3719
 4939TIP3    H136452   3.894   6.832   0.167 -0.5208 -0.7671  0.0948
 4939TIP3    H236453   3.914   6.764   0.301  1.1159  0.7676  0.6610
 4940TIP3   OH236454   5.412   1.122   0.212 -0.3441  0.3844 -0.2496
 4940TIP3    H136455   5.358   1.116   0.290  0.6214 -0.2672  0.3949
 4940TIP3    H236456   5.357   1.085   0.142 -0.8211 -0.0106  0.3256
 4941TIP3   OH236457   2.707   3.472   1.358  0.3495 -0.0611 -0.0720
 4941TIP3    H136458   2.644   3.432   1.297 -0.4812  0.3885  0.4588
 4941TIP3    H236459   2.705   3.416   1.435 -0.6890  0.8528  0.6080
 4942TIP3   OH236460   1.612   4.564   0.523  0.0350 -0.0801  0.1610
 4942TIP3    H136461   1.634   4.657   0.514 -0.4799  0.1670  1.3144
 4942TIP3    H236462   1.639   4.525   0.440  3.6379  0.4189  0.9295
 4943TIP3   OH236463   1.187   6.062   7.742 -0.5549  0.0530 -0.3462
 4943TIP3    H136464   1.248   6.033   7.810  0.7189 -1.9174 -2.2057
 4943TIP3    H236465   1.197   6.158   7.740  1.6734 -0.1064  0.1894
 4944TIP3   OH236466   2.440   3.346   1.194  0.0843 -0.4094  0.0389
 4944TIP3    H136467   2.417   3.258   1.166 -0.5134 -0.4759  0.7121
 4944TIP3    H236468   2.488   3.383   1.120 -0.2395 -1.0630 -0.5082
 4945TIP3   OH236469   6.324   0.410   6.721 -0.0208  0.1917  0.4840
 4945TIP3    H136470   6.385   0.349   6.761  1.3676  0.6097 -0.8830
 4945TIP3    H236471   6.332   0.491   6.772 -0.7798 -0.2837  1.3893
 4946TIP3   OH236472   6.179   4.766   1.307  0.3050 -0.2055 -0.2449
 4946TIP3    H136473   6.106   4.826   1.297  1.1878  0.7856 -1.0733
 4946TIP3    H236474   6.221   4.765   1.220  0.4515 -1.8458 -0.1933
 4947TIP3   OH236475   1.223   3.465   0.852 -0.6116 -0.1859 -0.4810
 4947TIP3    H136476   1.242   3.539   0.795  0.2465 -0.2391 -0.2807
 4947TIP3    H236477   1.214   3.391   0.792 -1.3867  0.0553 -0.6741
 4948TIP3   OH236478   5.119   4.812   2.593 -0.1376 -0.0913 -0.3778
 4948TIP3    H136479   5.038   4.787   2.549 -0.5158  1.5817 -0.7002
 4948TIP3    H236480   5.189   4.788   2.532 -0.3936 -1.2773 -0.2187
 4949TIP3   OH236481   0.570   2.302   3.104 -0.3911  0.5323 -0.1997
 4949TIP3    H136482   0.664   2.311   3.096 -0.0764 -0.8134  1.3838
 4949TIP3    H236483   0.546   2.356   3.180 -0.4290 -1.2379  1.1178
 4950TIP3   OH236484   1.394   6.429   8.214 -0.7357 -0.2983 -0.7735
 4950TIP3    H136485   1.367   6.431   8.306 -0.4618 -0.7229 -0.6843
 4950TIP3    H236486   1.324   6.383   8.169 -0.0760 -1.6049 -0.5041
 4951TIP3   OH236487   4.494   6.745   2.460  0.6953  0.2068  0.3541
 4951TIP3    H136488   4.554   6.692   2.513  0.8229  1.1902  1.2290
 4951TIP3    H236489   4.434   6.783   2.523 -0.6844 -0.5104 -0.4827
 4952TIP3   OH236490   5.115   3.068   0.409  0.2517  0.1193  0.1674
 4952TIP3    H136491   5.067   3.031   0.335  0.7444  0.8687 -0.5490
 4952TIP3    H236492   5.053   3.128   0.450 -0.1055 -0.4868  0.5225
 4953TIP3   OH236493   6.581   3.038   2.246 -0.2089 -0.0551  0.2881
 4953TIP3    H136494   6.614   3.090   2.319 -1.2016  2.0345 -0.6616
 4953TIP3    H236495   6.519   2.977   2.286  2.5054 -2.1081  1.7059
 4954TIP3   OH236496   5.315   1.008   1.112  0.3190  0.1275 -0.0640
 4954TIP3    H136497   5.231   0.962   1.115  1.7556 -2.7863 -0.6279
 4954TIP3    H236498   5.292   1.101   1.116 -2.8223 -0.5833  1.0293
 4955TIP3   OH236499   3.726   3.689   2.691  0.0925 -0.5956 -0.1489
 4955TIP3    H136500   3.691   3.648   2.612 -1.3549 -1.8347  1.0631
 4955TIP3    H236501   3.783   3.622   2.730  0.8538  0.0305 -0.1609
 4956TIP3   OH236502   5.303   6.153   1.976  0.3286 -0.5159  0.1872
 4956TIP3    H136503   5.255   6.174   1.896 -0.0416 -0.9928  0.2803
 4956TIP3    H236504   5.303   6.235   2.026 -0.7769 -0.6203  0.3800
 4957TIP3   OH236505   1.975   4.573   7.893  0.3172 -0.2881 -0.3151
 4957TIP3    H136506   1.900   4.515   7.880  0.1515  0.0644 -0.9600
 4957TIP3    H236507   1.957   4.648   7.837  0.4535  0.4647  0.6266
 4958TIP3   OH236508   3.995   2.688   0.596  0.3270  0.0492  0.0508
 4958TIP3    H136509   3.949   2.616   0.639  0.9078  1.0450  2.4833
 4958TIP3    H236510   4.086   2.661   0.593  0.2861 -0.0366 -0.6589
 4959TIP3   OH236511   2.948   5.813   1.067 -0.0707  0.5824  0.3248
 4959TIP3    H136512   3.029   5.826   1.018  0.4596  1.4555  1.3769
 4959TIP3    H236513   2.883   5.789   1.001  1.6766 -3.4209 -0.1985
 4960TIP3   OH236514   4.519   4.267   3.266  0.0825 -0.3381  0.2158
 4960TIP3    H136515   4.560   4.349   3.239  0.7967 -0.2993  1.3231
 4960TIP3    H236516   4.558   4.248   3.352 -1.1176 -1.0912  0.6294
 4961TIP3   OH236517   1.837   0.194   1.076 -0.1029  0.1318 -0.3148
 4961TIP3    H136518   1.891   0.228   1.147 -1.7340  1.8140  0.1852
 4961TIP3    H236519   1.899   0.182   1.003  1.4280 -0.7461  1.0594
 4962TIP3   OH236520   3.670   1.384   6.952 -0.5294  0.3658  0.6297
 4962TIP3    H136521   3.617   1.380   6.872 -1.3479 -0.6309  1.2022
 4962TIP3    H236522   3.699   1.475   6.956 -1.0743  0.6132 -0.4154
 4963TIP3   OH236523   5.205   5.291   7.020 -0.5383 -0.3100 -0.8011
 4963TIP3    H136524   5.196   5.197   7.036 -0.8132 -0.1998 -0.2983
 4963TIP3    H236525   5.123   5.317   6.979 -0.5482 -0.2456 -0.7402
 4964TIP3   OH236526   0.806   0.399   0.234 -0.4044 -0.3205  0.1976
 4964TIP3    H136527   0.737   0.358   0.286  1.4770 -0.9543  2.3731
 4964TIP3    H236528   0.800   0.492   0.255  0.3637 -0.5746  1.7043
 4965TIP3   OH236529   3.580   3.580   2.485 -0.0077  0.5462 -0.0141
 4965TIP3    H136530   3.581   3.504   2.426  3.1056  1.2332 -1.0405
 4965TIP3    H236531   3.523   3.643   2.443  1.2441  0.5692 -1.7675
 4966TIP3   OH236532   2.047   1.017   3.106  0.4209 -0.1282 -0.7765
 4966TIP3    H136533   2.049   1.109   3.130  0.8543  0.2008 -2.0055
 4966TIP3    H236534   2.021   1.016   3.014 -2.3210 -1.4033 -0.0822
 4967TIP3   OH236535   1.419   4.535   8.213  0.9301 -0.3622  0.0403
 4967TIP3    H136536   1.388   4.570   8.297  2.3426 -0.3903  0.5977
 4967TIP3    H236537   1.380   4.448   8.207 -1.8427  0.8342 -0.9007
 4968TIP3   OH236538   4.290   3.266   1.959  0.2896  0.5253  0.3149
 4968TIP3    H136539   4.334   3.282   1.875  1.1755 -1.0956  0.4208
 4968TIP3    H236540   4.362   3.245   2.019 -0.4241  0.6540  1.2259
 4969TIP3   OH236541   5.866   5.958   1.089  0.0177  0.4570 -0.0713
 4969TIP3    H136542   5.816   5.890   1.135  0.6497 -0.7944 -1.1900
 4969TIP3    H236543   5.812   5.981   1.013  0.5863 -0.0399 -0.6324
 4970TIP3   OH236544   4.556   2.563   1.205  0.0135 -0.0858  0.4782
 4970TIP3    H136545   4.557   2.477   1.162  1.2348  0.4419 -0.6225
 4970TIP3    H236546   4.486   2.557   1.269 -0.2974 -1.7197  0.0290
 4971TIP3   OH236547   2.102   1.398   1.204  0.0646 -0.0607  0.4479
 4971TIP3    H136548   2.029   1.442   1.160  0.6414  0.9216  0.4353
 4971TIP3    H236549   2.084   1.409   1.298  1.0331  1.7213  0.4763
 4972TIP3   OH236550   1.822   3.008   3.001 -0.8027  0.2853  0.1753
 4972TIP3    H136551   1.828   3.103   3.011 -2.3107  0.4860 -0.5332
 4972TIP3    H236552   1.750   2.995   2.940  1.4440 -1.1990 -2.4316
 4973TIP3   OH236553   1.690   2.953   8.246 -0.1449 -0.1891  0.6057
 4973TIP3    H136554   1.728   3.041   8.241 -0.3392 -0.1746 -0.7748
 4973TIP3    H236555   1.736   2.911   8.319  0.0893  0.9824  1.1573
 4974TIP3   OH236556   5.560   2.654   7.927 -0.4457 -0.5847  0.1143
 4974TIP3    H136557   5.547   2.744   7.954  1.5267 -0.5419  1.1092
 4974TIP3    H236558   5.483   2.607   7.959 -0.7208  0.4592  0.9990
 4975TIP3   OH236559   1.338   3.972   1.656 -0.1494  0.0529  0.1605
 4975TIP3    H136560   1.383   3.950   1.574  0.4725  0.6915  0.3104
 4975TIP3    H236561   1.401   4.027   1.703 -0.7339  0.1860  0.8030
 4976TIP3   OH236562   2.668   1.481   0.657 -0.5665 -0.1431  0.0097
 4976TIP3    H136563   2.627   1.461   0.741  0.1850  1.5655  0.8444
 4976TIP3    H236564   2.596   1.514   0.603 -0.5067  2.3231  1.2865
 4977TIP3   OH236565   6.290   4.379   2.557 -0.1597 -0.2712 -0.4370
 4977TIP3    H136566   6.209   4.425   2.535  0.2372  0.4782 -0.3362
 4977TIP3    H236567   6.285   4.363   2.651  0.0832  0.3147 -0.3230
 4978TIP3   OH236568   0.929   5.852   6.622 -0.4853  0.7199 -0.2226
 4978TIP3    H136569   0.968   5.800   6.551 -1.4333  0.2318 -0.4131
 4978TIP3    H236570   0.924   5.941   6.587 -0.7539  0.5209 -0.7069
 4979TIP3   OH236571   2.802   1.265   0.460  0.1228 -0.1133 -0.4483
 4979TIP3    H136572   2.768   1.326   0.525  0.4396 -1.4679  1.0674
 4979TIP3    H236573   2.731   1.256   0.396 -1.5446 -1.1838  1.4432
 4980TIP3   OH236574   2.595   0.726   8.053  0.5455 -0.1860  0.2260
 4980TIP3    H136575   2.630   0.796   7.998  0.8558 -0.9115 -0.5054
 4980TIP3    H236576   2.529   0.770   8.107 -0.3018  0.4069 -1.2389
 4981TIP3   OH236577   2.515   3.563   2.204  0.1430 -0.5075  0.5726
 4981TIP3    H136578   2.578   3.624   2.242  0.1789  0.3027 -0.7639
 4981TIP3    H236579   2.568   3.489   2.175  0.3670 -0.2420  0.2992
 4982TIP3   OH236580   6.970   4.125   2.615  0.0655 -0.5805  0.4452
 4982TIP3    H136581   6.973   4.192   2.547 -1.0040 -0.3831  0.5688
 4982TIP3    H236582   6.876   4.115   2.634  0.1621 -2.4686  0.0743
 4983TIP3   OH236583   6.664   1.157   1.211  0.6395  0.0167 -0.2042
 4983TIP3    H136584   6.678   1.063   1.218  0.8309  0.1234  0.9320
 4983TIP3    H236585   6.732   1.196   1.266 -0.5635  0.7455  0.8188
 4984TIP3   OH236586   1.477   4.329   7.171 -0.4380 -0.0137  0.0414
 4984TIP3    H136587   1.557   4.279   7.156 -0.2783  0.6799 -1.6592
 4984TIP3    H236588   1.406   4.267   7.156 -0.2348 -0.2525  0.0759
 4985TIP3   OH236589   5.247   2.827   0.619  0.3317  0.2344  0.0318
 4985TIP3    H136590   5.265   2.919   0.600 -0.2670  0.3412 -0.0298
 4985TIP3    H236591   5.295   2.808   0.699  1.1186  0.3766 -0.3944
 4986TIP3   OH236592   5.577   4.682   2.768  0.4873  0.1472 -0.0080
 4986TIP3    H136593   5.639   4.752   2.790  1.8079 -1.3560  1.2906
 4986TIP3    H236594   5.615   4.603   2.807 -2.2629 -0.8470  0.8871
 4987TIP3   OH236595   5.431   1.828   7.358 -0.3322 -0.8065 -0.2333
 4987TIP3    H136596   5.393   1.754   7.311  1.4223  0.3275 -3.8039
 4987TIP3    H236597   5.487   1.872   7.293  3.1983  0.4192  3.2286
 4988TIP3   OH236598   2.450   0.086   0.204  0.1886 -0.7330 -0.3658
 4988TIP3    H136599   2.509   0.058   0.135  2.3323 -0.3705  1.1945
 4988TIP3    H236600   2.442   0.181   0.192  1.0450 -0.5781  0.1898
 4989TIP3   OH236601   4.439   6.903   7.395  0.3960  0.8180  0.4658
 4989TIP3    H136602   4.481   6.984   7.365 -0.2331  0.9593 -0.0473
 4989TIP3    H236603   4.500   6.834   7.370  0.8016  1.1059  0.6457
 4990TIP3   OH236604   5.139   2.075   7.847 -0.3679  0.2983 -0.0954
 4990TIP3    H136605   5.153   2.164   7.880 -0.6712  0.6982 -1.0175
 4990TIP3    H236606   5.080   2.035   7.911 -0.4699  0.8603  0.1677
 4991TIP3   OH236607   6.294   2.086   2.553 -0.4081 -0.1685  0.1226
 4991TIP3    H136608   6.217   2.098   2.497 -0.9928  1.7309  1.2214
 4991TIP3    H236609   6.273   2.010   2.607 -2.1268  1.0382  1.2626
 4992TIP3   OH236610   6.257   2.800   2.121 -0.7242  0.1302 -0.3381
 4992TIP3    H136611   6.336   2.748   2.102  0.1442  1.7629 -1.5415
 4992TIP3    H236612   6.210   2.750   2.187  2.1451 -0.1569  1.6651
 4993TIP3   OH236613   0.516   5.715   7.772 -0.5647 -0.4048 -0.0410
 4993TIP3    H136614   0.510   5.655   7.847  0.5189 -1.6098 -0.8708
 4993TIP3    H236615   0.532   5.658   7.697  2.4430  0.9857 -0.6203
 4994TIP3   OH236616   1.745   4.444   2.207  0.1370 -0.3563  0.1653
 4994TIP3    H136617   1.716   4.363   2.248  0.6465 -0.0673  1.1222
 4994TIP3    H236618   1.788   4.416   2.126 -0.2363 -0.9854  0.1768
 4995TIP3   OH236619   5.701   3.924   2.627 -0.5150  0.1074 -0.5306
 4995TIP3    H136620   5.699   3.829   2.638 -1.0358  0.2016  0.3119
 4995TIP3    H236621   5.783   3.941   2.581 -0.2373 -0.7201 -0.3582
 4996TIP3   OH236622   6.949   5.789   7.198  0.0215 -0.2603  0.4813
 4996TIP3    H136623   6.982   5.872   7.235  2.6339 -1.8667  2.0822
 4996TIP3    H236624   7.001   5.775   7.120  2.1344 -1.9543  2.0693
 4997TIP3   OH236625   6.514   4.058   2.208 -0.1945  0.4237  0.6477
 4997TIP3    H136626   6.591   4.026   2.162  0.8907 -0.9230  3.2317
 4997TIP3    H236627   6.442   4.006   2.172  0.6321 -0.7105  0.5704
 4998TIP3   OH236628   1.957   6.359   7.385  0.2967 -0.0211  0.1676
 4998TIP3    H136629   1.911   6.275   7.394  1.3421 -0.6180  0.1932
 4998TIP3    H236630   1.895   6.425   7.414 -0.3233 -0.8540  0.7608
 4999TIP3   OH236631   2.950   4.634   3.241  0.2015 -0.1946  0.0992
 4999TIP3    H136632   2.927   4.608   3.151 -0.9595  3.5622 -0.8618
 4999TIP3    H236633   2.869   4.624   3.290  0.2155 -0.0752  0.1471
 5000TIP3   OH236634   6.430   3.754   2.455  0.0274 -0.4360  0.4711
 5000TIP3    H136635   6.492   3.826   2.468  0.3029 -0.8364  1.5155
 5000TIP3    H236636   6.450   3.692   2.525  0.7589 -2.2221 -1.2004
 5001TIP3   OH236637   6.291   5.382   1.293  0.1116 -0.4517  0.3213
 5001TIP3    H136638   6.262   5.291   1.294 -0.0998 -0.3903  1.8019
 5001TIP3    H236639   6.371   5.381   1.240 -1.1973 -1.0453 -1.7544
 5002TIP3   OH236640   0.179   2.468   6.910  0.2063 -0.0495  0.9483
 5002TIP3    H136641   0.152   2.384   6.875  1.4149 -0.7890  1.7126
 5002TIP3    H236642   0.270   2.478   6.881  0.4762  0.3999  1.8909
 5003TIP3   OH236643   0.701   3.976   3.841  0.1073  0.4948 -0.7414
 5003TIP3    H136644   0.770   4.042   3.852  0.0803  0.6348 -1.3666
 5003TIP3    H236645   0.656   4.002   3.761  1.1385 -1.1998 -1.9379
 5004TIP3   OH236646   4.453   4.557   0.577 -0.4852  0.1835 -0.5141
 5004TIP3    H136647   4.407   4.616   0.517 -2.1773 -1.0744 -0.5445
 5004TIP3    H236648   4.387   4.533   0.642  1.1197  0.9840  1.5145
 5005TIP3   OH236649   2.409   1.846   1.044  0.0633 -0.3528 -0.0731
 5005TIP3    H136650   2.363   1.896   1.111  1.4465 -0.0241  0.6666
 5005TIP3    H236651   2.497   1.832   1.080  0.2409 -1.8496 -1.0019
 5006TIP3   OH236652   3.975   5.742   7.587 -0.5495  0.1938 -0.4295
 5006TIP3    H136653   4.031   5.789   7.650 -0.2285 -0.0300 -0.5437
 5006TIP3    H236654   3.900   5.799   7.575 -0.9879 -0.1113  0.7386
 5007TIP3   OH236655   4.201   0.803   7.380  0.1187 -0.2038 -0.7554
 5007TIP3    H136656   4.159   0.835   7.300 -0.6567  2.3409  0.5782
 5007TIP3    H236657   4.273   0.864   7.395  1.3680 -1.6858 -0.3803
 5008TIP3   OH236658   6.749   3.188   2.430 -0.1095  0.7119  0.6867
 5008TIP3    H136659   6.818   3.178   2.364 -1.0958  0.5146 -0.3545
 5008TIP3    H236660   6.742   3.283   2.443  1.4443  0.6736  2.0192
 5009TIP3   OH236661   6.376   6.497   7.718 -0.2494 -0.0279  0.0456
 5009TIP3    H136662   6.366   6.556   7.643 -0.1664 -0.6441 -0.4560
 5009TIP3    H236663   6.381   6.556   7.793  3.3403  0.8548 -0.7166
 5010TIP3   OH236664   6.391   3.543   2.301 -0.2251 -0.2773  0.5105
 5010TIP3    H136665   6.393   3.631   2.339  1.9473  0.0964 -0.3342
 5010TIP3    H236666   6.352   3.556   2.214  0.7175 -0.0015  0.1158
 5011TIP3   OH236667   2.283   3.506   0.000  0.4882 -0.5666  0.1919
 5011TIP3    H136668   2.322   3.589   0.027 -1.3014  0.8172 -1.3020
 5011TIP3    H236669   2.267   3.516  -0.093 -0.7319 -2.2121  0.1829
 5012TIP3   OH236670   0.114   0.807   7.758 -0.1292  0.7073  0.1911
 5012TIP3    H136671   0.121   0.774   7.668  0.7171  0.4908  0.3283
 5012TIP3    H236672   0.138   0.732   7.813 -0.3344  0.9297  0.5854
 5013TIP3   OH236673   0.084   1.541   7.393 -0.2319 -0.1792  0.1854
 5013TIP3    H136674   0.029   1.464   7.378  0.2479 -0.7678  1.3472
 5013TIP3    H236675   0.029   1.599   7.446 -0.3625  0.0176 -0.1580
 5014TIP3   OH236676   1.043   1.475   8.238  0.2195 -0.0544 -0.0945
 5014TIP3    H136677   1.079   1.413   8.174  1.5343  0.9102 -0.3163
 5014TIP3    H236678   0.973   1.426   8.281  0.7182 -1.4428 -0.7934
 5015TIP3   OH236679   3.007   3.580   0.640  0.1177  0.4443  0.6272
 5015TIP3    H136680   3.048   3.536   0.565  0.4374  0.6661  0.6739
 5015TIP3    H236681   3.068   3.566   0.712 -1.7924 -2.9675  1.8377
 5016TIP3   OH236682   1.546   3.326   2.467  0.5294 -0.6002 -0.3196
 5016TIP3    H136683   1.570   3.280   2.387  0.3265 -0.2955 -0.5621
 5016TIP3    H236684   1.456   3.357   2.450  0.1229 -1.3615  0.4002
 5017TIP3   OH236685   4.287   5.644   1.707  0.4313 -0.0892 -0.0106
 5017TIP3    H136686   4.192   5.633   1.717 -0.1408  2.9731 -1.2375
 5017TIP3    H236687   4.321   5.554   1.709 -2.3661 -1.2514  1.2042
 5018TIP3   OH236688   3.499   4.033   7.711  0.1183  0.1901 -0.3456
 5018TIP3    H136689   3.541   4.103   7.662  1.9908 -0.2863  0.4726
 5018TIP3    H236690   3.487   3.962   7.647  0.5214  0.3615 -0.6105
 5019TIP3   OH236691   5.508   4.993   2.886  0.2438  0.9326  0.2797
 5019TIP3    H136692   5.470   5.081   2.895  4.1015  2.7397  1.0447
 5019TIP3    H236693   5.548   4.993   2.799 -2.3573 -1.3890 -1.0482
 5020TIP3   OH236694   2.757   1.500   2.084 -0.4586 -0.1545  0.0044
 5020TIP3    H136695   2.678   1.520   2.035 -1.0795 -2.3703 -0.0369
 5020TIP3    H236696   2.814   1.456   2.020  0.1372  0.0007  0.4186
 5021TIP3   OH236697   6.639   3.922   2.481 -0.2609 -0.5826 -0.1186
 5021TIP3    H136698   6.629   3.997   2.422 -3.2113 -0.9870 -0.2933
 5021TIP3    H236699   6.636   3.960   2.569  0.5015 -0.3021 -0.2116
 5022TIP3   OH236700   4.276   5.497   1.077  0.0248 -0.1726 -0.1122
 5022TIP3    H136701   4.338   5.441   1.123  2.0551  1.4180 -0.7920
 5022TIP3    H236702   4.320   5.582   1.070 -2.1960  1.0074 -0.7310
 5023TIP3   OH236703   1.668   1.872   7.544 -0.2733  0.0425  0.4291
 5023TIP3    H136704   1.736   1.938   7.557  1.4638 -1.4536 -0.5755
 5023TIP3    H236705   1.621   1.901   7.466 -0.4818  0.8191  0.8330
 5024TIP3   OH236706   6.845   3.063   0.178  0.1915 -0.1014  0.0686
 5024TIP3    H136707   6.835   3.129   0.247  0.3017  0.7515 -0.7162
 5024TIP3    H236708   6.924   3.090   0.130  0.4033 -0.9728 -0.0818
 5025TIP3   OH236709   4.535   4.197   7.075  0.5589  0.8302  0.4291
 5025TIP3    H136710   4.445   4.171   7.055  0.7825 -0.5806  1.1764
 5025TIP3    H236711   4.536   4.292   7.060 -0.7768  0.7152 -0.5675
 5026TIP3   OH236712   6.670   1.045   8.278 -0.1924 -0.0987 -0.3516
 5026TIP3    H136713   6.581   1.050   8.313 -0.1645 -3.2466  0.4894
 5026TIP3    H236714   6.671   0.963   8.228  2.7070 -1.3345  1.4641
 5027TIP3   OH236715   3.536   3.019   0.392 -0.6748 -0.2655 -0.4871
 5027TIP3    H136716   3.527   3.112   0.372 -1.3487  0.5155  2.8280
 5027TIP3    H236717   3.618   2.993   0.351 -0.5078  1.7614 -1.5509
 5028TIP3   OH236718   3.056   3.100   1.060  0.1660  0.0878  0.1669
 5028TIP3    H136719   3.088   3.011   1.073  1.2172  0.5427  0.8055
 5028TIP3    H236720   3.094   3.127   0.976 -1.2119 -0.4980 -0.6850
 5029TIP3   OH236721   2.503   0.658   6.944  0.3778 -0.1454  0.2199
 5029TIP3    H136722   2.440   0.677   6.875 -1.0465  0.9824  1.7541
 5029TIP3    H236723   2.580   0.711   6.923 -0.5151  1.1590  0.1409
 5030TIP3   OH236724   3.546   3.852   0.287  0.1889  0.3779 -0.3078
 5030TIP3    H136725   3.497   3.921   0.333  0.2632  0.8985 -0.9994
 5030TIP3    H236726   3.515   3.857   0.197  1.3047  0.5250 -0.6944
 5031TIP3   OH236727   5.720   1.350   0.926  0.1206 -0.2614  0.4329
 5031TIP3    H136728   5.701   1.340   1.020  1.6995 -0.7913  0.7266
 5031TIP3    H236729   5.717   1.261   0.892  2.4115 -0.4685  0.6093
 5032TIP3   OH236730   2.243   2.084   1.672  0.3366  0.7766 -0.1478
 5032TIP3    H136731   2.297   2.032   1.612  1.1673  0.5862  0.7357
 5032TIP3    H236732   2.201   2.150   1.616  1.2359  0.7269 -0.9031
 5033TIP3   OH236733   6.967   2.095   7.744 -0.2989 -0.4582  0.1864
 5033TIP3    H136734   6.911   2.132   7.676 -1.1610 -2.0805 -0.0300
 5033TIP3    H236735   7.015   2.170   7.779  0.8043  0.3246 -2.7567
 5034TIP3   OH236736   1.018   1.900   1.743  0.2502  0.0483 -0.0803
 5034TIP3    H136737   0.966   1.875   1.819  0.6125 -0.5811 -0.0378
 5034TIP3    H236738   0.953   1.915   1.674  0.0333 -1.3102 -0.1938
 5035TIP3   OH236739   7.004   1.072   7.486  0.7436 -0.8798 -0.7916
 5035TIP3    H136740   7.073   1.107   7.542 -0.1246  0.6969 -0.6489
 5035TIP3    H236741   6.954   1.149   7.459 -0.5955 -1.9201 -1.3782
 5036TIP3   OH236742   0.068   4.086   1.945  0.1140 -0.4261  0.2349
 5036TIP3    H136743   0.024   4.002   1.961 -3.1528  1.1773  0.5854
 5036TIP3    H236744   0.071   4.094   1.850  0.9234 -1.1245  0.1896
 5037TIP3   OH236745   6.839   0.374   8.222  0.0836  0.2467  0.4796
 5037TIP3    H136746   6.792   0.424   8.155 -0.1545  1.0302  1.2110
 5037TIP3    H236747   6.796   0.288   8.222 -1.5664  1.0155  1.3012
 5038TIP3   OH236748   6.085   0.074   8.204 -0.3301 -0.0323  0.2351
 5038TIP3    H136749   6.141   0.060   8.280 -2.4058 -0.1447  1.8501
 5038TIP3    H236750   6.062  -0.014   8.174 -0.3269  0.0074  0.1143
 5039TIP3   OH236751   1.356   2.879   0.611 -0.3568 -0.1337  0.7742
 5039TIP3    H136752   1.361   2.974   0.598 -0.1891 -0.2068  0.2872
 5039TIP3    H236753   1.360   2.843   0.523  0.4506 -0.6343  1.0064
 5040TIP3   OH236754   3.786   2.231   1.201 -0.1993  0.9146  0.1335
 5040TIP3    H136755   3.800   2.299   1.135  1.0323  0.0608 -0.5244
 5040TIP3    H236756   3.865   2.232   1.255 -0.7878  0.9607  1.0248
 5041TIP3   OH236757   2.054   0.223   2.079  0.0022 -0.0374  0.2532
 5041TIP3    H136758   2.081   0.158   2.144 -0.9916 -0.0771  0.6451
 5041TIP3    H236759   2.077   0.184   1.995  3.4319  0.9673  0.5627
 5042TIP3   OH236760   0.987   0.767   2.630 -0.4343 -0.1763 -0.1037
 5042TIP3    H136761   1.004   0.678   2.600  0.4026 -0.9806  2.4870
 5042TIP3    H236762   1.074   0.801   2.652 -0.8191  1.0535 -0.4117
 5043TIP3   OH236763   5.226   2.867   2.303 -0.3296 -0.0471 -0.1759
 5043TIP3    H136764   5.161   2.835   2.241  0.5424 -0.1625 -1.0377
 5043TIP3    H236765   5.173   2.907   2.373 -1.3319 -0.3151 -0.7516
 5044TIP3   OH236766   1.643   6.132   0.983  0.3380 -0.2992 -0.1429
 5044TIP3    H136767   1.670   6.187   1.057 -0.3390  0.5484 -0.5183
 5044TIP3    H236768   1.636   6.044   1.021  2.7251 -0.4233  0.1738
 5045TIP3   OH236769   0.180   5.893   1.199  0.2585  0.1914  0.2399
 5045TIP3    H136770   0.172   5.823   1.264 -0.6286 -0.7131 -0.8001
 5045TIP3    H236771   0.178   5.974   1.250 -3.8231 -0.3230  1.1855
 5046TIP3   OH236772   1.803   6.493   1.055 -0.0884 -0.3215 -0.5581
 5046TIP3    H136773   1.757   6.550   0.994 -0.3992  0.8245  0.6998
 5046TIP3    H236774   1.858   6.552   1.106 -1.2042 -0.9884  1.4963
 5047TIP3   OH236775   2.668   1.518   1.153  0.1256 -0.4981  0.6288
 5047TIP3    H136776   2.634   1.485   1.236 -2.0196  0.6176  0.2586
 5047TIP3    H236777   2.595   1.567   1.115  1.4621  0.0764 -1.3369
 5048TIP3   OH236778   3.574   1.135   7.540 -0.2678 -0.1379 -0.5770
 5048TIP3    H136779   3.498   1.135   7.598  2.0025 -0.2026  2.6714
 5048TIP3    H236780   3.578   1.047   7.505  0.0997 -1.1793  1.8937
 5049TIP3   OH236781   2.007   1.769   0.279  0.2269 -0.1268  0.6008
 5049TIP3    H136782   2.057   1.687   0.277 -0.8260 -0.7772  0.3879
 5049TIP3    H236783   2.037   1.813   0.359  0.3800 -0.9863  1.0242
 5050TIP3   OH236784   3.813   5.145   0.046 -0.1320 -0.7778 -0.1539
 5050TIP3    H136785   3.793   5.232   0.080 -1.9535 -1.6592  1.2433
 5050TIP3    H236786   3.763   5.138  -0.035  0.6187 -0.2731 -0.6692
 5051TIP3   OH236787   6.559   6.889   7.641  0.4047 -0.8661 -0.1677
 5051TIP3    H136788   6.596   6.829   7.577  0.6805 -0.3786 -0.4738
 5051TIP3    H236789   6.525   6.962   7.589  2.4248  0.5246  0.3033
 5052TIP3   OH236790   5.536   1.164   1.887  0.1511 -0.0780 -0.2277
 5052TIP3    H136791   5.618   1.213   1.901 -0.2547  0.7625 -0.7121
 5052TIP3    H236792   5.467   1.227   1.908 -0.3776 -0.6904 -0.1097
 5053TIP3   OH236793   5.656   5.042   7.294  0.4513  0.1632 -0.1259
 5053TIP3    H136794   5.705   4.970   7.334  0.4990  0.6322  0.6867
 5053TIP3    H236795   5.722   5.095   7.249  0.6538  0.6090  0.6837
 5054TIP3   OH236796   0.025   0.525   1.694  0.5061 -0.2055  0.0538
 5054TIP3    H136797   0.110   0.481   1.690  0.6368  0.0666 -0.1512
 5054TIP3    H236798  -0.036   0.463   1.655  0.7900  0.0347 -0.7809
 5055TIP3   OH236799   3.699   5.930   8.190  0.0246  0.0228  0.3919
 5055TIP3    H136800   3.619   5.877   8.190  0.9078 -1.3674  0.6835
 5055TIP3    H236801   3.680   6.002   8.251 -1.0099 -0.2590  0.4188
 5056TIP3   OH236802   6.616   3.461   2.718  0.3596  0.1870 -0.3210
 5056TIP3    H136803   6.610   3.444   2.624  0.4156  1.4157 -0.5610
 5056TIP3    H236804   6.708   3.480   2.734  0.6383 -1.4902  0.2738
 5057TIP3   OH236805   2.408   1.364   8.004 -0.3956 -0.4272 -0.3059
 5057TIP3    H136806   2.316   1.343   7.986 -1.0786 -1.0105  3.1652
 5057TIP3    H236807   2.451   1.279   8.010  0.4566 -0.1544 -1.9827
 5058TIP3   OH236808   2.861   0.954   7.516  0.3701 -0.0842  0.6180
 5058TIP3    H136809   2.849   0.860   7.505  1.0029 -0.3203  1.8100
 5058TIP3    H236810   2.953   0.965   7.539  0.4598  0.9010 -0.1158
 5059TIP3   OH236811   0.161   4.562   1.583 -0.2039 -0.5921 -0.3500
 5059TIP3    H136812   0.250   4.527   1.583 -0.3893 -1.1735  1.3791
 5059TIP3    H236813   0.112   4.503   1.526  0.7585  0.5527 -2.4697
 5060TIP3   OH236814   2.931   3.800   3.407 -0.3934  0.3635 -0.2663
 5060TIP3    H136815   2.877   3.728   3.439  0.6639 -0.1139  0.5166
 5060TIP3    H236816   2.896   3.878   3.451 -0.5093  0.0732  0.1614
 5061TIP3   OH236817   0.047   3.976   3.335  0.4276 -0.1117  0.2844
 5061TIP3    H136818   0.009   4.064   3.339 -1.7158 -0.8407 -2.0260
 5061TIP3    H236819   0.115   3.983   3.268  0.0836 -0.2488 -0.0841
 5062TIP3   OH236820   4.126   0.618   7.567 -0.4765 -0.0869  0.6454
 5062TIP3    H136821   4.075   0.560   7.511 -0.9823  0.2682  0.7386
 5062TIP3    H236822   4.167   0.680   7.506 -1.2037  0.4360  0.6872
 5063TIP3   OH236823   1.125   0.711   1.501 -0.0294 -0.2449 -0.1148
 5063TIP3    H136824   1.039   0.672   1.486 -0.7189 -0.2550  3.1109
 5063TIP3    H236825   1.106   0.799   1.533  1.1769 -0.1372  0.3629
 5064TIP3   OH236826   0.870   0.014   0.152  0.3969  0.1108  0.0475
 5064TIP3    H136827   0.945   0.032   0.095  0.1745  0.3128 -0.1803
 5064TIP3    H236828   0.795   0.013   0.094 -0.0671  1.9751  0.5468
 5065TIP3   OH236829   0.374   6.722   7.170  0.4815 -0.0296  0.2134
 5065TIP3    H136830   0.280   6.712   7.157 -0.3821  2.3152  3.1965
 5065TIP3    H236831   0.405   6.635   7.197 -1.0830 -0.5846  0.2919
 5066TIP3   OH236832   6.658   6.854   8.204  0.0409 -0.3485  0.4996
 5066TIP3    H136833   6.576   6.807   8.216 -1.3035  1.8943  0.6455
 5066TIP3    H236834   6.720   6.787   8.175 -2.2444 -1.8431 -1.3403
 5067TIP3   OH236835   6.620   2.325   2.308  0.0938  0.0021 -0.3091
 5067TIP3    H136836   6.673   2.379   2.249 -1.5843  0.7251 -1.2487
 5067TIP3    H236837   6.584   2.387   2.372  0.7863 -0.5604  0.6516
 5068TIP3   OH236838   5.465   4.476   2.584 -0.4421 -0.5943  0.1522
 5068TIP3    H136839   5.525   4.459   2.511 -0.9208 -0.2582 -0.3304
 5068TIP3    H236840   5.517   4.527   2.646 -0.4337  0.3236 -0.5905
 5069TIP3   OH236841   2.549   5.655   7.409  0.2861  0.0870  0.5660
 5069TIP3    H136842   2.632   5.696   7.384 -0.2203  1.3636  0.8988
 5069TIP3    H236843   2.557   5.564   7.379  0.4235  1.0420 -2.6154
 5070TIP3   OH236844   2.643   4.280   3.733  0.0226 -0.2950  0.0149
 5070TIP3    H136845   2.727   4.250   3.767  1.0437  0.2567 -1.9062
 5070TIP3    H236846   2.665   4.341   3.663 -1.9830 -0.6250 -0.9772
 5071TIP3   OH236847   0.590   3.586   7.364  0.2716 -0.4237  0.3733
 5071TIP3    H136848   0.622   3.556   7.449 -1.0763 -2.8024  0.1150
 5071TIP3    H236849   0.564   3.677   7.380  0.9291 -0.5127  2.2525
 5072TIP3   OH236850   6.739   3.949   0.607 -0.2900 -0.3730 -0.4455
 5072TIP3    H136851   6.698   3.988   0.685 -1.4268 -1.8441 -0.2501
 5072TIP3    H236852   6.833   3.955   0.623 -0.4813  0.6857  0.3550
 5073TIP3   OH236853   4.087   5.932   7.767 -0.1199 -0.1338  0.0107
 5073TIP3    H136854   4.155   5.918   7.832 -0.3075 -1.6279 -0.0856
 5073TIP3    H236855   4.123   5.999   7.709  1.1968 -0.7409  0.0879
 5074TIP3   OH236856   0.450   3.994   0.723  0.6710  0.2431  0.0283
 5074TIP3    H136857   0.485   3.905   0.724  1.0802  0.4073  0.4877
 5074TIP3    H236858   0.407   4.004   0.807  0.0614  0.2612 -0.2824
 5075TIP3   OH236859   1.115   1.678   1.879  0.6121 -0.2215 -0.3554
 5075TIP3    H136860   1.152   1.602   1.835 -1.8145 -1.4718 -0.4059
 5075TIP3    H236861   1.096   1.740   1.809  0.4625 -0.5382 -0.5955
 5076TIP3   OH236862   0.471   4.667   2.562  0.4072 -0.1049 -0.0967
 5076TIP3    H136863   0.383   4.666   2.524  0.6434  2.9497 -0.9511
 5076TIP3    H236864   0.496   4.575   2.566 -2.2371 -0.9683 -1.1820
 5077TIP3   OH236865   4.472   0.405   1.484  0.5246  0.0098  0.2171
 5077TIP3    H136866   4.498   0.491   1.515 -0.3342  0.3875 -0.0648
 5077TIP3    H236867   4.474   0.412   1.388  2.8453 -1.0465  0.1274
 5078TIP3   OH236868   1.796   0.318   2.561  0.3092  0.0002  0.2614
 5078TIP3    H136869   1.808   0.255   2.490 -0.4246  0.5795 -0.4014
 5078TIP3    H236870   1.712   0.294   2.601 -0.3279  0.9707 -0.4557
 5079TIP3   OH236871   6.218   3.987   2.325  0.6032 -0.8643 -0.3232
 5079TIP3    H136872   6.288   4.030   2.373  0.0426  2.3223 -2.0871
 5079TIP3    H236873   6.250   3.981   2.235 -1.4158  1.1215 -1.2916
 5080TIP3   OH236874   2.721   0.131   7.202  0.2391 -0.0022  0.3026
 5080TIP3    H136875   2.782   0.063   7.175  0.7740  0.2986  0.7082
 5080TIP3    H236876   2.697   0.108   7.292 -0.1888 -0.0807  0.1682
 5081TIP3   OH236877   0.616   6.227   2.651  0.0317  0.3913 -0.0582
 5081TIP3    H136878   0.591   6.203   2.562  1.3639 -0.2353 -0.3005
 5081TIP3    H236879   0.687   6.291   2.640  0.7944 -0.3264  0.5171
 5082TIP3   OH236880   3.360   5.037   0.979 -0.2525 -0.3997 -0.4106
 5082TIP3    H136881   3.387   5.079   0.898 -1.3190  1.2080  0.0376
 5082TIP3    H236882   3.325   5.107   1.033  1.1995 -1.2608  1.8171
 5083TIP3   OH236883   5.113   1.677   1.767 -0.1919 -0.2693  0.4859
 5083TIP3    H136884   5.068   1.750   1.724  0.0762 -0.9811 -1.0950
 5083TIP3    H236885   5.139   1.711   1.852  0.7166  1.7910 -0.5425
 5084TIP3   OH236886   3.871   1.403   1.941 -0.0159  0.0280  0.2411
 5084TIP3    H136887   3.810   1.428   2.011  0.9992  2.6927  0.2804
 5084TIP3    H236888   3.858   1.308   1.931 -2.7791  0.1745  1.5160
 5085TIP3   OH236889   3.648   2.841   2.532 -0.1845 -0.3449  0.0515
 5085TIP3    H136890   3.697   2.851   2.613  0.9025 -1.4138 -0.4428
 5085TIP3    H236891   3.596   2.922   2.525  0.4048  0.1662  1.3225
 5086TIP3   OH236892   6.932   1.664   7.555  0.5841 -0.8057  0.4609
 5086TIP3    H136893   6.860   1.625   7.506  2.0574 -2.8171 -0.1925
 5086TIP3    H236894   6.930   1.757   7.530 -1.3411 -0.9341 -0.0193
 5087TIP3   OH236895   0.534   6.499   7.440 -0.3975  0.0515  0.3005
 5087TIP3    H136896   0.566   6.413   7.466  1.5810  0.7153  0.2339
 5087TIP3    H236897   0.536   6.497   7.344 -0.2952  0.1711  0.2991
 5088TIP3   OH236898   4.912   2.716   8.153  0.3094 -0.3036 -0.0147
 5088TIP3    H136899   4.920   2.621   8.160  0.7646 -0.2757 -0.1469
 5088TIP3    H236900   4.835   2.730   8.098  0.0540 -0.5905  0.2639
 5089TIP3   OH236901   3.048   0.776   1.521  0.3129  0.6694  0.8092
 5089TIP3    H136902   3.125   0.772   1.577  2.3709  0.7402 -1.8600
 5089TIP3    H236903   3.036   0.687   1.489  0.3291  0.9948 -0.1207
 5090TIP3   OH236904   3.532   1.155   2.053  0.1886  0.2627  0.1040
 5090TIP3    H136905   3.578   1.239   2.066  0.2122  0.4582 -1.1350
 5090TIP3    H236906   3.602   1.094   2.029  0.0147  0.1914 -0.2273
 5091TIP3   OH236907   0.808   4.106   2.923 -0.2580 -0.0798  0.1925
 5091TIP3    H136908   0.759   4.182   2.895 -0.2065 -0.3394 -0.6129
 5091TIP3    H236909   0.899   4.135   2.924 -0.1192 -0.4172 -1.1467
 5092TIP3   OH236910   3.407   0.007   0.894 -0.0975  0.0544  0.0170
 5092TIP3    H136911   3.349   0.054   0.834 -0.8202 -0.8234  0.0082
 5092TIP3    H236912   3.372  -0.082   0.896 -0.6250  0.2379  2.3744
 5093TIP3   OH236913   4.053   3.292   2.840  0.0628 -0.0741  0.2438
 5093TIP3    H136914   4.077   3.209   2.881 -0.3462 -1.0808 -1.4356
 5093TIP3    H236915   4.123   3.352   2.864  0.1797 -0.7746  1.8018
 5094TIP3   OH236916   2.130   5.864   7.589  0.0660  0.2230 -0.0426
 5094TIP3    H136917   2.080   5.883   7.509 -1.3103  0.1179  0.7732
 5094TIP3    H236918   2.177   5.946   7.608 -1.1457  0.8951  0.1271
 5095TIP3   OH236919   3.978   2.306   2.943 -0.1352  0.5260 -0.0775
 5095TIP3    H136920   3.897   2.256   2.946 -0.4198  1.0260  0.6837
 5095TIP3    H236921   4.043   2.249   2.985 -0.7722  1.3340  2.1412
 5096TIP3   OH236922   5.726   6.906   1.581  0.3557 -0.3297  0.0670
 5096TIP3    H136923   5.692   6.961   1.510 -1.6617 -0.4764  0.8650
 5096TIP3    H236924   5.768   6.833   1.536  0.2437  0.2198 -0.9728
 5097TIP3   OH236925   3.357   1.639   1.250 -0.1444  0.2636  0.0802
 5097TIP3    H136926   3.350   1.597   1.335  0.6307  1.5792  0.8118
 5097TIP3    H236927   3.335   1.570   1.187 -0.0094 -0.9063  1.2959
 5098TIP3   OH236928   2.982   0.115   2.534  0.0551  0.2028 -0.3940
 5098TIP3    H136929   3.033   0.057   2.477  1.4512 -0.0804  1.0809
 5098TIP3    H236930   2.898   0.125   2.489  0.7379 -0.8172 -1.9848
 5099TIP3   OH236931   6.177   2.406   7.871 -0.5630 -0.0700 -0.0629
 5099TIP3    H136932   6.225   2.446   7.943  0.1166  2.2159 -1.6917
 5099TIP3    H236933   6.115   2.347   7.914  0.7959  0.0901  2.2938
 5100TIP3   OH236934   0.351   3.888   1.351  0.3897 -0.2096 -0.3960
 5100TIP3    H136935   0.444   3.905   1.364  0.3626  0.7127 -1.2353
 5100TIP3    H236936   0.347   3.795   1.331  0.5991 -1.3612  3.9724
 5101TIP3   OH236937   6.008   4.412   1.755  0.1835  0.6261  0.0049
 5101TIP3    H136938   6.062   4.347   1.800 -1.1315 -1.5855 -1.4248
 5101TIP3    H236939   6.038   4.410   1.664 -0.1261  1.7583 -0.1363
 5102TIP3   OH236940   5.176   1.102   0.764 -0.1993  0.0987 -0.0822
 5102TIP3    H136941   5.254   1.083   0.816 -0.3431 -3.5524 -0.9652
 5102TIP3    H236942   5.102   1.086   0.823 -0.3178 -1.7959 -0.6969
 5103TIP3   OH236943   4.010   4.782   2.474  0.2244 -0.0689  0.7400
 5103TIP3    H136944   3.972   4.840   2.540  2.2905  0.1007  1.8839
 5103TIP3    H236945   4.065   4.840   2.420 -0.2657 -0.4545 -0.1870
 5104TIP3   OH236946   6.738   4.514   1.476  0.8243 -0.6155  0.0445
 5104TIP3    H136947   6.678   4.440   1.471 -0.5371  0.2650  2.1567
 5104TIP3    H236948   6.788   4.510   1.394 -1.0870 -2.2295 -1.1205
 5105TIP3   OH236949   2.648   3.841   7.690  0.0950  0.0070  0.0453
 5105TIP3    H136950   2.607   3.875   7.770  0.4376  1.2398 -0.2747
 5105TIP3    H236951   2.738   3.824   7.715 -0.4266 -2.2449  0.6194
 5106TIP3   OH236952   2.107   1.526   7.506 -0.1702  0.1421 -0.7892
 5106TIP3    H136953   2.094   1.441   7.548 -1.8780 -1.7451 -4.6189
 5106TIP3    H236954   2.034   1.580   7.539  1.1601  0.4367  1.9881
 5107TIP3   OH236955   4.306   4.906   6.768  0.5576  0.1092  0.8860
 5107TIP3    H136956   4.356   4.832   6.804  1.3371  0.7720  1.2235
 5107TIP3    H236957   4.336   4.981   6.820 -2.2345  0.2688  2.4597
 5108TIP3   OH236958   0.439   0.904   7.895  0.6931 -0.3093 -0.8982
 5108TIP3    H136959   0.429   0.882   7.803 -0.7262 -0.5185 -0.7197
 5108TIP3    H236960   0.350   0.910   7.928  1.1286 -3.6377  1.2805
 5109TIP3   OH236961   6.434   5.826   2.187  0.0598  0.0784  0.3070
 5109TIP3    H136962   6.351   5.796   2.151  1.3850 -2.5717 -0.8212
 5109TIP3    H236963   6.442   5.780   2.270 -0.0204  1.1254  0.9165
 5110TIP3   OH236964   2.081   2.636   1.431  0.6602 -0.1654 -0.1800
 5110TIP3    H136965   1.995   2.622   1.390 -0.0189  0.4377  1.0048
 5110TIP3    H236966   2.064   2.697   1.502  1.9150 -0.8077  0.6937
 5111TIP3   OH236967   4.361   6.975   1.248 -0.2109  0.4758  0.2807
 5111TIP3    H136968   4.436   7.030   1.226  0.4698 -0.3255  0.5348
 5111TIP3    H236969   4.310   6.969   1.167  1.8321 -1.7956 -0.9423
 5112TIP3   OH236970   2.125   5.183   1.121  0.2704  0.1783  0.4094
 5112TIP3    H136971   2.085   5.106   1.081  2.1205 -0.1521 -0.9063
 5112TIP3    H236972   2.144   5.157   1.211 -2.2221  0.3069  1.0622
 5113TIP3   OH236973   4.236   4.741   2.775  0.7577  0.4448  0.2351
 5113TIP3    H136974   4.160   4.705   2.820  1.0205  1.3065  1.3988
 5113TIP3    H236975   4.311   4.701   2.818  0.9912  0.4064 -0.2002
 5114TIP3   OH236976   6.614   6.644   1.650 -0.2583  0.0706 -0.1715
 5114TIP3    H136977   6.556   6.695   1.706 -0.6943 -1.0910  0.4804
 5114TIP3    H236978   6.699   6.645   1.696  0.0703  1.1970 -0.7771
 5115TIP3   OH236979   1.808   0.783   2.979 -0.2442 -0.3116  0.0097
 5115TIP3    H136980   1.784   0.815   3.066 -0.7379 -0.7256  0.0332
 5115TIP3    H236981   1.850   0.699   2.995 -2.2725 -1.4430 -0.2560
 5116TIP3   OH236982   5.348   3.502   0.982  0.1333 -0.0186 -0.0037
 5116TIP3    H136983   5.326   3.547   1.063 -2.2056  1.3567 -1.2949
 5116TIP3    H236984   5.354   3.572   0.917 -1.4595 -1.3153 -1.6624
 5117TIP3   OH236985   5.925   4.188   0.025 -0.4053  0.0783  0.1430
 5117TIP3    H136986   5.894   4.097   0.017  1.3149 -0.4405 -1.3095
 5117TIP3    H236987   5.893   4.231  -0.054  0.0864  0.3263  0.0779
 5118TIP3   OH236988   6.016   3.068   0.919  0.1627 -0.8060 -0.0093
 5118TIP3    H136989   6.039   3.056   0.827  0.8337  1.1850 -0.1715
 5118TIP3    H236990   6.037   3.160   0.936  0.6529 -1.2838  2.3042
 5119TIP3   OH236991   5.088   0.242   1.707  0.3099  0.0991  0.4624
 5119TIP3    H136992   5.151   0.231   1.778  1.9107 -0.7627 -1.0087
 5119TIP3    H236993   5.103   0.166   1.650 -1.9319 -0.0112 -0.0575
 5120TIP3   OH236994   0.909   2.295   8.274  0.4319 -0.6326 -0.1785
 5120TIP3    H136995   0.818   2.297   8.303  0.4224 -0.6290 -0.2083
 5120TIP3    H236996   0.929   2.385   8.250  1.2442 -0.0723  2.2746
 5121TIP3   OH236997   3.207   5.707   8.380  0.2691  0.1262 -0.5816
 5121TIP3    H136998   3.147   5.692   8.453  0.7559 -0.2968 -0.2691
 5121TIP3    H236999   3.149   5.718   8.304 -0.1875 -1.4334 -0.4982
 5122TIP3   OH237000   1.635   2.871   1.961  0.7805 -0.5169 -0.7383
 5122TIP3    H137001   1.661   2.846   2.049  2.9008 -1.5177 -1.5665
 5122TIP3    H237002   1.554   2.822   1.945 -0.8738  1.3587  1.3405
 5123TIP3   OH237003   2.032   2.853   2.480  0.6132 -0.3237 -0.0275
 5123TIP3    H137004   2.113   2.834   2.527  0.9781  0.2027 -0.4265
 5123TIP3    H237005   2.047   2.940   2.442  0.2210 -0.6163 -0.8695
 5124TIP3   OH237006   2.547   7.021   7.999 -0.1039  0.1546  0.4383
 5124TIP3    H137007   2.593   7.075   8.063 -0.1199  0.2384  0.3791
 5124TIP3    H237008   2.485   6.969   8.051 -0.5990  0.7199  0.4132
 5125TIP3   OH237009   7.032   1.202   7.769  0.0187 -0.0518 -0.3642
 5125TIP3    H137010   6.959   1.258   7.743  0.0276  1.2553  2.1567
 5125TIP3    H237011   6.992   1.137   7.828  0.5396 -0.7680 -0.7812
 5126TIP3   OH237012   6.592   6.085   7.869  0.0533 -0.2147 -0.5197
 5126TIP3    H137013   6.523   6.129   7.820  0.7893 -0.3127 -1.6596
 5126TIP3    H237014   6.670   6.137   7.854  0.1311  0.2998  1.3452
 5127TIP3   OH237015   2.619   0.371   1.611  0.3460 -0.7533 -0.1533
 5127TIP3    H137016   2.570   0.340   1.687  0.1437  1.1458  0.5573
 5127TIP3    H237017   2.690   0.424   1.648  0.9132 -0.7157 -1.2550
 5128TIP3   OH237018   6.804   1.994   0.139 -0.2741  0.2218 -0.3913
 5128TIP3    H137019   6.862   1.919   0.130 -0.3537 -0.0817  1.2038
 5128TIP3    H237020   6.791   2.002   0.234 -1.0212  1.6708 -0.5898
 5129TIP3   OH237021   3.217   3.069   8.131  0.3196 -0.2710  0.4906
 5129TIP3    H137022   3.302   3.025   8.138  0.1965 -0.5692  0.1619
 5129TIP3    H237023   3.174   3.051   8.215  0.5481 -0.1889  0.6263
 5130TIP3   OH237024   2.504   6.237   0.133 -0.7603  0.4437  0.2453
 5130TIP3    H137025   2.534   6.222   0.044 -1.8883 -1.7033  0.1639
 5130TIP3    H237026   2.564   6.185   0.187 -1.2768  0.1369  0.5321
 5131TIP3   OH237027   3.213   3.479   7.478  0.7533 -0.4494  0.0026
 5131TIP3    H137028   3.304   3.487   7.447  0.0288  0.7696 -2.0119
 5131TIP3    H237029   3.207   3.389   7.510  2.2479 -1.0823 -1.3325
 5132TIP3   OH237030   2.756   1.015   1.667 -0.0495 -0.0490 -0.4819
 5132TIP3    H137031   2.819   1.003   1.739  1.1057 -2.7854 -1.8025
 5132TIP3    H237032   2.711   0.931   1.661 -1.1091  0.5952 -2.0712
 5133TIP3   OH237033   1.116   3.891   0.567  0.3679 -0.2801 -0.8280
 5133TIP3    H137034   1.050   3.859   0.506 -0.6584  1.2092 -0.5438
 5133TIP3    H237035   1.067   3.939   0.633  1.7356  1.2564 -0.8566
 5134TIP3   OH237036   5.102   5.395   1.245 -0.2374  0.1438 -0.4906
 5134TIP3    H137037   5.179   5.338   1.251 -0.9077 -0.7082  0.0787
 5134TIP3    H237038   5.139   5.480   1.219  0.8411 -0.3678 -0.7216
 5135TIP3   OH237039   0.737   4.741   1.706 -1.0194  0.0253 -0.0497
 5135TIP3    H137040   0.680   4.725   1.782  1.3430 -1.7597  1.4614
 5135TIP3    H237041   0.748   4.655   1.666  2.3218 -0.1890  1.0516
 5136TIP3   OH237042   4.098   4.956   7.653 -0.3579  0.7538 -0.8735
 5136TIP3    H137043   4.039   4.960   7.578 -0.0700  0.3482 -1.1254
 5136TIP3    H237044   4.050   4.906   7.720 -0.5682  1.0155 -0.8305
 5137TIP3   OH237045   2.476   3.126   2.233 -0.1553 -0.1206  0.2709
 5137TIP3    H137046   2.539   3.179   2.184  0.7003 -0.0701  1.3899
 5137TIP3    H237047   2.446   3.061   2.169  0.0808  0.6208 -0.6309
 5138TIP3   OH237048   6.178   1.160   2.542 -0.2363  0.0100 -0.2050
 5138TIP3    H137049   6.198   1.190   2.630  0.2592 -0.0919 -0.2814
 5138TIP3    H237050   6.247   1.198   2.487 -0.3553 -0.1926 -0.4965
 5139TIP3   OH237051   0.972   5.811   1.974 -0.3164 -0.3829 -0.9654
 5139TIP3    H137052   0.996   5.720   1.956 -0.9990 -0.3751 -2.0293
 5139TIP3    H237053   0.909   5.833   1.905 -3.7290 -0.5362  1.8664
 5140TIP3   OH237054   6.813   1.674   7.144 -0.3661 -0.0947 -0.6641
 5140TIP3    H137055   6.848   1.671   7.055 -1.4623 -0.7280 -1.0884
 5140TIP3    H237056   6.819   1.766   7.169 -0.7050  0.2088 -1.6621
 5141TIP3   OH237057   6.000   5.762   2.818 -0.0992  0.1683 -0.3159
 5141TIP3    H137058   5.963   5.850   2.818 -0.9068 -0.1591 -0.8341
 5141TIP3    H237059   6.091   5.774   2.793  1.1117  1.3502  3.8048
 5142TIP3   OH237060   3.193   6.483   1.049 -0.0379  0.1379 -0.1492
 5142TIP3    H137061   3.152   6.471   0.963 -2.4165  0.4329  0.8827
 5142TIP3    H237062   3.150   6.419   1.106  1.3156  0.1273  0.9164
 5143TIP3   OH237063   6.878   6.772   0.466  0.0797 -0.5476  0.5832
 5143TIP3    H137064   6.932   6.844   0.498  0.8959 -1.3374  1.0292
 5143TIP3    H237065   6.899   6.699   0.524 -1.9957 -0.7146  1.2330
 5144TIP3   OH237066   3.941   4.300   7.621 -0.2952 -0.4431  0.9098
 5144TIP3    H137067   3.911   4.384   7.658  2.7266  1.3365 -0.3407
 5144TIP3    H237068   4.025   4.283   7.663  0.6819 -1.1313 -1.1627
 5145TIP3   OH237069   6.109   1.489   7.260  0.4775  0.6939  0.1020
 5145TIP3    H137070   6.180   1.426   7.249 -0.7021 -0.8722  0.9017
 5145TIP3    H237071   6.134   1.564   7.207  2.2482 -0.1988 -0.3969
 5146TIP3   OH237072   1.097   3.091   1.227 -0.4649 -0.0587 -0.0872
 5146TIP3    H137073   1.106   3.143   1.306 -1.0270 -0.4660  0.2565
 5146TIP3    H237074   1.102   3.000   1.257  0.1417 -0.2093 -0.6304
 5147TIP3   OH237075   5.398   5.573   0.017  0.1454 -0.0589  0.1685
 5147TIP3    H137076   5.321   5.561  -0.038  1.1840  1.1761 -1.6452
 5147TIP3    H237077   5.398   5.667   0.038  0.5367 -0.2611  1.1194
 5148TIP3   OH237078   0.271   0.008   8.259 -0.1026  0.0161  0.3504
 5148TIP3    H137079   0.197   0.067   8.247  0.1818  0.3707  0.3091
 5148TIP3    H237080   0.295  -0.018   8.170 -0.1474 -0.0607  0.3611
 5149TIP3   OH237081   2.228   4.396   1.409  0.6279  0.6044  0.1875
 5149TIP3    H137082   2.163   4.443   1.358  1.4123 -1.0305 -2.5132
 5149TIP3    H237083   2.181   4.318   1.441  0.0491  1.7655  2.4443
 5150TIP3   OH237084   3.416   4.183   8.271 -1.3219 -0.1174 -0.0862
 5150TIP3    H137085   3.473   4.260   8.276 -1.0021 -0.4015  0.7418
 5150TIP3    H237086   3.427   4.152   8.181  0.5933 -0.7079  0.3059
 5151TIP3   OH237087   4.466   5.417   0.465 -0.0987  0.5395  0.0129
 5151TIP3    H137088   4.483   5.495   0.411 -0.3013  0.5820  0.0085
 5151TIP3    H237089   4.546   5.405   0.515  0.8524 -0.6463 -1.7107
 5152TIP3   OH237090   4.103   0.309   0.189  0.0074 -0.4839  0.4753
 5152TIP3    H137091   4.196   0.324   0.202 -0.0371  0.6723 -0.3448
 5152TIP3    H237092   4.095   0.216   0.170  1.0105 -0.5627  0.3991
 5153TIP3   OH237093   6.759   4.177   2.369 -0.1941  0.8041  0.2311
 5153TIP3    H137094   6.741   4.146   2.280 -0.2534 -0.7495  0.7507
 5153TIP3    H237095   6.852   4.198   2.369  0.6604 -2.5293  0.6801
 5154TIP3   OH237096   3.902   2.583   7.566 -0.5760  0.3873  0.5363
 5154TIP3    H137097   3.883   2.533   7.487  0.0008 -0.1619  0.7325
 5154TIP3    H237098   3.836   2.652   7.567 -1.2089 -0.1896  0.1004
 5155TIP3   OH237099   1.706   0.806   2.552 -0.1630  0.6405  0.0014
 5155TIP3    H137100   1.766   0.879   2.567  0.7331 -0.2014  0.6722
 5155TIP3    H237101   1.758   0.728   2.573 -1.5056 -0.1154  0.6591
 5156TIP3   OH237102   2.837   5.080   2.187  1.0346  0.4977 -0.1309
 5156TIP3    H137103   2.771   5.058   2.122  0.5932 -1.7805  0.9891
 5156TIP3    H237104   2.791   5.135   2.251  0.5870  0.0667 -0.0781
 5157TIP3   OH237105   1.382   3.713   1.812 -0.5454  0.0877  0.3270
 5157TIP3    H137106   1.317   3.779   1.786 -0.2759  0.2986  0.1939
 5157TIP3    H237107   1.414   3.677   1.730 -2.1829 -1.6802  0.3968
 5158TIP3   OH237108   5.711   1.721   1.046 -0.2928  0.0476 -0.4220
 5158TIP3    H137109   5.766   1.780   0.995 -2.2220  1.7859 -0.6113
 5158TIP3    H237110   5.683   1.654   0.983  0.1826  0.1393 -0.7389
 5159TIP3   OH237111   5.296   2.359   1.031  0.1660 -0.3891  0.6537
 5159TIP3    H137112   5.312   2.337   0.939  1.5818  1.8700  0.2859
 5159TIP3    H237113   5.336   2.287   1.080 -0.2272 -1.4134 -0.4649
 5160TIP3   OH237114   4.156   5.510   2.600  0.0495  0.0284  0.3812
 5160TIP3    H137115   4.228   5.510   2.663 -0.1388 -0.1457  0.5958
 5160TIP3    H237116   4.091   5.570   2.638 -0.3944 -0.6705  0.7320
 5161TIP3   OH237117   2.069   0.394   6.997 -0.2730 -0.1323  0.1052
 5161TIP3    H137118   2.059   0.311   6.950 -0.8292 -0.0882  0.1477
 5161TIP3    H237119   2.164   0.401   7.012 -0.1163 -0.2676 -0.7834
 5162TIP3   OH237120   6.080   6.920   7.369 -0.2764 -0.7318 -0.5274
 5162TIP3    H137121   6.005   6.877   7.329 -0.0174 -0.8405 -0.8969
 5162TIP3    H237122   6.132   6.953   7.295  0.2947 -1.0852 -0.2896
 5163TIP3   OH237123   2.543   6.569   1.932  0.1271  0.0287 -0.1968
 5163TIP3    H137124   2.472   6.631   1.951 -0.2585 -0.0025 -1.4582
 5163TIP3    H237125   2.525   6.495   1.991  0.5022  1.0085  1.2101
 5164TIP3   OH237126   4.718   6.024   1.775  0.1959  0.3772 -0.4404
 5164TIP3    H137127   4.666   6.104   1.780  1.2123  0.9928  0.6041
 5164TIP3    H237128   4.656   5.958   1.742 -1.0189  1.2672 -0.0185
 5165TIP3   OH237129   3.332   5.262   1.207  0.4185  0.1029 -0.3075
 5165TIP3    H137130   3.237   5.250   1.215  0.4139  0.9755  1.4547
 5165TIP3    H237131   3.370   5.189   1.256  0.5938  0.8621  0.7220
 5166TIP3   OH237132   1.709   4.546   0.260  0.1139 -0.2438 -0.1159
 5166TIP3    H137133   1.661   4.497   0.193  0.8345 -1.2549  0.0797
 5166TIP3    H237134   1.801   4.536   0.235  0.5143 -1.7872  1.7069
 5167TIP3   OH237135   6.298   5.958   0.892  0.1344 -0.6295  0.1251
 5167TIP3    H137136   6.267   5.966   0.982  0.7380 -0.2925  0.3115
 5167TIP3    H237137   6.319   6.048   0.866  3.7907 -1.0443  1.0521
 5168TIP3   OH237138   1.516   0.342   8.231 -0.4562  0.4835 -0.2015
 5168TIP3    H137139   1.508   0.396   8.310  0.2858  0.9004 -0.4076
 5168TIP3    H237140   1.609   0.323   8.224 -0.5008  0.5631 -1.0544
 5169TIP3   OH237141   5.428   6.214   1.608  0.5258  0.2205  0.4745
 5169TIP3    H137142   5.403   6.256   1.690 -1.2882 -0.5349  0.3550
 5169TIP3    H237143   5.465   6.285   1.555  0.5232  0.9765  1.4546
 5170TIP3   OH237144   4.192   4.751   0.124  0.4713  0.3380  0.0235
 5170TIP3    H137145   4.163   4.759   0.033 -0.4890 -0.1604  0.2727
 5170TIP3    H237146   4.240   4.832   0.141 -0.8158  1.2276 -0.4054
 5171TIP3   OH237147   6.309   3.872   7.185 -0.3708 -0.0327  0.1178
 5171TIP3    H137148   6.242   3.806   7.201 -1.4169  1.0619  0.3860
 5171TIP3    H237149   6.339   3.854   7.095 -0.4496 -1.0074  0.2741
 5172TIP3   OH237150   2.816   2.413   7.110 -0.2418 -0.1548  0.1858
 5172TIP3    H137151   2.760   2.478   7.068  1.3567  0.8988 -0.4087
 5172TIP3    H237152   2.886   2.465   7.150  0.3355 -1.4286  0.8755
 5173TIP3   OH237153   4.918   4.763   0.016  0.1031  0.1623 -0.6872
 5173TIP3    H137154   4.847   4.701  -0.002 -1.5585  2.0191 -0.8947
 5173TIP3    H237155   4.933   4.807  -0.068  0.6026  0.6698 -0.3400
 5174TIP3   OH237156   4.332   4.827   0.792 -1.1669  0.1837 -0.1364
 5174TIP3    H137157   4.294   4.856   0.875  0.7183 -1.3653  1.3606
 5174TIP3    H237158   4.293   4.741   0.777  0.9788 -1.0573  0.9890
 5175TIP3   OH237159   4.022   2.785   0.061  0.0476  0.3103 -0.0809
 5175TIP3    H137160   4.007   2.743   0.146 -0.2539  0.6516  0.0416
 5175TIP3    H237161   4.117   2.788   0.052  0.1615  1.9708  1.1316
 5176TIP3   OH237162   3.460   5.623   7.860 -0.2877  0.1374 -0.0347
 5176TIP3    H137163   3.398   5.680   7.905 -1.5057  0.7190 -2.3158
 5176TIP3    H237164   3.442   5.535   7.894 -0.2327  0.7185  1.5528
 5177TIP3   OH237165   5.576   6.344   0.625 -0.6781  0.0880 -0.1838
 5177TIP3    H137166   5.625   6.331   0.545  0.6667 -1.0940  0.7844
 5177TIP3    H237167   5.542   6.257   0.647 -2.0983  0.6324 -0.1221
 5178TIP3   OH237168   0.527   1.631   1.495  0.5250  0.3677  0.1261
 5178TIP3    H137169   0.468   1.701   1.466  2.0128  1.7242  0.2525
 5178TIP3    H237170   0.489   1.551   1.457  0.3149  1.5798 -2.4671
 5179TIP3   OH237171   4.168   5.992   1.872 -0.4900  0.4540 -0.0791
 5179TIP3    H137172   4.142   5.900   1.881 -0.1070  0.3607  0.1106
 5179TIP3    H237173   4.106   6.040   1.927  0.2995  0.1393  1.1101
 5180TIP3   OH237174   2.614   3.957   8.340 -0.1218 -0.1100  0.0610
 5180TIP3    H137175   2.620   3.869   8.377 -1.1507  1.3579  4.2451
 5180TIP3    H237176   2.699   3.971   8.297  1.7899 -1.6772  3.0314
 5181TIP3   OH237177   4.161   5.580   0.269 -0.3218 -0.2830  0.4883
 5181TIP3    H137178   4.075   5.616   0.245 -0.8528 -1.1757  1.0065
 5181TIP3    H237179   4.188   5.633   0.344 -1.2142 -1.0819  1.4050
 5182TIP3   OH237180   1.888   4.381   2.920 -0.0977  0.1868  0.0111
 5182TIP3    H137181   1.959   4.354   2.979 -1.5999 -2.1287  0.9169
 5182TIP3    H237182   1.824   4.422   2.978 -1.4382 -1.8057  0.0274
 5183TIP3   OH237183   4.741   4.461   1.446  0.6704 -0.1720 -0.1199
 5183TIP3    H137184   4.819   4.516   1.436  0.2194  0.1480 -2.6175
 5183TIP3    H237185   4.727   4.423   1.360 -0.6502 -2.0534  0.8487
 5184TIP3   OH237186   5.561   5.946   7.501 -0.0397  0.0354 -0.6304
 5184TIP3    H137187   5.591   5.968   7.589  0.6259  0.6675 -1.0067
 5184TIP3    H237188   5.567   5.851   7.497 -1.6602 -0.1659  0.5602
 5185TIP3   OH237189   4.214   6.897   0.526  0.2536  0.3211 -0.3298
 5185TIP3    H137190   4.277   6.968   0.516  0.5941 -0.1386 -1.5892
 5185TIP3    H237191   4.267   6.818   0.532 -0.1461  0.1018  0.5387
 5186TIP3   OH237192   5.600   6.026   1.323  0.5112  0.5959  0.4608
 5186TIP3    H137193   5.591   6.015   1.417 -0.3562  1.4435  0.4805
 5186TIP3    H237194   5.592   5.937   1.288  3.5641 -0.1587  1.3424
 5187TIP3   OH237195   5.672   3.581   2.001 -0.2867  0.3204 -0.3991
 5187TIP3    H137196   5.669   3.544   1.912 -0.0725 -1.3115  0.2447
 5187TIP3    H237197   5.617   3.523   2.053 -0.9120  1.6105  0.4425
 5188TIP3   OH237198   3.970   0.306   0.808  0.4350 -0.5051 -0.4943
 5188TIP3    H137199   3.959   0.222   0.763  0.0701  0.1534 -1.6787
 5188TIP3    H237200   3.883   0.326   0.843  0.5224 -0.6219 -0.2098
 5189TIP3   OH237201   0.632   3.405   0.168  0.5079 -0.6748 -0.4639
 5189TIP3    H137202   0.619   3.454   0.249  2.6399 -0.1620 -0.3768
 5189TIP3    H237203   0.621   3.313   0.193 -1.1194 -0.4214 -0.1220
 5190TIP3   OH237204   2.866   2.966   1.854  0.0131  0.4195 -0.6458
 5190TIP3    H137205   2.871   3.002   1.942 -2.5935  1.2932 -0.7672
 5190TIP3    H237206   2.784   3.001   1.819 -1.2445 -3.2899 -1.8460
 5191TIP3   OH237207   3.467   5.704   2.940 -0.0541  0.2307 -0.0424
 5191TIP3    H137208   3.466   5.771   3.009  1.7435 -0.3760  0.6453
 5191TIP3    H237209   3.441   5.751   2.861  1.0100  1.7302  0.4466
 5192TIP3   OH237210   6.738   5.167   2.857  0.1903  0.7646  0.4720
 5192TIP3    H137211   6.678   5.104   2.896 -1.8662  0.5141 -2.6566
 5192TIP3    H237212   6.722   5.248   2.904  0.0445 -0.1451  2.0452
 5193TIP3   OH237213   3.779   2.662   0.256  0.8719 -0.3372 -0.4949
 5193TIP3    H137214   3.700   2.610   0.270  1.4015 -0.9423  0.3420
 5193TIP3    H237215   3.747   2.749   0.232 -0.0865 -0.1110  1.4377
 5194TIP3   OH237216   3.946   5.785   0.659 -0.1014 -0.6475  0.0261
 5194TIP3    H137217   3.980   5.696   0.666 -1.9833 -1.3274  1.5529
 5194TIP3    H237218   3.885   5.781   0.585  1.2401 -0.0647 -1.1581
 5195TIP3   OH237219   3.123   1.216   7.918 -0.2805 -0.1558 -0.0436
 5195TIP3    H137220   3.038   1.235   7.879  0.3712 -0.1335 -1.4959
 5195TIP3    H237221   3.178   1.290   7.892  0.5753 -0.8975 -0.3930
 5196TIP3   OH237222   6.698   3.284   3.203  0.6932 -0.0033  0.0281
 5196TIP3    H137223   6.685   3.364   3.254 -0.3466  0.2163 -0.5634
 5196TIP3    H237224   6.793   3.271   3.202  0.9014  1.4346 -0.2133
 5197TIP3   OH237225   4.989   6.991   2.584  0.2731  0.5756 -0.9358
 5197TIP3    H137226   4.967   7.052   2.654  0.7086  0.8245 -1.0102
 5197TIP3    H237227   5.017   6.911   2.629 -1.1243  0.1184 -0.8414
 5198TIP3   OH237228   3.451   5.760   8.191  0.1025 -0.8426 -0.4307
 5198TIP3    H137229   3.396   5.774   8.268 -0.7790  0.2028 -1.2208
 5198TIP3    H237230   3.392   5.773   8.117  1.0066 -1.5209 -1.2930
 5199TIP3   OH237231   4.613   1.075   1.081 -0.0163 -0.2979  0.5026
 5199TIP3    H137232   4.684   1.108   1.026  0.1540 -0.3353  0.6990
 5199TIP3    H237233   4.533   1.093   1.031  0.1503 -0.4692  0.1751
 5200TIP3   OH237234   0.947   4.440   1.429 -0.6383  0.0022  0.1405
 5200TIP3    H137235   1.022   4.406   1.478  0.7185  1.2205 -0.9689
 5200TIP3    H237236   0.886   4.367   1.425 -0.3256 -0.4744  2.6215
 5201TIP3   OH237237   6.575   3.736   0.514  0.5132 -0.6115 -0.2540
 5201TIP3    H137238   6.481   3.747   0.500  0.7691  0.4044 -1.3560
 5201TIP3    H237239   6.614   3.816   0.478  1.9692 -1.9503 -1.7774
 5202TIP3   OH237240   4.521   3.866   3.191 -0.3031 -0.2620  0.1126
 5202TIP3    H137241   4.520   3.947   3.140 -0.8418 -0.0532  0.4417
 5202TIP3    H237242   4.614   3.841   3.194 -0.2205 -0.0772 -0.6364
 5203TIP3   OH237243   5.307   3.355   8.380  0.1631 -0.0901 -0.0173
 5203TIP3    H137244   5.313   3.275   8.432 -0.2874 -0.7806 -1.0043
 5203TIP3    H237245   5.360   3.419   8.429  2.3760 -1.5756 -0.3109
 5204TIP3   OH237246   2.649   2.857   0.286 -0.0821  0.0117 -0.3012
 5204TIP3    H137247   2.624   2.774   0.328  2.2789  0.2615  1.8738
 5204TIP3    H237248   2.644   2.921   0.357 -1.5703  1.7351 -1.8722
 5205TIP3   OH237249   1.580   2.303   0.470  0.2194  0.0228 -0.0770
 5205TIP3    H137250   1.649   2.300   0.537  0.3203  2.1170 -0.0130
 5205TIP3    H237251   1.517   2.366   0.504 -1.3578 -1.2540 -0.5214
 5206TIP3   OH237252   6.319   3.480   7.210 -0.3140 -0.1850  0.0074
 5206TIP3    H137253   6.270   3.398   7.214 -0.0367 -0.3304  0.5461
 5206TIP3    H237254   6.256   3.543   7.175  0.3883 -1.2512 -3.5171
 5207TIP3   OH237255   1.139   4.546   2.710 -0.3372  0.2382  0.1872
 5207TIP3    H137256   1.100   4.627   2.743 -1.7331 -1.2445  2.4876
 5207TIP3    H237257   1.221   4.538   2.758  0.7612  1.1769 -1.4497
 5208TIP3   OH237258   0.052   1.553   1.407  1.1777  0.5970  0.1962
 5208TIP3    H137259   0.121   1.619   1.412  1.6922 -0.0519  2.9300
 5208TIP3    H237260   0.070   1.493   1.479  0.7800 -2.6743 -2.2331
 5209TIP3   OH237261   4.580   4.102   3.045 -0.1068 -0.0148  0.2725
 5209TIP3    H137262   4.670   4.112   3.015 -0.2723  0.5827 -0.0468
 5209TIP3    H237263   4.572   4.166   3.116 -1.0097  1.8422 -1.3923
 5210TIP3   OH237264   4.949   5.825   0.178  0.0320 -0.2384  0.3755
 5210TIP3    H137265   4.918   5.757   0.238 -0.9700  1.3935  1.8087
 5210TIP3    H237266   4.910   5.905   0.211 -0.4288  0.7868 -2.3987
 5211TIP3   OH237267   3.322   2.631   1.466  0.4997 -0.1687 -0.6187
 5211TIP3    H137268   3.319   2.580   1.385 -0.1245  0.8977 -1.3007
 5211TIP3    H237269   3.404   2.679   1.460  0.8358 -0.6883 -0.2280
 5212TIP3   OH237270   5.411   5.878   0.941 -0.2295  0.2750  0.2553
 5212TIP3    H137271   5.479   5.821   0.977  1.9341  2.5048 -0.0370
 5212TIP3    H237272   5.395   5.943   1.009  1.2343  2.3617 -1.2727
 5213TIP3   OH237273   4.628   2.947   2.253 -0.1061 -0.5689  0.2372
 5213TIP3    H137274   4.586   2.936   2.168  0.8856 -1.0247 -0.2053
 5213TIP3    H237275   4.660   2.860   2.276 -1.6396 -0.7910  1.7886
 5214TIP3   OH237276   1.032   1.276   0.767 -0.3422  0.3210 -0.2579
 5214TIP3    H137277   1.065   1.305   0.682 -0.5782  1.1011 -0.0983
 5214TIP3    H237278   1.111   1.255   0.817 -0.2554 -1.8081 -1.2039
 5215TIP3   OH237279   2.198   3.177   2.462 -0.6689 -0.1204 -0.3785
 5215TIP3    H137280   2.145   3.199   2.385 -1.4196  1.6200  0.5883
 5215TIP3    H237281   2.269   3.241   2.461 -0.6845 -0.0916  0.3703
 5216TIP3   OH237282   1.279   5.487   2.653 -0.9332  0.1566  0.1918
 5216TIP3    H137283   1.258   5.482   2.746 -0.0987 -1.0222  0.3449
 5216TIP3    H237284   1.293   5.581   2.636  0.1130  0.2692  1.5467
 5217TIP3   OH237285   6.475   2.100   0.149  0.7496 -0.0974  0.4280
 5217TIP3    H137286   6.566   2.075   0.132  0.5623 -1.1309  0.8025
 5217TIP3    H237287   6.431   2.016   0.167 -0.5350  0.2584 -0.8887
 5218TIP3   OH237288   4.807   1.912   1.150  0.2329  0.5654  0.6091
 5218TIP3    H137289   4.894   1.881   1.124  0.4902 -0.4532  2.5138
 5218TIP3    H237290   4.824   1.991   1.201  0.1599 -0.2751  1.9674
 5219TIP3   OH237291   6.971   1.077   7.145 -0.1438 -0.2451  0.0134
 5219TIP3    H137292   6.876   1.069   7.158 -0.5939  1.0499 -2.0392
 5219TIP3    H237293   7.008   1.062   7.232 -2.3193  0.7571  1.2022
 5220TIP3   OH237294   3.234   3.844   0.129  0.4542  0.5586  0.4903
 5220TIP3    H137295   3.194   3.931   0.139 -0.1984  0.2299  0.8128
 5220TIP3    H237296   3.228   3.805   0.216  1.1818  0.3645  0.4622
 5221TIP3   OH237297   0.293   0.423   1.323  0.7820  0.0306  0.3360
 5221TIP3    H137298   0.359   0.362   1.290  0.2104 -0.7586  0.6424
 5221TIP3    H237299   0.209   0.384   1.299  0.4083  0.8071  0.3416
 5222TIP3   OH237300   3.679   5.064   0.396  0.1978  0.8510  1.2304
 5222TIP3    H137301   3.587   5.049   0.372  0.5615  0.9680 -0.2944
 5222TIP3    H237302   3.720   4.978   0.386  0.7908  1.3228 -0.6527
 5223TIP3   OH237303   2.478   7.031   1.111 -0.3738 -0.7085 -0.1227
 5223TIP3    H137304   2.411   7.017   1.178 -0.4372  1.2134  0.2577
 5223TIP3    H237305   2.499   7.124   1.117  3.2790 -1.4432  0.6623
 5224TIP3   OH237306   2.189   2.629   3.163  0.1760 -0.4010 -0.0622
 5224TIP3    H137307   2.200   2.561   3.096  0.5318  1.3057 -1.8246
 5224TIP3    H237308   2.274   2.673   3.166 -0.8940  1.9390 -1.2804
 5225TIP3   OH237309   4.052   4.790   1.386  0.2059  0.0413  0.8638
 5225TIP3    H137310   4.094   4.790   1.473  0.6564  0.5520  0.6515
 5225TIP3    H237311   4.062   4.880   1.355  1.9499 -0.6148 -0.6321
 5226TIP3   OH237312   0.166   2.697   1.764  0.3241  0.0572 -0.0192
 5226TIP3    H137313   0.221   2.620   1.757  1.1536  0.7146 -1.1195
 5226TIP3    H237314   0.183   2.731   1.852  1.5440  0.1238 -0.2597
 5227TIP3   OH237315   1.691   5.717   6.942 -0.5220 -0.2907  0.6686
 5227TIP3    H137316   1.623   5.695   6.879 -2.3812 -0.0889  2.5038
 5227TIP3    H237317   1.754   5.770   6.892 -1.2496 -1.1466 -1.2708
 5228TIP3   OH237318   4.024   1.201   1.351 -0.5092  0.1336 -0.9691
 5228TIP3    H137319   4.078   1.267   1.308  1.7024 -0.1805  1.1069
 5228TIP3    H237320   4.006   1.237   1.438 -3.0777 -0.1437 -1.2834
 5229TIP3   OH237321   1.532   4.161   0.796 -0.0268 -0.4710 -0.0016
 5229TIP3    H137322   1.484   4.120   0.725 -2.3834  0.6931  0.8092
 5229TIP3    H237323   1.485   4.242   0.814  0.5426 -0.6292  2.7580
 5230TIP3   OH237324   0.109   0.090   1.393 -0.4145  0.3415 -0.1205
 5230TIP3    H137325   0.035   0.029   1.392 -0.3330  0.1683 -3.1237
 5230TIP3    H237326   0.179   0.042   1.438 -0.9688 -1.0357 -0.6831
 5231TIP3   OH237327   1.840   2.105   0.415  0.3961 -0.1024 -0.4361
 5231TIP3    H137328   1.809   2.054   0.340  1.1906  1.9584 -2.2590
 5231TIP3    H237329   1.924   2.065   0.438 -0.0816 -1.0519 -0.3151
 5232TIP3   OH237330   0.826   4.534   3.683 -0.4576 -0.4736 -0.2504
 5232TIP3    H137331   0.827   4.538   3.587 -1.6203 -0.0249 -0.2589
 5232TIP3    H237332   0.858   4.620   3.711  0.6371 -0.8781 -0.2165
 5233TIP3   OH237333   4.195   6.888   1.452  0.3093 -0.7111  0.2240
 5233TIP3    H137334   4.247   6.890   1.371  0.5536 -2.4803  0.2937
 5233TIP3    H237335   4.254   6.852   1.518 -0.2647 -0.4295  0.9063
 5234TIP3   OH237336   2.099   4.360   2.465  0.2584 -0.2574 -0.1174
 5234TIP3    H137337   2.060   4.304   2.532 -0.8305 -0.4198 -0.8726
 5234TIP3    H237338   2.193   4.359   2.486 -0.2556  1.7851  2.9902
 5235TIP3   OH237339   1.947   0.954   1.119  0.3038  0.4583  0.0345
 5235TIP3    H137340   1.886   0.880   1.116 -0.6527  1.2058  0.3900
 5235TIP3    H237341   2.034   0.914   1.119 -0.1864 -0.6456 -0.2217
 5236TIP3   OH237342   2.218   2.198   0.273  0.2733  0.0726  0.5916
 5236TIP3    H137343   2.301   2.197   0.225  0.7202 -1.1529  1.3665
 5236TIP3    H237344   2.157   2.152   0.215  0.9043 -1.7387  1.3142
 5237TIP3   OH237345   5.640   3.352   0.419  0.4125  0.9964  0.6600
 5237TIP3    H137346   5.727   3.314   0.418 -0.0091 -0.0058  0.2260
 5237TIP3    H237347   5.607   3.334   0.507  0.0886  0.0101  0.3548
 5238TIP3   OH237348   4.805   6.397   2.755 -0.4345  0.3224  0.0875
 5238TIP3    H137349   4.792   6.305   2.731 -0.1202  0.3599 -0.2399
 5238TIP3    H237350   4.900   6.407   2.757 -0.4393  0.3114  1.4150
 5239TIP3   OH237351   2.521   2.243   7.835 -0.2741 -0.1348 -0.2405
 5239TIP3    H137352   2.604   2.196   7.845 -0.0577  0.5576  1.8955
 5239TIP3    H237353   2.482   2.241   7.923 -3.3448 -1.8092 -1.4864
 5240TIP3   OH237354   3.441   6.412   3.157 -0.0688  0.8206 -0.2734
 5240TIP3    H137355   3.405   6.418   3.069 -0.5861 -0.5281 -0.1766
 5240TIP3    H237356   3.491   6.331   3.157  1.1745  1.5626  0.2528
 5241TIP3   OH237357   0.499   2.224   2.620  0.6454 -0.2148  0.3015
 5241TIP3    H137358   0.505   2.320   2.614  0.4166 -0.2164  0.0100
 5241TIP3    H237359   0.579   2.198   2.665  0.5533  0.1419  0.6774
 5242TIP3   OH237360   0.888   0.065   0.638  0.3018 -0.3219  0.2707
 5242TIP3    H137361   0.918   0.155   0.650 -1.3623  0.2993  0.1067
 5242TIP3    H237362   0.847   0.043   0.722 -0.4695 -0.4222 -0.1213
 5243TIP3   OH237363   3.418   0.933   7.795  0.1442 -0.0960 -0.1708
 5243TIP3    H137364   3.427   0.934   7.700  0.8098  0.8497 -0.1099
 5243TIP3    H237365   3.332   0.895   7.810 -0.9959  1.8460 -1.2636
 5244TIP3   OH237366   5.329   6.463   0.051 -0.0585 -1.0277  0.2359
 5244TIP3    H137367   5.354   6.433   0.138  0.6837 -3.3351 -0.6987
 5244TIP3    H237368   5.237   6.438   0.043 -0.1784 -0.6506  0.4098
 5245TIP3   OH237369   0.934   5.883   0.955 -0.9848  0.1871  0.4275
 5245TIP3    H137370   1.016   5.836   0.972  0.1392  1.7015 -0.5624
 5245TIP3    H237371   0.921   5.938   1.032 -0.7892  0.3230  0.3644
 5246TIP3   OH237372   2.046   2.627   0.121 -0.4001  0.3022 -0.0701
 5246TIP3    H137373   2.061   2.629   0.026 -0.3714  0.3111 -0.0653
 5246TIP3    H237374   1.995   2.706   0.139  1.2010  1.3067  0.2042
 5247TIP3   OH237375   6.957   2.602   2.015  0.1856  0.2221  0.5194
 5247TIP3    H137376   6.925   2.595   1.925  2.0192 -0.0376 -0.1588
 5247TIP3    H237377   7.038   2.652   2.008  1.1424 -1.0591  1.8112
 5248TIP3   OH237378   0.558   5.110   3.114 -0.0883 -0.4165 -0.0576
 5248TIP3    H137379   0.564   5.071   3.201  1.0074  0.5958  0.3543
 5248TIP3    H237380   0.466   5.098   3.088 -0.8362  0.6050  1.9024
 5249TIP3   OH237381   1.308   5.359   7.910  0.0959 -0.1705 -0.7852
 5249TIP3    H137382   1.236   5.301   7.937  0.4236 -0.1300  0.2261
 5249TIP3    H237383   1.279   5.446   7.937  0.0832 -0.0076 -1.3122
 5250TIP3   OH237384   0.358   1.235   2.411 -0.5075  0.2061  0.0534
 5250TIP3    H137385   0.367   1.191   2.326 -1.5576 -0.6224  0.3577
 5250TIP3    H237386   0.275   1.203   2.446 -0.3686  0.9926  1.1410
 5251TIP3   OH237387   2.333   5.346   1.074  0.4752  0.3229 -0.1387
 5251TIP3    H137388   2.357   5.369   1.163 -1.3689  0.7385  0.2801
 5251TIP3    H237389   2.264   5.280   1.083  0.7233 -0.1291 -1.2764
 5252TIP3   OH237390   5.647   3.868   1.181  0.1138 -0.2257 -0.2752
 5252TIP3    H137391   5.684   3.956   1.193 -3.2182  1.2908  0.0639
 5252TIP3    H237392   5.583   3.878   1.110  0.7426 -2.8146 -1.3177
 5253TIP3   OH237393   5.999   3.990   2.018  0.1155  0.5090 -0.3863
 5253TIP3    H137394   6.074   4.026   1.972  0.8045 -1.5037 -0.9348
 5253TIP3    H237395   6.003   3.896   2.001 -2.1356  0.2525  0.1444
 5254TIP3   OH237396   6.647   2.524   0.518  0.2334  0.3554  0.2075
 5254TIP3    H137397   6.565   2.488   0.483  0.2916 -0.2098  0.6427
 5254TIP3    H237398   6.704   2.533   0.441  0.4616 -1.1382  0.1666
 5255TIP3   OH237399   2.052   1.337   8.176  0.0842  0.1023  0.1960
 5255TIP3    H137400   1.964   1.371   8.188  0.2877  0.3640  1.0006
 5255TIP3    H237401   2.101   1.410   8.136 -0.1506 -0.1647 -0.5845
 5256TIP3   OH237402   2.519   0.103   1.778 -0.5020  0.0714 -0.0391
 5256TIP3    H137403   2.579   0.156   1.831 -0.7620  1.5672 -1.1830
 5256TIP3    H237404   2.432   0.128   1.808 -0.8113  2.8970 -2.7284
 5257TIP3   OH237405   1.161   0.269   7.822  0.2577  0.3131  0.6811
 5257TIP3    H137406   1.139   0.211   7.749  3.0637  2.6378 -2.3289
 5257TIP3    H237407   1.226   0.220   7.873 -0.3501 -0.6214  0.5817
 5258TIP3   OH237408   5.414   1.165   2.161  0.1310 -0.4634 -0.2966
 5258TIP3    H137409   5.492   1.218   2.178 -0.3744  0.4384 -0.6898
 5258TIP3    H237410   5.447   1.085   2.121  0.8529 -0.0759 -0.4917
 5259TIP3   OH237411   1.949   5.471   1.707 -0.4987  0.2832  0.4545
 5259TIP3    H137412   1.987   5.511   1.628 -1.8139 -2.7450 -1.9225
 5259TIP3    H237413   1.874   5.527   1.728  0.1152  1.3824 -0.1685
 5260TIP3   OH237414   4.593   0.621   1.624  0.3491  0.0155 -0.4029
 5260TIP3    H137415   4.526   0.585   1.682 -1.7301  1.7029 -1.5838
 5260TIP3    H237416   4.673   0.573   1.646 -0.8318 -0.9191  2.2763
 5261TIP3   OH237417   6.172   2.360   1.606 -0.2564  0.5027 -0.2961
 5261TIP3    H137418   6.145   2.273   1.637 -0.9377  1.1817  1.0716
 5261TIP3    H237419   6.090   2.406   1.590 -0.0823  2.2795  3.0295
 5262TIP3   OH237420   1.361   1.436   7.079 -0.2825 -0.2650 -0.4219
 5262TIP3    H137421   1.387   1.344   7.070 -1.1081 -0.4831 -0.6176
 5262TIP3    H237422   1.413   1.469   7.152 -0.0504 -0.9106 -0.2944
 5263TIP3   OH237423   6.411   4.151   2.459  0.5303  0.3492  0.0763
 5263TIP3    H137424   6.477   4.164   2.392  0.6389  0.2826  0.1678
 5263TIP3    H237425   6.372   4.237   2.472  0.2474  0.2846 -0.3404
 5264TIP3   OH237426   1.631   6.166   0.395  0.0246 -0.2740 -0.1502
 5264TIP3    H137427   1.620   6.259   0.415 -0.4170 -0.2220 -0.6098
 5264TIP3    H237428   1.604   6.121   0.475 -1.2440 -0.0559 -0.4297
 5265TIP3   OH237429   6.381   0.375   8.146 -0.2234 -0.0981  0.0474
 5265TIP3    H137430   6.446   0.307   8.128  0.8839  0.9266  0.0542
 5265TIP3    H237431   6.302   0.345   8.101 -0.1209 -1.9397  0.9945
 5266TIP3   OH237432   0.534   1.838   1.994 -0.5232  0.1164 -0.6378
 5266TIP3    H137433   0.497   1.788   1.921 -0.9251  0.2900 -0.5593
 5266TIP3    H237434   0.457   1.873   2.039 -0.2826 -0.1381 -0.0254
 5267TIP3   OH237435   6.394   6.104   1.514  0.0527  0.1580 -0.2339
 5267TIP3    H137436   6.436   6.024   1.482 -1.0642 -0.9701  0.9763
 5267TIP3    H237437   6.463   6.149   1.563  0.0609 -1.4530  1.3573
 5268TIP3   OH237438   6.220   0.112   6.843 -0.6105  0.1871 -0.0700
 5268TIP3    H137439   6.270   0.109   6.925 -0.7499 -1.0025 -0.0038
 5268TIP3    H237440   6.208   0.205   6.825  1.9039  0.5497 -0.2684
 5269TIP3   OH237441   6.970   0.622   0.545  0.0772  0.0177 -0.4195
 5269TIP3    H137442   6.937   0.711   0.553  0.2679 -0.0304  1.1663
 5269TIP3    H237443   7.065   0.631   0.538  0.1750 -0.0875  0.6560
 5270TIP3   OH237444   6.963   1.333   7.376 -0.6726  0.1641  0.3813
 5270TIP3    H137445   6.941   1.314   7.284  0.8922  0.3808 -0.0563
 5270TIP3    H237446   6.878   1.353   7.416 -1.2923  1.0557 -1.2423
 5271TIP3   OH237447   0.885   2.210   7.881 -0.0642  0.4624  0.0713
 5271TIP3    H137448   0.865   2.215   7.788 -2.7517  1.4378  0.6237
 5271TIP3    H237449   0.843   2.129   7.911  0.8666  0.0985  0.4723
 5272TIP3   OH237450   5.986   1.220   2.219 -0.5309 -0.4856 -0.6739
 5272TIP3    H137451   5.950   1.180   2.298 -0.7219  0.7695 -0.0915
 5272TIP3    H237452   6.080   1.201   2.223  0.2386  2.9359  2.0831
 5273TIP3   OH237453   0.396   5.847   8.381 -0.2355 -0.2943 -0.6138
 5273TIP3    H137454   0.343   5.865   8.302 -1.6029  2.7173  0.8404
 5273TIP3    H237455   0.486   5.845   8.349 -0.5744  2.6881 -2.1135
 5274TIP3   OH237456   2.188   3.327   1.054 -0.3043 -0.2804  0.1148
 5274TIP3    H137457   2.262   3.285   1.097 -0.1476  1.7127  1.9811
 5274TIP3    H237458   2.138   3.365   1.125 -1.0611  1.6232 -1.3463
 5275TIP3   OH237459   4.839   2.609   0.284  0.7119  0.4256 -0.5328
 5275TIP3    H137460   4.901   2.540   0.306  0.1234  0.0323 -0.0887
 5275TIP3    H237461   4.860   2.632   0.193  1.4676  0.2712 -0.4065
 5276TIP3   OH237462   0.387   3.370   8.171  0.3996  0.0746 -0.0077
 5276TIP3    H137463   0.468   3.360   8.122 -1.4934 -1.5832 -3.1340
 5276TIP3    H237464   0.384   3.293   8.228  0.0588 -1.1126 -1.5597
 5277TIP3   OH237465   1.571   0.799   2.804  0.5691 -0.5249 -0.0020
 5277TIP3    H137466   1.631   0.750   2.860 -0.4669 -3.2670 -1.0946
 5277TIP3    H237467   1.628   0.838   2.738  1.3283 -2.1011 -0.3437
 5278TIP3   OH237468   3.629   1.181   7.834  0.0515 -0.0445  0.5647
 5278TIP3    H137469   3.554   1.122   7.843  0.1866 -0.4808 -0.8981
 5278TIP3    H237470   3.673   1.151   7.754  1.3656  0.6744  0.9991
 5279TIP3   OH237471   0.806   4.650   0.830  0.0118  0.6782 -0.1564
 5279TIP3    H137472   0.810   4.617   0.920  1.4332 -1.0945 -0.8167
 5279TIP3    H237473   0.831   4.742   0.837 -1.5103  1.0332  1.4317
 5280TIP3   OH237474   5.102   0.141   2.375 -0.1842  0.9661 -0.0051
 5280TIP3    H137475   5.085   0.072   2.311  0.9134  1.2152 -0.5974
 5280TIP3    H237476   5.092   0.099   2.460 -0.1271  0.2322 -0.3559
 5281TIP3   OH237477   3.944   5.450   7.629 -0.1506  0.5514 -0.9325
 5281TIP3    H137478   4.033   5.436   7.660 -0.3013 -0.3647 -0.8877
 5281TIP3    H237479   3.944   5.538   7.593  0.6853  0.6801 -0.6262
 5282TIP3   OH237480   3.481   3.526   7.431  0.1047 -0.3788 -0.0633
 5282TIP3    H137481   3.486   3.565   7.344 -0.7379  0.3467  0.2038
 5282TIP3    H237482   3.538   3.449   7.426 -1.3348 -1.3850 -1.7811
 5283TIP3   OH237483   2.850   6.785   2.466  0.3235 -0.4083 -0.0385
 5283TIP3    H137484   2.763   6.811   2.496  0.2739 -1.1206  0.4450
 5283TIP3    H237485   2.901   6.771   2.546  0.3016 -1.9447 -0.2691
 5284TIP3   OH237486   2.884   4.014   1.670  0.1511  0.3871 -0.2098
 5284TIP3    H137487   2.942   4.013   1.747 -0.0046 -0.2493 -0.0922
 5284TIP3    H237488   2.941   4.040   1.598  0.4135  0.5184  0.0418
 5285TIP3   OH237489   3.023   4.781   8.252  0.3079  0.8402  0.0908
 5285TIP3    H137490   3.091   4.726   8.212  0.0587  1.8067 -1.7762
 5285TIP3    H237491   2.941   4.739   8.229  0.2023  0.1156  1.6662
 5286TIP3   OH237492   4.651   1.505   1.322  0.2866  0.0216  0.0038
 5286TIP3    H137493   4.735   1.535   1.286 -0.2250  1.3669 -0.1001
 5286TIP3    H237494   4.670   1.417   1.355  1.8484  0.4607  0.3527
 5287TIP3   OH237495   4.426   4.384   1.443  0.1323 -0.4077  0.1530
 5287TIP3    H137496   4.353   4.445   1.431  0.0475 -0.7806 -1.4170
 5287TIP3    H237497   4.385   4.298   1.444  0.4721 -0.5694  0.1313
 5288TIP3   OH237498   3.411   3.902   7.338  0.2809 -0.2405 -0.0397
 5288TIP3    H137499   3.442   3.837   7.275 -1.2092  0.4646 -1.5766
 5288TIP3    H237500   3.388   3.978   7.284 -0.8792  0.4497  1.3775
 5289TIP3   OH237501   6.140   5.951   1.114 -0.5113 -0.1509  0.2511
 5289TIP3    H137502   6.127   6.040   1.146  0.6641  0.8723 -1.8614
 5289TIP3    H237503   6.054   5.922   1.086 -1.1375 -0.2171  2.1317
 5290TIP3   OH237504   0.314   6.021   2.034  0.1319  0.0799 -0.2654
 5290TIP3    H137505   0.282   5.931   2.039  0.2848  0.0684  0.9445
 5290TIP3    H237506   0.392   6.015   1.979 -0.9730 -0.1663 -1.8543
 5291TIP3   OH237507   1.376   3.969   8.360 -0.0791  0.0254 -0.8144
 5291TIP3    H137508   1.287   3.937   8.375  0.1674 -0.6745 -0.7872
 5291TIP3    H237509   1.425   3.942   8.438  0.2734 -0.0516 -1.0557
 5292TIP3   OH237510   2.100   5.906   2.119  0.3177  0.1562 -0.3253
 5292TIP3    H137511   2.090   5.839   2.052 -1.1819  0.0351 -0.0191
 5292TIP3    H237512   2.148   5.863   2.190 -1.0037 -0.7785  0.0541
 5293TIP3   OH237513   3.018   6.809   0.093  0.1092 -0.5486 -0.8705
 5293TIP3    H137514   3.041   6.877   0.156  0.6044  0.5224 -2.1489
 5293TIP3    H237515   2.924   6.821   0.079 -0.2396 -1.5196  0.4567
 5294TIP3   OH237516   2.588   0.427   2.543 -0.2532 -0.8161  0.6437
 5294TIP3    H137517   2.537   0.399   2.467 -0.8018 -0.7752  0.9878
 5294TIP3    H237518   2.629   0.347   2.574  1.5150 -0.5279 -0.8003
 5295TIP3   OH237519   5.490   2.728   2.086 -0.3357 -0.9195  0.1026
 5295TIP3    H137520   5.502   2.644   2.131  0.6277 -0.7656  0.1344
 5295TIP3    H237521   5.486   2.792   2.156 -0.4680 -0.8674  0.0470
 5296TIP3   OH237522   2.076   5.775   3.299 -0.1314 -0.2998  0.1123
 5296TIP3    H137523   2.124   5.764   3.217 -0.0863  2.1120 -0.2540
 5296TIP3    H237524   1.999   5.720   3.290  1.5317 -2.7524 -0.0857
 5297TIP3   OH237525   6.971   1.454   8.197 -0.3023  0.4366  0.1401
 5297TIP3    H137526   7.036   1.445   8.266  1.1000  1.7017 -0.9350
 5297TIP3    H237527   6.903   1.391   8.219  0.4133  0.3413  2.2889
 5298TIP3   OH237528   3.536   5.102   2.312  0.0918  0.5119  0.2829
 5298TIP3    H137529   3.474   5.153   2.259  0.3817  0.2353 -0.3375
 5298TIP3    H237530   3.539   5.016   2.270 -0.3105  0.0094  1.2625
 5299TIP3   OH237531   6.297   4.836   0.059  1.1074  0.2444 -0.5627
 5299TIP3    H137532   6.304   4.920   0.014 -0.5870  1.1571  0.7606
 5299TIP3    H237533   6.243   4.854   0.136  0.2492 -2.1551 -0.5042
 5300TIP3   OH237534   5.879   2.552   7.419 -0.4868  0.1597 -0.7623
 5300TIP3    H137535   5.896   2.537   7.512 -1.1230 -0.6608 -0.7607
 5300TIP3    H237536   5.869   2.463   7.383  1.2350  0.3791 -1.9099
 5301TIP3   OH237537   0.204   2.943   7.140  0.1854 -0.6953  0.3047
 5301TIP3    H137538   0.203   3.001   7.064 -1.6502 -0.0066  0.7985
 5301TIP3    H237539   0.297   2.932   7.160  0.6386  2.3472  0.3794
 5302TIP3   OH237540   0.405   4.056   2.310 -0.1276  0.9859 -0.4224
 5302TIP3    H137541   0.470   4.041   2.379  1.7344  1.5314 -1.9775
 5302TIP3    H237542   0.426   3.992   2.242 -1.1914  1.2175 -1.0006
 5303TIP3   OH237543   4.749   4.915   7.556 -0.7142  0.0785 -0.3753
 5303TIP3    H137544   4.691   4.849   7.595  0.4429  0.0729  1.4786
 5303TIP3    H237545   4.767   4.881   7.468 -0.3766 -1.9598  0.4147
 5304TIP3   OH237546   5.365   2.816   8.179  0.1561  0.4519 -0.2441
 5304TIP3    H137547   5.401   2.876   8.245 -0.6693  0.1431  0.5035
 5304TIP3    H237548   5.300   2.765   8.226  1.5867 -1.8177 -0.5907
 5305TIP3   OH237549   2.488   0.913   0.843  0.5633 -0.1885 -1.0158
 5305TIP3    H137550   2.529   0.941   0.925  0.1256 -0.3536 -0.7388
 5305TIP3    H237551   2.504   0.985   0.783 -1.2769  1.0844 -0.0812
 5306TIP3   OH237552   2.154   3.507   1.805  0.3986 -0.7296 -0.5264
 5306TIP3    H137553   2.062   3.518   1.828  0.3854 -2.3229  0.3255
 5306TIP3    H237554   2.202   3.550   1.876  0.3370  0.1748 -1.0140
 5307TIP3   OH237555   0.908   6.179   0.515  0.4044 -0.1149 -0.1061
 5307TIP3    H137556   0.921   6.274   0.518  1.4108 -0.2507  0.9712
 5307TIP3    H237557   0.813   6.167   0.517  0.2192  0.8585  3.1109
 5308TIP3   OH237558   6.708   0.825   2.124  0.1570  0.0794 -0.1034
 5308TIP3    H137559   6.787   0.877   2.109 -0.0869  0.4542 -0.1006
 5308TIP3    H237560   6.730   0.738   2.092  0.4081  0.3077 -0.5671
 5309TIP3   OH237561   0.484   0.725   0.844  0.2327 -0.1333  0.0730
 5309TIP3    H137562   0.467   0.769   0.761 -1.5604  1.5339  1.2278
 5309TIP3    H237563   0.563   0.766   0.878 -0.6872  1.3310  0.5200
 5310TIP3   OH237564   3.820   6.288   0.517  0.2432 -0.6810 -0.1759
 5310TIP3    H137565   3.730   6.319   0.524 -0.0109 -1.1041 -1.3341
 5310TIP3    H237566   3.861   6.315   0.599 -0.9568 -0.5662  0.4114
 5311TIP3   OH237567   3.048   6.184   8.086  0.2434  0.3053 -0.0243
 5311TIP3    H137568   3.031   6.261   8.141 -0.6901 -0.8226  1.3227
 5311TIP3    H237569   2.975   6.183   8.024  0.3060  0.5504 -0.1036
 5312TIP3   OH237570   3.926   3.386   1.810  0.0481 -0.1075  0.1755
 5312TIP3    H137571   3.834   3.409   1.825  0.8918  2.9757  1.4225
 5312TIP3    H237572   3.970   3.407   1.892  1.9399 -1.3626 -0.4416
 5313TIP3   OH237573   0.896   6.140   6.856  0.0505 -0.2398  0.3224
 5313TIP3    H137574   0.874   6.189   6.935  1.3077 -1.1270  1.2876
 5313TIP3    H237575   0.941   6.203   6.800  0.9764 -0.0731  1.2157
 5314TIP3   OH237576   0.296   4.576   8.290 -0.7250  0.1423  0.1994
 5314TIP3    H137577   0.355   4.632   8.238  1.9213 -2.2365  0.3922
 5314TIP3    H237578   0.344   4.559   8.371 -2.7796  0.0019  1.4621
 5315TIP3   OH237579   1.351   2.262   0.683  0.6314  0.4619  0.0495
 5315TIP3    H137580   1.383   2.334   0.737 -1.9724  0.7468  1.3675
 5315TIP3    H237581   1.301   2.207   0.743  2.0974 -2.2506 -1.0131
 5316TIP3   OH237582   3.965   0.448   7.422 -0.2386  0.4418 -0.1718
 5316TIP3    H137583   3.896   0.487   7.368 -0.1833  0.1448 -0.4648
 5316TIP3    H237584   3.948   0.354   7.419  0.6904  0.2735 -0.9867
 5317TIP3   OH237585   3.736   0.589   0.359 -0.2020 -0.0944 -0.2937
 5317TIP3    H137586   3.649   0.554   0.376  0.1181 -0.1856  1.2890
 5317TIP3    H237587   3.781   0.519   0.311 -0.0633 -1.3002  1.4998
 5318TIP3   OH237588   5.047   5.483   8.293 -0.0441  0.1133  0.0705
 5318TIP3    H137589   4.966   5.448   8.256 -0.7464  1.3766  0.3218
 5318TIP3    H237590   5.038   5.468   8.387  0.0802  0.1161  0.0817
 5319TIP3   OH237591   4.235   6.009   1.004  0.0369 -0.4563  0.5584
 5319TIP3    H137592   4.327   6.020   1.026 -0.3513  0.8687  1.6300
 5319TIP3    H237593   4.203   5.942   1.064  0.9155 -3.1682 -1.7583
 5320TIP3   OH237594   0.057   4.118   7.944  0.0199 -0.0612 -0.3221
 5320TIP3    H137595  -0.033   4.121   7.913  0.5285 -0.4888 -1.9492
 5320TIP3    H237596   0.110   4.140   7.867  1.3071  0.2364  0.6092
 5321TIP3   OH237597   5.445   1.762   0.060 -0.5551 -0.5848  0.0723
 5321TIP3    H137598   5.472   1.674   0.032  1.4034 -0.5505  1.6692
 5321TIP3    H237599   5.425   1.808  -0.022  2.0559 -1.3868 -1.1088
 5322TIP3   OH237600   5.873   0.046   0.939 -0.5109 -0.5108  0.1746
 5322TIP3    H137601   5.820  -0.009   0.882  1.6087 -1.2514 -1.1896
 5322TIP3    H237602   5.863   0.134   0.903 -0.9251 -0.6186  0.0249
 5323TIP3   OH237603   3.475   4.494   7.798  0.1041  0.5493 -0.2768
 5323TIP3    H137604   3.538   4.441   7.847 -1.3304 -1.7697 -0.7689
 5323TIP3    H237605   3.519   4.514   7.716  0.5523 -0.2269 -0.2324
 5324TIP3   OH237606   4.167   3.297   2.276  0.3211  0.1706  0.1086
 5324TIP3    H137607   4.250   3.341   2.295  1.1603 -0.2226 -2.3187
 5324TIP3    H237608   4.122   3.355   2.215  0.0596 -0.8579 -0.7155
 5325TIP3   OH237609   0.537   6.688   7.971 -0.8791  0.0034 -0.3273
 5325TIP3    H137610   0.471   6.622   7.949 -0.1947 -0.7105 -0.3032
 5325TIP3    H237611   0.562   6.668   8.061 -0.2111 -0.1091 -0.5301
 5326TIP3   OH237612   6.363   4.883   1.874 -0.0761 -0.0342  0.0992
 5326TIP3    H137613   6.294   4.948   1.876 -0.1212 -0.0712  2.4855
 5326TIP3    H237614   6.410   4.900   1.792 -0.7802  2.2352  0.1020
 5327TIP3   OH237615   0.241   1.268   8.328 -0.3422  0.7110  0.1584
 5327TIP3    H137616   0.295   1.228   8.259  0.6202 -1.3421  2.0007
 5327TIP3    H237617   0.166   1.210   8.336  1.1436 -1.0562  2.9763
 5328TIP3   OH237618   0.456   5.163   0.391  0.2775  0.3298 -0.3647
 5328TIP3    H137619   0.407   5.153   0.473 -1.9148  2.6101 -1.2499
 5328TIP3    H237620   0.472   5.074   0.362 -1.1865 -0.5398  1.2698
 5329TIP3   OH237621   3.948   1.364   7.243 -0.5998 -0.8813  0.4370
 5329TIP3    H137622   3.921   1.310   7.168  1.1267  0.5522 -1.3039
 5329TIP3    H237623   4.042   1.376   7.232 -0.7461  1.6646  1.2759
 5330TIP3   OH237624   3.937   0.902   1.047 -0.0991  0.2911 -0.2110
 5330TIP3    H137625   3.985   0.904   1.130 -0.9282 -0.9935  0.3430
 5330TIP3    H237626   3.896   0.815   1.045 -0.5224  0.4908 -1.7306
 5331TIP3   OH237627   5.073   4.999   7.250  0.3112 -0.0653 -0.2695
 5331TIP3    H137628   5.044   4.957   7.332 -1.3118  1.5955  0.0823
 5331TIP3    H237629   4.995   4.997   7.194  1.1273 -0.2983 -1.4225
 5332TIP3   OH237630   1.568   6.954   0.425  0.2644  0.0806 -0.3454
 5332TIP3    H137631   1.609   7.022   0.372 -0.0520  0.7979  0.3041
 5332TIP3    H237632   1.481   6.942   0.387  0.3781 -0.0834 -0.5580
 5333TIP3   OH237633   1.222   4.173   1.016  0.7515 -0.1717  0.4925
 5333TIP3    H137634   1.232   4.079   1.000  1.3707  0.0059 -0.2557
 5333TIP3    H237635   1.212   4.180   1.111  1.2067 -0.9528  0.6124
 5334TIP3   OH237636   5.825   6.663   1.469  0.2756 -0.6333  0.0917
 5334TIP3    H137637   5.858   6.642   1.382  1.0859 -1.3605  0.5625
 5334TIP3    H237638   5.744   6.612   1.477 -0.2529  0.0879 -0.5440
 5335TIP3   OH237639   6.417   1.464   0.368  0.6887  0.7496  0.0361
 5335TIP3    H137640   6.361   1.387   0.375  1.0780  0.4409 -0.2032
 5335TIP3    H237641   6.401   1.497   0.279  0.8001  0.7304  0.0090
 5336TIP3   OH237642   3.687   2.653   7.341 -0.2607 -0.0099  0.3761
 5336TIP3    H137643   3.630   2.577   7.352 -2.2068  1.4833  1.2394
 5336TIP3    H237644   3.768   2.617   7.304 -1.2885 -2.3985  0.2526
 5337TIP3   OH237645   2.534   1.126   0.661  0.0242 -0.0774  0.3658
 5337TIP3    H137646   2.453   1.176   0.652 -1.1041 -1.6317  1.5898
 5337TIP3    H237647   2.542   1.079   0.578 -0.0498  0.4367  0.0587
 5338TIP3   OH237648   0.940   5.866   2.812  0.3017  0.3369  0.0880
 5338TIP3    H137649   0.984   5.801   2.867  1.6257 -1.2135 -2.6157
 5338TIP3    H237650   0.861   5.821   2.780 -0.2570  1.0858  0.3868
 5339TIP3   OH237651   2.522   5.801   7.647 -0.5438  0.0550 -0.4367
 5339TIP3    H137652   2.511   5.762   7.561 -0.5245 -0.2644 -0.2957
 5339TIP3    H237653   2.534   5.895   7.630 -2.9351  0.3697 -0.6374
 5340TIP3   OH237654   4.611   3.403   1.187  0.1039 -0.1986  0.4267
 5340TIP3    H137655   4.687   3.386   1.243  0.2189  1.1669  0.7310
 5340TIP3    H237656   4.539   3.358   1.229  0.5311 -0.5956  0.7430
 5341TIP3   OH237657   2.762   6.993   2.182  0.1608 -0.1707 -0.3337
 5341TIP3    H137658   2.682   6.949   2.212  1.2251 -1.7573  0.3630
 5341TIP3    H237659   2.781   6.955   2.097  1.2187 -1.3394  0.3752
 5342TIP3   OH237660   4.410   1.174   2.098  0.3754  0.2509 -0.0808
 5342TIP3    H137661   4.448   1.259   2.122 -0.5091  0.9210 -0.9600
 5342TIP3    H237662   4.337   1.163   2.159  0.8986 -0.2076  0.4714
 5343TIP3   OH237663   1.455   3.151   0.350  0.3826  0.6718  0.1083
 5343TIP3    H137664   1.507   3.161   0.429  0.1507 -1.5432  0.6232
 5343TIP3    H237665   1.373   3.196   0.369  0.0677 -0.4011  1.4308
 5344TIP3   OH237666   2.368   0.498   0.782 -0.8780  0.5779 -0.2396
 5344TIP3    H137667   2.313   0.563   0.740 -0.4694  0.5802 -0.7836
 5344TIP3    H237668   2.424   0.548   0.841  0.0311  0.8395 -1.2878
 5345TIP3   OH237669   1.980   1.836   1.276 -0.3420 -0.6220  0.0836
 5345TIP3    H137670   1.891   1.816   1.306 -0.2890  0.8197  1.2798
 5345TIP3    H237671   1.983   1.931   1.270  0.8396 -0.6946 -0.9038
 5346TIP3   OH237672   1.401   3.630   8.279 -0.0314  0.4365  0.5104
 5346TIP3    H137673   1.496   3.622   8.271 -0.1968 -2.3016  0.5174
 5346TIP3    H237674   1.387   3.670   8.365  1.0927  0.0803  0.8667
 5347TIP3   OH237675   2.376   4.711   8.008  0.5933 -0.6966  0.2607
 5347TIP3    H137676   2.429   4.752   7.940  2.6029 -1.4638  1.2630
 5347TIP3    H237677   2.310   4.776   8.031  1.3128  0.4446 -0.8166
 5348TIP3   OH237678   3.755   1.279   2.412 -0.6816 -0.5730  0.4349
 5348TIP3    H137679   3.731   1.204   2.357  0.0640 -1.6009  1.4777
 5348TIP3    H237680   3.742   1.249   2.501 -1.6011  0.9859  0.8736
 5349TIP3   OH237681   2.101   6.727   7.802 -0.2731 -0.9186 -0.2714
 5349TIP3    H137682   2.089   6.756   7.712  0.4362  2.2379  0.4974
 5349TIP3    H237683   2.041   6.654   7.813 -1.3158 -0.5535 -2.9249
 5350TIP3   OH237684   0.309   6.244   8.255  0.5883  0.1069  0.3816
 5350TIP3    H137685   0.382   6.303   8.271  1.1913 -0.1755 -1.1183
 5350TIP3    H237686   0.348   6.170   8.209 -0.9670  1.1302 -2.8746
 5351TIP3   OH237687   1.243   6.993   0.802  0.1442 -0.0966  0.7427
 5351TIP3    H137688   1.221   6.909   0.760  1.5506 -0.4605  0.6893
 5351TIP3    H237689   1.284   6.968   0.885  2.3545  0.4430 -0.1245
 5352TIP3   OH237690   6.656   4.184   7.645 -0.3341 -0.3198  0.0638
 5352TIP3    H137691   6.751   4.193   7.651 -0.2581 -0.4054 -0.8878
 5352TIP3    H237692   6.640   4.160   7.554 -1.2976  0.1229  0.1036
 5353TIP3   OH237693   0.943   1.170   2.284 -0.4519  0.3091  0.3756
 5353TIP3    H137694   0.912   1.135   2.200 -0.1874 -2.6943  1.4209
 5353TIP3    H237695   0.869   1.158   2.343  0.4648 -0.8591  1.3448
 5354TIP3   OH237696   0.097   3.927   0.207 -0.3756  0.1308  0.1882
 5354TIP3    H137697   0.107   3.908   0.114 -0.7401 -1.7355  0.4899
 5354TIP3    H237698   0.093   4.023   0.212  1.7473  0.3771 -1.4773
 5355TIP3   OH237699   3.835   6.029   1.012  0.5053  0.0089  0.3830
 5355TIP3    H137700   3.868   5.972   1.081  0.1555 -0.3751  0.2350
 5355TIP3    H237701   3.746   5.999   0.996  0.3023  0.6251  0.3304
 5356TIP3   OH237702   0.841   1.913   3.135  0.4274  0.5308  0.1573
 5356TIP3    H137703   0.891   1.995   3.146  1.5578  0.1652 -1.7761
 5356TIP3    H237704   0.761   1.940   3.089  0.9302  0.5497 -0.7380
 5357TIP3   OH237705   3.025   5.193   2.884 -0.0743  0.2641 -0.2031
 5357TIP3    H137706   2.981   5.272   2.915 -2.6882 -0.9131 -0.6355
 5357TIP3    H237707   3.051   5.147   2.963 -1.0911  0.2381  0.1282
 5358TIP3   OH237708   2.922   6.054   0.575 -0.3416  0.4039 -0.4765
 5358TIP3    H137709   2.880   5.990   0.633 -1.3546 -1.3462 -2.9845
 5358TIP3    H237710   3.011   6.062   0.609 -0.5588 -1.3900  0.6576
 5359TIP3   OH237711   3.602   0.040   7.062  0.3053 -0.2142  0.1274
 5359TIP3    H137712   3.633   0.112   7.118 -0.7813  1.6393 -1.5178
 5359TIP3    H237713   3.659   0.045   6.985  0.0731 -1.0046 -0.0969
 5360TIP3   OH237714   2.031   5.811   1.302 -0.2487  0.1801  0.2034
 5360TIP3    H137715   1.970   5.798   1.375 -1.0175  0.4225 -0.3900
 5360TIP3    H237716   2.094   5.875   1.335  0.6775 -1.2653  1.4042
 5361TIP3   OH237717   5.485   5.053   1.334  1.0403  0.0565  0.7812
 5361TIP3    H137718   5.535   5.080   1.411 -0.3228  1.1472  1.3283
 5361TIP3    H237719   5.465   4.961   1.349  3.1754 -0.5315  0.3578
 5362TIP3   OH237720   1.699   4.583   3.325 -0.1068  0.2183 -0.0072
 5362TIP3    H137721   1.736   4.546   3.406  2.8334 -1.0179 -1.7897
 5362TIP3    H237722   1.686   4.676   3.345 -0.8990 -0.3066  2.3033
 5363TIP3   OH237723   0.762   0.211   7.141  0.3803 -0.4388  0.0823
 5363TIP3    H137724   0.809   0.294   7.151 -0.8181  0.2940 -0.1311
 5363TIP3    H237725   0.765   0.194   7.047 -0.9376  0.3460 -0.1308
 5364TIP3   OH237726   0.051   4.219   6.910  0.0210  0.3664 -0.1473
 5364TIP3    H137727   0.067   4.312   6.897 -0.0785  0.2244 -1.3875
 5364TIP3    H237728   0.009   4.190   6.828  0.2103 -0.8010  0.1502
 5365TIP3   OH237729   4.761   4.470   0.093 -0.3367 -0.0457  0.0241
 5365TIP3    H137730   4.682   4.419   0.074 -0.3578 -0.2664  0.6749
 5365TIP3    H237731   4.757   4.484   0.188 -0.6350  1.6488 -0.2032
 5366TIP3   OH237732   3.603   5.353   1.073  0.5642  0.3386 -0.4818
 5366TIP3    H137733   3.511   5.326   1.081  0.5675  0.8123  2.6046
 5366TIP3    H237734   3.606   5.407   0.995 -1.5388 -0.6052 -1.2762
 5367TIP3   OH237735   0.121   7.010   7.637 -0.1539  0.8605  0.3337
 5367TIP3    H137736   0.192   6.947   7.627 -0.0630  1.2272 -1.7698
 5367TIP3    H237737   0.044   6.957   7.659  0.4295  0.2918  1.0148
 5368TIP3   OH237738   5.936   3.634   8.331 -0.5181 -0.1289  0.3285
 5368TIP3    H137739   5.945   3.681   8.248 -0.2323  0.3769  0.6369
 5368TIP3    H237740   6.020   3.589   8.342 -1.1297 -1.5042 -0.4276
 5369TIP3   OH237741   2.007   2.700   2.110 -0.1483  0.0763 -0.0076
 5369TIP3    H137742   2.097   2.695   2.142 -0.7823 -1.2724  1.7610
 5369TIP3    H237743   1.979   2.790   2.129  0.5920  0.2940  0.0639
 5370TIP3   OH237744   5.747   0.775   0.190  0.2517 -0.0673 -0.2418
 5370TIP3    H137745   5.786   0.735   0.112  0.4800  2.3891 -1.4716
 5370TIP3    H237746   5.816   0.832   0.225 -0.4711  0.2688  0.6893
 5371TIP3   OH237747   4.393   2.513   1.414 -0.5247  0.6988  0.1383
 5371TIP3    H137748   4.456   2.441   1.410 -1.1668  0.1432 -0.3063
 5371TIP3    H237749   4.365   2.516   1.505 -0.7502  0.1575  0.0893
 5372TIP3   OH237750   6.006   3.158   7.509  0.2638 -0.2417 -0.4469
 5372TIP3    H137751   5.988   3.135   7.417 -0.3471  1.2154 -0.7199
 5372TIP3    H237752   6.035   3.076   7.549  0.5304 -0.9115 -1.9395
 5373TIP3   OH237753   1.964   0.972   1.763  0.6419  0.0448 -0.2126
 5373TIP3    H137754   1.891   0.946   1.820  1.7383 -0.3509  1.0477
 5373TIP3    H237755   2.040   0.976   1.821  1.5889  0.6937 -1.4547
 5374TIP3   OH237756   7.007   5.312   7.782  0.5970 -0.0863  0.2540
 5374TIP3    H137757   6.990   5.253   7.709  1.6749  0.7820 -0.7366
 5374TIP3    H237758   7.073   5.267   7.834  0.0563 -0.5708  0.5235
 5375TIP3   OH237759   2.806   2.666   1.320 -0.1311  0.1673  0.0392
 5375TIP3    H137760   2.758   2.584   1.333  1.0460 -0.8875 -1.7859
 5375TIP3    H237761   2.887   2.654   1.371  0.6168 -0.3781 -1.2402
 5376TIP3   OH237762   0.781   6.874   1.562  0.1209 -0.4217  0.2048
 5376TIP3    H137763   0.861   6.851   1.514  0.4821 -0.3910  0.7800
 5376TIP3    H237764   0.811   6.935   1.629 -0.6327  0.8423 -0.5654
 5377TIP3   OH237765   3.394   1.319   7.705 -0.6488 -0.3896 -0.5316
 5377TIP3    H137766   3.447   1.337   7.627 -0.1440 -0.7460 -0.2764
 5377TIP3    H237767   3.423   1.384   7.769 -1.3812  0.1958 -0.7760
 5378TIP3   OH237768   3.232   2.567   1.717  0.0626 -0.7991 -0.1858
 5378TIP3    H137769   3.289   2.560   1.640  0.6009  0.0592  0.1230
 5378TIP3    H237770   3.229   2.660   1.737 -0.0575 -1.0038  0.8373
 5379TIP3   OH237771   0.383   3.769   2.471  0.3073 -0.0656 -0.3929
 5379TIP3    H137772   0.434   3.733   2.398 -1.4934  0.0787 -1.7983
 5379TIP3    H237773   0.298   3.792   2.432 -0.0343  1.9073  1.3290
 5380TIP3   OH237774   3.428   5.396   8.052 -0.6291 -0.3224  0.4403
 5380TIP3    H137775   3.443   5.385   8.146  0.6837  1.2669  0.4566
 5380TIP3    H237776   3.442   5.308   8.016 -0.4302 -0.8070  1.6259
 5381TIP3   OH237777   0.102   6.869   0.146  0.0865 -0.4869 -0.0638
 5381TIP3    H137778   0.013   6.881   0.113  0.0529  0.2581  0.2845
 5381TIP3    H237779   0.123   6.952   0.189  0.8868 -0.7184  0.0025
 5382TIP3   OH237780   2.695   5.568   0.277 -0.2355 -0.2085  0.0790
 5382TIP3    H137781   2.751   5.493   0.298 -1.2568 -0.6380  1.4260
 5382TIP3    H237782   2.756   5.640   0.259  0.7681 -1.3137 -1.2144
 5383TIP3   OH237783   3.868   6.379   8.068  0.8181 -0.2036 -0.0334
 5383TIP3    H137784   3.857   6.454   8.010  0.7034  1.7481  2.3696
 5383TIP3    H237785   3.787   6.328   8.057 -0.4874  1.6561  0.4634
 5384TIP3   OH237786   6.072   1.614   1.967  0.1025  0.0062  0.2036
 5384TIP3    H137787   6.003   1.662   1.921 -0.0471 -1.0740 -0.7249
 5384TIP3    H237788   6.087   1.666   2.046 -0.8386  0.9753 -0.2170
 5385TIP3   OH237789   6.608   1.414   1.280  0.3360 -0.3309  0.3171
 5385TIP3    H137790   6.562   1.333   1.259  0.5762 -0.4908  0.4126
 5385TIP3    H237791   6.611   1.462   1.197  0.3638 -0.5015  0.2207
 5386TIP3   OH237792   1.561   0.783   0.713  0.2514  0.3482  0.2194
 5386TIP3    H137793   1.534   0.874   0.722  1.7541  1.1371 -2.2321
 5386TIP3    H237794   1.573   0.770   0.619 -1.6072 -2.9558  0.2592
 5387TIP3   OH237795   6.796   2.667   1.418  0.9313  0.6710  0.1402
 5387TIP3    H137796   6.756   2.731   1.360  1.7342  0.5049 -0.6265
 5387TIP3    H237797   6.833   2.718   1.489 -1.1315  0.7743  1.1827
 5388TIP3   OH237798   5.626   3.176   8.204  0.0101  0.6725  0.5624
 5388TIP3    H137799   5.562   3.185   8.133 -0.9880  0.6645  1.4312
 5388TIP3    H237800   5.675   3.258   8.203  0.7119  0.2563 -0.7845
 5389TIP3   OH237801   6.922   3.420   0.654 -0.3911  0.6627 -0.3192
 5389TIP3    H137802   6.853   3.487   0.662 -0.3062  0.8196 -0.8499
 5389TIP3    H237803   6.927   3.403   0.560  1.5585  2.0001 -0.5039
 5390TIP3   OH237804   0.588   3.897   3.323  0.0497  0.0112 -0.6510
 5390TIP3    H137805   0.549   3.940   3.247 -1.8645 -1.9535 -0.8649
 5390TIP3    H237806   0.567   3.805   3.313  1.8232 -0.6565  1.0811
 5391TIP3   OH237807   3.311   3.969   2.788 -0.1986  0.2564  0.0595
 5391TIP3    H137808   3.385   3.911   2.769 -0.1675  0.7222 -1.4178
 5391TIP3    H237809   3.237   3.910   2.801 -0.1595 -0.1370 -1.3622
 5392TIP3   OH237810   3.911   6.538   2.140  0.0056  0.1592  0.0927
 5392TIP3    H137811   3.965   6.562   2.065 -1.2763  1.4363 -0.4779
 5392TIP3    H237812   3.821   6.549   2.110 -0.6646 -2.9244  0.6864
 5393TIP3   OH237813   0.617   3.575   2.173 -0.2434  0.1769  0.1358
 5393TIP3    H137814   0.557   3.523   2.120 -0.3524 -0.0261  0.4529
 5393TIP3    H237815   0.613   3.534   2.260  0.3429  0.1690  0.1603
 5394TIP3   OH237816   4.532   0.632   1.270 -0.3910  0.3926  0.7586
 5394TIP3    H137817   4.524   0.667   1.181 -0.5796 -1.6073 -0.0514
 5394TIP3    H237818   4.564   0.706   1.322  2.1417  0.9918 -1.4307
 5395TIP3   OH237819   3.263   2.037   2.531  0.4025 -0.1642  0.5639
 5395TIP3    H137820   3.223   2.099   2.592 -0.2229 -1.2584  1.2847
 5395TIP3    H237821   3.309   1.974   2.588 -0.3427 -1.3022 -0.0690
 5396TIP3   OH237822   4.873   6.867   1.595 -0.8628  0.0773 -0.0452
 5396TIP3    H137823   4.897   6.780   1.561 -0.4111  0.8473 -1.8188
 5396TIP3    H237824   4.890   6.862   1.689  0.0830 -1.4436 -0.2632
 5397TIP3   OH237825   4.185   5.895   0.766 -0.0246  0.1438 -0.1039
 5397TIP3    H137826   4.104   5.918   0.720 -0.6202  0.2517  0.9633
 5397TIP3    H237827   4.181   5.946   0.848  0.6108 -0.6498  0.4338
 5398TIP3   OH237828   3.846   4.642   1.197 -0.1659 -0.5326 -0.2183
 5398TIP3    H137829   3.890   4.661   1.280 -1.0249  0.0332  0.1229
 5398TIP3    H237830   3.797   4.721   1.177  1.2900 -0.0587 -2.1148
 5399TIP3   OH237831   5.871   6.400   0.996  0.2699 -0.1547  0.1724
 5399TIP3    H137832   5.880   6.483   1.043  0.4793  0.7642 -1.4153
 5399TIP3    H237833   5.927   6.339   1.044  0.6952  0.8050  0.9352
 5400TIP3   OH237834   1.925   5.505   8.266 -0.5622  0.6819  0.0204
 5400TIP3    H137835   2.017   5.527   8.276  0.1698 -1.4436 -1.4376
 5400TIP3    H237836   1.890   5.505   8.355  0.6046  2.3365  0.5132
 5401TIP3   OH237837   1.273   7.011   8.165 -0.0546  0.4822  0.6869
 5401TIP3    H137838   1.265   7.098   8.203  0.6253  1.1558 -0.6233
 5401TIP3    H237839   1.367   6.993   8.164 -0.0781  0.3479 -0.3325
 5402TIP3   OH237840   6.385   5.713   1.558  0.8777  0.4473  0.2136
 5402TIP3    H137841   6.294   5.724   1.531  1.1494  2.0042 -0.1869
 5402TIP3    H237842   6.386   5.743   1.649  0.4800 -2.3035  1.2329
 5403TIP3   OH237843   2.215   6.025   0.608  0.2024 -0.7448  0.3278
 5403TIP3    H137844   2.132   6.060   0.577  0.9159 -0.6993 -1.7143
 5403TIP3    H237845   2.267   6.102   0.631  0.7116 -0.5621 -1.3019
 5404TIP3   OH237846   6.822   0.232   3.017  0.2166  0.7681  0.2602
 5404TIP3    H137847   6.839   0.265   3.105 -1.6972  0.7361  0.6772
 5404TIP3    H237848   6.866   0.295   2.959  0.7377  1.2834  1.1933
 5405TIP3   OH237849   1.814   5.987   2.721 -0.1849 -0.2180 -0.3011
 5405TIP3    H137850   1.858   6.055   2.669 -0.6783 -0.1094 -0.5775
 5405TIP3    H237851   1.884   5.950   2.775  0.9139 -2.0321 -2.7661
 5406TIP3   OH237852   6.275   6.496   6.652  0.2236 -0.2472  0.3643
 5406TIP3    H137853   6.352   6.456   6.693 -0.0538  0.4231  1.5841
 5406TIP3    H237854   6.310   6.559   6.589  0.6579 -1.6159 -0.8300
 5407TIP3   OH237855   5.735   3.774   0.370  0.1383 -0.1757 -0.0976
 5407TIP3    H137856   5.778   3.777   0.285  1.5374 -2.0353  0.4734
 5407TIP3    H237857   5.641   3.771   0.350  0.3833  0.8633 -1.4928
 5408TIP3   OH237858   4.038   3.490   0.044 -0.4757  0.6782  0.1384
 5408TIP3    H137859   4.126   3.460   0.020 -0.6956  0.4270 -0.3743
 5408TIP3    H237860   4.045   3.586   0.046 -0.4021  0.7004 -0.7891
 5409TIP3   OH237861   0.554   1.678   0.190  0.0413 -0.1873 -0.0541
 5409TIP3    H137862   0.586   1.751   0.137 -0.1259  1.0978  1.5437
 5409TIP3    H237863   0.469   1.708   0.223  0.2557 -0.8446  1.1468
 5410TIP3   OH237864   2.458   4.428   7.994  0.6130 -0.7162 -0.3642
 5410TIP3    H137865   2.407   4.388   8.064  2.1627 -3.5564 -0.7484
 5410TIP3    H237866   2.431   4.520   7.995 -3.8258 -1.7802  0.0000
 5411TIP3   OH237867   1.740   5.662   2.793 -0.6606  0.3838 -0.2910
 5411TIP3    H137868   1.776   5.574   2.783 -0.1865  0.4264  0.8885
 5411TIP3    H237869   1.814   5.716   2.821 -1.1106  0.9966 -0.2485
 5412TIP3   OH237870   3.696   6.946   2.392 -0.3646 -0.6153  0.2118
 5412TIP3    H137871   3.680   6.980   2.304  0.2198 -1.1461 -0.1081
 5412TIP3    H237872   3.763   6.878   2.380  1.0141  0.4823  1.2832
 5413TIP3   OH237873   5.690   4.293   1.999 -0.1813  0.1893 -0.0040
 5413TIP3    H137874   5.760   4.349   2.033  1.4351 -1.3320 -0.6970
 5413TIP3    H237875   5.703   4.209   2.043 -0.2511 -0.7415 -1.7050
 5414TIP3   OH237876   3.376   1.262   0.196 -0.1324  0.9310 -0.0311
 5414TIP3    H137877   3.436   1.321   0.150 -0.2253  0.9039 -0.1871
 5414TIP3    H237878   3.386   1.285   0.289  1.5401 -0.3581  0.1636
 5415TIP3   OH237879   2.377   1.751   2.598 -0.6835  0.5230 -0.0557
 5415TIP3    H137880   2.390   1.817   2.666  0.8187  0.5745 -0.3599
 5415TIP3    H237881   2.321   1.685   2.639 -2.2352  1.9593  0.2461
 5416TIP3   OH237882   4.447   1.372   2.317 -0.3871  0.0226  0.6716
 5416TIP3    H137883   4.417   1.293   2.362  0.2134 -0.5637  0.0560
 5416TIP3    H237884   4.372   1.432   2.322 -0.9731 -0.7070  0.8324
 5417TIP3   OH237885   5.407   2.253   7.992 -0.4633 -0.2667  0.2447
 5417TIP3    H137886   5.489   2.258   8.040  0.7986  0.8176 -1.8923
 5417TIP3    H237887   5.384   2.345   7.975 -2.1775 -0.5431  0.8503
 5418TIP3   OH237888   1.243   5.465   0.963 -0.1630 -0.3743  0.4403
 5418TIP3    H137889   1.264   5.437   1.051  2.4397  2.6074  0.9346
 5418TIP3    H237890   1.315   5.433   0.909 -0.3029  0.1527 -0.0720
 5419TIP3   OH237891   4.408   2.069   0.025 -0.2023 -0.3148  0.0964
 5419TIP3    H137892   4.376   2.105  -0.058 -0.7583  1.8658  1.2027
 5419TIP3    H237893   4.485   2.121   0.046  0.2146 -1.1689  0.7368
 5420TIP3   OH237894   4.446   0.115   1.984 -0.5481 -0.0152  0.3955
 5420TIP3    H137895   4.408   0.027   1.981 -0.7666  0.1056 -2.2033
 5420TIP3    H237896   4.535   0.104   1.950 -0.6433  0.7774 -0.1398
 5421TIP3   OH237897   2.544   0.430   7.815  0.6663 -0.2917 -0.3277
 5421TIP3    H137898   2.505   0.390   7.738 -0.6679  0.4432 -0.0505
 5421TIP3    H237899   2.472   0.440   7.877  1.6026 -0.3604  0.8241
 5422TIP3   OH237900   6.968   0.863   2.093 -0.2787  0.3010  0.2419
 5422TIP3    H137901   7.021   0.830   2.166 -1.5577 -1.4399  0.4606
 5422TIP3    H237902   7.002   0.817   2.016 -1.0709 -0.4284  0.3053
 5423TIP3   OH237903   6.587   5.845   7.761  0.2880  0.3344 -0.2874
 5423TIP3    H137904   6.599   5.928   7.808 -0.0679 -1.0735  2.5107
 5423TIP3    H237905   6.537   5.791   7.822 -1.6482 -1.1410 -3.0178
 5424TIP3   OH237906   5.850   2.108   1.269  0.1537  0.3422  0.5227
 5424TIP3    H137907   5.888   2.053   1.336 -1.0210 -1.1448  0.0328
 5424TIP3    H237908   5.761   2.074   1.257 -0.6182  2.3186  0.1540
 5425TIP3   OH237909   6.193   6.868   6.858  0.1889  1.0020 -0.1612
 5425TIP3    H137910   6.188   6.959   6.829  1.4880  0.8830 -0.8388
 5425TIP3    H237911   6.141   6.819   6.794 -0.9820  1.3133  0.5259
 5426TIP3   OH237912   0.787   1.657   1.880  0.1615  0.6111 -0.1411
 5426TIP3    H137913   0.699   1.696   1.886 -1.3477 -2.5267 -0.3078
 5426TIP3    H237914   0.797   1.610   1.963  2.1596  1.6697  0.2808
 5427TIP3   OH237915   2.553   2.174   1.558  0.5172  0.2764  0.2114
 5427TIP3    H137916   2.585   2.095   1.602 -0.7216  0.1881  1.0268
 5427TIP3    H237917   2.612   2.243   1.587  1.5283 -0.3115 -0.3988
 5428TIP3   OH237918   5.232   0.249   2.077  0.1230 -0.3900  0.3464
 5428TIP3    H137919   5.239   0.329   2.129 -1.6429 -0.3784  0.6289
 5428TIP3    H237920   5.143   0.218   2.093 -0.1652 -0.9012 -1.9443
 5429TIP3   OH237921   4.688   1.059   0.274  0.0045  0.9796  0.1410
 5429TIP3    H137922   4.665   1.152   0.268  1.1434  1.2489 -0.3342
 5429TIP3    H237923   4.782   1.059   0.295  0.5637 -0.0190 -2.0540
 5430TIP3   OH237924   6.672   3.072   8.368  0.6428 -0.2953  0.0990
 5430TIP3    H137925   6.748   3.058   8.423  3.1743  1.2691 -2.7114
 5430TIP3    H237926   6.622   3.141   8.412  2.4579  0.7752  0.5585
 5431TIP3   OH237927   6.587   3.143   2.667  0.3043  0.0818  0.3390
 5431TIP3    H137928   6.620   3.219   2.716  2.5037 -1.2173  1.0602
 5431TIP3    H237929   6.633   3.146   2.583 -0.2408 -0.0009  0.0329
 5432TIP3   OH237930   4.857   3.981   1.979 -0.0610 -0.2867 -0.0808
 5432TIP3    H137931   4.873   4.047   2.047  0.2640 -0.5543  0.1017
 5432TIP3    H237932   4.927   3.917   1.991 -0.7678 -1.0243  0.1732
 5433TIP3   OH237933   1.581   2.029   0.172  0.2117  0.0087  0.6916
 5433TIP3    H137934   1.675   2.008   0.173  0.3532  0.4740  2.9713
 5433TIP3    H237935   1.578   2.122   0.152  0.2789  0.0976  1.0844
 5434TIP3   OH237936   5.621   3.561   8.305  0.0831  0.2793 -0.1755
 5434TIP3    H137937   5.654   3.503   8.375  1.2359 -0.2078 -1.0843
 5434TIP3    H237938   5.613   3.504   8.229 -2.4811  0.5089 -0.1407
 5435TIP3   OH237939   5.526   6.410   0.290  0.3003  0.4250  0.1757
 5435TIP3    H137940   5.486   6.324   0.276 -0.1126  0.9417 -2.2692
 5435TIP3    H237941   5.464   6.456   0.346 -0.2313 -0.3597  0.2549
 5436TIP3   OH237942   3.994   0.572   0.740 -0.3061 -0.3853 -0.6190
 5436TIP3    H137943   4.038   0.610   0.816 -1.4348 -1.7745  0.8084
 5436TIP3    H237944   3.983   0.480   0.763  0.4054 -1.1460 -3.0258
 5437TIP3   OH237945   5.068   1.301   0.400 -0.0142 -0.3735  0.4059
 5437TIP3    H137946   5.103   1.325   0.485 -1.4240 -0.5114  1.0548
 5437TIP3    H237947   5.044   1.384   0.359 -1.1917 -0.3913  1.0025
 5438TIP3   OH237948   1.368   0.181   7.968  0.0448  0.5067  0.2405
 5438TIP3    H137949   1.414   0.098   7.961  0.4045  0.6539  0.8396
 5438TIP3    H237950   1.430   0.240   8.012 -0.0313  1.2218 -0.5732
 5439TIP3   OH237951   5.865   5.368   1.542  0.3769 -0.2641  0.0403
 5439TIP3    H137952   5.831   5.296   1.594  1.0864 -0.2066  0.5878
 5439TIP3    H237953   5.958   5.372   1.563  0.9204 -0.8950 -1.9812
 5440TIP3   OH237954   3.538   6.172   2.122  0.0615  0.8607  0.3288
 5440TIP3    H137955   3.543   6.094   2.177  3.2860  1.0712  0.5023
 5440TIP3    H237956   3.525   6.139   2.033  1.5065  0.0790  0.3889
 5441TIP3   OH237957   5.796   4.751   1.674 -0.4762 -0.0131  0.3960
 5441TIP3    H137958   5.806   4.714   1.586  0.5236  0.9963  0.0711
 5441TIP3    H237959   5.871   4.718   1.723 -0.8533 -0.3007  0.7971
 5442TIP3   OH237960   3.169   2.347   1.028 -0.6000  0.4342  0.4844
 5442TIP3    H137961   3.176   2.326   0.935 -0.3447 -2.2112  1.0193
 5442TIP3    H237962   3.089   2.302   1.057 -0.0781  0.2726  1.7389
 5443TIP3   OH237963   4.338   3.132   0.959 -0.1600  0.3622  0.0438
 5443TIP3    H137964   4.308   3.220   0.978  0.2592  0.3042  1.0561
 5443TIP3    H237965   4.397   3.142   0.884  0.1554  0.9982  0.3713
 5444TIP3   OH237966   1.783   3.383   7.064 -0.0986 -0.1626 -0.3597
 5444TIP3    H137967   1.847   3.455   7.064  1.1361 -1.2153 -0.2579
 5444TIP3    H237968   1.743   3.387   6.978 -0.4253  0.9547 -0.1800
 5445TIP3   OH237969   2.345   4.048   7.371 -0.1990 -0.7143  0.0107
 5445TIP3    H137970   2.330   4.036   7.277 -1.5303  0.2380  0.0729
 5445TIP3    H237971   2.283   4.117   7.396  1.6389  0.6043  1.1637
 5446TIP3   OH237972   1.846   6.111   8.127 -0.0163  0.3773 -0.0381
 5446TIP3    H137973   1.842   6.205   8.109  0.1487  0.1971 -1.0736
 5446TIP3    H237974   1.897   6.104   8.208  2.5650  1.0274 -1.4995
 5447TIP3   OH237975   5.175   6.521   2.314  0.3504  0.2167 -0.4119
 5447TIP3    H137976   5.196   6.538   2.406 -1.0256 -0.1211 -0.0083
 5447TIP3    H237977   5.085   6.489   2.315  0.0978  0.7759 -1.9438
 5448TIP3   OH237978   4.371   0.438   0.933  0.1678  0.1754 -0.3177
 5448TIP3    H137979   4.305   0.371   0.954  0.6818 -0.8236 -1.6820
 5448TIP3    H237980   4.448   0.412   0.984 -0.1109  0.6673  0.3730
 5449TIP3   OH237981   6.682   4.096   3.230  0.2732  0.0979  0.0368
 5449TIP3    H137982   6.645   4.096   3.318 -1.1496 -0.3689 -0.5285
 5449TIP3    H237983   6.733   4.015   3.225  1.5181  0.8149  0.8748
 5450TIP3   OH237984   0.471   1.723   2.659  0.4968  0.1858 -0.6943
 5450TIP3    H137985   0.421   1.645   2.683  2.2701 -1.6780 -2.6860
 5450TIP3    H237986   0.434   1.793   2.714 -3.0591 -1.3929 -0.8275
 5451TIP3   OH237987   2.730   4.507   7.978 -0.0431 -0.0033  0.1162
 5451TIP3    H137988   2.637   4.488   7.963  0.0567  0.9734 -2.2440
 5451TIP3    H237989   2.775   4.456   7.910  1.0522  0.5050  0.4437
 5452TIP3   OH237990   0.690   5.762   7.424 -0.2640  0.0946 -0.2343
 5452TIP3    H137991   0.686   5.716   7.340  1.6850  2.2596 -1.6322
 5452TIP3    H237992   0.613   5.819   7.424 -1.2746 -1.2057  0.3529
 5453TIP3   OH237993   0.391   0.593   2.801 -0.0014  0.2435 -0.2819
 5453TIP3    H137994   0.402   0.673   2.749 -0.3467 -0.5096 -1.5757
 5453TIP3    H237995   0.296   0.587   2.815  0.0505  0.2066  0.0650
 5454TIP3   OH237996   6.512   1.535   0.608 -0.5211  0.2896 -0.1074
 5454TIP3    H137997   6.508   1.441   0.621  0.2000  0.2900  0.1259
 5454TIP3    H237998   6.477   1.549   0.520  2.4447 -0.5353 -1.5502
 5455TIP3   OH237999   5.133   0.748   8.143  0.1760  0.5473  0.0394
 5455TIP3    H138000   5.075   0.697   8.200  1.3187 -0.9161 -0.0624
 5455TIP3    H238001   5.198   0.785   8.202 -1.4713  3.2552  0.3430
 5456TIP3   OH238002   5.725   5.538   0.982  0.0110 -0.0598 -0.2097
 5456TIP3    H138003   5.812   5.567   0.956 -0.2981  1.5484  0.3923
 5456TIP3    H238004   5.740   5.476   1.053  0.7456 -2.3378 -2.2173
 5457TIP3   OH238005   2.355   4.131   0.091 -0.4500  0.0555 -0.7749
 5457TIP3    H138006   2.295   4.103   0.021  0.3071  0.8442 -1.7699
 5457TIP3    H238007   2.300   4.141   0.168 -1.2485 -1.2052 -1.1448
 5458TIP3   OH238008   4.884   1.354   8.100  0.0624 -0.0889 -0.1259
 5458TIP3    H138009   4.823   1.340   8.028  1.1705  0.0808 -1.1438
 5458TIP3    H238010   4.867   1.283   8.161 -0.8247 -0.3062 -0.6069
 5459TIP3   OH238011   2.417   1.866   2.259 -0.1698  0.6427 -0.1881
 5459TIP3    H138012   2.346   1.807   2.281 -0.4893  0.6943 -1.0344
 5459TIP3    H238013   2.495   1.825   2.296  0.0252 -1.6215 -2.7826
 5460TIP3   OH238014   3.785   3.808   2.972 -0.2832 -0.0518 -0.1762
 5460TIP3    H138015   3.781   3.754   2.893  0.0985  0.9033 -0.8652
 5460TIP3    H238016   3.698   3.800   3.011 -0.3656 -0.8104 -0.5085
 5461TIP3   OH238017   0.680   4.203   2.155 -0.6057  0.1743  0.1775
 5461TIP3    H138018   0.665   4.209   2.249 -1.1452  1.3801  0.0350
 5461TIP3    H238019   0.763   4.155   2.147 -1.9054 -2.4058  1.1577
 5462TIP3   OH238020   3.166   1.176   1.676  0.1820 -0.1517 -0.1098
 5462TIP3    H138021   3.205   1.107   1.623 -2.0118 -2.0334  0.5657
 5462TIP3    H238022   3.239   1.215   1.723  1.4416 -2.4627 -0.0219
 5463TIP3   OH238023   5.215   0.178   8.067 -0.5757 -0.0146  0.6902
 5463TIP3    H138024   5.305   0.147   8.075  0.0442  1.7866  1.1098
 5463TIP3    H238025   5.210   0.214   7.978 -1.3383 -1.4087  0.1394
 5464TIP3   OH238026   6.749   3.039   0.522 -0.2089 -0.1328 -0.4634
 5464TIP3    H138027   6.785   3.080   0.601 -0.2721 -1.6863  0.4125
 5464TIP3    H238028   6.824   3.035   0.462  0.3071 -0.5464  0.1911
 5465TIP3   OH238029   1.283   4.599   1.529  0.7277 -0.5749  0.5017
 5465TIP3    H138030   1.378   4.589   1.525  0.8365  0.6456 -0.8033
 5465TIP3    H238031   1.269   4.680   1.578  0.5108  0.6148 -1.4039
 5466TIP3   OH238032   0.268   4.437   0.199  0.0505 -0.3261 -0.1206
 5466TIP3    H138033   0.346   4.488   0.179  0.3649 -0.3883  0.8637
 5466TIP3    H238034   0.205   4.502   0.232 -1.0060  0.0166 -2.5961
 5467TIP3   OH238035   5.328   2.934   1.076  0.2586  0.1329  0.6008
 5467TIP3    H138036   5.386   2.897   1.010  1.0447  2.5482 -0.1700
 5467TIP3    H238037   5.241   2.928   1.038  0.4387 -0.4284  0.2701
 5468TIP3   OH238038   3.585   6.141   0.875  0.7371  0.0197  0.0394
 5468TIP3    H138039   3.522   6.187   0.929 -1.0830 -1.7049 -0.5166
 5468TIP3    H238040   3.638   6.211   0.835 -0.5837  1.5013  0.7896
 5469TIP3   OH238041   4.177   3.965   2.760 -0.4200 -0.2412  0.3580
 5469TIP3    H138042   4.102   4.024   2.761 -0.3082 -0.1005  0.5517
 5469TIP3    H238043   4.249   4.017   2.795 -0.5444 -0.7755  1.4520
 5470TIP3   OH238044   5.528   5.823   2.519 -0.1208  0.0556 -0.3349
 5470TIP3    H138045   5.536   5.797   2.610  0.2987  0.1937 -0.3317
 5470TIP3    H238046   5.474   5.755   2.479 -2.3434  1.2123  0.5419
 5471TIP3   OH238047   4.664   2.061   7.885 -0.3664  0.0449  0.1086
 5471TIP3    H138048   4.637   2.150   7.905 -0.0547  0.1064  0.2584
 5471TIP3    H238049   4.583   2.010   7.888 -0.6035  0.3866 -0.3489
 5472TIP3   OH238050   5.692   3.900   0.624 -0.1289 -0.4453 -0.0649
 5472TIP3    H138051   5.628   3.966   0.651  2.2298  1.4897  1.2521
 5472TIP3    H238052   5.674   3.886   0.531 -0.6851  2.2129 -0.4485
 5473TIP3   OH238053   3.281   6.308   2.108  0.1941  0.1765  0.2796
 5473TIP3    H138054   3.306   6.383   2.055  0.5138 -0.0176  0.1501
 5473TIP3    H238055   3.361   6.255   2.113 -0.6278 -1.3938 -1.7130
 5474TIP3   OH238056   3.392   3.083   0.926  0.7364  0.1578 -0.3158
 5474TIP3    H138057   3.455   3.089   0.998  1.4392  0.7144 -0.9600
 5474TIP3    H238058   3.445   3.088   0.846 -0.1100  0.5481 -0.8796
 5475TIP3   OH238059   3.353   1.131   0.929 -0.1462  0.7738  0.0382
 5475TIP3    H138060   3.395   1.202   0.881  0.4996  0.4725  0.1407
 5475TIP3    H238061   3.262   1.132   0.899  0.3305  0.2993 -1.5687
 5476TIP3   OH238062   6.163   6.226   0.057 -0.6706  0.3078 -0.3437
 5476TIP3    H138063   6.173   6.297  -0.007  0.4124  0.1329 -0.3842
 5476TIP3    H238064   6.253   6.195   0.072 -0.9542  0.0938  0.9680
 5477TIP3   OH238065   2.730   3.478   0.321 -0.0089  0.0619 -0.3214
 5477TIP3    H138066   2.820   3.506   0.336 -0.4436  0.5122  1.6980
 5477TIP3    H238067   2.738   3.398   0.269  1.6160 -0.5676  0.8287
 5478TIP3   OH238068   1.247   1.295   1.433  0.3306  0.1991 -0.0880
 5478TIP3    H138069   1.195   1.238   1.376  1.5630 -1.9935  0.8251
 5478TIP3    H238070   1.224   1.384   1.406 -2.5057 -0.6655 -0.8914
 5479TIP3   OH238071   3.046   6.562   0.155 -0.4269 -0.2092 -0.1549
 5479TIP3    H138072   3.042   6.645   0.108  1.7132  0.3495  0.5197
 5479TIP3    H238073   2.987   6.573   0.230  2.1972  2.0696  1.7930
 5480TIP3   OH238074   2.695   3.401   1.026 -0.1505 -0.2840 -0.2473
 5480TIP3    H138075   2.776   3.439   1.060 -0.7693  1.7263 -0.8724
 5480TIP3    H238076   2.719   3.312   1.000  0.8524 -1.2746  3.4272
 5481TIP3   OH238077   0.889   0.594   7.336 -0.0953 -0.0173 -0.1023
 5481TIP3    H138078   0.822   0.586   7.268  0.0537  0.7014 -0.3385
 5481TIP3    H238079   0.926   0.681   7.323  2.0996 -1.0240 -1.0999
 5482TIP3   OH238080   1.697   1.710   0.833  0.3739  0.0696  0.2013
 5482TIP3    H138081   1.660   1.627   0.862  1.3159 -0.1935  0.7145
 5482TIP3    H238082   1.661   1.775   0.892  0.2623 -0.0964  0.3151
 5483TIP3   OH238083   1.978   4.647   0.931 -0.5381 -0.0125 -0.0005
 5483TIP3    H138084   2.001   4.720   0.988 -0.7948 -0.1763  0.3168
 5483TIP3    H238085   1.908   4.682   0.875 -1.4316 -0.3283  0.8848
 5484TIP3   OH238086   7.033   0.131   1.694 -0.7764  0.3351 -0.3260
 5484TIP3    H138087   7.094   0.191   1.739 -0.5835  0.3821 -0.6507
 5484TIP3    H238088   7.063   0.130   1.604 -0.2700 -0.9031 -0.1610
 5485TIP3   OH238089   3.571   2.603   1.799  0.7653 -0.1371 -0.0814
 5485TIP3    H138090   3.632   2.626   1.729  0.2130  2.0720  0.0931
 5485TIP3    H238091   3.515   2.535   1.760  1.5321 -0.1667 -1.1815
 5486TIP3   OH238092   1.133   5.954   7.485  0.0754 -0.1117 -0.5181
 5486TIP3    H138093   1.062   5.889   7.478 -1.3538  1.4946 -1.9094
 5486TIP3    H238094   1.124   5.990   7.573 -0.2454 -0.5521 -0.3645
 5487TIP3   OH238095   4.549   2.657   2.504  0.2888 -0.1704 -0.2402
 5487TIP3    H138096   4.534   2.687   2.594  2.4381  1.8531 -0.4808
 5487TIP3    H238097   4.623   2.597   2.512  1.6338  1.3599 -0.8261
 5488TIP3   OH238098   4.880   5.701   1.455  0.0255 -0.3735 -0.4437
 5488TIP3    H138099   4.901   5.608   1.449 -1.7987 -0.7485 -1.8766
 5488TIP3    H238100   4.785   5.705   1.448  0.0954  1.6435 -0.9622
 5489TIP3   OH238101   1.104   3.863   1.348  0.3497  0.3549 -0.6160
 5489TIP3    H138102   1.081   3.794   1.287 -0.7869 -1.7652  2.0166
 5489TIP3    H238103   1.186   3.833   1.388  0.6839  1.3216 -0.5440
 5490TIP3   OH238104   2.458   5.740   8.210 -0.1220  0.4551  0.0378
 5490TIP3    H138105   2.494   5.713   8.125 -1.5029  1.1300 -0.7898
 5490TIP3    H238106   2.366   5.759   8.192 -0.6170 -0.0471  1.8396
 5491TIP3   OH238107   3.546   3.466   1.798 -0.0547  0.1662 -0.1944
 5491TIP3    H138108   3.513   3.421   1.876 -2.4156 -0.0688 -1.2472
 5491TIP3    H238109   3.513   3.556   1.807 -0.3743  0.1225 -0.9337
 5492TIP3   OH238110   5.197   5.208   7.672 -0.0055 -0.5053 -0.0736
 5492TIP3    H138111   5.135   5.189   7.601 -0.5842 -1.1389  0.5792
 5492TIP3    H238112   5.272   5.248   7.629  0.2889 -2.2318 -1.2447
 5493TIP3   OH238113   2.574   0.932   1.120 -0.7257  0.1604  0.0706
 5493TIP3    H138114   2.595   0.886   1.201 -0.3795 -0.0352 -0.1259
 5493TIP3    H238115   2.659   0.961   1.086 -0.8312 -0.0649 -0.4001
 5494TIP3   OH238116   5.832   2.949   8.374 -0.0275 -0.3131  0.0163
 5494TIP3    H138117   5.890   2.915   8.443  1.1413 -0.1521 -0.8582
 5494TIP3    H238118   5.799   3.032   8.409 -0.2717 -0.7319  0.8013
 5495TIP3   OH238119   5.670   5.628   6.835  0.5593 -0.2761  0.1938
 5495TIP3    H138120   5.587   5.641   6.881  0.4668 -1.4363  0.3688
 5495TIP3    H238121   5.736   5.665   6.894  0.3052 -0.5590  0.6567
 5496TIP3   OH238122   2.701   2.635   1.754 -0.8627 -0.1618  0.2678
 5496TIP3    H138123   2.619   2.683   1.738 -0.3131  0.1494 -1.8951
 5496TIP3    H238124   2.685   2.548   1.718  0.0590  0.2196 -1.1594
 5497TIP3   OH238125   0.669   3.248   7.334 -0.2214 -0.1274  0.2000
 5497TIP3    H138126   0.719   3.181   7.288  0.2442  1.0706 -1.0882
 5497TIP3    H238127   0.590   3.202   7.362  0.5593 -1.4841  0.3153
 5498TIP3   OH238128   5.822   0.406   7.042 -0.1454 -0.3142  0.0943
 5498TIP3    H138129   5.911   0.432   7.020  0.0046 -0.2438  0.7668
 5498TIP3    H238130   5.781   0.486   7.075  0.1195 -0.7554  1.5659
 5499TIP3   OH238131   5.558   3.854   1.898 -0.3172 -0.3071 -0.1721
 5499TIP3    H138132   5.508   3.816   1.826 -0.3078  0.6989 -0.7388
 5499TIP3    H238133   5.607   3.781   1.935 -2.4624 -1.3850  0.6353
 5500TIP3   OH238134   2.624   5.280   0.989 -0.4790  0.3283  0.6217
 5500TIP3    H138135   2.633   5.366   1.031  1.6444  0.6632 -0.3886
 5500TIP3    H238136   2.615   5.300   0.896 -1.1724 -0.5297  0.4931
 5501TIP3   OH238137   1.855   2.831   2.722 -0.9958 -0.0110 -0.0458
 5501TIP3    H138138   1.918   2.845   2.652 -0.2766  0.1192  0.6178
 5501TIP3    H238139   1.814   2.747   2.700  0.4278 -0.8212  0.2680
 5502TIP3   OH238140   4.792   5.477   0.073  0.1280  0.0185  0.8117
 5502TIP3    H138141   4.767   5.388   0.095  1.0734 -1.0402 -2.0206
 5502TIP3    H238142   4.808   5.519   0.158 -2.1108 -1.8937  2.2950
 5503TIP3   OH238143   6.270   0.396   7.150 -0.2872  0.2255  0.2831
 5503TIP3    H138144   6.327   0.329   7.187  0.6725  0.6671 -0.3490
 5503TIP3    H238145   6.299   0.477   7.193  0.6207  0.6903 -1.1478
 5504TIP3   OH238146   5.108   0.994   7.415  0.3381 -0.1553 -0.4954
 5504TIP3    H138147   5.038   0.935   7.389 -0.2441  0.7778 -1.1167
 5504TIP3    H238148   5.080   1.080   7.382  0.5647  0.7125  1.4614
 5505TIP3   OH238149   6.432   3.095   1.440 -0.1653  0.3208 -0.5269
 5505TIP3    H138150   6.509   3.055   1.399 -0.2264  2.0139 -2.4192
 5505TIP3    H238151   6.463   3.125   1.525  0.7406 -0.7094 -0.4739
 5506TIP3   OH238152   2.481   5.959   2.272  0.1613 -0.2578 -0.7362
 5506TIP3    H138153   2.407   5.898   2.279  0.1447 -0.2453 -0.8067
 5506TIP3    H238154   2.558   5.905   2.290 -0.0152  0.1427  1.4629
 5507TIP3   OH238155   4.636   6.543   2.588 -0.1474 -0.2320  0.5621
 5507TIP3    H138156   4.613   6.483   2.518 -2.4423  1.3326 -0.1528
 5507TIP3    H238157   4.685   6.490   2.652 -2.9648 -3.1209  0.5150
 5508TIP3   OH238158   2.503   3.261   7.461  0.2761 -0.5950 -0.0244
 5508TIP3    H138159   2.586   3.221   7.486  0.3971 -0.7627 -0.6813
 5508TIP3    H238160   2.446   3.187   7.439 -0.0359 -0.4785  0.3783
 5509TIP3   OH238161   4.154   3.771   8.028  0.5480  0.5445 -0.5473
 5509TIP3    H138162   4.224   3.801   7.970  1.1194  1.6882  0.6811
 5509TIP3    H238163   4.171   3.677   8.040 -0.1846  0.0467 -2.9866
 5510TIP3   OH238164   0.172   2.666   3.148  0.1243  0.5518  0.6918
 5510TIP3    H138165   0.165   2.726   3.222 -1.4609 -0.8114  1.7140
 5510TIP3    H238166   0.083   2.631   3.138  0.1391  1.0945 -2.2229
 5511TIP3   OH238167   6.293   3.662   1.207  0.1346  0.3388 -0.4671
 5511TIP3    H138168   6.209   3.636   1.169 -1.1183  3.2870  0.0394
 5511TIP3    H238169   6.359   3.631   1.145 -1.3136 -1.5155 -1.1776
 5512TIP3   OH238170   0.794   5.387   1.392 -0.2434 -0.7513  0.7166
 5512TIP3    H138171   0.745   5.321   1.441 -2.8541  0.7810  0.3659
 5512TIP3    H238172   0.817   5.343   1.310 -1.0119 -1.5354  0.9050
 5513TIP3   OH238173   2.357   6.507   7.134  0.6807 -0.1198  0.9827
 5513TIP3    H138174   2.418   6.577   7.155 -0.0449  0.9444 -0.3190
 5513TIP3    H238175   2.303   6.497   7.213  1.2048  0.3266  1.4041
 5514TIP3   OH238176   6.761   5.598   7.658 -0.6982  0.4109  0.4072
 5514TIP3    H138177   6.748   5.628   7.748 -3.4510 -1.2352  0.6806
 5514TIP3    H238178   6.713   5.661   7.605 -0.3534  0.5215  0.2204
 5515TIP3   OH238179   3.647   6.062   7.791  0.0334  0.1460  0.4495
 5515TIP3    H138180   3.569   6.041   7.739  1.0501 -0.9531 -0.6852
 5515TIP3    H238181   3.699   6.118   7.735  0.1324  0.7818  1.1619
 5516TIP3   OH238182   2.710   4.771   2.167  0.2926 -0.2965 -0.3460
 5516TIP3    H138183   2.718   4.680   2.197  1.8387  0.2689  1.0849
 5516TIP3    H238184   2.791   4.787   2.118  0.7790  0.7765  0.7710
 5517TIP3   OH238185   6.149   5.899   6.948 -0.0754 -0.2406 -0.2673
 5517TIP3    H138186   6.230   5.942   6.921 -1.2638  2.0873 -0.3289
 5517TIP3    H238187   6.096   5.895   6.868 -0.0811 -1.7055 -0.2205
 5518TIP3   OH238188   6.182   4.957   2.730  0.5177 -0.1211 -0.6809
 5518TIP3    H138189   6.205   4.995   2.814  2.1849 -1.9455 -0.2477
 5518TIP3    H238190   6.130   4.880   2.751  2.3417 -1.5628 -1.1455
 5519TIP3   OH238191   2.213   4.008   0.382 -0.2515 -0.0096  0.1875
 5519TIP3    H138192   2.146   3.987   0.317  1.1067 -0.5603 -1.0612
 5519TIP3    H238193   2.178   3.973   0.464 -0.3871 -2.6001 -0.8965
 5520TIP3   OH238194   0.573   2.624   1.357 -0.1177 -0.6001 -0.2131
 5520TIP3    H138195   0.493   2.630   1.305 -0.6723 -2.5162  0.3599
 5520TIP3    H238196   0.570   2.537   1.396  1.1137  0.1447  1.6728
 5521TIP3   OH238197   5.765   3.334   1.808 -0.2347  0.2403  0.0696
 5521TIP3    H138198   5.805   3.362   1.891 -0.3287  1.9379 -0.4229
 5521TIP3    H238199   5.780   3.407   1.748  0.6310 -1.3012 -1.7067
 5522TIP3   OH238200   5.994   0.257   1.394  0.3099  0.3273  0.1990
 5522TIP3    H138201   5.984   0.269   1.299  0.5430 -0.2329  0.0966
 5522TIP3    H238202   5.909   0.281   1.431 -0.9589 -2.6097 -0.4692
 5523TIP3   OH238203   2.505   0.314   1.373 -0.0791 -0.1680  0.2630
 5523TIP3    H138204   2.573   0.337   1.436 -0.2374 -1.1041  0.7992
 5523TIP3    H238205   2.424   0.349   1.411 -0.0921 -0.2208  0.2832
 5524TIP3   OH238206   3.686   4.917   7.159 -0.2408  0.2355 -0.3527
 5524TIP3    H138207   3.667   4.935   7.251 -1.1767 -1.9634 -0.0367
 5524TIP3    H238208   3.749   4.984   7.133  0.7503  0.3684  2.1540
 5525TIP3   OH238209   0.949   0.834   1.257  0.2418 -0.4196  0.5301
 5525TIP3    H138210   0.912   0.787   1.182  1.7778  0.0302 -0.5644
 5525TIP3    H238211   0.894   0.808   1.331 -0.5291 -1.9073 -0.5030
 5526TIP3   OH238212   4.000   4.398   0.279 -0.1851  0.2129 -0.4374
 5526TIP3    H138213   3.929   4.438   0.330 -0.8920 -2.3108  0.7321
 5526TIP3    H238214   4.057   4.358   0.344 -1.0226 -2.9882 -1.4665
 5527TIP3   OH238215   4.275   0.715   0.529 -1.0551 -0.5293 -0.0028
 5527TIP3    H138216   4.313   0.633   0.559  0.5618  0.6697  1.3927
 5527TIP3    H238217   4.343   0.755   0.475 -1.5807  0.1753 -0.1642
 5528TIP3   OH238218   5.305   0.644   1.032  1.0236  0.0024  0.3530
 5528TIP3    H138219   5.355   0.686   1.102  0.7380  0.2871  0.3882
 5528TIP3    H238220   5.270   0.716   0.981 -1.2332 -0.0919  1.6254
 5529TIP3   OH238221   5.854   1.236   7.816  0.3159 -0.3160  0.0236
 5529TIP3    H138222   5.910   1.314   7.817  0.8429 -0.6925  1.0193
 5529TIP3    H238223   5.907   1.169   7.773  0.1347 -0.3226 -0.1911
 5530TIP3   OH238224   3.824   5.241   2.473 -0.1708 -0.8151  0.1140
 5530TIP3    H138225   3.842   5.303   2.543  0.4690  0.3431 -1.0373
 5530TIP3    H238226   3.835   5.291   2.392  1.2646 -2.6156 -0.8972
 5531TIP3   OH238227   4.221   1.777   1.084 -0.4469  0.4771  0.3936
 5531TIP3    H138228   4.312   1.767   1.112 -0.4817 -1.4694 -0.0001
 5531TIP3    H238229   4.225   1.775   0.989 -0.7577  2.2545  0.3229
 5532TIP3   OH238230   6.543   6.017   2.822  0.1361  0.3087  0.0640
 5532TIP3    H138231   6.581   5.982   2.903 -0.6770 -0.8336 -0.0233
 5532TIP3    H238232   6.490   6.091   2.850 -0.5870 -0.4162  0.6592
 5533TIP3   OH238233   6.732   1.679   0.323  0.4467  0.3261 -0.1420
 5533TIP3    H138234   6.777   1.609   0.276  1.6656  1.3746 -0.5875
 5533TIP3    H238235   6.644   1.682   0.284  0.8512 -0.0193 -1.1020
 5534TIP3   OH238236   5.049   5.338   0.796 -0.1495 -0.2223 -0.0132
 5534TIP3    H138237   4.994   5.286   0.855  2.8321 -1.0231  2.3046
 5534TIP3    H238238   5.007   5.424   0.794 -2.7037 -1.3672 -0.2890
 5535TIP3   OH238239   2.370   2.465   2.692  0.2615  1.1873  0.4863
 5535TIP3    H138240   2.402   2.518   2.766  0.2596  0.4536  1.0178
 5535TIP3    H238241   2.309   2.403   2.731  0.9952  0.1406  0.0327
 5536TIP3   OH238242   2.850   5.036   8.269  0.4396  0.8529  0.2623
 5536TIP3    H138243   2.943   5.019   8.286 -0.0762 -1.8685  0.7970
 5536TIP3    H238244   2.838   5.128   8.292  3.2508  1.6758 -1.0746
 5537TIP3   OH238245   0.120   5.658   8.255  0.0715 -0.4670  0.0494
 5537TIP3    H138246   0.166   5.601   8.316 -0.2732 -1.5911 -0.7000
 5537TIP3    H238247   0.144   5.625   8.168  0.8302  1.3033 -0.4651
 5538TIP3   OH238248   0.951   6.474   7.110 -0.9207  0.5154  0.0493
 5538TIP3    H138249   0.906   6.535   7.169  0.7237  2.2686 -0.3859
 5538TIP3    H238250   1.044   6.495   7.122 -0.4075 -0.8855 -1.2753
 5539TIP3   OH238251   5.807   2.045   7.466  0.3844  0.3323 -0.1643
 5539TIP3    H138252   5.802   2.070   7.558 -0.5503 -1.2728  0.2672
 5539TIP3    H238253   5.814   1.949   7.467  1.8869  0.3658 -1.7427
 5540TIP3   OH238254   0.341   3.220   2.523 -0.3040  0.0267 -0.0200
 5540TIP3    H138255   0.329   3.180   2.609  1.0074  0.2048  0.2718
 5540TIP3    H238256   0.296   3.305   2.529 -1.9845 -0.8087 -0.2171
 5541TIP3   OH238257   7.005   1.922   1.976  0.3934  0.0165 -0.4949
 5541TIP3    H138258   6.941   1.993   1.989  0.7815  0.3581 -0.4141
 5541TIP3    H238259   6.954   1.850   1.940  0.1740  0.6923 -1.5887
 5542TIP3   OH238260   3.799   0.217   7.238 -0.2854 -0.3658 -0.0989
 5542TIP3    H138261   3.855   0.195   7.163 -1.6204 -2.4245 -0.5523
 5542TIP3    H238262   3.755   0.298   7.211  1.2255  0.4170 -0.3755
 5543TIP3   OH238263   4.751   3.865   1.176 -0.7582 -0.0035 -0.1258
 5543TIP3    H138264   4.831   3.835   1.133 -1.3327 -1.8306  0.0012
 5543TIP3    H238265   4.719   3.936   1.121  1.7953  1.9060  0.6990
 5544TIP3   OH238266   5.075   1.911   7.633 -0.5393 -0.0357 -0.2767
 5544TIP3    H138267   5.088   1.990   7.686  0.0007 -0.8066  0.7978
 5544TIP3    H238268   5.016   1.857   7.686  0.5430 -1.1086 -0.1114
 5545TIP3   OH238269   6.017   4.668   2.112 -0.2526  0.0018  0.1545
 5545TIP3    H138270   5.962   4.617   2.053  2.0199 -0.3311 -1.8172
 5545TIP3    H238271   6.009   4.758   2.081  2.2636 -0.3840 -1.9535
 5546TIP3   OH238272   0.693   2.294   7.688 -0.4086 -0.2136  0.8701
 5546TIP3    H138273   0.778   2.323   7.656 -0.8803 -0.4388 -0.7109
 5546TIP3    H238274   0.677   2.212   7.641 -1.0253 -0.7326  1.9592
 5547TIP3   OH238275   3.540   4.956   8.118  0.4662  0.0441 -0.0242
 5547TIP3    H138276   3.464   4.975   8.172  0.9547 -1.2691  1.2003
 5547TIP3    H238277   3.516   4.878   8.068  1.7742 -1.9909  2.2567
 5548TIP3   OH238278   2.598   3.864   7.308 -0.4511  0.1649  0.4863
 5548TIP3    H138279   2.552   3.866   7.224  0.1523  0.0688  0.1445
 5548TIP3    H238280   2.634   3.775   7.313  0.4026  0.4937  0.3502
 5549TIP3   OH238281   0.547   5.556   7.529  0.0495  0.1407 -0.3873
 5549TIP3    H138282   0.609   5.622   7.499 -0.7254  0.4416 -1.3699
 5549TIP3    H238283   0.471   5.567   7.472 -0.9862 -0.0966  0.9020
 5550TIP3   OH238284   2.406   5.428   1.361 -0.6205 -0.1962  0.1234
 5550TIP3    H138285   2.414   5.454   1.453  1.6221 -0.9960  0.2172
 5550TIP3    H238286   2.367   5.504   1.318  1.9571  1.8010  1.0835
 5551TIP3   OH238287   3.387   0.494   0.838  0.3681  0.3937  0.6311
 5551TIP3    H138288   3.440   0.536   0.770 -0.3280  1.4867  0.7550
 5551TIP3    H238289   3.302   0.480   0.797  0.8367 -1.8395  0.2533
 5552TIP3   OH238290   6.925   5.417   7.450  0.1080 -0.7763  0.1383
 5552TIP3    H138291   6.993   5.484   7.446 -0.9104  0.2229 -1.4581
 5552TIP3    H238292   6.858   5.454   7.506  0.5560 -1.4802  1.1662
 5553TIP3   OH238293   6.423   1.763   2.147 -0.4297  0.2280 -0.3718
 5553TIP3    H138294   6.466   1.714   2.217  0.4378 -1.2917 -1.8859
 5553TIP3    H238295   6.360   1.819   2.192  0.7280 -0.0104  1.6719
 5554TIP3   OH238296   0.844   0.373   7.645 -0.2384 -0.0945 -0.2941
 5554TIP3    H138297   0.823   0.292   7.599 -0.5138 -0.1943  0.0075
 5554TIP3    H238298   0.766   0.428   7.634 -0.6857 -0.4702  0.8407
 5555TIP3   OH238299   1.565   0.504   6.736  0.5659  0.4269 -0.1018
 5555TIP3    H138300   1.654   0.493   6.769  0.8036  2.9034  0.3354
 5555TIP3    H238301   1.576   0.538   6.648  0.0173 -0.1776 -0.4132
 5556TIP3   OH238302   6.656   3.499   0.841  0.7058  0.2112 -0.1886
 5556TIP3    H138303   6.623   3.420   0.797  1.7147 -0.0133 -0.5705
 5556TIP3    H238304   6.697   3.550   0.771 -1.5539  2.0040 -0.3110
 5557TIP3   OH238305   3.160   5.623   3.120 -0.2558 -0.1544  0.2139
 5557TIP3    H138306   3.083   5.573   3.146  0.0296 -0.8940 -0.3241
 5557TIP3    H238307   3.128   5.713   3.109 -0.9359 -0.3623  0.4428
 5558TIP3   OH238308   6.013   0.663   2.566 -0.3518 -0.2635  0.0196
 5558TIP3    H138309   6.050   0.748   2.541  0.3893 -0.6802 -0.3288
 5558TIP3    H238310   6.023   0.608   2.488 -0.1836 -0.8781  0.4626
 5559TIP3   OH238311   6.805   1.997   2.310  0.2380 -0.5379 -0.0043
 5559TIP3    H138312   6.824   2.067   2.248  0.3186 -0.2218  0.3739
 5559TIP3    H238313   6.711   2.006   2.328 -0.0420 -1.3403 -0.9400
 5560TIP3   OH238314   6.600   1.565   8.200 -0.0597 -0.2199  0.7624
 5560TIP3    H138315   6.659   1.621   8.250  0.3574  0.4518 -0.4296
 5560TIP3    H238316   6.627   1.578   8.109 -0.1697 -2.1191  0.4169
 5561TIP3   OH238317   2.871   4.586   7.566 -0.2044  0.8250 -0.2929
 5561TIP3    H138318   2.838   4.670   7.533 -3.5394 -1.1201 -2.5818
 5561TIP3    H238319   2.940   4.562   7.504 -1.3846  0.5609 -1.5665
 5562TIP3   OH238320   4.781   1.899   7.222  0.8291  0.3130  0.1174
 5562TIP3    H138321   4.743   1.981   7.255  0.7138  0.2852  0.0536
 5562TIP3    H238322   4.718   1.832   7.247  0.4020  0.3766 -0.7585
 5563TIP3   OH238323   6.117   5.168   1.209 -0.4893 -0.3174 -0.3540
 5563TIP3    H138324   6.063   5.136   1.282 -1.8257  0.5841 -0.9175
 5563TIP3    H238325   6.054   5.203   1.146  0.7468  0.4038 -1.2247
 5564TIP3   OH238326   0.803   2.669   1.173  0.1071  0.2886 -0.4046
 5564TIP3    H138327   0.792   2.755   1.133  0.9197  0.6938  0.1988
 5564TIP3    H238328   0.716   2.646   1.206  0.1478  1.5228  0.6629
 5565TIP3   OH238329   3.218   1.807   0.620 -0.1251 -0.5226 -0.5076
 5565TIP3    H138330   3.136   1.826   0.666 -0.1238 -2.8942  0.5698
 5565TIP3    H238331   3.279   1.780   0.688  1.3682  0.4209 -1.3975
 5566TIP3   OH238332   5.089   4.516   1.291  0.3761 -0.3367  0.1204
 5566TIP3    H138333   5.139   4.567   1.227  0.3934  1.0935  1.2380
 5566TIP3    H238334   5.122   4.426   1.281  0.5741 -0.0974 -1.6613
 5567TIP3   OH238335   6.507   6.170   0.545  0.3293 -0.2899  0.1338
 5567TIP3    H138336   6.513   6.089   0.595 -0.3364  0.0233  0.7354
 5567TIP3    H238337   6.455   6.147   0.467 -0.6848 -0.2297  0.7746
 5568TIP3   OH238338   5.348   3.936   0.038  0.2803 -0.1940  0.7172
 5568TIP3    H138339   5.388   3.858   0.077  1.4861  1.1284  2.2658
 5568TIP3    H238340   5.413   3.967  -0.026  0.1174 -0.0718  0.6087
 5569TIP3   OH238341   5.621   1.824   2.536  0.1316 -0.2925 -0.3251
 5569TIP3    H138342   5.672   1.817   2.616  0.7880  2.0409 -0.4578
 5569TIP3    H238343   5.530   1.829   2.566  0.5011  3.8968  0.7317
 5570TIP3   OH238344   5.128   1.685   7.841 -0.6663 -0.6240  0.1041
 5570TIP3    H138345   5.084   1.602   7.821 -0.3809 -0.6935 -0.2413
 5570TIP3    H238346   5.156   1.718   7.756 -1.1041  0.0106  0.2031
 5571TIP3   OH238347   4.894   6.111   1.523 -0.0365  0.8232  0.0202
 5571TIP3    H138348   4.879   6.068   1.607  0.8898  1.1019  0.3383
 5571TIP3    H238349   4.832   6.070   1.463 -1.7836  1.6415  1.1665
 5572TIP3   OH238350   2.841   2.921   7.951 -0.1154 -0.0764  0.1686
 5572TIP3    H138351   2.876   3.010   7.948  0.5052 -0.3024  0.3504
 5572TIP3    H238352   2.866   2.883   7.867  0.3628 -0.3387  0.4233
 5573TIP3   OH238353   0.911   5.058   6.720  0.0239  0.1224  0.2755
 5573TIP3    H138354   0.958   5.084   6.800  0.4564 -1.0981  0.4385
 5573TIP3    H238355   0.974   5.075   6.649 -0.0272  0.3497  0.2829
 5574TIP3   OH238356   0.664   1.040   1.316 -0.3774  0.0117 -0.1020
 5574TIP3    H138357   0.732   0.999   1.261  0.7906  3.3348 -1.3766
 5574TIP3    H238358   0.585   1.032   1.263  0.5608  2.3884 -2.0675
 5575TIP3   OH238359   0.871   5.114   0.120  0.6150 -0.0395  0.9793
 5575TIP3    H138360   0.950   5.150   0.161  1.4908  0.9216 -1.3557
 5575TIP3    H238361   0.799   5.157   0.164  1.5805  3.2769 -0.3491
 5576TIP3   OH238362   3.216   5.385   0.114 -0.8487 -0.4312  0.0844
 5576TIP3    H138363   3.294   5.404   0.167 -0.9093 -0.3691  0.1520
 5576TIP3    H238364   3.161   5.463   0.124 -1.4887 -0.9816  1.0579
 5577TIP3   OH238365   0.707   3.649   7.114 -0.7887 -0.5527  0.2882
 5577TIP3    H138366   0.673   3.647   7.204 -0.6058  0.2782  0.3809
 5577TIP3    H238367   0.674   3.569   7.074 -3.2319  0.3981  0.2451
 5578TIP3   OH238368   0.897   6.480   7.432  0.0484 -0.0672 -0.0092
 5578TIP3    H138369   0.897   6.496   7.526 -0.7455 -1.4540  0.2550
 5578TIP3    H238370   0.979   6.432   7.416  2.3844  3.7653 -0.7869
 5579TIP3   OH238371   2.587   2.501   2.510  0.0611 -0.7295  0.5815
 5579TIP3    H138372   2.636   2.562   2.565  1.2178 -1.6452  0.6038
 5579TIP3    H238373   2.515   2.470   2.566  0.8590 -1.1839  1.3817
 5580TIP3   OH238374   2.636   5.075   7.688 -0.0941  0.2827 -0.0647
 5580TIP3    H138375   2.717   5.126   7.678  0.2923 -0.4102 -0.5411
 5580TIP3    H238376   2.568   5.141   7.701  0.5097  0.8876  0.1030
 5581TIP3   OH238377   5.543   0.229   7.373 -0.0676  0.0430  0.3597
 5581TIP3    H138378   5.571   0.138   7.361  1.0630  0.4658 -0.4108
 5581TIP3    H238379   5.448   0.224   7.380 -0.2707 -1.0003 -2.0681
 5582TIP3   OH238380   6.372   0.052   1.906 -0.0919  0.2735  0.9252
 5582TIP3    H138381   6.426   0.044   1.827  0.0411  1.7137  0.8417
 5582TIP3    H238382   6.416  -0.003   1.970  0.0025 -0.6305  0.1105
 5583TIP3   OH238383   2.267   4.957   2.865 -0.2297  0.4065 -0.4172
 5583TIP3    H138384   2.304   5.039   2.834 -1.1949  0.5724 -1.1608
 5583TIP3    H238385   2.248   4.907   2.785 -0.2175 -0.2858  0.0025
 5584TIP3   OH238386   6.178   0.847   0.038  0.3552 -0.4893 -0.1215
 5584TIP3    H138387   6.158   0.755   0.055  1.3397 -0.7041 -0.0782
 5584TIP3    H238388   6.272   0.849   0.022  0.0814  0.2674 -1.8019
 5585TIP3   OH238389   7.017   0.462   7.893  0.6404  0.0376  0.1924
 5585TIP3    H138390   7.068   0.521   7.949  1.7305  1.0872 -1.7676
 5585TIP3    H238391   7.083   0.414   7.843 -0.2761 -0.2396 -0.7903
 5586TIP3   OH238392   2.890   5.439   2.951  0.0233  0.1388  0.4013
 5586TIP3    H138393   2.802   5.471   2.968  0.1489  1.1276 -0.7094
 5586TIP3    H238394   2.933   5.443   3.037 -1.1055 -0.7622  1.0434
 5587TIP3   OH238395   5.745   6.453   2.073 -0.1618 -0.3065  0.0993
 5587TIP3    H138396   5.828   6.454   2.121  0.8773  2.6139 -1.5561
 5587TIP3    H238397   5.678   6.458   2.142  1.0171 -1.3978  1.3972
 5588TIP3   OH238398   1.045   1.370   6.937  0.3421 -0.3273  0.2894
 5588TIP3    H138399   1.004   1.374   7.024  0.7199  0.8398  0.4332
 5588TIP3    H238400   1.069   1.461   6.918  0.8957 -0.6764 -0.7405
 5589TIP3   OH238401   3.626   5.512   0.852 -0.2585  0.4275 -0.1626
 5589TIP3    H138402   3.667   5.573   0.912 -0.9660  0.4069  0.3601
 5589TIP3    H238403   3.668   5.528   0.768  1.5933 -0.3391  0.5477
 5590TIP3   OH238404   5.747   0.689   0.788 -0.2891  0.1108 -0.2238
 5590TIP3    H138405   5.717   0.744   0.716 -1.0269 -1.2466 -1.0167
 5590TIP3    H238406   5.666   0.650   0.823  0.2792 -1.2889 -0.4084
 5591TIP3   OH238407   3.152   0.449   0.680  0.5170 -0.4439 -0.5732
 5591TIP3    H138408   3.099   0.369   0.685  1.0036 -0.8554 -1.6494
 5591TIP3    H238409   3.156   0.470   0.587  0.0968  1.0583 -0.2733
 5592TIP3   OH238410   2.262   2.875   0.288 -0.2331  0.6511  0.4630
 5592TIP3    H138411   2.324   2.929   0.239 -0.6789  0.4090 -0.3741
 5592TIP3    H238412   2.272   2.787   0.251 -0.9833  0.5844  0.4087
 5593TIP3   OH238413   4.913   6.113   7.841 -0.5890 -0.4763  0.6768
 5593TIP3    H138414   4.877   6.025   7.856  0.8472 -1.0016  1.2117
 5593TIP3    H238415   5.006   6.098   7.823 -0.5236  0.8644 -0.2231
 5594TIP3   OH238416   2.935   5.856   2.403  0.2265 -0.4623 -0.1079
 5594TIP3    H138417   2.905   5.940   2.437 -2.0860 -0.8317 -1.0693
 5594TIP3    H238418   3.031   5.863   2.404  0.1094  2.1430 -0.1205
 5595TIP3   OH238419   4.437   2.751   1.051 -0.1784  0.0154 -0.0008
 5595TIP3    H138420   4.361   2.705   1.014 -0.8390  0.1945  1.0843
 5595TIP3    H238421   4.480   2.685   1.106  1.1345 -0.4237 -1.4877
 5596TIP3   OH238422   4.071   3.044   2.194  0.3102  0.3523 -0.3207
 5596TIP3    H138423   4.120   3.125   2.208  1.6952 -0.1479 -1.8512
 5596TIP3    H238424   4.004   3.044   2.262  1.6450  1.7206  1.0807
 5597TIP3   OH238425   1.430   1.840   0.003 -0.3182 -0.2041 -0.1545
 5597TIP3    H138426   1.510   1.883   0.034 -0.1556  0.4022 -1.3402
 5597TIP3    H238427   1.359   1.895   0.037 -0.1713  0.0998 -0.3352
 5598TIP3   OH238428   6.917   5.806   8.261  0.3265  0.1953  0.2007
 5598TIP3    H138429   6.839   5.755   8.240  0.6392 -0.7635  1.2493
 5598TIP3    H238430   6.988   5.742   8.259  0.6797  0.4909  1.9038
 5599TIP3   OH238431   0.458   5.394   2.477  0.1110 -0.4068 -0.0748
 5599TIP3    H138432   0.375   5.356   2.505 -0.8169  1.1870 -0.5315
 5599TIP3    H238433   0.490   5.442   2.553  0.5664 -0.9260  0.0652
 5600TIP3   OH238434   0.434   6.895   0.005 -0.0323 -0.1890  0.5369
 5600TIP3    H138435   0.413   6.805   0.030  1.8086 -1.9845 -3.5135
 5600TIP3    H238436   0.358   6.924  -0.046 -1.0494  1.0863  2.6150
 5601TIP3   OH238437   6.468   0.791   0.118 -0.5186 -0.6736  0.0641
 5601TIP3    H138438   6.517   0.866   0.154  0.4866 -1.0278 -0.5142
 5601TIP3    H238439   6.411   0.763   0.190 -0.0299 -0.1001  0.6928
 5602TIP3   OH238440   3.993   3.542   0.737 -0.0060 -0.0456 -0.0763
 5602TIP3    H138441   3.935   3.514   0.808  1.5072 -0.8108  0.9198
 5602TIP3    H238442   3.974   3.635   0.725  0.4022  0.3804  2.0820
 5603TIP3   OH238443   1.760   2.697   8.292  0.0136 -0.0307  0.0372
 5603TIP3    H138444   1.689   2.711   8.355 -0.8889 -3.3061 -0.0393
 5603TIP3    H238445   1.745   2.761   8.223 -2.4760 -0.1274  0.4067
 5604TIP3   OH238446   1.796   6.580   7.518 -0.1512  0.2534 -0.3623
 5604TIP3    H138447   1.882   6.622   7.528 -0.5551  0.6362  1.7836
 5604TIP3    H238448   1.739   6.649   7.484  0.3143  0.0246 -1.6968
 5605TIP3   OH238449   4.016   2.224   0.556  0.5496 -0.4263  0.7818
 5605TIP3    H138450   3.974   2.164   0.617  0.1784  0.3657  1.3282
 5605TIP3    H238451   3.991   2.193   0.469 -2.1641  0.6535  1.0833
 5606TIP3   OH238452   6.202   3.691   0.838  0.4817 -0.0280 -0.3376
 5606TIP3    H138453   6.135   3.682   0.907  1.8863  0.0279  1.1018
 5606TIP3    H238454   6.279   3.648   0.875  1.3491  0.2240 -1.8148
 5607TIP3   OH238455   6.512   3.152   2.012  0.3125 -0.0311  0.2476
 5607TIP3    H138456   6.491   3.064   1.983  3.3337 -0.2493 -1.7125
 5607TIP3    H238457   6.562   3.139   2.093  0.7067 -0.1167 -0.0091
 5608TIP3   OH238458   1.889   3.140   8.219 -0.4539 -0.2157  0.2866
 5608TIP3    H138459   1.889   3.232   8.196 -1.1289 -0.1107  0.6838
 5608TIP3    H238460   1.944   3.098   8.153 -2.0482  0.1141 -1.3242
 5609TIP3   OH238461   6.926   2.639   3.442  0.3452 -0.1735 -0.0911
 5609TIP3    H138462   6.919   2.546   3.461  0.5281 -0.8400 -2.9548
 5609TIP3    H238463   6.836   2.666   3.420  0.2335  0.4384  1.0305
 5610TIP3   OH238464   5.081   3.988   1.108  0.9499 -0.6504 -0.0013
 5610TIP3    H138465   5.100   3.922   1.041  1.7673 -0.0026 -0.4188
 5610TIP3    H238466   5.082   3.939   1.190  0.4710 -1.3529 -0.3929
 5611TIP3   OH238467   4.323   6.268   1.953 -0.1039 -0.8884 -0.6111
 5611TIP3    H138468   4.344   6.206   2.023 -0.2284 -2.7849 -2.1613
 5611TIP3    H238469   4.228   6.263   1.944 -0.1792  0.0158 -0.3205
 5612TIP3   OH238470   3.541   0.351   7.504  0.2168 -0.3786 -0.0616
 5612TIP3    H138471   3.544   0.394   7.419 -2.4244  0.6682  0.2628
 5612TIP3    H238472   3.470   0.287   7.497 -0.2973 -0.0211  1.4187
 5613TIP3   OH238473   2.555   1.549   7.516 -0.5572  0.1359  0.4752
 5613TIP3    H138474   2.544   1.530   7.423  1.2115  1.1932  0.0032
 5613TIP3    H238475   2.586   1.466   7.554  3.2430  0.7447 -0.8253
 5614TIP3   OH238476   6.614   3.435   2.437  0.7986 -0.0732  0.2564
 5614TIP3    H138477   6.693   3.464   2.391  0.6189 -0.9234 -0.6167
 5614TIP3    H238478   6.542   3.463   2.381  0.6084 -1.9401 -0.5155
 5615TIP3   OH238479   6.570   0.218   8.024 -0.8709 -0.7522  0.3997
 5615TIP3    H138480   6.647   0.271   8.004 -0.2177 -0.2777  3.6945
 5615TIP3    H238481   6.539   0.189   7.938 -0.3216  3.5390 -1.5029
 5616TIP3   OH238482   6.716   0.511   1.836 -0.0931  0.3198 -0.3336
 5616TIP3    H138483   6.760   0.522   1.920 -0.5060  1.5178 -0.2531
 5616TIP3    H238484   6.629   0.549   1.849 -0.5321 -0.4120 -1.0029
 5617TIP3   OH238485   0.681   3.054   1.892 -0.0878  0.6685 -0.3838
 5617TIP3    H138486   0.709   3.144   1.905  2.1166  0.1025 -0.8597
 5617TIP3    H238487   0.662   3.022   1.980 -0.5302  1.4539 -0.1806
 5618TIP3   OH238488   2.350   5.943   7.342  0.3977  0.1037  0.0769
 5618TIP3    H138489   2.280   6.009   7.344  0.9147  0.6589  1.0180
 5618TIP3    H238490   2.431   5.995   7.336  0.7411 -0.5202 -0.8182
 5619TIP3   OH238491   1.533   5.456   8.182  0.7061 -0.1161  0.4683
 5619TIP3    H138492   1.438   5.449   8.173  0.7232  1.6811 -1.9318
 5619TIP3    H238493   1.546   5.509   8.260 -0.3844  1.5788 -0.4517
 5620TIP3   OH238494   4.413   3.087   8.186 -0.5313  0.5115  0.3990
 5620TIP3    H138495   4.420   3.177   8.216  0.1364  0.1749  1.3293
 5620TIP3    H238496   4.499   3.049   8.206 -1.0474 -0.5213  0.7394
 5621TIP3   OH238497   5.804   1.385   8.073 -0.4574  0.6601  0.1832
 5621TIP3    H138498   5.774   1.304   8.033  1.6681  0.3398 -0.9237
 5621TIP3    H238499   5.724   1.437   8.084 -1.5108 -0.3636 -1.9150
 5622TIP3   OH238500   1.394   3.556   2.833  0.6375 -0.3043 -0.1377
 5622TIP3    H138501   1.446   3.480   2.860  1.2516 -0.0707 -0.6343
 5622TIP3    H238502   1.344   3.526   2.757  0.3452 -0.4111  0.0938
 5623TIP3   OH238503   2.787   5.942   2.169 -0.2074 -0.3151  0.0759
 5623TIP3    H138504   2.757   5.863   2.124 -1.6698  0.6903 -0.7954
 5623TIP3    H238505   2.794   5.917   2.261 -1.2270 -1.3035 -0.0972
 5624TIP3   OH238506   3.939   0.585   8.045 -0.4567 -0.3330  0.2224
 5624TIP3    H138507   3.866   0.605   8.103 -1.8485 -2.8963 -0.5182
 5624TIP3    H238508   3.937   0.655   7.980 -2.1439 -0.2241  0.3460
 5625TIP3   OH238509   1.607   4.908   7.467  0.3419 -0.4326 -0.3378
 5625TIP3    H138510   1.624   4.960   7.388  1.9412 -0.1740  0.1537
 5625TIP3    H238511   1.634   4.964   7.539  0.0096 -1.1207  0.3328
 5626TIP3   OH238512   1.906   1.552   1.768  0.6585  0.7074 -0.0364
 5626TIP3    H138513   1.833   1.597   1.811 -0.2915 -1.7138  1.0473
 5626TIP3    H238514   1.968   1.534   1.839 -0.0257 -1.6003  0.0394
 5627TIP3   OH238515   4.731   0.190   6.896  0.0324  0.0124  0.2302
 5627TIP3    H138516   4.743   0.273   6.943  0.5358 -0.2118  0.5098
 5627TIP3    H238517   4.699   0.129   6.962 -0.6053  0.0511 -0.0387
 5628TIP3   OH238518   4.841   0.462   0.995  0.2057  0.0289 -0.2150
 5628TIP3    H138519   4.765   0.415   1.031 -0.6336  1.4468 -0.0489
 5628TIP3    H238520   4.883   0.399   0.938 -0.4208 -1.1790  0.6112
 5629TIP3   OH238521   5.479   2.614   0.994 -0.1645  0.1304 -0.3417
 5629TIP3    H138522   5.432   2.617   1.078  1.4209  2.1237  0.5564
 5629TIP3    H238523   5.565   2.579   1.016  0.4225  1.0955 -1.0286
 5630TIP3   OH238524   1.096   4.269   2.268 -0.1047  0.0482  0.3969
 5630TIP3    H138525   1.131   4.207   2.205 -1.1679  0.8156 -1.0235
 5630TIP3    H238526   1.104   4.225   2.353  0.0142 -1.6331 -0.4467
 5631TIP3   OH238527   1.815   2.481   2.188 -0.2847  0.3976 -0.9121
 5631TIP3    H138528   1.808   2.530   2.270 -1.3311 -0.3473 -0.5411
 5631TIP3    H238529   1.868   2.538   2.131 -0.7782  1.5798 -0.2308
 5632TIP3   OH238530   3.575   1.512   8.236 -0.0787  0.6220 -0.1893
 5632TIP3    H138531   3.598   1.419   8.233 -0.6715  0.4841 -2.1551
 5632TIP3    H238532   3.657   1.557   8.214  0.1391  0.5529  0.4751
 5633TIP3   OH238533   4.899   4.278   2.659 -0.7418  0.0542 -0.7479
 5633TIP3    H138534   4.975   4.298   2.713 -0.5376  0.3692 -1.1440
 5633TIP3    H238535   4.925   4.200   2.609 -0.2883  0.7551 -1.6290
 5634TIP3   OH238536   4.996   5.830   7.806 -0.3027  0.2300  0.2020
 5634TIP3    H138537   4.999   5.850   7.899 -1.3968 -0.4240  0.3926
 5634TIP3    H238538   4.952   5.744   7.801  0.7891 -0.2946 -0.8336
 5635TIP3   OH238539   6.676   2.995   7.821 -0.1508  0.2979  0.0740
 5635TIP3    H138540   6.737   3.029   7.757  0.1524  1.0268  0.7337
 5635TIP3    H238541   6.618   2.937   7.771 -0.0927  1.0541 -0.9004
 5636TIP3   OH238542   3.452   0.941   0.481 -0.6638  0.2298  0.5220
 5636TIP3    H138543   3.473   0.959   0.389  0.7624 -1.2688  0.5157
 5636TIP3    H238544   3.367   0.898   0.478  0.2329 -1.5725 -0.3106
 5637TIP3   OH238545   5.093   0.476   6.618  0.2322 -0.1161  0.0478
 5637TIP3    H138546   5.025   0.534   6.583  0.1065 -0.6847 -0.6632
 5637TIP3    H238547   5.046   0.395   6.640 -0.0641  0.7787  3.2622
 5638TIP3   OH238548   0.918   5.534   1.644  0.0741 -0.5495 -0.0421
 5638TIP3    H138549   0.836   5.500   1.609  0.3810 -0.4257 -0.8881
 5638TIP3    H238550   0.942   5.606   1.586 -0.1582  0.6357  1.2790
 5639TIP3   OH238551   6.382   0.726   1.034  0.2780 -0.2434  0.2879
 5639TIP3    H138552   6.463   0.693   1.074  1.0152  1.0985 -0.0368
 5639TIP3    H238553   6.341   0.648   0.996  0.8940 -1.1108  1.3316
 5640TIP3   OH238554   4.505   1.512   1.093 -0.0231 -0.3695 -0.4555
 5640TIP3    H138555   4.535   1.499   1.183 -1.8954  1.5082  0.5304
 5640TIP3    H238556   4.551   1.590   1.063 -0.3956 -0.2041 -0.6112
 5641TIP3   OH238557   0.381   5.305   1.342  0.0615  0.0224  0.2696
 5641TIP3    H138558   0.296   5.270   1.372  0.5976 -0.7992  0.8741
 5641TIP3    H238559   0.402   5.252   1.265 -0.1260  0.4481 -0.0768
 5642TIP3   OH238560   6.629   5.891   2.604  0.5351  0.0058 -0.3861
 5642TIP3    H138561   6.720   5.912   2.623  0.5738 -0.1728 -0.3694
 5642TIP3    H238562   6.581   5.924   2.680  0.5334  0.4913 -0.5955
 5643TIP3   OH238563   1.187   6.198   0.968  0.7687 -0.0266 -0.9911
 5643TIP3    H138564   1.145   6.112   0.968  0.6132  0.0447 -1.7322
 5643TIP3    H238565   1.133   6.251   1.027  1.7470 -0.8358  0.7249
 5644TIP3   OH238566   2.393   1.993   1.421  0.0105  0.6754  0.1628
 5644TIP3    H138567   2.474   1.985   1.370 -0.0039  0.0591  0.2256
 5644TIP3    H238568   2.412   1.946   1.502  0.2554  2.1814  1.0121
 5645TIP3   OH238569   0.339   6.985   1.470  0.3625  0.0793  0.0227
 5645TIP3    H138570   0.342   6.903   1.519 -1.2651  0.0026  0.0573
 5645TIP3    H238571   0.430   7.002   1.445  0.7569 -1.6137  0.2016
 5646TIP3   OH238572   3.831   6.145   2.265  0.3779 -0.2287 -0.1921
 5646TIP3    H138573   3.844   6.051   2.254  0.8744 -0.1375 -0.4377
 5646TIP3    H238574   3.774   6.153   2.342 -1.5427 -0.8113 -1.4860
 5647TIP3   OH238575   4.520   4.014   0.667  0.2630  0.1588  0.1099
 5647TIP3    H138576   4.527   4.107   0.645 -1.5758  0.4198  0.5071
 5647TIP3    H238577   4.551   3.969   0.588 -0.9238  1.1213 -0.9606
 5648TIP3   OH238578   7.000   3.509   1.730 -0.2692 -0.7782 -0.4808
 5648TIP3    H138579   6.928   3.543   1.678 -0.1415  0.2251 -0.0339
 5648TIP3    H238580   6.990   3.414   1.727 -1.4101 -0.6591 -0.6983
 5649TIP3   OH238581   4.841   2.438   3.138  0.4020  0.0435 -0.0154
 5649TIP3    H138582   4.774   2.384   3.181  0.4434  0.3534  0.4347
 5649TIP3    H238583   4.822   2.527   3.166  1.3616  0.0730  0.5905
 5650TIP3   OH238584   2.247   5.521   7.042 -0.3380  0.4456  0.0915
 5650TIP3    H138585   2.325   5.465   7.042 -0.0637  0.8160  0.7637
 5650TIP3    H238586   2.262   5.583   7.114 -0.9770  0.9076 -0.1653
 5651TIP3   OH238587   0.533   2.019   0.317  0.4922  0.2927  0.0460
 5651TIP3    H138588   0.605   2.001   0.378  0.0704  0.1143  0.4978
 5651TIP3    H238589   0.457   2.036   0.374 -0.0366 -0.4288 -0.4397
 5652TIP3   OH238590   1.959   5.163   7.105  0.4380 -0.1822 -0.0095
 5652TIP3    H138591   1.911   5.235   7.065 -0.0223 -0.1424  0.6027
 5652TIP3    H238592   1.987   5.109   7.031 -0.6291 -0.2601 -0.3665
 5653TIP3   OH238593   2.362   6.677   2.858 -0.0950  0.1558  0.3440
 5653TIP3    H138594   2.364   6.763   2.815  0.7854  0.3931  0.8393
 5653TIP3    H238595   2.276   6.673   2.899  0.4332  1.4974  1.6791
 5654TIP3   OH238596   5.389   4.284   0.414  0.5613 -0.3191  0.1003
 5654TIP3    H138597   5.378   4.261   0.321 -0.2048 -0.0717  0.1280
 5654TIP3    H238598   5.449   4.359   0.412  1.0161 -0.6817 -0.1516
 5655TIP3   OH238599   6.518   5.155   0.804 -0.4991  0.0331  0.1023
 5655TIP3    H138600   6.463   5.187   0.733 -2.3282  3.5876  2.8191
 5655TIP3    H238601   6.589   5.220   0.810 -0.8900  0.3321  2.0156
 5656TIP3   OH238602   0.555   1.501   7.756 -0.1962  0.1903 -0.0658
 5656TIP3    H138603   0.527   1.518   7.846 -2.4087 -2.0429 -0.2082
 5656TIP3    H238604   0.601   1.580   7.729  0.9837  0.7457  3.1664
 5657TIP3   OH238605   1.772   6.131   0.741  0.4706  0.7281  0.3457
 5657TIP3    H138606   1.784   6.144   0.835  0.2597 -0.4575  0.5624
 5657TIP3    H238607   1.681   6.102   0.732  0.2056  1.7294 -0.3366
 5658TIP3   OH238608   3.656   0.246   8.171  0.5808 -0.4231  0.1290
 5658TIP3    H138609   3.591   0.179   8.194  0.4595 -0.7066 -0.9730
 5658TIP3    H238610   3.666   0.298   8.250 -0.0933 -1.1179  0.6873
 5659TIP3   OH238611   4.764   5.495   7.645  0.5180 -0.1355 -0.4097
 5659TIP3    H138612   4.715   5.413   7.648 -1.0509  0.7714  0.1917
 5659TIP3    H238613   4.791   5.511   7.736 -0.9708  1.0008 -0.1310
 5660TIP3   OH238614   4.479   3.184   7.709 -0.0837  0.3438  0.0988
 5660TIP3    H138615   4.520   3.105   7.673  1.5632  1.7588 -1.2845
 5660TIP3    H238616   4.389   3.158   7.729  0.1124 -1.5776 -1.3120
 5661TIP3   OH238617   1.655   6.462   0.727 -0.4445 -0.2116 -0.0225
 5661TIP3    H138618   1.629   6.375   0.757 -4.0117  0.4079 -0.8276
 5661TIP3    H238619   1.662   6.454   0.632 -0.2475  0.2370 -0.0509
 5662TIP3   OH238620   3.435   4.171   1.680 -0.0926 -0.2718 -0.3620
 5662TIP3    H138621   3.408   4.225   1.606 -0.0840 -0.5354 -0.5598
 5662TIP3    H238622   3.353   4.139   1.718 -0.0777 -1.9983 -1.6487
 5663TIP3   OH238623   2.689   0.216   2.677 -0.1715 -0.2636 -0.0598
 5663TIP3    H138624   2.633   0.234   2.752 -0.1432 -2.5071  0.5878
 5663TIP3    H238625   2.648   0.141   2.634 -0.6094  1.4131 -2.8013
 5664TIP3   OH238626   5.885   3.556   0.201  0.6853  0.2471  0.1819
 5664TIP3    H138627   5.809   3.501   0.181  1.4422 -1.0951  0.8893
 5664TIP3    H238628   5.909   3.594   0.117 -0.8244  0.7941 -0.0411
 5665TIP3   OH238629   4.416   4.727   2.532 -0.0494 -0.3315  0.0472
 5665TIP3    H138630   4.482   4.786   2.496  0.2814 -1.0596 -0.5612
 5665TIP3    H238631   4.378   4.776   2.605  1.1381  0.1126  0.3956
 5666TIP3   OH238632   6.964   6.589   0.646  0.6403  0.4971  0.2337
 5666TIP3    H138633   7.023   6.605   0.720  0.1221  0.7393  0.6022
 5666TIP3    H238634   6.979   6.498   0.623  2.3447  0.9808 -0.7461
 5667TIP3   OH238635   6.580   0.526   0.608 -0.0398  0.0633 -0.1160
 5667TIP3    H138636   6.512   0.466   0.576 -1.5184  1.1603  0.8300
 5667TIP3    H238637   6.570   0.524   0.704 -0.3334  1.9796 -0.0588
 5668TIP3   OH238638   1.982   3.180   7.591 -0.0456  0.6107  0.0405
 5668TIP3    H138639   1.896   3.211   7.565 -0.8251 -0.1376  1.5599
 5668TIP3    H238640   1.999   3.224   7.675  0.5153 -0.1309  0.3305
 5669TIP3   OH238641   3.213   1.002   6.913 -0.0723  0.7287  0.7249
 5669TIP3    H138642   3.244   1.061   6.844  0.3770 -0.5118 -0.1678
 5669TIP3    H238643   3.126   1.036   6.935 -0.6525  0.6134 -1.1598
 5670TIP3   OH238644   6.717   5.519   0.352 -0.6105 -0.2604 -0.2684
 5670TIP3    H138645   6.721   5.426   0.377  0.8144 -0.2717 -0.4601
 5670TIP3    H238646   6.755   5.521   0.264  2.0747  0.8596  0.8297
 5671TIP3   OH238647   4.898   0.520   1.813  0.3054 -0.1774 -0.2239
 5671TIP3    H138648   4.855   0.600   1.844 -1.1004 -0.0707 -2.1867
 5671TIP3    H238649   4.918   0.471   1.892 -0.9311  1.0815  0.9324
 5672TIP3   OH238650   3.368   0.605   8.020 -0.3315  0.0172  0.1296
 5672TIP3    H138651   3.443   0.657   7.992 -1.1797 -0.1378 -2.7187
 5672TIP3    H238652   3.308   0.668   8.059 -0.0901  0.6815 -0.5586
 5673TIP3   OH238653   2.754   3.458   0.682 -0.3188 -0.0205  0.1257
 5673TIP3    H138654   2.723   3.540   0.643 -1.5738 -0.5897 -0.1308
 5673TIP3    H238655   2.849   3.465   0.681 -0.4022  1.9391  1.2058
 5674TIP3   OH238656   3.199   1.523   7.933  0.1019  0.0543 -0.0893
 5674TIP3    H138657   3.282   1.566   7.956 -1.1055  3.1945 -1.0713
 5674TIP3    H238658   3.173   1.478   8.014  1.2536  1.6469  1.2605
 5675TIP3   OH238659   0.358   2.629   0.981  0.1801 -0.0180  0.2915
 5675TIP3    H138660   0.341   2.564   1.049 -0.6246  2.5960  2.7589
 5675TIP3    H238661   0.452   2.623   0.965  0.3646 -0.7761  1.5572
 5676TIP3   OH238662   6.925   4.215   7.615  0.0714  0.7107  0.0512
 5676TIP3    H138663   6.897   4.224   7.523 -1.0532 -0.0110  0.3045
 5676TIP3    H238664   6.973   4.296   7.633  1.1849  0.4323 -1.4633
 5677TIP3   OH238665   0.673   2.706   2.471 -0.3803  0.9245 -0.5030
 5677TIP3    H138666   0.661   2.795   2.505 -2.4346  1.1596 -1.6986
 5677TIP3    H238667   0.698   2.718   2.379  1.6130  0.2498 -0.0993
 5678TIP3   OH238668   5.245   3.224   7.095  0.3397  0.0089  0.0349
 5678TIP3    H138669   5.330   3.205   7.056  0.7605  2.4820 -0.3715
 5678TIP3    H238670   5.194   3.263   7.025 -0.6340 -0.0974  0.6651
 5679TIP3   OH238671   2.451   4.425   7.558 -0.0395 -0.3541  0.4638
 5679TIP3    H138672   2.373   4.428   7.503 -0.2367  1.6677  0.7769
 5679TIP3    H238673   2.424   4.466   7.640  1.3214  0.3882  0.5747
 5680TIP3   OH238674   3.877   0.053   1.615 -0.0973 -0.3418 -0.0610
 5680TIP3    H138675   3.972   0.053   1.630 -0.1081  0.7523  0.0773
 5680TIP3    H238676   3.849   0.142   1.636 -1.3012 -0.8817  0.7698
 5681TIP3   OH238677   2.884   0.932   1.897 -0.0029  0.7753 -0.4728
 5681TIP3    H138678   2.838   0.936   1.982 -0.4473 -1.0900 -0.5811
 5681TIP3    H238679   2.957   0.993   1.907  1.3373 -1.0260  2.1584
 5682TIP3   OH238680   5.392   3.066   3.362 -0.2389 -0.1998 -0.5917
 5682TIP3    H138681   5.326   3.079   3.430  0.0176 -0.9603 -0.1896
 5682TIP3    H238682   5.342   3.068   3.280 -0.9816 -2.0026 -0.2317
 5683TIP3   OH238683   0.723   3.587   2.922 -0.1038  0.0715 -0.0583
 5683TIP3    H138684   0.639   3.600   2.876  0.2019 -0.7375 -0.8645
 5683TIP3    H238685   0.747   3.675   2.951 -2.5770  0.0316  2.6614
 5684TIP3   OH238686   3.634   5.556   8.149 -0.0735  0.1152  0.9823
 5684TIP3    H138687   3.578   5.626   8.180 -0.8406 -0.3214  0.6121
 5684TIP3    H238688   3.591   5.523   8.070  1.9309  1.3339 -0.7215
 5685TIP3   OH238689   2.017   4.757   2.464 -0.1447 -0.1248  0.1339
 5685TIP3    H138690   2.070   4.714   2.396 -0.6601 -0.7253  0.1026
 5685TIP3    H238691   1.995   4.687   2.525  0.4024  0.4377  0.9854
 5686TIP3   OH238692   4.916   3.787   0.661 -0.0362  0.5942 -0.1478
 5686TIP3    H138693   4.886   3.755   0.576  0.4607 -0.9716  0.2430
 5686TIP3    H238694   4.976   3.720   0.693  1.5152  2.1892  0.4755
 5687TIP3   OH238695   4.876   5.719   2.165 -0.1744 -0.2342 -0.2642
 5687TIP3    H138696   4.889   5.755   2.078  0.5653 -0.5413 -0.2829
 5687TIP3    H238697   4.886   5.624   2.155 -0.5401 -0.3160  0.0735
 5688TIP3   OH238698   0.455   1.923   8.049 -0.3480 -0.0555  0.3421
 5688TIP3    H138699   0.483   1.991   8.111 -1.0628 -0.7518  1.4781
 5688TIP3    H238700   0.388   1.874   8.097 -1.2182 -0.3743 -1.1608
 5689TIP3   OH238701   1.174   0.634   0.729  0.6848  0.3125 -0.1891
 5689TIP3    H138702   1.253   0.581   0.730 -1.9178 -4.0192  1.1423
 5689TIP3    H238703   1.162   0.660   0.820  0.5559  1.0067 -0.3981
 5690TIP3   OH238704   4.361   5.582   0.059  0.2584 -0.6690 -0.4774
 5690TIP3    H138705   4.281   5.556   0.104 -0.0156  0.8982 -0.0077
 5690TIP3    H238706   4.332   5.621  -0.023  0.4044  1.1527  0.2891
 5691TIP3   OH238707   6.205   1.980   8.352 -0.2323 -0.2718  0.1289
 5691TIP3    H138708   6.257   2.045   8.305 -1.8052  1.0725  0.1443
 5691TIP3    H238709   6.134   1.958   8.291  0.0855 -1.7472  0.2582
 5692TIP3   OH238710   5.473   6.202   7.751 -0.1625 -0.0790  0.0708
 5692TIP3    H138711   5.528   6.278   7.771  0.2179 -0.3590  0.0983
 5692TIP3    H238712   5.520   6.128   7.789 -0.6518 -0.3000  0.2547
 5693TIP3   OH238713   4.608   1.965   3.156 -0.0188 -0.0197 -0.4186
 5693TIP3    H138714   4.522   2.007   3.161 -0.1910 -0.3882 -0.2233
 5693TIP3    H238715   4.670   2.034   3.178 -0.4097 -0.2913  1.6721
 5694TIP3   OH238716   6.648   4.949   7.136  0.8980  0.0332 -0.1029
 5694TIP3    H138717   6.656   4.872   7.191 -0.1941 -0.5024 -0.6663
 5694TIP3    H238718   6.562   4.942   7.096  0.7680  1.5594 -0.1623
 5695TIP3   OH238719   3.720   5.466   1.676 -0.1035  0.0905  0.5983
 5695TIP3    H138720   3.646   5.440   1.731 -0.8084 -1.1559 -0.8935
 5695TIP3    H238721   3.681   5.518   1.606  0.9895  3.1835  2.0978
 5696TIP3   OH238722   4.789   3.774   0.415 -0.6576 -0.2838 -0.8650
 5696TIP3    H138723   4.770   3.697   0.360  0.0032  0.8996 -2.8472
 5696TIP3    H238724   4.710   3.827   0.408 -0.3190  0.1795 -1.2545
 5697TIP3   OH238725   2.235   0.649   3.148  0.2908 -0.1115  0.8166
 5697TIP3    H138726   2.238   0.733   3.103  0.2408 -0.3767  0.3197
 5697TIP3    H238727   2.299   0.658   3.219  2.4904 -0.6620 -0.9807
 5698TIP3   OH238728   0.753   6.886   7.895 -0.6947 -0.1514  0.2874
 5698TIP3    H138729   0.680   6.947   7.902 -0.9416 -0.4866  0.6497
 5698TIP3    H238730   0.713   6.799   7.905 -0.4419 -0.4186 -0.8701
 5699TIP3   OH238731   5.210   1.789   2.243 -0.0215  0.5953 -0.1479
 5699TIP3    H138732   5.181   1.826   2.159 -0.5894 -0.9413 -0.6604
 5699TIP3    H238733   5.261   1.859   2.283  0.2969  1.3600 -1.7931
 5700TIP3   OH238734   6.680   3.853   1.562 -0.1490  0.3403 -0.4308
 5700TIP3    H138735   6.673   3.759   1.580  0.4091  0.3032 -0.3637
 5700TIP3    H238736   6.726   3.888   1.639 -0.2480  0.6464 -0.5115
 5701TIP3   OH238737   0.124   0.784   2.287 -0.3015 -0.6369 -0.2763
 5701TIP3    H138738   0.104   0.821   2.373 -3.0224 -0.7762 -0.7565
 5701TIP3    H238739   0.212   0.747   2.296 -0.9087 -1.5918  2.7453
 5702TIP3   OH238740   4.636   0.650   7.349 -0.3765  0.2065  0.2497
 5702TIP3    H138741   4.677   0.585   7.292 -1.6156  1.0080 -1.6878
 5702TIP3    H238742   4.620   0.725   7.291  0.0829  1.8560  2.1702
 5703TIP3   OH238743   0.583   0.124   7.872 -0.5871  0.1347  0.5631
 5703TIP3    H138744   0.626   0.195   7.825 -1.5696 -0.4526 -1.3523
 5703TIP3    H238745   0.558   0.162   7.956  0.3738  1.5399  0.2420
 5704TIP3   OH238746   3.278   2.270   3.107 -0.0615 -0.0336  0.0387
 5704TIP3    H138747   3.273   2.238   3.197 -0.1514 -1.1051 -0.3383
 5704TIP3    H238748   3.290   2.192   3.053  0.3773  0.6286 -0.8570
 5705TIP3   OH238749   6.434   6.783   1.802  0.4441 -0.2433  0.2248
 5705TIP3    H138750   6.428   6.724   1.876 -3.3991  0.3216  0.5803
 5705TIP3    H238751   6.370   6.749   1.739  0.7953  1.4620 -1.1312
 5706TIP3   OH238752   2.555   1.408   8.284  0.3278 -0.5215 -0.0923
 5706TIP3    H138753   2.509   1.471   8.228  1.3937 -0.3450 -0.7815
 5706TIP3    H238754   2.552   1.326   8.235  0.7950 -0.4944 -0.1688
 5707TIP3   OH238755   4.640   4.063   2.511  0.2940  0.4515 -0.5488
 5707TIP3    H138756   4.697   4.033   2.582  0.0016  1.2786  0.0510
 5707TIP3    H238757   4.567   4.105   2.555  0.9930  2.6461 -1.3239
 5708TIP3   OH238758   5.135   4.756   0.835 -0.1650 -0.0812 -0.3858
 5708TIP3    H138759   5.088   4.817   0.778 -0.3252  1.1550  1.0210
 5708TIP3    H238760   5.204   4.720   0.778 -0.1676  1.2832 -1.3127
 5709TIP3   OH238761   0.103   6.432   2.047  0.4715 -0.4603  0.1742
 5709TIP3    H138762   0.045   6.486   1.994  1.5003  3.1294  2.3564
 5709TIP3    H238763   0.105   6.348   2.002 -1.7558  1.0637 -3.1950
 5710TIP3   OH238764   1.943   4.159   2.368  0.5774 -0.8456  0.2941
 5710TIP3    H138765   2.009   4.225   2.389 -1.7626  0.7578  3.2784
 5710TIP3    H238766   1.883   4.203   2.308 -0.5465 -0.4832  1.6525
 5711TIP3   OH238767   4.699   5.351   0.627 -0.7107  0.0069  0.7809
 5711TIP3    H138768   4.705   5.258   0.603 -3.2014  0.1427 -0.7326
 5711TIP3    H238769   4.709   5.352   0.722  1.8078 -1.4773  0.6426
 5712TIP3   OH238770   1.785   0.547   0.187  0.9580 -0.2438 -0.2175
 5712TIP3    H138771   1.756   0.638   0.197 -0.5406 -0.8762  2.1510
 5712TIP3    H238772   1.706   0.495   0.202  1.5783 -1.9825 -2.4571
 5713TIP3   OH238773   3.868   4.457   0.995 -0.0591  0.2743  0.2902
 5713TIP3    H138774   3.880   4.526   1.061  0.9094  0.5795 -0.1774
 5713TIP3    H238775   3.918   4.383   1.030  1.5096  0.8343 -0.6385
 5714TIP3   OH238776   5.625   4.741   1.904 -0.2547 -0.3473 -0.0833
 5714TIP3    H138777   5.606   4.648   1.890  0.6058 -0.6708  0.8393
 5714TIP3    H238778   5.700   4.759   1.847  1.2268 -0.8864  1.5988
 5715TIP3   OH238779   4.290   2.817   0.033 -0.0298 -0.4566 -0.6124
 5715TIP3    H138780   4.341   2.778   0.105 -0.4442  0.8403  0.4243
 5715TIP3    H238781   4.323   2.774  -0.045  0.9135 -1.4391  0.2869
 5716TIP3   OH238782   6.620   0.513   8.072 -0.2459  0.0549 -0.5516
 5716TIP3    H138783   6.582   0.514   7.984  2.4993 -1.0322 -1.8758
 5716TIP3    H238784   6.557   0.464   8.125 -1.1234 -0.8680 -2.3557
 5717TIP3   OH238785   6.721   5.227   0.361 -0.1061  0.6381 -0.0022
 5717TIP3    H138786   6.712   5.147   0.309  0.8583  0.1638  0.5232
 5717TIP3    H238787   6.799   5.269   0.325  0.4253  0.4317  0.8756
 5718TIP3   OH238788   6.116   6.649   7.841 -0.3033  0.0587  0.4152
 5718TIP3    H138789   6.204   6.688   7.837 -0.5480  0.4910 -1.3017
 5718TIP3    H238790   6.084   6.671   7.929  0.6641  1.3143  0.4776
 5719TIP3   OH238791   3.155   3.735   2.791  0.4994 -0.1678  0.6661
 5719TIP3    H138792   3.089   3.699   2.851  1.1263 -0.8467  0.9609
 5719TIP3    H238793   3.191   3.658   2.746 -1.0015  0.4189 -1.7226
 5720TIP3   OH238794   1.633   4.668   7.027  0.2732  0.0051 -0.1953
 5720TIP3    H138795   1.663   4.579   7.009 -0.4991  0.0464 -1.8213
 5720TIP3    H238796   1.556   4.679   6.971  2.0748  2.7349 -2.3364
 5721TIP3   OH238797   4.467   1.870   0.427  0.0421  0.1487  0.4616
 5721TIP3    H138798   4.392   1.920   0.457 -0.0887 -0.9589  2.0921
 5721TIP3    H238799   4.429   1.797   0.378  0.2041  1.1553 -1.2364
 5722TIP3   OH238800   1.207   1.453   1.755 -0.1278 -0.1270 -0.6590
 5722TIP3    H138801   1.181   1.422   1.669  0.3900 -0.7390 -0.6021
 5722TIP3    H238802   1.301   1.473   1.746  0.0739 -0.7840 -0.0790
 5723TIP3   OH238803   4.017   6.162   7.305 -0.0634  0.4657  0.3108
 5723TIP3    H138804   4.006   6.254   7.329  1.3844  0.7590 -0.0906
 5723TIP3    H238805   3.969   6.153   7.223 -2.4182  0.1943  1.6132
 5724TIP3   OH238806   6.706   3.479   6.941 -0.0774 -0.0749 -0.0226
 5724TIP3    H138807   6.619   3.440   6.948 -0.1696  0.0992 -0.2048
 5724TIP3    H238808   6.694   3.570   6.964 -0.0924  0.1379 -0.8300
 5725TIP3   OH238809   1.107   1.128   8.282 -0.3773 -0.6066  0.0545
 5725TIP3    H138810   1.029   1.182   8.295  0.0364 -0.1381  0.6888
 5725TIP3    H238811   1.127   1.136   8.189 -0.5546  0.0183  0.0685
 5726TIP3   OH238812   4.546   3.693   2.340 -0.2922 -0.2010 -0.2083
 5726TIP3    H138813   4.555   3.775   2.292 -2.3201 -0.1952 -0.6536
 5726TIP3    H238814   4.587   3.628   2.283 -0.0405  0.2572 -0.5587
 5727TIP3   OH238815   6.442   0.561   1.812  0.0032 -0.6311  0.2225
 5727TIP3    H138816   6.370   0.506   1.780  0.4663 -0.8215 -0.5108
 5727TIP3    H238817   6.411   0.593   1.897 -0.9844 -0.6282 -0.1256
 5728TIP3   OH238818   1.745   5.280   0.204 -0.7248  0.4402 -0.0793
 5728TIP3    H138819   1.807   5.353   0.204  0.8820 -0.8485  0.9969
 5728TIP3    H238820   1.676   5.307   0.265  1.1428  0.1145  2.3343
 5729TIP3   OH238821   3.506   0.906   0.859  0.2373  0.1211 -0.4032
 5729TIP3    H138822   3.437   0.873   0.802  0.9072 -0.4702 -0.8779
 5729TIP3    H238823   3.463   0.974   0.911 -1.0865 -1.2270  0.3563
 5730TIP3   OH238824   4.448   2.603   0.119  0.1275 -0.2170 -0.1153
 5730TIP3    H138825   4.403   2.536   0.068 -0.2775  0.1635 -0.2758
 5730TIP3    H238826   4.418   2.589   0.209  1.4345 -1.3661  0.1561
 5731TIP3   OH238827   4.905   6.531   0.589  0.3285  0.6457 -0.2328
 5731TIP3    H138828   4.831   6.495   0.541 -1.0435  0.6286  1.7521
 5731TIP3    H238829   4.974   6.539   0.524 -1.1430 -0.1125 -1.9942
 5732TIP3   OH238830   2.985   1.510   7.755  0.3312  0.6440 -0.0583
 5732TIP3    H138831   3.039   1.540   7.828  1.2978  0.5537 -0.7166
 5732TIP3    H238832   3.022   1.425   7.732 -1.0531 -0.1293  0.4327
 5733TIP3   OH238833   4.821   4.667   0.555  0.1743  0.6243  0.0085
 5733TIP3    H138834   4.856   4.615   0.627 -1.4795 -0.9361 -0.2257
 5733TIP3    H238835   4.744   4.710   0.591 -1.1645 -0.8416 -0.9737
 5734TIP3   OH238836   5.304   6.528   0.426  0.1169  0.3167  0.2332
 5734TIP3    H138837   5.230   6.526   0.364 -0.7433 -2.5284  1.1729
 5734TIP3    H238838   5.276   6.588   0.495 -0.2822  1.0741 -0.5723
 5735TIP3   OH238839   5.074   5.026   7.844  0.5465  0.0569  0.3448
 5735TIP3    H138840   5.119   5.095   7.795 -0.0639  0.5725  0.4920
 5735TIP3    H238841   4.982   5.049   7.837  0.2930 -0.9996  0.0217
 5736TIP3   OH238842   1.320   5.240   1.669 -1.2670  0.3267  0.2530
 5736TIP3    H138843   1.298   5.164   1.614  1.2051  0.2824 -0.7938
 5736TIP3    H238844   1.376   5.205   1.738  0.0116  1.1596 -0.3154
 5737TIP3   OH238845   5.510   6.351   2.172 -0.4752 -0.4009 -0.1941
 5737TIP3    H138846   5.511   6.422   2.236 -0.8613 -1.3873  0.9293
 5737TIP3    H238847   5.427   6.362   2.125 -0.4518 -0.0062 -0.1430
 5738TIP3   OH238848   6.438   4.707   2.066 -0.0897 -0.5357  0.7207
 5738TIP3    H138849   6.422   4.773   1.998  1.0399  0.0623  1.0098
 5738TIP3    H238850   6.371   4.641   2.051 -1.1288  0.5834  0.2998
 5739TIP3   OH238851   1.186   4.517   2.441  0.2587 -0.3348 -0.3478
 5739TIP3    H138852   1.116   4.457   2.417  0.9970 -1.3968  0.1054
 5739TIP3    H238853   1.177   4.529   2.535  1.1103 -1.0433 -0.1676
 5740TIP3   OH238854   5.353   2.237   1.328  0.0339  0.3348  0.2613
 5740TIP3    H138855   5.438   2.282   1.323  0.0532  0.3895  0.9379
 5740TIP3    H238856   5.343   2.216   1.421 -0.6129  0.1689  0.1576
 5741TIP3   OH238857   6.007   0.838   0.299 -0.5237  0.0036  0.6458
 5741TIP3    H138858   6.091   0.825   0.344 -1.2180  2.6622  2.9612
 5741TIP3    H238859   6.030   0.843   0.207  2.0097  1.4519  1.2689
 5742TIP3   OH238860   3.162   5.585   2.260  0.1964  0.0650  0.3704
 5742TIP3    H138861   3.131   5.668   2.222  0.6737  1.0077  1.9203
 5742TIP3    H238862   3.163   5.602   2.355 -0.0097 -1.8419  0.7474
 5743TIP3   OH238863   0.424   5.211   7.751  0.0223  0.6227  0.2420
 5743TIP3    H138864   0.339   5.183   7.785  0.4729  1.2736  2.0105
 5743TIP3    H238865   0.404   5.247   7.664 -1.1827 -1.0837 -0.2434
 5744TIP3   OH238866   2.764   3.395   3.629 -0.1042  0.0104 -0.1971
 5744TIP3    H138867   2.747   3.485   3.602 -1.1214 -0.0033  0.3225
 5744TIP3    H238868   2.720   3.387   3.714 -0.0208 -0.9663 -0.2335
 5745TIP3   OH238869   3.882   0.959   7.266  0.3136 -0.5687  0.3222
 5745TIP3    H138870   3.808   1.000   7.221  1.7763  0.3575 -1.3582
 5745TIP3    H238871   3.883   1.002   7.352 -0.2008  0.5348 -0.1923
 5746TIP3   OH238872   1.163   2.144   7.684  0.2543  0.1896 -0.4551
 5746TIP3    H138873   1.257   2.145   7.702 -0.0339 -0.2574  1.1625
 5746TIP3    H238874   1.136   2.054   7.699 -0.6411  0.5583  0.2125
 5747TIP3   OH238875   6.720   5.755   7.404  0.1993  1.1361  0.4512
 5747TIP3    H138876   6.666   5.702   7.345  0.2765  0.5308  0.9174
 5747TIP3    H238877   6.798   5.776   7.352  1.4115 -1.4242  1.0607
 5748TIP3   OH238878   3.038   0.667   1.970  0.5344 -0.0631 -0.3778
 5748TIP3    H138879   2.996   0.742   1.928  0.6303  0.5409  0.5796
 5748TIP3    H238880   3.055   0.606   1.898 -1.0050  0.1290 -0.9257
 5749TIP3   OH238881   0.193   6.264   1.060 -0.0854 -0.0982 -0.6990
 5749TIP3    H138882   0.108   6.286   1.023  0.3829  0.6865 -1.3345
 5749TIP3    H238883   0.255   6.273   0.987  0.8295  1.2579  0.2054
 5750TIP3   OH238884   5.904   2.464   0.561  0.1172 -0.4016  0.6923
 5750TIP3    H138885   5.995   2.448   0.588 -0.2830 -1.3830  1.5579
 5750TIP3    H238886   5.871   2.529   0.623  0.7315  1.3725 -0.7430
 5751TIP3   OH238887   2.327   2.562   1.351  0.1783 -0.1003 -0.1841
 5751TIP3    H138888   2.235   2.589   1.359  0.1120  0.1412 -1.5767
 5751TIP3    H238889   2.324   2.466   1.356  0.0015 -0.0505  0.9702
 5752TIP3   OH238890   1.876   0.876   2.253 -0.3745 -0.2915 -0.0241
 5752TIP3    H138891   1.899   0.919   2.335  1.6893 -1.7621  0.2533
 5752TIP3    H238892   1.954   0.826   2.229 -0.7662  0.3478 -3.0891
 5753TIP3   OH238893   1.385   2.786   0.363  0.4066  0.3102  0.7866
 5753TIP3    H138894   1.324   2.834   0.306  1.0872 -1.8208 -1.9516
 5753TIP3    H238895   1.468   2.833   0.353  0.2696  0.5823  0.9051
 5754TIP3   OH238896   4.826   2.032   2.994  0.0793  0.3385  0.2343
 5754TIP3    H138897   4.751   1.987   3.033 -0.1205  0.9905  0.6191
 5754TIP3    H238898   4.791   2.074   2.915  0.4245 -0.7566 -0.5193
 5755TIP3   OH238899   5.623   6.965   0.153 -0.4174  0.0348  0.3775
 5755TIP3    H138900   5.576   6.884   0.173 -1.4062  0.7956  1.2152
 5755TIP3    H238901   5.650   6.999   0.238  0.3331  0.4099  0.0053
 5756TIP3   OH238902   1.309   0.771   2.754  0.0943  0.3365 -0.1543
 5756TIP3    H138903   1.294   0.701   2.818  1.0254  0.3897  0.1389
 5756TIP3    H238904   1.400   0.797   2.769  0.5612 -0.1379 -1.9817
 5757TIP3   OH238905   5.046   2.392   1.822 -0.5063  0.5644 -0.3591
 5757TIP3    H138906   5.030   2.462   1.759  1.6181  0.9002 -0.6203
 5757TIP3    H238907   5.033   2.434   1.908 -0.5347  0.9096 -0.5299
 5758TIP3   OH238908   4.601   2.083   0.820  0.7384  0.0771  0.2492
 5758TIP3    H138909   4.696   2.086   0.825  0.7091  0.0180  0.9248
 5758TIP3    H238910   4.571   2.131   0.898  0.2376 -2.9699  2.1261
 5759TIP3   OH238911   1.660   1.964   2.535  0.3768  0.4635 -0.0411
 5759TIP3    H138912   1.655   2.049   2.490  1.1160  0.5016 -0.0519
 5759TIP3    H238913   1.603   1.974   2.611 -0.4805  0.5719 -0.6813
 5760TIP3   OH238914   3.146   4.329   1.601  0.3714 -0.1432 -0.4356
 5760TIP3    H138915   3.086   4.383   1.548 -1.1494 -0.1810  1.1415
 5760TIP3    H238916   3.143   4.243   1.561  0.0477  0.0807 -0.8998
 5761TIP3   OH238917   4.332   3.340   0.289 -0.2781 -0.3764 -0.4824
 5761TIP3    H138918   4.328   3.391   0.208 -1.6901  1.3010  0.5767
 5761TIP3    H238919   4.312   3.251   0.262  1.6536 -0.3377 -2.3032
 5762TIP3   OH238920   5.083   3.584   0.733 -0.1106  0.2051  0.0434
 5762TIP3    H138921   5.015   3.520   0.753  0.5097  0.3610  3.2233
 5762TIP3    H238922   5.162   3.532   0.719  0.1716  0.1658  1.6005
 5763TIP3   OH238923   6.480   2.335   2.578  0.0060 -0.0738  0.2303
 5763TIP3    H138924   6.413   2.282   2.534  0.0738  0.4478 -0.5244
 5763TIP3    H238925   6.512   2.279   2.649  0.8148 -1.5016 -1.1626
 5764TIP3   OH238926   7.015   2.360   7.811  0.4192 -0.2530 -0.2708
 5764TIP3    H138927   7.005   2.429   7.746 -1.2052 -0.4591 -0.2825
 5764TIP3    H238928   7.090   2.387   7.863  0.5019  0.9500 -0.9782
 5765TIP3   OH238929   5.787   4.980   0.114  0.5554  0.0684  0.1909
 5765TIP3    H138930   5.768   5.004   0.204  1.1011  0.0610  0.3124
 5765TIP3    H238931   5.793   4.884   0.116 -3.0360 -0.3052 -0.5611
 5766TIP3   OH238932   1.254   2.236   8.121 -0.6399  0.1211 -0.0551
 5766TIP3    H138933   1.262   2.297   8.194 -1.7584  1.9016 -1.3417
 5766TIP3    H238934   1.182   2.179   8.146 -0.6199  0.3240  0.4890
 5767TIP3   OH238935   3.928   6.492   1.071 -0.2848  0.8857  0.5061
 5767TIP3    H138936   3.952   6.400   1.057  0.3650  1.3439 -1.8288
 5767TIP3    H238937   3.927   6.502   1.166  0.8851 -1.2077  0.8130
 5768TIP3   OH238938   5.931   3.654   2.108 -0.4659  0.2607  0.2278
 5768TIP3    H138939   5.838   3.639   2.090 -0.6528  0.2780  1.1414
 5768TIP3    H238940   5.933   3.689   2.197  0.3923  0.5707  0.0958
 5769TIP3   OH238941   3.533   1.152   1.173 -1.2257 -0.5430  0.3794
 5769TIP3    H138942   3.483   1.128   1.095  0.0857 -0.2118 -0.6118
 5769TIP3    H238943   3.582   1.074   1.196  0.2472  0.0467 -0.6331
 5770TIP3   OH238944   3.256   2.615   0.976 -0.1575  0.1010 -0.4112
 5770TIP3    H138945   3.190   2.547   0.984 -0.4978  0.2352 -1.7612
 5770TIP3    H238946   3.307   2.610   1.057 -2.0672  0.2721  0.8766
 5771TIP3   OH238947   0.039   3.040   1.563 -0.2051 -0.8315  0.3133
 5771TIP3    H138948  -0.006   2.962   1.594 -0.1577 -0.8144  0.4288
 5771TIP3    H238949   0.131   3.015   1.561  0.2029  0.0528  3.1085
 5772TIP3   OH238950   4.827   2.768   2.317  0.4425  0.3055  0.5100
 5772TIP3    H138951   4.901   2.808   2.272  0.8803  2.6630  3.0778
 5772TIP3    H238952   4.867   2.716   2.386 -0.2835 -0.7454  0.1661
 5773TIP3   OH238953   2.615   4.100   7.954  0.0847  0.6001 -0.2484
 5773TIP3    H138954   2.522   4.094   7.977  0.3194 -1.4901  0.3103
 5773TIP3    H238955   2.661   4.064   8.030  1.1491 -1.8373 -1.9195
 5774TIP3   OH238956   6.748   5.460   0.053  0.3728  0.5217  0.8988
 5774TIP3    H138957   6.658   5.443   0.082  0.5102 -1.9729  0.0798
 5774TIP3    H238958   6.781   5.375   0.026  1.7054  1.9332 -2.4540
 5775TIP3   OH238959   0.420   1.504   0.928 -0.2872 -0.3015 -0.1396
 5775TIP3    H138960   0.395   1.418   0.896  1.3409 -1.6402  1.9528
 5775TIP3    H238961   0.401   1.502   1.022  1.2225  1.0420  0.2520
 5776TIP3   OH238962   5.283   0.659   1.398 -0.0187  0.3718  0.2721
 5776TIP3    H138963   5.323   0.612   1.325 -1.4076 -0.4891  0.0298
 5776TIP3    H238964   5.352   0.665   1.464  0.8020 -0.1818 -0.5179
 5777TIP3   OH238965   5.753   0.074   2.078 -0.1810 -0.0076 -0.8998
 5777TIP3    H138966   5.848   0.085   2.090 -0.5038  0.6448  1.5779
 5777TIP3    H238967   5.715   0.153   2.117 -1.8026 -0.9306 -0.5058
 5778TIP3   OH238968   2.996   0.921   2.614 -0.2434 -0.0958  0.3205
 5778TIP3    H138969   3.010   0.911   2.709  0.3052 -1.4983  0.1163
 5778TIP3    H238970   3.047   0.998   2.591  0.5197 -0.3766  1.0014
 5779TIP3   OH238971   0.605   6.823   1.335 -0.0830 -0.6071  0.7078
 5779TIP3    H138972   0.689   6.806   1.291  0.1273  1.0407  0.3845
 5779TIP3    H238973   0.612   6.776   1.418  0.2804 -2.2310 -0.1957
 5780TIP3   OH238974   2.229   2.525   0.543  0.0870 -0.4257  0.2215
 5780TIP3    H138975   2.183   2.571   0.613  1.3896  0.7783  0.3404
 5780TIP3    H238976   2.168   2.525   0.469 -0.2936  0.6757  0.5244
 5781TIP3   OH238977   0.824   5.471   8.001  0.0103  0.2951 -0.1655
 5781TIP3    H138978   0.848   5.545   7.944 -1.7967  0.9584 -0.1124
 5781TIP3    H238979   0.740   5.496   8.038 -1.9609 -2.8300 -2.0947
 5782TIP3   OH238980   1.902   3.910   1.509  0.3186 -0.8434  0.0124
 5782TIP3    H138981   1.921   4.000   1.479 -2.1915 -0.6482 -1.2227
 5782TIP3    H238982   1.955   3.855   1.451 -0.4018 -0.2367 -1.2800
 5783TIP3   OH238983   5.478   1.372   2.548 -0.2416 -0.4342  0.0955
 5783TIP3    H138984   5.403   1.318   2.522 -0.3346 -1.5202  2.3953
 5783TIP3    H238985   5.503   1.339   2.634 -0.5023  3.3753  1.8629
 5784TIP3   OH238986   4.896   5.090   0.908  0.4942 -0.1522  0.0484
 5784TIP3    H138987   4.963   5.062   0.970  0.4123  0.0276  0.2185
 5784TIP3    H238988   4.890   5.019   0.844  1.9891  0.5251 -0.8949
 5785TIP3   OH238989   1.548   1.396   1.600  0.2113 -0.2739  0.0720
 5785TIP3    H138990   1.485   1.325   1.606  1.3658 -1.3046  0.6174
 5785TIP3    H238991   1.630   1.357   1.632  0.9114  1.2581  0.2143
 5786TIP3   OH238992   0.693   1.880   2.620 -0.0066  0.4159 -0.6000
 5786TIP3    H138993   0.641   1.851   2.695 -0.7108  1.8232 -0.4935
 5786TIP3    H238994   0.772   1.916   2.659  0.2128 -0.0297 -0.6300
 5787TIP3   OH238995   6.105   0.899   0.654 -0.4318  0.5651  0.0500
 5787TIP3    H138996   6.054   0.863   0.726 -0.3051  2.1569  1.0009
 5787TIP3    H238997   6.096   0.836   0.583 -3.3343  0.5312  0.3413
 5788TIP3   OH238998   4.494   2.290   2.436 -0.9047 -0.3872 -0.2942
 5788TIP3    H138999   4.490   2.344   2.516 -2.2676  2.0601 -1.8944
 5788TIP3    H239000   4.478   2.351   2.365  0.2085 -2.4953 -2.5113
 5789TIP3   OH239001   5.057   4.245   8.109  0.6493 -0.7409  0.3339
 5789TIP3    H139002   5.123   4.185   8.076  0.8282 -0.1899 -0.3464
 5789TIP3    H239003   5.098   4.332   8.103  0.7396 -0.6137  2.1615
 5790TIP3   OH239004   2.693   2.855   2.473  0.1050 -0.1767  0.0194
 5790TIP3    H139005   2.609   2.830   2.435  0.8301  0.1433 -1.9031
 5790TIP3    H239006   2.671   2.920   2.540 -1.2048 -0.4454 -0.1328
 5791TIP3   OH239007   6.827   0.871   0.662  0.2863 -0.1017  0.0985
 5791TIP3    H139008   6.751   0.874   0.720  1.0784 -2.5403  1.4165
 5791TIP3    H239009   6.886   0.938   0.697  0.3395 -0.8630  1.5727
 5792TIP3   OH239010   5.447   5.965   8.106 -0.2400 -0.1928  0.0656
 5792TIP3    H139011   5.434   5.870   8.102  2.1523 -0.5825 -0.1437
 5792TIP3    H239012   5.407   5.992   8.189  2.8099 -2.1698  2.3737
 5793TIP3   OH239013   2.461   1.906   6.971 -0.0611  0.5610 -0.0044
 5793TIP3    H139014   2.497   1.955   6.896  2.3662 -2.1436 -0.7826
 5793TIP3    H239015   2.446   1.973   7.038  0.5880  2.6911 -1.8451
 5794TIP3   OH239016   6.969   5.153   2.106  0.0060 -0.6974  0.9646
 5794TIP3    H139017   6.941   5.243   2.122  2.7457  0.4215  0.0438
 5794TIP3    H239018   6.902   5.117   2.049  0.3143  1.8272 -1.2010
 5795TIP3   OH239019   5.453   2.697   2.779 -0.0515  0.5149  0.2856
 5795TIP3    H139020   5.386   2.682   2.846 -1.0699  1.5732 -0.4571
 5795TIP3    H239021   5.404   2.714   2.699  1.1189  0.7735 -0.3985
 5796TIP3   OH239022   5.452   4.573   0.910 -1.0836  0.1270 -0.3613
 5796TIP3    H139023   5.495   4.622   0.841  0.0584 -0.8283 -0.3681
 5796TIP3    H239024   5.375   4.535   0.869 -0.0545 -0.9865 -1.3133
 5797TIP3   OH239025   2.035   4.128   1.417  0.5662 -0.0048 -0.4211
 5797TIP3    H139026   2.120   4.088   1.437  1.1035  1.3432  0.1624
 5797TIP3    H239027   2.023   4.113   1.324  1.5723 -0.0075 -0.5693
 5798TIP3   OH239028   6.014   4.916   8.128  1.3578 -0.2698  0.0757
 5798TIP3    H139029   5.986   4.973   8.199  0.7750  0.1005 -0.4327
 5798TIP3    H239030   5.932   4.875   8.097  1.7377 -1.2378  0.3072
 5799TIP3   OH239031   3.888   5.499   8.262 -0.0550  0.7600 -0.0680
 5799TIP3    H139032   3.809   5.541   8.228 -0.2191 -0.8444 -1.8388
 5799TIP3    H239033   3.914   5.553   8.337 -0.7650  3.4198 -1.6196
 5800TIP3   OH239034   0.540   4.650   1.064  0.5997  0.0203  0.8214
 5800TIP3    H139035   0.566   4.559   1.080  1.9456  0.1802 -0.2177
 5800TIP3    H239036   0.611   4.702   1.103 -0.1492  0.6398  1.3919
 5801TIP3   OH239037   5.647   1.147   8.243  0.6333  0.6975  0.0040
 5801TIP3    H139038   5.720   1.107   8.196 -0.3093 -1.8155  0.5378
 5801TIP3    H239039   5.588   1.178   8.174 -1.2462 -3.8606 -0.7524
 5802TIP3   OH239040   3.661   1.305   7.326 -0.0093  0.0819  0.3246
 5802TIP3    H139041   3.641   1.242   7.256 -1.8693  2.1746 -1.1744
 5802TIP3    H239042   3.630   1.263   7.406  1.4342 -2.0467 -0.1538
 5803TIP3   OH239043   6.386   3.830   0.057  0.6293  0.4121  0.2895
 5803TIP3    H139044   6.374   3.812  -0.036  0.4344 -0.5376  0.4829
 5803TIP3    H239045   6.405   3.924   0.062  1.8059  0.2661 -0.8132
 5804TIP3   OH239046   6.050   4.135   2.997 -0.2194 -0.1132  0.1012
 5804TIP3    H139047   6.028   4.098   3.082  0.4982  1.5267  1.0535
 5804TIP3    H239048   6.015   4.224   3.000  2.2278  0.9436 -0.1737
 5805TIP3   OH239049   5.067   2.108   0.959  0.1076  0.3001 -0.1577
 5805TIP3    H139050   5.090   2.128   1.050  0.4036 -1.1758  0.1336
 5805TIP3    H239051   5.151   2.103   0.914 -0.0217  0.7539 -0.4536
 5806TIP3   OH239052   5.828   3.973   8.243 -0.0425  0.4283  0.1955
 5806TIP3    H139053   5.749   3.927   8.215 -0.7242  1.6145  0.1033
 5806TIP3    H239054   5.898   3.939   8.186  0.3909 -3.3526  2.5728
 5807TIP3   OH239055   0.755   2.129   2.801 -0.4115  0.0193 -0.3260
 5807TIP3    H139056   0.833   2.089   2.762 -0.9280 -0.0986 -1.2610
 5807TIP3    H239057   0.782   2.218   2.823  0.0474 -0.0890 -0.4388
 5808TIP3   OH239058   6.071   3.706   1.875  0.4961  0.9206 -0.1228
 5808TIP3    H139059   5.980   3.697   1.900  0.8565 -1.1045  0.6942
 5808TIP3    H239060   6.106   3.616   1.878  1.9803  1.2994 -2.5197
 5809TIP3   OH239061   0.924   5.411   0.019  0.3200 -0.1874 -0.0467
 5809TIP3    H139062   0.911   5.433   0.112  0.0571  0.6762 -0.2884
 5809TIP3    H239063   0.993   5.344   0.021 -0.5020 -1.0560  0.8619
 5810TIP3   OH239064   7.003   4.608   2.749 -0.0940  0.8394  0.4600
 5810TIP3    H139065   6.970   4.636   2.663 -0.0871  2.2661  0.9073
 5810TIP3    H239066   6.985   4.514   2.751  0.5537  0.6382 -1.3865
 5811TIP3   OH239067   1.638   0.199   8.021  0.1866 -0.3764 -0.2287
 5811TIP3    H139068   1.690   0.255   8.079  0.2841 -0.5303 -0.1682
 5811TIP3    H239069   1.691   0.192   7.941 -0.8197  1.4604 -1.1176
 5812TIP3   OH239070   6.176   5.741   2.137 -0.1079 -0.5351 -0.0657
 5812TIP3    H139071   6.122   5.750   2.059 -0.8025 -0.8652  0.3653
 5812TIP3    H239072   6.118   5.702   2.203  0.9167 -1.8438  0.1268
 5813TIP3   OH239073   6.489   4.475   0.680 -0.4575  0.5968 -0.3655
 5813TIP3    H139074   6.514   4.550   0.734  0.8614  0.4883 -0.7916
 5813TIP3    H239075   6.531   4.491   0.596  0.2964 -0.8627 -0.2956
 5814TIP3   OH239076   3.650   0.117   0.824 -0.5738 -0.1736  0.0025
 5814TIP3    H139077   3.692   0.041   0.785  2.1520  0.7723  0.8638
 5814TIP3    H239078   3.570   0.082   0.864  1.0763 -2.8045  1.2575
 5815TIP3   OH239079   4.356   5.866   2.976  0.5917  0.6778 -0.2515
 5815TIP3    H139080   4.346   5.942   3.033 -1.3935  0.2009  0.1289
 5815TIP3    H239081   4.313   5.892   2.894  1.6922  0.6568 -0.8522
 5816TIP3   OH239082   4.999   5.227   7.461  0.5902 -0.2998  0.4050
 5816TIP3    H139083   4.907   5.249   7.473  0.7090 -0.8321  3.0449
 5816TIP3    H239084   5.001   5.169   7.385 -1.1829 -0.0269  0.1055
 5817TIP3   OH239085   3.395   4.282   1.395 -0.6170  0.4043 -0.5551
 5817TIP3    H139086   3.385   4.377   1.398 -0.5135  0.4120 -0.4562
 5817TIP3    H239087   3.327   4.253   1.334 -1.6864  0.3847  0.6113
 5818TIP3   OH239088   3.048   0.872   2.302 -0.0149  0.2354 -0.1336
 5818TIP3    H139089   2.979   0.823   2.259 -0.5086  0.0183  0.8845
 5818TIP3    H239090   3.011   0.959   2.315  0.0699  0.2495  0.0139
 5819TIP3   OH239091   1.824   3.357   0.857 -0.1336  0.8791 -0.1239
 5819TIP3    H139092   1.867   3.359   0.943  0.3035 -0.4524 -0.2832
 5819TIP3    H239093   1.762   3.430   0.859 -0.7732  0.3362  1.6656
 5820TIP3   OH239094   2.423   4.246   8.217  0.4989 -0.1173  0.1197
 5820TIP3    H139095   2.408   4.211   8.305  3.1328  0.8044  1.0186
 5820TIP3    H239096   2.375   4.187   8.160 -1.1016 -0.9016  2.1313
 5821TIP3   OH239097   0.998   4.755   2.829  1.2635 -0.6332 -1.1358
 5821TIP3    H139098   1.052   4.777   2.906  0.2717  1.0068 -0.8700
 5821TIP3    H239099   1.023   4.820   2.764 -0.5270  0.2980 -0.9312
 5822TIP3   OH239100   3.192   2.155   0.598 -0.0871 -0.0168 -0.0375
 5822TIP3    H139101   3.099   2.135   0.592 -0.2996  0.7938  0.3649
 5822TIP3    H239102   3.196   2.234   0.652  0.9074 -0.5774  0.7442
 5823TIP3   OH239103   1.448   6.682   0.541  0.1362  0.0567 -0.1404
 5823TIP3    H139104   1.466   6.748   0.474  0.9732  0.4609  0.4628
 5823TIP3    H239105   1.374   6.717   0.590 -0.0407  0.0869 -0.4318
 5824TIP3   OH239106   3.228   4.668   3.220 -0.6097  0.2474 -0.3664
 5824TIP3    H139107   3.143   4.628   3.236 -0.5697  1.1990  2.8829
 5824TIP3    H239108   3.215   4.761   3.237  0.8770  0.5510 -0.6890
 5825TIP3   OH239109   2.952   4.697   0.811 -0.4853 -1.0805 -0.5889
 5825TIP3    H139110   2.906   4.697   0.895  0.5441 -0.3926 -0.0102
 5825TIP3    H239111   2.911   4.767   0.761  0.8936  0.5935  0.5053
 5826TIP3   OH239112   3.564   2.910   2.241  0.5128 -0.2379 -0.1560
 5826TIP3    H139113   3.601   2.925   2.154  2.4449  0.0602  0.6674
 5826TIP3    H239114   3.541   2.998   2.273  1.8424 -0.0964  0.4641
 5827TIP3   OH239115   4.199   1.768   1.995 -0.2916  0.0312 -0.3566
 5827TIP3    H139116   4.213   1.863   1.990  1.4429 -0.1057  0.9457
 5827TIP3    H239117   4.108   1.759   2.024  0.3792  1.4304  2.5331
 5828TIP3   OH239118   5.338   3.044   2.742 -0.0817  0.0768 -0.7066
 5828TIP3    H139119   5.389   2.986   2.797 -0.1720 -0.0725 -0.7777
 5828TIP3    H239120   5.390   3.124   2.735 -0.3056  0.2863  0.0070
 5829TIP3   OH239121   2.580   1.304   0.266  0.9161 -0.0652 -0.1142
 5829TIP3    H139122   2.597   1.275   0.176 -0.2727  0.2426 -0.4541
 5829TIP3    H239123   2.524   1.236   0.303 -0.1357  0.7108 -0.2304
 5830TIP3   OH239124   4.780   1.015   2.814  0.3960  0.4233  0.2558
 5830TIP3    H139125   4.746   0.949   2.754  1.2455 -0.2359  0.4752
 5830TIP3    H239126   4.709   1.028   2.877 -0.0163  0.1788 -0.1509
 5831TIP3   OH239127   0.160   4.668   0.302  0.2565  0.3687 -0.6258
 5831TIP3    H139128   0.096   4.679   0.372 -0.1253 -0.8648 -0.7639
 5831TIP3    H239129   0.158   4.751   0.254 -0.6822  0.6183 -0.1710
 5832TIP3   OH239130   2.671   3.414   1.950  0.7665 -0.3498  0.4817
 5832TIP3    H139131   2.669   3.482   1.883  1.5074 -0.1552  0.6444
 5832TIP3    H239132   2.608   3.348   1.920  2.5849 -1.2863 -1.4970
 5833TIP3   OH239133   0.262   3.572   2.264 -0.4000 -0.2534 -0.3643
 5833TIP3    H139134   0.240   3.494   2.214  0.9920 -0.5303 -0.6051
 5833TIP3    H239135   0.253   3.644   2.201 -0.7611 -0.3334 -0.4057
 5834TIP3   OH239136   0.449   2.768   1.719  0.1719 -0.4544  0.3885
 5834TIP3    H139137   0.363   2.754   1.760 -0.6087  0.1986 -0.9445
 5834TIP3    H239138   0.503   2.697   1.752 -0.0447  0.6491  3.4188
 5835TIP3   OH239139   1.532   1.365   0.703  0.1636  0.6761  0.4790
 5835TIP3    H139140   1.460   1.426   0.689 -1.6301 -0.9590  2.1337
 5835TIP3    H239141   1.557   1.337   0.615 -0.1984  2.3476 -0.2032
 5836TIP3   OH239142   3.831   3.121   0.501 -0.3597 -0.1485  0.4210
 5836TIP3    H139143   3.925   3.126   0.518  0.0701  1.3857 -1.8192
 5836TIP3    H239144   3.814   3.029   0.484  0.8395 -0.3957  0.4746
 5837TIP3   OH239145   0.801   1.168   1.502 -0.0477 -0.2150  0.1837
 5837TIP3    H139146   0.717   1.123   1.491 -1.3916  1.5508  2.2467
 5837TIP3    H239147   0.818   1.211   1.418 -1.1571 -0.6795 -0.2906
 5838TIP3   OH239148   4.928   6.788   2.074 -0.7606  0.1399 -0.3486
 5838TIP3    H139149   4.840   6.807   2.040 -1.7746  0.2622  2.1271
 5838TIP3    H239150   4.913   6.724   2.143  1.0378  0.5747  0.4846
 5839TIP3   OH239151   6.451   4.102   0.098 -0.1754 -0.0791  0.0880
 5839TIP3    H139152   6.401   4.116   0.179 -1.4220  1.0177 -0.8286
 5839TIP3    H239153   6.522   4.166   0.103 -0.2866  0.0300  0.2975
 5840TIP3   OH239154   4.865   0.315   7.635  0.2891  0.1305  0.0445
 5840TIP3    H139155   4.935   0.253   7.658  1.1649  1.2130  0.4300
 5840TIP3    H239156   4.887   0.395   7.683 -0.0901  1.1626 -1.4043
 5841TIP3   OH239157   2.256   2.365   3.015 -0.1179  0.1166 -0.3768
 5841TIP3    H139158   2.315   2.304   3.058 -0.1588 -0.2848 -0.8855
 5841TIP3    H239159   2.233   2.323   2.932  1.4962  1.7084 -1.7274
 5842TIP3   OH239160   5.330   2.465   0.270  0.5278 -0.0656  0.6584
 5842TIP3    H139161   5.369   2.405   0.333  0.4620 -0.3907  0.3936
 5842TIP3    H239162   5.349   2.425   0.185  0.2089  0.1262  0.4964
 5843TIP3   OH239163   3.673   6.693   1.398 -0.2339  0.1113 -0.1549
 5843TIP3    H139164   3.748   6.751   1.410 -0.7648  1.2790 -2.0934
 5843TIP3    H239165   3.599   6.740   1.436 -0.4889  0.2664 -0.8309
 5844TIP3   OH239166   2.450   5.711   0.761  0.0020 -0.2386 -0.0252
 5844TIP3    H139167   2.437   5.674   0.848  0.1653  2.2488  1.1288
 5844TIP3    H239168   2.525   5.770   0.770  0.1455 -0.0643 -1.9088
 5845TIP3   OH239169   5.880   5.433   1.258  0.5380  0.0472  0.1926
 5845TIP3    H139170   5.892   5.361   1.195  1.0421 -0.1363  0.4928
 5845TIP3    H239171   5.857   5.390   1.340 -0.4532  0.3079  0.0597
 5846TIP3   OH239172   0.352   1.850   0.750 -0.4231  0.0151  0.2712
 5846TIP3    H139173   0.369   1.918   0.684 -0.4901 -0.4838 -0.2682
 5846TIP3    H239174   0.374   1.768   0.706  0.0679 -0.2830  1.0638
 5847TIP3   OH239175   4.217   2.189   2.272  0.9066 -1.4204 -0.4973
 5847TIP3    H139176   4.287   2.254   2.269 -0.1816  0.1555  2.7339
 5847TIP3    H239177   4.184   2.184   2.182  1.8469  1.6405 -1.1426
 5848TIP3   OH239178   5.108   5.602   7.997  0.2906  0.6385 -0.8434
 5848TIP3    H139179   5.155   5.682   8.018 -2.0588  2.3834 -1.7865
 5848TIP3    H239180   5.107   5.553   8.080  1.2828  1.8394 -0.0842
 5849TIP3   OH239181   3.951   6.070   0.759  0.4483 -0.2706  0.7778
 5849TIP3    H139182   3.895   6.066   0.837 -1.7995  0.7327 -0.6772
 5849TIP3    H239183   3.909   6.011   0.697  0.5324  1.0925 -0.6241
 5850TIP3   OH239184   0.380   5.628   0.459  0.3060 -0.4421 -0.5393
 5850TIP3    H139185   0.392   5.692   0.389  2.0233 -1.0331 -0.8203
 5850TIP3    H239186   0.461   5.578   0.460 -0.5310 -1.8520  0.4583
 5851TIP3   OH239187   0.327   3.645   1.221 -0.4054  0.2573  0.2238
 5851TIP3    H139188   0.383   3.601   1.284 -0.3429  0.3439  0.2283
 5851TIP3    H239189   0.381   3.655   1.143 -0.2737  0.7312  0.3737
 5852TIP3   OH239190   6.792   5.152   6.737 -0.1656 -1.2599 -0.3221
 5852TIP3    H139191   6.707   5.186   6.766  1.1693  1.3016  0.8619
 5852TIP3    H239192   6.810   5.200   6.656  1.5922  0.8274  1.1954
 5853TIP3   OH239193   2.152   6.390   0.390 -0.1216 -0.3064 -0.5878
 5853TIP3    H139194   2.161   6.297   0.369 -0.1110 -0.2237 -0.9546
 5853TIP3    H239195   2.186   6.436   0.313 -1.1950 -0.0016 -0.8993
 5854TIP3   OH239196   2.450   3.012   2.509  0.6682  0.0940 -0.3302
 5854TIP3    H139197   2.358   3.032   2.490 -0.2726 -4.1665 -1.3493
 5854TIP3    H239198   2.495   3.024   2.426  0.4231 -0.4278 -0.5458
 5855TIP3   OH239199   5.002   1.091   0.986 -0.4044 -0.8645  0.2891
 5855TIP3    H139200   4.933   1.157   0.988 -0.7919 -1.2423 -0.2804
 5855TIP3    H239201   5.079   1.136   1.021 -0.5976 -0.0348 -0.3058
 5856TIP3   OH239202   0.038   0.193   8.216  0.3083  0.3686  0.0936
 5856TIP3    H139203  -0.015   0.124   8.176 -0.9705 -0.1252  2.4385
 5856TIP3    H239204   0.007   0.274   8.176  1.5029 -0.2759 -2.3479
 5857TIP3   OH239205   1.872   2.909   0.881  0.0489  0.2927  0.2071
 5857TIP3    H139206   1.795   2.961   0.905 -0.1861 -0.6911  1.6343
 5857TIP3    H239207   1.944   2.972   0.884 -0.7121  1.3413 -1.6060
 5858TIP3   OH239208   6.546   3.620   7.265 -0.1507 -0.2223  0.0006
 5858TIP3    H139209   6.608   3.560   7.308 -1.5312 -1.6590  0.0470
 5858TIP3    H239210   6.471   3.565   7.243 -1.0100  1.2873 -0.9429
 5859TIP3   OH239211   5.953   2.513   0.014  0.2034  0.3401 -0.2996
 5859TIP3    H139212   5.939   2.536   0.106  1.5194  2.0945 -0.4829
 5859TIP3    H239213   5.865   2.511  -0.024 -0.3957 -0.7826  1.0278
 5860TIP3   OH239214   4.442   4.298   7.599 -0.0870  0.3910 -0.0986
 5860TIP3    H139215   4.446   4.278   7.505 -0.3686 -1.2593  0.2156
 5860TIP3    H239216   4.533   4.293   7.628  0.2135  2.4637 -0.5503
 5861TIP3   OH239217   3.934   6.372   8.334  0.0501  0.2192  0.0232
 5861TIP3    H139218   3.915   6.368   8.241  1.7369  1.0120 -0.4030
 5861TIP3    H239219   3.944   6.466   8.353 -0.5475  0.0907  1.0667
 5862TIP3   OH239220   2.693   5.330   0.741  0.0948 -0.0224 -0.0141
 5862TIP3    H139221   2.709   5.258   0.681 -1.3802 -1.3462  1.0909
 5862TIP3    H239222   2.633   5.388   0.695  1.6882  0.8538 -1.1103
 5863TIP3   OH239223   0.995   0.618   2.945  0.1249  0.0865 -0.1206
 5863TIP3    H139224   1.072   0.673   2.959 -0.0752 -0.0220  1.6454
 5863TIP3    H239225   0.922   0.670   2.978 -0.1374 -0.9725  1.0303
 5864TIP3   OH239226   2.947   6.869   0.999 -1.1215  0.3355 -0.4766
 5864TIP3    H139227   2.933   6.776   0.984 -1.0872  0.1730  0.4208
 5864TIP3    H239228   2.954   6.907   0.912 -1.0287 -0.5170 -0.8494
 5865TIP3   OH239229   5.323   2.558   1.223  0.0740  0.3945  0.1077
 5865TIP3    H139230   5.374   2.553   1.304 -1.2009  0.3705  0.9427
 5865TIP3    H239231   5.326   2.469   1.188  1.1849  0.5583 -0.2363
 5866TIP3   OH239232   6.927   0.082   0.749  0.1354  0.6604 -0.1816
 5866TIP3    H139233   6.958   0.101   0.661  0.9164 -1.3027 -0.3988
 5866TIP3    H239234   6.998   0.110   0.807  0.5935 -0.0973 -0.3669
 5867TIP3   OH239235   6.969   5.184   0.935 -0.3282  0.2476  0.1325
 5867TIP3    H139236   7.038   5.215   0.993  1.4187 -2.6265 -0.2360
 5867TIP3    H239237   7.014   5.156   0.856 -1.8785 -1.6757 -0.1503
 5868TIP3   OH239238   0.772   3.673   1.513  0.0608 -0.0776 -0.1617
 5868TIP3    H139239   0.851   3.638   1.471  0.6062 -0.2175  0.9591
 5868TIP3    H239240   0.747   3.748   1.458  1.9566  1.0326  0.3905
 5869TIP3   OH239241   1.535   0.993   2.435 -0.1261  0.6313 -0.0821
 5869TIP3    H139242   1.517   1.047   2.512  0.2841  1.1991 -0.3766
 5869TIP3    H239243   1.586   0.920   2.469  0.4039  1.0891  0.1319
 5870TIP3   OH239244   0.314   5.842   8.016 -0.3734 -0.4679 -0.6690
 5870TIP3    H139245   0.262   5.814   7.940 -0.1227 -0.0698 -0.9938
 5870TIP3    H239246   0.249   5.865   8.083 -0.5875 -1.2589 -0.6020
 5871TIP3   OH239247   2.262   0.424   7.346 -0.4476 -0.9794 -0.0736
 5871TIP3    H139248   2.173   0.458   7.338 -0.1915 -0.4202 -0.6698
 5871TIP3    H239249   2.293   0.456   7.431 -0.0645  0.6923 -0.7907
 5872TIP3   OH239250   2.393   1.546   1.152  0.6033 -0.2545  0.0344
 5872TIP3    H139251   2.389   1.497   1.234  1.9779  1.3516  1.1302
 5872TIP3    H239252   2.303   1.576   1.137 -0.3407 -3.1452 -0.7880
 5873TIP3   OH239253   6.658   6.452   0.748  0.2890 -0.1261  0.0394
 5873TIP3    H139254   6.679   6.437   0.840  2.0322  0.0123 -0.3042
 5873TIP3    H239255   6.574   6.409   0.736  0.3816 -0.7915  1.5259
 5874TIP3   OH239256   1.985   3.839   0.379  0.5144 -0.1623 -0.1227
 5874TIP3    H139257   1.921   3.812   0.312  0.3010 -0.6540  0.2743
 5874TIP3    H239258   2.033   3.759   0.399 -0.4026 -0.3751  1.3764
 5875TIP3   OH239259   6.366   4.329   7.955  0.2816 -0.2531 -0.7210
 5875TIP3    H139260   6.317   4.338   8.037  0.7748  1.0396 -0.5421
 5875TIP3    H239261   6.299   4.316   7.888 -0.1387 -1.1257 -0.1430
 5876TIP3   OH239262   0.656   3.372   8.026  0.3698 -0.1208 -0.2821
 5876TIP3    H139263   0.696   3.304   7.972 -1.9341 -0.5808 -1.5877
 5876TIP3    H239264   0.674   3.346   8.116  1.2987 -1.3136 -0.7867
 5877TIP3   OH239265   0.169   5.493   1.876 -0.6995  0.1987 -0.2064
 5877TIP3    H139266   0.188   5.405   1.843 -2.0215  0.3937 -1.6466
 5877TIP3    H239267   0.249   5.521   1.919  0.1124 -1.2961 -0.6752
 5878TIP3   OH239268   3.161   0.790   7.824  0.4913 -0.8949  0.5652
 5878TIP3    H139269   3.107   0.859   7.863  1.8534 -0.7279  2.3394
 5878TIP3    H239270   3.099   0.725   7.792 -0.8299  1.0541 -1.0388
 5879TIP3   OH239271   4.599   1.940   1.742 -0.8264  0.3434  0.2222
 5879TIP3    H139272   4.584   1.894   1.825 -0.5595 -0.4240 -0.1444
 5879TIP3    H239273   4.666   2.005   1.763  1.5704 -1.8565  0.0036
 5880TIP3   OH239274   5.980   0.590   1.787  0.0456 -0.3358  0.0681
 5880TIP3    H139275   5.954   0.679   1.764  1.4361  0.3203  0.8672
 5880TIP3    H239276   5.943   0.577   1.875 -1.5372 -1.1897 -0.6856
 5881TIP3   OH239277   2.748   2.037   7.592 -0.2004  0.6014  0.6185
 5881TIP3    H139278   2.721   2.088   7.516 -0.3732  0.0387  0.2958
 5881TIP3    H239279   2.743   1.946   7.563  0.3412  0.4087  1.1087
 5882TIP3   OH239280   3.434   2.853   0.585  0.0166 -0.1443 -0.0201
 5882TIP3    H139281   3.501   2.884   0.645  0.8087  0.8190 -1.3546
 5882TIP3    H239282   3.466   2.877   0.498 -1.5592 -0.6039 -0.7705
 5883TIP3   OH239283   2.261   1.444   8.387 -0.1906 -0.0911  0.0211
 5883TIP3    H139284   2.222   1.387   8.320 -0.9230 -0.4903  0.7654
 5883TIP3    H239285   2.294   1.383   8.453 -0.3673  0.3257  0.4977
 5884TIP3   OH239286   5.310   0.816   2.038  0.0932 -0.0966 -0.3233
 5884TIP3    H139287   5.294   0.907   2.013  2.2604  0.4862  0.1582
 5884TIP3    H239288   5.373   0.784   1.973  0.2987 -0.8503  0.2255
 5885TIP3   OH239289   2.127   4.903   3.093 -0.1709 -0.3302  0.2314
 5885TIP3    H139290   2.191   4.888   3.162 -1.2714  1.6037  1.7729
 5885TIP3    H239291   2.179   4.914   3.013  1.2762 -0.5400  1.1159
 5886TIP3   OH239292   3.787   3.700   0.896  0.0781 -0.1857 -0.3929
 5886TIP3    H139293   3.708   3.700   0.950 -0.3205 -1.7969 -0.9127
 5886TIP3    H239294   3.826   3.786   0.910 -1.1958  0.2444  0.7106
 5887TIP3   OH239295   3.123   0.965   7.589 -0.3428  0.5082 -0.6583
 5887TIP3    H139296   3.207   0.942   7.548  0.6223 -0.0250  1.5011
 5887TIP3    H239297   3.126   0.924   7.675 -2.1482  1.8524  0.1089
 5888TIP3   OH239298   3.939   6.390   2.570  0.1421 -0.2128  0.2044
 5888TIP3    H139299   4.000   6.432   2.632  1.4680 -0.4307 -0.9053
 5888TIP3    H239300   3.947   6.297   2.589  0.3537 -0.2602 -0.1153
 5889TIP3   OH239301   6.233   1.248   2.785  0.5774  0.1426  0.2962
 5889TIP3    H139302   6.245   1.233   2.879  3.0740 -1.0042 -0.1181
 5889TIP3    H239303   6.258   1.339   2.772  1.6029 -0.0847  0.5775
 5890TIP3   OH239304   0.618   0.813   2.255 -0.4389  0.1544  0.1155
 5890TIP3    H139305   0.654   0.883   2.200 -2.5610 -0.1679 -1.8330
 5890TIP3    H239306   0.586   0.858   2.333  1.8389  0.7484  0.7697
 5891TIP3   OH239307   2.190   1.707   8.322  0.1229 -0.1160 -0.0142
 5891TIP3    H139308   2.226   1.624   8.355  1.0216  0.8329  1.4749
 5891TIP3    H239309   2.251   1.774   8.352 -1.6742  1.3207  0.6196
 5892TIP3   OH239310   6.321   0.498   2.380 -0.5410 -0.2140  0.0560
 5892TIP3    H139311   6.371   0.451   2.313 -1.8493  1.7655 -2.5500
 5892TIP3    H239312   6.375   0.574   2.402 -0.1360 -0.8356  1.2776
 5893TIP3   OH239313   6.964   4.654   1.733  1.2468  0.1887 -0.3570
 5893TIP3    H139314   6.939   4.700   1.814 -0.8526  0.5335 -1.1566
 5893TIP3    H239315   6.996   4.724   1.676 -0.6607  0.5193 -1.0797
 5894TIP3   OH239316   1.878   4.891   3.160  0.1563 -0.0733 -0.1122
 5894TIP3    H139317   1.973   4.897   3.147  0.4728 -0.4368  1.8405
 5894TIP3    H239318   1.845   4.978   3.133  1.6141  1.7174  3.3220
 5895TIP3   OH239319   3.944   0.774   6.800 -0.1427  0.1751 -0.2687
 5895TIP3    H139320   4.017   0.730   6.756 -0.1250  0.8813 -0.9606
 5895TIP3    H239321   3.933   0.725   6.881 -0.1739 -1.1626 -1.0385
 5896TIP3   OH239322   6.710   6.713   2.072 -0.2101  0.1342 -0.9627
 5896TIP3    H139323   6.661   6.784   2.030  0.4176  0.8781 -0.4726
 5896TIP3    H239324   6.668   6.703   2.158  0.3983  0.7050 -0.5816
 5897TIP3   OH239325   6.195   1.428   0.793  0.3936  0.2189 -0.0425
 5897TIP3    H139326   6.106   1.463   0.790  0.6389  0.9513  0.8048
 5897TIP3    H239327   6.190   1.345   0.746 -0.1827  1.4201 -2.2493
 5898TIP3   OH239328   1.326   5.618   2.278 -0.1962  0.3009  0.1464
 5898TIP3    H139329   1.288   5.668   2.206 -0.6090 -0.3157 -0.0706
 5898TIP3    H239330   1.267   5.632   2.351  0.4805  1.3176  0.5139
 5899TIP3   OH239331   5.217   6.841   0.324  0.1742  0.2421 -0.6423
 5899TIP3    H139332   5.273   6.789   0.266  0.9382 -0.3435  0.5804
 5899TIP3    H239333   5.254   6.930   0.320  1.9503 -0.3576  0.9979
 5900TIP3   OH239334   3.573   5.326   2.599 -0.3365 -1.0404  0.2974
 5900TIP3    H139335   3.615   5.409   2.623  0.3892 -1.3424  0.1077
 5900TIP3    H239336   3.533   5.295   2.680  1.0323 -1.4418  0.8577
 5901TIP3   OH239337   2.575   2.348   8.157  0.1349  0.5853 -0.2773
 5901TIP3    H139338   2.659   2.365   8.200  0.6284  1.0570 -1.3933
 5901TIP3    H239339   2.560   2.425   8.103 -1.7521  1.1843  1.0000
 5902TIP3   OH239340   6.825   4.568   0.207  0.1906  0.5559 -0.0183
 5902TIP3    H139341   6.834   4.586   0.114  0.4723  0.2206 -0.0604
 5902TIP3    H239342   6.882   4.492   0.222  0.8472  1.1608  0.5948
 5903TIP3   OH239343   3.065   6.083   1.605  0.1720  0.3756  0.0750
 5903TIP3    H139344   3.099   6.027   1.675  0.7051  0.9485  0.2894
 5903TIP3    H239345   3.137   6.145   1.587 -0.3287  0.8637 -0.2889
 5904TIP3   OH239346   4.647   6.453   2.132  0.3109  0.4091 -0.4211
 5904TIP3    H139347   4.583   6.418   2.069  0.1688  1.8122 -1.0965
 5904TIP3    H239348   4.595   6.479   2.208  0.5441 -1.7919  0.5615
 5905TIP3   OH239349   5.905   2.659   0.790 -0.4275  0.1147  0.0734
 5905TIP3    H139350   5.890   2.652   0.884  1.1815  0.6831  0.3936
 5905TIP3    H239351   5.995   2.689   0.781 -0.9375  1.3120 -1.6253
 5906TIP3   OH239352   2.914   1.003   1.407 -0.5226 -0.3871  0.0660
 5906TIP3    H139353   2.938   0.930   1.464 -1.8159 -0.5913  0.3683
 5906TIP3    H239354   2.997   1.033   1.371  0.4382  0.2599  2.6224
 5907TIP3   OH239355   0.323   4.197   1.747  0.1785  1.1265  0.2397
 5907TIP3    H139356   0.229   4.218   1.746 -0.3506 -0.9736  1.1793
 5907TIP3    H239357   0.356   4.241   1.826 -0.1515  1.3163  0.2774
 5908TIP3   OH239358   1.636   0.658   1.409 -0.4402  0.1281  0.0575
 5908TIP3    H139359   1.568   0.599   1.444 -1.7529  1.2807 -0.4625
 5908TIP3    H239360   1.630   0.736   1.465  1.1163 -0.1084  0.5875
 5909TIP3   OH239361   0.505   0.218   1.256 -0.0907 -0.0760 -0.0758
 5909TIP3    H139362   0.492   0.133   1.215 -0.1388 -0.8385  1.4657
 5909TIP3    H239363   0.586   0.209   1.306 -0.3994  0.5849  0.5723
 5910TIP3   OH239364   0.398   3.456   1.760 -0.0020  0.3161  0.2934
 5910TIP3    H139365   0.422   3.417   1.676  1.1666  0.1965  0.6717
 5910TIP3    H239366   0.404   3.384   1.822  1.7920  0.9706  0.9337
 5911TIP3   OH239367   5.103   6.094   2.839  0.6524  0.1032  0.4479
 5911TIP3    H139368   5.167   6.073   2.906  0.2908  0.7682  1.0169
 5911TIP3    H239369   5.092   6.189   2.845 -1.8543 -0.1861  1.7337
 5912TIP3   OH239370   5.082   0.151   8.320  0.0474 -0.2255  0.3805
 5912TIP3    H139371   5.164   0.131   8.366  0.5679  3.0475  1.0859
 5912TIP3    H239372   5.109   0.170   8.230  0.1923  1.2813  0.7148
 5913TIP3   OH239373   4.229   1.431   0.681  0.2288  0.7256  0.1627
 5913TIP3    H139374   4.169   1.390   0.619  0.2230  0.2830  0.4494
 5913TIP3    H239375   4.173   1.486   0.736  0.0408  0.1143  0.5920
 5914TIP3   OH239376   5.551   0.125   8.365 -0.0669  0.6025 -0.1959
 5914TIP3    H139377   5.576   0.218   8.371  0.2611  0.4422  1.9849
 5914TIP3    H239378   5.606   0.082   8.430  0.0879 -1.2271 -1.4747
 5915TIP3   OH239379   2.568   0.336   1.106 -0.5850 -0.7671 -0.3606
 5915TIP3    H139380   2.487   0.355   1.059 -0.4790  0.7587  0.0040
 5915TIP3    H239381   2.545   0.345   1.199  0.4573  2.0679 -0.2744
 5916TIP3   OH239382   2.216   6.402   1.019  0.4706  1.0602  0.7937
 5916TIP3    H139383   2.144   6.465   1.015  0.3870  0.9772  0.9703
 5916TIP3    H239384   2.175   6.321   1.051  0.4644  0.7515  0.0307
 5917TIP3   OH239385   3.997   4.342   1.383 -0.6522  0.2491  0.0050
 5917TIP3    H139386   3.917   4.389   1.361  0.0120  1.9589  1.0196
 5917TIP3    H239387   3.990   4.326   1.477 -1.6353 -3.3426 -0.5411
 5918TIP3   OH239388   1.235   2.498   2.197 -0.6980 -0.1089  0.0635
 5918TIP3    H139389   1.312   2.470   2.147  0.2055 -0.3074  1.5078
 5918TIP3    H239390   1.229   2.592   2.182 -1.1146 -0.3213 -1.2794
 5919TIP3   OH239391   6.849   4.190   2.090 -0.1210 -0.4668 -0.2238
 5919TIP3    H139392   6.929   4.181   2.037 -1.3459 -0.8800 -2.1113
 5919TIP3    H239393   6.783   4.222   2.028 -1.4984 -0.4082  1.2230
 5920TIP3   OH239394   6.202   6.422   8.259 -0.2531  0.0043  0.0414
 5920TIP3    H139395   6.120   6.409   8.213  1.6215 -1.8458 -3.1510
 5920TIP3    H239396   6.260   6.462   8.194  1.7051  0.2816  1.8283
 5921TIP3   OH239397   5.178   2.785   1.261 -0.1890  0.2828  0.0674
 5921TIP3    H139398   5.241   2.825   1.200 -0.8137 -0.5130 -1.1391
 5921TIP3    H239399   5.198   2.691   1.258 -2.1544 -0.1714 -1.2944
 5922TIP3   OH239400   5.447   5.601   2.744 -0.0034 -0.0273 -0.5407
 5922TIP3    H139401   5.400   5.561   2.671 -0.3642  0.8154 -0.7869
 5922TIP3    H239402   5.377   5.635   2.801  0.2953  0.7105 -0.6075
 5923TIP3   OH239403   5.835   3.547   2.610  0.4244 -0.4411 -0.4282
 5923TIP3    H139404   5.747   3.550   2.647  0.6782 -2.5361  0.4945
 5923TIP3    H239405   5.825   3.496   2.530  0.8121 -0.7723 -0.2682
 5924TIP3   OH239406   5.227   3.315   7.640 -0.2314 -0.5458 -0.5857
 5924TIP3    H139407   5.149   3.318   7.585 -0.5487 -0.9279 -0.1630
 5924TIP3    H239408   5.260   3.404   7.640 -0.3841 -0.4844 -1.1748
 5925TIP3   OH239409   7.023   3.092   0.428  0.0492  0.2161  0.1298
 5925TIP3    H139410   7.064   3.176   0.449  0.4999  0.7722 -2.5683
 5925TIP3    H239411   7.077   3.027   0.472  0.5311  1.2436  1.1206
 5926TIP3   OH239412   5.453   3.696   0.214  0.9537  0.1898 -0.2945
 5926TIP3    H139413   5.383   3.717   0.275  2.5383  1.4054  1.2205
 5926TIP3    H239414   5.462   3.601   0.218 -1.4794 -0.1682 -1.6122
 5927TIP3   OH239415   6.400   2.686   0.791  0.2974 -0.0234  0.1288
 5927TIP3    H139416   6.491   2.656   0.781  0.4188 -2.0855  4.7738
 5927TIP3    H239417   6.349   2.606   0.801 -1.5075  1.1417  0.7004
 5928TIP3   OH239418   6.730   0.093   0.325 -0.2295  0.5968 -0.1297
 5928TIP3    H139419   6.666   0.129   0.386 -1.3382  0.4481 -1.1696
 5928TIP3    H239420   6.757   0.167   0.272 -1.1652  0.2688 -1.0933
 5929TIP3   OH239421   4.080   5.179   1.895 -0.0468  0.7425 -0.4293
 5929TIP3    H139422   4.000   5.140   1.929  0.2140 -0.8780 -1.5509
 5929TIP3    H239423   4.050   5.240   1.827 -0.3598  0.7997 -0.2401
 5930TIP3   OH239424   6.305   4.577   1.509  0.6891  0.0097 -0.1927
 5930TIP3    H139425   6.325   4.520   1.434 -3.1770 -1.0171 -0.6642
 5930TIP3    H239426   6.258   4.651   1.472  0.2534  0.3898  1.0555
 5931TIP3   OH239427   1.897   0.543   2.443 -0.2971  0.2660 -0.1116
 5931TIP3    H139428   1.851   0.464   2.470  1.3738 -0.7117  0.0255
 5931TIP3    H239429   1.970   0.551   2.504  0.1980  1.2853 -0.7999
 5932TIP3   OH239430   6.037   2.194   1.960  0.2691 -0.2825  0.5323
 5932TIP3    H139431   5.963   2.228   2.010  0.6321  0.4538  0.5844
 5932TIP3    H239432   6.104   2.263   1.967  0.6525 -0.5753 -0.2021
 5933TIP3   OH239433   6.754   0.098   7.488 -0.1457  0.1754 -0.3022
 5933TIP3    H139434   6.703   0.172   7.521 -0.3385 -0.1658  0.1838
 5933TIP3    H239435   6.731   0.093   7.396 -1.7047 -0.5206  0.0851
 5934TIP3   OH239436   7.035   5.343   8.252  0.0108 -0.2806 -0.6445
 5934TIP3    H139437   7.106   5.357   8.316 -1.0149  2.4453  0.0545
 5934TIP3    H239438   7.053   5.257   8.214  2.5076 -0.5788  0.9833
 5935TIP3   OH239439   2.130   5.605   0.029 -0.3166 -0.1161  0.1938
 5935TIP3    H139440   2.119   5.687  -0.020  0.3498 -0.3577 -0.3823
 5935TIP3    H239441   2.149   5.633   0.119 -0.7622  0.3446  0.1518
 5936TIP3   OH239442   3.847   6.847   1.874  0.3866 -0.0508  0.9644
 5936TIP3    H139443   3.913   6.890   1.929  2.1997 -0.6321 -0.6570
 5936TIP3    H239444   3.820   6.914   1.812  1.0785 -0.4173  0.2572
 5937TIP3   OH239445   4.034   6.643   8.038  0.3270  0.4342 -0.2142
 5937TIP3    H139446   4.120   6.655   7.997  0.9824 -2.5239  0.0631
 5937TIP3    H239447   4.053   6.590   8.116 -1.6818  0.3126  0.2358
 5938TIP3   OH239448   0.155   2.655   7.131 -0.2525  0.3066  0.3332
 5938TIP3    H139449   0.177   2.745   7.106  0.2420  0.5974  1.7096
 5938TIP3    H239450   0.180   2.602   7.056  0.4776  1.2047 -0.0774
 5939TIP3   OH239451   1.349   5.043   3.682  0.0992  0.4105  0.0640
 5939TIP3    H139452   1.413   5.076   3.619  2.6976 -0.8606  1.8798
 5939TIP3    H239453   1.343   5.112   3.748  2.6487 -0.9680  1.8832
 5940TIP3   OH239454   1.097   4.893   2.574  0.2207  0.1569 -0.5103
 5940TIP3    H139455   1.190   4.887   2.595  0.2679  1.5356 -0.2214
 5940TIP3    H239456   1.082   4.825   2.509  1.5714  0.3384 -1.0348
 5941TIP3   OH239457   5.608   1.998   1.311 -0.0270 -0.4678  0.2227
 5941TIP3    H139458   5.560   1.931   1.358  1.7558 -0.6734  1.8442
 5941TIP3    H239459   5.559   2.079   1.327  0.2331 -0.6334  2.0110
 5942TIP3   OH239460   0.166   1.128   0.990  0.1068  0.2923 -0.2251
 5942TIP3    H139461   0.193   1.194   0.926 -1.6021 -0.3533 -1.7028
 5942TIP3    H239462   0.077   1.154   1.015  0.6216  0.3456  1.6970
 5943TIP3   OH239463   0.773   5.800   0.487  0.2445 -0.1482  0.2302
 5943TIP3    H139464   0.780   5.871   0.550 -0.9284 -0.5097  0.7983
 5943TIP3    H239465   0.703   5.827   0.428  2.8195  1.2625 -2.4198
 5944TIP3   OH239466   2.509   6.495   3.480  0.3908 -0.6445  0.0607
 5944TIP3    H139467   2.599   6.518   3.503  0.2391  0.2129 -0.1533
 5944TIP3    H239468   2.480   6.566   3.423 -0.4578 -0.8569  0.2140
 5945TIP3   OH239469   5.710   5.785   0.689  0.6435  0.7922  0.0830
 5945TIP3    H139470   5.788   5.733   0.709  1.2593  2.2143  1.6487
 5945TIP3    H239471   5.709   5.792   0.594  1.9728  0.0775 -0.0073
 5946TIP3   OH239472   5.690   6.231   1.151 -0.2063 -0.3083  0.5184
 5946TIP3    H139473   5.781   6.237   1.122 -0.1736 -1.4802  0.3630
 5946TIP3    H239474   5.683   6.146   1.194 -1.7301 -1.2015 -1.3470
 5947TIP3   OH239475   4.537   2.353   0.449 -0.2778  0.3920 -0.1060
 5947TIP3    H139476   4.459   2.372   0.501  1.1375  0.8990  1.9851
 5947TIP3    H239477   4.602   2.324   0.513  1.4913  0.7230 -1.6525
 5948TIP3   OH239478   2.699   4.363   2.991  0.4318  0.5527 -0.2569
 5948TIP3    H139479   2.794   4.354   2.992  0.3391 -0.6222 -0.1713
 5948TIP3    H239480   2.670   4.328   3.075 -0.2492 -1.8748 -1.4132
 5949TIP3   OH239481   3.984   1.257   1.636 -0.0489  0.6422 -1.3664
 5949TIP3    H139482   4.003   1.333   1.691 -0.0071 -0.0425 -0.4071
 5949TIP3    H239483   4.022   1.182   1.684 -0.8712 -0.0989 -1.8380
 5950TIP3   OH239484   6.035   2.998   0.663 -0.2224  0.3239 -0.0856
 5950TIP3    H139485   6.120   2.956   0.650  0.5106  1.4959  0.8078
 5950TIP3    H239486   5.975   2.948   0.607  1.0894 -0.3721 -0.9126
 5951TIP3   OH239487   1.080   5.319   7.652  0.5912 -0.0875  0.2863
 5951TIP3    H139488   0.994   5.324   7.610  1.1211 -0.0922 -0.8462
 5951TIP3    H239489   1.063   5.275   7.735 -0.7367  1.2779  0.7877
 5952TIP3   OH239490   3.496   0.156   7.748  0.2502 -0.3381 -0.0276
 5952TIP3    H139491   3.579   0.110   7.748 -0.5556 -1.8464  0.1501
 5952TIP3    H239492   3.513   0.236   7.798  1.4049 -0.9640  0.6263
 5953TIP3   OH239493   2.438   3.900   0.310  0.6113 -0.1751  0.4995
 5953TIP3    H139494   2.407   3.866   0.226  0.5482 -0.8070  0.7811
 5953TIP3    H239495   2.369   3.959   0.339  0.7592  0.2664 -0.0247
 5954TIP3   OH239496   4.800   4.352   0.651 -0.1833 -0.1690  0.2728
 5954TIP3    H139497   4.840   4.423   0.702  0.4391 -0.2668 -0.0740
 5954TIP3    H239498   4.874   4.306   0.612 -0.6157 -0.6398  0.0023
 5955TIP3   OH239499   1.840   4.809   0.746 -0.2072  0.0190  0.7868
 5955TIP3    H139500   1.831   4.802   0.651  1.2546 -1.4091  0.7048
 5955TIP3    H239501   1.759   4.851   0.775 -0.2607  1.3978 -1.1655
 5956TIP3   OH239502   4.017   6.836   7.742  0.2009 -0.2020 -0.1071
 5956TIP3    H139503   4.035   6.864   7.832 -1.0712  0.8144 -0.1360
 5956TIP3    H239504   4.079   6.885   7.688 -0.0743  0.3638  0.0914
 5957TIP3   OH239505   5.665   1.016   6.763  0.8995  0.0077  0.1876
 5957TIP3    H139506   5.603   0.969   6.818  1.5907 -0.6814  0.3994
 5957TIP3    H239507   5.655   0.977   6.676  2.1124 -1.1842  0.5631
 5958TIP3   OH239508   2.499   1.556   1.980 -0.1972 -0.0532  0.0378
 5958TIP3    H139509   2.437   1.536   2.050  0.7232  0.0672  0.9186
 5958TIP3    H239510   2.513   1.650   1.987  0.5264 -0.1696  0.2388
 5959TIP3   OH239511   4.401   2.507   7.630 -0.3217 -0.1864 -0.4692
 5959TIP3    H139512   4.373   2.437   7.689 -0.2933 -0.2735 -0.5593
 5959TIP3    H239513   4.322   2.558   7.614 -1.0206 -1.7897 -2.6173
 5960TIP3   OH239514   3.396   2.921   1.480  0.0730 -0.0925 -0.2572
 5960TIP3    H139515   3.453   2.940   1.555 -1.8779  2.0546  0.7776
 5960TIP3    H239516   3.310   2.906   1.519 -0.2860 -2.8068 -1.8277
 5961TIP3   OH239517   6.800   5.624   1.803  0.0346  0.5563  0.5331
 5961TIP3    H139518   6.835   5.634   1.715 -0.2206  3.4005  0.6617
 5961TIP3    H239519   6.705   5.621   1.791  0.0561 -1.1715  0.6021
 5962TIP3   OH239520   0.655   5.893   6.743 -0.4489  0.6394  0.1986
 5962TIP3    H139521   0.704   5.975   6.740  0.3391  0.1351 -1.3027
 5962TIP3    H239522   0.719   5.826   6.721 -0.9092 -0.5094  2.1089
 5963TIP3   OH239523   3.587   2.310   1.680 -0.0825 -0.2817 -0.4686
 5963TIP3    H139524   3.601   2.215   1.678  0.2151 -0.2412 -0.3104
 5963TIP3    H239525   3.645   2.343   1.611 -0.1080 -0.2042 -0.4520
 5964TIP3   OH239526   2.371   3.864   8.229  0.4294  0.0039  0.1732
 5964TIP3    H139527   2.292   3.913   8.251  0.6311  0.3512  0.1275
 5964TIP3    H239528   2.441   3.904   8.281  0.4391 -0.7921  0.7854
 5965TIP3   OH239529   5.920   0.535   0.667  0.5323  0.3543 -0.1525
 5965TIP3    H139530   5.849   0.586   0.706  1.5993  1.5457  0.2767
 5965TIP3    H239531   5.911   0.549   0.573 -1.3160 -1.5644 -0.3436
 5966TIP3   OH239532   3.205   5.310   1.813  0.1576  0.5577  0.0446
 5966TIP3    H139533   3.124   5.344   1.848 -0.3056 -1.5206  1.1280
 5966TIP3    H239534   3.178   5.252   1.741  0.6837  0.1996  0.1242
 5967TIP3   OH239535   1.690   6.754   7.835 -0.3965 -0.2098  0.0327
 5967TIP3    H139536   1.749   6.680   7.821 -0.6763 -0.5571  0.6372
 5967TIP3    H239537   1.647   6.768   7.751  1.2579  0.6943 -0.7131
 5968TIP3   OH239538   4.068   0.218   2.932  0.3748 -0.0006 -0.2174
 5968TIP3    H139539   3.984   0.176   2.950  1.3407 -1.1601  1.9589
 5968TIP3    H239540   4.048   0.311   2.925 -1.0125 -0.1992  0.8256
 5969TIP3   OH239541   1.398   5.349   0.112  0.5743 -0.3745  0.3970
 5969TIP3    H139542   1.310   5.372   0.140  0.1972  0.2334 -1.1557
 5969TIP3    H239543   1.434   5.297   0.184 -0.7859 -0.0352  1.3548
 5970TIP3   OH239544   5.717   3.766   0.875  0.0761 -0.4160  0.6938
 5970TIP3    H139545   5.710   3.671   0.862  0.8121 -0.6046  1.6267
 5970TIP3    H239546   5.741   3.800   0.789  1.7421 -1.2926  0.7834
 5971TIP3   OH239547   1.752   5.365   7.440 -0.1443 -0.0982 -0.1793
 5971TIP3    H139548   1.712   5.448   7.463 -1.5467 -0.8590  0.2325
 5971TIP3    H239549   1.815   5.387   7.371  0.4997  1.4814  0.8605
 5972TIP3   OH239550   2.521   4.926   0.308 -0.5199 -0.0216 -0.0048
 5972TIP3    H139551   2.450   4.972   0.265  0.1793  1.2223  0.1209
 5972TIP3    H239552   2.599   4.947   0.255  0.2494  1.0612  1.4705
 5973TIP3   OH239553   4.291   4.812   1.601 -0.3821 -0.2182  0.0778
 5973TIP3    H139554   4.383   4.802   1.577  0.1009  0.7515  1.3913
 5973TIP3    H239555   4.282   4.765   1.684 -1.0173 -0.1188  0.0758
 5974TIP3   OH239556   1.544   2.394   8.349 -0.4594  0.0312 -0.8102
 5974TIP3    H139557   1.605   2.373   8.278 -0.0275 -0.0450 -0.4269
 5974TIP3    H239558   1.599   2.394   8.428 -1.6609 -4.5727  0.2784
 5975TIP3   OH239559   7.005   1.814   0.039  0.2748 -0.4409  0.0446
 5975TIP3    H139560   7.060   1.748   0.081  0.7882  0.5407  0.9370
 5975TIP3    H239561   7.066   1.868  -0.011 -0.1300 -0.5502 -0.5791
 5976TIP3   OH239562   4.919   2.528   7.795  0.2794 -0.1445 -0.2649
 5976TIP3    H139563   4.944   2.518   7.703  0.6017 -0.5869 -0.1388
 5976TIP3    H239564   4.828   2.500   7.799  0.7227 -1.6661 -0.1919
 5977TIP3   OH239565   0.751   6.643   7.240  0.6136  0.1240  0.0504
 5977TIP3    H139566   0.777   6.585   7.311  0.4916 -0.9921 -0.7782
 5977TIP3    H239567   0.689   6.591   7.188 -1.1202  1.7237  0.4104
 5978TIP3   OH239568   4.363   0.800   2.236  0.7869  0.2583  0.1882
 5978TIP3    H139569   4.269   0.789   2.251  0.7245  0.2253 -0.2166
 5978TIP3    H239570   4.403   0.724   2.279  0.5349 -0.3403 -0.6081
 5979TIP3   OH239571   4.936   0.345   2.323 -0.3629 -0.1097  0.1447
 5979TIP3    H139572   4.991   0.285   2.373  0.0466  0.4317  0.3410
 5979TIP3    H239573   4.925   0.421   2.379 -1.7784 -0.4247  0.3527
 5980TIP3   OH239574   1.753   3.813   2.376 -0.6942 -0.0095 -0.2483
 5980TIP3    H139575   1.687   3.783   2.314 -0.1561 -0.7497 -0.4745
 5980TIP3    H239576   1.716   3.892   2.415 -1.3965 -0.0159 -0.8979
 5981TIP3   OH239577   3.082   0.538   7.685  0.1055 -0.4406 -0.1408
 5981TIP3    H139578   3.079   0.570   7.595 -2.2041 -1.8554 -0.6467
 5981TIP3    H239579   3.167   0.494   7.692 -0.0908 -1.2065 -1.9911
 5982TIP3   OH239580   0.523   7.001   1.121 -0.0970 -0.4065  0.3617
 5982TIP3    H139581   0.564   6.953   1.193  1.5059 -1.7548 -1.3497
 5982TIP3    H239582   0.480   6.933   1.069 -3.3587  0.7814  1.2199
 5983TIP3   OH239583   2.486   5.517   0.032  0.0449  0.3206 -0.0206
 5983TIP3    H139584   2.509   5.585   0.095 -0.8693 -0.2218  0.9272
 5983TIP3    H239585   2.496   5.560  -0.053 -0.4147  1.6158  0.5468
 5984TIP3   OH239586   4.940   5.815   0.636 -0.1907  0.5681 -0.2472
 5984TIP3    H139587   4.865   5.808   0.577 -0.1484 -0.2277 -0.2199
 5984TIP3    H239588   5.002   5.750   0.603  0.0569  0.4972  0.3459
 5985TIP3   OH239589   1.930   2.334   8.382  0.3551  0.3845  0.5704
 5985TIP3    H139590   1.852   2.337   8.327  0.4333  1.0178  0.4841
 5985TIP3    H239591   1.975   2.417   8.365  1.8170 -0.5838 -0.4897
 5986TIP3   OH239592   5.300   3.780   0.454 -0.3852  0.0938  0.3206
 5986TIP3    H139593   5.211   3.797   0.423 -0.6990 -0.1882  1.0392
 5986TIP3    H239594   5.289   3.712   0.521  0.6407 -1.7525 -1.2943
 5987TIP3   OH239595   2.080   1.461   7.804 -0.0635  0.6222 -0.2034
 5987TIP3    H139596   1.991   1.427   7.808 -0.0459  0.4840 -0.9049
 5987TIP3    H239597   2.125   1.404   7.742  0.3493  1.0648 -0.3171
 5988TIP3   OH239598   1.968   5.504   1.137 -0.2681 -0.1857  0.0268
 5988TIP3    H139599   1.929   5.453   1.208  0.3457 -1.1661 -0.3209
 5988TIP3    H239600   2.062   5.492   1.148 -0.1780 -0.7068 -1.1996
 5989TIP3   OH239601   5.647   0.607   1.123 -0.2328 -0.5369 -0.5770
 5989TIP3    H139602   5.590   0.667   1.171 -0.7582 -0.2607 -1.5067
 5989TIP3    H239603   5.637   0.634   1.032 -0.6934 -2.2076 -1.0490
 5990TIP3   OH239604   3.023   0.632   0.847 -0.3659 -0.0561 -0.2682
 5990TIP3    H139605   2.995   0.709   0.799 -0.3706  0.2827  0.2768
 5990TIP3    H239606   3.068   0.578   0.781 -0.4555  0.3577 -0.6706
 5991TIP3   OH239607   1.940   5.341   1.349  0.6198 -0.4131 -0.1048
 5991TIP3    H139608   2.033   5.319   1.352  0.7744  0.0729 -0.9033
 5991TIP3    H239609   1.906   5.292   1.275  0.8383  1.4559 -1.5182
 5992TIP3   OH239610   5.050   4.479   7.302 -0.1094 -0.1483  0.0083
 5992TIP3    H139611   5.143   4.501   7.316 -0.2290 -0.4609  1.4785
 5992TIP3    H239612   5.052   4.394   7.258  0.3215 -0.6098  0.8777
 5993TIP3   OH239613   3.900   4.321   0.564  0.5059  0.2451  0.1073
 5993TIP3    H139614   3.938   4.245   0.608  0.4187 -0.5030 -1.0583
 5993TIP3    H239615   3.809   4.297   0.548  0.4326  0.6594 -0.1252
 5994TIP3   OH239616   2.128   6.550   2.366 -0.0865 -0.6204 -0.3512
 5994TIP3    H139617   2.152   6.502   2.446  0.4504 -0.4085 -0.3841
 5994TIP3    H239618   2.181   6.630   2.369 -2.4931  1.0369  0.7838
 5995TIP3   OH239619   2.791   4.199   1.333 -0.2731 -0.7707 -0.2437
 5995TIP3    H139620   2.731   4.125   1.322 -0.4495 -0.4861 -1.2557
 5995TIP3    H239621   2.753   4.269   1.281  0.2011 -0.1433  0.2479
 5996TIP3   OH239622   5.805   1.771   1.522  0.0304  0.8682  0.1213
 5996TIP3    H139623   5.804   1.675   1.519 -0.0182  0.8767 -0.2595
 5996TIP3    H239624   5.713   1.795   1.531  0.0615  0.8747  0.4236
 5997TIP3   OH239625   3.460   2.773   8.308 -0.8654 -0.4333 -0.7185
 5997TIP3    H139626   3.431   2.714   8.239  2.0539 -0.3998 -2.1197
 5997TIP3    H239627   3.451   2.861   8.270 -1.9125 -0.1629  0.0775
 5998TIP3   OH239628   3.998   1.262   0.644  0.4031  0.0515  0.7876
 5998TIP3    H139629   4.056   1.245   0.718 -0.9933 -0.9762  1.6926
 5998TIP3    H239630   3.925   1.312   0.681 -0.6370 -1.0245  0.2910
 5999TIP3   OH239631   0.641   2.089   1.373  0.8091 -0.2314 -0.4854
 5999TIP3    H139632   0.595   2.170   1.396  0.3572 -0.0598 -1.8837
 5999TIP3    H239633   0.594   2.056   1.297  2.0675 -0.8738 -1.0102
 6000TIP3   OH239634   4.830   0.177   8.178  0.0616 -0.3059  0.3974
 6000TIP3    H139635   4.923   0.175   8.198 -0.0004 -0.6379  0.6547
 6000TIP3    H239636   4.789   0.213   8.256  0.1402  1.5596 -0.3661
 6001TIP3   OH239637   2.807   2.510   2.012 -0.0924 -0.2396  0.2464
 6001TIP3    H139638   2.764   2.434   1.973  1.1314 -0.0382 -1.6283
 6001TIP3    H239639   2.802   2.578   1.945  1.0167  0.5341  0.9135
 6002TIP3   OH239640   0.281   3.629   1.555 -0.0788  0.0880  0.0346
 6002TIP3    H139641   0.327   3.577   1.621  0.9077 -0.7744 -1.2737
 6002TIP3    H239642   0.338   3.704   1.541 -0.1148  0.0902 -0.0961
 6003TIP3   OH239643   1.422   6.254   7.288 -0.2611  0.3666 -0.0218
 6003TIP3    H139644   1.486   6.303   7.341 -0.6770  1.4998 -0.5323
 6003TIP3    H239645   1.389   6.319   7.226 -1.6149 -0.3063 -0.0251
 6004TIP3   OH239646   2.063   1.931   0.509  0.2274 -0.1917  0.4347
 6004TIP3    H139647   2.060   1.901   0.600  1.1227  0.1649  0.5912
 6004TIP3    H239648   2.146   1.978   0.502 -0.9559  1.9752  0.1172
 6005TIP3   OH239649   7.001   2.524   0.764 -0.0933 -0.0112  0.3217
 6005TIP3    H139650   7.005   2.532   0.668  0.7766 -0.5668  0.2938
 6005TIP3    H239651   6.971   2.435   0.779  3.7843 -1.4996  0.4792
 6006TIP3   OH239652   0.599   3.635   8.196 -0.2322 -0.4024  0.2194
 6006TIP3    H139653   0.598   3.639   8.292  0.2622  1.2604  0.1893
 6006TIP3    H239654   0.651   3.557   8.176  0.6635 -0.1233  1.3237
 6007TIP3   OH239655   2.131   3.063   1.929  0.1276 -0.0915 -0.4045
 6007TIP3    H139656   2.074   3.000   1.885 -1.0871  1.3830 -1.0339
 6007TIP3    H239657   2.175   3.110   1.858 -0.7438  1.3082 -0.0786
 6008TIP3   OH239658   2.064   6.012   7.866 -0.4397 -0.1780 -0.3991
 6008TIP3    H139659   1.998   6.081   7.862 -1.1300 -0.6920  1.2029
 6008TIP3    H239660   2.122   6.030   7.792  0.5757  3.2960  1.0052
 6009TIP3   OH239661   6.829   5.761   2.359 -0.1777 -0.6857 -0.1936
 6009TIP3    H139662   6.832   5.669   2.386  1.1905 -1.0451 -1.4588
 6009TIP3    H239663   6.849   5.810   2.439  0.0609 -1.5349  0.2807
 6010TIP3   OH239664   1.806   1.943   1.713 -0.1363 -0.2780 -0.7507
 6010TIP3    H139665   1.884   1.923   1.763  0.0571  2.2792  0.1120
 6010TIP3    H239666   1.833   2.013   1.653 -1.8559  1.1731  0.0576
 6011TIP3   OH239667   5.158   3.750   2.751  0.0159  0.2228  0.3931
 6011TIP3    H139668   5.229   3.719   2.696 -0.4456  0.9403 -0.6472
 6011TIP3    H239669   5.182   3.841   2.772  0.1328 -0.0041  1.3035
 6012TIP3   OH239670   1.771   6.278   3.136  0.4856  0.4457  0.1616
 6012TIP3    H139671   1.797   6.352   3.080 -2.3786  0.3806 -1.4364
 6012TIP3    H239672   1.676   6.279   3.134  0.3431 -2.7730  0.8618
 6013TIP3   OH239673   1.758   3.344   0.150 -0.2274  0.0577  0.1650
 6013TIP3    H139674   1.833   3.342   0.091 -0.4054 -3.6218 -0.1829
 6013TIP3    H239675   1.711   3.262   0.132 -1.5882 -0.1505  3.8161
 6014TIP3   OH239676   5.682   3.210   7.730 -0.5295  0.0862 -0.5537
 6014TIP3    H139677   5.634   3.137   7.769 -0.4537 -0.2937 -1.1599
 6014TIP3    H239678   5.620   3.283   7.732 -0.6610 -0.0359 -0.0909
 6015TIP3   OH239679   1.314   0.733   8.273  0.1851 -0.5515 -0.8424
 6015TIP3    H139680   1.228   0.771   8.293  0.5814  0.4983 -1.0558
 6015TIP3    H239681   1.326   0.665   8.339 -0.7552 -0.6246 -0.7291
 6016TIP3   OH239682   3.573   4.254   7.575  0.2554 -0.5872 -0.6459
 6016TIP3    H139683   3.490   4.261   7.529 -1.3999 -0.1749  2.1949
 6016TIP3    H239684   3.604   4.344   7.583  1.0241 -0.7369 -1.6748
 6017TIP3   OH239685   4.839   2.889   2.590  0.1171  0.4305 -0.5669
 6017TIP3    H139686   4.813   2.831   2.518 -1.5718  0.5047 -0.0585
 6017TIP3    H239687   4.775   2.872   2.659  1.3593  0.7762  0.7237
 6018TIP3   OH239688   0.762   3.977   0.366  0.3492 -0.1768 -0.4284
 6018TIP3    H139689   0.693   3.935   0.313 -0.1068  0.1351 -0.0890
 6018TIP3    H239690   0.716   4.042   0.418  0.4154 -1.9198  1.9712
 6019TIP3   OH239691   0.361   0.733   2.188 -0.0535  0.5069  0.1612
 6019TIP3    H139692   0.374   0.805   2.126 -0.0496 -0.8220 -1.4496
 6019TIP3    H239693   0.441   0.733   2.241 -1.2998  3.6117  2.4157
 6020TIP3   OH239694   3.474   1.343   6.744  0.4625  0.6344  0.0263
 6020TIP3    H139695   3.476   1.258   6.789 -1.8963 -1.3926 -3.2839
 6020TIP3    H239696   3.386   1.348   6.707  1.8934  2.4442 -3.5812
 6021TIP3   OH239697   2.986   2.930   0.244  0.2386 -0.3711 -0.7174
 6021TIP3    H139698   3.035   2.875   0.306 -0.5327 -0.2200  0.0400
 6021TIP3    H239699   2.895   2.903   0.255 -0.3117  1.7778  0.4683
 6022TIP3   OH239700   3.844   4.708   7.254 -0.0953 -0.2340  0.4934
 6022TIP3    H139701   3.862   4.633   7.196 -0.2371 -1.1225  1.5607
 6022TIP3    H239702   3.782   4.762   7.205  0.8501 -0.2341 -0.7573
 6023TIP3   OH239703   5.934   2.224   0.060  0.2558 -0.5526 -0.0681
 6023TIP3    H139704   5.995   2.297   0.047  0.0251 -0.4458 -0.5867
 6023TIP3    H239705   5.882   2.250   0.136  2.0295 -1.4550  1.5291
 6024TIP3   OH239706   0.776   5.298   1.095  0.1866  0.0991  0.2170
 6024TIP3    H139707   0.721   5.225   1.121 -0.2047 -0.9244 -3.0848
 6024TIP3    H239708   0.739   5.328   1.012  1.5950  2.7247  0.4261
 6025TIP3   OH239709   2.306   2.762   1.890 -0.2563  0.1115 -0.2874
 6025TIP3    H139710   2.317   2.792   1.800  2.3913  0.9862  0.2489
 6025TIP3    H239711   2.342   2.673   1.890  1.2254  0.6824  0.1856
 6026TIP3   OH239712   1.965   0.149   0.828  0.2858  0.2642  0.0932
 6026TIP3    H139713   1.926   0.199   0.756 -0.4862 -2.1110 -1.2477
 6026TIP3    H239714   2.059   0.149   0.810 -0.0505 -1.9443 -2.1462
 6027TIP3   OH239715   6.235   4.851   7.824 -0.2507  0.0483 -0.0880
 6027TIP3    H139716   6.219   4.940   7.792  1.0087  0.0866 -0.7013
 6027TIP3    H239717   6.331   4.846   7.830 -0.3634 -0.7946  1.3322
 6028TIP3   OH239718   0.633   5.142   1.440  0.4756  0.0088 -0.5124
 6028TIP3    H139719   0.661   5.057   1.473  0.6209  0.0833 -0.4467
 6028TIP3    H239720   0.537   5.138   1.443  0.4899 -0.0043 -0.1380
 6029TIP3   OH239721   5.333   2.055   0.854  0.1828 -0.3545  0.0346
 6029TIP3    H139722   5.337   2.002   0.774  0.2854 -0.2875 -0.0054
 6029TIP3    H239723   5.424   2.066   0.880  0.2557  0.8654 -0.6663
 6030TIP3   OH239724   4.605   2.661   7.543 -0.2764 -0.5138  0.2297
 6030TIP3    H139725   4.591   2.652   7.449 -0.2661  0.7150  0.1059
 6030TIP3    H239726   4.536   2.607   7.583 -0.0136 -1.3855 -0.4752
 6031TIP3   OH239727   2.914   3.287   7.745 -0.0750 -0.1732  0.4866
 6031TIP3    H139728   2.898   3.309   7.837 -1.3519 -0.8954  0.4731
 6031TIP3    H239729   2.902   3.369   7.698  0.3267  0.1466  0.9416
 6032TIP3   OH239730   2.739   4.544   2.276  0.7002 -0.9614 -0.0201
 6032TIP3    H139731   2.706   4.509   2.359  1.2174 -0.1356  0.5451
 6032TIP3    H239732   2.700   4.487   2.210 -0.4251 -1.1027  0.7256
 6033TIP3   OH239733   4.315   6.992   2.361 -0.8193 -0.4328 -0.2646
 6033TIP3    H139734   4.317   7.085   2.383 -0.3926 -0.1064 -1.5948
 6033TIP3    H239735   4.296   6.948   2.444  0.7356  0.7235  0.7701
 6034TIP3   OH239736   2.146   6.749   8.183 -0.6429  0.1453  0.5377
 6034TIP3    H139737   2.104   6.795   8.255  0.0252 -0.8175  1.5875
 6034TIP3    H239738   2.086   6.678   8.161 -1.1071  0.7746 -0.2471
 6035TIP3   OH239739   3.109   1.607   2.010  0.7862 -0.4526 -0.3776
 6035TIP3    H139740   3.181   1.568   1.960  0.5955  0.1479 -1.1410
 6035TIP3    H239741   3.039   1.618   1.946  1.3387  2.5482 -0.6099
 6036TIP3   OH239742   0.177   6.605   8.120 -0.6519  0.2620 -0.3601
 6036TIP3    H139743   0.140   6.637   8.201  1.1197  0.9438  0.2313
 6036TIP3    H239744   0.256   6.558   8.147 -0.7381 -0.6450 -1.5889
 6037TIP3   OH239745   5.488   0.133   8.097  0.1939  1.1021  0.6061
 6037TIP3    H139746   5.497   0.120   8.191  1.6303 -1.3168  0.2120
 6037TIP3    H239747   5.560   0.083   8.059 -1.5989  0.2349 -1.8687
 6038TIP3   OH239748   0.364   6.998   0.288  0.3456  0.0376 -0.0551
 6038TIP3    H139749   0.344   6.926   0.347  0.6039  1.3987  1.7666
 6038TIP3    H239750   0.366   6.958   0.201 -2.9466 -1.5065  0.4581
 6039TIP3   OH239751   3.684   6.045   1.388 -1.1610 -0.0404  0.2943
 6039TIP3    H139752   3.623   5.972   1.378 -0.7478 -0.1035 -2.5613
 6039TIP3    H239753   3.634   6.122   1.363 -0.1450 -0.1188 -2.2991
 6040TIP3   OH239754   3.324   4.447   1.834 -0.1573  0.0244  0.3818
 6040TIP3    H139755   3.387   4.376   1.846 -0.3471 -0.8222 -2.8165
 6040TIP3    H239756   3.274   4.423   1.756 -0.5821  3.3903 -0.5700
 6041TIP3   OH239757   6.923   3.934   1.727  0.4367 -0.5111 -0.2519
 6041TIP3    H139758   6.950   3.886   1.805  0.4811 -0.4838 -0.2502
 6041TIP3    H239759   6.963   3.887   1.655 -0.7802 -1.4012 -0.3892
 6042TIP3   OH239760   2.009   1.699   7.913  0.8641 -0.5892  0.7211
 6042TIP3    H139761   1.923   1.729   7.884  1.2963  1.0759  1.0800
 6042TIP3    H239762   2.035   1.633   7.849 -0.5948 -0.9973  0.5199
 6043TIP3   OH239763   1.736   4.986   7.844  0.4798 -0.6014 -0.1594
 6043TIP3    H139764   1.681   4.970   7.921  0.2715 -2.1580 -0.5993
 6043TIP3    H239765   1.682   5.041   7.788 -0.0957 -0.9710  0.0187
 6044TIP3   OH239766   0.685   1.870   8.338 -0.1396  0.7376 -0.1464
 6044TIP3    H139767   0.702   1.937   8.272  2.6941  2.0552  1.7396
 6044TIP3    H239768   0.766   1.818   8.341 -0.9769 -0.5881  0.8922
 6045TIP3   OH239769   1.594   2.854   1.033  0.4887 -0.6243  0.0227
 6045TIP3    H139770   1.499   2.851   1.043  0.5625 -2.0785  0.4991
 6045TIP3    H239771   1.615   2.947   1.039 -0.7045 -0.4129  1.9894
 6046TIP3   OH239772   0.332   0.523   1.969  0.2164 -0.5530 -0.2640
 6046TIP3    H139773   0.372   0.576   2.039 -0.7757  0.6761 -0.5961
 6046TIP3    H239774   0.376   0.438   1.976  1.7885  0.2593  0.3638
 6047TIP3   OH239775   0.536   2.353   2.339 -0.1143  0.0845 -0.4156
 6047TIP3    H139776   0.533   2.258   2.344 -0.6651  0.1262  0.1645
 6047TIP3    H239777   0.505   2.383   2.425  0.8547  0.7758 -0.2934
 6048TIP3   OH239778   0.552   2.652   8.218  0.2390  0.6346  0.6507
 6048TIP3    H139779   0.596   2.671   8.136  1.7629  0.1177  1.3123
 6048TIP3    H239780   0.478   2.597   8.194  1.5511 -0.8037 -0.2401
 6049TIP3   OH239781   0.497   3.314   1.144  0.1741  0.1447 -0.6842
 6049TIP3    H139782   0.555   3.304   1.068 -0.5116  0.4851 -1.2676
 6049TIP3    H239783   0.448   3.232   1.147 -1.3315  0.9412 -1.9481
 6050TIP3   OH239784   3.040   4.639   1.814  0.0117 -0.2474 -0.3379
 6050TIP3    H139785   3.026   4.592   1.732  1.7267  0.2796 -0.9839
 6050TIP3    H239786   3.092   4.715   1.789  1.1306 -0.4119  1.3212
 6051TIP3   OH239787   2.236   0.627   2.381 -0.5077  0.0750 -0.3141
 6051TIP3    H139788   2.184   0.609   2.460 -2.7874  0.1965 -1.6927
 6051TIP3    H239789   2.191   0.579   2.312  1.7500 -0.4619 -1.5004
 6052TIP3   OH239790   2.481   6.199   0.482 -0.7241 -0.0997 -0.1204
 6052TIP3    H139791   2.427   6.205   0.560 -1.0900 -3.1530 -0.0027
 6052TIP3    H239792   2.419   6.184   0.411 -0.2053 -0.6934 -0.4559
 6053TIP3   OH239793   6.566   2.038   8.169  0.2152 -0.6974 -0.3803
 6053TIP3    H139794   6.525   2.124   8.168 -0.2094 -0.7486  2.7781
 6053TIP3    H239795   6.623   2.038   8.092 -0.7510  1.8697 -1.2093
 6054TIP3   OH239796   4.226   5.854   2.342  0.5457 -0.3566  0.1555
 6054TIP3    H139797   4.308   5.834   2.385 -1.0102 -0.5248  3.3341
 6054TIP3    H239798   4.241   5.938   2.299  2.6172 -0.8539 -0.1931
 6055TIP3   OH239799   0.073   3.666   3.245 -0.2175  0.0494 -0.0294
 6055TIP3    H139800   0.053   3.575   3.221 -2.3641  0.3462  0.4092
 6055TIP3    H239801   0.164   3.678   3.218 -0.0926 -2.0082 -0.7492
 6056TIP3   OH239802   5.393   6.546   7.918  0.4285  0.0967  0.2238
 6056TIP3    H139803   5.450   6.552   7.996 -2.3602  1.3573  2.3278
 6056TIP3    H239804   5.370   6.636   7.899 -1.9805 -0.4373  0.3748
 6057TIP3   OH239805   1.867   4.416   7.575  0.7128 -0.0726 -0.4475
 6057TIP3    H139806   1.905   4.416   7.487 -0.8120  0.4133 -1.1325
 6057TIP3    H239807   1.821   4.500   7.582 -1.4593 -1.2242 -0.2237
 6058TIP3   OH239808   5.928   2.218   6.926 -0.0136 -0.2331 -0.1799
 6058TIP3    H139809   5.962   2.274   6.995  0.0505 -0.9467  0.3811
 6058TIP3    H239810   6.005   2.172   6.892  0.0659  0.6359 -1.2291
 6059TIP3   OH239811   4.277   2.433   1.045  0.0646 -0.7387  0.1944
 6059TIP3    H139812   4.297   2.350   1.088  0.5069 -0.3590  0.7437
 6059TIP3    H239813   4.258   2.409   0.954  1.9680 -1.2743 -0.1140
 6060TIP3   OH239814   3.033   3.052   2.848  0.1999 -0.0971 -0.5557
 6060TIP3    H139815   2.958   3.037   2.907 -0.3481 -1.3181 -1.5128
 6060TIP3    H239816   3.105   3.074   2.907 -0.9822  1.5345  0.3800
 6061TIP3   OH239817   4.942   0.066   0.617 -0.1723  0.2479  0.1957
 6061TIP3    H139818   4.902  -0.007   0.570  0.7887 -0.9195  1.1308
 6061TIP3    H239819   4.965   0.030   0.702  2.5893  0.9309 -0.1708
 6062TIP3   OH239820   5.065   3.077   8.188 -0.3223  0.4535 -0.1583
 6062TIP3    H139821   5.124   3.032   8.248  1.9895  1.0059 -1.8669
 6062TIP3    H239822   5.105   3.163   8.174 -0.8454  0.4186 -2.2813
 6063TIP3   OH239823   5.114   3.664   1.897 -0.0912  0.1585 -0.0617
 6063TIP3    H139824   5.083   3.726   1.963  1.0059  1.4095 -0.6613
 6063TIP3    H239825   5.079   3.698   1.814  1.7420  0.9082 -0.5916
 6064TIP3   OH239826   0.721   2.622   0.358  0.2725  0.2132 -0.3201
 6064TIP3    H139827   0.751   2.534   0.337  1.2540  0.4012  0.2022
 6064TIP3    H239828   0.732   2.671   0.277  0.5970  0.0693 -0.3650
 6065TIP3   OH239829   6.635   5.959   8.176 -0.1437 -0.0649 -0.3498
 6065TIP3    H139830   6.571   5.981   8.108 -2.1938  0.9971  1.7831
 6065TIP3    H239831   6.624   5.866   8.191  1.1672 -0.5747 -2.2080
 6066TIP3   OH239832   1.659   3.492   8.327  0.1549 -0.0045 -0.1785
 6066TIP3    H139833   1.718   3.444   8.269 -1.3474 -1.3969 -0.6245
 6066TIP3    H239834   1.679   3.459   8.414 -0.9566 -1.5976 -0.4962
 6067TIP3   OH239835   2.616   4.037   3.071 -0.2931 -0.5948  0.1349
 6067TIP3    H139836   2.696   4.026   3.122 -0.0741  0.0715 -0.0573
 6067TIP3    H239837   2.646   4.060   2.983 -0.6940  0.2805  0.2156
 6068TIP3   OH239838   2.002   4.229   2.691 -0.2080  0.2088  0.0538
 6068TIP3    H139839   1.974   4.144   2.725  0.4906  0.2773  0.8334
 6068TIP3    H239840   1.982   4.290   2.762 -1.6855  0.8862 -0.9014
 6069TIP3   OH239841   7.024   3.042   0.936  0.2664 -0.3923 -0.8504
 6069TIP3    H139842   7.074   3.114   0.974  0.9049 -1.0861 -0.3466
 6069TIP3    H239843   6.952   3.085   0.889  0.6412  0.5664 -0.5737
 6070TIP3   OH239844   3.874   6.532   7.818 -0.5091 -0.3936  0.3505
 6070TIP3    H139845   3.916   6.616   7.837 -0.2064 -0.8446  1.7817
 6070TIP3    H239846   3.902   6.511   7.729 -0.5246  0.9800 -0.0019
 6071TIP3   OH239847   5.647   4.290   1.564  0.3978 -0.1240  0.6328
 6071TIP3    H139848   5.631   4.245   1.647 -2.4091  0.6898  0.6321
 6071TIP3    H239849   5.649   4.220   1.498  1.1499 -0.6376  1.1881
 6072TIP3   OH239850   1.889   1.172   0.739  0.4894  0.1307  0.4949
 6072TIP3    H139851   1.839   1.229   0.796  0.7858  0.8577  0.0373
 6072TIP3    H239852   1.936   1.231   0.680 -0.6775 -0.5862 -1.2531
 6073TIP3   OH239853   5.216   2.997   1.584  0.4130  0.1516  0.0932
 6073TIP3    H139854   5.258   2.911   1.582 -0.7093 -0.4220 -1.4847
 6073TIP3    H239855   5.123   2.978   1.587  0.1880  1.3619  1.4289
 6074TIP3   OH239856   6.049   4.872   1.943 -0.4086  0.4397 -0.4489
 6074TIP3    H139857   6.065   4.799   1.883  0.2227  0.2077  0.0001
 6074TIP3    H239858   6.090   4.947   1.901 -0.2497  0.3453 -0.4615
 6075TIP3   OH239859   1.320   1.376   7.673 -0.0400 -0.0306  0.1380
 6075TIP3    H139860   1.242   1.431   7.683  1.6840  2.5820  0.1146
 6075TIP3    H239861   1.313   1.339   7.585 -0.1618  2.0821 -0.7947
 6076TIP3   OH239862   3.048   4.882   2.245 -0.2489  0.2926  0.2615
 6076TIP3    H139863   3.007   4.943   2.183  0.5850  0.4207 -0.1769
 6076TIP3    H239864   3.066   4.936   2.322 -1.4311  0.0964  0.6924
 6077TIP3   OH239865   6.172   4.250   0.185 -0.3591  0.4414 -0.6853
 6077TIP3    H139866   6.162   4.173   0.240  0.8727 -0.7342 -2.0326
 6077TIP3    H239867   6.110   4.237   0.113 -1.4880  1.6487  0.0237
 6078TIP3   OH239868   3.492   6.111   7.563  0.4124  0.8374 -0.3785
 6078TIP3    H139869   3.397   6.105   7.555  0.1894  2.6439  0.5184
 6078TIP3    H239870   3.524   6.094   7.474 -0.8447  1.6616 -1.0164
 6079TIP3   OH239871   2.635   3.277   7.157 -0.2635  0.1093 -1.3007
 6079TIP3    H139872   2.707   3.337   7.140  0.7080 -0.4208  0.7009
 6079TIP3    H239873   2.557   3.325   7.128  0.5370  2.1081 -0.3195
 6080TIP3   OH239874   2.893   5.939   1.449  0.1029 -0.0070  0.0346
 6080TIP3    H139875   2.972   5.975   1.489  0.8656 -0.2744 -1.1683
 6080TIP3    H239876   2.885   5.851   1.488 -0.3877  0.5192  1.1628
 6081TIP3   OH239877   2.780   3.083   7.322 -0.6495  0.0661  0.2268
 6081TIP3    H139878   2.734   3.160   7.289 -0.9684 -0.3989 -0.4162
 6081TIP3    H239879   2.850   3.120   7.376 -0.1595  0.8465 -0.8897
 6082TIP3   OH239880   1.757   1.649   6.948 -0.4630 -0.6500 -0.2811
 6082TIP3    H139881   1.848   1.666   6.923 -0.2318 -2.0685 -0.5190
 6082TIP3    H239882   1.736   1.565   6.906 -2.2006  0.1089 -1.0171
 6083TIP3   OH239883   0.949   5.431   0.309 -0.0509  0.4697 -0.4649
 6083TIP3    H139884   1.024   5.472   0.350  1.5104 -0.7705 -1.9339
 6083TIP3    H239885   0.939   5.347   0.354 -0.8455  0.7988 -0.0017
 6084TIP3   OH239886   0.923   2.791   7.839 -0.9362 -0.0898 -0.5875
 6084TIP3    H139887   0.967   2.795   7.924 -2.1281  0.0939  0.0416
 6084TIP3    H239888   0.983   2.833   7.778 -0.9304  1.6086  0.5497
 6085TIP3   OH239889   6.531   0.428   0.208 -0.0474 -0.5272 -0.3620
 6085TIP3    H139890   6.610   0.433   0.262 -1.3014  2.6642  1.5181
 6085TIP3    H239891   6.498   0.340   0.222  1.3313 -0.7982  1.6708
 6086TIP3   OH239892   6.075   1.900   2.051 -0.2592  0.1232 -0.5775
 6086TIP3    H139893   6.123   1.891   1.969 -1.1402  0.8647 -1.2065
 6086TIP3    H239894   6.044   1.991   2.050 -2.3196 -0.5260 -0.6157
 6087TIP3   OH239895   2.235   5.486   0.480 -0.3121  0.3624 -0.0421
 6087TIP3    H139896   2.145   5.517   0.490  0.4569  2.5593  0.4977
 6087TIP3    H239897   2.245   5.473   0.385 -1.4252 -0.7799 -0.0395
 6088TIP3   OH239898   4.315   5.579   7.127 -0.3368  0.6880 -0.1464
 6088TIP3    H139899   4.305   5.670   7.098 -1.3960  1.0913  1.3307
 6088TIP3    H239900   4.285   5.526   7.054  1.0114  1.4741 -1.3197
 6089TIP3   OH239901   5.461   0.748   2.354 -0.2297  0.1006 -0.5523
 6089TIP3    H139902   5.488   0.730   2.444  0.5031  1.7489 -0.4290
 6089TIP3    H239903   5.537   0.727   2.301 -0.7000 -0.9895 -0.8402
 6090TIP3   OH239904   4.831   1.053   2.505 -0.0435 -0.4836  0.7452
 6090TIP3    H139905   4.909   1.001   2.524  0.8409  1.2718  2.0856
 6090TIP3    H239906   4.773   1.038   2.579  1.1698  2.1332  2.3450
 6091TIP3   OH239907   2.607   2.969   8.100  0.1414 -0.1916 -0.1643
 6091TIP3    H139908   2.555   2.995   8.024  0.5683  2.6305  0.4006
 6091TIP3    H239909   2.697   2.964   8.068  0.2993  0.8453  0.0678
 6092TIP3   OH239910   3.882   4.219   2.463  0.3343 -0.1315 -0.4918
 6092TIP3    H139911   3.887   4.167   2.543 -0.7122  0.1177 -0.2488
 6092TIP3    H239912   3.926   4.301   2.484  0.7276 -0.3656 -0.4134
 6093TIP3   OH239913   2.955   2.625   2.747  0.4690 -1.0610 -0.4425
 6093TIP3    H139914   2.861   2.644   2.739  0.3899 -1.2673  0.0022
 6093TIP3    H239915   2.959   2.542   2.793  0.8882 -0.5987  0.3741
 6094TIP3   OH239916   4.306   2.663   0.660 -0.0708 -0.0317  0.1853
 6094TIP3    H139917   4.287   2.571   0.639 -1.1780  0.1392  0.3949
 6094TIP3    H239918   4.274   2.674   0.749  0.1380  0.5400  0.1903
 6095TIP3   OH239919   0.116   2.666   8.258  0.4200 -0.3865 -0.2162
 6095TIP3    H139920   0.184   2.614   8.214  0.1714 -1.4215  0.5801
 6095TIP3    H239921   0.034   2.631   8.224  0.2454 -0.6970  0.5086
 6096TIP3   OH239922   5.357   2.124   1.573  0.8048 -0.5745  0.1926
 6096TIP3    H139923   5.383   2.033   1.557  0.5242 -0.7871  0.8729
 6096TIP3    H239924   5.396   2.144   1.658  2.1934  0.4726 -0.6631
 6097TIP3   OH239925   4.624   6.936   0.232 -0.2031  0.2176  0.1566
 6097TIP3    H139926   4.707   6.893   0.254 -0.0372  0.6370  0.3559
 6097TIP3    H239927   4.641   6.980   0.149 -0.7177 -1.0507 -0.6437
 6098TIP3   OH239928   1.767   0.600   7.434 -0.3114 -0.2837 -0.0754
 6098TIP3    H139929   1.762   0.684   7.479  1.0341  0.2398 -0.8300
 6098TIP3    H239930   1.753   0.622   7.342  0.8548 -0.7579 -0.3774
 6099TIP3   OH239931   1.377   0.444   0.707  0.4235  0.2921 -0.0389
 6099TIP3    H139932   1.371   0.432   0.802 -1.9445 -0.3028 -0.2275
 6099TIP3    H239933   1.380   0.356   0.671  1.6329  0.5134 -0.5540
 6100TIP3   OH239934   2.284   5.859   1.900  0.6888  0.1296  0.0567
 6100TIP3    H139935   2.245   5.809   1.828 -1.0118  1.2137  0.1668
 6100TIP3    H239936   2.332   5.930   1.856  0.7615  0.0285 -0.0290
 6101TIP3   OH239937   0.293   1.506   7.233 -0.0969 -0.7302  0.4546
 6101TIP3    H139938   0.345   1.439   7.277  1.0034  0.6141  1.2718
 6101TIP3    H239939   0.227   1.533   7.297 -1.9588 -2.4924 -0.6083
 6102TIP3   OH239940   5.973   5.696   1.913 -0.5193 -1.1200 -0.2122
 6102TIP3    H139941   5.909   5.656   1.854 -1.1994  0.3646 -0.5308
 6102TIP3    H239942   5.927   5.770   1.952  1.5118  1.2067 -1.8916
 6103TIP3   OH239943   2.965   2.412   0.500  0.0069 -0.5747 -0.4440
 6103TIP3    H139944   3.052   2.436   0.534 -0.9972 -0.5548  2.3278
 6103TIP3    H239945   2.925   2.495   0.475 -0.0552 -0.3201  0.4740
 6104TIP3   OH239946   3.917   3.723   3.210 -0.4771 -0.2332  0.6431
 6104TIP3    H139947   3.878   3.781   3.275 -1.0393 -0.1922  0.2684
 6104TIP3    H239948   3.878   3.749   3.127 -0.8629 -1.2558  0.4958
 6105TIP3   OH239949   4.090   2.370   1.383  0.2057  0.6245 -0.3052
 6105TIP3    H139950   4.139   2.452   1.379 -0.2184  0.9140  0.2603
 6105TIP3    H239951   4.156   2.301   1.381  0.6069  0.9992  0.0764
 6106TIP3   OH239952   1.040   5.258   0.982 -0.1919  0.6538  0.1137
 6106TIP3    H139953   1.099   5.333   0.983  0.6709  0.0068  1.8142
 6106TIP3    H239954   0.991   5.263   1.064  1.6430 -1.8914  1.5230
 6107TIP3   OH239955   4.877   4.172   7.895 -0.1822  0.0652 -0.3274
 6107TIP3    H139956   4.913   4.190   7.982 -1.4014 -0.9526  0.4202
 6107TIP3    H239957   4.921   4.091   7.868 -1.5539 -0.9772  0.4307
 6108TIP3   OH239958   4.534   4.278   0.288 -0.6120 -0.0108  0.2534
 6108TIP3    H139959   4.531   4.311   0.199 -0.5713  1.6139  0.8228
 6108TIP3    H239960   4.449   4.235   0.301 -0.6909 -0.0865 -0.4837
 6109TIP3   OH239961   0.867   4.267   3.729 -0.3624 -0.0041  0.0236
 6109TIP3    H139962   0.830   4.355   3.729  1.0335  0.6404 -1.5968
 6109TIP3    H239963   0.887   4.249   3.821 -2.3819  0.5642  0.6331
 6110TIP3   OH239964   1.919   4.554   2.607 -0.2311  0.9304 -0.3206
 6110TIP3    H139965   1.959   4.533   2.692  1.2548 -1.4916 -1.5097
 6110TIP3    H239966   1.936   4.477   2.553 -0.2975  2.7367 -3.1267
 6111TIP3   OH239967   0.334   0.482   0.311  0.1015 -0.3765 -0.1482
 6111TIP3    H139968   0.339   0.389   0.333 -1.7329 -0.8248 -1.3735
 6111TIP3    H239969   0.337   0.484   0.215 -1.6142  0.6334 -0.2369
 6112TIP3   OH239970   4.734   2.298   0.632  0.0510 -0.0076 -0.2173
 6112TIP3    H139971   4.759   2.241   0.560  2.2284 -1.6696  1.7259
 6112TIP3    H239972   4.816   2.323   0.673 -1.1310  0.0221  2.3167
 6113TIP3   OH239973   0.432   4.384   0.567 -0.5108 -0.6326  0.4081
 6113TIP3    H139974   0.339   4.404   0.571 -0.5095 -0.0730 -1.5572
 6113TIP3    H239975   0.475   4.470   0.573 -0.2511 -0.6068 -1.4412
 6114TIP3   OH239976   4.392   4.557   3.027 -0.3917  0.1574 -0.0043
 6114TIP3    H139977   4.484   4.533   3.009 -0.3488 -2.0313  2.4216
 6114TIP3    H239978   4.343   4.516   2.956  0.4518  1.6058 -1.5079
 6115TIP3   OH239979   4.932   2.930   0.267 -0.5852  1.0876  0.0858
 6115TIP3    H139980   4.947   2.844   0.227 -0.8216  1.0940 -0.0151
 6115TIP3    H239981   4.904   2.912   0.356 -2.3735  1.0093 -0.4696
 6116TIP3   OH239982   6.101   0.995   1.471  0.2546 -0.5310  0.5281
 6116TIP3    H139983   6.172   0.935   1.494  1.9536  0.3041 -2.1464
 6116TIP3    H239984   6.106   1.003   1.376 -1.8353  1.5216  0.5138
 6117TIP3   OH239985   0.547   3.572   7.873 -0.2569 -0.2758  0.0646
 6117TIP3    H139986   0.623   3.620   7.840  0.0251 -1.2623 -0.7666
 6117TIP3    H239987   0.584   3.499   7.922 -0.6582 -0.5986 -0.1041
 6118TIP3   OH239988   1.185   0.179   2.501 -0.2388 -0.0314 -0.1068
 6118TIP3    H139989   1.177   0.216   2.413 -0.1883  0.0012 -0.0977
 6118TIP3    H239990   1.218   0.090   2.487  2.4284  0.8727  0.0123
 6119TIP3   OH239991   1.380   2.607   1.772  0.2181  0.2464 -0.1254
 6119TIP3    H139992   1.394   2.699   1.793  0.5330  0.0582  0.5221
 6119TIP3    H239993   1.431   2.559   1.837  1.3165 -0.3655 -1.3797
 6120TIP3   OH239994   6.018   3.518   2.845 -0.4493 -0.3844  0.4205
 6120TIP3    H139995   5.967   3.588   2.887  0.3884  0.4905  0.0344
 6120TIP3    H239996   6.005   3.533   2.751 -2.0255 -2.1100  0.2996
 6121TIP3   OH239997   6.554   4.385   6.866 -0.7454 -0.5926  0.7956
 6121TIP3    H139998   6.577   4.466   6.819  1.2434 -1.9758 -0.7900
 6121TIP3    H239999   6.458   4.385   6.867 -0.8716  0.3888 -1.7794
 6122TIP3   OH240000   0.577   1.325   8.340 -0.9756 -0.4615  0.4213
 6122TIP3    H140001   0.618   1.350   8.422  0.0652 -0.4963 -0.0678
 6122TIP3    H240002   0.483   1.330   8.357 -0.7810  0.4548  1.3271
 6123TIP3   OH240003   0.912   4.642   1.125  0.0290  0.6093 -0.2346
 6123TIP3    H140004   0.871   4.718   1.167  1.3870  1.7847 -0.9695
 6123TIP3    H240005   0.862   4.567   1.159 -0.8191  1.7373  1.1535
 6124TIP3   OH240006   2.898   1.229   7.794 -0.2503  0.6011  0.1736
 6124TIP3    H140007   2.834   1.159   7.785 -0.1772  0.2722  1.8443
 6124TIP3    H240008   2.887   1.282   7.716 -0.0174 -1.4908 -1.3874
 6125TIP3   OH240009   5.477   6.752   8.079  0.5245  0.1551  0.3614
 6125TIP3    H140010   5.529   6.826   8.112  0.5687 -0.1738  1.0545
 6125TIP3    H240011   5.497   6.681   8.139 -0.8779  0.0715  0.7569
 6126TIP3   OH240012   4.615   3.655   7.553  0.1955 -0.0873 -0.8609
 6126TIP3    H140013   4.542   3.597   7.533 -0.5465  0.0802  1.1123
 6126TIP3    H240014   4.690   3.596   7.564 -0.5778 -0.7790  1.2621
 6127TIP3   OH240015   4.216   5.247   7.328 -0.2381 -0.6992  0.6260
 6127TIP3    H140016   4.225   5.170   7.272 -1.1496 -1.6216  1.6725
 6127TIP3    H240017   4.275   5.230   7.402 -1.7439 -1.2997  1.7568
 6128TIP3   OH240018   1.497   3.846   7.862 -0.5445  0.0566 -0.7790
 6128TIP3    H140019   1.474   3.754   7.851  0.3817 -0.2692 -0.1317
 6128TIP3    H240020   1.501   3.859   7.957 -0.8428  0.8110 -0.8638
 6129TIP3   OH240021   0.687   2.048   8.133 -0.3961  0.0977  0.2140
 6129TIP3    H140022   0.628   2.110   8.090 -0.3452  0.7463  1.0585
 6129TIP3    H240023   0.775   2.083   8.117 -0.1213 -1.3409 -1.8108
 6130TIP3   OH240024   1.548   0.556   7.722  0.0848 -0.0126 -0.2029
 6130TIP3    H140025   1.643   0.572   7.726  0.5495 -1.7905 -2.3864
 6130TIP3    H240026   1.526   0.567   7.629 -1.2126 -2.6760 -0.3039
 6131TIP3   OH240027   6.597   2.625   0.132  0.1376 -0.2271 -0.1532
 6131TIP3    H140028   6.619   2.685   0.202  0.5738 -0.5566 -0.0035
 6131TIP3    H240029   6.525   2.668   0.085  1.2943  1.0184 -0.8492
 6132TIP3   OH240030   4.914   0.375   2.050 -0.1470 -0.7476 -0.3651
 6132TIP3    H140031   4.872   0.290   2.036  0.2445 -1.0716  0.3785
 6132TIP3    H240032   4.920   0.383   2.145  0.1592 -0.0540 -0.4410
 6133TIP3   OH240033   2.228   2.417   7.752  0.0783  0.3947  0.4274
 6133TIP3    H140034   2.261   2.496   7.710  1.8208 -0.8144 -0.5713
 6133TIP3    H240035   2.262   2.421   7.841 -1.9592  1.9677  1.2116
 6134TIP3   OH240036   4.695   4.449   3.034  0.4209  0.2901 -0.1318
 6134TIP3    H140037   4.679   4.411   2.948  0.3213  2.0332 -0.9290
 6134TIP3    H240038   4.783   4.420   3.058 -0.6121 -2.5704  0.5247
 6135TIP3   OH240039   2.240   4.209   3.543  0.0713  0.3592  0.0027
 6135TIP3    H140040   2.294   4.225   3.620 -1.6618  0.3411  1.2926
 6135TIP3    H240041   2.299   4.168   3.480  1.8342  1.4633  0.8417
 6136TIP3   OH240042   2.521   4.334   0.986 -0.3863  0.4213 -0.0958
 6136TIP3    H140043   2.578   4.331   0.909 -1.4903  1.0010 -0.9603
 6136TIP3    H240044   2.440   4.375   0.955 -0.9460  0.4517  1.3203
 6137TIP3   OH240045   1.284   5.318   2.448  0.5276  0.2856 -0.6787
 6137TIP3    H140046   1.261   5.366   2.369  0.2105  1.5630  0.1481
 6137TIP3    H240047   1.304   5.387   2.512 -0.9093 -0.6518  0.8509
 6138TIP3   OH240048   2.204   5.610   8.079  0.0109 -0.3255  0.0585
 6138TIP3    H140049   2.143   5.678   8.108  0.6860 -0.1588  1.1652
 6138TIP3    H240050   2.210   5.621   7.984 -0.4556  0.6825  0.1349
 6139TIP3   OH240051   4.111   3.418   2.569  0.1921  0.2696 -0.8813
 6139TIP3    H140052   4.091   3.359   2.497  0.8562  0.1130 -0.9469
 6139TIP3    H240053   4.120   3.504   2.527  1.2321  0.0712 -1.1029
 6140TIP3   OH240054   1.024   5.725   3.037 -0.1995 -0.3620 -0.4374
 6140TIP3    H140055   0.947   5.669   3.053 -1.3706  0.9067 -1.4801
 6140TIP3    H240056   1.091   5.664   3.005 -1.3682 -1.2211 -1.3326
 6141TIP3   OH240057   1.230   2.768   2.614 -0.5001  0.4820  0.2403
 6141TIP3    H140058   1.242   2.855   2.652 -1.3436  1.0536 -0.7418
 6141TIP3    H240059   1.271   2.774   2.528  0.6414 -0.5299  0.6835
 6142TIP3   OH240060   1.693   3.380   3.166 -0.4428  0.3991  0.1921
 6142TIP3    H140061   1.715   3.461   3.119 -0.3147  1.4637  1.9971
 6142TIP3    H240062   1.773   3.357   3.213 -1.0552  0.3539  1.2442
 6143TIP3   OH240063   2.491   3.804   0.853 -0.1501 -0.0783 -0.4446
 6143TIP3    H140064   2.420   3.863   0.828  1.8059  3.5651  1.8485
 6143TIP3    H240065   2.546   3.797   0.775 -0.4498  1.1239 -0.7838
 6144TIP3   OH240066   3.907   1.180   7.531  0.1451 -0.4019  0.7463
 6144TIP3    H140067   3.881   1.272   7.523  1.4350 -0.0874 -0.3749
 6144TIP3    H240068   3.988   1.182   7.582  0.9928 -0.7159 -0.5160
 6145TIP3   OH240069   5.686   5.454   2.395  0.3123 -0.0583  0.0107
 6145TIP3    H140070   5.734   5.442   2.313  0.3270 -0.3196  0.0558
 6145TIP3    H240071   5.751   5.490   2.455 -0.0802  1.6024 -0.5150
 6146TIP3   OH240072   0.790   3.095   0.317 -0.0655 -0.1033  1.1265
 6146TIP3    H140073   0.765   3.178   0.357  1.9245  0.7485  0.7265
 6146TIP3    H240074   0.723   3.033   0.346 -1.3504  1.5239  1.7993
 6147TIP3   OH240075   1.891   5.529   2.390 -0.5652  0.1819 -0.1662
 6147TIP3    H140076   1.971   5.496   2.431  1.8618 -0.0831 -4.4734
 6147TIP3    H240077   1.881   5.617   2.425  2.0943  0.4697  0.0885
 6148TIP3   OH240078   5.869   0.270   8.113  0.4019  0.3295  0.0014
 6148TIP3    H140079   5.904   0.209   8.178  1.9023 -0.3645 -1.3871
 6148TIP3    H240080   5.867   0.220   8.032 -1.1771  1.2563 -0.5874
 6149TIP3   OH240081   0.349   1.056   0.230  0.2139  0.4649  0.4694
 6149TIP3    H140082   0.308   1.070   0.315  0.1794  1.3536  0.3156
 6149TIP3    H240083   0.303   0.981   0.192  0.6140 -0.3069  1.4664
 6150TIP3   OH240084   1.368   2.119   1.113 -0.4298 -0.0676  0.0689
 6150TIP3    H140085   1.461   2.142   1.108 -0.8462  1.6076 -1.0195
 6150TIP3    H240086   1.356   2.089   1.203  1.2764 -0.9586  0.0504
 6151TIP3   OH240087   6.452   1.561   1.944  0.1472  0.5352 -0.0467
 6151TIP3    H140088   6.454   1.643   1.992 -0.8677 -0.7579  2.3839
 6151TIP3    H240089   6.393   1.505   1.994  0.8595 -1.7083 -1.5557
 6152TIP3   OH240090   0.654   6.200   6.728  0.2634  0.0477  0.5071
 6152TIP3    H140091   0.741   6.195   6.688 -0.5859 -1.7429 -1.3389
 6152TIP3    H240092   0.670   6.199   6.822  2.2216 -2.4591  0.2550
 6153TIP3   OH240093   2.570   4.416   2.480  0.1062  0.2714  0.1437
 6153TIP3    H140094   2.626   4.486   2.514 -2.0539  1.4318  1.5345
 6153TIP3    H240095   2.546   4.364   2.557  0.3595 -1.0530 -0.6332
 6154TIP3   OH240096   5.992   2.658   2.771  0.1286  0.4739  0.0319
 6154TIP3    H140097   5.916   2.603   2.751  1.2198 -0.6715 -1.1343
 6154TIP3    H240098   6.005   2.710   2.691  0.3792  0.9209  0.3576
 6155TIP3   OH240099   2.411   0.839   1.614 -0.5463  0.5263  0.1732
 6155TIP3    H140100   2.394   0.910   1.676  1.6043 -0.9409  2.5824
 6155TIP3    H240101   2.371   0.870   1.532 -0.8412  3.9043  1.4292
 6156TIP3   OH240102   1.153   4.297   0.126  0.4157 -0.3058 -0.3583
 6156TIP3    H140103   1.094   4.317   0.053  0.5005 -1.8142 -0.8810
 6156TIP3    H240104   1.216   4.235   0.089  2.0674  0.8904  0.3177
 6157TIP3   OH240105   2.134   2.896   1.280  0.4983  0.3314 -0.0141
 6157TIP3    H140106   2.179   2.880   1.197 -1.4760  0.9959 -1.2952
 6157TIP3    H240107   2.136   2.812   1.325 -0.3603 -0.7069 -1.8029
 6158TIP3   OH240108   6.763   3.492   7.405  0.0177 -0.4922  0.1419
 6158TIP3    H140109   6.824   3.566   7.403  1.4687 -1.6478 -1.2099
 6158TIP3    H240110   6.814   3.421   7.444 -0.7010 -1.2872 -0.3503
 6159TIP3   OH240111   2.783   1.961   2.194 -0.3367 -1.0677 -0.6219
 6159TIP3    H140112   2.731   1.928   2.267  1.9277  0.1443  1.7069
 6159TIP3    H240113   2.874   1.946   2.220  0.6814  2.5024 -1.5483
 6160TIP3   OH240114   2.681   5.236   2.920 -0.0537 -0.2824  0.9099
 6160TIP3    H140115   2.675   5.322   2.962  1.6242  0.5762 -0.4545
 6160TIP3    H240116   2.757   5.195   2.961  1.0790  0.2214 -0.5718
 6161TIP3   OH240117   4.689   2.335   1.939  0.1193 -0.5187 -0.0058
 6161TIP3    H140118   4.626   2.408   1.938  0.4388 -0.2429 -1.0824
 6161TIP3    H240119   4.734   2.341   1.855 -0.2072 -2.2951 -0.3512
 6162TIP3   OH240120   1.904   5.489   8.002  0.5230 -0.0892 -0.3109
 6162TIP3    H140121   1.895   5.393   8.000 -0.2780 -0.0365  0.5085
 6162TIP3    H240122   1.897   5.512   8.094  0.1685  0.8202 -0.5566
 6163TIP3   OH240123   5.946   3.663   0.527  0.3987  0.5269  0.0794
 6163TIP3    H140124   5.993   3.596   0.477  1.3092  1.1200  0.1271
 6163TIP3    H240125   5.876   3.693   0.469  1.7101  1.5170 -1.0219
 6164TIP3   OH240126   0.010   0.802   1.823  0.1763 -0.1745  0.3489
 6164TIP3    H140127   0.008   0.751   1.742  0.2045 -0.7998  0.7327
 6164TIP3    H240128   0.032   0.891   1.795 -1.3229 -0.0354 -0.4935
 6165TIP3   OH240129   1.738   3.691   2.771 -0.0253 -0.0973  0.6083
 6165TIP3    H140130   1.755   3.634   2.846 -1.3011 -0.0308  0.9721
 6165TIP3    H240131   1.710   3.632   2.701  0.8666 -0.1289  0.2688
 6166TIP3   OH240132   0.242   6.788   0.796  0.4255 -0.0310 -0.0538
 6166TIP3    H140133   0.202   6.811   0.880 -0.2810 -1.6581  0.1047
 6166TIP3    H240134   0.182   6.824   0.730  0.6664  0.7270  0.1319
 6167TIP3   OH240135   0.311   2.707   0.579 -0.5592  0.2771  0.1103
 6167TIP3    H140136   0.245   2.708   0.648 -0.1089 -1.3639  0.6130
 6167TIP3    H240137   0.308   2.618   0.545  1.4446  0.1390  0.1969
 6168TIP3   OH240138   2.376   4.157   2.113 -0.1991  0.0612 -0.1635
 6168TIP3    H140139   2.327   4.082   2.146 -0.2931 -0.0704 -0.5927
 6168TIP3    H240140   2.437   4.179   2.183 -2.1016  1.3984  1.1763
 6169TIP3   OH240141   0.446   1.665   2.353  0.1801  1.1212  0.3746
 6169TIP3    H140142   0.351   1.671   2.344  0.0651  0.7005  1.2537
 6169TIP3    H240143   0.477   1.643   2.265 -0.4930  1.6613 -0.0073
 6170TIP3   OH240144   3.196   1.597   0.062  0.2034  0.1170  0.2362
 6170TIP3    H140145   3.122   1.541   0.086  2.3643 -1.8600  2.9501
 6170TIP3    H240146   3.193   1.670   0.124  0.3101  0.2439  0.0933
 6171TIP3   OH240147   1.803   5.670   7.177 -0.5959  0.5001  0.4195
 6171TIP3    H140148   1.845   5.756   7.181  1.3331 -0.3363 -0.4645
 6171TIP3    H240149   1.739   5.677   7.106 -1.4201  1.5633  1.2361
 6172TIP3   OH240150   6.846   6.670   1.827  0.5970 -0.1766  0.2742
 6172TIP3    H140151   6.930   6.653   1.784  0.5382 -1.8818  0.7475
 6172TIP3    H240152   6.869   6.719   1.906  1.0093  0.3874 -0.1846
 6173TIP3   OH240153   3.095   1.982   8.153 -0.0031 -0.1896 -0.0865
 6173TIP3    H140154   3.172   2.003   8.205  0.1411 -1.9535  0.4697
 6173TIP3    H240155   3.130   1.948   8.071 -0.2291  0.6246 -0.5397
 6174TIP3   OH240156   4.616   0.825   1.457 -0.1603  0.3209 -0.2322
 6174TIP3    H140157   4.671   0.873   1.520 -0.5608  0.1362  0.2621
 6174TIP3    H240158   4.591   0.745   1.503 -0.2130  0.0434 -0.7389
 6175TIP3   OH240159   4.596   6.387   6.658  0.3242  0.0691  0.5216
 6175TIP3    H140160   4.563   6.297   6.660 -0.3659  0.3226  0.9071
 6175TIP3    H240161   4.540   6.432   6.595  2.0754 -0.2765 -1.3950
 6176TIP3   OH240162   0.156   3.843   0.457  0.5689  0.1938 -0.8938
 6176TIP3    H140163   0.194   3.925   0.489  3.0677 -0.7495 -1.1559
 6176TIP3    H240164   0.133   3.862   0.366  1.2418  0.5931 -0.9905
 6177TIP3   OH240165   6.974   0.057   0.470 -0.4568  0.0968 -0.1331
 6177TIP3    H140166   7.023   0.137   0.450  1.6187 -1.4256 -1.5470
 6177TIP3    H240167   6.890   0.069   0.426  0.2014  1.0785 -1.1685
 6178TIP3   OH240168   1.517   1.724   7.091  0.1239 -0.0189  0.4927
 6178TIP3    H140169   1.590   1.684   7.043 -0.2889 -1.4633  1.0422
 6178TIP3    H240170   1.443   1.719   7.030  0.3773  1.1923  0.0436
 6179TIP3   OH240171   6.239   3.861   1.730 -0.6143  0.2019  0.7492
 6179TIP3    H140172   6.205   3.869   1.641  0.2097 -2.1748  0.1684
 6179TIP3    H240173   6.173   3.810   1.776 -0.3398  0.1751  1.1132
 6180TIP3   OH240174   5.030   6.487   0.298  0.2810 -0.6278 -0.2876
 6180TIP3    H140175   4.976   6.441   0.234  2.0475  0.8420 -3.0085
 6180TIP3    H240176   5.003   6.578   0.291  1.2416 -0.2833  0.2916
 6181TIP3   OH240177   7.006   5.074   0.090  0.2829  1.1101 -0.0970
 6181TIP3    H140178   6.983   5.093  -0.001 -1.6306  1.9001  0.5099
 6181TIP3    H240179   6.987   4.980   0.099  1.0709  0.8834 -0.6527
 6182TIP3   OH240180   4.712   1.294   2.322 -0.6337  0.1009  0.0483
 6182TIP3    H140181   4.767   1.356   2.275 -0.6585  0.4930  0.5239
 6182TIP3    H240182   4.629   1.340   2.335 -0.9480 -0.3485 -0.3355
 6183TIP3   OH240183   1.288   4.725   2.267  0.8431 -0.5676  0.5558
 6183TIP3    H140184   1.305   4.645   2.317  0.2717 -2.2729 -1.8152
 6183TIP3    H240185   1.208   4.761   2.306 -0.1840 -2.4258  0.2668
 6184TIP3   OH240186   6.945   2.736   7.798 -0.3649  0.2496 -0.4814
 6184TIP3    H140187   6.954   2.657   7.745  0.8796 -0.3172  0.5237
 6184TIP3    H240188   6.851   2.751   7.803 -0.6617 -1.5158 -0.2070
 6185TIP3   OH240189   0.287   3.930   1.658  0.2130 -0.0406  0.2686
 6185TIP3    H140190   0.371   3.886   1.667 -0.6333 -1.4100  2.6142
 6185TIP3    H240191   0.292   4.004   1.719  0.0168  0.3915 -0.2336
 6186TIP3   OH240192   4.807   1.718   8.024 -0.6375 -0.2688  0.6562
 6186TIP3    H140193   4.864   1.666   8.081 -1.4146 -1.3104  0.5266
 6186TIP3    H240194   4.741   1.755   8.083  0.4542  1.4007  0.8894
 6187TIP3   OH240195   4.613   1.145   3.004 -0.0478 -0.1943 -0.0891
 6187TIP3    H140196   4.685   1.190   3.050 -0.8896 -0.6320  1.7160
 6187TIP3    H240197   4.539   1.151   3.064 -0.5848 -2.7517 -0.3987
 6188TIP3   OH240198   5.834   6.898   1.168 -0.0996  0.2327  0.0185
 6188TIP3    H140199   5.845   6.956   1.093  0.2167 -0.8719 -0.8124
 6188TIP3    H240200   5.911   6.915   1.223  0.9309 -0.6411 -1.0920
 6189TIP3   OH240201   5.228   5.621   1.816 -0.1141 -0.1766 -0.2599
 6189TIP3    H140202   5.274   5.700   1.790 -0.1298  0.1404  0.6253
 6189TIP3    H240203   5.293   5.571   1.866 -0.7997  0.4373  1.3056
 6190TIP3   OH240204   3.487   1.890   2.054  0.2773  0.1647 -1.0040
 6190TIP3    H140205   3.499   1.798   2.080  0.9451  0.2766 -0.8953
 6190TIP3    H240206   3.501   1.940   2.134 -2.2448  0.2733 -0.5394
 6191TIP3   OH240207   0.901   5.810   2.365  0.2274  0.2271  0.0798
 6191TIP3    H140208   0.959   5.738   2.340 -0.6393  0.0525 -1.6211
 6191TIP3    H240209   0.937   5.843   2.447  1.8316 -0.8358 -0.1509
 6192TIP3   OH240210   1.520   2.878   3.185  0.8016 -0.3651  0.3168
 6192TIP3    H140211   1.604   2.864   3.229 -0.4006 -0.4093  2.7220
 6192TIP3    H240212   1.495   2.967   3.209  0.0261 -0.4317 -0.1921
 6193TIP3   OH240213   3.361   3.141   2.257  0.2412  0.5837 -0.5546
 6193TIP3    H140214   3.316   3.082   2.196 -0.0218  0.9608 -0.7264
 6193TIP3    H240215   3.339   3.229   2.227 -0.0461  0.7779  0.1917
 6194TIP3   OH240216   5.053   2.690   3.127 -0.0638 -0.0711 -0.6492
 6194TIP3    H140217   5.114   2.648   3.187 -0.1834 -1.0325 -1.1732
 6194TIP3    H240218   4.982   2.722   3.182 -0.5825 -1.6759 -0.3486
 6195TIP3   OH240219   0.632   1.797   0.480  0.8390  0.4831 -0.2014
 6195TIP3    H140220   0.540   1.771   0.468  0.8171  0.8460 -0.8645
 6195TIP3    H240221   0.629   1.863   0.549  0.5562  0.7403 -0.4563
 6196TIP3   OH240222   2.677   3.121   7.654  0.5085 -0.0122 -0.3991
 6196TIP3    H140223   2.616   3.081   7.716  2.3590 -2.2177  0.1174
 6196TIP3    H240224   2.739   3.170   7.708  2.1528 -1.9764 -0.4205
 6197TIP3   OH240225   3.971   4.870   7.421  0.2372  0.5041  0.2112
 6197TIP3    H140226   4.022   4.921   7.357  0.4961  0.7147  0.5820
 6197TIP3    H240227   3.920   4.809   7.368 -1.5973  2.4621 -0.3958
 6198TIP3   OH240228   2.766   1.018   0.306 -0.3930  0.1800  0.0275
 6198TIP3    H140229   2.764   1.083   0.235  1.3397  0.9031  0.5987
 6198TIP3    H240230   2.839   1.045   0.361 -1.7543 -0.3267  2.1679
 6199TIP3   OH240231   5.208   4.458   7.967 -0.2404 -0.0413  0.5081
 6199TIP3    H140232   5.196   4.492   7.878  0.2721  1.2480  0.9047
 6199TIP3    H240233   5.295   4.416   7.965 -0.8316 -1.2883  0.0427
 6200TIP3   OH240234   4.403   1.946   7.971  0.8469  0.0463 -0.3496
 6200TIP3    H140235   4.405   1.861   7.928  0.7192 -0.5839  0.8631
 6200TIP3    H240236   4.328   1.991   7.932  2.2225  0.5375 -2.6546
 6201TIP3   OH240237   2.032   0.393   1.737  0.7433 -0.4277 -0.2485
 6201TIP3    H140238   1.983   0.459   1.786 -0.0400 -0.4334 -1.0148
 6201TIP3    H240239   2.109   0.439   1.705 -0.2373  0.3772 -1.5311
 6202TIP3   OH240240   2.284   2.906   1.664  0.6330  0.2651  0.1550
 6202TIP3    H140241   2.292   2.993   1.702  0.5448 -1.1067  3.6831
 6202TIP3    H240242   2.362   2.897   1.609  0.4764  2.6312 -0.5835
 6203TIP3   OH240243   3.288   5.169   7.876  0.7039 -0.0672  0.4447
 6203TIP3    H140244   3.379   5.149   7.852  0.3020 -0.9601 -0.3988
 6203TIP3    H240245   3.274   5.121   7.957  0.2533 -1.9741 -0.7122
 6204TIP3   OH240246   2.784   3.691   8.369  0.0537 -0.1633  0.0670
 6204TIP3    H140247   2.815   3.653   8.287  0.2383 -0.8595  0.4502
 6204TIP3    H240248   2.847   3.661   8.434  0.4764  1.1975  0.3150
 6205TIP3   OH240249   6.358   3.556   8.223 -0.5444 -0.6784  0.1800
 6205TIP3    H140250   6.386   3.508   8.145 -0.7967  0.1372 -0.4165
 6205TIP3    H240251   6.354   3.647   8.195 -0.4665 -0.3567  1.1991
 6206TIP3   OH240252   6.945   6.209   0.433 -0.4452 -0.3181  0.0347
 6206TIP3    H140253   6.880   6.278   0.444  0.4249  0.4018  0.7535
 6206TIP3    H240254   6.941   6.159   0.514 -2.7678 -2.6642 -1.3605
 6207TIP3   OH240255   0.088   4.117   8.309  0.3270 -0.2660 -0.0630
 6207TIP3    H140256   0.056   4.106   8.220 -0.8466 -1.2160  0.4477
 6207TIP3    H240257   0.168   4.064   8.313  1.1595  0.8718 -0.9080
 6208TIP3   OH240258   3.415   6.660   0.135 -0.1423 -0.3256  0.1029
 6208TIP3    H140259   3.338   6.705   0.169 -1.9313 -2.9217 -0.1538
 6208TIP3    H240260   3.451   6.614   0.211 -0.3773 -1.1023 -0.2426
 6209TIP3   OH240261   3.541   0.217   0.534  0.0021  0.5037  0.8107
 6209TIP3    H140262   3.557   0.195   0.626 -2.9488 -1.0982  1.0624
 6209TIP3    H240263   3.575   0.143   0.485  2.4373  1.7761  0.4258
 6210TIP3   OH240264   0.718   2.769   2.211 -0.6514 -0.4392  0.1686
 6210TIP3    H140265   0.647   2.757   2.148  0.7718  0.3380 -1.6574
 6210TIP3    H240266   0.769   2.688   2.205 -0.4057 -0.2866  0.1970
 6211TIP3   OH240267   4.341   2.205   0.807 -0.1996  0.0023  0.4542
 6211TIP3    H140268   4.376   2.119   0.782  0.1963  0.2436  0.1564
 6211TIP3    H240269   4.267   2.185   0.864  0.5918 -0.5265  1.3390
 6212TIP3   OH240270   5.807   2.517   0.255 -0.0194  0.1969 -0.0086
 6212TIP3    H140271   5.870   2.540   0.324  1.9864 -0.1487 -1.6493
 6212TIP3    H240272   5.748   2.455   0.297 -0.5442  2.0011  2.1439
 6213TIP3   OH240273   3.825   3.181   0.200  0.4942  0.0942  0.4918
 6213TIP3    H140274   3.798   3.090   0.191  1.7702 -0.2241 -0.3006
 6213TIP3    H240275   3.843   3.191   0.294  2.3746 -1.1082  0.3231
 6214TIP3   OH240276   6.702   4.435   2.511 -0.0488  0.0898 -0.5595
 6214TIP3    H140277   6.675   4.355   2.465 -0.6318  0.1830 -0.3815
 6214TIP3    H240278   6.714   4.499   2.441 -3.3203  0.9526 -0.4885
 6215TIP3   OH240279   5.129   6.297   0.480  0.3348  0.3782 -0.0364
 6215TIP3    H140280   5.163   6.347   0.554 -0.8002  0.8380  0.1919
 6215TIP3    H240281   5.073   6.359   0.433 -0.4398 -0.4437 -0.2145
 6216TIP3   OH240282   2.881   0.294   1.388  0.3553 -1.0373  0.5177
 6216TIP3    H140283   2.811   0.292   1.453 -2.4572 -0.6719 -2.2880
 6216TIP3    H240284   2.918   0.382   1.395 -2.6525  0.4940 -0.8993
 6217TIP3   OH240285   1.607   5.281   7.915  0.0322  0.1779 -0.0969
 6217TIP3    H140286   1.646   5.321   7.993 -1.5643  1.3176  0.1580
 6217TIP3    H240287   1.517   5.312   7.914 -1.0655 -2.6586 -0.4485
 6218TIP3   OH240288   2.013   4.671   2.917  0.9073 -0.2564  0.6216
 6218TIP3    H140289   2.089   4.612   2.916  0.0945 -1.3215  0.1395
 6218TIP3    H240290   2.029   4.728   2.992  1.5636 -1.3040  1.3228
 6219TIP3   OH240291   5.565   4.649   0.627 -0.0615  0.3352  0.0700
 6219TIP3    H140292   5.566   4.676   0.535 -0.1723  2.8721  0.7316
 6219TIP3    H240293   5.473   4.632   0.646 -0.0146 -0.3853 -0.3172
 6220TIP3   OH240294   2.655   5.374   1.783 -0.5865 -0.3946  0.0264
 6220TIP3    H140295   2.608   5.294   1.758  1.1088 -1.6125  0.5067
 6220TIP3    H240296   2.671   5.364   1.876  0.2246  0.1777 -0.0429
 6221TIP3   OH240297   5.958   5.051   2.298 -0.7277 -0.5037  0.7365
 6221TIP3    H140298   6.034   5.019   2.347 -1.8997 -2.8814  1.1748
 6221TIP3    H240299   5.883   5.027   2.353 -1.9226 -0.5268 -0.8278
 6222TIP3   OH240300   5.708   2.044   2.417  0.5567  0.1034  0.3610
 6222TIP3    H140301   5.753   2.083   2.492  0.6900 -0.4706  0.5854
 6222TIP3    H240302   5.670   1.963   2.451  0.7418 -0.2359 -0.2218
 6223TIP3   OH240303   3.591   3.620   7.205 -0.3211 -0.2720 -0.5050
 6223TIP3    H140304   3.684   3.620   7.228 -0.4695  1.7824  0.3970
 6223TIP3    H240305   3.584   3.686   7.137 -0.9624 -1.3558 -1.5181
 6224TIP3   OH240306   4.311   3.729   7.445 -0.3137 -0.5476 -0.1781
 6224TIP3    H140307   4.279   3.746   7.356  2.9223 -0.0029 -1.3657
 6224TIP3    H240308   4.278   3.642   7.466 -1.9415 -0.2985 -1.5041
 6225TIP3   OH240309   6.884   1.178   0.001  0.1444  0.8078  0.2911
 6225TIP3    H140310   6.963   1.140  -0.037 -1.3361 -1.7096 -0.4996
 6225TIP3    H240311   6.812   1.125  -0.033 -1.7266  1.5887  2.6786
 6226TIP3   OH240312   5.737   4.935   2.719 -0.2928  0.2204 -0.1185
 6226TIP3    H140313   5.780   5.017   2.691 -0.2660 -0.1728 -1.3062
 6226TIP3    H240314   5.808   4.871   2.723 -0.6217 -0.2713 -1.4287
 6227TIP3   OH240315   6.101   5.362   1.679 -0.5268  0.3701 -0.2469
 6227TIP3    H140316   6.087   5.441   1.732 -0.4163  0.7727 -0.8033
 6227TIP3    H240317   6.194   5.364   1.658 -0.7091  0.6226 -1.0737
 6228TIP3   OH240318   2.012   1.741   1.024  0.0549  0.1407 -0.0959
 6228TIP3    H140319   1.929   1.707   1.057 -1.0917  1.0733 -1.9096
 6228TIP3    H240320   2.039   1.806   1.090 -1.1792  0.5651  0.0130
 6229TIP3   OH240321   5.771   3.136   7.023 -0.1193  0.4145  0.4294
 6229TIP3    H140322   5.860   3.170   7.019 -0.3669  1.0707  0.2099
 6229TIP3    H240323   5.778   3.044   6.997  0.2643  0.9263 -1.4111
 6230TIP3   OH240324   2.914   2.689   7.758  0.3112 -0.0858 -0.2305
 6230TIP3    H140325   2.923   2.650   7.845 -0.3661  0.5929  0.1598
 6230TIP3    H240326   2.945   2.621   7.698  0.5829 -0.6469  0.5236
 6231TIP3   OH240327   2.970   4.251   1.951  0.1966 -0.2227  0.1885
 6231TIP3    H140328   2.938   4.292   1.871  3.3875  0.3619 -0.9363
 6231TIP3    H240329   3.034   4.313   1.986 -0.0744 -1.1184  2.4138
 6232TIP3   OH240330   0.185   6.732   0.402 -0.4544 -0.0721 -0.1883
 6232TIP3    H140331   0.173   6.640   0.426  2.4353 -0.3907  0.3061
 6232TIP3    H240332   0.167   6.735   0.309 -0.2638 -1.2193 -0.2793
 6233TIP3   OH240333   0.836   3.299   1.273 -0.2100  0.7510 -0.7712
 6233TIP3    H140334   0.744   3.314   1.251 -0.0438  0.6503 -1.5993
 6233TIP3    H240335   0.835   3.242   1.350 -0.8557 -0.5936 -1.7381
 6234TIP3   OH240336   2.111   2.334   7.375 -0.5346 -0.0211 -0.3012
 6234TIP3    H140337   2.046   2.364   7.439 -1.8449  0.2844 -1.7192
 6234TIP3    H240338   2.079   2.247   7.349 -1.5188  0.9036 -2.4190
 6235TIP3   OH240339   6.966   4.433   7.977 -0.5085  0.0161  0.3498
 6235TIP3    H140340   6.980   4.464   8.067  0.0721  0.8827 -0.0231
 6235TIP3    H240341   7.054   4.412   7.945 -0.6508  0.2383 -0.1942
 6236TIP3   OH240342   2.164   3.856   1.883  0.1851 -0.1340 -0.5999
 6236TIP3    H140343   2.220   3.824   1.954 -0.4617 -2.7387 -1.1427
 6236TIP3    H240344   2.220   3.852   1.805  0.2259  0.5636 -0.6142
 6237TIP3   OH240345   5.825   4.216   2.719 -0.4299  0.5305 -0.0330
 6237TIP3    H140346   5.807   4.167   2.639 -2.2513  0.0793  0.6094
 6237TIP3    H240347   5.779   4.168   2.788  1.8625  0.3546  1.5004
 6238TIP3   OH240348   6.143   6.229   7.333 -0.7018  0.4354  0.1453
 6238TIP3    H140349   6.099   6.194   7.410 -0.0878  0.2204  0.4101
 6238TIP3    H240350   6.123   6.323   7.334  0.2023  0.6423  1.2054
 6239TIP3   OH240351   3.543   1.726   1.045 -0.1782  0.3436  0.2472
 6239TIP3    H140352   3.476   1.706   1.110  0.0399 -0.9127  0.1041
 6239TIP3    H240353   3.584   1.806   1.077 -0.5596  0.1442  1.2733
 6240TIP3   OH240354   0.792   0.407   1.036 -0.3318 -0.1811  0.5185
 6240TIP3    H140355   0.778   0.406   0.941 -1.4539  0.1539  0.6677
 6240TIP3    H240356   0.719   0.458   1.071  0.4983  0.3707  1.5066
 6241TIP3   OH240357   0.604   5.542   1.638  0.3394  0.0567  0.3946
 6241TIP3    H140358   0.563   5.456   1.625 -0.3959  0.2473  1.3424
 6241TIP3    H240359   0.532   5.604   1.632  0.8552  0.6014 -0.1638
 6242TIP3   OH240360   0.949   3.850   2.547 -0.0465 -1.0525  0.3840
 6242TIP3    H140361   0.919   3.940   2.560  0.2460 -0.7362 -0.9920
 6242TIP3    H240362   0.877   3.796   2.580 -0.0085 -0.3399  1.7014
 6243TIP3   OH240363   0.128   0.154   7.842 -0.2305 -0.7035  0.0562
 6243TIP3    H140364   0.060   0.111   7.895 -1.5438  0.0576 -0.9585
 6243TIP3    H240365   0.122   0.110   7.757 -0.8319  0.6996 -0.6487
 6244TIP3   OH240366   1.334   1.089   2.240 -0.1814 -0.9850 -0.0652
 6244TIP3    H140367   1.419   1.063   2.275  0.7806 -0.6655 -1.9908
 6244TIP3    H240368   1.278   1.101   2.317  1.3375 -1.7735  1.2161
 6245TIP3   OH240369   5.707   6.026   0.880  0.1061 -0.1590 -0.1859
 6245TIP3    H140370   5.658   5.957   0.926  0.6067 -0.4988 -0.1568
 6245TIP3    H240371   5.693   6.008   0.787 -0.9034  0.5263 -0.1857
 6246TIP3   OH240372   4.256   2.560   2.158 -0.5102  0.1804  1.0639
 6246TIP3    H140373   4.339   2.527   2.191 -1.3283 -0.7527  2.3066
 6246TIP3    H240374   4.279   2.618   2.086  1.0984 -1.9630 -0.2509
 6247TIP3   OH240375   5.851   1.493   1.591  0.1523  0.1247 -0.3864
 6247TIP3    H140376   5.815   1.491   1.679  0.2195  2.1305 -0.2744
 6247TIP3    H240377   5.922   1.428   1.593 -1.8430 -2.1863  0.0485
 6248TIP3   OH240378   3.992   6.983   2.656 -0.1986  0.1642 -0.2030
 6248TIP3    H140379   4.065   7.038   2.685  0.0992  1.4707 -3.0665
 6248TIP3    H240380   3.915   7.021   2.697  0.4495  0.2480  0.9732
 6249TIP3   OH240381   2.668   1.495   2.345 -0.1839 -0.1644  0.6667
 6249TIP3    H140382   2.727   1.438   2.394  0.4825 -0.4397 -0.4068
 6249TIP3    H240383   2.691   1.479   2.253 -1.5157  0.1913  0.2540
 6250TIP3   OH240384   0.879   1.513   0.723 -0.4141 -0.2184 -0.2533
 6250TIP3    H140385   0.789   1.508   0.755 -0.4316  0.0884 -0.2501
 6250TIP3    H240386   0.915   1.427   0.740 -0.7489 -0.3853 -0.3696
 6251TIP3   OH240387   0.874   1.449   2.461 -0.1292  0.2430  0.3353
 6251TIP3    H140388   0.907   1.487   2.543  3.8424 -3.4869  0.8176
 6251TIP3    H240389   0.920   1.497   2.392 -0.8579  1.0982  0.4190
 6252TIP3   OH240390   3.647   5.326   1.357  0.0881 -0.3349  0.0071
 6252TIP3    H140391   3.575   5.264   1.360 -2.1922  2.1505  1.3874
 6252TIP3    H240392   3.653   5.351   1.264 -0.5735 -0.8825 -0.1900
 6253TIP3   OH240393   5.677   4.932   0.392  0.0993 -0.1248  0.0782
 6253TIP3    H140394   5.728   4.852   0.383  0.1858 -0.0159 -0.4467
 6253TIP3    H240395   5.736   4.994   0.436 -0.3838 -0.7166  1.6472
 6254TIP3   OH240396   2.464   6.204   0.917 -0.0502 -0.3580 -0.3158
 6254TIP3    H140397   2.500   6.160   0.840 -0.4245 -1.8534  0.3332
 6254TIP3    H240398   2.403   6.141   0.955 -0.8217  0.8375  0.5087
 6255TIP3   OH240399   4.590   5.294   2.931 -0.1956 -0.0745 -0.3299
 6255TIP3    H140400   4.661   5.263   2.875 -0.1348 -0.5569  0.0101
 6255TIP3    H240401   4.631   5.309   3.016 -0.7208 -1.5580  0.2230
 6256TIP3   OH240402   4.987   1.641   2.319 -0.1240 -0.5001 -0.7194
 6256TIP3    H140403   4.949   1.701   2.383 -1.4795 -0.7277 -1.2853
 6256TIP3    H240404   5.077   1.673   2.308 -0.0245 -0.1387  0.8745
 6257TIP3   OH240405   0.369   3.584   8.387 -0.4825 -0.4247 -0.5688
 6257TIP3    H140406   0.435   3.553   8.324  0.1540  2.6514 -1.6213
 6257TIP3    H240407   0.286   3.552   8.353  0.2849 -3.9197  0.4706
 6258TIP3   OH240408   1.425   1.584   6.856  0.1703  0.3158  0.0348
 6258TIP3    H140409   1.344   1.570   6.807  1.3965 -0.2713 -1.9871
 6258TIP3    H240410   1.414   1.536   6.937 -0.8866 -1.1407 -0.9287
 6259TIP3   OH240411   0.291   6.558   1.296  0.0305 -0.0058  0.0054
 6259TIP3    H140412   0.278   6.618   1.222  1.0427 -0.1968 -0.3538
 6259TIP3    H240413   0.374   6.587   1.336 -0.6317  0.2602  1.2364
 6260TIP3   OH240414   5.093   0.801   7.665  0.2587  0.1390  0.5352
 6260TIP3    H140415   5.185   0.810   7.640  0.2509 -1.4447 -0.1642
 6260TIP3    H240416   5.046   0.789   7.582 -0.6955  1.5644  0.8242
 6261TIP3   OH240417   2.212   5.270   1.398  0.2496  0.1784  0.0722
 6261TIP3    H140418   2.224   5.239   1.487 -0.4544 -1.3254 -0.3200
 6261TIP3    H240419   2.300   5.294   1.369  0.5513  0.2305  0.9974
 6262TIP3   OH240420   5.661   4.038   0.211 -0.0819 -0.1219  0.4653
 6262TIP3    H140421   5.582   4.018   0.262 -1.2380 -0.2909 -1.2797
 6262TIP3    H240422   5.663   3.969   0.144  0.7668  0.6831 -0.3630
 6263TIP3   OH240423   0.482   6.099   7.215  0.6562 -0.3798 -0.2390
 6263TIP3    H140424   0.472   6.160   7.142 -2.1492 -0.2353  0.1540
 6263TIP3    H240425   0.556   6.044   7.190  1.0149  0.8985 -2.2584
 6264TIP3   OH240426   5.211   3.573   1.464 -0.8428  0.0431  0.3345
 6264TIP3    H140427   5.174   3.528   1.387 -0.6641  0.1376  0.1932
 6264TIP3    H240428   5.296   3.606   1.434 -1.4217  1.3959  0.1072
 6265TIP3   OH240429   4.145   1.169   7.893 -0.3057  0.6268 -0.5496
 6265TIP3    H140430   4.065   1.121   7.870  1.5882 -3.0649 -0.2138
 6265TIP3    H240431   4.188   1.186   7.809 -0.4045  0.5618 -0.6135
 6266TIP3   OH240432   0.066   1.028   1.505  0.8014  0.0428  0.0514
 6266TIP3    H140433   0.041   1.054   1.593 -0.6060  0.5001 -0.4508
 6266TIP3    H240434   0.097   0.938   1.515 -0.5633 -0.3717  0.8457
 6267TIP3   OH240435   6.411   5.053   7.341 -0.6828 -0.2980 -0.0563
 6267TIP3    H140436   6.361   5.076   7.263  0.9224 -2.6848 -1.9523
 6267TIP3    H240437   6.488   5.110   7.338 -0.6156 -0.3971 -0.2386
 6268TIP3   OH240438   1.208   4.674   1.265  0.5358 -0.1473  0.1003
 6268TIP3    H140439   1.224   4.583   1.239  3.2551  0.4312 -0.5300
 6268TIP3    H240440   1.203   4.671   1.361  2.7667 -0.7329  0.2359
 6269TIP3   OH240441   6.712   6.673   7.034  0.1056 -0.3739 -0.4929
 6269TIP3    H140442   6.747   6.759   7.058 -0.3241 -0.2687 -0.2251
 6269TIP3    H240443   6.786   6.613   7.044  0.1803 -0.1787  0.1907
 6270TIP3   OH240444   3.578   0.755   7.914 -0.5088  0.1874 -0.0496
 6270TIP3    H140445   3.523   0.818   7.866 -1.8054  0.4378  1.6714
 6270TIP3    H240446   3.617   0.701   7.845 -2.6051  0.2563 -1.3972
 6271TIP3   OH240447   1.851   1.635   7.294  0.4058 -0.4760  0.3062
 6271TIP3    H140448   1.843   1.708   7.232  1.3668 -0.1037  0.6104
 6271TIP3    H240449   1.890   1.564   7.242  1.1676 -0.1793  0.4681
 6272TIP3   OH240450   3.859   4.402   0.037 -0.1729  0.3779  0.4067
 6272TIP3    H140451   3.903   4.429   0.118 -0.8794  0.8915  0.6313
 6272TIP3    H240452   3.902   4.320   0.012 -0.3120 -0.0747  1.6009
 6273TIP3   OH240453   0.586   2.547   0.613  0.1095  0.4005 -0.3618
 6273TIP3    H140454   0.519   2.593   0.562  1.3816  0.3590 -2.1635
 6273TIP3    H240455   0.662   2.541   0.554  1.2842 -0.6515  1.1625
 6274TIP3   OH240456   6.482   1.697   0.189  0.3892  0.2030  0.3735
 6274TIP3    H140457   6.392   1.712   0.216 -0.1840 -2.2103 -0.0206
 6274TIP3    H240458   6.491   1.748   0.108 -1.0846 -0.6192 -0.3430
 6275TIP3   OH240459   3.844   2.372   0.965  0.4185 -0.6236  0.3229
 6275TIP3    H140460   3.819   2.458   0.999  0.4537 -0.6971  0.5392
 6275TIP3    H240461   3.849   2.383   0.871  0.6421 -0.3324  0.3692
 6276TIP3   OH240462   4.694   6.589   0.204 -0.1970 -0.4218  0.0019
 6276TIP3    H140463   4.723   6.642   0.130 -1.9078 -0.8491 -1.0360
 6276TIP3    H240464   4.729   6.501   0.185  1.5150 -0.0160  1.0488
 6277TIP3   OH240465   0.053   3.739   7.326  0.0636 -0.0867  0.4029
 6277TIP3    H140466   0.014   3.675   7.267 -2.2168  0.4515  1.2479
 6277TIP3    H240467  -0.009   3.747   7.398  1.7942  0.7980  1.8709
 6278TIP3   OH240468   2.496   1.407   0.887 -0.0703  0.0232  0.1943
 6278TIP3    H140469   2.549   1.353   0.947 -0.4535 -0.1489  0.3811
 6278TIP3    H240470   2.463   1.478   0.942  0.8804  0.7730 -0.1692
 6279TIP3   OH240471   3.523   6.143   3.128  0.0636  0.2578 -0.1683
 6279TIP3    H140472   3.586   6.076   3.156  1.0860  0.9927 -0.6239
 6279TIP3    H240473   3.444   6.095   3.107  0.9890 -0.9035 -1.1335
 6280TIP3   OH240474   6.269   5.995   8.164 -0.1625 -0.0790  0.0343
 6280TIP3    H140475   6.280   5.971   8.072  1.3241 -1.0635  0.4312
 6280TIP3    H240476   6.303   6.084   8.170  0.4295 -0.2839 -0.2317
 6281TIP3   OH240477   3.400   2.464   2.007 -0.7182 -0.3861  0.3681
 6281TIP3    H140478   3.468   2.532   2.006  0.8212 -1.8083 -1.4852
 6281TIP3    H240479   3.319   2.510   1.985  0.2922  0.8779 -0.9267
 6282TIP3   OH240480   2.901   4.544   1.573 -0.1300 -0.0247 -0.1121
 6282TIP3    H140481   2.829   4.606   1.561  0.8059  0.9357 -0.9737
 6282TIP3    H240482   2.957   4.557   1.496  2.0907  0.7910  1.5400
 6283TIP3   OH240483   6.872   3.534   2.768  0.2439 -0.0894 -0.8916
 6283TIP3    H140484   6.928   3.455   2.770  2.0046  1.0977  1.6768
 6283TIP3    H240485   6.909   3.587   2.697  1.2717 -0.1008 -0.3821
 6284TIP3   OH240486   4.316   3.770   8.342 -0.4090  0.1992  0.5914
 6284TIP3    H140487   4.238   3.825   8.331 -0.5501 -0.1371 -0.2057
 6284TIP3    H240488   4.389   3.828   8.322 -0.6108 -0.1228 -1.2996
 6285TIP3   OH240489   2.971   6.417   8.227  0.2803 -0.5851  0.2828
 6285TIP3    H140490   2.886   6.456   8.250  0.7992  1.0089 -0.3656
 6285TIP3    H240491   2.996   6.366   8.304  1.2234  3.2777  2.7831
 6286TIP3   OH240492   4.740   2.577   1.647 -0.0140  0.1961 -0.0358
 6286TIP3    H140493   4.730   2.659   1.696 -0.6179  0.2955 -0.3129
 6286TIP3    H240494   4.824   2.586   1.602  0.8875 -0.1948  1.5157
 6287TIP3   OH240495   3.965   3.113   1.374 -0.5770  0.3136 -0.0401
 6287TIP3    H140496   3.876   3.146   1.367 -0.7580 -0.3159 -0.9681
 6287TIP3    H240497   4.021   3.190   1.366 -1.0037  0.4965 -1.3897
 6288TIP3   OH240498   2.488   5.686   2.001  0.0655 -0.1765 -0.5080
 6288TIP3    H140499   2.478   5.602   1.957 -1.5114 -0.7779  0.8749
 6288TIP3    H240500   2.428   5.745   1.955  0.9478  0.1329 -1.2863
 6289TIP3   OH240501   4.467   4.433   1.172 -0.8413  0.0089 -0.3507
 6289TIP3    H140502   4.438   4.450   1.262 -0.1072 -0.9418  0.0889
 6289TIP3    H240503   4.541   4.372   1.182  1.4036  2.3740 -1.3948
 6290TIP3   OH240504   4.849   2.867   0.820 -0.7802 -0.3334 -0.0797
 6290TIP3    H140505   4.844   2.777   0.788 -0.6611 -0.3417 -0.0748
 6290TIP3    H240506   4.820   2.863   0.911 -1.6101 -0.2309 -0.3307
 6291TIP3   OH240507   6.845   1.254   1.691 -0.8924  0.2802 -0.1822
 6291TIP3    H140508   6.753   1.266   1.665 -1.4475  1.5808  2.1077
 6291TIP3    H240509   6.840   1.213   1.777  0.7945 -2.2273 -1.1712
 6292TIP3   OH240510   4.832   1.032   0.652  0.5932  0.1890 -0.6693
 6292TIP3    H140511   4.740   1.013   0.671  0.8220 -1.0600 -0.7233
 6292TIP3    H240512   4.846   1.119   0.687 -0.7310  0.5832 -1.0468
 6293TIP3   OH240513   1.266   4.226   1.937  0.1317 -0.6975 -0.0594
 6293TIP3    H140514   1.216   4.273   1.871 -0.2603 -0.8597  0.1184
 6293TIP3    H240515   1.203   4.165   1.977  0.5591 -1.1767 -0.0981
 6294TIP3   OH240516   5.493   0.837   1.226 -0.2711  0.3266 -0.6633
 6294TIP3    H140517   5.416   0.892   1.211  0.2428  1.0969 -0.5480
 6294TIP3    H240518   5.515   0.851   1.318 -0.8953 -1.0863 -0.2654
 6295TIP3   OH240519   2.246   1.367   1.683  0.5361 -0.2103 -0.1592
 6295TIP3    H140520   2.189   1.334   1.613 -0.6022  0.1488  0.5727
 6295TIP3    H240521   2.189   1.371   1.760  1.6523 -0.1577  0.6783
 6296TIP3   OH240522   1.064   6.791   0.269 -0.0119  0.0329  0.3867
 6296TIP3    H140523   1.047   6.826   0.181 -0.9454 -0.0081  0.5458
 6296TIP3    H240524   1.009   6.843   0.327  0.2716 -0.2295  0.8987
 6297TIP3   OH240525   0.390   0.788   2.602 -0.6468  0.0474 -0.4064
 6297TIP3    H140526   0.432   0.871   2.578 -0.8818 -0.2585 -1.9549
 6297TIP3    H240527   0.298   0.799   2.576 -0.8591 -0.4116  0.1287
 6298TIP3   OH240528   2.097   0.765   7.607 -0.2660 -0.2616 -0.5003
 6298TIP3    H140529   2.105   0.698   7.539 -0.6603 -0.7676 -0.0656
 6298TIP3    H240530   2.042   0.832   7.569  0.3941 -0.0257 -1.0587
 6299TIP3   OH240531   0.736   3.741   1.205  0.5202  0.1627 -0.4389
 6299TIP3    H140532   0.700   3.674   1.264  2.2455 -0.6275 -0.2261
 6299TIP3    H240533   0.728   3.823   1.254  1.0560 -0.3437  0.5308
 6300TIP3   OH240534   1.270   6.048   1.959  0.1777 -0.2981  0.0444
 6300TIP3    H140535   1.240   6.124   1.909 -1.7662 -1.0292  0.0263
 6300TIP3    H240536   1.307   5.989   1.892  1.7025  0.5787  0.0600
 6301TIP3   OH240537   6.774   4.286   1.219 -0.0049 -0.2015 -0.8855
 6301TIP3    H140538   6.702   4.227   1.243  0.7391 -0.3567  1.1589
 6301TIP3    H240539   6.841   4.229   1.181 -0.3159 -0.2737 -1.3368
 6302TIP3   OH240540   3.213   2.033   2.041 -0.1568  0.1527 -0.1129
 6302TIP3    H140541   3.282   1.970   2.062 -0.7512 -1.2324 -1.9688
 6302TIP3    H240542   3.257   2.100   1.988 -0.4818 -1.8724 -3.1971
 6303TIP3   OH240543   4.811   3.757   2.911 -0.2215  0.0065  0.3990
 6303TIP3    H140544   4.791   3.801   2.994 -1.3074  0.3420 -0.0376
 6303TIP3    H240545   4.769   3.672   2.918  0.2241 -0.2135  0.4425
 6304TIP3   OH240546   4.581   2.613   0.372 -0.0775 -0.1367  0.1286
 6304TIP3    H140547   4.676   2.620   0.361 -0.1009  0.0004  0.0170
 6304TIP3    H240548   4.565   2.518   0.374  0.0247 -0.1622 -0.1796
 6305TIP3   OH240549   2.261   2.220   8.231 -0.0087  0.1050  0.1844
 6305TIP3    H140550   2.178   2.204   8.185  1.3572 -1.5158 -1.9293
 6305TIP3    H240551   2.301   2.292   8.183  0.5821 -0.3081  0.0513
 6306TIP3   OH240552   4.350   2.969   2.101  0.2378 -0.3761 -0.3109
 6306TIP3    H140553   4.258   2.994   2.111  0.2955  0.2127 -1.1202
 6306TIP3    H240554   4.399   3.050   2.118  0.6097 -0.6871  0.1275
 6307TIP3   OH240555   4.521   5.618   0.289  0.1256  0.2705  0.4132
 6307TIP3    H140556   4.503   5.598   0.196 -1.8747 -1.0314  1.0010
 6307TIP3    H240557   4.453   5.682   0.313  1.5749  1.7787  0.6323
 6308TIP3   OH240558   3.398   3.436   2.902  0.1520  0.1224  0.1735
 6308TIP3    H140559   3.359   3.354   2.870 -0.6428  0.0516  1.2879
 6308TIP3    H240560   3.325   3.485   2.939  0.8493  0.7321  0.7792
 6309TIP3   OH240561   1.406   5.863   7.814 -0.3402 -0.1047 -0.3750
 6309TIP3    H140562   1.499   5.839   7.816 -0.4378 -0.4882  1.4660
 6309TIP3    H240563   1.372   5.823   7.734  0.7157 -1.4519 -0.1821
 6310TIP3   OH240564   2.327   0.983   8.010  0.0101  0.1708 -0.3229
 6310TIP3    H140565   2.321   0.937   7.927  2.9772 -1.3703  0.1753
 6310TIP3    H240566   2.304   0.917   8.076 -1.7000  1.1984  0.1644
 6311TIP3   OH240567   0.657   6.032   0.078  0.0342 -0.3298 -0.0646
 6311TIP3    H140568   0.742   5.997   0.052  0.9032  1.3555  0.3647
 6311TIP3    H240569   0.649   6.114   0.030 -1.3740 -0.4619 -0.0967
 6312TIP3   OH240570   6.309   3.275   2.775 -0.0510  0.1082  0.0377
 6312TIP3    H140571   6.320   3.351   2.718 -0.6488  1.4409  1.6103
 6312TIP3    H240572   6.388   3.222   2.761 -0.0807  0.4980 -1.8036
 6313TIP3   OH240573   6.723   1.923   7.185 -0.2045  0.6823 -0.4393
 6313TIP3    H140574   6.632   1.931   7.213 -0.6211 -0.6224 -1.3313
 6313TIP3    H240575   6.728   1.974   7.104 -0.0878  0.9292 -0.2766
 6314TIP3   OH240576   5.206   3.817   7.857  0.3475 -0.2752 -0.2666
 6314TIP3    H140577   5.295   3.844   7.881  0.9739 -1.7673 -0.8234
 6314TIP3    H240578   5.218   3.740   7.802 -1.3352 -0.8861  0.1668
 6315TIP3   OH240579   0.447   6.047   0.938 -0.9517 -0.2145 -0.2123
 6315TIP3    H140580   0.437   5.986   1.012  1.6206 -2.9939 -1.9276
 6315TIP3    H240581   0.516   6.008   0.885 -1.8465  2.3038 -3.4981
 6316TIP3   OH240582   6.709   2.828   2.113  0.4169  0.0425 -0.1440
 6316TIP3    H140583   6.671   2.914   2.128  1.6666  0.8140 -1.2125
 6316TIP3    H240584   6.708   2.786   2.199 -1.7526  0.4312  0.0964
 6317TIP3   OH240585   0.015   2.176   2.254  0.4436 -0.3870 -0.0759
 6317TIP3    H140586   0.108   2.165   2.235  0.1429 -2.3780 -0.6516
 6317TIP3    H240587  -0.025   2.188   2.168  0.0900 -0.2754  0.1032
 6318TIP3   OH240588   5.688   0.251   7.602  0.3100 -0.8130  0.1980
 6318TIP3    H140589   5.636   0.264   7.523  0.1732 -1.4421  0.1750
 6318TIP3    H240590   5.759   0.193   7.575  0.0730 -1.3075  0.6064
 6319TIP3   OH240591   4.496   1.271   0.006 -0.5524  0.2889 -0.6870
 6319TIP3    H140592   4.493   1.275   0.101 -0.7132 -0.4871 -0.6568
 6319TIP3    H240593   4.514   1.361  -0.021  1.1397  0.2345  0.1333
 6320TIP3   OH240594   0.140   5.739   7.805 -0.2761 -0.1799 -0.3974
 6320TIP3    H140595   0.053   5.757   7.770  0.2887  0.7551 -1.3602
 6320TIP3    H240596   0.123   5.700   7.891 -1.6621  3.0539  0.9661
 6321TIP3   OH240597   6.492   1.412   3.174 -0.6394 -0.0942  0.5833
 6321TIP3    H140598   6.477   1.406   3.080 -0.4651  0.0400  0.5460
 6321TIP3    H240599   6.413   1.452   3.209 -0.6945 -0.1210  0.4904
 6322TIP3   OH240600   0.649   0.841   1.714 -0.0409  0.2283  0.2418
 6322TIP3    H140601   0.556   0.817   1.710 -0.5224  2.0532 -2.8055
 6322TIP3    H240602   0.649   0.937   1.714  1.8069  0.2920 -1.5308
 6323TIP3   OH240603   6.145   2.241   7.547 -0.7805 -0.1069 -0.1938
 6323TIP3    H140604   6.219   2.184   7.567 -1.9634 -1.3090  1.0180
 6323TIP3    H240605   6.150   2.255   7.452  2.1915  1.6686  0.1338
 6324TIP3   OH240606   1.573   1.945   2.993 -0.1496 -0.3139  0.0760
 6324TIP3    H140607   1.593   1.859   2.956  0.6352  0.0306 -0.3339
 6324TIP3    H240608   1.542   1.996   2.918 -0.0495 -0.0700  0.1993
 6325TIP3   OH240609   1.548   6.815   1.650 -0.1001  0.0074  0.1803
 6325TIP3    H140610   1.641   6.791   1.652 -0.0399  0.2202  0.0284
 6325TIP3    H240611   1.514   6.772   1.571 -0.1085  0.0084  0.1836
 6326TIP3   OH240612   2.951   3.179   0.610  0.6244 -0.1557  0.1184
 6326TIP3    H140613   3.028   3.233   0.593 -1.0099  1.6424 -2.2315
 6326TIP3    H240614   2.953   3.163   0.704  2.1757  2.5094  0.6358
 6327TIP3   OH240615   2.222   3.967   0.657 -0.3585 -0.2456 -0.8262
 6327TIP3    H140616   2.134   3.998   0.678 -0.6280 -1.4529 -0.0563
 6327TIP3    H240617   2.279   4.040   0.680 -1.2035  0.9275 -2.2525
 6328TIP3   OH240618   4.492   1.842   1.977 -0.0955  0.0514  0.6837
 6328TIP3    H140619   4.537   1.794   2.046  0.6637 -1.7847 -1.0038
 6328TIP3    H240620   4.428   1.780   1.942 -0.6163  1.0150 -0.1244
 6329TIP3   OH240621   3.836   0.818   0.564  0.1813  0.5689  0.2299
 6329TIP3    H140622   3.820   0.866   0.483 -0.9480  0.6581  0.4943
 6329TIP3    H240623   3.913   0.862   0.602  0.8712  0.3658 -0.8939
 6330TIP3   OH240624   3.765   0.074   0.417 -0.6937  0.3541  0.0788
 6330TIP3    H140625   3.849   0.030   0.428 -0.8177  0.3212  0.9946
 6330TIP3    H240626   3.711   0.010   0.371 -0.2046  0.3978 -0.5648
 6331TIP3   OH240627   1.289   1.000   2.911 -0.2310 -0.1368 -0.0800
 6331TIP3    H140628   1.284   0.962   2.823  1.8211  0.8218 -0.6567
 6331TIP3    H240629   1.235   1.079   2.907 -1.0769 -0.7024 -0.1113
 6332TIP3   OH240630   2.379   6.720   1.457 -0.0604 -0.4173  0.0489
 6332TIP3    H140631   2.405   6.641   1.504  2.6071  0.3679  0.0466
 6332TIP3    H240632   2.395   6.792   1.519  1.4365  0.4348 -1.2485
 6333TIP3   OH240633   5.087   6.650   1.311 -0.3559  0.2384 -0.1575
 6333TIP3    H140634   5.140   6.599   1.250  0.2361  0.4219  0.1980
 6333TIP3    H240635   5.135   6.732   1.322  0.3968 -0.3927  1.7705
 6334TIP3   OH240636   5.136   0.427   0.088  0.5177 -0.5522 -0.6438
 6334TIP3    H140637   5.224   0.440   0.053  1.4572  0.8433  1.9799
 6334TIP3    H240638   5.148   0.366   0.161 -0.2297  1.2265  1.0822
 6335TIP3   OH240639   5.146   2.041   2.477  0.4444  0.4212 -0.3836
 6335TIP3    H140640   5.078   2.044   2.410  0.0656  1.5301  0.0291
 6335TIP3    H240641   5.106   2.083   2.554  2.1138  2.6296 -0.6301
 6336TIP3   OH240642   1.796   1.403   8.104  0.2378  0.0636  0.0829
 6336TIP3    H140643   1.798   1.416   8.010  0.4203  0.9475  0.2023
 6336TIP3    H240644   1.705   1.419   8.129  0.1053 -0.5485  0.0139
 6337TIP3   OH240645   2.557   1.712   8.343  0.5265  0.0326  0.1883
 6337TIP3    H140646   2.561   1.702   8.248  2.7807 -0.4063  0.2607
 6337TIP3    H240647   2.605   1.637   8.378  0.9839  0.9215  1.5971
 6338TIP3   OH240648   5.550   4.139   1.776  0.4491 -0.0813  0.1085
 6338TIP3    H140649   5.542   4.043   1.773 -1.7886  0.0292  0.6314
 6338TIP3    H240650   5.563   4.159   1.868 -1.0997  0.1925  0.2893
 6339TIP3   OH240651   6.958   3.279   1.163  0.1991 -0.6727  0.0908
 6339TIP3    H140652   7.032   3.282   1.102  0.6091  0.0063  0.6062
 6339TIP3    H240653   6.987   3.218   1.231  0.0566 -0.8404 -0.0003
 6340TIP3   OH240654   6.340   2.587   3.144  0.1733 -0.0592  0.4700
 6340TIP3    H140655   6.298   2.585   3.058  2.4298  0.1982 -0.7201
 6340TIP3    H240656   6.350   2.680   3.164  0.1062 -0.1172  0.7785
 6341TIP3   OH240657   6.533   5.204   6.877  0.4271 -0.0884  0.3600
 6341TIP3    H140658   6.494   5.126   6.918  0.3956  0.6529  1.8041
 6341TIP3    H240659   6.460   5.247   6.834  0.2518 -0.3455  0.3970
 6342TIP3   OH240660   3.138   6.117   0.759 -0.5286  0.2896 -0.4876
 6342TIP3    H140661   3.161   6.048   0.820 -1.0621 -0.7393 -1.4196
 6342TIP3    H240662   3.067   6.165   0.801 -0.0748  0.3662  0.2117
 6343TIP3   OH240663   2.681   3.242   8.183  0.2990  0.2635 -0.1111
 6343TIP3    H140664   2.728   3.161   8.205 -1.4708 -0.4417  1.4036
 6343TIP3    H240665   2.739   3.312   8.210  1.3394 -0.5216 -0.2477
 6344TIP3   OH240666   6.329   6.237   7.822  0.6362 -0.2997 -0.3891
 6344TIP3    H140667   6.258   6.174   7.834  0.2173  0.2976  0.2939
 6344TIP3    H240668   6.291   6.307   7.770  0.7404  0.0079 -0.0474
 6345TIP3   OH240669   2.884   0.599   1.095  0.0525  0.5417 -0.3228
 6345TIP3    H140670   2.926   0.609   1.010  2.0626 -1.3816  0.3632
 6345TIP3    H240671   2.952   0.619   1.159 -0.9499  0.3750  0.8503
 6346TIP3   OH240672   0.225   2.761   2.884  0.2783  0.2413  0.6287
 6346TIP3    H140673   0.132   2.751   2.866  0.3454 -0.1522  0.4826
 6346TIP3    H240674   0.238   2.719   2.969  0.5659 -1.0146  0.0010
 6347TIP3   OH240675   3.267   3.582   1.065 -0.0809 -0.6471  0.4572
 6347TIP3    H140676   3.273   3.502   1.118  3.5406  0.1199  1.4466
 6347TIP3    H240677   3.223   3.645   1.122  2.9420 -0.1048  2.3882
 6348TIP3   OH240678   5.178   2.278   2.791 -0.4666  0.4933  0.0853
 6348TIP3    H140679   5.259   2.255   2.744  0.2740  0.1955  1.4648
 6348TIP3    H240680   5.128   2.197   2.795 -0.7188  0.6129 -0.5233
 6349TIP3   OH240681   6.230   1.600   0.983  0.4194  0.0293  0.6869
 6349TIP3    H140682   6.136   1.608   0.993  0.4425 -0.3056  1.2430
 6349TIP3    H240683   6.242   1.558   0.898  0.0015 -1.1636  1.1970
 6350TIP3   OH240684   2.722   3.098   1.638  0.1005 -0.0073 -0.5842
 6350TIP3    H140685   2.698   3.069   1.550 -1.1447  1.5251 -0.8092
 6350TIP3    H240686   2.817   3.088   1.642  0.0015 -1.6736 -1.4806
 6351TIP3   OH240687   1.607   3.907   3.352 -0.4655  0.3147 -0.6981
 6351TIP3    H140688   1.598   3.994   3.313  0.7023  0.7290 -0.0866
 6351TIP3    H240689   1.568   3.916   3.439 -2.4573 -0.4310 -1.4511
 6352TIP3   OH240690   1.394   1.369   2.725  0.3567  0.8087 -0.0378
 6352TIP3    H140691   1.437   1.418   2.795  0.0455 -0.2684  0.9128
 6352TIP3    H240692   1.465   1.322   2.682  0.6887  2.1882 -1.0796
 6353TIP3   OH240693   6.898   6.681   7.567 -0.4166 -0.4304  0.1492
 6353TIP3    H140694   6.928   6.671   7.477 -1.0901  1.3705 -0.3331
 6353TIP3    H240695   6.978   6.694   7.618 -0.0274 -1.5297 -0.1592
 6354TIP3   OH240696   3.002   3.483   2.646 -0.1639 -0.2542 -0.6745
 6354TIP3    H140697   3.026   3.557   2.591  1.0737  1.6030  2.1281
 6354TIP3    H240698   2.914   3.505   2.678 -0.2048 -0.4895 -0.6223
 6355TIP3   OH240699   3.341   5.046   1.633 -0.1733  0.1998  0.1621
 6355TIP3    H140700   3.367   5.044   1.725  0.7741 -2.5512 -0.0851
 6355TIP3    H240701   3.255   5.002   1.632 -0.6846  1.1810 -0.1607
 6356TIP3   OH240702   1.020   5.536   1.909  1.2239 -0.7758  0.4421
 6356TIP3    H140703   1.014   5.538   1.814  1.0964  1.5547  0.4319
 6356TIP3    H240704   0.978   5.454   1.934 -2.0309  0.1637 -1.3598
 6357TIP3   OH240705   3.247   0.484   2.299 -0.5375  0.3993 -0.3329
 6357TIP3    H140706   3.322   0.428   2.318 -0.6100  0.4122  0.0157
 6357TIP3    H240707   3.285   0.567   2.273 -0.4292  0.2005 -0.8078
 6358TIP3   OH240708   3.514   2.127   0.150  0.0392 -0.2313 -0.7132
 6358TIP3    H140709   3.540   2.194   0.214  1.2221 -0.7589 -0.6096
 6358TIP3    H240710   3.571   2.144   0.075  2.0760 -2.5121  0.1761
 6359TIP3   OH240711   5.901   5.593   0.570  0.1665 -1.0473  0.0162
 6359TIP3    H140712   5.959   5.522   0.598 -0.7649 -1.7856  0.1212
 6359TIP3    H240713   5.831   5.549   0.522  0.2790 -0.0642 -1.1085
 6360TIP3   OH240714   2.646   1.786   2.364 -0.4207  0.4567 -0.0335
 6360TIP3    H140715   2.658   1.691   2.355  0.7468  0.6503 -0.7388
 6360TIP3    H240716   2.636   1.800   2.458  2.7647 -0.0472  0.5014
 6361TIP3   OH240717   4.945   4.407   1.013  0.0638 -0.3013  0.0544
 6361TIP3    H140718   4.901   4.459   1.080 -1.4560 -1.4901  0.0331
 6361TIP3    H240719   4.893   4.327   1.006  0.9459 -0.7838 -1.6176
 6362TIP3   OH240720   5.032   2.610   1.629  0.3860  0.0644  0.2731
 6362TIP3    H140721   5.120   2.610   1.668 -0.2998  0.5444  1.9252
 6362TIP3    H240722   5.029   2.690   1.577  1.1460 -0.3121 -0.3768
 6363TIP3   OH240723   3.836   1.769   2.649 -0.2790 -0.6992  0.1558
 6363TIP3    H140724   3.752   1.736   2.618 -0.6310 -0.4371  0.8306
 6363TIP3    H240725   3.816   1.849   2.697  0.3605 -0.5951  0.2664
 6364TIP3   OH240726   4.803   1.561   0.485  0.2981  0.4614  0.5246
 6364TIP3    H140727   4.716   1.521   0.491 -0.4154  2.0064  0.9814
 6364TIP3    H240728   4.846   1.539   0.567  0.6537 -0.9175  0.0094
 6365TIP3   OH240729   1.662   2.751   7.618  0.3452  0.3571  0.0806
 6365TIP3    H140730   1.572   2.717   7.622  1.0433 -1.5721  3.2455
 6365TIP3    H240731   1.670   2.789   7.531 -2.9321 -1.1207 -1.0130
 6366TIP3   OH240732   1.948   4.785   7.734 -0.0119  0.0413  0.4323
 6366TIP3    H140733   2.029   4.776   7.684 -0.2806  0.5625 -0.1019
 6366TIP3    H240734   1.878   4.775   7.669 -0.3676  0.5194  0.7329
 6367TIP3   OH240735   5.546   4.487   1.875  0.4419  0.0213  0.3184
 6367TIP3    H140736   5.465   4.492   1.927  0.0588  1.0361 -0.3494
 6367TIP3    H240737   5.593   4.413   1.912 -0.9614 -0.8299  0.4938
 6368TIP3   OH240738   6.488   6.558   6.961 -0.6436  0.0619 -0.4737
 6368TIP3    H140739   6.564   6.614   6.975 -0.5217  0.0822 -1.1520
 6368TIP3    H240740   6.496   6.529   6.870 -0.9916 -0.6265 -0.2958
 6369TIP3   OH240741   2.320   6.359   8.077  0.4745  0.7621  0.1741
 6369TIP3    H140742   2.301   6.339   8.169  1.2863  0.1134  0.2133
 6369TIP3    H240743   2.235   6.375   8.038  0.1100  0.9343  1.0175
 6370TIP3   OH240744   2.402   4.327   3.210  0.2403 -0.0875 -0.0519
 6370TIP3    H140745   2.392   4.236   3.239  1.0326 -0.1777 -0.0501
 6370TIP3    H240746   2.496   4.345   3.219  0.2828  0.3462 -1.1917
 6371TIP3   OH240747   4.933   2.030   2.255 -0.3639 -0.0926  0.4573
 6371TIP3    H140748   4.888   2.060   2.334  1.9202  2.1873  1.0333
 6371TIP3    H240749   4.935   2.108   2.199  1.6004 -0.5043 -0.0989
 6372TIP3   OH240750   3.855   1.530   2.413  0.1347  0.0203 -0.5430
 6372TIP3    H140751   3.810   1.449   2.387  1.9209 -1.0782 -0.4443
 6372TIP3    H240752   3.812   1.557   2.493 -2.9708  1.3375 -2.4633
 6373TIP3   OH240753   2.001   4.572   3.262  0.1458 -0.8128 -0.5351
 6373TIP3    H140754   1.919   4.608   3.229  0.1975 -0.4611 -0.2890
 6373TIP3    H240755   1.974   4.503   3.322  0.0517 -1.5342 -1.3829
 6374TIP3   OH240756   2.642   4.800   1.539  0.1412 -0.1438 -0.0571
 6374TIP3    H140757   2.611   4.796   1.448  1.0049 -1.1861 -0.3256
 6374TIP3    H240758   2.565   4.777   1.592 -0.0164 -0.9463 -0.6120
 6375TIP3   OH240759   6.125   6.377   2.459 -0.7152  0.3222 -0.3499
 6375TIP3    H140760   6.189   6.310   2.436 -0.2978  0.7529 -0.4576
 6375TIP3    H240761   6.097   6.414   2.375 -1.2676 -0.0058 -0.3178
 6376TIP3   OH240762   2.572   2.409   7.429  0.1359  0.0027  0.4124
 6376TIP3    H140763   2.538   2.453   7.351 -0.1320  0.5434  0.8297
 6376TIP3    H240764   2.580   2.317   7.403 -1.6597 -0.1666  0.2753
 6377TIP3   OH240765   3.704   2.372   0.001 -0.0742 -0.1264  0.1062
 6377TIP3    H140766   3.729   2.377   0.093  1.0018 -0.5213 -0.1481
 6377TIP3    H240767   3.712   2.462  -0.031  0.6045 -0.1713  0.1414
 6378TIP3   OH240768   3.577   3.347   2.305  0.5595 -0.6537  0.7294
 6378TIP3    H140769   3.655   3.301   2.274  1.3481  1.6034 -0.8946
 6378TIP3    H240770   3.506   3.284   2.292  1.3036 -0.9632 -3.0593
 6379TIP3   OH240771   5.007   3.550   8.120 -0.0245  0.4887 -0.6221
 6379TIP3    H140772   5.041   3.568   8.033  2.9615  0.5323  0.4397
 6379TIP3    H240773   4.928   3.604   8.127 -1.1246 -0.5644 -3.7082
 6380TIP3   OH240774   2.511   3.431   0.826 -0.2413  0.4023 -0.2406
 6380TIP3    H140775   2.584   3.479   0.788 -0.0240 -0.2865 -0.7089
 6380TIP3    H240776   2.537   3.416   0.917 -0.6902  1.9099  0.1541
 6381TIP3   OH240777   0.966   4.151   8.239 -0.7014  0.1970  0.2468
 6381TIP3    H140778   1.009   4.235   8.256  1.3517 -0.8173  0.3834
 6381TIP3    H240779   0.994   4.127   8.151 -0.9744 -0.5233  0.3476
 6382TIP3   OH240780   6.502   7.013   1.662 -0.6044  0.3594  0.1192
 6382TIP3    H140781   6.460   6.933   1.693  0.0811 -0.7167 -1.5826
 6382TIP3    H240782   6.594   7.004   1.687 -0.2897  0.0370 -1.0980
 6383TIP3   OH240783   4.551   4.302   1.661 -0.1057 -0.3964  0.1392
 6383TIP3    H140784   4.610   4.249   1.607 -0.8663  1.0412 -2.3117
 6383TIP3    H240785   4.510   4.362   1.598 -0.5145  1.9531  2.4874
 6384TIP3   OH240786   4.266   3.961   7.211 -0.7064  0.5445 -0.1576
 6384TIP3    H140787   4.210   3.978   7.135 -0.6654 -1.6001 -0.7328
 6384TIP3    H240788   4.325   3.892   7.182  0.6583  1.0707  1.2181
 6385TIP3   OH240789   7.008   0.352   1.393 -0.3263 -0.4610  0.2265
 6385TIP3    H140790   6.923   0.354   1.437  0.2729  1.7257  1.4557
 6385TIP3    H240791   7.038   0.262   1.402 -2.3408 -1.2138  0.0294
 6386TIP3   OH240792   1.025   3.939   7.733 -0.1294 -0.5409 -0.1642
 6386TIP3    H140793   1.087   3.930   7.661 -1.4608  2.0184 -1.7772
 6386TIP3    H240794   0.939   3.943   7.691 -1.4076 -2.8850  1.9109
 6387TIP3   OH240795   1.845   2.057   7.642 -0.2516 -0.3597  0.0074
 6387TIP3    H140796   1.920   2.114   7.626 -0.7886  0.0391 -1.2642
 6387TIP3    H240797   1.793   2.104   7.707 -0.3805  0.3380 -0.5782
 6388TIP3   OH240798   5.068   4.826   0.240 -0.2965 -0.5854 -0.0780
 6388TIP3    H140799   5.151   4.850   0.201 -0.9072  0.3118 -0.8651
 6388TIP3    H240800   5.010   4.808   0.166 -0.8642 -1.0168  0.4499
 6389TIP3   OH240801   6.130   0.144   1.839 -0.1802 -0.6124  0.1829
 6389TIP3    H140802   6.081   0.101   1.769 -0.8784 -1.5002  1.1937
 6389TIP3    H240803   6.215   0.100   1.839  0.1665  0.0147 -0.6827
 6390TIP3   OH240804   4.772   5.035   8.354 -0.1205  0.8222 -0.0311
 6390TIP3    H140805   4.793   5.125   8.377 -0.0284  0.5892  0.8214
 6390TIP3    H240806   4.719   5.003   8.427 -0.4538  0.2950 -0.4917
 6391TIP3   OH240807   5.526   1.531   1.609  0.8089 -0.6512  0.0193
 6391TIP3    H140808   5.493   1.614   1.575  1.1478 -0.1106  0.9736
 6391TIP3    H240809   5.560   1.552   1.696  1.7536 -1.6034 -0.0918
 6392TIP3   OH240810   3.896   0.471   2.139 -0.4686  0.0048 -0.3761
 6392TIP3    H140811   3.868   0.492   2.228 -2.6981  0.3527 -1.0804
 6392TIP3    H240812   3.985   0.438   2.148 -0.3282  0.8502  1.8694
 6393TIP3   OH240813   5.455   2.448   3.203 -0.3762 -0.3401 -0.7787
 6393TIP3    H140814   5.405   2.374   3.237 -3.5164  1.9196 -0.0072
 6393TIP3    H240815   5.511   2.475   3.275 -2.0506  0.2986  0.3396
 6394TIP3   OH240816   5.009   3.634   7.865  0.1041 -0.2682 -0.5373
 6394TIP3    H140817   5.072   3.698   7.898  0.5816 -1.1024  0.1838
 6394TIP3    H240818   5.017   3.640   7.769  0.7206  0.1672 -0.4601
 6395TIP3   OH240819   0.656   0.733   8.231 -0.4628  0.0691  0.0698
 6395TIP3    H140820   0.595   0.803   8.254 -2.2366 -1.7009  1.1542
 6395TIP3    H240821   0.603   0.672   8.179  0.3844 -1.4856  0.9667
 6396TIP3   OH240822   0.365   5.167   8.277  0.1058 -0.0639 -0.3873
 6396TIP3    H140823   0.317   5.245   8.306  0.3911 -0.1669  0.3833
 6396TIP3    H240824   0.446   5.200   8.239  0.2530  0.0155 -0.0068
 6397TIP3   OH240825   4.001   5.619   3.450 -0.1025  0.7044  0.1314
 6397TIP3    H140826   3.971   5.633   3.540 -1.6992 -0.8954 -0.0956
 6397TIP3    H240827   3.926   5.642   3.395 -0.6209 -2.1650 -0.5356
 6398TIP3   OH240828   2.010   2.292   0.594 -0.2935 -0.4446 -0.3096
 6398TIP3    H140829   1.992   2.314   0.503 -0.7532 -2.2427 -0.6861
 6398TIP3    H240830   2.103   2.312   0.606 -0.5615  1.1719 -0.7229
 6399TIP3   OH240831   2.088   0.013   8.202  0.8624 -0.0661 -0.4899
 6399TIP3    H140832   2.115   0.092   8.247 -1.8953  0.9506 -0.4185
 6399TIP3    H240833   2.052  -0.043   8.271  0.1976 -0.1493 -0.8953
 6400TIP3   OH240834   6.545   4.132   6.966 -0.0120  0.3080 -0.3376
 6400TIP3    H140835   6.628   4.096   6.998  0.0802  1.5640  0.9274
 6400TIP3    H240836   6.571   4.200   6.904 -0.1671 -0.6542 -1.5092
 6401TIP3   OH240837   5.386   3.264   2.412  0.1811  0.5842 -0.3874
 6401TIP3    H140838   5.410   3.357   2.410  0.9879  0.3782 -0.4743
 6401TIP3    H240839   5.300   3.261   2.369 -0.0909  1.3542  0.0851
 6402TIP3   OH240840   0.910   2.477   7.955  0.4247 -0.1978 -0.0054
 6402TIP3    H140841   0.905   2.506   7.864  1.6854  0.7204  0.1799
 6402TIP3    H240842   0.904   2.382   7.950  2.2528 -0.3160 -1.2660
 6403TIP3   OH240843   2.958   2.995   7.692 -0.5550  0.2196  0.4283
 6403TIP3    H140844   3.037   3.007   7.745 -1.0156  1.6164  0.8493
 6403TIP3    H240845   2.932   3.083   7.666 -1.4958 -0.2806 -0.4306
 6404TIP3   OH240846   1.457   6.025   2.231  0.3194 -0.3157 -0.2165
 6404TIP3    H140847   1.516   6.080   2.283  0.3114 -0.0353 -0.4987
 6404TIP3    H240848   1.490   5.936   2.244  0.7665 -0.1693 -0.3219
 6405TIP3   OH240849   0.771   4.506   7.138 -0.4572 -0.6354  0.1569
 6405TIP3    H140850   0.694   4.450   7.132 -1.4096  0.2654  2.6023
 6405TIP3    H240851   0.817   4.475   7.216  0.4616  0.2567 -0.0097
 6406TIP3   OH240852   0.128   5.844   2.114 -0.5679  0.5117  0.8368
 6406TIP3    H140853   0.061   5.905   2.145 -1.4566 -0.2886  0.5345
 6406TIP3    H240854   0.088   5.801   2.039 -0.4856 -1.4174  1.8400
 6407TIP3   OH240855   2.950   0.749   8.098 -0.2934  0.4655  0.2095
 6407TIP3    H140856   2.946   0.827   8.043  0.4330  0.4645  0.1516
 6407TIP3    H240857   3.043   0.739   8.120 -0.3475 -0.5101  0.0388
 6408TIP3   OH240858   6.285   2.164   1.150 -0.3494 -0.1837 -0.2807
 6408TIP3    H140859   6.309   2.224   1.079  0.4841  1.7112  1.4949
 6408TIP3    H240860   6.264   2.082   1.105  1.4977  0.4813 -2.6328
 6409TIP3   OH240861   5.341   2.459   2.532  0.7859 -0.4546 -0.2684
 6409TIP3    H140862   5.308   2.548   2.522 -0.9054 -1.1519 -1.2200
 6409TIP3    H240863   5.436   2.469   2.534  0.6097  1.4332  0.4702
 6410TIP3   OH240864   0.670   4.791   3.086 -0.2112  0.1562  0.1075
 6410TIP3    H140865   0.651   4.820   3.175  1.1830  1.2450  0.0788
 6410TIP3    H240866   0.757   4.752   3.092  0.1643  0.8234 -0.9083
 6411TIP3   OH240867   2.567   1.365   7.779  0.4004  0.1295 -0.0204
 6411TIP3    H140868   2.628   1.423   7.824 -2.2103  1.3632  2.1980
 6411TIP3    H240869   2.483   1.380   7.821 -1.1508 -2.7839 -1.7033
 6412TIP3   OH240870   4.329   2.291   7.785 -0.3528 -0.5319  0.4005
 6412TIP3    H140871   4.271   2.336   7.847 -0.6948  0.3389 -0.5131
 6412TIP3    H240872   4.299   2.200   7.786  0.3853 -0.7893  2.3351
 6413TIP3   OH240873   1.042   3.561   7.955 -0.7462 -0.0712  0.2565
 6413TIP3    H140874   1.088   3.523   7.880 -0.6151  0.0906  0.2569
 6413TIP3    H240875   1.086   3.524   8.031 -0.2226  0.5595  0.2632
 6414TIP3   OH240876   1.832   6.192   1.664 -0.0945  0.4343  0.1343
 6414TIP3    H140877   1.864   6.144   1.740  0.8580 -0.1724 -0.6150
 6414TIP3    H240878   1.752   6.147   1.638  1.4735 -1.6971 -1.3625
 6415TIP3   OH240879   6.531   3.213   1.657 -0.2359  0.9851 -0.1684
 6415TIP3    H140880   6.526   3.189   1.750  1.8718  0.9156 -0.0334
 6415TIP3    H240881   6.476   3.291   1.650 -1.2822  0.3836  0.8984
 6416TIP3   OH240882   3.272   4.102   0.990 -0.1353  0.1767  0.0098
 6416TIP3    H140883   3.246   4.037   0.925  0.2778  1.3578 -1.4060
 6416TIP3    H240884   3.325   4.053   1.053 -0.0258 -0.9042 -0.8887
 6417TIP3   OH240885   6.250   5.332   7.335  0.7731  0.2733 -0.0759
 6417TIP3    H140886   6.302   5.350   7.413 -0.3613 -1.5243  1.1732
 6417TIP3    H240887   6.314   5.330   7.264  2.1148  0.1867  1.0894
 6418TIP3   OH240888   3.819   0.926   8.352  0.7101 -0.0774  0.7244
 6418TIP3    H140889   3.876   0.872   8.406  1.1307 -0.6680 -0.2949
 6418TIP3    H240890   3.742   0.871   8.337  1.1593 -0.4216 -0.3548
 6419TIP3   OH240891   0.576   4.831   2.340 -0.6776  0.4699  0.7506
 6419TIP3    H140892   0.506   4.778   2.380  0.3320 -0.8201  0.8700
 6419TIP3    H240893   0.565   4.817   2.246 -1.1960  1.1017  0.7066
 6420TIP3   OH240894   4.877   1.879   8.339 -0.2025  0.2523 -0.9164
 6420TIP3    H140895   4.792   1.872   8.295 -0.4791 -1.4010 -0.2113
 6420TIP3    H240896   4.903   1.788   8.354 -0.1861  0.6809  2.3718
 6421TIP3   OH240897   7.015   6.064   2.228  0.3704  0.0569  0.0701
 6421TIP3    H140898   7.003   6.135   2.291  1.1583 -0.9835  1.4293
 6421TIP3    H240899   6.926   6.030   2.213  0.1410  0.5287  0.3479
 6422TIP3   OH240900   5.948   0.160   0.570  0.6388 -0.2943 -0.2230
 6422TIP3    H140901   5.956   0.072   0.535  0.8810 -0.0925 -0.6844
 6422TIP3    H240902   6.020   0.169   0.631 -0.5505 -1.1143  1.3790
 6423TIP3   OH240903   6.420   2.215   2.149 -0.0275 -0.7577  0.4280
 6423TIP3    H140904   6.377   2.267   2.217  1.8324  0.0594  1.0592
 6423TIP3    H240905   6.507   2.197   2.184  0.4463 -1.6547 -1.1040
 6424TIP3   OH240906   6.709   1.701   1.124  0.0548 -0.4526 -0.0053
 6424TIP3    H140907   6.748   1.779   1.085  0.4380  0.1352  1.4877
 6424TIP3    H240908   6.618   1.702   1.096  0.3659 -0.1902 -1.0523
 6425TIP3   OH240909   1.105   2.240   1.590  0.1618 -0.2777 -0.2763
 6425TIP3    H140910   1.036   2.229   1.524  2.3381 -0.9154 -2.6093
 6425TIP3    H240911   1.113   2.335   1.600 -1.5484 -0.1859  0.6808
 6426TIP3   OH240912   3.887   2.044   1.965  0.4059 -0.2242  0.4410
 6426TIP3    H140913   3.947   2.112   1.934  1.5603 -0.2536  2.4194
 6426TIP3    H240914   3.804   2.063   1.922  0.9195  1.9464  0.3202
 6427TIP3   OH240915   6.299   1.590   1.382 -0.2747  0.3189 -0.1030
 6427TIP3    H140916   6.376   1.567   1.434 -0.6358 -0.6005  0.0442
 6427TIP3    H240917   6.335   1.609   1.295  0.2057  0.7706  0.1840
 6428TIP3   OH240918   1.831   0.499   6.845 -0.5182  0.2174  0.1996
 6428TIP3    H140919   1.904   0.444   6.873 -1.1070 -0.7220 -0.0259
 6428TIP3    H240920   1.848   0.585   6.883  1.2920  0.3350 -0.7939
 6429TIP3   OH240921   6.840   5.537   8.182 -0.0722 -0.3859 -0.0294
 6429TIP3    H140922   6.900   5.463   8.169  0.9595  0.0168  1.9524
 6429TIP3    H240923   6.794   5.515   8.263 -1.8204 -0.1513 -0.9339
 6430TIP3   OH240924   4.162   5.457   0.815  0.0088 -0.4760  0.2330
 6430TIP3    H140925   4.089   5.516   0.833  0.0430 -0.0467 -0.9481
 6430TIP3    H240926   4.221   5.468   0.890 -0.2399  0.6094  0.2884
 6431TIP3   OH240927   4.740   7.006   8.024 -0.3437 -0.8562 -0.6003
 6431TIP3    H140928   4.760   7.090   8.066  0.5055 -1.7382  0.8662
 6431TIP3    H240929   4.682   6.962   8.086  0.2788 -1.8733 -0.7181
 6432TIP3   OH240930   6.234   2.492   8.373  0.2613 -0.9088  0.2526
 6432TIP3    H140931   6.139   2.504   8.369  0.2810 -0.9701 -0.5103
 6432TIP3    H240932   6.245   2.407   8.414 -0.0129 -0.9237  0.3002
 6433TIP3   OH240933   1.283   5.861   0.271 -0.1702 -0.1016 -0.2910
 6433TIP3    H140934   1.240   5.815   0.343 -1.3448  1.2047 -0.1203
 6433TIP3    H240935   1.282   5.953   0.297  1.9522  0.1013 -0.7126
 6434TIP3   OH240936   6.138   1.078   8.054 -0.5780 -0.0561  0.1299
 6434TIP3    H140937   6.207   1.141   8.037 -0.7143  0.0281 -0.1158
 6434TIP3    H240938   6.180   0.993   8.040 -0.7686  0.0177 -0.9612
 6435TIP3   OH240939   6.360   5.324   1.537 -0.1518  0.0731  0.1219
 6435TIP3    H140940   6.388   5.403   1.583 -0.1179 -0.3194  0.7908
 6435TIP3    H240941   6.332   5.355   1.451  2.4752  0.5032 -0.6833
 6436TIP3   OH240942   4.447   3.130   1.633 -0.6141 -0.6771 -0.0407
 6436TIP3    H140943   4.406   3.165   1.554 -0.8490  0.4658  0.5637
 6436TIP3    H240944   4.537   3.164   1.631 -0.2958 -1.5158 -0.3411
 6437TIP3   OH240945   4.804   1.516   2.177 -0.0050  0.0249  0.6189
 6437TIP3    H140946   4.839   1.451   2.117 -1.7300 -3.3040  2.8626
 6437TIP3    H240947   4.879   1.544   2.229  0.6104 -1.2809  0.4761
 6438TIP3   OH240948   5.278   5.359   7.289  0.4561  0.2859  0.1601
 6438TIP3    H140949   5.373   5.371   7.290  0.7011 -1.4886  0.9585
 6438TIP3    H240950   5.257   5.341   7.197  1.0166 -0.1008  0.1014
 6439TIP3   OH240951   4.935   2.313   0.834 -0.5402  0.1511 -0.5300
 6439TIP3    H140952   4.940   2.379   0.904 -0.9635  1.5405 -1.7490
 6439TIP3    H240953   4.944   2.229   0.879  0.7318  1.0533  1.0167
 6440TIP3   OH240954   0.779   7.031   0.890  0.4402  0.0476  0.0704
 6440TIP3    H140955   0.760   6.964   0.956  0.2004  1.0044  1.0127
 6440TIP3    H240956   0.704   7.091   0.895  0.9928  0.7774 -0.2116
 6441TIP3   OH240957   0.341   3.365   0.177  0.4192 -0.2809 -0.3191
 6441TIP3    H140958   0.380   3.279   0.192  0.5251 -0.1404  0.2069
 6441TIP3    H240959   0.414   3.421   0.153  0.6417  0.1183  1.2185
 6442TIP3   OH240960   1.299   6.267   2.935 -0.2439 -0.3495  0.7007
 6442TIP3    H140961   1.312   6.280   2.841  1.3413  0.4050  0.9844
 6442TIP3    H240962   1.232   6.331   2.958 -1.4704 -1.3133 -0.0910
 6443TIP3   OH240963   6.490   4.896   7.942 -0.3644 -0.6962 -0.0176
 6443TIP3    H140964   6.418   4.936   7.990 -0.2087 -0.5762  0.1160
 6443TIP3    H240965   6.562   4.891   8.006 -0.5665 -1.7195  0.1461
 6444TIP3   OH240966   3.368   0.286   0.047 -0.0562 -0.1725  0.7980
 6444TIP3    H140967   3.309   0.211   0.045  0.5832 -0.6864 -0.6941
 6444TIP3    H240968   3.347   0.334  -0.034  2.7267 -1.3575 -0.7542
 6445TIP3   OH240969   1.785   3.669   1.383 -0.1519 -0.2361  0.1371
 6445TIP3    H140970   1.737   3.672   1.301 -0.7654 -0.5090  0.4831
 6445TIP3    H240971   1.877   3.677   1.357 -0.4647  3.0181 -0.3730
 6446TIP3   OH240972   3.729   1.252   1.733  0.4000 -0.5734  0.3284
 6446TIP3    H140973   3.807   1.289   1.691 -0.0374  1.5996  1.2740
 6446TIP3    H240974   3.729   1.160   1.707  2.7477 -0.4232 -0.4588
 6447TIP3   OH240975   2.493   2.717   3.166  0.3276 -0.2967 -0.3758
 6447TIP3    H140976   2.507   2.670   3.083 -0.1751 -0.9847 -0.0764
 6447TIP3    H240977   2.570   2.773   3.175 -0.4449  1.1667 -2.2255
 6448TIP3   OH240978   1.984   3.832   2.911  0.0714 -0.2110  0.6150
 6448TIP3    H140979   1.993   3.837   2.815 -1.4785 -1.6638  0.3544
 6448TIP3    H240980   2.035   3.754   2.935 -0.4374 -0.4752  0.8347
 6449TIP3   OH240981   0.083   1.391   1.146  0.3188  0.0164 -0.2820
 6449TIP3    H140982   0.098   1.455   1.076  1.9187 -0.0997 -0.0773
 6449TIP3    H240983   0.155   1.405   1.207  0.0958 -1.2732  0.3081
 6450TIP3   OH240984   5.938   4.330   7.718 -0.2681  0.4513 -0.0565
 6450TIP3    H140985   5.937   4.259   7.654  1.0121 -1.8320  2.2862
 6450TIP3    H240986   5.854   4.374   7.706 -1.4590 -1.9354 -1.1207
 6451TIP3   OH240987   2.935   2.741   1.735  0.0642  0.2095 -0.0386
 6451TIP3    H140988   2.923   2.820   1.789  2.7892 -1.0690  2.8025
 6451TIP3    H240989   2.850   2.696   1.740 -0.7264  1.6680  0.4957
 6452TIP3   OH240990   4.632   1.708   0.933 -0.1332 -0.4883 -0.3368
 6452TIP3    H140991   4.659   1.797   0.955  1.2669 -0.9574 -0.0607
 6452TIP3    H240992   4.579   1.718   0.853  0.1666  0.5622 -0.4202
 6453TIP3   OH240993   0.236   4.949   8.218 -0.3159 -0.0796  0.2382
 6453TIP3    H140994   0.313   4.893   8.211 -0.1703  0.3374 -3.4793
 6453TIP3    H240995   0.271   5.037   8.228 -0.1599  0.2074 -2.2516
 6454TIP3   OH240996   3.273   0.643   2.782  0.8345 -0.2541 -0.2988
 6454TIP3    H140997   3.190   0.595   2.787  0.0729  0.9595 -0.8444
 6454TIP3    H240998   3.338   0.575   2.765 -0.2701 -1.0577 -1.5863
 6455TIP3   OH240999   3.337   5.090   1.989 -0.6283 -0.0373 -0.3787
 6455TIP3    H141000   3.253   5.107   2.032 -1.3248  1.1349 -2.0729
 6455TIP3    H241001   3.382   5.174   1.993  0.1947 -0.4874 -0.0690
 6456TIP3   OH241002   2.117   5.964   0.176 -0.2462 -0.0886  0.1438
 6456TIP3    H141003   2.057   5.950   0.249 -1.8663 -0.1764 -1.1182
 6456TIP3    H241004   2.166   5.882   0.169 -1.8306 -1.0448 -0.3411
 6457TIP3   OH241005   5.068   3.823   1.327  0.2321  0.1940  0.0384
 6457TIP3    H141006   5.073   3.910   1.366  1.3784  0.2225 -0.1255
 6457TIP3    H241007   5.098   3.764   1.397 -1.7635 -0.2322  0.5813
 6458TIP3   OH241008   0.487   2.677   7.758 -0.2396  0.1623 -0.0602
 6458TIP3    H141009   0.497   2.691   7.663 -1.5997 -0.1482 -0.2705
 6458TIP3    H241010   0.570   2.708   7.795  1.3694 -2.0017 -1.5717
 6459TIP3   OH241011   5.610   6.015   1.624 -0.7567 -0.0459  0.2474
 6459TIP3    H141012   5.536   6.075   1.637 -1.4604 -1.0431  0.9906
 6459TIP3    H241013   5.687   6.072   1.626 -1.3654  0.7869  1.4703
 6460TIP3   OH241014   1.583   0.805   0.437 -0.0912 -0.3703  0.2233
 6460TIP3    H141015   1.520   0.748   0.392 -0.2566 -0.5478  0.6712
 6460TIP3    H241016   1.561   0.893   0.407 -1.8084 -0.2101  1.7945
 6461TIP3   OH241017   6.915   5.910   2.576 -0.3264 -0.0182  0.2877
 6461TIP3    H141018   6.969   5.842   2.616 -0.2918 -1.1611 -1.5617
 6461TIP3    H241019   6.975   5.984   2.564  1.3875 -1.7118 -2.9557
 6462TIP3   OH241020   0.323   1.480   0.053 -0.4624 -0.1350 -0.0535
 6462TIP3    H141021   0.286   1.407   0.003 -0.3829 -0.0792 -0.1960
 6462TIP3    H241022   0.336   1.549  -0.012 -0.3439 -0.0675  0.0411
 6463TIP3   OH241023   3.009   0.191   1.151 -0.2499 -0.3692  0.5790
 6463TIP3    H141024   2.946   0.238   1.096  1.9849  0.1426 -1.7525
 6463TIP3    H241025   2.972   0.195   1.239 -2.0776  2.3061 -0.1857
 6464TIP3   OH241026   5.735   0.740   1.371  0.2806  0.0515 -0.2032
 6464TIP3    H141027   5.761   0.732   1.279  1.3320  0.2276  0.0589
 6464TIP3    H241028   5.780   0.668   1.414  0.3767  0.3971  0.2836
 6465TIP3   OH241029   6.956   2.959   1.908  0.3784  0.0510 -0.1125
 6465TIP3    H141030   7.047   2.935   1.923  1.0276  1.4825 -1.5045
 6465TIP3    H241031   6.909   2.923   1.983  1.7367 -2.5905 -0.4145
 6466TIP3   OH241032   6.827   0.516   0.909 -0.1051  0.3129 -0.2427
 6466TIP3    H141033   6.877   0.590   0.942 -0.4116  0.2319  0.4092
 6466TIP3    H241034   6.880   0.481   0.837  0.8355  0.1579  0.5093
 6467TIP3   OH241035   3.695   2.897   7.424 -0.5613  0.2749  0.4692
 6467TIP3    H141036   3.774   2.948   7.406 -1.5299  1.1728 -1.6559
 6467TIP3    H241037   3.709   2.815   7.378 -0.7263  0.2988  0.3769
 6468TIP3   OH241038   0.572   2.126   2.155  0.3793 -0.2984  1.0918
 6468TIP3    H141039   0.613   2.207   2.126 -0.3632 -0.1261  0.4859
 6468TIP3    H241040   0.639   2.059   2.144  0.9920  0.2284  1.5858
 6469TIP3   OH241041   2.447   2.073   1.856  0.1329  0.2507  0.8617
 6469TIP3    H141042   2.369   2.116   1.820 -1.1432 -0.8765  2.1734
 6469TIP3    H241043   2.413   2.011   1.920  2.0628 -1.0104  0.7503
 6470TIP3   OH241044   6.884   0.322   0.170 -0.1497  0.1912  0.0273
 6470TIP3    H141045   6.849   0.373   0.243 -0.4845  0.9861 -0.6702
 6470TIP3    H241046   6.937   0.385   0.120 -1.3975  0.1495 -1.4204
 6471TIP3   OH241047   3.413   5.936   2.726  0.4823  0.0486 -0.2303
 6471TIP3    H141048   3.338   5.993   2.709  1.1946  0.2826 -3.0364
 6471TIP3    H241049   3.391   5.854   2.682 -1.1791 -2.7183  4.8733
 6472TIP3   OH241050   0.693   0.595   0.596  0.1586 -0.2215  0.3416
 6472TIP3    H141051   0.721   0.686   0.609  1.8397 -0.7662  0.7630
 6472TIP3    H241052   0.616   0.602   0.540  1.1498  1.4147 -0.9250
 6473TIP3   OH241053   3.448   2.052   0.710  0.2513 -0.0282  0.2125
 6473TIP3    H141054   3.436   2.131   0.762 -1.9107 -1.1671  1.5563
 6473TIP3    H241055   3.364   2.039   0.666  1.4455 -0.1128 -2.1998
 6474TIP3   OH241056   5.940   0.825   1.176  0.2359 -0.3448  0.0769
 6474TIP3    H141057   5.965   0.753   1.118 -1.1093  0.7295 -1.9567
 6474TIP3    H241058   6.006   0.893   1.160  1.5537 -1.0718  2.0544
 6475TIP3   OH241059   5.084   5.071   6.915  0.4207 -0.0404  0.4072
 6475TIP3    H141060   5.123   4.988   6.941 -1.0279 -1.1019 -0.6728
 6475TIP3    H241061   4.997   5.048   6.882 -0.1738  1.9547  0.4446
 6476TIP3   OH241062   3.471   6.379   8.206 -0.0328 -0.0376  0.8582
 6476TIP3    H141063   3.392   6.417   8.245  0.8036  0.0888  2.5393
 6476TIP3    H241064   3.460   6.392   8.112 -1.0503  1.8930  1.1769
 6477TIP3   OH241065   1.505   6.965   7.906  0.0996 -0.6615  0.1904
 6477TIP3    H141066   1.580   6.924   7.864  0.6985  1.5886 -1.0731
 6477TIP3    H241067   1.524   6.958   8.000 -0.1382 -3.6610  0.1285
 6478TIP3   OH241068   0.771   1.398   2.058  0.1062  0.3614  0.4394
 6478TIP3    H141069   0.842   1.343   2.024  0.6575  1.8385 -0.9119
 6478TIP3    H241070   0.722   1.340   2.116  2.2971 -0.7687  1.2846
 6479TIP3   OH241071   3.042   6.572   7.936  0.0071 -0.0388  0.1143
 6479TIP3    H141072   2.961   6.585   7.986 -0.3518  0.4382 -0.5709
 6479TIP3    H241073   3.106   6.627   7.981 -0.1519 -0.1111  0.4313
 6480TIP3   OH241074   5.478   4.466   1.304  0.8554  0.4954 -0.2255
 6480TIP3    H141075   5.483   4.495   1.395  0.1409 -0.0028 -0.0179
 6480TIP3    H241076   5.409   4.400   1.303  1.6622 -0.3736 -0.9035
 6481TIP3   OH241077   1.288   4.643   0.044 -0.3537  0.2159 -0.1868
 6481TIP3    H141078   1.206   4.663  -0.001 -1.0475  1.1488  1.4220
 6481TIP3    H241079   1.323   4.728   0.069  2.7316  0.1322 -3.4188
 6482TIP3   OH241080   6.560   5.664   1.051 -0.0284  0.1858 -0.0948
 6482TIP3    H141081   6.494   5.686   1.117  0.7410 -0.6066  0.9476
 6482TIP3    H241082   6.619   5.739   1.050  0.7710 -0.3931  1.1709
 6483TIP3   OH241083   5.826   4.250   0.279 -0.4017 -0.1340 -0.2010
 6483TIP3    H141084   5.748   4.195   0.264 -0.2231 -0.3355 -0.3949
 6483TIP3    H241085   5.856   4.273   0.192  0.3258 -0.8615 -0.1540
 6484TIP3   OH241086   5.860   1.110   8.053  0.1623  0.1259 -0.1118
 6484TIP3    H141087   5.865   1.135   7.960 -0.9726 -1.1900 -0.5484
 6484TIP3    H241088   5.950   1.121   8.085  0.5563  0.6948 -1.3281
 6485TIP3   OH241089   5.152   3.602   3.046  0.4501 -0.1188  0.8725
 6485TIP3    H141090   5.121   3.626   2.959 -0.7871 -1.6755  0.8505
 6485TIP3    H241091   5.238   3.645   3.053  2.1688 -2.5306 -2.4208
 6486TIP3   OH241092   2.892   5.179   7.642 -0.4060  0.1801  0.2381
 6486TIP3    H141093   2.983   5.204   7.654 -0.2413  0.2112 -0.8912
 6486TIP3    H241094   2.891   5.133   7.557 -1.3709 -0.1586  0.4139
 6487TIP3   OH241095   1.155   0.744   0.984  0.7327  0.1867  0.2435
 6487TIP3    H141096   1.186   0.725   1.072 -0.4434  0.1546  0.6664
 6487TIP3    H241097   1.060   0.749   0.992  0.6963  1.7859 -0.7264
 6488TIP3   OH241098   0.141   4.208   0.176 -0.6858  0.6070 -0.2010
 6488TIP3    H141099   0.220   4.260   0.190  0.0700 -0.6113  0.2008
 6488TIP3    H241100   0.138   4.193   0.082  0.8529 -1.2431 -0.0117
 6489TIP3   OH241101   3.028   1.018   0.407 -0.2035  0.8350  0.2630
 6489TIP3    H141102   3.060   0.977   0.487 -1.1391  0.7824  0.6300
 6489TIP3    H241103   3.069   1.105   0.406 -1.1032  1.3185  1.4599
 6490TIP3   OH241104   2.901   4.051   3.476  0.3231 -0.0328  0.1282
 6490TIP3    H141105   2.962   4.097   3.419 -1.3310 -0.8600 -2.4631
 6490TIP3    H241106   2.868   4.119   3.535 -0.4400  1.7426 -2.1889
 6491TIP3   OH241107   5.430   0.050   7.740 -0.3602  0.1973  0.1157
 6491TIP3    H141108   5.414   0.058   7.646 -1.3088 -0.0663  0.2457
 6491TIP3    H241109   5.354   0.090   7.781 -0.7765 -1.1865  0.7670
 6492TIP3   OH241110   1.092   4.303   0.641 -0.4182 -0.0701  0.3635
 6492TIP3    H141111   1.017   4.323   0.697 -1.3460  1.4970 -1.3368
 6492TIP3    H241112   1.057   4.308   0.552  1.4754 -0.3594 -0.4314
 6493TIP3   OH241113   0.401   3.079   8.330 -0.2750 -0.4149 -0.3416
 6493TIP3    H141114   0.316   3.038   8.313  0.0680 -2.9014  2.8807
 6493TIP3    H241115   0.403   3.093   8.424  2.9632 -0.7382 -0.2339
 6494TIP3   OH241116   5.668   0.911   1.016  0.4964 -0.0640  0.2913
 6494TIP3    H141117   5.598   0.898   1.080  0.9285 -0.7040  0.6441
 6494TIP3    H241118   5.734   0.845   1.038 -0.2531 -1.7348 -2.1148
 6495TIP3   OH241119   0.444   3.124   2.287  0.1356 -0.2193 -0.1720
 6495TIP3    H141120   0.375   3.083   2.236 -0.0113  1.0935 -1.0674
 6495TIP3    H241121   0.399   3.167   2.359  0.1285 -0.2098 -0.1822
 6496TIP3   OH241122   6.529   1.970   1.084  0.4026 -0.0310  0.0303
 6496TIP3    H141123   6.438   1.941   1.085  0.7414 -1.1884 -0.9376
 6496TIP3    H241124   6.552   1.971   0.991 -0.3842  6.0577 -0.5088
 6497TIP3   OH241125   4.328   4.440   2.576  0.3185  0.1196  0.4494
 6497TIP3    H141126   4.357   4.527   2.604  2.0779 -0.0773 -0.5703
 6497TIP3    H241127   4.256   4.456   2.516  2.5912  1.1581 -2.1867
 6498TIP3   OH241128   1.032   6.887   8.365 -0.2044 -0.5755 -0.0102
 6498TIP3    H141129   0.980   6.858   8.291  0.0715  1.1791 -0.9626
 6498TIP3    H241130   1.076   6.966   8.333  1.0202 -0.5630  1.5852
 6499TIP3   OH241131   5.972   6.369   7.780 -0.1870 -0.5093 -0.6528
 6499TIP3    H141132   5.933   6.403   7.700 -1.8223 -0.3085  0.1748
 6499TIP3    H241133   5.995   6.446   7.831 -2.7373 -0.5167  0.6820
 6500TIP3   OH241134   0.721   2.224   0.533 -0.3695  0.4265  0.4138
 6500TIP3    H141135   0.780   2.175   0.476 -0.4968  0.2943  0.3945
 6500TIP3    H241136   0.769   2.304   0.554  0.0139  0.1056  0.7865
 6501TIP3   OH241137   3.462   5.098   1.383 -0.3059 -0.0278 -0.2281
 6501TIP3    H141138   3.430   5.097   1.473  1.7825  0.8152  0.5781
 6501TIP3    H241139   3.497   5.010   1.369  0.3907  0.1836  0.1815
 6502TIP3   OH241140   4.442   2.969   7.501  0.2168 -0.0192 -0.1657
 6502TIP3    H141141   4.350   2.992   7.489  0.2983  0.0466 -0.6989
 6502TIP3    H241142   4.452   2.886   7.455  0.2784 -0.3412  0.4340
 6503TIP3   OH241143   1.197   3.190   1.856  0.4872  0.0376 -0.2591
 6503TIP3    H141144   1.157   3.109   1.825  0.9040  0.3262 -1.6106
 6503TIP3    H241145   1.129   3.256   1.847  0.3245 -0.0391  0.3242
 6504TIP3   OH241146   6.655   2.440   1.847 -0.1462 -0.0766 -0.0891
 6504TIP3    H141147   6.660   2.475   1.758 -1.5725 -0.4012 -0.3186
 6504TIP3    H241148   6.662   2.345   1.836  0.2353 -0.0852  0.2046
 6505TIP3   OH241149   1.213   1.624   1.001 -0.3828 -0.2096  0.3745
 6505TIP3    H141150   1.247   1.535   1.007  2.3971  0.7552  0.3355
 6505TIP3    H241151   1.221   1.647   0.908 -0.6265  0.2454  0.4594
 6506TIP3   OH241152   4.998   0.569   8.299  0.1412  0.9427  0.5347
 6506TIP3    H141153   4.924   0.516   8.272  1.5902 -0.6373 -0.5516
 6506TIP3    H241154   5.047   0.514   8.360  1.1654  1.4008  0.1498
 6507TIP3   OH241155   6.335   0.372   7.564  0.6457  0.1995  0.6559
 6507TIP3    H141156   6.287   0.453   7.586  0.3652  0.6562 -1.4313
 6507TIP3    H241157   6.276   0.302   7.591  0.4970  0.6978  1.6661
 6508TIP3   OH241158   5.529   5.232   1.116 -0.6378 -0.6908  0.1185
 6508TIP3    H141159   5.516   5.178   1.194 -1.4698 -0.1016  0.4009
 6508TIP3    H241160   5.455   5.210   1.059 -0.7145 -0.2010  0.0288
 6509TIP3   OH241161   4.765   6.708   2.764  0.0341  0.4142  0.4048
 6509TIP3    H141162   4.696   6.707   2.830 -0.4726  1.7186 -0.0850
 6509TIP3    H241163   4.723   6.675   2.684  0.7305 -1.4974  0.7546
 6510TIP3   OH241164   1.591   2.967   2.848 -0.1509  0.1087  0.1380
 6510TIP3    H141165   1.557   2.906   2.782  1.1394 -0.8358  0.2976
 6510TIP3    H241166   1.624   3.041   2.797 -0.1097 -0.1435 -0.2065
 6511TIP3   OH241167   2.025   4.752   2.152 -0.0352 -0.2008  0.5331
 6511TIP3    H141168   2.005   4.662   2.180  0.5966 -0.7651 -0.7470
 6511TIP3    H241169   1.992   4.758   2.063 -0.3235  0.9485  0.7011
 6512TIP3   OH241170   1.623   5.197   8.305  0.4550  0.4062 -0.1209
 6512TIP3    H141171   1.599   5.260   8.237 -1.2991 -0.8111 -0.7024
 6512TIP3    H241172   1.681   5.246   8.364 -0.3436  2.3680 -0.8815
 6513TIP3   OH241173   2.150   4.165   1.787  0.4203  0.2471 -0.6744
 6513TIP3    H141174   2.132   4.097   1.852 -1.0953  1.0413 -0.2139
 6513TIP3    H241175   2.082   4.231   1.802  0.9491  1.1568 -2.0928
 6514TIP3   OH241176   6.344   3.394   0.205 -0.0335  0.1693 -0.2656
 6514TIP3    H141177   6.432   3.359   0.188 -0.1542 -0.2045 -0.1099
 6514TIP3    H241178   6.357   3.459   0.274  0.0850 -0.0665 -0.0636
 6515TIP3   OH241179   4.882   2.711   0.030 -0.0374 -0.2434 -0.0824
 6515TIP3    H141180   4.938   2.744  -0.040 -0.9481  0.4160 -0.5069
 6515TIP3    H241181   4.816   2.658  -0.015 -1.4243  1.2574  0.1175
 6516TIP3   OH241182   4.251   2.939   1.128 -0.0094  0.5350  0.3557
 6516TIP3    H141183   4.327   2.881   1.117  0.3179  0.9334  0.4565
 6516TIP3    H241184   4.266   3.009   1.064 -0.5764  0.3264 -0.0040
 6517TIP3   OH241185   6.005   3.802   7.416  0.0854  0.1868 -0.1349
 6517TIP3    H141186   6.093   3.773   7.438  0.3282  0.8748 -0.1669
 6517TIP3    H241187   6.018   3.879   7.361 -0.5313  0.3590 -0.0497
 6518TIP3   OH241188   6.463   1.088   7.998  0.3081 -0.5413  0.7345
 6518TIP3    H141189   6.448   1.109   7.906  0.2233  0.3801  0.9481
 6518TIP3    H241190   6.430   1.164   8.046  2.0127 -0.1985  1.4365
 6519TIP3   OH241191   2.772   2.366   1.285 -0.1509 -0.2347 -0.6879
 6519TIP3    H141192   2.680   2.382   1.263 -0.8536 -2.7714  0.1471
 6519TIP3    H241193   2.806   2.316   1.211  0.2878 -0.1813 -0.5241
 6520TIP3   OH241194   1.064   0.510   2.192 -0.1177  0.0904  0.0459
 6520TIP3    H141195   1.039   0.600   2.214 -0.4554 -0.4067  1.8573
 6520TIP3    H241196   1.011   0.489   2.114 -3.0769  0.1894  1.8555
 6521TIP3   OH241197   0.315   3.939   0.999 -0.2100  0.5956  0.1964
 6521TIP3    H141198   0.257   3.984   1.060 -0.5833  2.4971 -1.4440
 6521TIP3    H241199   0.400   3.935   1.044 -0.8811  0.3456  1.4922
 6522TIP3   OH241200   6.551   2.955   0.846  0.2454 -0.2689  0.2383
 6522TIP3    H141201   6.644   2.953   0.828  0.1229  0.5127 -0.5264
 6522TIP3    H241202   6.521   2.865   0.832  0.3890  0.0228 -2.2858
 6523TIP3   OH241203   6.689   4.245   0.565  0.2270 -0.0076 -0.0771
 6523TIP3    H141204   6.655   4.238   0.654  1.2504  1.8816  0.5157
 6523TIP3    H241205   6.613   4.233   0.508 -0.4950 -0.8823  1.0431
 6524TIP3   OH241206   3.606   3.942   1.947  0.1035 -0.5214  0.3881
 6524TIP3    H141207   3.549   3.868   1.925 -0.7636  0.7360 -1.9859
 6524TIP3    H241208   3.688   3.924   1.902 -0.3021  0.1814 -0.6705
 6525TIP3   OH241209   2.030   2.811   1.618 -0.1513  0.9756 -0.0784
 6525TIP3    H141210   1.990   2.806   1.705 -0.8907  1.1392 -0.3992
 6525TIP3    H241211   2.118   2.847   1.633 -0.1944  0.7910  0.6193
 6526TIP3   OH241212   1.529   1.788   2.146 -0.2043 -0.4754  0.0595
 6526TIP3    H141213   1.606   1.783   2.202 -0.2678 -0.6629  0.1309
 6526TIP3    H241214   1.475   1.857   2.185  0.5466  0.6183 -0.7674
 6527TIP3   OH241215   5.413   0.436   8.129 -0.7840  0.1710  0.3868
 6527TIP3    H141216   5.476   0.411   8.196 -1.4845 -0.7891  0.7074
 6527TIP3    H241217   5.413   0.364   8.067 -0.1332  1.0615 -0.6785
 6528TIP3   OH241218   3.176   2.003   1.532 -0.1238  0.5913 -0.1734
 6528TIP3    H141219   3.144   1.934   1.591 -0.4351  0.9675  0.1045
 6528TIP3    H241220   3.106   2.068   1.531  1.6280  2.7425  2.5893
 6529TIP3   OH241221   0.131   5.570   0.617  0.1472  0.1620 -0.1397
 6529TIP3    H141222   0.048   5.594   0.576 -0.3161  1.5564  1.5195
 6529TIP3    H241223   0.197   5.614   0.566 -0.2285  0.0844 -0.7022
 6530TIP3   OH241224   5.246   2.884   7.778  0.8508  0.0863 -0.5485
 6530TIP3    H141225   5.166   2.854   7.734 -0.4044  0.4057  1.4223
 6530TIP3    H241226   5.236   2.857   7.869  1.6259  2.6336  0.3939
 6531TIP3   OH241227   5.788   2.135   7.922 -0.5536  0.3892  0.5165
 6531TIP3    H141228   5.735   2.113   7.846 -0.1909  0.1664  0.3311
 6531TIP3    H241229   5.798   2.230   7.917 -1.8510  0.5926  1.1491
 6532TIP3   OH241230   1.657   5.162   7.626  0.5960 -0.2017 -0.2597
 6532TIP3    H141231   1.684   5.219   7.555 -2.6384  3.2583  0.9640
 6532TIP3    H241232   1.658   5.218   7.704 -0.9720 -2.3000  1.4077
 6533TIP3   OH241233   0.073   5.523   0.322  0.0616  0.1275  0.2452
 6533TIP3    H141234   0.139   5.583   0.286  0.3823 -0.6291 -0.4794
 6533TIP3    H241235   0.002   5.580   0.351  0.9049  0.9436  0.7794
 6534TIP3   OH241236   0.500   6.658   0.473  0.5380  0.3015 -0.8065
 6534TIP3    H141237   0.409   6.688   0.474  0.6220  0.5676 -1.0372
 6534TIP3    H241238   0.540   6.702   0.548 -0.0405 -1.4787  0.6197
 6535TIP3   OH241239   1.578   5.766   0.757  0.0815  0.4778 -0.3555
 6535TIP3    H141240   1.639   5.803   0.693 -0.0630 -1.0144 -1.4118
 6535TIP3    H241241   1.634   5.730   0.825  0.3134  0.4589 -0.5561
 6536TIP3   OH241242   1.985   5.556   3.055  0.0442 -0.8200  0.3627
 6536TIP3    H141243   1.917   5.600   3.106 -0.0287 -1.5542  0.9254
 6536TIP3    H241244   2.051   5.531   3.121  0.6131 -0.5750 -0.1006
 6537TIP3   OH241245   4.538   1.054   7.955  0.2480  0.3608  0.3725
 6537TIP3    H141246   4.449   1.081   7.933 -0.9732 -0.8048  3.3576
 6537TIP3    H241247   4.552   0.974   7.904 -0.4211  0.5326 -0.0880
 6538TIP3   OH241248   6.274   5.855   8.376 -0.0707  0.2124  0.2598
 6538TIP3    H141249   6.307   5.773   8.341 -2.0474  0.3643 -2.2682
 6538TIP3    H241250   6.269   5.913   8.301 -0.6283  2.0159  1.6070
 6539TIP3   OH241251   2.977   3.940   2.602 -0.7432  0.1260 -0.2177
 6539TIP3    H141252   2.899   3.966   2.553 -1.0451 -0.1754  0.0951
 6539TIP3    H241253   3.050   3.965   2.545 -0.9556  2.5751  0.4961
 6540TIP3   OH241254   3.083   3.938   2.306  0.2617 -0.1592 -0.8225
 6540TIP3    H141255   3.161   3.939   2.251  0.4610  0.2000 -0.5361
 6540TIP3    H241256   3.087   4.020   2.356  0.8177 -1.1092  0.7704
 6541TIP3   OH241257   1.411   3.510   0.568  0.3629 -0.2874 -0.3387
 6541TIP3    H141258   1.346   3.497   0.499 -0.0019  1.4610 -0.3762
 6541TIP3    H241259   1.386   3.593   0.609  1.0500 -0.8804  1.3776
 6542TIP3   OH241260   3.412   1.905   2.702  0.2292 -0.7068  0.1981
 6542TIP3    H141261   3.460   1.969   2.754  0.7489 -0.4456 -0.5877
 6542TIP3    H241262   3.398   1.831   2.761  1.2498 -0.6200  0.5619
 6543TIP3   OH241263   5.509   0.603   0.858 -0.0035  0.3110 -0.3555
 6543TIP3    H141264   5.422   0.634   0.886  0.9295  1.6119  1.2835
 6543TIP3    H241265   5.500   0.508   0.855 -1.3925  0.3959  0.1360
 6544TIP3   OH241266   5.745   1.245   7.518 -0.0298 -0.3858 -0.1668
 6544TIP3    H141267   5.761   1.299   7.595  2.5943 -1.1097 -0.1150
 6544TIP3    H241268   5.797   1.286   7.448 -3.2903  0.9800 -2.0072
 6545TIP3   OH241269   6.957   4.561   8.235 -0.1101 -0.4461 -0.0869
 6545TIP3    H141270   6.903   4.620   8.287 -2.3927  0.1555 -2.9108
 6545TIP3    H241271   7.041   4.606   8.226 -0.3215  0.3039  1.3836
 6546TIP3   OH241272   3.592   1.489   1.736 -0.0042  0.2931  0.4146
 6546TIP3    H141273   3.622   1.546   1.807  1.8034 -0.4011  0.2632
 6546TIP3    H241274   3.640   1.408   1.748 -1.2933 -0.6347 -0.3575
 6547TIP3   OH241275   1.041   0.431   0.036  0.2550 -0.1784 -0.5080
 6547TIP3    H141276   0.993   0.442  -0.046 -0.8777 -1.2666 -0.0253
 6547TIP3    H241277   0.978   0.453   0.104  0.5027 -1.3321  0.1294
 6548TIP3   OH241278   2.522   2.563   2.943 -0.1192 -0.1796  0.0476
 6548TIP3    H141279   2.437   2.604   2.928 -0.1063 -0.4234 -0.7128
 6548TIP3    H241280   2.504   2.490   3.002 -0.3237  0.1999  0.4592
 6549TIP3   OH241281   4.767   2.751   1.062 -0.0197  0.2317 -0.0527
 6549TIP3    H141282   4.789   2.684   1.126  2.3334 -0.2041 -1.1862
 6549TIP3    H241283   4.682   2.725   1.027 -0.2924 -0.7531  1.2686
 6550TIP3   OH241284   3.142   2.163   7.277 -0.3750 -0.7813 -0.4368
 6550TIP3    H141285   3.108   2.148   7.189 -0.2417 -1.1027 -0.4323
 6550TIP3    H241286   3.223   2.113   7.281  0.6850  0.8402 -0.8088
 6551TIP3   OH241287   3.787   4.732   2.905 -0.7082  0.1906 -0.5950
 6551TIP3    H141288   3.801   4.817   2.947  0.0430 -0.4892  0.6111
 6551TIP3    H241289   3.720   4.690   2.959 -1.2931  0.1233 -1.3639
 6552TIP3   OH241290   2.021   1.858   0.759 -0.1401  0.3685  0.1419
 6552TIP3    H141291   1.956   1.796   0.727 -0.1106  0.1430  0.5060
 6552TIP3    H241292   2.016   1.851   0.855  1.0449 -0.3296  0.1710
 6553TIP3   OH241293   2.529   5.577   1.018 -0.7332  0.0064  0.1945
 6553TIP3    H141294   2.560   5.604   1.105  1.1215 -1.0094 -0.0908
 6553TIP3    H241295   2.449   5.527   1.036 -0.2292 -0.4266  1.3708
 6554TIP3   OH241296   1.885   3.047   0.641 -0.0757  0.1583 -0.2448
 6554TIP3    H141297   1.954   3.010   0.586 -1.2288  1.6179 -2.8468
 6554TIP3    H241298   1.843   2.970   0.681  0.0260 -1.1089 -2.4333
 6555TIP3   OH241299   0.510   0.689   0.389 -0.1980 -0.5460  0.6554
 6555TIP3    H141300   0.508   0.733   0.304 -0.1696  1.3913  1.5897
 6555TIP3    H241301   0.461   0.608   0.376 -1.2048  0.2654 -0.9236
 6556TIP3   OH241302   3.350   2.757   8.055  0.0754  0.1846  0.5624
 6556TIP3    H141303   3.260   2.763   8.087 -0.5207 -0.7056 -0.8204
 6556TIP3    H241304   3.353   2.673   8.009  1.4120  0.5223 -0.0100
 6557TIP3   OH241305   1.467   5.548   1.627  1.1098  0.2473  0.5309
 6557TIP3    H141306   1.389   5.498   1.654  0.0595  1.5168 -0.0757
 6557TIP3    H241307   1.433   5.621   1.576  2.6809  1.0960  0.6340
 6558TIP3   OH241308   5.406   5.650   1.529 -0.3036 -0.2031  0.3566
 6558TIP3    H141309   5.501   5.645   1.522 -0.3065  0.2481 -0.1280
 6558TIP3    H241310   5.388   5.744   1.534 -0.6673 -0.3152  1.3898
 6559TIP3   OH241311   3.863   2.402   1.550  0.0261  0.1868  0.0622
 6559TIP3    H141312   3.903   2.417   1.635  0.6860 -0.3217 -0.1505
 6559TIP3    H241313   3.934   2.366   1.496 -0.5040  0.0602 -0.5611
 6560TIP3   OH241314   6.946   0.323   7.485 -0.3449  0.1092 -0.1849
 6560TIP3    H141315   6.937   0.378   7.407 -0.9073 -1.1023 -1.0082
 6560TIP3    H241316   6.871   0.264   7.481  0.7441 -1.3459  0.1359
 6561TIP3   OH241317   3.025   5.776   2.118 -0.0649  0.0066  0.2668
 6561TIP3    H141318   2.936   5.797   2.092 -0.3967 -1.3434  0.2550
 6561TIP3    H241319   3.073   5.858   2.107 -1.4941  1.0203  1.1802
 6562TIP3   OH241320   4.653   3.839   1.655 -0.1752  0.0887 -0.1682
 6562TIP3    H141321   4.650   3.794   1.571 -1.5732 -0.4106  0.1134
 6562TIP3    H241322   4.734   3.889   1.653  1.4815 -2.4390 -0.5111
 6563TIP3   OH241323   6.051   1.255   1.572  0.6435 -0.3509  0.1265
 6563TIP3    H141324   6.088   1.167   1.566  2.3412  0.3932 -1.1586
 6563TIP3    H241325   6.075   1.297   1.489 -1.5980  0.7953 -0.0221
 6564TIP3   OH241326   3.032   6.946   0.326 -0.6071 -0.0959 -0.2387
 6564TIP3    H141327   2.942   6.914   0.327 -0.9614  0.8097  1.6713
 6564TIP3    H241328   3.027   7.031   0.370  1.0890  0.2361 -0.6365
 6565TIP3   OH241329   2.314   3.292   0.201  0.1283 -0.2532 -0.2131
 6565TIP3    H141330   2.300   3.357   0.132  0.6560 -0.3368 -0.4103
 6565TIP3    H241331   2.236   3.296   0.255 -0.9792 -1.2166 -1.6639
 6566TIP3   OH241332   4.858   2.436   2.872  0.7022 -0.1044  0.2745
 6566TIP3    H141333   4.853   2.435   2.968  0.7748  0.3358  0.2840
 6566TIP3    H241334   4.775   2.398   2.844 -1.0117  3.0952  0.4939
 6567TIP3   OH241335   3.702   0.379   0.951  0.2093 -0.4123  0.2305
 6567TIP3    H141336   3.673   0.306   0.896  1.6887 -0.8816  0.0369
 6567TIP3    H241337   3.637   0.447   0.935 -1.0641 -1.5807  0.2133
 6568TIP3   OH241338   0.666   0.377   2.568 -0.6300 -0.5393  0.2023
 6568TIP3    H141339   0.716   0.434   2.625  0.7010  0.1499 -1.5561
 6568TIP3    H241340   0.724   0.303   2.550 -0.7864 -0.4525 -0.7199
 6569TIP3   OH241341   5.497   5.267   0.269  0.2122 -0.3794  0.0855
 6569TIP3    H141342   5.427   5.285   0.332  2.0550 -0.1961  2.2176
 6569TIP3    H241343   5.576   5.260   0.323  1.5987 -2.2924 -2.0168
 6570TIP3   OH241344   1.732   1.176   2.273  0.1327 -0.4803  0.1638
 6570TIP3    H141345   1.659   1.233   2.299 -0.9473 -0.8785 -1.8455
 6570TIP3    H241346   1.709   1.090   2.308  0.2601 -0.3472  0.5829
 6571TIP3   OH241347   0.408   6.876   7.405 -0.0869 -0.2491 -0.1938
 6571TIP3    H141348   0.375   6.803   7.458  1.2784 -1.0006 -0.3276
 6571TIP3    H241349   0.391   6.849   7.314  1.2875 -0.8671 -0.2850
 6572TIP3   OH241350   4.565   3.530   0.624 -0.2700 -0.6550  0.2223
 6572TIP3    H141351   4.495   3.563   0.568 -0.7215  1.1476  1.7457
 6572TIP3    H241352   4.631   3.497   0.563 -1.7087 -0.8645 -1.2876
 6573TIP3   OH241353   2.294   5.101   0.096 -0.2716  0.2588 -0.1371
 6573TIP3    H141354   2.271   5.187   0.062  1.8249  1.2700  0.8432
 6573TIP3    H241355   2.265   5.103   0.188  2.5518  1.1901  0.8304
 6574TIP3   OH241356   3.032   3.581   6.856 -0.1990 -0.0794  0.4682
 6574TIP3    H141357   3.105   3.643   6.860  0.2834 -0.4743 -1.1519
 6574TIP3    H241358   3.061   3.515   6.793 -1.3639 -1.0635  0.9339
 6575TIP3   OH241359   5.389   2.327   0.025  0.1743  0.1683  0.2511
 6575TIP3    H141360   5.359   2.265  -0.042  1.4042 -0.2931  0.0973
 6575TIP3    H241361   5.470   2.289   0.058 -0.7204  0.0668  2.4804
 6576TIP3   OH241362   0.445   6.483   8.283  0.0127  0.0402  0.0384
 6576TIP3    H141363   0.406   6.504   8.368  0.0188 -2.8334  0.8545
 6576TIP3    H241364   0.520   6.542   8.276 -0.2898  0.7060  1.7972
 6577TIP3   OH241365   2.550   3.586   8.197  0.0275 -0.1511  0.1862
 6577TIP3    H141366   2.527   3.674   8.168  1.0417  0.5485  1.4088
 6577TIP3    H241367   2.623   3.599   8.258  0.1658 -1.8323  0.4188
 6578TIP3   OH241368   6.463   4.447   1.853 -0.2258  0.2232  0.8610
 6578TIP3    H141369   6.403   4.498   1.907  0.2619  1.1734  0.5357
 6578TIP3    H241370   6.409   4.413   1.783 -0.7318 -0.4576  1.5688
 6579TIP3   OH241371   3.003   5.505   1.981 -0.5775  0.2489 -0.0385
 6579TIP3    H141372   3.032   5.574   2.039  0.8142 -1.2809  1.1761
 6579TIP3    H241373   2.947   5.449   2.035 -0.9791 -0.0641 -0.7523
 6580TIP3   OH241374   4.732   1.062   7.732  0.0943  0.0938  0.4539
 6580TIP3    H141375   4.741   1.153   7.759  0.3798  0.6477 -1.3894
 6580TIP3    H241376   4.821   1.026   7.738 -0.2011 -0.4544  2.3170
 6581TIP3   OH241377   0.184   1.812   0.272  0.6424  1.2690  0.4125
 6581TIP3    H141378   0.118   1.774   0.330  0.6650  2.0856  0.9752
 6581TIP3    H241379   0.267   1.779   0.305  0.5297  0.1481 -0.3646
 6582TIP3   OH241380   6.648   4.909   0.317 -0.3857 -0.0397  0.5425
 6582TIP3    H141381   6.653   4.927   0.411  0.4754 -2.4280  1.0293
 6582TIP3    H241382   6.571   4.852   0.308  0.5068 -1.2225  0.1155
 6583TIP3   OH241383   4.732   6.942   7.625  0.3125 -0.8108 -0.2595
 6583TIP3    H141384   4.681   7.004   7.676  0.0538  0.4639 -1.9640
 6583TIP3    H241385   4.667   6.896   7.571  0.8152  0.2961 -1.8937
 6584TIP3   OH241386   4.228   2.547   0.273  0.2497 -0.5022 -0.4273
 6584TIP3    H141387   4.151   2.598   0.300  0.7168  1.5210 -2.5314
 6584TIP3    H241388   4.191   2.465   0.241 -0.9659  0.0105 -0.4342
 6585TIP3   OH241389   0.204   6.461   7.246 -0.4566  0.6062 -0.0833
 6585TIP3    H141390   0.272   6.453   7.179 -1.8710  0.5073 -1.5521
 6585TIP3    H241391   0.124   6.433   7.203 -1.0019 -2.3765  2.5023
 6586TIP3   OH241392   6.295   5.947   1.915  0.2763 -0.0961 -0.3418
 6586TIP3    H141393   6.324   6.038   1.907  0.2593 -0.0574  0.0179
 6586TIP3    H241394   6.203   5.954   1.942  0.2552 -0.2211 -0.3809
 6587TIP3   OH241395   6.750   0.076   8.207 -0.0156 -0.4912  0.0271
 6587TIP3    H141396   6.731   0.102   8.117 -1.4947  0.6094  0.6196
 6587TIP3    H241397   6.727  -0.018   8.209  0.0595 -0.5387 -0.7448
 6588TIP3   OH241398   3.721   1.695   2.225 -0.6743 -0.0727  0.1505
 6588TIP3    H141399   3.758   1.650   2.301  0.8461 -0.7264 -0.9265
 6588TIP3    H241400   3.705   1.785   2.256  2.8176  0.5735  0.4639
 6589TIP3   OH241401   2.210   2.496   7.166 -0.1119  0.4911 -0.3675
 6589TIP3    H141402   2.141   2.497   7.100 -0.1454  3.0493 -0.3992
 6589TIP3    H241403   2.176   2.440   7.236 -1.9609  1.2101 -0.6522
 6590TIP3   OH241404   4.119   2.331   0.140  0.4007 -0.4405 -0.4115
 6590TIP3    H141405   4.138   2.265   0.207 -1.0306 -0.1162  0.3533
 6590TIP3    H241406   4.091   2.281   0.064 -0.4335 -0.7521  0.0833
 6591TIP3   OH241407   4.439   2.447   2.687 -0.0365  0.3136 -0.2789
 6591TIP3    H141408   4.346   2.464   2.671  0.2199  2.1331  0.0095
 6591TIP3    H241409   4.476   2.532   2.708  1.5761 -0.4932  0.3221
 6592TIP3   OH241410   4.880   5.817   1.901 -0.3068  0.2856  0.1632
 6592TIP3    H141411   4.813   5.864   1.852 -0.4748  0.3225  0.4301
 6592TIP3    H241412   4.945   5.885   1.923  0.0357  0.1712 -0.4616
 6593TIP3   OH241413   4.044   3.671   1.249  0.1267  0.9821 -0.0269
 6593TIP3    H141414   4.080   3.630   1.170 -0.4081 -1.7590  1.0675
 6593TIP3    H241415   3.987   3.740   1.215 -0.3605 -0.3368 -2.0812
 6594TIP3   OH241416   1.962   3.944   2.651 -0.1651  0.1892  0.3865
 6594TIP3    H141417   1.990   3.975   2.565 -0.0798  0.6530  0.5803
 6594TIP3    H241418   1.868   3.929   2.641  0.2371 -2.0991 -0.4848
 6595TIP3   OH241419   0.258   1.449   0.324 -0.0257  0.0935  0.4284
 6595TIP3    H141420   0.166   1.437   0.303  0.1927 -1.3516  0.1587
 6595TIP3    H241421   0.303   1.444   0.239  0.4629 -1.3313  0.7375
 6596TIP3   OH241422   3.510   3.567   2.146  0.7771  0.2577 -0.0783
 6596TIP3    H141423   3.574   3.634   2.171  1.4193 -0.6356  0.7554
 6596TIP3    H241424   3.528   3.493   2.205 -0.5326 -0.3003 -0.3401
 6597TIP3   OH241425   0.821   2.512   2.178  0.0200  0.2531  0.3496
 6597TIP3    H141426   0.847   2.540   2.090 -1.5434  0.2380 -0.1576
 6597TIP3    H241427   0.815   2.417   2.171  3.3601 -0.1732  1.5150
 6598TIP3   OH241428   5.766   3.304   2.502 -0.4721 -0.0554  0.1293
 6598TIP3    H141429   5.859   3.282   2.508 -0.4281  0.2849  0.7984
 6598TIP3    H241430   5.723   3.221   2.484 -0.3752 -0.8764  3.0919
 6599TIP3   OH241431   1.000   0.952   1.555 -0.5631  0.7917  0.5143
 6599TIP3    H141432   1.035   1.026   1.505  0.2382 -0.8095 -1.4045
 6599TIP3    H241433   0.908   0.946   1.528 -0.1516 -0.0251 -0.7967
 6600TIP3   OH241434   3.636   3.361   2.637 -0.5326  1.1554 -0.5074
 6600TIP3    H141435   3.613   3.434   2.580 -0.7045  0.3432 -1.4883
 6600TIP3    H241436   3.647   3.401   2.724  0.5441  2.5316 -1.2464
 6601TIP3   OH241437   3.346   4.505   1.008  0.3546  0.9101  0.1359
 6601TIP3    H141438   3.414   4.503   0.941  0.3196  0.6601  0.1059
 6601TIP3    H241439   3.270   4.463   0.968  0.6537 -0.1986  0.6596
 6602TIP3   OH241440   0.262   4.076   3.174 -0.1089  0.7992  0.4878
 6602TIP3    H141441   0.342   4.065   3.122  0.1365  2.0791  0.5396
 6602TIP3    H241442   0.215   4.147   3.130 -0.3410  1.2651  1.4625
 6603TIP3   OH241443   2.317   1.140   7.536  0.5680  0.5031 -0.4108
 6603TIP3    H141444   2.405   1.166   7.510  0.7620 -0.4644 -0.7619
 6603TIP3    H241445   2.266   1.143   7.455  0.7463 -0.7862 -0.5913
 6604TIP3   OH241446   0.644   5.821   8.269  0.1836  0.2128  0.0959
 6604TIP3    H141447   0.738   5.809   8.279  0.8075  2.0249 -2.4242
 6604TIP3    H241448   0.635   5.862   8.183 -2.9075  0.3133  0.3711
 6605TIP3   OH241449   2.572   6.186   2.388  0.2244 -0.0849 -0.2294
 6605TIP3    H141450   2.529   6.115   2.339  0.4197 -1.1474  1.0747
 6605TIP3    H241451   2.629   6.227   2.324  0.0896 -1.0904 -1.0393
 6606TIP3   OH241452   0.421   3.463   0.793 -0.2732 -0.6942 -0.0269
 6606TIP3    H141453   0.482   3.391   0.778 -0.5892 -1.0774  0.5355
 6606TIP3    H241454   0.475   3.532   0.832  0.1442 -0.4071 -1.0496
 6607TIP3   OH241455   5.156   3.415   1.240 -0.2432 -0.0826  0.0181
 6607TIP3    H141456   5.109   3.424   1.157  0.3217 -0.0812 -0.3022
 6607TIP3    H241457   5.155   3.321   1.258  1.5327 -0.3615 -1.1121
 6608TIP3   OH241458   0.336   1.405   2.040 -0.1632  0.3069 -0.1461
 6608TIP3    H141459   0.319   1.465   1.967  1.8093 -0.5503 -1.4061
 6608TIP3    H241460   0.400   1.450   2.095 -1.9310  1.1134  1.3529
 6609TIP3   OH241461   0.440   1.787   1.030  0.5354 -0.3278  0.0993
 6609TIP3    H141462   0.407   1.826   0.950 -0.7329 -0.1773  0.6653
 6609TIP3    H241463   0.470   1.700   1.004  1.1623  0.1157 -0.7181
 6610TIP3   OH241464   0.812   2.904   1.698 -0.1954 -0.1261  0.0624
 6610TIP3    H141465   0.768   2.912   1.613  1.0615  0.1793 -0.5910
 6610TIP3    H241466   0.748   2.936   1.761 -1.0664 -0.1188 -0.7966
 6611TIP3   OH241467   6.605   1.395   1.788  0.2594 -0.1711 -0.8830
 6611TIP3    H141468   6.569   1.311   1.759 -1.0263  0.3968 -1.0062
 6611TIP3    H241469   6.537   1.432   1.844  0.2906  1.3051 -1.7686
 6612TIP3   OH241470   2.444   6.139   7.979  0.5520 -0.0566  0.7044
 6612TIP3    H141471   2.531   6.173   7.958  0.7506 -0.6237  0.5867
 6612TIP3    H241472   2.395   6.215   8.011  0.7407  0.4895 -0.2863
 6613TIP3   OH241473   5.307   6.228   7.457 -0.2108 -0.2841  0.3919
 6613TIP3    H141474   5.231   6.238   7.400 -1.2144  0.0896  1.7495
 6613TIP3    H241475   5.318   6.314   7.498 -1.2375 -1.2080  2.8067
 6614TIP3   OH241476   5.205   2.208   2.222 -0.0195 -0.0875  0.0700
 6614TIP3    H141477   5.188   2.230   2.313  0.1377 -0.8609  0.2919
 6614TIP3    H241478   5.284   2.154   2.224  0.6440  0.8114 -0.6402
 6615TIP3   OH241479   5.412   3.444   6.973 -0.3376 -0.0155  0.1929
 6615TIP3    H141480   5.447   3.378   6.914  0.0547  0.9860 -0.7432
 6615TIP3    H241481   5.487   3.501   6.991 -0.6956  0.2442  0.8755
 6616TIP3   OH241482   4.572   3.945   0.396 -0.1152 -0.0711  0.1723
 6616TIP3    H141483   4.643   4.001   0.362 -0.5646 -0.5809 -1.7327
 6616TIP3    H241484   4.492   3.991   0.372 -0.4635 -0.4132  0.6604
 6617TIP3   OH241485   6.358   6.942   2.602  0.0087 -0.2209 -0.2440
 6617TIP3    H141486   6.424   7.010   2.590  0.2869 -0.0175  2.0484
 6617TIP3    H241487   6.385   6.872   2.543  0.4601  1.0914 -1.6736
 6618TIP3   OH241488   4.361   5.084   1.078  0.2757 -0.1870 -0.1097
 6618TIP3    H141489   4.361   5.130   1.162  0.1784  0.7344 -0.6054
 6618TIP3    H241490   4.414   5.139   1.020 -0.7660 -0.1038 -1.0270
 6619TIP3   OH241491   4.237   4.572   0.754 -0.4757  0.6154 -0.5224
 6619TIP3    H141492   4.150   4.532   0.756 -0.8974  1.5077  0.1338
 6619TIP3    H241493   4.280   4.540   0.833  0.1603 -0.5585 -1.3143
 6620TIP3   OH241494   5.109   2.146   0.368 -0.8185 -0.4503 -0.5234
 6620TIP3    H141495   5.125   2.132   0.462  1.7679  2.8910 -0.3095
 6620TIP3    H241496   5.150   2.070   0.326  1.7778  0.0208  0.9433
 6621TIP3   OH241497   3.271   6.234   1.738  0.5076  0.1394 -0.3451
 6621TIP3    H141498   3.218   6.286   1.800 -2.2810 -1.4716 -1.1933
 6621TIP3    H241499   3.279   6.291   1.661 -0.1693  0.3392 -0.2752
 6622TIP3   OH241500   1.856   6.465   2.795 -0.5400  0.2420  0.0536
 6622TIP3    H141501   1.901   6.533   2.744 -1.1221 -0.2286 -1.1102
 6622TIP3    H241502   1.911   6.455   2.873 -0.0727  1.5577 -0.0693
 6623TIP3   OH241503   2.072   6.326   1.914 -0.6181  0.4791 -0.2181
 6623TIP3    H141504   2.138   6.313   1.983  0.4887  0.8189 -1.1889
 6623TIP3    H241505   2.020   6.245   1.917  0.0391  0.0550  0.3524
 6624TIP3   OH241506   4.294   0.230   7.622 -0.0781  0.3003 -0.1709
 6624TIP3    H141507   4.329   0.317   7.640 -2.4469  1.3875 -0.4561
 6624TIP3    H241508   4.242   0.240   7.543  0.0731 -1.5316 -0.5632
 6625TIP3   OH241509   5.943   6.230   2.610 -1.0020  0.1899 -0.0170
 6625TIP3    H141510   5.997   6.269   2.541  0.1645  1.8952  1.7261
 6625TIP3    H241511   5.859   6.214   2.569 -1.6651  4.7456 -0.9965
 6626TIP3   OH241512   1.849   4.270   0.199  0.5638 -0.2183 -0.9198
 6626TIP3    H141513   1.828   4.362   0.217  1.2615  0.0744 -1.5454
 6626TIP3    H241514   1.786   4.221   0.252  0.0142  0.6157 -0.7669
 6627TIP3   OH241515   4.385   6.573   2.244  0.1744  0.3583 -0.6655
 6627TIP3    H141516   4.401   6.605   2.333  0.3467  0.4529 -0.7301
 6627TIP3    H241517   4.330   6.640   2.204  1.3546  1.0784 -1.1246
 6628TIP3   OH241518   2.799   1.509   1.467 -0.3905 -0.2609 -0.3373
 6628TIP3    H141519   2.781   1.415   1.464 -0.4942 -0.2534  0.0057
 6628TIP3    H241520   2.886   1.515   1.506 -0.4971 -0.2013 -0.1095
 6629TIP3   OH241521   4.745   5.089   0.596  0.1831 -0.8925  0.2362
 6629TIP3    H141522   4.678   5.022   0.602 -1.1501  0.3949  0.3540
 6629TIP3    H241523   4.803   5.060   0.526  0.0775 -2.5068  0.7770
 6630TIP3   OH241524   2.234   4.902   1.909 -0.1089  0.8197 -0.1830
 6630TIP3    H141525   2.225   4.815   1.950  0.4265  1.5047  1.4815
 6630TIP3    H241526   2.235   4.884   1.815  0.4013 -1.0215  0.1273
 6631TIP3   OH241527   6.597   4.271   1.493 -0.2177  0.5209  0.0825
 6631TIP3    H141528   6.535   4.226   1.550  1.7144 -0.8981  1.1688
 6631TIP3    H241529   6.633   4.202   1.438  0.7995  1.2190 -0.1394
 6632TIP3   OH241530   3.491   3.775   2.756  0.3628 -0.0211  0.2371
 6632TIP3    H141531   3.442   3.706   2.711  0.4273 -0.9317  1.5160
 6632TIP3    H241532   3.583   3.753   2.743  0.4006  0.3178 -0.0881
 6633TIP3   OH241533   3.873   4.142   0.223  0.2622  0.2189  0.1521
 6633TIP3    H141534   3.928   4.218   0.203  0.6639 -0.3234 -0.8769
 6633TIP3    H241535   3.785   4.178   0.230  0.7579  1.1602  2.2062
 6634TIP3   OH241536   2.067   0.598   7.377  0.2782 -0.4248 -0.9605
 6634TIP3    H141537   2.054   0.666   7.310 -3.4128  0.4526  0.4331
 6634TIP3    H241538   2.005   0.529   7.354 -0.2636 -0.6014  0.8907
 6635TIP3   OH241539   4.892   0.531   7.814 -0.3247  0.4303 -0.1919
 6635TIP3    H141540   4.867   0.623   7.804  0.7124  0.9685  1.7251
 6635TIP3    H241541   4.966   0.532   7.875 -0.5445 -1.7143  0.2053
 6636TIP3   OH241542   5.831   0.677   7.368  0.5691 -0.6514  0.2038
 6636TIP3    H141543   5.840   0.604   7.429 -0.8243  0.1787  1.4685
 6636TIP3    H241544   5.786   0.640   7.293 -2.0530 -0.7305  1.6952
 6637TIP3   OH241545   0.457   6.088   8.081  0.6354  0.4543  0.3583
 6637TIP3    H141546   0.442   5.994   8.073 -0.1491  0.7250 -2.5041
 6637TIP3    H241547   0.536   6.105   8.030  1.6236  1.1826  2.0728
 6638TIP3   OH241548   4.370   6.584   7.635  0.0749  0.2249 -0.5348
 6638TIP3    H141549   4.390   6.666   7.680 -0.8067 -0.5090  1.2810
 6638TIP3    H241550   4.344   6.523   7.704 -0.8293 -1.1370 -1.9765
 6639TIP3   OH241551   2.805   1.383   2.822 -0.0393 -0.0737 -0.1363
 6639TIP3    H141552   2.781   1.467   2.782 -0.0569  0.3225  0.6802
 6639TIP3    H241553   2.901   1.381   2.818 -0.0190  0.1611  0.1769
 6640TIP3   OH241554   2.132   1.871   2.423  0.1630 -0.0712  0.2192
 6640TIP3    H141555   2.104   1.834   2.507  0.9159 -0.5599  0.2628
 6640TIP3    H241556   2.218   1.908   2.440  0.3195 -0.1669 -0.3420
 6641TIP3   OH241557   1.995   4.353   0.655 -0.4125  0.1349 -0.5196
 6641TIP3    H141558   2.065   4.302   0.615 -1.5064 -0.1409 -2.1964
 6641TIP3    H241559   2.017   4.444   0.636  0.1746  0.1383  0.1490
 6642TIP3   OH241560   2.692   3.828   1.596 -0.1508 -0.3725  0.1908
 6642TIP3    H141561   2.715   3.817   1.504 -1.1754  1.4576 -0.3192
 6642TIP3    H241562   2.748   3.899   1.627 -2.2793  1.5014 -0.0413
 6643TIP3   OH241563   2.934   5.117   1.837  0.4048  0.1893 -0.0812
 6643TIP3    H141564   2.915   5.105   1.744  1.6297  0.0063 -0.3241
 6643TIP3    H241565   2.848   5.129   1.878 -0.2744 -1.3349 -0.9945
 6644TIP3   OH241566   4.283   1.462   2.065 -0.3954  0.0410  0.1183
 6644TIP3    H141567   4.326   1.526   2.122  0.1851 -0.6235  0.4364
 6644TIP3    H241568   4.196   1.450   2.104 -0.4981  0.6031  0.0750
 6645TIP3   OH241569   2.536   1.397   7.244  0.2988  0.3497  0.2253
 6645TIP3    H141570   2.445   1.380   7.222  0.5272  0.5614 -0.9388
 6645TIP3    H241571   2.550   1.489   7.222  0.1446  1.0346  2.7444
 6646TIP3   OH241572   3.542   1.532   2.446 -0.0685  0.4302  0.1373
 6646TIP3    H141573   3.559   1.487   2.529 -2.1549  1.8848  1.4690
 6646TIP3    H241574   3.562   1.624   2.464  0.9150  0.5770 -1.4844
 6647TIP3   OH241575   5.756   5.565   1.781 -0.0125  0.6130  0.1949
 6647TIP3    H141576   5.782   5.538   1.693  1.2940  0.1249  0.7089
 6647TIP3    H241577   5.698   5.640   1.767 -0.3382  0.1412 -1.0967
 6648TIP3   OH241578   1.752   1.783   0.459 -0.1146  0.1627 -0.0170
 6648TIP3    H141579   1.658   1.803   0.449 -0.4456 -0.8159  0.9331
 6648TIP3    H241580   1.795   1.868   0.454 -1.1729  0.7657  0.6976
 6649TIP3   OH241581   0.770   3.493   2.606 -0.0446 -0.7212 -0.3068
 6649TIP3    H141582   0.786   3.511   2.699  0.1598  0.6381 -0.5721
 6649TIP3    H241583   0.818   3.413   2.588  0.4900 -0.6225  0.5998
 6650TIP3   OH241584   5.683   2.982   2.972 -0.0406  0.5416  0.2986
 6650TIP3    H141585   5.755   2.919   2.973  0.6250  1.1938 -1.4816
 6650TIP3    H241586   5.613   2.939   3.020  1.1645 -0.5735  1.1476
 6651TIP3   OH241587   2.896   5.564   7.416 -0.0589  0.9113  0.1956
 6651TIP3    H141588   2.877   5.481   7.373 -2.4893 -0.1434  2.9168
 6651TIP3    H241589   2.973   5.545   7.470 -1.0693  0.0315  1.4291
 6652TIP3   OH241590   4.857   1.839   2.071  0.2548 -0.4165 -0.4467
 6652TIP3    H141591   4.928   1.779   2.095  1.7408  1.8652  1.3780
 6652TIP3    H241592   4.858   1.905   2.141 -3.0076  0.3110 -0.9438
 6653TIP3   OH241593   5.724   4.843   7.725  0.3920  0.3448  0.1492
 6653TIP3    H141594   5.808   4.828   7.769 -0.4708 -0.7496  1.4821
 6653TIP3    H241595   5.731   4.795   7.643  1.0618  0.2752  0.2429
 6654TIP3   OH241596   5.471   3.121   6.994  0.3112 -0.0074 -0.1456
 6654TIP3    H141597   5.565   3.127   7.005  0.6543  0.4295 -2.7279
 6654TIP3    H241598   5.459   3.060   6.921 -1.3521  0.6830 -0.5006
 6655TIP3   OH241599   3.356   3.326   8.309 -0.0152 -0.0047  0.1447
 6655TIP3    H141600   3.450   3.339   8.300  0.5654 -1.4875  2.9299
 6655TIP3    H241601   3.318   3.414   8.303  1.4362  0.5645 -1.4964
 6656TIP3   OH241602   1.540   5.661   2.596 -0.9692 -0.0733  0.4577
 6656TIP3    H141603   1.612   5.650   2.658 -0.2623  0.9776 -0.1441
 6656TIP3    H241604   1.543   5.583   2.541  1.7306  1.3192 -1.5472
 6657TIP3   OH241605   6.865   0.070   7.882  0.1766  0.0865  0.0196
 6657TIP3    H141606   6.925   0.033   7.816  0.0483 -0.6553  0.3008
 6657TIP3    H241607   6.800   0.001   7.896 -0.8984  0.9766 -0.4560
 6658TIP3   OH241608   0.447   4.463   7.266  0.0056  0.2981 -0.3526
 6658TIP3    H141609   0.394   4.542   7.271 -0.2763  0.3212 -2.6182
 6658TIP3    H241610   0.488   4.455   7.352 -1.4025  1.8716  0.5069
 6659TIP3   OH241611   3.213   5.878   2.374  0.0605  0.0923 -0.4354
 6659TIP3    H141612   3.272   5.808   2.402 -0.0057 -0.0873 -0.7385
 6659TIP3    H241613   3.256   5.959   2.401 -0.1264 -0.0855  0.4174
 6660TIP3   OH241614   6.397   1.976   7.095 -0.0729  0.4561  0.4973
 6660TIP3    H141615   6.341   2.006   7.167 -3.1105 -0.0021 -1.4709
 6660TIP3    H241616   6.449   2.053   7.072 -1.3929  1.5948  1.1315
 6661TIP3   OH241617   1.262   4.360   7.735 -0.2162  0.0515 -0.1810
 6661TIP3    H141618   1.245   4.366   7.641  0.3654 -1.5277 -0.4270
 6661TIP3    H241619   1.300   4.272   7.747 -2.3016 -0.6852  1.8181
 6662TIP3   OH241620   1.771   6.973   0.132 -0.2823  0.2160  0.2741
 6662TIP3    H141621   1.701   7.004   0.189  0.9115  0.2725  1.7847
 6662TIP3    H241622   1.779   7.041   0.065  0.7906  2.2201  2.2519
 6663TIP3   OH241623   3.182   0.407   7.943 -0.2368  0.2123  0.2802
 6663TIP3    H141624   3.236   0.486   7.953  0.3671 -0.1592  0.0508
 6663TIP3    H241625   3.094   0.434   7.968 -0.4059  1.4291 -1.4774
 6664TIP3   OH241626   4.308   1.444   1.590  0.2218 -0.2260  0.4498
 6664TIP3    H141627   4.218   1.469   1.611 -0.0008 -0.1247 -0.5693
 6664TIP3    H241628   4.348   1.524   1.555 -0.5206 -1.1608 -2.9173
 6665TIP3   OH241629   5.328   5.072   7.329  0.3253  0.1641 -0.3791
 6665TIP3    H141630   5.368   5.155   7.304 -0.5591  0.0475 -2.3421
 6665TIP3    H241631   5.244   5.071   7.284  0.3775 -1.8469 -0.5337
 6666TIP3   OH241632   1.824   6.685   8.148  0.4770 -0.2063 -0.2128
 6666TIP3    H141633   1.835   6.767   8.100  0.1071  1.1683  1.8908
 6666TIP3    H241634   1.746   6.644   8.110 -1.2063  1.9855  0.6422
 6667TIP3   OH241635   5.736   4.236   2.433 -0.5399 -0.0593 -0.5768
 6667TIP3    H141636   5.716   4.147   2.405 -0.4508  0.1818 -1.4239
 6667TIP3    H241637   5.678   4.291   2.381  0.4785  0.4758 -1.1625
 6668TIP3   OH241638   4.175   3.910   2.500  0.1622 -0.1502 -0.0299
 6668TIP3    H141639   4.186   3.923   2.594  0.4313  0.2574 -0.1157
 6668TIP3    H241640   4.224   3.981   2.459  0.6523 -0.7367 -0.4963
 6669TIP3   OH241641   5.694   4.440   2.841  0.3783 -0.3050  0.2921
 6669TIP3    H141642   5.664   4.389   2.917 -0.5318 -1.2578 -0.6603
 6669TIP3    H241643   5.734   4.375   2.783  0.8571  0.3742 -0.1525
 6670TIP3   OH241644   6.171   2.608   0.522 -0.0402 -0.2383 -0.4722
 6670TIP3    H141645   6.239   2.660   0.565  0.6147 -0.5132 -1.1568
 6670TIP3    H241646   6.218   2.542   0.472 -0.8658 -2.0253  0.9727
 6671TIP3   OH241647   1.065   1.964   1.019 -0.1610 -0.3299 -0.0481
 6671TIP3    H141648   1.026   1.895   1.073  0.2447 -0.8848 -0.4569
 6671TIP3    H241649   1.021   2.044   1.048 -2.2641 -1.0311 -1.1096
 6672TIP3   OH241650   5.530   2.464   2.227  0.3513 -0.3671 -0.3907
 6672TIP3    H141651   5.471   2.434   2.296  0.8290 -0.3002  0.0549
 6672TIP3    H241652   5.618   2.449   2.262  0.6100 -1.2894 -1.4116
 6673TIP3   OH241653   4.080   0.143   1.803  0.3948 -0.0608 -0.1045
 6673TIP3    H141654   4.107   0.118   1.892  2.0417  0.3976 -0.4524
 6673TIP3    H241655   4.092   0.238   1.800  2.1394 -0.2761 -1.3624
 6674TIP3   OH241656   5.446   5.518   0.924  0.3103 -0.3991  0.4873
 6674TIP3    H141657   5.540   5.528   0.937  0.1812  0.7102  0.6535
 6674TIP3    H241658   5.416   5.471   1.002  0.5444  0.3556  1.0451
 6675TIP3   OH241659   6.453   5.984   0.159 -0.2163 -0.0418  0.4404
 6675TIP3    H141660   6.397   6.011   0.232 -0.6447  0.3118 -0.0066
 6675TIP3    H241661   6.391   5.950   0.094  0.0994  0.2065  0.0043
 6676TIP3   OH241662   3.272   3.280   1.165  0.2889 -0.3098  1.0813
 6676TIP3    H141663   3.208   3.267   1.235 -0.0276 -1.4496  0.6049
 6676TIP3    H241664   3.228   3.251   1.085  1.2642 -0.7898  0.6914
 6677TIP3   OH241665   0.605   4.514   8.009  0.3699  0.3609 -0.3671
 6677TIP3    H141666   0.667   4.489   8.078 -0.8324  1.0942  1.0560
 6677TIP3    H241667   0.519   4.497   8.047 -0.3389  0.4593 -1.8470
 6678TIP3   OH241668   4.373   1.128   0.891 -0.8831 -0.0051 -0.3552
 6678TIP3    H141669   4.343   1.188   0.960 -1.4164  0.5164 -1.0165
 6678TIP3    H241670   4.300   1.066   0.880 -0.3824 -0.7163  0.2432
 6679TIP3   OH241671   5.444   5.270   7.581  0.0600  0.5714  0.1412
 6679TIP3    H141672   5.538   5.253   7.579  0.1423  1.0552 -0.1688
 6679TIP3    H241673   5.434   5.358   7.544 -0.2911  1.4783  2.2095
 6680TIP3   OH241674   6.463   3.028   0.494 -0.0787 -0.0593 -0.0153
 6680TIP3    H141675   6.461   3.030   0.399  0.6080 -0.8020 -0.0585
 6680TIP3    H241676   6.549   3.064   0.517 -0.5484  0.8575  0.3652
 6681TIP3   OH241677   3.793   0.452   2.844 -0.0332  0.2398  0.2974
 6681TIP3    H141678   3.785   0.357   2.832  1.5670  0.2481 -1.2056
 6681TIP3    H241679   3.824   0.461   2.935  0.5845 -0.7445  0.2039
 6682TIP3   OH241680   6.502   5.941   0.703  0.0361 -0.1109  0.1120
 6682TIP3    H141681   6.440   5.918   0.773  0.0868  1.5605  0.7542
 6682TIP3    H241682   6.494   5.869   0.640 -3.4647  0.5335 -0.4258
 6683TIP3   OH241683   2.906   5.199   1.485 -0.2262  0.0144 -0.7707
 6683TIP3    H141684   2.991   5.229   1.515 -0.8545 -0.0453  1.2097
 6683TIP3    H241685   2.854   5.279   1.475 -0.4108 -0.0530 -0.3760
 6684TIP3   OH241686   5.109   4.298   7.735  0.3934 -0.5480 -0.4924
 6684TIP3    H141687   5.022   4.322   7.768  0.5964 -1.3827  0.7248
 6684TIP3    H241688   5.140   4.377   7.690 -0.8580 -0.1346 -0.6683
 6685TIP3   OH241689   6.931   0.015   2.392 -0.3803  0.5434  0.1562
 6685TIP3    H141690   7.012   0.007   2.341  1.0438  1.2080  2.1846
 6685TIP3    H241691   6.862   0.026   2.326  1.2201  0.3861 -1.6289
 6686TIP3   OH241692   3.235   4.711   7.077  0.5179 -0.3248  0.0733
 6686TIP3    H141693   3.287   4.638   7.043 -0.5212 -1.3693  0.6228
 6686TIP3    H241694   3.223   4.769   7.002 -0.8447 -2.0555 -1.1344
 6687TIP3   OH241695   2.240   3.636   7.718  0.2986 -0.2248  0.5330
 6687TIP3    H141696   2.183   3.620   7.794  0.8739 -1.5671  0.7224
 6687TIP3    H241697   2.289   3.715   7.741 -0.6828  0.3101  0.8459
 6688TIP3   OH241698   4.277   5.113   1.526 -0.4846 -0.0232  0.3019
 6688TIP3    H141699   4.370   5.088   1.520 -0.2261  0.8019  0.6945
 6688TIP3    H241700   4.238   5.048   1.584  0.0567  0.1673  0.8921
 6689TIP3   OH241701   4.792   6.712   8.381 -0.7726 -0.6142  0.1204
 6689TIP3    H141702   4.772   6.725   8.289  0.8322 -0.3602 -0.2259
 6689TIP3    H241703   4.888   6.714   8.385 -0.7947 -1.2654  1.6942
 6690TIP3   OH241704   3.409   0.850   1.876  0.8654  0.3697 -0.2201
 6690TIP3    H141705   3.345   0.921   1.864  0.2547 -0.3706 -1.6045
 6690TIP3    H241706   3.399   0.825   1.968  0.1539  1.1950 -0.0524
 6691TIP3   OH241707   5.395   5.491   1.966  0.1650  0.9396  0.0133
 6691TIP3    H141708   5.408   5.432   2.040  2.6889 -1.6989 -2.2997
 6691TIP3    H241709   5.477   5.540   1.958  0.2035  0.7019 -1.3739
 6692TIP3   OH241710   1.613   3.302   1.345  0.2848 -0.4041  0.0926
 6692TIP3    H141711   1.689   3.293   1.402  0.6940 -1.6004 -0.6001
 6692TIP3    H241712   1.539   3.273   1.399  0.2900  0.8742  0.8057
 6693TIP3   OH241713   0.749   4.822   6.703  0.1188 -0.6066 -0.0845
 6693TIP3    H141714   0.792   4.908   6.696 -1.0785  0.1904  1.6579
 6693TIP3    H241715   0.791   4.780   6.778 -0.5099 -0.7732  0.1868
 6694TIP3   OH241716   5.521   4.111   7.240  0.8068  0.0759 -0.2182
 6694TIP3    H141717   5.469   4.033   7.261 -0.1339  0.9353  0.7429
 6694TIP3    H241718   5.594   4.077   7.188 -0.3622 -1.2440 -1.0805
 6695TIP3   OH241719   0.472   3.349   2.055  0.5183 -0.1328  0.1526
 6695TIP3    H141720   0.392   3.347   2.108  0.1232  1.2034 -0.3380
 6695TIP3    H241721   0.485   3.259   2.027 -0.1284 -0.5820  1.2514
 6696TIP3   OH241722   3.239   5.776   8.014 -0.0891  0.1407  0.1775
 6696TIP3    H141723   3.257   5.859   7.969  0.6419 -1.0400 -1.8495
 6696TIP3    H241724   3.185   5.727   7.952  0.7466 -1.4597  0.6736
 6697TIP3   OH241725   1.327   0.236   0.245 -0.4982 -0.1958 -0.4391
 6697TIP3    H141726   1.244   0.211   0.285 -0.2776 -2.1450 -1.1158
 6697TIP3    H241727   1.337   0.177   0.171  1.0430  0.6501 -0.9549
 6698TIP3   OH241728   1.211   1.275   2.019 -0.2913  0.0557  0.5115
 6698TIP3    H141729   1.279   1.260   2.085 -0.4686 -0.7283  0.5299
 6698TIP3    H241730   1.257   1.266   1.935 -0.5279 -1.4520  0.5050
 6699TIP3   OH241731   0.251   5.352   2.161 -0.1907 -0.2474 -0.3701
 6699TIP3    H141732   0.235   5.445   2.172 -1.5555 -0.3413 -1.3422
 6699TIP3    H241733   0.340   5.346   2.127  0.1066  0.6537  0.2299
 6700TIP3   OH241734   2.936   2.196   8.015  0.4645  0.2406  0.2944
 6700TIP3    H141735   2.943   2.174   8.108 -1.2493  1.6533  0.8007
 6700TIP3    H241736   2.884   2.124   7.978 -1.0018  0.9194  0.9671
 6701TIP3   OH241737   3.022   4.552   1.334  1.3581  0.1976  0.1356
 6701TIP3    H141738   3.023   4.481   1.269 -0.7688 -0.3402  0.6351
 6701TIP3    H241739   3.049   4.629   1.284 -0.2169 -0.2008 -1.4220
 6702TIP3   OH241740   3.457   3.777   7.569 -0.0230 -0.5684  0.4527
 6702TIP3    H141741   3.435   3.827   7.490 -1.2585 -0.7588  0.6551
 6702TIP3    H241742   3.478   3.690   7.537  0.0756 -0.4839  0.2849
 6703TIP3   OH241743   5.291   6.253   0.853  0.3642  0.4101 -0.1684
 6703TIP3    H141744   5.372   6.300   0.872 -0.8886  1.7637  2.3132
 6703TIP3    H241745   5.229   6.321   0.826 -1.1370  0.1528  2.3159
 6704TIP3   OH241746   0.936   3.679   2.330 -0.3782 -0.3686  0.1999
 6704TIP3    H141747   0.931   3.715   2.418 -2.9206 -0.8242  0.3337
 6704TIP3    H241748   0.847   3.690   2.295  0.1986 -1.4843 -1.7703
 6705TIP3   OH241749   5.856   6.145   1.640  0.0552  0.3532 -0.2142
 6705TIP3    H141750   5.950   6.144   1.623  0.3400  0.4923  1.2780
 6705TIP3    H241751   5.846   6.201   1.717 -0.9477 -1.8220  1.3268
 6706TIP3   OH241752   0.474   6.466   2.166 -0.1771  0.0223 -0.5645
 6706TIP3    H141753   0.406   6.432   2.224 -0.0750 -1.6883 -1.3847
 6706TIP3    H241754   0.555   6.427   2.198  0.1411  0.4927 -0.7816
 6707TIP3   OH241755   2.147   5.457   3.250  0.5097  0.1358 -0.7243
 6707TIP3    H141756   2.136   5.493   3.338 -0.4475  0.7852 -1.0871
 6707TIP3    H241757   2.190   5.373   3.263 -1.2578 -0.6300  0.5460
 6708TIP3   OH241758   0.332   2.949   0.414  0.5860  0.0195 -0.2658
 6708TIP3    H141759   0.308   2.869   0.461 -1.0199 -0.2205 -1.4295
 6708TIP3    H241760   0.277   2.949   0.336  0.4291  2.3336 -0.2389
 6709TIP3   OH241761   0.651   3.095   1.350 -0.4297 -0.0868  0.1330
 6709TIP3    H141762   0.628   3.015   1.398  1.9095 -2.0015 -1.6710
 6709TIP3    H241763   0.676   3.064   1.263 -1.4050  2.8912 -1.3258
 6710TIP3   OH241764   5.126   6.461   1.048  0.0886 -0.5587 -0.3850
 6710TIP3    H141765   5.100   6.396   0.983  1.2163 -1.6407  0.1988
 6710TIP3    H241766   5.189   6.416   1.104 -0.3144  0.5434  1.0475
 6711TIP3   OH241767   2.571   0.209   2.036 -0.6378  0.8032 -0.0807
 6711TIP3    H141768   2.639   0.262   2.077  0.6636  0.2510 -1.4452
 6711TIP3    H241769   2.550   0.142   2.102 -0.5748  1.5501  0.7163
 6712TIP3   OH241770   0.604   6.887   0.610  0.1999  0.9346  0.8303
 6712TIP3    H141771   0.675   6.828   0.635  0.2633  0.9092  0.5951
 6712TIP3    H241772   0.634   6.928   0.529 -0.3530  0.3840  0.3299
 6713TIP3   OH241773   2.468   6.354   2.117 -0.0942 -0.1376 -0.2998
 6713TIP3    H141774   2.380   6.331   2.147 -1.1331  1.8573 -1.6527
 6713TIP3    H241775   2.490   6.286   2.053 -1.5042  0.4233 -1.4261
 6714TIP3   OH241776   5.783   1.240   1.943  0.4405  0.0888  0.3901
 6714TIP3    H141777   5.806   1.147   1.950 -0.2671 -0.1064  0.2422
 6714TIP3    H241778   5.863   1.282   1.912  1.5561 -0.0898  2.7569
 6715TIP3   OH241779   4.512   3.466   2.003 -0.2976 -0.4109 -0.0985
 6715TIP3    H141780   4.602   3.459   1.971 -0.8961 -2.4902 -1.5939
 6715TIP3    H241781   4.459   3.473   1.924 -1.5514 -0.8287  0.6696
 6716TIP3   OH241782   5.991   6.534   2.664 -0.2164  0.4666  0.0273
 6716TIP3    H141783   6.007   6.469   2.595 -1.3633 -0.6599  0.7764
 6716TIP3    H241784   6.078   6.563   2.689  0.5004 -1.9842  0.7380
 6717TIP3   OH241785   3.477   5.347   8.331  0.6984  0.2787  0.1981
 6717TIP3    H141786   3.507   5.438   8.327 -0.3837  0.6185 -0.4970
 6717TIP3    H241787   3.427   5.342   8.412  1.4483  0.0684  0.6619
 6718TIP3   OH241788   6.430   7.001   8.011 -0.2456  0.4919 -0.3312
 6718TIP3    H141789   6.424   7.026   8.104 -0.6454 -1.3992  0.2001
 6718TIP3    H241790   6.524   6.991   7.996 -0.2034  0.2245  0.0693
 6719TIP3   OH241791   3.767   4.829   0.393  0.1351 -0.0492  0.1604
 6719TIP3    H141792   3.802   4.774   0.322 -1.1514 -1.0930  0.2994
 6719TIP3    H241793   3.807   4.794   0.472 -1.0909 -1.2046  0.3120
 6720TIP3   OH241794   6.332   6.644   0.003  0.4999  0.1153  0.3798
 6720TIP3    H141795   6.305   6.574  -0.056 -0.1882  0.8764 -0.2360
 6720TIP3    H241796   6.310   6.613   0.091  0.5416 -0.5792  0.1433
 6721TIP3   OH241797   3.689   1.523   0.484  0.0221  0.3349  0.5574
 6721TIP3    H141798   3.683   1.591   0.551  2.3209  1.4448 -0.2545
 6721TIP3    H241799   3.725   1.447   0.529 -1.5206 -0.0288  1.2339
 6722TIP3   OH241800   5.825   2.307   1.626 -0.4074 -0.0937  0.1470
 6722TIP3    H141801   5.854   2.317   1.535 -1.8168  0.5086 -0.2661
 6722TIP3    H241802   5.767   2.231   1.624  0.6304 -0.9172  0.8322
 6723TIP3   OH241803   6.233   1.246   3.062 -0.3267  0.0177 -0.6597
 6723TIP3    H141804   6.225   1.164   3.110 -0.6455 -1.6000 -3.2875
 6723TIP3    H241805   6.226   1.314   3.130 -2.1424 -2.0217  1.3741
 6724TIP3   OH241806   5.511   6.512   8.212  0.0483  0.4938  0.4072
 6724TIP3    H141807   5.429   6.503   8.261  0.6844 -1.3049  1.2303
 6724TIP3    H241808   5.570   6.448   8.251  1.5416  1.0229 -0.8447
 6725TIP3   OH241809   5.412   4.195   2.862 -0.5916 -0.5196 -0.3087
 6725TIP3    H141810   5.498   4.201   2.903 -1.1287 -0.9375  0.9213
 6725TIP3    H241811   5.350   4.200   2.935 -1.6053 -0.4079 -1.1556
 6726TIP3   OH241812   5.185   3.302   2.819 -0.5724  0.3892  0.1963
 6726TIP3    H141813   5.110   3.349   2.783  1.1914  2.1637 -1.4370
 6726TIP3    H241814   5.163   3.289   2.912 -2.2892  2.1139  0.0948
 6727TIP3   OH241815   6.269   3.574   2.041  0.2087 -0.0902  0.4135
 6727TIP3    H141816   6.175   3.589   2.028  0.5346 -0.1259 -3.0733
 6727TIP3    H241817   6.311   3.642   1.988  2.1406 -0.8387  0.9036
 6728TIP3   OH241818   2.800   1.079   0.700 -0.0278  0.0934 -0.1828
 6728TIP3    H141819   2.817   1.128   0.619 -0.5154 -0.2481 -0.5001
 6728TIP3    H241820   2.708   1.098   0.720  0.1806  0.4403  0.4804
 6729TIP3   OH241821   4.207   6.047   0.380  0.1259  0.0125 -0.3803
 6729TIP3    H141822   4.206   5.953   0.397  1.1134  0.3235  1.7244
 6729TIP3    H241823   4.291   6.077   0.415 -0.9393  1.9332  0.6890
 6730TIP3   OH241824   4.351   6.404   1.171 -0.4280  0.1823 -0.0011
 6730TIP3    H141825   4.413   6.428   1.101  0.1116  1.0539  0.7535
 6730TIP3    H241826   4.297   6.482   1.182  1.1074  1.0501  2.2361
 6731TIP3   OH241827   6.015   1.045   8.292 -0.7352  0.2216 -0.3738
 6731TIP3    H141828   6.075   1.001   8.352 -0.8762 -1.3686 -1.3573
 6731TIP3    H241829   6.067   1.063   8.214 -1.3977 -0.7435 -1.0511
 6732TIP3   OH241830   1.262   2.051   0.855  0.2599  0.1906  0.1587
 6732TIP3    H141831   1.176   2.017   0.878  1.2054 -3.2734 -0.7877
 6732TIP3    H241832   1.309   2.057   0.938  0.4740 -2.3911  0.2877
 6733TIP3   OH241833   1.572   0.189   2.829 -0.2905 -0.0593 -0.2761
 6733TIP3    H141834   1.517   0.263   2.856 -0.2928  0.0571 -0.5951
 6733TIP3    H241835   1.647   0.193   2.888  0.3261  0.9580 -1.1017
 6734TIP3   OH241836   0.345   0.447   1.616  0.0178  0.3838 -0.5609
 6734TIP3    H141837   0.439   0.456   1.633  0.1969  1.0693 -1.7736
 6734TIP3    H241838   0.340   0.426   1.522 -0.8981 -2.8829  0.0906
 6735TIP3   OH241839   1.944   6.259   2.228 -0.2991 -0.1268 -0.1347
 6735TIP3    H141840   1.934   6.348   2.261 -0.4685 -0.0519 -0.3894
 6735TIP3    H241841   1.894   6.257   2.146  0.1936 -0.2884 -0.4334
 6736TIP3   OH241842   5.130   3.141   1.334 -0.0216 -0.2666  0.1582
 6736TIP3    H141843   5.075   3.076   1.290  1.0694 -0.8638 -0.3501
 6736TIP3    H241844   5.090   3.152   1.420 -0.6843 -0.9956 -0.0444
 6737TIP3   OH241845   2.231   3.762   1.080 -0.2035  0.0063  0.2645
 6737TIP3    H141846   2.294   3.811   1.027 -1.8219  0.2187 -1.5624
 6737TIP3    H241847   2.257   3.671   1.069  1.2046  0.2119  1.5143
 6738TIP3   OH241848   1.117   1.635   6.927 -0.2941  0.0814 -0.3668
 6738TIP3    H141849   1.048   1.648   6.992 -1.5483  0.2991 -1.6784
 6738TIP3    H241850   1.164   1.718   6.925 -1.1194  0.5525 -0.6963
 6739TIP3   OH241851   0.441   1.167   8.147 -0.3345  0.2188  0.2485
 6739TIP3    H141852   0.516   1.219   8.175 -1.2786  0.1452  3.3106
 6739TIP3    H241853   0.449   1.162   8.052  2.8746  1.1560  0.3505
 6740TIP3   OH241854   6.350   3.205   2.448  0.3503  0.0949  0.6283
 6740TIP3    H141855   6.443   3.206   2.425  0.2690 -0.1728  0.2710
 6740TIP3    H241856   6.307   3.168   2.371 -0.4263  3.0895 -0.5116
 6741TIP3   OH241857   4.878   2.204   2.622 -0.3330  0.9265  0.2282
 6741TIP3    H141858   4.821   2.182   2.548  0.6653  0.3454 -0.3960
 6741TIP3    H241859   4.875   2.126   2.678 -0.2908  0.9599  0.2768
 6742TIP3   OH241860   3.007   0.464   8.195  0.1801  0.0349  0.2086
 6742TIP3    H141861   3.100   0.458   8.217 -0.1043 -0.2194  1.3946
 6742TIP3    H241862   2.962   0.464   8.280 -0.9460 -0.6117 -0.3737
 6743TIP3   OH241863   4.881   2.998   1.215  0.1480 -0.2556  0.1971
 6743TIP3    H141864   4.833   3.032   1.139 -1.3339  1.6234  1.8556
 6743TIP3    H241865   4.887   2.904   1.199 -0.1586  0.0667 -2.1881
 6744TIP3   OH241866   6.540   5.123   1.459 -0.4414  0.0582  0.3438
 6744TIP3    H141867   6.631   5.145   1.438  0.6339 -2.1723  2.1630
 6744TIP3    H241868   6.498   5.208   1.474  1.3098  1.1609 -0.5729
 6745TIP3   OH241869   4.048   5.427   7.936  0.0194  0.3193  0.2052
 6745TIP3    H141870   3.967   5.478   7.939 -0.4079 -0.3840  0.6748
 6745TIP3    H241871   4.041   5.366   8.009  0.0828 -1.0994 -0.9416
 6746TIP3   OH241872   6.192   3.686   0.198 -0.0109 -0.1004  0.0679
 6746TIP3    H141873   6.264   3.741   0.169 -0.6846  0.5259 -0.4561
 6746TIP3    H241874   6.183   3.619   0.130 -1.4044  1.1987 -1.0888
 6747TIP3   OH241875   4.777   4.090   8.251  0.3734 -0.6674 -0.5319
 6747TIP3    H141876   4.843   4.144   8.293 -0.0826 -1.5071  1.3560
 6747TIP3    H241877   4.826   4.033   8.193  1.0628  0.2527 -0.8779
 6748TIP3   OH241878   2.766   6.483   0.300 -0.2338  0.1802 -0.0263
 6748TIP3    H141879   2.680   6.482   0.342 -1.1844 -0.9567 -1.8876
 6748TIP3    H241880   2.819   6.423   0.353 -0.5767  0.8134  1.0737
 6749TIP3   OH241881   3.053   0.309   2.184 -0.0488  0.4363 -0.7287
 6749TIP3    H141882   3.105   0.243   2.138 -0.0583 -0.2774  0.2519
 6749TIP3    H241883   3.117   0.358   2.236 -0.1920  0.3732 -0.4886
 6750TIP3   OH241884   1.423   4.207   0.369  0.4963 -0.4980  0.3990
 6750TIP3    H141885   1.339   4.161   0.370  0.1530  0.1295  0.6113
 6750TIP3    H241886   1.403   4.293   0.334  0.9502 -0.1556  0.9567
 6751TIP3   OH241887   4.001   6.735   0.633 -0.0310  0.0339 -0.3099
 6751TIP3    H141888   4.023   6.675   0.704 -1.7911  0.8724  1.0129
 6751TIP3    H241889   4.084   6.780   0.613  0.4846 -0.1687  1.2514
 6752TIP3   OH241890   4.377   2.151   8.161  0.0779 -0.4284  1.0986
 6752TIP3    H141891   4.399   2.077   8.105  1.1090 -0.4960  1.5772
 6752TIP3    H241892   4.296   2.185   8.124  0.1261 -1.1767  0.2662
 6753TIP3   OH241893   5.448   4.689   8.292  0.2947 -0.5749 -0.3674
 6753TIP3    H141894   5.443   4.689   8.388  0.3993 -2.4260 -0.3159
 6753TIP3    H241895   5.408   4.772   8.266 -2.3200 -1.2077  1.1965
 6754TIP3   OH241896   3.810   3.090   1.756 -0.0321  0.0823 -0.4635
 6754TIP3    H141897   3.856   3.108   1.674  0.6875  0.3755 -0.0006
 6754TIP3    H241898   3.879   3.081   1.821 -0.5828 -0.4750  0.0562
 6755TIP3   OH241899   2.585   1.666   7.198 -0.1661 -0.6754 -0.2139
 6755TIP3    H141900   2.561   1.757   7.218  1.1318 -0.7604  2.0739
 6755TIP3    H241901   2.637   1.673   7.118  2.1162  1.0016  1.2976
 6756TIP3   OH241902   5.226   1.633   0.378 -0.2729 -0.0974 -0.1883
 6756TIP3    H141903   5.271   1.549   0.388 -0.6951 -0.2074  0.9311
 6756TIP3    H241904   5.150   1.612   0.323  0.9002  0.0635 -1.9792
 6757TIP3   OH241905   2.477   2.654   1.568  0.2509 -0.1743 -0.2668
 6757TIP3    H141906   2.417   2.608   1.509 -1.8623  0.6289  1.1212
 6757TIP3    H241907   2.500   2.733   1.521 -1.9617  0.7948  0.1330
 6758TIP3   OH241908   1.287   1.103   8.063  0.0863  0.3559 -0.3331
 6758TIP3    H141909   1.306   1.011   8.047  0.6141  0.2868  0.5904
 6758TIP3    H241910   1.284   1.144   7.977  0.9911 -0.3029 -0.6796
 6759TIP3   OH241911   1.926   0.683   3.228  0.1660  0.1739 -0.0658
 6759TIP3    H141912   1.922   0.617   3.159  1.1015 -0.5563  0.5543
 6759TIP3    H241913   2.019   0.688   3.251 -0.0211  1.0192  0.5626
 6760TIP3   OH241914   0.144   5.251   2.395  0.1682  0.0061 -0.0352
 6760TIP3    H141915   0.123   5.324   2.454 -0.9291  0.6720 -1.2000
 6760TIP3    H241916   0.159   5.292   2.310 -1.6809 -1.1547 -1.0010
 6761TIP3   OH241917   4.083   6.613   0.887  0.0002 -0.7797  0.6130
 6761TIP3    H141918   4.172   6.579   0.891 -0.0820 -0.9456  1.2240
 6761TIP3    H241919   4.035   6.562   0.952 -0.8024 -1.4090 -0.4386
 6762TIP3   OH241920   4.635   1.836   8.184  0.2288  0.1092  0.3018
 6762TIP3    H141921   4.599   1.810   8.269 -1.4694 -0.8485 -0.6536
 6762TIP3    H241922   4.572   1.900   8.150  0.4962 -0.0537 -0.5357
 6763TIP3   OH241923   6.331   6.985   1.426  0.0026 -0.2180 -0.2185
 6763TIP3    H141924   6.394   7.014   1.493 -0.2989  1.2423 -0.5244
 6763TIP3    H241925   6.251   7.032   1.448 -0.6441 -1.1533 -0.5395
 6764TIP3   OH241926   4.562   5.000   6.978  0.1465 -0.0162 -0.3213
 6764TIP3    H141927   4.525   4.921   6.939 -1.7940  0.1079  1.1148
 6764TIP3    H241928   4.574   4.979   7.070  0.9741  0.9136 -0.1973
 6765TIP3   OH241929   2.029   4.409   3.704  0.0057 -0.2360  0.4043
 6765TIP3    H141930   2.102   4.416   3.765  0.5206  0.6356 -0.2933
 6765TIP3    H241931   2.055   4.340   3.642 -0.5829 -1.2281  1.2268
 6766TIP3   OH241932   1.393   0.486   1.193 -0.4878  0.1335  0.6104
 6766TIP3    H141933   1.312   0.535   1.175 -0.5147 -0.2088 -0.2227
 6766TIP3    H241934   1.400   0.487   1.289 -1.2164  0.5914  0.6690
 6767TIP3   OH241935   1.790   2.658   0.971 -0.2544 -0.6889 -0.3728
 6767TIP3    H141936   1.844   2.734   0.951 -1.3975 -0.5256 -3.4029
 6767TIP3    H241937   1.700   2.691   0.965 -0.7601 -1.5570  1.7874
 6768TIP3   OH241938   6.748   2.729   1.791 -0.0676  0.0567 -0.3602
 6768TIP3    H141939   6.738   2.750   1.884  0.9895  0.9090 -0.4195
 6768TIP3    H241940   6.714   2.806   1.746 -0.3127 -0.2370 -0.6735
 6769TIP3   OH241941   5.378   5.806   7.719 -0.3980  0.3764  0.2819
 6769TIP3    H141942   5.329   5.775   7.643  0.6873  0.6361 -0.5486
 6769TIP3    H241943   5.335   5.888   7.743 -2.9395 -1.3239  2.1493
 6770TIP3   OH241944   1.176   4.048   0.327  0.3838  0.7573 -0.7024
 6770TIP3    H141945   1.157   4.016   0.239 -0.7721 -0.3657 -0.0736
 6770TIP3    H241946   1.173   3.971   0.382  0.2338  1.5620  0.4498
 6771TIP3   OH241947   1.292   2.489   8.235 -0.3478  0.0907  0.4893
 6771TIP3    H141948   1.383   2.470   8.260 -0.0653 -1.3577 -1.4379
 6771TIP3    H241949   1.257   2.537   8.310  1.8423  0.2294  1.5151
 6772TIP3   OH241950   2.032   1.700   1.503  0.3990  0.0830  0.3510
 6772TIP3    H141951   1.957   1.749   1.536 -0.7803 -1.5174  0.1385
 6772TIP3    H241952   2.032   1.717   1.409  1.1393  1.1384  0.5170
 6773TIP3   OH241953   2.363   1.352   0.648  0.1478  0.0961  0.0600
 6773TIP3    H141954   2.385   1.395   0.731  0.8058 -0.3399  0.1198
 6773TIP3    H241955   2.371   1.421   0.582  1.4769  0.0195  0.1120
 6774TIP3   OH241956   3.263   6.854   2.132  0.5069 -0.1352  0.4801
 6774TIP3    H141957   3.310   6.925   2.175 -0.4766 -0.0981  1.5533
 6774TIP3    H241958   3.261   6.879   2.040 -2.4998  2.9147  1.1594
 6775TIP3   OH241959   0.913   4.447   7.381 -0.1059 -0.9298 -0.1565
 6775TIP3    H141960   0.991   4.483   7.339 -0.3406  0.0367  0.1997
 6775TIP3    H241961   0.943   4.365   7.421  0.7515 -0.5332  0.0471
 6776TIP3   OH241962   1.876   4.982   7.315 -0.1345  0.1160  0.0752
 6776TIP3    H141963   1.890   4.890   7.291  0.4847 -0.1811  1.4565
 6776TIP3    H241964   1.906   5.032   7.239  0.7330 -0.7908 -0.2002
 6777TIP3   OH241965   1.358   6.124   0.336 -0.8087  0.3242 -0.7742
 6777TIP3    H141966   1.311   6.195   0.381  0.0337  0.2650  0.2308
 6777TIP3    H241967   1.450   6.149   0.342 -0.5151 -0.7774 -0.5646
 6778TIP3   OH241968   7.026   2.418   1.315  0.0497  0.3634 -0.3148
 6778TIP3    H141969   6.967   2.491   1.332  0.0890 -0.0283  1.7964
 6778TIP3    H241970   7.107   2.441   1.360 -0.8228 -2.0751  2.8875
 6779TIP3   OH241971   0.535   0.159   8.142 -0.1839  0.6018  0.3179
 6779TIP3    H141972   0.627   0.186   8.146 -0.4572  1.6208  0.0590
 6779TIP3    H241973   0.503   0.170   8.231 -0.8238  3.1960 -0.1534
 6780TIP3   OH241974   2.933   0.168   8.108 -0.8638  0.2207 -0.3466
 6780TIP3    H141975   2.925   0.252   8.061  2.0728  1.2832  0.7916
 6780TIP3    H241976   2.916   0.102   8.041 -0.8611  1.7076 -1.9046
 6781TIP3   OH241977   5.503   6.738   7.199  0.1633 -0.3254  0.0249
 6781TIP3    H141978   5.411   6.737   7.173 -0.2908 -0.3787  1.5126
 6781TIP3    H241979   5.551   6.750   7.117 -1.1969  0.6098 -0.6825
 6782TIP3   OH241980   1.247   2.877   3.152 -0.5927  0.1065  0.4844
 6782TIP3    H141981   1.177   2.811   3.146 -0.3101 -0.1574  0.0373
 6782TIP3    H241982   1.323   2.829   3.183 -0.7753  0.5292  1.6174
 6783TIP3   OH241983   1.999   1.179   7.874  0.0552 -0.9531 -0.3642
 6783TIP3    H141984   1.907   1.199   7.858  0.3266  2.1580  1.2186
 6783TIP3    H241985   2.046   1.222   7.802  0.4497  0.9243  0.9702
 6784TIP3   OH241986   2.628   2.286   0.859  0.2905 -0.7121 -0.5802
 6784TIP3    H141987   2.697   2.352   0.856 -0.5503  0.1613 -1.6491
 6784TIP3    H241988   2.572   2.307   0.784 -1.1265 -1.3988  0.2619
 6785TIP3   OH241989   0.145   6.156   0.263  0.0585  0.6532  0.4790
 6785TIP3    H141990   0.168   6.115   0.346  1.0232  0.5505  0.1656
 6785TIP3    H241991   0.077   6.220   0.286 -0.1380  0.1852  1.2432
 6786TIP3   OH241992   2.670   2.656   2.732 -0.1798  0.3757 -0.9165
 6786TIP3    H141993   2.667   2.603   2.812  0.7603 -0.9640 -1.7272
 6786TIP3    H241994   2.645   2.744   2.761 -0.8234 -0.2857  0.6562
 6787TIP3   OH241995   6.531   2.003   0.824 -0.0833  0.0207  0.2466
 6787TIP3    H141996   6.449   1.973   0.784  0.4734 -1.6202  0.2832
 6787TIP3    H241997   6.600   1.966   0.769  0.6688 -0.4742  1.4898
 6788TIP3   OH241998   0.794   0.877   0.678  0.1539  0.6460 -0.2455
 6788TIP3    H141999   0.806   0.888   0.773 -1.5095 -1.3543  0.2765
 6788TIP3    H242000   0.791   0.966   0.644  0.1264  1.4405  1.6844
 6789TIP3   OH242001   4.656   1.294   7.986 -0.1235  0.1365 -0.1685
 6789TIP3    H142002   4.584   1.350   8.016 -2.3849 -1.5422 -2.1605
 6789TIP3    H242003   4.621   1.206   7.987  2.9989 -1.2570  1.8022
 6790TIP3   OH242004   2.165   4.059   3.011  0.5806 -0.3988  0.3275
 6790TIP3    H142005   2.205   4.027   3.092  0.1015 -0.4744  0.5386
 6790TIP3    H242006   2.115   3.985   2.977  1.1563 -0.5131 -0.2913
 6791TIP3   OH242007   3.368   3.932   1.188  0.2445  0.2355 -0.6327
 6791TIP3    H142008   3.436   3.961   1.249 -0.9305  0.7270  0.4993
 6791TIP3    H242009   3.310   3.879   1.241 -0.7480  0.5808 -1.3499
 6792TIP3   OH242010   0.885   1.320   1.249 -0.1536  0.3527 -0.3161
 6792TIP3    H142011   0.877   1.389   1.184  1.1872  1.5007  0.6470
 6792TIP3    H242012   0.967   1.275   1.226  0.0167  0.3860  0.2013
 6793TIP3   OH242013   4.572   5.423   2.107 -0.5466 -0.0993 -0.3980
 6793TIP3    H142014   4.575   5.386   2.195  0.6224  1.2150  0.1517
 6793TIP3    H242015   4.498   5.484   2.109 -0.2376  0.2736 -0.1681
 6794TIP3   OH242016   1.781   5.205   1.135 -0.4454 -0.0110  0.5401
 6794TIP3    H142017   1.710   5.158   1.091  0.9348  1.8969 -4.3611
 6794TIP3    H242018   1.860   5.154   1.116  0.3010  1.2547  0.1096
 6795TIP3   OH242019   0.306   1.202   1.659  0.1911 -0.1910 -0.3742
 6795TIP3    H142020   0.397   1.194   1.688  0.2877 -0.7666 -0.8272
 6795TIP3    H242021   0.312   1.220   1.566 -0.1743 -0.9441 -0.5508
 6796TIP3   OH242022   4.043   0.028   0.124  0.0797 -0.1431  0.7970
 6796TIP3    H142023   4.111  -0.030   0.092  1.5473  3.2058 -2.9295
 6796TIP3    H242024   3.961  -0.014   0.097  0.8516 -1.9823  1.1773
 6797TIP3   OH242025   1.774   4.396   7.001  0.7207 -0.1322  0.1877
 6797TIP3    H142026   1.864   4.429   7.007  0.8626 -0.7465  2.5356
 6797TIP3    H242027   1.776   4.312   7.045 -0.7148 -0.9296 -1.1486
 6798TIP3   OH242028   5.275   4.757   1.349 -0.3005  0.6504 -0.0565
 6798TIP3    H142029   5.370   4.756   1.364 -0.4401 -0.9258  0.9717
 6798TIP3    H242030   5.265   4.722   1.260  0.0753  0.5731 -0.0706
 6799TIP3   OH242031   2.631   0.352   7.532 -0.4070  0.1517 -0.2736
 6799TIP3    H142032   2.631   0.261   7.504 -0.4668  0.3861 -1.0517
 6799TIP3    H242033   2.678   0.399   7.463  0.0981  0.6333  0.3849
 6800TIP3   OH242034   5.048   4.551   1.909  0.3222 -0.4882 -0.8818
 6800TIP3    H142035   4.984   4.612   1.871  0.2447  1.2620  1.7893
 6800TIP3    H242036   4.997   4.498   1.971  1.2440  0.3398  0.6368
 6801TIP3   OH242037   0.933   3.422   0.288 -0.0042 -0.5605 -0.0563
 6801TIP3    H142038   0.842   3.428   0.318 -1.0157  0.6269 -3.0099
 6801TIP3    H242039   0.948   3.505   0.242  1.9095 -1.5503 -1.3230
 6802TIP3   OH242040   5.116   4.255   7.159 -0.0859 -0.2219  0.1381
 6802TIP3    H142041   5.045   4.215   7.109 -0.3400  0.0714  0.2646
 6802TIP3    H242042   5.195   4.234   7.108 -0.5873  2.5645 -2.0717
 6803TIP3   OH242043   4.349   3.562   0.461 -1.0942  0.5016 -0.1989
 6803TIP3    H142044   4.351   3.467   0.443 -2.4861  0.3249  0.4206
 6803TIP3    H242045   4.257   3.586   0.446 -1.0023  1.5183  0.8226
 6804TIP3   OH242046   0.697   3.048   2.197 -0.3171  0.0808  0.5102
 6804TIP3    H142047   0.611   3.084   2.218 -0.4603 -0.4769  0.9285
 6804TIP3    H242048   0.681   2.954   2.187  0.5506 -0.3239  2.4645
 6805TIP3   OH242049   2.925   4.276   2.667  0.0192  0.0365  0.0350
 6805TIP3    H142050   2.890   4.363   2.687  1.3899  0.6214 -0.0350
 6805TIP3    H242051   3.006   4.270   2.716  0.7414 -0.5793 -1.1813
 6806TIP3   OH242052   5.650   4.494   7.648  0.1416  0.1116  0.7794
 6806TIP3    H142053   5.564   4.470   7.614 -0.2441  3.0871 -0.6319
 6806TIP3    H242054   5.700   4.519   7.570  0.9493  2.1334  1.8752
 6807TIP3   OH242055   5.546   1.498   8.287  0.6384  0.7656 -0.4108
 6807TIP3    H142056   5.519   1.420   8.336 -0.1256  1.1859 -0.1494
 6807TIP3    H242057   5.546   1.470   8.196  1.7107  0.0803 -0.2121
 6808TIP3   OH242058   2.219   5.622   0.953  0.1579 -0.0360  0.2868
 6808TIP3    H142059   2.195   5.693   0.893 -1.2003 -0.6366  0.0840
 6808TIP3    H242060   2.166   5.548   0.924  0.7772 -0.8336  1.1599
 6809TIP3   OH242061   3.996   6.025   1.533  0.1099 -0.2875  0.1697
 6809TIP3    H142062   4.089   6.038   1.553  0.5009 -1.7666 -0.5626
 6809TIP3    H242063   3.967   6.111   1.501  0.6351  0.8214  2.4348
 6810TIP3   OH242064   4.414   3.742   7.118  0.1818  0.1036  0.1898
 6810TIP3    H142065   4.491   3.748   7.061 -1.6183 -1.4471 -2.6270
 6810TIP3    H242066   4.418   3.654   7.154 -0.3860 -0.0852 -0.1935
 6811TIP3   OH242067   3.103   1.854   1.746  0.6393 -0.0349 -0.3116
 6811TIP3    H142068   3.192   1.847   1.781  0.4644  2.3578  0.8421
 6811TIP3    H242069   3.046   1.847   1.823 -0.0042  0.9817 -0.6752
 6812TIP3   OH242070   0.521   5.591   0.972 -0.3995 -0.3948 -0.0390
 6812TIP3    H142071   0.486   5.679   0.960 -1.3272 -0.5403  1.3707
 6812TIP3    H242072   0.524   5.578   1.067  0.8245 -1.4649 -0.1845
 6813TIP3   OH242073   0.684   3.774   2.419  0.0260 -0.5611 -0.0453
 6813TIP3    H142074   0.650   3.687   2.437 -0.4609 -0.2621  0.5081
 6813TIP3    H242075   0.622   3.834   2.461  0.0623  0.0798 -0.8727
 6814TIP3   OH242076   6.110   2.812   3.161 -0.4536 -0.2168 -0.3566
 6814TIP3    H142077   6.166   2.735   3.158  0.4009  0.4085 -0.6967
 6814TIP3    H242078   6.076   2.813   3.251  0.2691 -0.4651 -0.0731
 6815TIP3   OH242079   3.571   4.684   7.068  0.4749  0.5123 -0.2648
 6815TIP3    H142080   3.528   4.677   6.983  1.2128  0.8242 -0.6719
 6815TIP3    H242081   3.571   4.778   7.087 -2.2492  0.2816  1.4440
 6816TIP3   OH242082   3.842   2.402   0.678 -0.4482  0.4346 -0.2898
 6816TIP3    H142083   3.905   2.351   0.628  0.4906  0.5690  0.7088
 6816TIP3    H242084   3.767   2.413   0.620  0.2803 -0.0953 -1.3480
 6817TIP3   OH242085   4.835   5.420   2.239 -0.1049 -0.4124  0.7778
 6817TIP3    H142086   4.829   5.340   2.292 -0.2999 -1.1164 -0.2696
 6817TIP3    H242087   4.852   5.388   2.150 -1.3242  0.6490  0.1353
 6818TIP3   OH242088   5.922   4.167   7.490  0.5802  0.6813 -0.9968
 6818TIP3    H142089   5.946   4.123   7.408 -0.2897  0.6835 -1.2611
 6818TIP3    H242090   5.830   4.189   7.480  0.2276 -0.0586  0.3138
 6819TIP3   OH242091   2.396   2.780   1.219  0.2627 -0.5999  0.3903
 6819TIP3    H142092   2.373   2.701   1.268 -1.0999 -1.4301 -1.4804
 6819TIP3    H242093   2.384   2.756   1.127  1.0153  1.4307 -0.3033
 6820TIP3   OH242094   4.866   6.780   1.211  0.7655  0.0241  0.0951
 6820TIP3    H142095   4.956   6.766   1.242  1.1907 -2.3478 -1.8974
 6820TIP3    H242096   4.871   6.862   1.162  2.0118 -0.3570 -0.4687
 6821TIP3   OH242097   5.158   3.457   2.051 -0.4264 -0.2207 -0.3252
 6821TIP3    H142098   5.154   3.543   2.010 -1.6130 -0.8736 -1.6684
 6821TIP3    H242099   5.155   3.395   1.977  2.2174 -1.4421  0.4580
 6822TIP3   OH242100   1.354   6.526   7.529  0.1841 -0.1527  0.2808
 6822TIP3    H142101   1.321   6.610   7.499 -1.7449  0.2490  3.1749
 6822TIP3    H242102   1.418   6.500   7.462  0.6851  3.4452 -0.8137
 6823TIP3   OH242103   0.699   4.387   0.008  0.1828 -1.0763 -0.3842
 6823TIP3    H142104   0.718   4.394  -0.086 -1.9331  2.2474 -0.7576
 6823TIP3    H242105   0.759   4.449   0.049  0.0568 -1.3665  0.2436
 6824TIP3   OH242106   6.459   4.044   1.638  0.0620  0.3750  0.2944
 6824TIP3    H142107   6.510   3.964   1.623 -0.0774 -0.1827  2.4994
 6824TIP3    H242108   6.381   4.033   1.584  1.0582  0.0593 -1.1380
 6825TIP3   OH242109   5.389   4.253   1.049 -0.2824 -0.0094 -0.2127
 6825TIP3    H142110   5.415   4.187   1.114 -0.5074  1.5734  1.5802
 6825TIP3    H242111   5.471   4.298   1.027 -0.0075 -1.2607 -1.9687
 6826TIP3   OH242112   4.345   6.552   1.952  0.3317  0.5918 -0.2755
 6826TIP3    H142113   4.339   6.549   2.048  0.3917 -0.8849 -0.2902
 6826TIP3    H242114   4.358   6.460   1.927  1.6447  1.1155 -1.6193
 6827TIP3   OH242115   4.098   0.901   0.620 -0.3593 -0.5890  0.4041
 6827TIP3    H142116   4.159   0.830   0.599 -0.4981 -0.1961 -1.5114
 6827TIP3    H242117   4.121   0.972   0.560 -1.9803 -0.0295  0.3845
 6828TIP3   OH242118   6.543   1.832   8.340 -0.1693 -0.0582  0.4934
 6828TIP3    H142119   6.623   1.782   8.319  0.2084 -0.0218  1.7614
 6828TIP3    H242120   6.534   1.894   8.268 -0.4135 -1.6539 -0.9255
 6829TIP3   OH242121   2.177   1.198   2.237  0.1798  0.3688  0.2234
 6829TIP3    H142122   2.177   1.238   2.324  0.5906 -0.0789  0.4328
 6829TIP3    H242123   2.247   1.132   2.240 -1.6380 -1.6468  0.4677
 6830TIP3   OH242124   6.037   5.751   0.137 -0.1643 -0.1147  0.7932
 6830TIP3    H142125   6.012   5.671   0.091 -0.9176  0.9913 -0.8189
 6830TIP3    H242126   6.102   5.792   0.080 -0.7225  1.0411  0.9565
 6831TIP3   OH242127   0.365   0.280   6.998 -0.1395 -0.1408 -0.3540
 6831TIP3    H142128   0.370   0.362   7.048 -0.5726  0.1797 -0.8201
 6831TIP3    H242129   0.348   0.308   6.908 -0.5175 -0.7527 -0.4800
 6832TIP3   OH242130   4.282   0.071   8.193  0.1861 -0.4100 -0.4070
 6832TIP3    H142131   4.270   0.163   8.218 -0.2584 -0.2861 -1.0504
 6832TIP3    H242132   4.244   0.065   8.105  0.7364 -1.0783 -0.6071
 6833TIP3   OH242133   5.228   4.126   7.896 -0.3969  0.2954  0.2804
 6833TIP3    H142134   5.234   4.051   7.837 -1.1789  1.2524 -1.0804
 6833TIP3    H242135   5.165   4.185   7.853 -2.2929  0.3289  2.8774
 6834TIP3   OH242136   6.418   3.382   1.165  0.1626  0.3760  0.1684
 6834TIP3    H142137   6.424   3.398   1.259 -1.1165 -0.0320  0.3384
 6834TIP3    H242138   6.396   3.289   1.157  0.6332  0.3092 -0.5623
 6835TIP3   OH242139   6.674   6.927   7.900 -0.2155  0.0436  0.2206
 6835TIP3    H142140   6.628   6.921   7.816  1.7942 -0.7531 -0.8870
 6835TIP3    H242141   6.718   6.842   7.909  1.5552  0.9966  0.8998
 6836TIP3   OH242142   1.609   5.469   2.424 -0.6772 -0.0850  0.5524
 6836TIP3    H142143   1.704   5.479   2.411 -0.7668  0.5788  0.3560
 6836TIP3    H242144   1.589   5.384   2.386  0.0116 -0.7040  1.5428
 6837TIP3   OH242145   2.213   4.565   0.274 -0.1717  0.0181  0.0124
 6837TIP3    H142146   2.262   4.491   0.310 -0.7323 -0.7189 -0.7138
 6837TIP3    H242147   2.270   4.599   0.205  0.1972  0.4279  0.5139
 6838TIP3   OH242148   3.546   4.209   1.913 -0.6698 -0.3703 -0.4359
 6838TIP3    H142149   3.552   4.120   1.949  0.2510 -0.4780 -0.8287
 6838TIP3    H242150   3.520   4.196   1.822 -1.5363 -0.1727 -0.2269
 6839TIP3   OH242151   1.129   5.149   7.923  0.4777  0.1027 -0.5118
 6839TIP3    H142152   1.034   5.152   7.917  0.4864 -0.5730 -1.2302
 6839TIP3    H242153   1.147   5.096   8.001  0.2751  0.6500 -0.0872
 6840TIP3   OH242154   5.348   1.627   1.269 -0.4510 -0.2072  0.2085
 6840TIP3    H142155   5.379   1.702   1.219  0.8341 -0.8852 -0.0497
 6840TIP3    H242156   5.308   1.665   1.347  0.4588  0.7287  0.2373
 6841TIP3   OH242157   6.555   1.122   2.511  0.0735 -0.3163 -0.2491
 6841TIP3    H142158   6.589   1.037   2.485  0.2216 -0.2826 -0.1660
 6841TIP3    H242159   6.542   1.169   2.429 -0.4394 -0.5807 -0.3224
 6842TIP3   OH242160   6.753   6.678   2.777  0.0651 -0.4951 -0.0845
 6842TIP3    H142161   6.684   6.660   2.714  0.1642 -1.3560  0.0361
 6842TIP3    H242162   6.795   6.593   2.792  1.2526  0.0275 -0.2800
 6843TIP3   OH242163   4.666   3.964   2.272 -0.1050  0.1061 -0.5104
 6843TIP3    H142164   4.625   3.993   2.353  0.9973 -0.8765  0.4524
 6843TIP3    H242165   4.600   3.978   2.204 -0.1642  3.4056  0.0749
 6844TIP3   OH242166   4.442   3.499   8.110  0.2120 -0.2525  0.1033
 6844TIP3    H142167   4.460   3.476   8.019  0.0202  1.9658 -0.5550
 6844TIP3    H242168   4.493   3.578   8.125 -0.6974  0.0940  1.5447
 6845TIP3   OH242169   5.923   6.195   2.317 -0.1099  0.6522  0.1159
 6845TIP3    H142170   5.867   6.271   2.332 -0.6587  0.2963 -0.0607
 6845TIP3    H242171   5.979   6.221   2.244 -0.2716  0.9025  0.0780
 6846TIP3   OH242172   5.028   6.109   0.001 -0.3778 -0.7047  0.5817
 6846TIP3    H142173   5.054   6.099   0.092 -0.8325 -0.3851  0.7466
 6846TIP3    H242174   4.932   6.106   0.003 -0.3944 -2.7746 -0.1133
 6847TIP3   OH242175   6.089   6.868   6.529  0.5358 -0.1666  0.3578
 6847TIP3    H142176   6.008   6.816   6.533 -0.0138  0.6630  0.3885
 6847TIP3    H242177   6.155   6.808   6.495  0.1836 -1.1954  1.4475
 6848TIP3   OH242178   2.173   6.113   2.881  0.7522  0.0744 -0.3858
 6848TIP3    H142179   2.265   6.088   2.880  0.8403  0.3938 -1.5888
 6848TIP3    H242180   2.152   6.132   2.789 -1.0227 -1.8378 -0.4487
 6849TIP3   OH242181   1.542   4.447   7.608  0.9335  0.2761  0.0636
 6849TIP3    H142182   1.593   4.372   7.639  1.0183  0.9335  1.6347
 6849TIP3    H242183   1.482   4.466   7.681  1.7679  2.4797  0.2491
 6850TIP3   OH242184   6.133   1.544   1.616  0.0464  0.4078 -0.3003
 6850TIP3    H142185   6.037   1.546   1.608  0.1830  1.8302 -2.1733
 6850TIP3    H242186   6.165   1.546   1.526  1.8765 -1.1883  0.2502
 6851TIP3   OH242187   4.883   1.689   2.961 -0.0235  0.0934 -0.3243
 6851TIP3    H142188   4.953   1.741   2.999  1.0234 -1.2772 -0.3225
 6851TIP3    H242189   4.847   1.638   3.034  1.2400 -1.6962 -0.8744
 6852TIP3   OH242190   3.201   5.307   7.414  0.6187 -0.1460  0.1975
 6852TIP3    H142191   3.261   5.242   7.378  0.4971  0.4476 -1.1350
 6852TIP3    H242192   3.199   5.288   7.508  1.2165 -1.5340 -0.0375
 6853TIP3   OH242193   1.000   2.864   0.154  0.1587  0.1745 -0.4126
 6853TIP3    H142194   1.003   2.956   0.180  2.8443  0.8737 -2.7670
 6853TIP3    H242195   0.938   2.861   0.081 -0.7538 -0.1643  0.3431
 6854TIP3   OH242196   6.416   6.293   7.494 -0.4472 -0.0780  0.6456
 6854TIP3    H142197   6.453   6.366   7.446 -0.0459 -0.7493 -0.0872
 6854TIP3    H242198   6.362   6.333   7.562 -2.1638  0.8991 -1.2128
 6855TIP3   OH242199   2.668   1.222   1.054 -0.0570 -0.0309  0.2013
 6855TIP3    H142200   2.605   1.222   1.126  0.4960  2.3337  0.7718
 6855TIP3    H242201   2.738   1.164   1.083  0.6029  1.5832  2.0631
 6856TIP3   OH242202   3.202   3.424   1.868 -0.1109 -0.0361  0.1652
 6856TIP3    H142203   3.253   3.353   1.827  1.2155 -0.6691  2.6812
 6856TIP3    H242204   3.233   3.504   1.825 -0.1211 -0.7658 -1.2736
 6857TIP3   OH242205   5.026   0.602   1.514 -0.2963 -0.2075  0.2378
 6857TIP3    H142206   5.119   0.615   1.496  0.4265 -4.8575 -0.6116
 6857TIP3    H242207   4.982   0.624   1.432  0.3760 -0.3115 -0.1600
 6858TIP3   OH242208   3.927   4.170   8.256  0.0403 -0.2742 -0.2019
 6858TIP3    H142209   3.908   4.225   8.180 -1.4118 -1.0378 -0.4359
 6858TIP3    H242210   3.984   4.101   8.224 -0.0609 -0.2370 -0.4602
 6859TIP3   OH242211   4.983   5.998   1.070 -0.3658 -0.6402  0.1415
 6859TIP3    H142212   4.997   5.905   1.086  1.4795 -0.5769 -0.8222
 6859TIP3    H242213   5.012   6.011   0.980 -2.5391  0.5149 -0.4642
 6860TIP3   OH242214   1.169   0.441   2.745  0.9054  0.0786  0.2527
 6860TIP3    H142215   1.137   0.455   2.656  0.5971 -2.4344 -0.0819
 6860TIP3    H242216   1.091   0.446   2.800  0.6083 -1.4358 -0.0097
 6861TIP3   OH242217   3.177   3.009   7.852  0.6888  0.1218 -0.7120
 6861TIP3    H142218   3.162   3.029   7.944  0.1297 -1.4468 -0.4299
 6861TIP3    H242219   3.269   3.031   7.837  0.4864  1.4664 -0.1025
 6862TIP3   OH242220   4.226   2.082   0.235  0.1342  0.2339 -0.0014
 6862TIP3    H142221   4.190   1.994   0.235 -1.5179  0.8649 -0.5488
 6862TIP3    H242222   4.285   2.084   0.160  0.9681 -0.6815  0.6155
 6863TIP3   OH242223   3.076   0.231   3.098 -0.0099 -0.2404 -0.1480
 6863TIP3    H142224   3.142   0.175   3.139 -0.5690 -0.5864  0.3008
 6863TIP3    H242225   3.126   0.303   3.060  0.7254 -1.0467 -0.7506
 6864TIP3   OH242226   4.961   4.949   8.141  0.0754  0.0879 -0.2079
 6864TIP3    H142227   4.938   5.014   8.074 -2.3523 -0.2981  0.1582
 6864TIP3    H242228   4.896   4.961   8.209  0.9632 -1.2375  0.9352
 6865TIP3   OH242229   1.803   2.704   2.400  0.1374 -0.0065  0.1309
 6865TIP3    H142230   1.784   2.649   2.476  2.4697 -2.4703 -0.8880
 6865TIP3    H242231   1.879   2.755   2.426 -1.6627  2.4816  0.8568
 6866TIP3   OH242232   3.674   0.386   0.021  0.0917  0.1937 -0.0047
 6866TIP3    H142233   3.592   0.395   0.069  0.0319 -3.1691  0.7066
 6866TIP3    H242234   3.740   0.369   0.089  0.7354 -0.6712 -0.8284
 6867TIP3   OH242235   6.680   5.529   7.964  0.4987 -0.4751 -0.0544
 6867TIP3    H142236   6.609   5.591   7.953  1.8146  0.8808 -1.5870
 6867TIP3    H242237   6.732   5.563   8.037  1.3898  0.4791 -1.0889
 6868TIP3   OH242238   4.204   0.086   2.689  0.1734  0.7680  0.5351
 6868TIP3    H142239   4.221   0.110   2.780 -0.4671 -1.9318  1.4557
 6868TIP3    H242240   4.258   0.147   2.638 -2.2212  4.8929  2.4214
 6869TIP3   OH242241   6.249   6.949   7.120  0.0001 -0.2568 -0.1451
 6869TIP3    H142242   6.200   6.921   7.043 -2.3004 -0.4857  1.2836
 6869TIP3    H242243   6.311   6.878   7.137  0.2478 -0.3848 -1.5183
 6870TIP3   OH242244   1.984   6.414   0.734  0.3858  0.1505 -0.5227
 6870TIP3    H142245   1.896   6.450   0.722  0.8046  0.9806 -1.2558
 6870TIP3    H242246   2.040   6.491   0.737  1.2627 -0.4153 -1.7075
 6871TIP3   OH242247   0.220   6.003   0.490 -0.1428 -0.3432 -0.1936
 6871TIP3    H142248   0.184   6.014   0.578 -0.4034 -2.3227 -0.0112
 6871TIP3    H242249   0.315   6.012   0.501 -0.3041  2.9553 -0.3654
 6872TIP3   OH242250   1.567   1.530   0.997  0.3626  0.1440  0.1548
 6872TIP3    H142251   1.518   1.533   1.079 -0.8799 -0.2854 -0.5429
 6872TIP3    H242252   1.547   1.444   0.960 -1.7656  1.4868 -2.1392
 6873TIP3   OH242253   5.641   0.465   1.907 -0.1924 -0.3618 -0.2731
 6873TIP3    H142254   5.610   0.548   1.942 -0.9255 -0.3699 -0.8846
 6873TIP3    H242255   5.587   0.449   1.829 -0.4381 -1.6760  0.1326
 6874TIP3   OH242256   1.076   1.040   0.513 -0.0122 -0.0219 -0.2421
 6874TIP3    H142257   1.080   1.106   0.444 -0.2697  0.0575 -0.1851
 6874TIP3    H242258   1.167   1.026   0.539 -0.0532  1.4790  0.8439
 6875TIP3   OH242259   6.402   4.093   8.218 -0.2007  0.2059 -0.4883
 6875TIP3    H142260   6.334   4.159   8.217 -0.5767 -0.1764 -0.2344
 6875TIP3    H242261   6.425   4.082   8.310  1.3141  1.4537 -0.6735
 6876TIP3   OH242262   3.226   6.119   2.724 -0.6175  0.5161  0.7651
 6876TIP3    H142263   3.174   6.182   2.674  0.3058  0.0404 -0.8793
 6876TIP3    H242264   3.208   6.141   2.816 -0.6280  2.9260  0.2694
 6877TIP3   OH242265   6.341   6.685   7.526  0.2984  0.0532  0.1718
 6877TIP3    H142266   6.429   6.680   7.489  0.9082 -1.9674  1.7389
 6877TIP3    H242267   6.283   6.672   7.451  1.3347  0.6192 -0.7585
 6878TIP3   OH242268   4.533   6.613   1.002 -0.0888  0.6999  0.4963
 6878TIP3    H142269   4.554   6.684   0.942  2.4368 -0.8605 -0.6277
 6878TIP3    H242270   4.584   6.632   1.080  1.8258 -0.5867 -0.3855
 6879TIP3   OH242271   4.054   1.094   0.398  0.2853 -0.6531  0.2076
 6879TIP3    H142272   4.033   1.165   0.458  1.6066  1.1963 -1.4194
 6879TIP3    H242273   3.969   1.057   0.375 -0.4709  0.6717  0.7671
 6880TIP3   OH242274   0.606   5.963   2.787  0.5900  0.0806  0.5490
 6880TIP3    H142275   0.655   6.036   2.750  0.7804 -0.7123 -0.8222
 6880TIP3    H242276   0.655   5.885   2.762 -0.6819 -0.6596  0.2316
 6881TIP3   OH242277   3.372   1.261   1.835  0.1371 -0.6468  0.4877
 6881TIP3    H142278   3.458   1.222   1.850  0.9445  0.8525  0.0386
 6881TIP3    H242279   3.317   1.226   1.905  1.3774 -0.8968  1.3739
 6882TIP3   OH242280   3.257   6.567   8.239  0.0023  0.0322  0.0853
 6882TIP3    H142281   3.239   6.661   8.243  0.7305  0.2047 -0.4882
 6882TIP3    H242282   3.176   6.528   8.208 -0.1698  0.5245 -0.0954
 6883TIP3   OH242283   5.553   5.043   8.360  0.1239 -0.3771  0.1793
 6883TIP3    H142284   5.635   5.011   8.398 -0.2080 -1.3033  0.1396
 6883TIP3    H242285   5.569   5.136   8.345  1.2775 -0.6016 -0.1138
 6884TIP3   OH242286   3.428   3.055   7.796  0.1262 -0.1826 -0.4706
 6884TIP3    H142287   3.486   3.131   7.793  0.0362 -0.1301 -1.7954
 6884TIP3    H242288   3.483   2.983   7.826  0.3741  0.2709  0.1692
 6885TIP3   OH242289   2.558   0.938   0.459  0.0788  0.3084 -0.0029
 6885TIP3    H142290   2.558   0.845   0.480 -0.0468  0.3338  0.1014
 6885TIP3    H242291   2.636   0.949   0.404  0.8798  0.3961  1.1099
 6886TIP3   OH242292   4.383   4.066   1.121 -0.7138  0.3248 -0.1879
 6886TIP3    H142293   4.445   4.039   1.053 -0.0819  0.7655  0.1992
 6886TIP3    H242294   4.388   4.161   1.122 -2.2342  0.4431 -0.8982
 6887TIP3   OH242295   0.194   4.418   0.875 -0.1358  0.2132 -0.0409
 6887TIP3    H142296   0.152   4.332   0.869 -0.2338  0.2044  0.6979
 6887TIP3    H242297   0.197   4.449   0.785  0.1289 -0.6710 -0.3474
 6888TIP3   OH242298   5.227   1.080   0.503 -0.2298 -0.1388  0.0895
 6888TIP3    H142299   5.166   1.120   0.442  0.2440  1.3102  0.5160
 6888TIP3    H242300   5.187   1.094   0.589 -0.3909 -1.2300  0.2013
 6889TIP3   OH242301   6.530   5.608   1.999  0.0880 -0.1763  0.4173
 6889TIP3    H142302   6.573   5.523   2.005 -1.5015 -1.0175  0.4504
 6889TIP3    H242303   6.521   5.637   2.089  1.2218  0.3552  0.3710
 6890TIP3   OH242304   5.582   1.267   0.599 -0.4008  0.3895  0.2356
 6890TIP3    H142305   5.514   1.268   0.667 -0.8469  0.3293 -0.2081
 6890TIP3    H242306   5.657   1.227   0.642 -0.4362  1.0383  0.9288
 6891TIP3   OH242307   6.640   5.695   8.313 -0.0854 -0.6184  0.1780
 6891TIP3    H142308   6.683   5.633   8.372  0.3789 -0.8906 -0.4401
 6891TIP3    H242309   6.556   5.655   8.293  0.2701 -1.1290 -0.3321
 6892TIP3   OH242310   2.984   4.933   0.271 -0.0706 -0.5118  0.0866
 6892TIP3    H142311   2.889   4.946   0.268 -0.0406 -0.4095 -0.7507
 6892TIP3    H242312   3.005   4.929   0.364 -0.6566  1.1366  0.3146
 6893TIP3   OH242313   5.805   2.461   2.773 -0.2374  0.9242 -0.0670
 6893TIP3    H142314   5.727   2.481   2.825 -1.1165 -0.7911 -0.6417
 6893TIP3    H242315   5.823   2.369   2.792  1.6197  1.2680 -0.0216
 6894TIP3   OH242316   4.502   1.457   0.811  0.1432  0.2913  0.5325
 6894TIP3    H142317   4.431   1.393   0.807 -0.6346  1.1732 -0.4626
 6894TIP3    H242318   4.517   1.471   0.904 -0.9309  0.0143  0.7654
 6895TIP3   OH242319   5.176   0.442   7.590 -0.2202  0.3177  0.0877
 6895TIP3    H142320   5.099   0.450   7.534 -0.0469  2.9741  0.1056
 6895TIP3    H242321   5.177   0.522   7.642  1.5878 -0.4597  1.3662
 6896TIP3   OH242322   4.963   3.444   2.771 -0.2223 -0.2630 -0.1053
 6896TIP3    H142323   4.949   3.471   2.681  1.2303  1.2889  0.0975
 6896TIP3    H242324   4.926   3.514   2.824 -1.2241 -1.2387  0.5479
 6897TIP3   OH242325   3.650   0.704   0.090  0.9367 -0.0554 -0.3634
 6897TIP3    H142326   3.703   0.730   0.166 -0.4166 -1.5986  1.1891
 6897TIP3    H242327   3.591   0.637   0.124 -2.0703  1.5775 -1.9887
 6898TIP3   OH242328   2.112   2.280   1.490 -0.3709  0.2929 -0.0550
 6898TIP3    H142329   2.175   2.291   1.419 -0.5542 -1.2288 -0.4820
 6898TIP3    H242330   2.143   2.340   1.558  2.0132 -0.9742  0.0734
 6899TIP3   OH242331   3.033   2.267   1.853  0.0040 -1.3945  0.2728
 6899TIP3    H142332   3.118   2.223   1.851 -0.4453 -2.3060  0.8249
 6899TIP3    H242333   3.035   2.324   1.776  0.6814 -2.2311 -0.3576
 6900TIP3   OH242334   2.862   5.625   3.308 -0.1648 -0.3520  0.4248
 6900TIP3    H142335   2.887   5.539   3.277  0.9168 -0.6196  1.9532
 6900TIP3    H242336   2.766   5.625   3.304 -0.1822 -1.6692  0.5518
 6901TIP3   OH242337   5.281   4.507   0.163  0.1449  0.3544  0.1105
 6901TIP3    H142338   5.208   4.523   0.103  0.8199 -0.1317 -0.8604
 6901TIP3    H242339   5.300   4.414   0.153  1.6088  0.6922 -0.4904
 6902TIP3   OH242340   2.409   1.896   2.861  0.0824  0.1510  0.2892
 6902TIP3    H142341   2.319   1.925   2.850  0.0846 -0.6591 -3.6303
 6902TIP3    H242342   2.402   1.803   2.885 -0.1644  0.0597 -0.1251
 6903TIP3   OH242343   0.060   4.138   0.833  0.4422  0.0598 -0.5260
 6903TIP3    H142344  -0.013   4.191   0.866  1.2437 -0.2239  1.8452
 6903TIP3    H242345   0.088   4.183   0.754 -0.5489  1.7300  0.0287
 6904TIP3   OH242346   1.709   6.276   1.205 -0.1985  0.0325 -0.0254
 6904TIP3    H142347   1.738   6.347   1.149  0.1784 -0.0934  0.0084
 6904TIP3    H242348   1.753   6.292   1.289 -0.0312 -0.3031 -0.0508
 6905TIP3   OH242349   1.414   2.541   0.459 -0.2952 -0.6442  0.3433
 6905TIP3    H142350   1.372   2.523   0.543  1.3138  0.3537  1.4107
 6905TIP3    H242351   1.390   2.631   0.439  0.2285 -0.5115  0.2997
 6906TIP3   OH242352   1.688   4.962   7.050  0.8868 -0.2112  0.6134
 6906TIP3    H142353   1.686   4.868   7.034  0.5600 -0.2866  1.0836
 6906TIP3    H242354   1.680   5.001   6.963 -3.0896 -0.5768  0.6352
 6907TIP3   OH242355   5.134   4.835   1.859  0.7791 -0.2524  0.1671
 6907TIP3    H142356   5.046   4.799   1.868  1.1778 -0.8892  2.1736
 6907TIP3    H242357   5.155   4.826   1.766  0.2451 -3.8830  0.2670
 6908TIP3   OH242358   6.415   2.662   2.661  0.5918 -0.2753  0.3335
 6908TIP3    H142359   6.339   2.677   2.604  1.4717 -0.2223 -0.8428
 6908TIP3    H242360   6.476   2.612   2.607  1.6416  0.1832  1.0697
 6909TIP3   OH242361   5.870   3.729   2.950 -0.1179 -0.2187 -0.5391
 6909TIP3    H142362   5.873   3.726   3.045 -0.7822 -1.5343 -0.5376
 6909TIP3    H242363   5.785   3.770   2.930 -1.0216 -1.9976 -0.5338
 6910TIP3   OH242364   4.611   5.716   1.465 -0.3056  0.4554  0.1552
 6910TIP3    H142365   4.531   5.709   1.414 -0.5071  2.3414  0.1523
 6910TIP3    H242366   4.581   5.727   1.555 -0.0318  0.5571  0.2338
 6911TIP3   OH242367   2.725   3.055   0.504 -0.4358  0.1428  0.0006
 6911TIP3    H142368   2.637   3.077   0.535 -2.0258 -1.6072 -2.8000
 6911TIP3    H242369   2.779   3.128   0.532 -3.2877  2.5674 -0.2869
 6912TIP3   OH242370   3.319   2.237   1.845  0.0398 -0.3669 -0.7209
 6912TIP3    H142371   3.366   2.222   1.763  0.9347  1.1707 -0.5388
 6912TIP3    H242372   3.370   2.306   1.888  0.0562 -1.6872  1.5026
 6913TIP3   OH242373   2.581   4.464   1.597 -0.0154 -0.0106 -0.1519
 6913TIP3    H142374   2.539   4.522   1.533  1.7102  1.1557 -0.3208
 6913TIP3    H242375   2.555   4.376   1.571 -1.3068  0.5813 -0.9677
 6914TIP3   OH242376   5.857   1.716   7.992 -0.0526 -0.3067  0.6126
 6914TIP3    H142377   5.765   1.701   8.013 -0.5075  2.2413  0.7603
 6914TIP3    H242378   5.858   1.732   7.898 -0.2298  2.1485  0.9577
 6915TIP3   OH242379   4.420   6.006   7.565  0.5363 -0.4955  0.0470
 6915TIP3    H142380   4.396   5.913   7.558 -1.3634 -0.0180 -0.3134
 6915TIP3    H242381   4.450   6.016   7.655  0.4732 -1.4026  0.1847
 6916TIP3   OH242382   5.961   1.654   1.077 -0.0937  0.1396 -0.1301
 6916TIP3    H142383   5.871   1.646   1.111 -1.0165  1.2907 -2.0960
 6916TIP3    H242384   6.002   1.719   1.134 -0.9051  0.4971  0.0713
 6917TIP3   OH242385   5.157   2.782   8.022 -0.0397  0.1301 -0.2287
 6917TIP3    H142386   5.077   2.792   8.074 -0.4398 -2.4831 -0.2187
 6917TIP3    H242387   5.227   2.799   8.084 -0.5650 -0.8094  0.6640
 6918TIP3   OH242388   3.563   4.839   1.338 -0.3015  0.2609  0.1228
 6918TIP3    H142389   3.514   4.805   1.264 -1.3028  0.6523  0.5931
 6918TIP3    H242390   3.650   4.860   1.302 -0.9201  0.9011 -1.0323
 6919TIP3   OH242391   4.488   1.009   7.603  0.2347  0.3825  0.1252
 6919TIP3    H142392   4.513   0.984   7.514  0.0350 -3.0523  0.8899
 6919TIP3    H242393   4.571   1.015   7.650  0.2548 -2.8748  0.7569
 6920TIP3   OH242394   1.777   4.342   8.003 -0.1706 -0.1708 -0.2134
 6920TIP3    H142395   1.712   4.404   8.036 -0.4119 -0.3747 -0.3096
 6920TIP3    H242396   1.733   4.294   7.933  0.6352  0.9209 -1.5162
 6921TIP3   OH242397   1.967   0.886   8.087  0.2318  0.0087 -0.2196
 6921TIP3    H142398   2.046   0.837   8.112  1.0457  0.8604 -1.0589
 6921TIP3    H242399   1.910   0.821   8.045  1.1026 -0.3294 -0.9051
 6922TIP3   OH242400   5.312   5.263   0.916  0.4030 -0.1406  0.2013
 6922TIP3    H142401   5.287   5.229   0.831 -0.2040 -0.1486  0.3797
 6922TIP3    H242402   5.285   5.355   0.914 -1.3843 -0.6030  1.0669
 6923TIP3   OH242403   2.804   4.097   7.767 -0.3291 -0.1980  0.0376
 6923TIP3    H142404   2.869   4.034   7.799  0.4757  1.3806  1.7308
 6923TIP3    H242405   2.750   4.117   7.844 -1.0012  0.6525 -0.6292
 6924TIP3   OH242406   3.414   1.637   2.149 -0.4706  0.1876  0.4809
 6924TIP3    H142407   3.381   1.553   2.183 -0.3889  0.4654  1.2603
 6924TIP3    H242408   3.363   1.703   2.196 -2.9083  0.6070 -2.4317
 6925TIP3   OH242409   3.131   0.230   0.204  0.1845  0.2606 -0.0569
 6925TIP3    H142410   3.127   0.170   0.130 -0.4378  0.6789 -0.3805
 6925TIP3    H242411   3.108   0.315   0.166  1.1905  0.7320  0.3580
 6926TIP3   OH242412   4.751   6.435   8.211  0.2830  0.5361  0.1509
 6926TIP3    H142413   4.769   6.343   8.188 -0.7661  0.8440 -2.2884
 6926TIP3    H242414   4.657   6.436   8.230  0.5425  0.9049  1.4991
 6927TIP3   OH242415   6.925   0.948   8.046  0.5966  0.3429  0.5109
 6927TIP3    H142416   6.920   0.854   8.028  2.6500  0.3932 -0.5320
 6927TIP3    H242417   6.856   0.986   7.991  2.3633 -0.1947 -2.2613
 6928TIP3   OH242418   0.317   2.078   7.799  0.6787  0.2701  0.1134
 6928TIP3    H142419   0.355   2.032   7.873  0.6057 -0.0106 -0.0222
 6928TIP3    H242420   0.266   2.012   7.752 -0.9310  0.8958  0.9153
 6929TIP3   OH242421   5.107   4.053   1.451  0.2338 -0.2386 -0.0376
 6929TIP3    H142422   5.023   4.099   1.456  0.0334 -0.4626 -1.2524
 6929TIP3    H242423   5.154   4.082   1.530  0.3997  2.6526 -1.0513
 6930TIP3   OH242424   5.543   6.848   0.536 -0.1147 -0.3296  0.8194
 6930TIP3    H142425   5.630   6.840   0.498  0.6176 -1.3825  2.5907
 6930TIP3    H242426   5.532   6.942   0.551  0.1884 -0.0630 -0.5254
 6931TIP3   OH242427   3.870   3.959   1.480 -0.6652 -0.1526 -0.8361
 6931TIP3    H142428   3.834   3.999   1.560 -0.1548  0.9103 -1.1091
 6931TIP3    H242429   3.856   4.025   1.412  0.1346 -0.4641 -1.3205
 6932TIP3   OH242430   4.307   1.305   1.096  0.0940  0.3008  0.5321
 6932TIP3    H142431   4.283   1.286   1.187 -0.6784  3.0869  0.9944
 6932TIP3    H242432   4.371   1.376   1.103 -0.9738  1.4805 -1.0922
 6933TIP3   OH242433   0.569   0.081   2.852  0.2786  0.1108  0.0130
 6933TIP3    H142434   0.639   0.122   2.903  1.7591 -1.6115 -0.5008
 6933TIP3    H242435   0.517   0.033   2.917  0.7337 -0.1446  0.1930
 6934TIP3   OH242436   3.286   1.381   2.198  0.9269 -0.2012  0.0548
 6934TIP3    H142437   3.195   1.408   2.206  1.0390  0.0863  0.4324
 6934TIP3    H242438   3.287   1.290   2.228  0.7663 -0.1991  0.0666
 6935TIP3   OH242439   1.374   5.203   2.757  0.1832 -0.0636 -0.0289
 6935TIP3    H142440   1.451   5.155   2.787  1.2749  1.2712 -0.5572
 6935TIP3    H242441   1.408   5.288   2.729 -1.6604  1.0664  0.9436
 6936TIP3   OH242442   0.072   6.824   1.542 -0.5463 -0.0579  0.0005
 6936TIP3    H142443   0.140   6.814   1.475 -1.7196 -0.7897 -1.1236
 6936TIP3    H242444  -0.008   6.843   1.493 -1.1503  0.9447  1.3104
 6937TIP3   OH242445   0.097   1.073   1.780 -0.2935  0.6228 -0.5643
 6937TIP3    H142446   0.174   1.118   1.745 -0.3084  0.5378 -0.7085
 6937TIP3    H242447   0.068   1.127   1.853 -0.2124  0.7587 -0.6335
 6938TIP3   OH242448   2.019   4.053   1.989  0.0831  0.6455  0.3039
 6938TIP3    H142449   1.928   4.029   2.004  0.3966  0.4729  2.1197
 6938TIP3    H242450   2.065   3.969   1.979  0.1109  0.7196 -0.2156
 6939TIP3   OH242451   0.912   6.818   0.619  0.2438  0.1880  0.7191
 6939TIP3    H142452   0.930   6.912   0.622 -1.4652  0.7511 -2.3375
 6939TIP3    H242453   0.878   6.798   0.706 -0.8349  2.8007  1.0070
 6940TIP3   OH242454   0.895   5.731   7.922  0.1019 -0.2821  0.0916
 6940TIP3    H142455   0.921   5.776   7.842  1.2255  0.6406  0.9300
 6940TIP3    H242456   0.927   5.787   7.992 -3.6963  0.6570  1.3012
 6941TIP3   OH242457   0.618   2.605   1.856 -0.7982 -0.0571 -0.2228
 6941TIP3    H142458   0.606   2.536   1.921 -1.1519  0.4820  0.3015
 6941TIP3    H242459   0.684   2.571   1.796 -1.2547 -0.9996 -0.1952
 6942TIP3   OH242460   4.003   7.011   1.148 -0.6670  0.0986  0.6246
 6942TIP3    H142461   3.911   7.034   1.159  0.1398  2.8012  2.7606
 6942TIP3    H242462   4.051   7.075   1.201  2.5069 -0.8282 -0.8561
 6943TIP3   OH242463   0.798   4.760   2.523 -0.1630  0.2139 -0.5748
 6943TIP3    H142464   0.823   4.668   2.515 -0.5106  0.0387  0.3390
 6943TIP3    H242465   0.723   4.769   2.464  0.0947  0.0074 -0.9454
 6944TIP3   OH242466   4.005   3.135   1.921  0.5101 -0.5037 -0.1862
 6944TIP3    H142467   3.991   3.212   1.866 -1.4689 -0.1538  0.7196
 6944TIP3    H242468   4.086   3.154   1.968  0.2879  0.8422 -0.3087
 6945TIP3   OH242469   3.903   0.263   8.043 -0.2299 -0.0916 -0.2881
 6945TIP3    H142470   3.823   0.281   8.094  0.3093 -0.1581  0.6061
 6945TIP3    H242471   3.888   0.178   8.003 -1.1772  0.5136 -1.2955
 6946TIP3   OH242472   0.352   6.412   2.475  0.7010  0.4279  0.3320
 6946TIP3    H142473   0.275   6.357   2.464  1.4051 -0.5626  0.2520
 6946TIP3    H242474   0.421   6.352   2.502  1.5299  1.2402  0.0748
 6947TIP3   OH242475   1.909   4.910   8.063  0.0372 -0.4451 -0.5084
 6947TIP3    H142476   1.921   4.851   8.138  0.4499  0.3150  0.0452
 6947TIP3    H242477   1.887   4.853   7.990  2.3938 -1.5273 -0.4674
 6948TIP3   OH242478   1.789   4.066   0.573  0.0658  0.0791 -0.4464
 6948TIP3    H142479   1.882   4.051   0.592  0.1280  1.9952  1.1654
 6948TIP3    H242480   1.749   4.079   0.659 -1.0549  2.4549 -1.2295
 6949TIP3   OH242481   3.539   6.321   0.518 -0.2233  0.4635  0.2132
 6949TIP3    H142482   3.504   6.323   0.607 -1.1267  1.8600 -0.1352
 6949TIP3    H242483   3.461   6.315   0.462  0.1378  2.1413 -0.5319
 6950TIP3   OH242484   6.297   1.619   7.718  0.1082  0.0115 -0.3376
 6950TIP3    H142485   6.284   1.607   7.812  0.8960  2.2113  0.1273
 6950TIP3    H242486   6.386   1.586   7.701  0.4589  0.7629 -0.0218
 6951TIP3   OH242487   5.447   3.500   3.471  0.4017  0.0002 -0.2237
 6951TIP3    H142488   5.409   3.582   3.503  1.6960  0.9142 -0.9739
 6951TIP3    H242489   5.439   3.440   3.545 -4.0911 -0.5028 -0.7954
 6952TIP3   OH242490   6.029   2.223   1.094  0.2001  0.2828  0.2185
 6952TIP3    H142491   5.958   2.190   1.149  0.0843  0.5897  0.2525
 6952TIP3    H242492   6.104   2.227   1.152  0.8955 -2.3124 -0.3507
 6953TIP3   OH242493   3.027   6.969   6.765 -0.3203  0.3571  0.0416
 6953TIP3    H142494   3.035   7.062   6.784 -0.7902  0.3392  0.3372
 6953TIP3    H242495   3.048   6.926   6.848  6.5295 -0.1625 -1.3634
 6954TIP3   OH242496   6.376   6.574   1.999 -0.1930  1.0000  0.3626
 6954TIP3    H142497   6.298   6.520   2.010 -0.6637  1.9399  1.9442
 6954TIP3    H242498   6.447   6.520   2.035  0.3471 -0.6996 -2.8992
 6955TIP3   OH242499   5.716   0.234   0.801  0.0485  0.0628  0.1484
 6955TIP3    H142500   5.643   0.296   0.801  0.0887  0.1376  1.3054
 6955TIP3    H242501   5.703   0.181   0.723  0.4530  2.0367 -1.3440
 6956TIP3   OH242502   6.987   5.018   8.218 -0.6364  0.7483 -0.7265
 6956TIP3    H142503   6.954   5.038   8.131  0.2477 -0.2054 -1.3090
 6956TIP3    H242504   7.059   4.956   8.203 -1.0767 -0.1753  0.7354
 6957TIP3   OH242505   3.833   6.844   8.161 -0.2025 -0.4214 -0.1750
 6957TIP3    H142506   3.780   6.773   8.124 -0.1491 -1.0228  0.8748
 6957TIP3    H242507   3.923   6.812   8.154 -0.1184 -0.1612 -0.3075
 6958TIP3   OH242508   4.826   4.150   0.998 -0.5898 -0.6185  0.2967
 6958TIP3    H142509   4.837   4.116   0.909 -1.7396  0.6606 -0.3728
 6958TIP3    H242510   4.909   4.130   1.041  1.3675  1.5736 -2.0654
 6959TIP3   OH242511   0.175   3.224   0.991  0.4378 -0.0350 -0.4209
 6959TIP3    H142512   0.212   3.228   0.903 -2.5741 -0.3278 -1.8137
 6959TIP3    H242513   0.240   3.176   1.042  1.1796 -2.1282 -3.1057
 6960TIP3   OH242514   7.017   3.881   2.495 -0.2185  0.0289  0.4095
 6960TIP3    H142515   7.041   3.913   2.408 -2.2771 -1.0310 -0.6215
 6960TIP3    H242516   6.995   3.960   2.545 -0.0009  0.5763 -0.3476
 6961TIP3   OH242517   0.409   3.098   1.942 -0.1971  0.6703 -0.2920
 6961TIP3    H142518   0.495   3.066   1.914  0.6755  0.4471  2.3061
 6961TIP3    H242519   0.352   3.022   1.935  0.7484 -0.2563  1.4110
 6962TIP3   OH242520   0.395   6.639   0.143  0.4124  0.6714  0.0893
 6962TIP3    H142521   0.473   6.685   0.172  0.2784  1.3516 -0.5971
 6962TIP3    H242522   0.380   6.572   0.210  0.7208  1.4923  0.9983
 6963TIP3   OH242523   3.218   6.500   3.274  0.3681 -0.1201  0.2998
 6963TIP3    H142524   3.300   6.477   3.230 -0.1438  0.6415 -1.1055
 6963TIP3    H242525   3.181   6.417   3.303  1.8209 -0.4465  1.3396
 6964TIP3   OH242526   6.741   2.809   2.846  0.1368 -0.4125 -0.0682
 6964TIP3    H142527   6.713   2.778   2.932  1.4364  0.4288  0.6785
 6964TIP3    H242528   6.835   2.823   2.854  0.0524  1.0291 -1.1954
 6965TIP3   OH242529   5.800   2.474   2.262 -0.3655 -0.4894  0.2922
 6965TIP3    H142530   5.827   2.565   2.247  3.3127 -1.7090 -1.4816
 6965TIP3    H242531   5.849   2.447   2.340  1.7312 -2.0238 -1.4748
 6966TIP3   OH242532   6.809   3.674   0.690  0.2096  0.1638  0.2502
 6966TIP3    H142533   6.865   3.749   0.705 -0.9534  0.9562  0.8069
 6966TIP3    H242534   6.730   3.710   0.650  0.6636 -1.1100 -1.9463
 6967TIP3   OH242535   0.758   0.393   0.763  0.1952 -0.2116 -0.2447
 6967TIP3    H142536   0.754   0.472   0.710 -0.3746 -0.7188 -0.9928
 6967TIP3    H242537   0.842   0.352   0.740  1.1100  0.8114  1.1251
 6968TIP3   OH242538   3.909   1.962   8.364  0.1139  0.3730 -0.1682
 6968TIP3    H142539   3.991   1.936   8.406 -0.3347 -2.0241 -0.6173
 6968TIP3    H242540   3.926   2.048   8.328  1.7061  0.8977  1.6810
 6969TIP3   OH242541   1.295   2.804   7.771  0.4428 -0.1487 -0.1374
 6969TIP3    H142542   1.281   2.774   7.860  0.8289  1.4138  0.4901
 6969TIP3    H242543   1.312   2.724   7.721 -0.5049 -1.1187  1.0255
 6970TIP3   OH242544   5.597   3.288   0.735  0.4495 -0.0735  0.6112
 6970TIP3    H142545   5.567   3.275   0.825 -0.7513 -1.8429  0.0117
 6970TIP3    H242546   5.687   3.320   0.743  0.6461 -0.9962  2.4344
 6971TIP3   OH242547   3.781   1.539   0.939 -0.6518 -0.4495  0.4560
 6971TIP3    H142548   3.864   1.544   0.987  0.5319  3.6603 -1.5166
 6971TIP3    H242549   3.717   1.573   1.001 -0.0129  0.3865  0.6883
 6972TIP3   OH242550   2.469   6.024   8.266  0.5117 -0.1017 -0.3187
 6972TIP3    H142551   2.443   5.932   8.260  0.2341  0.0385 -1.8813
 6972TIP3    H242552   2.496   6.046   8.177  0.7491  1.2806  0.0777
 6973TIP3   OH242553   0.344   2.955   1.527 -0.0440  0.3638  0.2619
 6973TIP3    H142554   0.299   2.915   1.453  0.0472  0.9884 -0.1385
 6973TIP3    H242555   0.374   2.881   1.580 -0.6436 -0.0712 -0.0022
 6974TIP3   OH242556   4.222   0.953   3.011  0.0668 -0.1258 -0.1722
 6974TIP3    H142557   4.271   0.893   2.955 -0.1349 -1.7524  1.3089
 6974TIP3    H242558   4.133   0.918   3.013 -0.8610  1.9611 -1.6481
 6975TIP3   OH242559   5.912   1.526   0.818  0.1051 -0.6803  0.0285
 6975TIP3    H142560   5.848   1.457   0.835  0.2437 -0.8265 -0.0380
 6975TIP3    H242561   5.915   1.576   0.899 -1.1082  0.1616 -0.4233
 6976TIP3   OH242562   0.985   5.569   2.274  0.0770 -0.4459  0.6244
 6976TIP3    H142563   0.893   5.554   2.295 -0.0758  0.7618  0.8757
 6976TIP3    H242564   1.022   5.481   2.265 -1.0142 -0.9477  0.8756
 6977TIP3   OH242565   2.891   1.951   1.517  0.5698  0.0957  0.5775
 6977TIP3    H142566   2.861   1.862   1.534  1.4181 -0.1384  0.9202
 6977TIP3    H242567   2.859   2.001   1.592  0.8198 -0.0969  0.8139
 6978TIP3   OH242568   3.220   3.798   0.397 -0.4359  0.1926  0.0229
 6978TIP3    H142569   3.272   3.874   0.424 -2.2496  1.2927  0.6178
 6978TIP3    H242570   3.136   3.811   0.440 -1.4645 -1.1329 -1.4892
 6979TIP3   OH242571   1.440   6.311   0.941  0.5072 -0.9020 -0.8525
 6979TIP3    H142572   1.353   6.272   0.951  0.4077 -0.4433  0.2978
 6979TIP3    H242573   1.500   6.238   0.955  0.3169 -1.1421 -1.2623
 6980TIP3   OH242574   2.334   0.331   1.728 -0.2228  0.0878 -0.0389
 6980TIP3    H142575   2.354   0.422   1.707 -0.1295 -0.0284 -0.4820
 6980TIP3    H242576   2.306   0.293   1.644 -0.3294 -0.2710  0.1565
 6981TIP3   OH242577   4.277   2.184   1.371 -0.3973  0.1145  0.1508
 6981TIP3    H142578   4.369   2.190   1.346 -0.3764 -2.8976 -0.8597
 6981TIP3    H242579   4.233   2.150   1.294 -1.9795 -0.5722  1.2943
 6982TIP3   OH242580   2.293   3.830   7.976 -0.2622 -0.2185 -0.7612
 6982TIP3    H142581   2.217   3.771   7.975 -0.4929  0.0753 -1.7143
 6982TIP3    H242582   2.329   3.821   8.064 -0.7059 -1.2547 -0.6694
 6983TIP3   OH242583   6.978   3.265   2.707 -0.2761 -0.3947 -0.5623
 6983TIP3    H142584   7.010   3.255   2.618  0.4476 -1.6735 -0.1889
 6983TIP3    H242585   7.024   3.197   2.757  0.1436  0.9737  1.0122
 6984TIP3   OH242586   2.243   6.262   8.364 -0.0168 -0.4647  0.1000
 6984TIP3    H142587   2.218   6.329   8.427  1.2942 -0.4991  0.6785
 6984TIP3    H242588   2.319   6.218   8.404  0.5717 -0.7654 -1.3033
 6985TIP3   OH242589   6.472   6.475   7.250  0.0574  0.1395 -0.0359
 6985TIP3    H142590   6.459   6.494   7.157  1.1454  1.1011 -0.0081
 6985TIP3    H242591   6.510   6.555   7.286  1.4594 -0.8857  0.8392
 6986TIP3   OH242592   5.116   4.998   1.016  0.0481 -0.6279 -0.2029
 6986TIP3    H142593   5.123   4.925   0.954  0.1911  0.3164 -1.3256
 6986TIP3    H242594   5.187   5.057   0.991 -0.1068 -0.0700  0.6521
 6987TIP3   OH242595   1.886   0.014   2.716  0.6865  0.2175  0.2687
 6987TIP3    H142596   1.848   0.078   2.776  2.0592  0.4168  0.9701
 6987TIP3    H242597   1.909  -0.060   2.772  1.0091 -0.0377 -0.1938
 6988TIP3   OH242598   5.432   5.469   7.038  0.2832  0.4486 -0.0872
 6988TIP3    H142599   5.358   5.409   7.043  1.3120 -0.8325  0.3757
 6988TIP3    H242600   5.395   5.551   7.007 -0.8924 -0.9532 -2.7101
 6989TIP3   OH242601   4.359   3.498   1.262 -0.3219  0.0715  0.0648
 6989TIP3    H142602   4.422   3.557   1.219 -2.5282  2.6273  0.0976
 6989TIP3    H242603   4.283   3.498   1.204 -1.6551 -0.0353  1.7323
 6990TIP3   OH242604   6.809   2.943   1.348  0.4199 -0.2277 -0.0308
 6990TIP3    H142605   6.837   3.030   1.377 -0.1787  0.8119 -2.3935
 6990TIP3    H242606   6.881   2.885   1.376  0.3450  0.7759  2.5200
 6991TIP3   OH242607   6.681   4.272   1.864 -0.2423  0.1249 -0.0984
 6991TIP3    H142608   6.623   4.345   1.885 -1.8734 -0.8692 -0.9216
 6991TIP3    H242609   6.709   4.289   1.775  2.3033  1.5452  0.8825
 6992TIP3   OH242610   6.197   5.149   1.883 -0.1271  0.7700 -0.1324
 6992TIP3    H142611   6.277   5.201   1.894 -0.2076  0.7711  0.4666
 6992TIP3    H242612   6.139   5.206   1.833  0.9583  0.0119 -2.4115
 6993TIP3   OH242613   0.909   0.905   7.924 -0.4587 -0.6681  0.0470
 6993TIP3    H142614   0.927   0.941   7.837 -0.9255 -1.0570 -0.2136
 6993TIP3    H242615   0.824   0.942   7.948  0.0509  0.1090  0.7075
 6994TIP3   OH242616   5.001   5.765   1.183 -0.2280 -0.0907  0.0705
 6994TIP3    H142617   4.957   5.768   1.268  2.1541  0.3800  1.3716
 6994TIP3    H242618   5.086   5.727   1.202 -0.6348 -2.6823 -2.6547
 6995TIP3   OH242619   6.288   6.209   2.147 -0.1388  0.3732 -0.0860
 6995TIP3    H142620   6.352   6.156   2.099  0.7524  0.5178  0.9013
 6995TIP3    H242621   6.283   6.168   2.233 -0.7891  0.8430  0.1062
 6996TIP3   OH242622   1.123   6.319   7.355  0.2217  0.2565  0.4166
 6996TIP3    H142623   1.157   6.387   7.298 -0.9548 -0.1845 -0.8637
 6996TIP3    H242624   1.154   6.237   7.316 -0.5396 -0.0468  0.4385
 6997TIP3   OH242625   2.719   5.712   8.292 -0.9986  0.7485  0.6613
 6997TIP3    H142626   2.763   5.748   8.215  0.0411  0.4074  1.0763
 6997TIP3    H242627   2.627   5.705   8.266 -0.3833 -1.2362 -1.2876
 6998TIP3   OH242628   5.738   5.989   2.541 -0.0688 -0.0694  0.1178
 6998TIP3    H142629   5.801   5.944   2.485  0.3158 -0.8049  1.1293
 6998TIP3    H242630   5.652   5.960   2.510  0.0267  1.2013 -1.4951
 6999TIP3   OH242631   1.153   2.840   1.347  0.4602  0.1546  0.3638
 6999TIP3    H142632   1.244   2.826   1.373 -0.0483 -2.4005  1.0371
 6999TIP3    H242633   1.122   2.754   1.319 -1.5863  1.0826 -0.4512
 7000TIP3   OH242634   2.059   5.074   0.852 -0.3912  0.2931 -0.0387
 7000TIP3    H142635   1.988   5.046   0.795 -0.0401 -1.5687  0.3922
 7000TIP3    H242636   2.076   4.999   0.909  2.2537  0.4854 -0.4555
 7001TIP3   OH242637   4.469   5.377   8.126 -0.0083  0.1204 -0.7245
 7001TIP3    H142638   4.432   5.431   8.056  1.8997  3.1859  0.4311
 7001TIP3    H242639   4.547   5.338   8.087 -1.1033 -1.5290 -1.3987
 7002TIP3   OH242640   4.637   3.074   1.916  0.5629  0.1956 -0.8923
 7002TIP3    H142641   4.711   3.132   1.932  0.4921  0.3851 -1.2440
 7002TIP3    H242642   4.562   3.132   1.906 -0.0777 -0.0614  1.6576
 7003TIP3   OH242643   4.052   0.398   7.743  0.1930 -0.2994  0.1231
 7003TIP3    H142644   4.089   0.461   7.681  0.7021  0.0606  0.7758
 7003TIP3    H242645   3.958   0.413   7.740  0.3094  0.5055  0.2637
 7004TIP3   OH242646   2.692   0.582   2.298 -0.3490  0.8786  0.2153
 7004TIP3    H142647   2.609   0.537   2.314 -0.3826  0.8259 -0.1104
 7004TIP3    H242648   2.713   0.623   2.382 -0.9561  1.3013  0.1657
 7005TIP3   OH242649   1.181   2.086   2.385 -0.1686  0.9631  0.3982
 7005TIP3    H142650   1.200   1.994   2.370 -1.8066  0.4253  1.3701
 7005TIP3    H242651   1.218   2.104   2.472  0.5625  1.3591  0.0108
 7006TIP3   OH242652   6.619   5.012   0.054 -0.5952  0.0985  0.6414
 7006TIP3    H142653   6.545   5.074   0.056 -1.3750 -0.7979  0.3973
 7006TIP3    H242654   6.627   4.982   0.145  1.4242  2.3873  1.3199
 7007TIP3   OH242655   5.654   2.360   0.420 -0.1346 -0.1554  0.0604
 7007TIP3    H142656   5.568   2.347   0.459  0.3660 -0.8800  0.9820
 7007TIP3    H242657   5.707   2.397   0.491  0.5322 -0.5452 -0.2257
 7008TIP3   OH242658   3.928   2.046   0.721  0.2876 -0.3589 -0.8083
 7008TIP3    H142659   3.989   1.973   0.726  1.0412  0.3335  0.4685
 7008TIP3    H242660   3.844   2.009   0.751  0.6171 -0.7387 -0.3433
 7009TIP3   OH242661   3.108   1.140   7.331 -0.6804  0.5981 -0.7845
 7009TIP3    H142662   3.154   1.056   7.337 -1.2072  0.3650  0.3660
 7009TIP3    H242663   3.015   1.116   7.337 -0.8228  1.2906 -0.1596
 7010TIP3   OH242664   3.302   3.308   2.521 -0.0433  0.4036 -0.6003
 7010TIP3    H142665   3.246   3.290   2.446 -1.8753  0.5153  0.6607
 7010TIP3    H242666   3.242   3.309   2.596  1.1492  3.5945  0.4716
 7011TIP3   OH242667   2.653   5.473   2.707  0.0013 -0.1293 -0.3236
 7011TIP3    H142668   2.712   5.403   2.682  1.7465  1.1366  0.0487
 7011TIP3    H242669   2.648   5.467   2.803  1.2613  1.0169 -0.1448
 7012TIP3   OH242670   3.994   2.665   2.551 -0.3374 -0.3575  0.2172
 7012TIP3    H142671   3.950   2.654   2.467 -0.0434  0.8113 -0.1095
 7012TIP3    H242672   3.925   2.653   2.617 -0.3776 -2.2632 -0.1243
 7013TIP3   OH242673   0.678   6.371   2.334 -0.3876  0.5747 -0.6825
 7013TIP3    H142674   0.700   6.438   2.399  0.5088  0.0921 -0.4749
 7013TIP3    H242675   0.706   6.289   2.374 -1.0401  0.1203 -1.1382
 7014TIP3   OH242676   2.878   3.836   7.835 -0.7814 -0.7630  0.7163
 7014TIP3    H142677   2.869   3.777   7.910 -0.9270 -1.8955 -0.1753
 7014TIP3    H242678   2.956   3.805   7.790 -0.0546  0.6034  0.9773
 7015TIP3   OH242679   2.624   1.295   3.253  0.1847  0.3863 -0.3252
 7015TIP3    H142680   2.647   1.251   3.171  1.1882 -1.6620  0.9521
 7015TIP3    H242681   2.547   1.248   3.285 -0.3955  1.3780 -0.2417
 7016TIP3   OH242682   2.971   2.913   3.520  0.1634 -0.5184  0.3760
 7016TIP3    H142683   2.945   2.997   3.560 -2.0585 -1.6144  1.3935
 7016TIP3    H242684   3.036   2.937   3.455 -1.1248  2.1420 -0.0674
 7017TIP3   OH242685   1.266   1.338   0.173 -0.4844 -0.2674 -0.3452
 7017TIP3    H142686   1.264   1.352   0.268  0.5652  0.9484 -0.4870
 7017TIP3    H242687   1.356   1.355   0.148  0.1408 -3.8920 -1.1106
 7018TIP3   OH242688   5.492   1.816   2.252  0.8242 -0.8853 -0.6983
 7018TIP3    H142689   5.513   1.773   2.335 -3.8573 -1.5110  0.4204
 7018TIP3    H242690   5.472   1.744   2.192  1.5564 -0.3669 -1.6000
 7019TIP3   OH242691   5.867   1.540   2.189  0.4415 -0.5416 -0.3286
 7019TIP3    H142692   5.909   1.625   2.202  0.6664 -0.7288  0.2185
 7019TIP3    H242693   5.940   1.478   2.184  0.2510 -0.8854  0.7479
 7020TIP3   OH242694   0.313   1.890   7.550 -0.2944  0.0155 -0.1355
 7020TIP3    H142695   0.398   1.890   7.505 -0.4066 -0.2608 -0.3481
 7020TIP3    H242696   0.304   1.801   7.584  0.2738  0.4998  1.3570
 7021TIP3   OH242697   6.721   4.090   2.706  0.7985  0.0913 -0.2459
 7021TIP3    H142698   6.763   4.048   2.781  2.2516  1.5158 -0.2047
 7021TIP3    H242699   6.640   4.128   2.743  0.7637 -0.4694  0.2682
 7022TIP3   OH242700   4.576   0.933   0.756 -0.2514  0.1401 -0.2752
 7022TIP3    H142701   4.506   0.913   0.818  1.2173 -0.2581  1.3199
 7022TIP3    H242702   4.614   0.848   0.735  0.7989  0.4959  0.1594
 7023TIP3   OH242703   1.896   6.564   1.814 -0.0535  0.2014 -0.5720
 7023TIP3    H142704   1.908   6.469   1.813  0.8784  0.3071 -0.6119
 7023TIP3    H242705   1.928   6.591   1.900  0.3894  0.5563 -0.8413
 7024TIP3   OH242706   0.270   4.136   1.411 -0.1731  0.6614  0.6032
 7024TIP3    H142707   0.299   4.106   1.497 -0.6311 -2.6152 -0.2478
 7024TIP3    H242708   0.287   4.062   1.353 -1.7763  2.0021 -1.7353
 7025TIP3   OH242709   3.149   1.212   0.045  0.5263 -0.1939  0.2096
 7025TIP3    H142710   3.227   1.214   0.100  1.6920  2.2352 -1.3524
 7025TIP3    H242711   3.093   1.282   0.079 -0.0729 -0.5985  0.0791
 7026TIP3   OH242712   6.815   4.759   8.373 -0.2702  0.1247  0.7490
 7026TIP3    H142713   6.831   4.851   8.353  2.4351 -0.8774 -2.9751
 7026TIP3    H242714   6.726   4.743   8.343 -0.8441  1.4940  1.6178
 7027TIP3   OH242715   4.077   3.504   1.597  0.2918 -0.5893 -0.2713
 7027TIP3    H142716   4.038   3.464   1.674  2.5422 -0.6039  0.9428
 7027TIP3    H242717   4.058   3.598   1.606 -2.7556 -0.9304 -1.7901
 7028TIP3   OH242718   0.214   4.998   2.303  0.2004  0.5916  0.0471
 7028TIP3    H142719   0.173   5.075   2.341 -1.4256 -0.2173  0.0153
 7028TIP3    H242720   0.201   5.008   2.209  0.3030  0.4633  0.0190
 7029TIP3   OH242721   5.497   0.323   1.415 -0.5226 -0.1812 -0.0627
 7029TIP3    H142722   5.575   0.313   1.360  1.0777  0.4651  1.9903
 7029TIP3    H242723   5.439   0.380   1.364  0.2337 -0.8178 -1.7050
 7030TIP3   OH242724   6.146   2.903   1.176  0.3646  0.8213 -0.0404
 7030TIP3    H142725   6.149   2.835   1.109 -1.2050  0.0237  0.6540
 7030TIP3    H242726   6.180   2.861   1.255  0.5791  1.2350  0.0932
 7031TIP3   OH242727   1.102   4.732   7.075 -0.2178 -0.1597  0.1985
 7031TIP3    H142728   1.115   4.824   7.055  0.7047 -0.3423 -0.0553
 7031TIP3    H242729   1.190   4.696   7.085 -0.5829 -0.6265  2.0900
 7032TIP3   OH242730   4.013   2.599   2.256  0.2754  0.1576  0.0238
 7032TIP3    H142731   3.987   2.527   2.313 -1.2221  0.7812  0.1729
 7032TIP3    H242732   4.101   2.575   2.225 -0.5473 -2.1989 -0.6904
 7033TIP3   OH242733   0.994   4.714   1.437 -0.4397  0.4066  0.7369
 7033TIP3    H142734   0.975   4.622   1.452  1.1739 -0.4543 -1.8188
 7033TIP3    H242735   1.057   4.714   1.364 -0.9633  3.5470  0.1402
 7034TIP3   OH242736   4.145   5.049   0.280  0.0260 -0.8764 -0.0143
 7034TIP3    H142737   4.166   5.142   0.274 -0.3039 -0.7960  0.0452
 7034TIP3    H242738   4.111   5.037   0.369 -1.5234 -0.7159 -0.5616
 7035TIP3   OH242739   3.488   5.091   0.720  0.0878 -0.3687 -0.3367
 7035TIP3    H142740   3.541   5.154   0.769 -0.4005 -0.2475  0.0436
 7035TIP3    H242741   3.490   5.122   0.629 -0.3403  0.3342 -0.1125
 7036TIP3   OH242742   4.270   4.265   8.259 -0.1559 -0.0504  0.1129
 7036TIP3    H142743   4.195   4.229   8.212 -0.6765 -0.4545  1.2275
 7036TIP3    H242744   4.278   4.355   8.227 -1.1523  0.0117  0.0261
 7037TIP3   OH242745   4.036   6.036   8.320 -0.5176 -0.1006  0.2093
 7037TIP3    H142746   4.034   5.977   8.245 -0.4690 -1.1503  1.0111
 7037TIP3    H242747   4.127   6.032   8.351 -1.0900 -1.6715  1.8364
 7038TIP3   OH242748   5.289   0.798   0.813 -0.1867 -0.5954 -0.1045
 7038TIP3    H142749   5.194   0.804   0.803 -0.1183 -0.1266 -0.5030
 7038TIP3    H242750   5.324   0.826   0.729  0.2997 -1.2378 -0.1186
 7039TIP3   OH242751   0.923   5.526   1.129 -0.0858  0.3384  0.5637
 7039TIP3    H142752   0.867   5.451   1.111 -0.8772  1.2463 -0.9747
 7039TIP3    H242753   0.862   5.598   1.145  0.6653  0.8129  1.4168
 7040TIP3   OH242754   2.023   6.655   2.695 -0.3299  0.8975  0.7090
 7040TIP3    H142755   2.066   6.650   2.780  0.4020 -1.1400  0.2843
 7040TIP3    H242756   2.027   6.748   2.672  0.2880  1.3489  2.4649
 7041TIP3   OH242757   6.417   2.610   1.849 -0.3313 -0.3379 -0.3452
 7041TIP3    H142758   6.509   2.582   1.846 -0.0956  0.0503  1.5630
 7041TIP3    H242759   6.374   2.542   1.900 -1.1965 -0.6785 -1.4995
 7042TIP3   OH242760   2.757   2.878   1.145 -0.6579  0.5879  0.2913
 7042TIP3    H142761   2.671   2.836   1.155  0.2700 -1.8858 -1.2356
 7042TIP3    H242762   2.815   2.830   1.204  0.1033  0.7935 -0.2721
 7043TIP3   OH242763   3.293   3.708   2.356 -0.0278 -0.3784 -0.0670
 7043TIP3    H142764   3.308   3.790   2.402 -0.7167 -0.1068 -0.3114
 7043TIP3    H242765   3.204   3.683   2.381 -0.5945  0.0098 -1.6083
 7044TIP3   OH242766   0.775   2.259   7.036  0.4251  0.5679  0.2681
 7044TIP3    H142767   0.765   2.176   6.989  1.1274  0.6198  0.0058
 7044TIP3    H242768   0.698   2.264   7.093  0.4713 -0.3516  0.4304
 7045TIP3   OH242769   3.590   4.913   7.785 -0.6561 -0.2079 -0.1231
 7045TIP3    H142770   3.625   4.873   7.705 -0.4920  2.1006 -1.3048
 7045TIP3    H242771   3.549   4.841   7.833  2.6246 -2.4153 -0.3495
 7046TIP3   OH242772   3.694   4.120   0.905  0.1925 -0.1351 -0.3374
 7046TIP3    H142773   3.724   4.079   0.986 -1.4691 -0.4627  0.1601
 7046TIP3    H242774   3.770   4.119   0.848  0.5753 -2.8271  0.0874
 7047TIP3   OH242775   1.720   1.113   7.931  0.4400  0.2162  0.3906
 7047TIP3    H142776   1.708   1.078   8.019 -1.5155  0.0399  0.0994
 7047TIP3    H242777   1.649   1.177   7.921  1.5109  1.3126 -0.5489
 7048TIP3   OH242778   5.585   0.652   8.070  0.8043 -0.3868 -0.6839
 7048TIP3    H142779   5.555   0.741   8.052  1.0011 -0.4928 -1.5906
 7048TIP3    H242780   5.505   0.604   8.091  0.9969  0.9160  4.3363
 7049TIP3   OH242781   2.241   0.090   0.945  0.5266 -0.4165  0.4228
 7049TIP3    H142782   2.206   0.119   1.029  0.6492  0.6023  0.1390
 7049TIP3    H242783   2.292   0.164   0.913 -1.0636 -0.0372 -1.4233
 7050TIP3   OH242784   5.951   5.069   7.857  0.1220  0.6446  0.0900
 7050TIP3    H142785   5.880   5.086   7.918 -0.1543  1.1623 -0.3713
 7050TIP3    H242786   5.975   4.978   7.874  0.9941  1.1729  1.9279
 7051TIP3   OH242787   5.281   1.346   2.882  0.3706 -0.1928 -0.3318
 7051TIP3    H142788   5.375   1.336   2.868  0.3466 -0.1803 -0.5123
 7051TIP3    H242789   5.268   1.441   2.886  0.0129 -0.0419 -2.9698
 7052TIP3   OH242790   0.486   6.006   0.569  0.3799  0.2092  0.6520
 7052TIP3    H142791   0.561   6.034   0.621 -0.7957  1.7292  1.6348
 7052TIP3    H242792   0.522   5.983   0.484  1.9287  1.0640  1.0495
 7053TIP3   OH242793   3.810   5.151   1.120  0.3309 -0.7693  0.1399
 7053TIP3    H142794   3.886   5.209   1.127  0.3548 -0.8778  0.8235
 7053TIP3    H242795   3.738   5.209   1.095  0.6943 -0.7161 -0.8386
 7054TIP3   OH242796   3.085   0.473   1.420  0.7357 -0.3053 -0.3328
 7054TIP3    H142797   3.169   0.451   1.460  0.3282  1.6920  1.8284
 7054TIP3    H242798   3.107   0.533   1.348  1.1309  2.0340  1.6237
 7055TIP3   OH242799   0.683   5.521   0.430  0.4709  0.3077 -0.3966
 7055TIP3    H142800   0.683   5.581   0.355 -0.7157  3.5471  1.9371
 7055TIP3    H242801   0.767   5.538   0.473 -0.5506  1.6094  1.1664
 7056TIP3   OH242802   1.168   6.215   1.565  0.1404  0.2463 -0.9443
 7056TIP3    H142803   1.244   6.272   1.551 -2.2211  3.5806 -1.4713
 7056TIP3    H242804   1.163   6.206   1.660  2.1967 -1.6957 -0.9351
 7057TIP3   OH242805   4.348   0.043   6.865  0.1281 -0.5237  0.0169
 7057TIP3    H142806   4.254   0.048   6.878  0.2216  0.0312  0.5470
 7057TIP3    H242807   4.377  -0.024   6.928 -0.1321 -2.1467 -1.4998
 7058TIP3   OH242808   3.781   5.929   7.525 -0.6386  0.5862  0.2454
 7058TIP3    H142809   3.687   5.917   7.529 -0.5554 -0.7425 -1.1027
 7058TIP3    H242810   3.793   6.024   7.513 -1.9533  0.4660 -2.7348
 7059TIP3   OH242811   0.302   1.497   7.746  0.0978  0.4963  0.4091
 7059TIP3    H142812   0.278   1.405   7.752 -3.3689  1.1077 -1.5104
 7059TIP3    H242813   0.389   1.496   7.706  1.0275 -1.8878  2.2270
 7060TIP3   OH242814   0.185   4.163   7.687 -0.0965 -0.0500 -0.1299
 7060TIP3    H142815   0.183   4.244   7.739 -1.4340 -0.6270  0.7551
 7060TIP3    H242816   0.163   4.191   7.598  2.3435  0.9702 -0.4967
 7061TIP3   OH242817   2.487   0.868   8.261 -0.1958  0.5226 -0.0468
 7061TIP3    H142818   2.402   0.857   8.304  0.1131  0.9587  0.6883
 7061TIP3    H242819   2.539   0.794   8.291 -0.5405 -0.1818 -1.1038
 7062TIP3   OH242820   6.490   1.540   1.059 -0.0807  0.1741 -0.3524
 7062TIP3    H142821   6.507   1.482   0.984 -0.6126 -0.2763 -0.1275
 7062TIP3    H242822   6.395   1.539   1.069  0.0855 -1.7529  1.8639
 7063TIP3   OH242823   6.459   3.820   7.471 -0.0048  0.2954 -0.2571
 7063TIP3    H142824   6.497   3.763   7.404 -1.3331  0.6804 -1.3867
 7063TIP3    H242825   6.365   3.804   7.465 -0.2480  1.2788  0.6627
 7064TIP3   OH242826   2.361   2.720   0.857 -0.4364 -0.2282  0.0088
 7064TIP3    H142827   2.430   2.777   0.822 -1.2384  0.4475 -0.4936
 7064TIP3    H242828   2.346   2.656   0.787  1.9274 -2.4584  1.3421
 7065TIP3   OH242829   2.235   0.901   1.020 -0.1411 -0.1250  0.2029
 7065TIP3    H142830   2.330   0.888   1.022 -0.3441 -2.3247 -1.2948
 7065TIP3    H242831   2.216   0.923   0.929 -1.2973 -2.2751 -0.1247
 7066TIP3   OH242832   0.468   6.329   2.931 -0.0403 -0.3307 -0.5123
 7066TIP3    H142833   0.421   6.266   2.985  0.1183  0.6931  0.8884
 7066TIP3    H242834   0.471   6.289   2.845 -2.7306 -0.8193 -0.4758
 7067TIP3   OH242835   3.535   1.519   7.915 -0.0124  0.5747 -0.0887
 7067TIP3    H142836   3.567   1.452   7.975 -1.1196 -0.5511 -0.7233
 7067TIP3    H242837   3.479   1.575   7.969 -0.4095  0.0033  0.1030
 7068TIP3   OH242838   0.050   1.598   0.953  0.0846 -0.8698 -0.6783
 7068TIP3    H142839   0.085   1.687   0.954  0.6237 -1.0805 -0.0043
 7068TIP3    H242840   0.010   1.589   0.866 -0.8018  0.3328 -0.4095
 7069TIP3   OH242841   6.594   2.311   8.246  0.0227 -0.1706 -0.1247
 7069TIP3    H142842   6.554   2.374   8.186  0.2387 -0.8141 -0.9742
 7069TIP3    H242843   6.649   2.364   8.303 -1.0539  0.5815  0.2443
 7070TIP3   OH242844   3.241   0.485   1.926 -0.4947  0.7637 -0.0974
 7070TIP3    H142845   3.333   0.490   1.951 -0.3258 -0.2866 -0.4628
 7070TIP3    H242846   3.194   0.521   2.001  0.1234 -0.3900  0.8818
 7071TIP3   OH242847   4.064   4.921   0.529 -0.3451 -0.2608 -0.3000
 7071TIP3    H142848   4.089   4.955   0.615  0.2491  1.3691 -1.0515
 7071TIP3    H242849   4.087   4.829   0.532  0.1435 -0.1238  1.1140
 7072TIP3   OH242850   2.853   0.985   0.993  0.3461 -0.0540 -0.0779
 7072TIP3    H142851   2.941   0.997   0.958  0.9493 -0.3259  1.2445
 7072TIP3    H242852   2.825   0.899   0.961  1.8682 -1.4158  1.9426
 7073TIP3   OH242853   4.893   6.633   7.336 -0.4289 -0.0477 -0.1061
 7073TIP3    H142854   4.942   6.552   7.321  2.2527  1.5604 -0.7176
 7073TIP3    H242855   4.958   6.693   7.372 -2.7658  1.3359  2.0326
 7074TIP3   OH242856   1.452   4.348   2.649  0.0538 -0.0058 -0.4237
 7074TIP3    H142857   1.545   4.349   2.674 -0.6482  1.6151  2.7014
 7074TIP3    H242858   1.416   4.426   2.691 -3.1244 -1.6761  0.2256
 7075TIP3   OH242859   0.727   3.339   1.589  0.0049 -0.4748  0.5761
 7075TIP3    H142860   0.697   3.369   1.675 -1.0451  0.1797  0.0008
 7075TIP3    H242861   0.650   3.299   1.550  0.2877 -0.1548 -0.3273
 7076TIP3   OH242862   2.687   4.188   0.134 -0.3839  0.2700  0.2105
 7076TIP3    H142863   2.627   4.122   0.099 -1.0994  0.8003  0.4192
 7076TIP3    H242864   2.703   4.248   0.060  0.1312 -0.0325  0.0697
 7077TIP3   OH242865   5.495   4.982   1.623  0.0183 -0.4517 -0.7707
 7077TIP3    H142866   5.554   4.918   1.660  0.9944  0.6318 -0.4063
 7077TIP3    H242867   5.407   4.951   1.646  0.4667 -1.6479 -0.6366
 7078TIP3   OH242868   3.721   4.451   1.348 -0.0838 -0.4706 -0.0513
 7078TIP3    H142869   3.664   4.395   1.295 -0.1187 -1.5183  1.0237
 7078TIP3    H242870   3.746   4.522   1.290 -2.3845 -0.0317 -0.6207
 7079TIP3   OH242871   0.284   5.622   2.189  0.3012  0.2898  0.4553
 7079TIP3    H142872   0.361   5.605   2.135 -0.3971 -2.3198  0.1935
 7079TIP3    H242873   0.234   5.688   2.141  1.1503  0.1891 -0.5790
 7080TIP3   OH242874   2.408   2.508   1.937  0.5561 -0.2413  0.9216
 7080TIP3    H142875   2.425   2.429   1.989  2.3007 -1.0948 -0.8114
 7080TIP3    H242876   2.463   2.575   1.977  2.3101 -1.0308 -0.0185
 7081TIP3   OH242877   0.003   5.722   1.897  0.2145 -0.1954 -0.3119
 7081TIP3    H142878   0.052   5.649   1.861 -0.2598 -0.0674 -1.2280
 7081TIP3    H242879  -0.080   5.722   1.849 -0.3127  0.1597  0.5688
 7082TIP3   OH242880   3.980   5.335   1.682 -0.4393  0.0842 -0.9261
 7082TIP3    H142881   3.984   5.261   1.622 -1.6436 -0.8805  0.1290
 7082TIP3    H242882   3.890   5.367   1.675 -0.6897 -0.2174  0.5200
 7083TIP3   OH242883   1.597   3.940   7.614  0.1374  0.0179 -0.1544
 7083TIP3    H142884   1.579   3.903   7.701  1.7547 -0.1155  0.1721
 7083TIP3    H242885   1.582   3.868   7.553 -0.1177 -0.1540  0.1082
 7084TIP3   OH242886   6.195   3.442   3.105  0.2903  0.4821 -0.0447
 7084TIP3    H142887   6.264   3.497   3.141 -0.4653  0.4638  1.4992
 7084TIP3    H242888   6.125   3.444   3.171 -0.0332 -1.7662 -0.2536
 7085TIP3   OH242889   5.593   0.583   0.348 -0.0797 -0.0017  0.3367
 7085TIP3    H142890   5.652   0.634   0.293 -0.8725  0.7828  0.1909
 7085TIP3    H242891   5.593   0.630   0.432  0.8702 -1.0060  0.9373
 7086TIP3   OH242892   4.985   0.979   1.890 -0.8640 -0.3621 -0.0455
 7086TIP3    H142893   5.009   0.918   1.821 -2.1757 -1.7726  0.6944
 7086TIP3    H242894   4.992   1.065   1.849  1.3365 -0.9278 -1.0134
 7087TIP3   OH242895   6.158   1.846   1.784 -0.0695 -0.4005  0.0083
 7087TIP3    H142896   6.072   1.805   1.790 -0.0216 -0.7011 -1.1237
 7087TIP3    H242897   6.198   1.806   1.707  0.8274  0.2127  0.1456
 7088TIP3   OH242898   2.405   6.080   2.048 -0.9446 -0.3008  0.2498
 7088TIP3    H142899   2.336   6.026   2.010 -1.3776  0.1604  0.3690
 7088TIP3    H242900   2.423   6.040   2.133 -0.8704 -0.5821  0.1040
 7089TIP3   OH242901   2.293   4.182   1.214  0.2130  0.0056 -0.2474
 7089TIP3    H142902   2.299   4.243   1.287  0.9111  1.1263 -1.1874
 7089TIP3    H242903   2.204   4.192   1.181 -1.0042 -2.4537  2.0044
 7090TIP3   OH242904   2.262   4.483   7.780 -0.0927 -0.4850 -0.2537
 7090TIP3    H142905   2.282   4.450   7.867  1.3468  1.0582  0.0531
 7090TIP3    H242906   2.173   4.519   7.787 -0.2462 -0.9785  0.3761
 7091TIP3   OH242907   5.854   0.439   7.530 -0.1026  0.0249  0.0961
 7091TIP3    H142908   5.905   0.457   7.609  2.8196 -1.9918 -1.1729
 7091TIP3    H242909   5.803   0.361   7.552  0.3790 -0.2790  0.1533
 7092TIP3   OH242910   2.151   3.635   3.002  0.1155 -0.0960  0.1796
 7092TIP3    H142911   2.167   3.542   3.014 -0.6005 -0.1956  0.4258
 7092TIP3    H242912   2.237   3.673   2.982  0.4876 -0.7242  0.5974
 7093TIP3   OH242913   6.560   2.088   2.394 -0.2288 -0.3923  0.3242
 7093TIP3    H142914   6.491   2.093   2.461 -0.4673 -0.2436  0.0727
 7093TIP3    H242915   6.581   2.180   2.375 -1.5936 -0.3614 -1.2450
 7094TIP3   OH242916   6.234   2.245   0.108  0.5253 -0.1523 -0.4115
 7094TIP3    H142917   6.186   2.168   0.077 -0.2797 -0.8779  2.3700
 7094TIP3    H242918   6.322   2.212   0.128  0.9136  0.2170 -1.4548
 7095TIP3   OH242919   0.819   3.709   7.850 -0.0422  0.3965 -0.4683
 7095TIP3    H142920   0.807   3.783   7.910  1.4318  2.0827 -2.1151
 7095TIP3    H242921   0.888   3.657   7.891 -0.5931  0.3093  0.3643
 7096TIP3   OH242922   3.817   5.103   7.603 -0.3983  0.3007  1.1036
 7096TIP3    H142923   3.745   5.093   7.540  1.0039 -0.1683 -0.4916
 7096TIP3    H242924   3.774   5.133   7.683 -2.3593  0.1242  0.1891
 7097TIP3   OH242925   4.087   1.824   0.745 -0.1145  0.0714  0.2785
 7097TIP3    H142926   4.178   1.799   0.758  0.5473 -0.4985 -3.9210
 7097TIP3    H242927   4.046   1.748   0.703 -1.6409  1.4035 -0.7815
 7098TIP3   OH242928   5.402   1.336   0.816 -0.2643  0.0866  0.1391
 7098TIP3    H142929   5.414   1.387   0.897 -0.7552 -0.2364  0.4180
 7098TIP3    H242930   5.434   1.249   0.838  0.1615  0.1541 -0.2033
 7099TIP3   OH242931   5.471   5.300   2.832 -0.1751 -0.7231  0.5772
 7099TIP3    H142932   5.440   5.373   2.885  1.8289  0.1390  0.6635
 7099TIP3    H242933   5.566   5.301   2.843  0.1363 -1.7542 -1.4554
 7100TIP3   OH242934   1.444   0.039   1.223 -0.1990 -0.5117  0.8241
 7100TIP3    H142935   1.395   0.100   1.278  1.5513  1.5129  0.2771
 7100TIP3    H242936   1.535   0.050   1.251  0.7081  0.3447 -2.1803
 7101TIP3   OH242937   0.707   5.393   0.842 -0.3593 -0.0236 -0.5543
 7101TIP3    H142938   0.664   5.469   0.881 -0.9086 -0.1450 -0.9144
 7101TIP3    H242939   0.682   5.396   0.750  1.3285  0.5435 -1.0304
 7102TIP3   OH242940   0.790   6.719   0.396  0.4434  0.7885  0.7093
 7102TIP3    H142941   0.838   6.771   0.460  0.7746 -0.1601  1.2503
 7102TIP3    H242942   0.848   6.645   0.378  0.8264  1.5156 -1.4484
 7103TIP3   OH242943   0.603   0.063   1.578  0.4112  0.0701  0.6123
 7103TIP3    H142944   0.654   0.107   1.511 -0.1043 -0.0965  0.1073
 7103TIP3    H242945   0.648  -0.021   1.591  0.2263 -0.1065  0.1172
 7104TIP3   OH242946   4.334   4.146   1.769 -0.3187  0.4495  0.5409
 7104TIP3    H142947   4.305   4.173   1.681  0.0876  1.0334  0.5795
 7104TIP3    H242948   4.415   4.196   1.784  1.1211 -1.6261  0.1537
 7105TIP3   OH242949   2.386   4.245   3.758 -0.2123 -0.5514 -0.1006
 7105TIP3    H142950   2.481   4.256   3.746 -0.2111 -0.2651  0.1696
 7105TIP3    H242951   2.377   4.154   3.788  0.2628  0.2070  2.6869
 7106TIP3   OH242952   3.538   5.251   2.860  0.4171 -0.1116 -0.1287
 7106TIP3    H142953   3.487   5.181   2.901 -1.2912  2.2352  2.1031
 7106TIP3    H242954   3.495   5.331   2.889  1.7126  1.9011 -3.2818
 7107TIP3   OH242955   5.726   3.559   6.886  0.6615 -0.3278  0.2978
 7107TIP3    H142956   5.804   3.575   6.940  0.5068 -1.7343  0.9890
 7107TIP3    H242957   5.758   3.511   6.810  0.8752  1.6398 -0.9144
 7108TIP3   OH242958   5.789   1.121   0.700  0.0457 -0.1542  0.0486
 7108TIP3    H142959   5.857   1.158   0.757  0.2949 -0.0931 -0.2839
 7108TIP3    H242960   5.838   1.076   0.631 -0.2453  0.3440 -0.4900
 7109TIP3   OH242961   1.426   1.528   7.314  0.0062 -0.0018  0.2221
 7109TIP3    H142962   1.396   1.538   7.404  1.1021 -1.3227  0.7681
 7109TIP3    H242963   1.505   1.582   7.309  0.5679 -0.7961  0.3920
 7110TIP3   OH242964   0.526   3.795   1.659  0.0315  0.0076 -0.3943
 7110TIP3    H142965   0.558   3.845   1.585 -1.0609 -0.3010 -1.0998
 7110TIP3    H242966   0.601   3.742   1.687 -0.0520 -1.3580 -2.5453
 7111TIP3   OH242967   3.811   2.644   1.397  0.0552  0.1446 -0.0816
 7111TIP3    H142968   3.851   2.690   1.470  2.4353 -1.5760 -0.1834
 7111TIP3    H242969   3.804   2.553   1.426 -1.5585 -0.0794 -1.0122
 7112TIP3   OH242970   2.421   6.617   1.176  0.1060  0.2724  0.0390
 7112TIP3    H142971   2.444   6.666   1.255 -1.3688 -0.2986  0.8714
 7112TIP3    H242972   2.362   6.675   1.128  0.7348  0.4856 -0.4855
 7113TIP3   OH242973   1.970   4.972   1.696  0.1730  0.7697  0.2664
 7113TIP3    H142974   1.883   4.945   1.724 -0.8398  1.4073 -2.0589
 7113TIP3    H242975   1.990   5.049   1.750 -0.1108 -0.1207  1.6981
 7114TIP3   OH242976   6.653   5.550   1.548  0.5625 -0.0250 -0.7101
 7114TIP3    H142977   6.575   5.601   1.567  0.8113 -0.2989  1.2292
 7114TIP3    H242978   6.725   5.613   1.551  0.7163 -0.2400  0.3179
 7115TIP3   OH242979   1.039   5.102   1.790 -0.3286 -0.0478  0.3004
 7115TIP3    H142980   0.998   5.020   1.762  0.4558 -0.7515  1.1459
 7115TIP3    H242981   1.043   5.155   1.710  1.1024 -1.6726 -0.7930
 7116TIP3   OH242982   3.729   5.593   3.302 -0.0992  0.5425  0.3487
 7116TIP3    H142983   3.749   5.514   3.251 -2.1838  0.9477 -1.2459
 7116TIP3    H242984   3.692   5.560   3.384 -0.5229 -0.1522 -0.1078
 7117TIP3   OH242985   1.667   6.763   8.376 -0.3453  0.4584  0.9568
 7117TIP3    H142986   1.714   6.834   8.420 -0.5818  1.7618 -0.8184
 7117TIP3    H242987   1.726   6.735   8.306 -2.1733  2.3302 -1.5106
 7118TIP3   OH242988   5.843   3.320   1.056  0.0645  0.2046 -0.1681
 7118TIP3    H142989   5.747   3.318   1.052 -0.0088  1.6370  0.1352
 7118TIP3    H242990   5.867   3.235   1.092 -1.0612 -0.3434 -0.6358
 7119TIP3   OH242991   3.038   3.779   1.533 -0.5291  0.0877  0.1262
 7119TIP3    H142992   2.954   3.732   1.538 -1.0420  0.9090 -0.4509
 7119TIP3    H242993   3.092   3.739   1.601 -1.3270 -0.5867  0.3842
 7120TIP3   OH242994   5.764   5.314   2.828 -0.5680 -0.3285 -0.2577
 7120TIP3    H142995   5.827   5.265   2.881 -0.1415 -0.9843 -1.3381
 7120TIP3    H242996   5.777   5.405   2.854  0.1821 -0.5500  0.1900
 7121TIP3   OH242997   5.424   0.450   0.041 -0.4515 -0.3636 -0.2693
 7121TIP3    H142998   5.512   0.419   0.018 -0.7938 -0.9932 -0.7731
 7121TIP3    H242999   5.427   0.545   0.027  0.0426 -0.4302 -0.6459
 7122TIP3   OH243000   1.382   6.633   2.040  0.4064 -0.4303  0.0848
 7122TIP3    H143001   1.413   6.712   1.996  0.7980 -0.6746 -0.0855
 7122TIP3    H243002   1.322   6.665   2.108  0.0809 -0.0325 -0.3892
 7123TIP3   OH243003   5.310   6.768   1.838  0.3455  0.2147 -0.0020
 7123TIP3    H143004   5.359   6.805   1.766  1.3870  0.5032  0.8338
 7123TIP3    H243005   5.361   6.789   1.916 -0.4081 -0.6547  0.7603
 7124TIP3   OH243006   4.273   4.377   2.836 -0.8312 -0.0796  0.3225
 7124TIP3    H143007   4.288   4.398   2.744 -1.8198  1.4110  0.4812
 7124TIP3    H243008   4.184   4.343   2.839 -0.8333 -0.0415  0.7422
 7125TIP3   OH243009   0.071   2.926   8.176  0.0159  0.9395 -0.2236
 7125TIP3    H143010  -0.024   2.928   8.160  0.0790  0.7516 -0.6271
 7125TIP3    H243011   0.084   2.844   8.224  0.2116  0.0221 -1.7794
 7126TIP3   OH243012   2.130   6.978   0.648  0.2651  0.4269  0.1629
 7126TIP3    H143013   2.090   6.980   0.735  0.9172 -0.1082  0.4858
 7126TIP3    H243014   2.057   6.966   0.588  0.0234 -2.0368  0.8449
 7127TIP3   OH243015   6.200   2.784   1.426  0.1658  0.3050  0.4154
 7127TIP3    H143016   6.268   2.851   1.436  1.5890 -0.6748 -1.8937
 7127TIP3    H243017   6.242   2.702   1.454  0.5732 -0.5833 -2.5218
 7128TIP3   OH243018   4.803   1.189   8.306 -0.1186  0.0415 -0.2044
 7128TIP3    H143019   4.708   1.191   8.320  0.1349  0.6675  1.7260
 7128TIP3    H243020   4.840   1.190   8.394  1.7106  1.4886 -0.9257
 7129TIP3   OH243021   2.223   0.001   1.986  0.6497  0.1012  0.1788
 7129TIP3    H143022   2.251  -0.086   1.957 -1.0853 -0.0425 -1.1624
 7129TIP3    H243023   2.274   0.016   2.066  1.7542 -1.6911 -0.1287
 7130TIP3   OH243024   3.901   5.871   2.245 -0.5371  0.2187  0.2185
 7130TIP3    H143025   3.952   5.805   2.292 -1.0397 -0.1473  0.2581
 7130TIP3    H243026   3.925   5.860   2.153 -0.6444 -0.0446  0.2213
 7131TIP3   OH243027   4.677   0.037   1.874  0.1155  0.4174  0.1205
 7131TIP3    H143028   4.683  -0.050   1.835 -0.8702  1.0316 -1.4650
 7131TIP3    H243029   4.765   0.054   1.909  0.3910 -1.0778  0.2037
 7132TIP3   OH243030   1.781   0.172   2.050 -0.1732  0.2760 -0.4478
 7132TIP3    H143031   1.850   0.224   2.010  0.3004  0.9647  1.1863
 7132TIP3    H243032   1.707   0.180   1.990  0.5503  1.1256 -1.2500
 7133TIP3   OH243033   3.674   0.338   1.389 -0.3170  0.1724  0.0446
 7133TIP3    H143034   3.639   0.303   1.470  0.6717  1.4956  1.1056
 7133TIP3    H243035   3.604   0.328   1.325 -1.0713 -1.0063  1.0238
 7134TIP3   OH243036   4.493   1.907   1.482 -0.1908  0.0708  0.0494
 7134TIP3    H143037   4.483   1.891   1.576 -1.4811 -1.2298 -0.2645
 7134TIP3    H243038   4.474   2.000   1.472  0.8941  0.4386  1.1748
 7135TIP3   OH243039   6.307   6.884   0.790  0.1351 -0.0726 -0.1769
 7135TIP3    H143040   6.221   6.845   0.805 -1.6195  3.7963  1.1673
 7135TIP3    H243041   6.348   6.885   0.876  0.8044 -0.3425 -0.4908
 7136TIP3   OH243042   1.228   3.135   3.274  0.1811  0.2254 -0.3335
 7136TIP3    H143043   1.157   3.125   3.338 -0.1585  0.4204 -0.6788
 7136TIP3    H243044   1.244   3.046   3.243 -0.1470  0.2272 -0.5089
 7137TIP3   OH243045   5.920   5.908   2.330  0.1050  0.0919 -0.7081
 7137TIP3    H143046   5.905   6.001   2.311  0.3483  0.1292 -0.7244
 7137TIP3    H243047   6.014   5.902   2.348 -0.1402  0.0831  0.6429
 7138TIP3   OH243048   1.079   2.848   8.054  0.1994  0.2570 -0.7656
 7138TIP3    H143049   1.052   2.936   8.083 -0.7731 -0.5002  0.7775
 7138TIP3    H243050   1.174   2.848   8.062  0.1536  0.9481 -0.0864
 7139TIP3   OH243051   5.159   1.033   8.068  0.1094 -0.2698 -0.2669
 7139TIP3    H143052   5.064   1.020   8.061 -0.0151 -0.2176  1.0332
 7139TIP3    H243053   5.195   0.987   7.992 -0.8185 -2.2037  0.3901
 7140TIP3   OH243054   6.137   6.911   0.207 -0.1846 -0.5205 -0.4871
 7140TIP3    H143055   6.042   6.904   0.210 -0.3504  0.3421 -2.1634
 7140TIP3    H243056   6.168   6.867   0.286 -2.0348  0.8105  1.0665
 7141TIP3   OH243057   4.842   6.697   7.989  0.3034  0.0393 -0.4036
 7141TIP3    H143058   4.889   6.676   7.909  0.6066  0.4005 -0.3236
 7141TIP3    H243059   4.836   6.793   7.989 -0.2053  0.0089 -0.2841
 7142TIP3   OH243060   6.408   4.805   7.447  0.0693  0.2263  0.4196
 7142TIP3    H143061   6.408   4.897   7.421 -1.0203 -0.1469 -0.9867
 7142TIP3    H243062   6.438   4.806   7.538  1.2094  1.8469  0.0695
 7143TIP3   OH243063   6.416   0.221   7.297 -0.3597  0.6388  0.0272
 7143TIP3    H143064   6.494   0.192   7.250 -1.0536 -0.7200 -0.3631
 7143TIP3    H243065   6.406   0.158   7.368 -2.0541 -0.3114 -0.9805
 7144TIP3   OH243066   4.925   1.341   2.003  0.7567  0.9601  0.1281
 7144TIP3    H143067   4.916   1.270   1.939  2.1652  0.9618 -0.1103
 7144TIP3    H243068   5.018   1.341   2.025  0.7452  2.5900  0.2845
 7145TIP3   OH243069   0.999   1.974   1.338 -0.1136  0.0460 -0.2856
 7145TIP3    H143070   0.973   1.892   1.297 -0.4678 -0.4769  0.9334
 7145TIP3    H243071   0.940   1.983   1.413 -0.6480  1.8510 -0.8754
 7146TIP3   OH243072   4.524   1.869   1.198 -0.2397  0.2505 -0.4958
 7146TIP3    H143073   4.514   1.859   1.293  0.2456 -0.6878 -0.5346
 7146TIP3    H243074   4.618   1.883   1.185 -0.3554  0.7816 -0.8175
 7147TIP3   OH243075   3.680   1.468   2.710  0.7818  0.0313 -0.2581
 7147TIP3    H143076   3.750   1.439   2.768 -1.4560 -1.1350  2.0375
 7147TIP3    H243077   3.649   1.550   2.749  0.2786  0.0729 -0.7333
 7148TIP3   OH243078   4.257   0.160   0.734 -0.1939 -0.0160  0.4716
 7148TIP3    H143079   4.262   0.209   0.816  0.8557 -0.4629  0.6887
 7148TIP3    H243080   4.165   0.134   0.727 -0.5769  1.1888  0.8085
 7149TIP3   OH243081   3.527   1.006   0.224  0.7210  0.0724 -0.1023
 7149TIP3    H143082   3.547   1.004   0.131  0.2130 -0.0169 -0.2090
 7149TIP3    H243083   3.456   1.069   0.233  0.1779 -0.5570  0.1099
 7150TIP3   OH243084   4.539   6.354   2.409 -0.0793  0.3168  0.2780
 7150TIP3    H143085   4.457   6.362   2.459 -0.2032  0.0142  0.1279
 7150TIP3    H243086   4.551   6.260   2.398  0.2906  0.3589  0.2960
 7151TIP3   OH243087   4.027   2.349   2.064  0.2481  0.3708 -0.1332
 7151TIP3    H143088   4.098   2.411   2.079  0.0245  0.5298  0.2847
 7151TIP3    H243089   3.972   2.356   2.143 -0.1405  0.1328 -0.3802
 7152TIP3   OH243090   1.730   4.817   1.057  0.5521  0.3012 -0.2273
 7152TIP3    H143091   1.693   4.903   1.036  1.7491  0.7401 -0.6356
 7152TIP3    H243092   1.818   4.837   1.091  0.1659 -0.6572  1.4357
 7153TIP3   OH243093   5.998   1.717   0.610  0.2477 -0.0712 -0.0511
 7153TIP3    H143094   5.970   1.651   0.674  1.0564 -0.1566  0.2288
 7153TIP3    H243095   5.996   1.671   0.526  1.7113 -0.7578  0.2562
 7154TIP3   OH243096   4.557   1.441   1.863  0.3624  0.2284 -0.1627
 7154TIP3    H143097   4.616   1.379   1.906 -0.2353  0.4055  0.9477
 7154TIP3    H243098   4.602   1.526   1.872  0.2856  0.2496  0.0280
 7155TIP3   OH243099   1.500   1.519   1.262 -0.6742  0.0133  0.9387
 7155TIP3    H143100   1.450   1.553   1.336 -3.3260  1.1515 -1.2100
 7155TIP3    H243101   1.498   1.424   1.274 -0.2786  0.2016  2.7362
 7156TIP3   OH243102   0.076   3.697   1.289  0.0827  0.0489 -0.4107
 7156TIP3    H143103   0.033   3.722   1.207  1.8038  0.5696 -1.2045
 7156TIP3    H243104   0.168   3.687   1.266  0.3849 -1.2435  1.1732
 7157TIP3   OH243105   2.936   1.534   1.221  0.0806  0.0341 -0.2463
 7157TIP3    H143106   2.945   1.584   1.302  0.3595  0.8489 -0.7594
 7157TIP3    H243107   2.843   1.539   1.199 -0.2409 -1.3197  0.7033
 7158TIP3   OH243108   0.681   3.046   0.617 -0.3735 -0.0779 -0.0537
 7158TIP3    H143109   0.728   2.978   0.664  0.1170 -0.6456 -1.3190
 7158TIP3    H243110   0.640   3.001   0.544  0.3271  1.0330 -1.1722
 7159TIP3   OH243111   6.660   1.329   0.104 -0.2758  0.3483  0.4035
 7159TIP3    H143112   6.721   1.274   0.056  1.3454  2.3698 -0.0211
 7159TIP3    H243113   6.576   1.314   0.063  1.0678  2.2975 -3.5860
 7160TIP3   OH243114   5.232   4.662   1.086 -0.0119  0.2750 -0.2688
 7160TIP3    H143115   5.298   4.612   1.039  0.3801  1.6318 -1.2193
 7160TIP3    H243116   5.177   4.700   1.017  0.0532  1.5983  0.3743
 7161TIP3   OH243117   2.700   2.041   7.872 -0.4216  0.8045 -0.3052
 7161TIP3    H143118   2.734   2.046   7.783 -0.0965 -0.9738 -0.3138
 7161TIP3    H243119   2.701   1.948   7.893  0.7427  1.2656  2.0403
 7162TIP3   OH243120   1.097   4.417   0.932 -0.1373  0.2354  0.5532
 7162TIP3    H143121   1.146   4.335   0.935 -1.1241 -0.4740 -1.0399
 7162TIP3    H243122   1.061   4.428   1.020  0.2560 -0.8950  0.8668
 7163TIP3   OH243123   2.263   1.653   0.821  1.1629  0.1000  0.4386
 7163TIP3    H143124   2.306   1.725   0.868  2.7686 -1.6187  1.7333
 7163TIP3    H243125   2.180   1.642   0.866  1.2743  0.5924  0.7803
 7164TIP3   OH243126   6.858   6.035   1.896  0.1144  0.0783 -0.2520
 7164TIP3    H143127   6.849   5.969   1.965  0.0811 -0.0102 -0.3406
 7164TIP3    H243128   6.952   6.053   1.893 -0.0299  1.1810  0.8434
 7165LIG      O43129   5.657   6.599   4.079 -0.2766 -0.0056 -0.0833
 7165LIG      N43130   5.782   6.456   4.284 -1.0201 -0.2161  0.6792
 7165LIG     C143131   5.568   6.487   3.883 -0.7953 -0.1792  0.6096
 7165LIG     C243132   5.595   6.480   4.037  0.2383  0.1886 -0.0374
 7165LIG     C343133   5.453   6.587   3.846  0.3905  0.1430  0.2276
 7165LIG     C443134   5.692   6.519   3.803 -0.0619  0.9639  0.4287
 7165LIG     C543135   5.699   6.366   4.070  0.5050 -0.5208 -0.4773
 7165LIG     C643136   5.415   6.569   3.700  0.8900 -0.4195  0.3218
 7165LIG     C743137   5.661   6.517   3.648  0.4497 -0.6144 -0.4210
 7165LIG     C843138   5.538   6.605   3.610  0.0156 -0.4128  0.8804
 7165LIG     C943139   5.714   6.347   4.225  0.4319  0.3498  0.0533
 7165LIG    C1043140   5.455   6.451   4.110  0.1067  0.8930  0.5523
 7165LIG    C1143141   5.736   6.503   4.412  0.6676 -0.1775  0.1483
 7165LIG    C1243142   5.928   6.450   4.274 -0.6315 -0.3141  0.3952
 7165LIG    C1343143   5.779   6.393   4.517  0.1215  0.0689 -0.0326
 7165LIG    C1443144   5.987   6.359   4.384  0.5063  0.3307 -1.1909
 7165LIG    C1543145   5.931   6.389   4.529 -1.0410 -0.0135 -0.5575
 7165LIG    C1643146   5.400   6.324   4.120  0.2166  0.4614 -0.4737
 7165LIG    C1743147   5.387   6.553   4.187 -0.8229  0.2964  0.3074
 7165LIG    C1843148   5.291   6.290   4.199  0.6202 -0.4733  0.1347
 7165LIG    C1943149   5.265   6.528   4.256  0.1498  0.3964 -0.9969
 7165LIG    C2043150   5.216   6.395   4.257  0.2959  0.4554  0.4429
 7165LIG     H143151   5.531   6.387   3.854  0.9001 -1.1662  1.7073
 7165LIG     H243152   5.489   6.692   3.852 -2.0217  1.3000 -2.7779
 7165LIG     H343153   5.359   6.571   3.902 -1.1149 -0.4139 -2.2791
 7165LIG     H443154   5.773   6.443   3.811 -1.6067 -1.1204 -2.2604
 7165LIG     H543155   5.741   6.615   3.828  1.8621 -0.1186  1.0623
 7165LIG     H643156   5.796   6.400   4.027  0.4762 -1.2124 -1.1103
 7165LIG     H743157   5.681   6.269   4.020 -0.4884 -0.6385  0.0921
 7165LIG     H843158   5.328   6.629   3.667  1.5633  1.2599  1.4788
 7165LIG     H943159   5.398   6.459   3.694  0.8090 -0.3405 -1.6738
 7165LIG    H1043160   5.624   6.416   3.619 -2.5198 -0.0094  0.8142
 7165LIG    H1143161   5.752   6.549   3.593 -0.1033  3.9734  0.8967
 7165LIG    H1243162   5.564   6.710   3.632  0.2010 -0.5465  1.3042
 7165LIG    H1343163   5.516   6.575   3.505 -0.8905 -2.3643  1.5815
 7165LIG    H1443164   5.614   6.347   4.275  0.1586  1.0457 -0.4738
 7165LIG    H1543165   5.760   6.249   4.248  1.6268  0.8464 -0.1654
 7165LIG    H1643166   5.627   6.518   4.422  1.1203  2.1503  3.1865
 7165LIG    H1743167   5.780   6.603   4.436  0.8854 -0.2649  0.1160
 7165LIG    H1843168   5.960   6.555   4.293 -3.3639  0.5117  0.9803
 7165LIG    H1943169   5.966   6.424   4.173  0.9924  0.6875  0.7148
 7165LIG    H2043170   5.719   6.556   4.138 -1.4070 -0.7888  0.5616
 7165LIG    H2143171   5.742   6.294   4.485 -1.1954  0.8460 -1.0076
 7165LIG    H2243172   5.732   6.414   4.616 -0.7697 -1.0433 -0.1972
 7165LIG    H2343173   6.098   6.360   4.381  0.5296 -1.2922 -1.9214
 7165LIG    H2443174   5.955   6.256   4.357 -0.5557  0.4173 -0.3366
 7165LIG    H2543175   5.964   6.311   4.600  0.0120  2.6978  2.1564
 7165LIG    H2643176   5.976   6.483   4.569  0.0288 -0.6831 -0.1576
 7165LIG    H2743177   5.439   6.241   4.063 -3.2876 -2.0252  0.3785
 7165LIG    H2843178   5.426   6.654   4.182 -1.8903  0.7282  0.2541
 7165LIG    H2943179   5.260   6.186   4.196  0.7967 -0.5158 -0.4376
 7165LIG    H3043180   5.210   6.604   4.310 -1.2895 -1.3498  0.1155
 7165LIG    H3143181   5.129   6.360   4.310  1.5207 -2.0918  0.8792
   7.03767   7.03767   8.38971
